;
;   File g6npocore_petim.itp  was generated
;   By user: sairam (1000)
;   On host: sairam
;   At date: Wed. August  3 16:11:32 2023
;
;   This is a standalone topology file
;
;   Created by:
;   ParmEd:       amb2gro_top_gro.py, VERSION 3.4.1
;   Executable:   amb2gro_top_gro.py
;   Library dir:  /usr/local/gromacs/share/gromacs/top
;   Command line:
;     ./amb2gro_top_gro.py -p g6npocore_petim.prmtop -c g6npocore_petim.inpcrd -t g6npocore_petim.itp -g g6npocore_petim.gro -b g6npocore_petim.pdb
;

;[ defaults ]
;; nbfunc        comb-rule       gen-pairs       fudgeLJ fudgeQQ
;1               2               yes             0.5          0.83333333  
;
;[ atomtypes ]
;; name    at.num    mass    charge ptype  sigma      epsilon
;os             8  16.000000  0.00000000  A     0.30000123        0.71128
;c3             6  12.010000  0.00000000  A     0.33996695      0.4577296
;h1             1   1.008000  0.00000000  A      0.2471353      0.0656888
;hc             1   1.008000  0.00000000  A     0.26495328      0.0656888
;n3             7  14.010000  0.00000000  A     0.32499985        0.71128
;hn             1   1.008000  0.00000000  A     0.10690785      0.0656888


[ moleculetype ]
; Name            nrexcl
g6npocore_petim          3

[ atoms ]
;   nr       type  resnr residue  atom   cgnr    charge       mass  typeB    chargeB      massB
; residue    1 aaa rtp aaa q -0.0
    1         os      1    aaa     O1      1 -0.43807400  16.000000   ; qtot -0.438074
    2         c3      1    aaa     C1      2 0.04509800  12.010000   ; qtot -0.392976
    3         h1      1    aaa     H1      3 0.04771700   1.008000   ; qtot -0.345259
    4         h1      1    aaa     H2      4 0.04771700   1.008000   ; qtot -0.297542
    5         c3      1    aaa     C2      5 0.04509800  12.010000   ; qtot -0.252444
    6         h1      1    aaa     H3      6 0.04771700   1.008000   ; qtot -0.204727
    7         h1      1    aaa     H4      7 0.04771700   1.008000   ; qtot -0.157010
    8         c3      1    aaa     C3      8 0.05658600  12.010000   ; qtot -0.100424
    9         hc      1    aaa     H5      9 0.04933800   1.008000   ; qtot -0.051086
   10         hc      1    aaa     H6     10 0.04933800   1.008000   ; qtot -0.001748
   11         c3      1    aaa     C4     11 0.05658600  12.010000   ; qtot 0.054838
   12         hc      1    aaa     H7     12 0.04933800   1.008000   ; qtot 0.104176
   13         hc      1    aaa     H8     13 0.04933800   1.008000   ; qtot 0.153514
   14         c3      1    aaa     C5     14 0.00989700  12.010000   ; qtot 0.163411
   15         h1      1    aaa     H9     15 0.04845500   1.008000   ; qtot 0.211866
   16         h1      1    aaa    H10     16 0.04845500   1.008000   ; qtot 0.260321
   17         c3      1    aaa     C6     17 0.00989700  12.010000   ; qtot 0.270218
   18         h1      1    aaa    H11     18 0.04845500   1.008000   ; qtot 0.318673
   19         h1      1    aaa    H12     19 0.04845500   1.008000   ; qtot 0.367128
   20         n3      1    aaa     N1     20 -0.59936800  14.010000   ; qtot -0.232240
   21         n3      1    aaa     N2     21 -0.59936800  14.010000   ; qtot -0.831608
   22         c3      1    aaa     C7     22 0.08030200  12.010000   ; qtot -0.751306
   23         h1      1    aaa    H13     23 0.05071600   1.008000   ; qtot -0.700590
   24         h1      1    aaa    H14     24 0.05071600   1.008000   ; qtot -0.649874
   25         c3      1    aaa     C8     25 0.08030200  12.010000   ; qtot -0.569572
   26         h1      1    aaa    H15     26 0.05071600   1.008000   ; qtot -0.518856
   27         h1      1    aaa    H16     27 0.05071600   1.008000   ; qtot -0.468140
   28         c3      1    aaa     C9     28 0.08030200  12.010000   ; qtot -0.387838
   29         h1      1    aaa    H17     29 0.05071600   1.008000   ; qtot -0.337122
   30         h1      1    aaa    H18     30 0.05071600   1.008000   ; qtot -0.286406
   31         c3      1    aaa    C10     31 0.08030200  12.010000   ; qtot -0.206104
   32         h1      1    aaa    H19     32 0.05071600   1.008000   ; qtot -0.155388
   33         h1      1    aaa    H20     33 0.05071600   1.008000   ; qtot -0.104672
   34         c3      1    aaa    C11     34 0.10287800  12.010000   ; qtot -0.001794
   35         hc      1    aaa    H21     35 0.06787400   1.008000   ; qtot 0.066080
   36         hc      1    aaa    H22     36 0.06787400   1.008000   ; qtot 0.133954
   37         c3      1    aaa    C12     37 0.10287800  12.010000   ; qtot 0.236832
   38         hc      1    aaa    H23     38 0.06787400   1.008000   ; qtot 0.304706
   39         hc      1    aaa    H24     39 0.06787400   1.008000   ; qtot 0.372580
   40         c3      1    aaa    C13     40 0.10287800  12.010000   ; qtot 0.475458
   41         hc      1    aaa    H25     41 0.06787400   1.008000   ; qtot 0.543332
   42         hc      1    aaa    H26     42 0.06787400   1.008000   ; qtot 0.611206
   43         c3      1    aaa    C14     43 0.10287800  12.010000   ; qtot 0.714084
   44         hc      1    aaa    H27     44 0.06787400   1.008000   ; qtot 0.781958
   45         hc      1    aaa    H28     45 0.06787400   1.008000   ; qtot 0.849832
   46         c3      1    aaa    C15     46 -0.72585200  12.010000   ; qtot 0.123980
   47         h1      1    aaa    H29     47 0.25669700   1.008000   ; qtot 0.380677
   48         h1      1    aaa    H30     48 0.25669700   1.008000   ; qtot 0.637374
   49         c3      1    aaa    C16     49 -0.72585200  12.010000   ; qtot -0.088478
   50         h1      1    aaa    H31     50 0.25669700   1.008000   ; qtot 0.168219
   51         h1      1    aaa    H32     51 0.25669700   1.008000   ; qtot 0.424916
   52         c3      1    aaa    C17     52 -0.72585200  12.010000   ; qtot -0.300936
   53         h1      1    aaa    H33     53 0.25669700   1.008000   ; qtot -0.044239
   54         h1      1    aaa    H34     54 0.25669700   1.008000   ; qtot 0.212458
   55         c3      1    aaa    C18     55 -0.72585200  12.010000   ; qtot -0.513394
   56         h1      1    aaa    H35     56 0.25669700   1.008000   ; qtot -0.256697
   57         h1      1    aaa    H36     57 0.25669700   1.008000   ; qtot -0.000000
; residue    2 bbb rtp bbb q -0.0
   58         n3      2    bbb     N1     58 -0.59685800  14.010000   ; qtot -0.596858
   59         c3      2    bbb     C1     59 0.10137000  12.010000   ; qtot -0.495488
   60         h1      2    bbb     H1     60 0.04411300   1.008000   ; qtot -0.451375
   61         h1      2    bbb     H2     61 0.04411300   1.008000   ; qtot -0.407262
   62         c3      2    bbb     C2     62 0.10137000  12.010000   ; qtot -0.305892
   63         h1      2    bbb     H3     63 0.04411300   1.008000   ; qtot -0.261779
   64         h1      2    bbb     H4     64 0.04411300   1.008000   ; qtot -0.217666
   65         c3      2    bbb     C3     65 -0.00195300  12.010000   ; qtot -0.219619
   66         h1      2    bbb     H5     66 0.05064400   1.008000   ; qtot -0.168975
   67         h1      2    bbb     H6     67 0.05064400   1.008000   ; qtot -0.118331
   68         c3      2    bbb     C4     68 -0.01612100  12.010000   ; qtot -0.134452
   69         hc      2    bbb     H7     69 0.04936100   1.008000   ; qtot -0.085091
   70         hc      2    bbb     H8     70 0.04936100   1.008000   ; qtot -0.035730
   71         c3      2    bbb     C5     71 0.11363000  12.010000   ; qtot 0.077900
   72         hc      2    bbb     H9     72 0.06265900   1.008000   ; qtot 0.140559
   73         hc      2    bbb    H10     73 0.06265900   1.008000   ; qtot 0.203218
   74         c3      2    bbb     C6     74 0.11363000  12.010000   ; qtot 0.316848
   75         hc      2    bbb    H11     75 0.06265900   1.008000   ; qtot 0.379507
   76         hc      2    bbb    H12     76 0.06265900   1.008000   ; qtot 0.442166
   77         c3      2    bbb     C7     77 0.05858200  12.010000   ; qtot 0.500748
   78         h1      2    bbb    H13     78 0.06123400   1.008000   ; qtot 0.561982
   79         h1      2    bbb    H14     79 0.06123400   1.008000   ; qtot 0.623216
   80         c3      2    bbb     C8     80 -0.72423400  12.010000   ; qtot -0.101018
   81         h1      2    bbb    H15     81 0.25637600   1.008000   ; qtot 0.155358
   82         h1      2    bbb    H16     82 0.25637600   1.008000   ; qtot 0.411734
   83         c3      2    bbb     C9     83 -0.72423400  12.010000   ; qtot -0.312500
   84         h1      2    bbb    H17     84 0.25637600   1.008000   ; qtot -0.056124
   85         h1      2    bbb    H18     85 0.25637600   1.008000   ; qtot 0.200252
   86         os      2    bbb     O1     86 -0.20025300  16.000000   ; qtot -0.000001
; residue    3 bbb rtp bbb q -0.0
   87         n3      3    bbb     N1     87 -0.59685800  14.010000   ; qtot -0.596859
   88         c3      3    bbb     C1     88 0.10137000  12.010000   ; qtot -0.495489
   89         h1      3    bbb     H1     89 0.04411300   1.008000   ; qtot -0.451376
   90         h1      3    bbb     H2     90 0.04411300   1.008000   ; qtot -0.407263
   91         c3      3    bbb     C2     91 0.10137000  12.010000   ; qtot -0.305893
   92         h1      3    bbb     H3     92 0.04411300   1.008000   ; qtot -0.261780
   93         h1      3    bbb     H4     93 0.04411300   1.008000   ; qtot -0.217667
   94         c3      3    bbb     C3     94 -0.00195300  12.010000   ; qtot -0.219620
   95         h1      3    bbb     H5     95 0.05064400   1.008000   ; qtot -0.168976
   96         h1      3    bbb     H6     96 0.05064400   1.008000   ; qtot -0.118332
   97         c3      3    bbb     C4     97 -0.01612100  12.010000   ; qtot -0.134453
   98         hc      3    bbb     H7     98 0.04936100   1.008000   ; qtot -0.085092
   99         hc      3    bbb     H8     99 0.04936100   1.008000   ; qtot -0.035731
  100         c3      3    bbb     C5    100 0.11363000  12.010000   ; qtot 0.077899
  101         hc      3    bbb     H9    101 0.06265900   1.008000   ; qtot 0.140558
  102         hc      3    bbb    H10    102 0.06265900   1.008000   ; qtot 0.203217
  103         c3      3    bbb     C6    103 0.11363000  12.010000   ; qtot 0.316847
  104         hc      3    bbb    H11    104 0.06265900   1.008000   ; qtot 0.379506
  105         hc      3    bbb    H12    105 0.06265900   1.008000   ; qtot 0.442165
  106         c3      3    bbb     C7    106 0.05858200  12.010000   ; qtot 0.500747
  107         h1      3    bbb    H13    107 0.06123400   1.008000   ; qtot 0.561981
  108         h1      3    bbb    H14    108 0.06123400   1.008000   ; qtot 0.623215
  109         c3      3    bbb     C8    109 -0.72423400  12.010000   ; qtot -0.101019
  110         h1      3    bbb    H15    110 0.25637600   1.008000   ; qtot 0.155357
  111         h1      3    bbb    H16    111 0.25637600   1.008000   ; qtot 0.411733
  112         c3      3    bbb     C9    112 -0.72423400  12.010000   ; qtot -0.312501
  113         h1      3    bbb    H17    113 0.25637600   1.008000   ; qtot -0.056125
  114         h1      3    bbb    H18    114 0.25637600   1.008000   ; qtot 0.200251
  115         os      3    bbb     O1    115 -0.20025300  16.000000   ; qtot -0.000002
; residue    4 bbb rtp bbb q -0.0
  116         n3      4    bbb     N1    116 -0.59685800  14.010000   ; qtot -0.596860
  117         c3      4    bbb     C1    117 0.10137000  12.010000   ; qtot -0.495490
  118         h1      4    bbb     H1    118 0.04411300   1.008000   ; qtot -0.451377
  119         h1      4    bbb     H2    119 0.04411300   1.008000   ; qtot -0.407264
  120         c3      4    bbb     C2    120 0.10137000  12.010000   ; qtot -0.305894
  121         h1      4    bbb     H3    121 0.04411300   1.008000   ; qtot -0.261781
  122         h1      4    bbb     H4    122 0.04411300   1.008000   ; qtot -0.217668
  123         c3      4    bbb     C3    123 -0.00195300  12.010000   ; qtot -0.219621
  124         h1      4    bbb     H5    124 0.05064400   1.008000   ; qtot -0.168977
  125         h1      4    bbb     H6    125 0.05064400   1.008000   ; qtot -0.118333
  126         c3      4    bbb     C4    126 -0.01612100  12.010000   ; qtot -0.134454
  127         hc      4    bbb     H7    127 0.04936100   1.008000   ; qtot -0.085093
  128         hc      4    bbb     H8    128 0.04936100   1.008000   ; qtot -0.035732
  129         c3      4    bbb     C5    129 0.11363000  12.010000   ; qtot 0.077898
  130         hc      4    bbb     H9    130 0.06265900   1.008000   ; qtot 0.140557
  131         hc      4    bbb    H10    131 0.06265900   1.008000   ; qtot 0.203216
  132         c3      4    bbb     C6    132 0.11363000  12.010000   ; qtot 0.316846
  133         hc      4    bbb    H11    133 0.06265900   1.008000   ; qtot 0.379505
  134         hc      4    bbb    H12    134 0.06265900   1.008000   ; qtot 0.442164
  135         c3      4    bbb     C7    135 0.05858200  12.010000   ; qtot 0.500746
  136         h1      4    bbb    H13    136 0.06123400   1.008000   ; qtot 0.561980
  137         h1      4    bbb    H14    137 0.06123400   1.008000   ; qtot 0.623214
  138         c3      4    bbb     C8    138 -0.72423400  12.010000   ; qtot -0.101020
  139         h1      4    bbb    H15    139 0.25637600   1.008000   ; qtot 0.155356
  140         h1      4    bbb    H16    140 0.25637600   1.008000   ; qtot 0.411732
  141         c3      4    bbb     C9    141 -0.72423400  12.010000   ; qtot -0.312502
  142         h1      4    bbb    H17    142 0.25637600   1.008000   ; qtot -0.056126
  143         h1      4    bbb    H18    143 0.25637600   1.008000   ; qtot 0.200250
  144         os      4    bbb     O1    144 -0.20025300  16.000000   ; qtot -0.000003
; residue    5 bbb rtp bbb q -0.0
  145         n3      5    bbb     N1    145 -0.59685800  14.010000   ; qtot -0.596861
  146         c3      5    bbb     C1    146 0.10137000  12.010000   ; qtot -0.495491
  147         h1      5    bbb     H1    147 0.04411300   1.008000   ; qtot -0.451378
  148         h1      5    bbb     H2    148 0.04411300   1.008000   ; qtot -0.407265
  149         c3      5    bbb     C2    149 0.10137000  12.010000   ; qtot -0.305895
  150         h1      5    bbb     H3    150 0.04411300   1.008000   ; qtot -0.261782
  151         h1      5    bbb     H4    151 0.04411300   1.008000   ; qtot -0.217669
  152         c3      5    bbb     C3    152 -0.00195300  12.010000   ; qtot -0.219622
  153         h1      5    bbb     H5    153 0.05064400   1.008000   ; qtot -0.168978
  154         h1      5    bbb     H6    154 0.05064400   1.008000   ; qtot -0.118334
  155         c3      5    bbb     C4    155 -0.01612100  12.010000   ; qtot -0.134455
  156         hc      5    bbb     H7    156 0.04936100   1.008000   ; qtot -0.085094
  157         hc      5    bbb     H8    157 0.04936100   1.008000   ; qtot -0.035733
  158         c3      5    bbb     C5    158 0.11363000  12.010000   ; qtot 0.077897
  159         hc      5    bbb     H9    159 0.06265900   1.008000   ; qtot 0.140556
  160         hc      5    bbb    H10    160 0.06265900   1.008000   ; qtot 0.203215
  161         c3      5    bbb     C6    161 0.11363000  12.010000   ; qtot 0.316845
  162         hc      5    bbb    H11    162 0.06265900   1.008000   ; qtot 0.379504
  163         hc      5    bbb    H12    163 0.06265900   1.008000   ; qtot 0.442163
  164         c3      5    bbb     C7    164 0.05858200  12.010000   ; qtot 0.500745
  165         h1      5    bbb    H13    165 0.06123400   1.008000   ; qtot 0.561979
  166         h1      5    bbb    H14    166 0.06123400   1.008000   ; qtot 0.623213
  167         c3      5    bbb     C8    167 -0.72423400  12.010000   ; qtot -0.101021
  168         h1      5    bbb    H15    168 0.25637600   1.008000   ; qtot 0.155355
  169         h1      5    bbb    H16    169 0.25637600   1.008000   ; qtot 0.411731
  170         c3      5    bbb     C9    170 -0.72423400  12.010000   ; qtot -0.312503
  171         h1      5    bbb    H17    171 0.25637600   1.008000   ; qtot -0.056127
  172         h1      5    bbb    H18    172 0.25637600   1.008000   ; qtot 0.200249
  173         os      5    bbb     O1    173 -0.20025300  16.000000   ; qtot -0.000004
; residue    6 bbb rtp bbb q -0.0
  174         n3      6    bbb     N1    174 -0.59685800  14.010000   ; qtot -0.596862
  175         c3      6    bbb     C1    175 0.10137000  12.010000   ; qtot -0.495492
  176         h1      6    bbb     H1    176 0.04411300   1.008000   ; qtot -0.451379
  177         h1      6    bbb     H2    177 0.04411300   1.008000   ; qtot -0.407266
  178         c3      6    bbb     C2    178 0.10137000  12.010000   ; qtot -0.305896
  179         h1      6    bbb     H3    179 0.04411300   1.008000   ; qtot -0.261783
  180         h1      6    bbb     H4    180 0.04411300   1.008000   ; qtot -0.217670
  181         c3      6    bbb     C3    181 -0.00195300  12.010000   ; qtot -0.219623
  182         h1      6    bbb     H5    182 0.05064400   1.008000   ; qtot -0.168979
  183         h1      6    bbb     H6    183 0.05064400   1.008000   ; qtot -0.118335
  184         c3      6    bbb     C4    184 -0.01612100  12.010000   ; qtot -0.134456
  185         hc      6    bbb     H7    185 0.04936100   1.008000   ; qtot -0.085095
  186         hc      6    bbb     H8    186 0.04936100   1.008000   ; qtot -0.035734
  187         c3      6    bbb     C5    187 0.11363000  12.010000   ; qtot 0.077896
  188         hc      6    bbb     H9    188 0.06265900   1.008000   ; qtot 0.140555
  189         hc      6    bbb    H10    189 0.06265900   1.008000   ; qtot 0.203214
  190         c3      6    bbb     C6    190 0.11363000  12.010000   ; qtot 0.316844
  191         hc      6    bbb    H11    191 0.06265900   1.008000   ; qtot 0.379503
  192         hc      6    bbb    H12    192 0.06265900   1.008000   ; qtot 0.442162
  193         c3      6    bbb     C7    193 0.05858200  12.010000   ; qtot 0.500744
  194         h1      6    bbb    H13    194 0.06123400   1.008000   ; qtot 0.561978
  195         h1      6    bbb    H14    195 0.06123400   1.008000   ; qtot 0.623212
  196         c3      6    bbb     C8    196 -0.72423400  12.010000   ; qtot -0.101022
  197         h1      6    bbb    H15    197 0.25637600   1.008000   ; qtot 0.155354
  198         h1      6    bbb    H16    198 0.25637600   1.008000   ; qtot 0.411730
  199         c3      6    bbb     C9    199 -0.72423400  12.010000   ; qtot -0.312504
  200         h1      6    bbb    H17    200 0.25637600   1.008000   ; qtot -0.056128
  201         h1      6    bbb    H18    201 0.25637600   1.008000   ; qtot 0.200248
  202         os      6    bbb     O1    202 -0.20025300  16.000000   ; qtot -0.000005
; residue    7 bbb rtp bbb q -0.0
  203         n3      7    bbb     N1    203 -0.59685800  14.010000   ; qtot -0.596863
  204         c3      7    bbb     C1    204 0.10137000  12.010000   ; qtot -0.495493
  205         h1      7    bbb     H1    205 0.04411300   1.008000   ; qtot -0.451380
  206         h1      7    bbb     H2    206 0.04411300   1.008000   ; qtot -0.407267
  207         c3      7    bbb     C2    207 0.10137000  12.010000   ; qtot -0.305897
  208         h1      7    bbb     H3    208 0.04411300   1.008000   ; qtot -0.261784
  209         h1      7    bbb     H4    209 0.04411300   1.008000   ; qtot -0.217671
  210         c3      7    bbb     C3    210 -0.00195300  12.010000   ; qtot -0.219624
  211         h1      7    bbb     H5    211 0.05064400   1.008000   ; qtot -0.168980
  212         h1      7    bbb     H6    212 0.05064400   1.008000   ; qtot -0.118336
  213         c3      7    bbb     C4    213 -0.01612100  12.010000   ; qtot -0.134457
  214         hc      7    bbb     H7    214 0.04936100   1.008000   ; qtot -0.085096
  215         hc      7    bbb     H8    215 0.04936100   1.008000   ; qtot -0.035735
  216         c3      7    bbb     C5    216 0.11363000  12.010000   ; qtot 0.077895
  217         hc      7    bbb     H9    217 0.06265900   1.008000   ; qtot 0.140554
  218         hc      7    bbb    H10    218 0.06265900   1.008000   ; qtot 0.203213
  219         c3      7    bbb     C6    219 0.11363000  12.010000   ; qtot 0.316843
  220         hc      7    bbb    H11    220 0.06265900   1.008000   ; qtot 0.379502
  221         hc      7    bbb    H12    221 0.06265900   1.008000   ; qtot 0.442161
  222         c3      7    bbb     C7    222 0.05858200  12.010000   ; qtot 0.500743
  223         h1      7    bbb    H13    223 0.06123400   1.008000   ; qtot 0.561977
  224         h1      7    bbb    H14    224 0.06123400   1.008000   ; qtot 0.623211
  225         c3      7    bbb     C8    225 -0.72423400  12.010000   ; qtot -0.101023
  226         h1      7    bbb    H15    226 0.25637600   1.008000   ; qtot 0.155353
  227         h1      7    bbb    H16    227 0.25637600   1.008000   ; qtot 0.411729
  228         c3      7    bbb     C9    228 -0.72423400  12.010000   ; qtot -0.312505
  229         h1      7    bbb    H17    229 0.25637600   1.008000   ; qtot -0.056129
  230         h1      7    bbb    H18    230 0.25637600   1.008000   ; qtot 0.200247
  231         os      7    bbb     O1    231 -0.20025300  16.000000   ; qtot -0.000006
; residue    8 bbb rtp bbb q -0.0
  232         n3      8    bbb     N1    232 -0.59685800  14.010000   ; qtot -0.596864
  233         c3      8    bbb     C1    233 0.10137000  12.010000   ; qtot -0.495494
  234         h1      8    bbb     H1    234 0.04411300   1.008000   ; qtot -0.451381
  235         h1      8    bbb     H2    235 0.04411300   1.008000   ; qtot -0.407268
  236         c3      8    bbb     C2    236 0.10137000  12.010000   ; qtot -0.305898
  237         h1      8    bbb     H3    237 0.04411300   1.008000   ; qtot -0.261785
  238         h1      8    bbb     H4    238 0.04411300   1.008000   ; qtot -0.217672
  239         c3      8    bbb     C3    239 -0.00195300  12.010000   ; qtot -0.219625
  240         h1      8    bbb     H5    240 0.05064400   1.008000   ; qtot -0.168981
  241         h1      8    bbb     H6    241 0.05064400   1.008000   ; qtot -0.118337
  242         c3      8    bbb     C4    242 -0.01612100  12.010000   ; qtot -0.134458
  243         hc      8    bbb     H7    243 0.04936100   1.008000   ; qtot -0.085097
  244         hc      8    bbb     H8    244 0.04936100   1.008000   ; qtot -0.035736
  245         c3      8    bbb     C5    245 0.11363000  12.010000   ; qtot 0.077894
  246         hc      8    bbb     H9    246 0.06265900   1.008000   ; qtot 0.140553
  247         hc      8    bbb    H10    247 0.06265900   1.008000   ; qtot 0.203212
  248         c3      8    bbb     C6    248 0.11363000  12.010000   ; qtot 0.316842
  249         hc      8    bbb    H11    249 0.06265900   1.008000   ; qtot 0.379501
  250         hc      8    bbb    H12    250 0.06265900   1.008000   ; qtot 0.442160
  251         c3      8    bbb     C7    251 0.05858200  12.010000   ; qtot 0.500742
  252         h1      8    bbb    H13    252 0.06123400   1.008000   ; qtot 0.561976
  253         h1      8    bbb    H14    253 0.06123400   1.008000   ; qtot 0.623210
  254         c3      8    bbb     C8    254 -0.72423400  12.010000   ; qtot -0.101024
  255         h1      8    bbb    H15    255 0.25637600   1.008000   ; qtot 0.155352
  256         h1      8    bbb    H16    256 0.25637600   1.008000   ; qtot 0.411728
  257         c3      8    bbb     C9    257 -0.72423400  12.010000   ; qtot -0.312506
  258         h1      8    bbb    H17    258 0.25637600   1.008000   ; qtot -0.056130
  259         h1      8    bbb    H18    259 0.25637600   1.008000   ; qtot 0.200246
  260         os      8    bbb     O1    260 -0.20025300  16.000000   ; qtot -0.000007
; residue    9 bbb rtp bbb q -0.0
  261         n3      9    bbb     N1    261 -0.59685800  14.010000   ; qtot -0.596865
  262         c3      9    bbb     C1    262 0.10137000  12.010000   ; qtot -0.495495
  263         h1      9    bbb     H1    263 0.04411300   1.008000   ; qtot -0.451382
  264         h1      9    bbb     H2    264 0.04411300   1.008000   ; qtot -0.407269
  265         c3      9    bbb     C2    265 0.10137000  12.010000   ; qtot -0.305899
  266         h1      9    bbb     H3    266 0.04411300   1.008000   ; qtot -0.261786
  267         h1      9    bbb     H4    267 0.04411300   1.008000   ; qtot -0.217673
  268         c3      9    bbb     C3    268 -0.00195300  12.010000   ; qtot -0.219626
  269         h1      9    bbb     H5    269 0.05064400   1.008000   ; qtot -0.168982
  270         h1      9    bbb     H6    270 0.05064400   1.008000   ; qtot -0.118338
  271         c3      9    bbb     C4    271 -0.01612100  12.010000   ; qtot -0.134459
  272         hc      9    bbb     H7    272 0.04936100   1.008000   ; qtot -0.085098
  273         hc      9    bbb     H8    273 0.04936100   1.008000   ; qtot -0.035737
  274         c3      9    bbb     C5    274 0.11363000  12.010000   ; qtot 0.077893
  275         hc      9    bbb     H9    275 0.06265900   1.008000   ; qtot 0.140552
  276         hc      9    bbb    H10    276 0.06265900   1.008000   ; qtot 0.203211
  277         c3      9    bbb     C6    277 0.11363000  12.010000   ; qtot 0.316841
  278         hc      9    bbb    H11    278 0.06265900   1.008000   ; qtot 0.379500
  279         hc      9    bbb    H12    279 0.06265900   1.008000   ; qtot 0.442159
  280         c3      9    bbb     C7    280 0.05858200  12.010000   ; qtot 0.500741
  281         h1      9    bbb    H13    281 0.06123400   1.008000   ; qtot 0.561975
  282         h1      9    bbb    H14    282 0.06123400   1.008000   ; qtot 0.623209
  283         c3      9    bbb     C8    283 -0.72423400  12.010000   ; qtot -0.101025
  284         h1      9    bbb    H15    284 0.25637600   1.008000   ; qtot 0.155351
  285         h1      9    bbb    H16    285 0.25637600   1.008000   ; qtot 0.411727
  286         c3      9    bbb     C9    286 -0.72423400  12.010000   ; qtot -0.312507
  287         h1      9    bbb    H17    287 0.25637600   1.008000   ; qtot -0.056131
  288         h1      9    bbb    H18    288 0.25637600   1.008000   ; qtot 0.200245
  289         os      9    bbb     O1    289 -0.20025300  16.000000   ; qtot -0.000008
; residue   10 bbb rtp bbb q -0.0
  290         n3     10    bbb     N1    290 -0.59685800  14.010000   ; qtot -0.596866
  291         c3     10    bbb     C1    291 0.10137000  12.010000   ; qtot -0.495496
  292         h1     10    bbb     H1    292 0.04411300   1.008000   ; qtot -0.451383
  293         h1     10    bbb     H2    293 0.04411300   1.008000   ; qtot -0.407270
  294         c3     10    bbb     C2    294 0.10137000  12.010000   ; qtot -0.305900
  295         h1     10    bbb     H3    295 0.04411300   1.008000   ; qtot -0.261787
  296         h1     10    bbb     H4    296 0.04411300   1.008000   ; qtot -0.217674
  297         c3     10    bbb     C3    297 -0.00195300  12.010000   ; qtot -0.219627
  298         h1     10    bbb     H5    298 0.05064400   1.008000   ; qtot -0.168983
  299         h1     10    bbb     H6    299 0.05064400   1.008000   ; qtot -0.118339
  300         c3     10    bbb     C4    300 -0.01612100  12.010000   ; qtot -0.134460
  301         hc     10    bbb     H7    301 0.04936100   1.008000   ; qtot -0.085099
  302         hc     10    bbb     H8    302 0.04936100   1.008000   ; qtot -0.035738
  303         c3     10    bbb     C5    303 0.11363000  12.010000   ; qtot 0.077892
  304         hc     10    bbb     H9    304 0.06265900   1.008000   ; qtot 0.140551
  305         hc     10    bbb    H10    305 0.06265900   1.008000   ; qtot 0.203210
  306         c3     10    bbb     C6    306 0.11363000  12.010000   ; qtot 0.316840
  307         hc     10    bbb    H11    307 0.06265900   1.008000   ; qtot 0.379499
  308         hc     10    bbb    H12    308 0.06265900   1.008000   ; qtot 0.442158
  309         c3     10    bbb     C7    309 0.05858200  12.010000   ; qtot 0.500740
  310         h1     10    bbb    H13    310 0.06123400   1.008000   ; qtot 0.561974
  311         h1     10    bbb    H14    311 0.06123400   1.008000   ; qtot 0.623208
  312         c3     10    bbb     C8    312 -0.72423400  12.010000   ; qtot -0.101026
  313         h1     10    bbb    H15    313 0.25637600   1.008000   ; qtot 0.155350
  314         h1     10    bbb    H16    314 0.25637600   1.008000   ; qtot 0.411726
  315         c3     10    bbb     C9    315 -0.72423400  12.010000   ; qtot -0.312508
  316         h1     10    bbb    H17    316 0.25637600   1.008000   ; qtot -0.056132
  317         h1     10    bbb    H18    317 0.25637600   1.008000   ; qtot 0.200244
  318         os     10    bbb     O1    318 -0.20025300  16.000000   ; qtot -0.000009
; residue   11 bbb rtp bbb q -0.0
  319         n3     11    bbb     N1    319 -0.59685800  14.010000   ; qtot -0.596867
  320         c3     11    bbb     C1    320 0.10137000  12.010000   ; qtot -0.495497
  321         h1     11    bbb     H1    321 0.04411300   1.008000   ; qtot -0.451384
  322         h1     11    bbb     H2    322 0.04411300   1.008000   ; qtot -0.407271
  323         c3     11    bbb     C2    323 0.10137000  12.010000   ; qtot -0.305901
  324         h1     11    bbb     H3    324 0.04411300   1.008000   ; qtot -0.261788
  325         h1     11    bbb     H4    325 0.04411300   1.008000   ; qtot -0.217675
  326         c3     11    bbb     C3    326 -0.00195300  12.010000   ; qtot -0.219628
  327         h1     11    bbb     H5    327 0.05064400   1.008000   ; qtot -0.168984
  328         h1     11    bbb     H6    328 0.05064400   1.008000   ; qtot -0.118340
  329         c3     11    bbb     C4    329 -0.01612100  12.010000   ; qtot -0.134461
  330         hc     11    bbb     H7    330 0.04936100   1.008000   ; qtot -0.085100
  331         hc     11    bbb     H8    331 0.04936100   1.008000   ; qtot -0.035739
  332         c3     11    bbb     C5    332 0.11363000  12.010000   ; qtot 0.077891
  333         hc     11    bbb     H9    333 0.06265900   1.008000   ; qtot 0.140550
  334         hc     11    bbb    H10    334 0.06265900   1.008000   ; qtot 0.203209
  335         c3     11    bbb     C6    335 0.11363000  12.010000   ; qtot 0.316839
  336         hc     11    bbb    H11    336 0.06265900   1.008000   ; qtot 0.379498
  337         hc     11    bbb    H12    337 0.06265900   1.008000   ; qtot 0.442157
  338         c3     11    bbb     C7    338 0.05858200  12.010000   ; qtot 0.500739
  339         h1     11    bbb    H13    339 0.06123400   1.008000   ; qtot 0.561973
  340         h1     11    bbb    H14    340 0.06123400   1.008000   ; qtot 0.623207
  341         c3     11    bbb     C8    341 -0.72423400  12.010000   ; qtot -0.101027
  342         h1     11    bbb    H15    342 0.25637600   1.008000   ; qtot 0.155349
  343         h1     11    bbb    H16    343 0.25637600   1.008000   ; qtot 0.411725
  344         c3     11    bbb     C9    344 -0.72423400  12.010000   ; qtot -0.312509
  345         h1     11    bbb    H17    345 0.25637600   1.008000   ; qtot -0.056133
  346         h1     11    bbb    H18    346 0.25637600   1.008000   ; qtot 0.200243
  347         os     11    bbb     O1    347 -0.20025300  16.000000   ; qtot -0.000010
; residue   12 bbb rtp bbb q -0.0
  348         n3     12    bbb     N1    348 -0.59685800  14.010000   ; qtot -0.596868
  349         c3     12    bbb     C1    349 0.10137000  12.010000   ; qtot -0.495498
  350         h1     12    bbb     H1    350 0.04411300   1.008000   ; qtot -0.451385
  351         h1     12    bbb     H2    351 0.04411300   1.008000   ; qtot -0.407272
  352         c3     12    bbb     C2    352 0.10137000  12.010000   ; qtot -0.305902
  353         h1     12    bbb     H3    353 0.04411300   1.008000   ; qtot -0.261789
  354         h1     12    bbb     H4    354 0.04411300   1.008000   ; qtot -0.217676
  355         c3     12    bbb     C3    355 -0.00195300  12.010000   ; qtot -0.219629
  356         h1     12    bbb     H5    356 0.05064400   1.008000   ; qtot -0.168985
  357         h1     12    bbb     H6    357 0.05064400   1.008000   ; qtot -0.118341
  358         c3     12    bbb     C4    358 -0.01612100  12.010000   ; qtot -0.134462
  359         hc     12    bbb     H7    359 0.04936100   1.008000   ; qtot -0.085101
  360         hc     12    bbb     H8    360 0.04936100   1.008000   ; qtot -0.035740
  361         c3     12    bbb     C5    361 0.11363000  12.010000   ; qtot 0.077890
  362         hc     12    bbb     H9    362 0.06265900   1.008000   ; qtot 0.140549
  363         hc     12    bbb    H10    363 0.06265900   1.008000   ; qtot 0.203208
  364         c3     12    bbb     C6    364 0.11363000  12.010000   ; qtot 0.316838
  365         hc     12    bbb    H11    365 0.06265900   1.008000   ; qtot 0.379497
  366         hc     12    bbb    H12    366 0.06265900   1.008000   ; qtot 0.442156
  367         c3     12    bbb     C7    367 0.05858200  12.010000   ; qtot 0.500738
  368         h1     12    bbb    H13    368 0.06123400   1.008000   ; qtot 0.561972
  369         h1     12    bbb    H14    369 0.06123400   1.008000   ; qtot 0.623206
  370         c3     12    bbb     C8    370 -0.72423400  12.010000   ; qtot -0.101028
  371         h1     12    bbb    H15    371 0.25637600   1.008000   ; qtot 0.155348
  372         h1     12    bbb    H16    372 0.25637600   1.008000   ; qtot 0.411724
  373         c3     12    bbb     C9    373 -0.72423400  12.010000   ; qtot -0.312510
  374         h1     12    bbb    H17    374 0.25637600   1.008000   ; qtot -0.056134
  375         h1     12    bbb    H18    375 0.25637600   1.008000   ; qtot 0.200242
  376         os     12    bbb     O1    376 -0.20025300  16.000000   ; qtot -0.000011
; residue   13 bbb rtp bbb q -0.0
  377         n3     13    bbb     N1    377 -0.59685800  14.010000   ; qtot -0.596869
  378         c3     13    bbb     C1    378 0.10137000  12.010000   ; qtot -0.495499
  379         h1     13    bbb     H1    379 0.04411300   1.008000   ; qtot -0.451386
  380         h1     13    bbb     H2    380 0.04411300   1.008000   ; qtot -0.407273
  381         c3     13    bbb     C2    381 0.10137000  12.010000   ; qtot -0.305903
  382         h1     13    bbb     H3    382 0.04411300   1.008000   ; qtot -0.261790
  383         h1     13    bbb     H4    383 0.04411300   1.008000   ; qtot -0.217677
  384         c3     13    bbb     C3    384 -0.00195300  12.010000   ; qtot -0.219630
  385         h1     13    bbb     H5    385 0.05064400   1.008000   ; qtot -0.168986
  386         h1     13    bbb     H6    386 0.05064400   1.008000   ; qtot -0.118342
  387         c3     13    bbb     C4    387 -0.01612100  12.010000   ; qtot -0.134463
  388         hc     13    bbb     H7    388 0.04936100   1.008000   ; qtot -0.085102
  389         hc     13    bbb     H8    389 0.04936100   1.008000   ; qtot -0.035741
  390         c3     13    bbb     C5    390 0.11363000  12.010000   ; qtot 0.077889
  391         hc     13    bbb     H9    391 0.06265900   1.008000   ; qtot 0.140548
  392         hc     13    bbb    H10    392 0.06265900   1.008000   ; qtot 0.203207
  393         c3     13    bbb     C6    393 0.11363000  12.010000   ; qtot 0.316837
  394         hc     13    bbb    H11    394 0.06265900   1.008000   ; qtot 0.379496
  395         hc     13    bbb    H12    395 0.06265900   1.008000   ; qtot 0.442155
  396         c3     13    bbb     C7    396 0.05858200  12.010000   ; qtot 0.500737
  397         h1     13    bbb    H13    397 0.06123400   1.008000   ; qtot 0.561971
  398         h1     13    bbb    H14    398 0.06123400   1.008000   ; qtot 0.623205
  399         c3     13    bbb     C8    399 -0.72423400  12.010000   ; qtot -0.101029
  400         h1     13    bbb    H15    400 0.25637600   1.008000   ; qtot 0.155347
  401         h1     13    bbb    H16    401 0.25637600   1.008000   ; qtot 0.411723
  402         c3     13    bbb     C9    402 -0.72423400  12.010000   ; qtot -0.312511
  403         h1     13    bbb    H17    403 0.25637600   1.008000   ; qtot -0.056135
  404         h1     13    bbb    H18    404 0.25637600   1.008000   ; qtot 0.200241
  405         os     13    bbb     O1    405 -0.20025300  16.000000   ; qtot -0.000012
; residue   14 bbb rtp bbb q -0.0
  406         n3     14    bbb     N1    406 -0.59685800  14.010000   ; qtot -0.596870
  407         c3     14    bbb     C1    407 0.10137000  12.010000   ; qtot -0.495500
  408         h1     14    bbb     H1    408 0.04411300   1.008000   ; qtot -0.451387
  409         h1     14    bbb     H2    409 0.04411300   1.008000   ; qtot -0.407274
  410         c3     14    bbb     C2    410 0.10137000  12.010000   ; qtot -0.305904
  411         h1     14    bbb     H3    411 0.04411300   1.008000   ; qtot -0.261791
  412         h1     14    bbb     H4    412 0.04411300   1.008000   ; qtot -0.217678
  413         c3     14    bbb     C3    413 -0.00195300  12.010000   ; qtot -0.219631
  414         h1     14    bbb     H5    414 0.05064400   1.008000   ; qtot -0.168987
  415         h1     14    bbb     H6    415 0.05064400   1.008000   ; qtot -0.118343
  416         c3     14    bbb     C4    416 -0.01612100  12.010000   ; qtot -0.134464
  417         hc     14    bbb     H7    417 0.04936100   1.008000   ; qtot -0.085103
  418         hc     14    bbb     H8    418 0.04936100   1.008000   ; qtot -0.035742
  419         c3     14    bbb     C5    419 0.11363000  12.010000   ; qtot 0.077888
  420         hc     14    bbb     H9    420 0.06265900   1.008000   ; qtot 0.140547
  421         hc     14    bbb    H10    421 0.06265900   1.008000   ; qtot 0.203206
  422         c3     14    bbb     C6    422 0.11363000  12.010000   ; qtot 0.316836
  423         hc     14    bbb    H11    423 0.06265900   1.008000   ; qtot 0.379495
  424         hc     14    bbb    H12    424 0.06265900   1.008000   ; qtot 0.442154
  425         c3     14    bbb     C7    425 0.05858200  12.010000   ; qtot 0.500736
  426         h1     14    bbb    H13    426 0.06123400   1.008000   ; qtot 0.561970
  427         h1     14    bbb    H14    427 0.06123400   1.008000   ; qtot 0.623204
  428         c3     14    bbb     C8    428 -0.72423400  12.010000   ; qtot -0.101030
  429         h1     14    bbb    H15    429 0.25637600   1.008000   ; qtot 0.155346
  430         h1     14    bbb    H16    430 0.25637600   1.008000   ; qtot 0.411722
  431         c3     14    bbb     C9    431 -0.72423400  12.010000   ; qtot -0.312512
  432         h1     14    bbb    H17    432 0.25637600   1.008000   ; qtot -0.056136
  433         h1     14    bbb    H18    433 0.25637600   1.008000   ; qtot 0.200240
  434         os     14    bbb     O1    434 -0.20025300  16.000000   ; qtot -0.000013
; residue   15 bbb rtp bbb q -0.0
  435         n3     15    bbb     N1    435 -0.59685800  14.010000   ; qtot -0.596871
  436         c3     15    bbb     C1    436 0.10137000  12.010000   ; qtot -0.495501
  437         h1     15    bbb     H1    437 0.04411300   1.008000   ; qtot -0.451388
  438         h1     15    bbb     H2    438 0.04411300   1.008000   ; qtot -0.407275
  439         c3     15    bbb     C2    439 0.10137000  12.010000   ; qtot -0.305905
  440         h1     15    bbb     H3    440 0.04411300   1.008000   ; qtot -0.261792
  441         h1     15    bbb     H4    441 0.04411300   1.008000   ; qtot -0.217679
  442         c3     15    bbb     C3    442 -0.00195300  12.010000   ; qtot -0.219632
  443         h1     15    bbb     H5    443 0.05064400   1.008000   ; qtot -0.168988
  444         h1     15    bbb     H6    444 0.05064400   1.008000   ; qtot -0.118344
  445         c3     15    bbb     C4    445 -0.01612100  12.010000   ; qtot -0.134465
  446         hc     15    bbb     H7    446 0.04936100   1.008000   ; qtot -0.085104
  447         hc     15    bbb     H8    447 0.04936100   1.008000   ; qtot -0.035743
  448         c3     15    bbb     C5    448 0.11363000  12.010000   ; qtot 0.077887
  449         hc     15    bbb     H9    449 0.06265900   1.008000   ; qtot 0.140546
  450         hc     15    bbb    H10    450 0.06265900   1.008000   ; qtot 0.203205
  451         c3     15    bbb     C6    451 0.11363000  12.010000   ; qtot 0.316835
  452         hc     15    bbb    H11    452 0.06265900   1.008000   ; qtot 0.379494
  453         hc     15    bbb    H12    453 0.06265900   1.008000   ; qtot 0.442153
  454         c3     15    bbb     C7    454 0.05858200  12.010000   ; qtot 0.500735
  455         h1     15    bbb    H13    455 0.06123400   1.008000   ; qtot 0.561969
  456         h1     15    bbb    H14    456 0.06123400   1.008000   ; qtot 0.623203
  457         c3     15    bbb     C8    457 -0.72423400  12.010000   ; qtot -0.101031
  458         h1     15    bbb    H15    458 0.25637600   1.008000   ; qtot 0.155345
  459         h1     15    bbb    H16    459 0.25637600   1.008000   ; qtot 0.411721
  460         c3     15    bbb     C9    460 -0.72423400  12.010000   ; qtot -0.312513
  461         h1     15    bbb    H17    461 0.25637600   1.008000   ; qtot -0.056137
  462         h1     15    bbb    H18    462 0.25637600   1.008000   ; qtot 0.200239
  463         os     15    bbb     O1    463 -0.20025300  16.000000   ; qtot -0.000014
; residue   16 bbb rtp bbb q -0.0
  464         n3     16    bbb     N1    464 -0.59685800  14.010000   ; qtot -0.596872
  465         c3     16    bbb     C1    465 0.10137000  12.010000   ; qtot -0.495502
  466         h1     16    bbb     H1    466 0.04411300   1.008000   ; qtot -0.451389
  467         h1     16    bbb     H2    467 0.04411300   1.008000   ; qtot -0.407276
  468         c3     16    bbb     C2    468 0.10137000  12.010000   ; qtot -0.305906
  469         h1     16    bbb     H3    469 0.04411300   1.008000   ; qtot -0.261793
  470         h1     16    bbb     H4    470 0.04411300   1.008000   ; qtot -0.217680
  471         c3     16    bbb     C3    471 -0.00195300  12.010000   ; qtot -0.219633
  472         h1     16    bbb     H5    472 0.05064400   1.008000   ; qtot -0.168989
  473         h1     16    bbb     H6    473 0.05064400   1.008000   ; qtot -0.118345
  474         c3     16    bbb     C4    474 -0.01612100  12.010000   ; qtot -0.134466
  475         hc     16    bbb     H7    475 0.04936100   1.008000   ; qtot -0.085105
  476         hc     16    bbb     H8    476 0.04936100   1.008000   ; qtot -0.035744
  477         c3     16    bbb     C5    477 0.11363000  12.010000   ; qtot 0.077886
  478         hc     16    bbb     H9    478 0.06265900   1.008000   ; qtot 0.140545
  479         hc     16    bbb    H10    479 0.06265900   1.008000   ; qtot 0.203204
  480         c3     16    bbb     C6    480 0.11363000  12.010000   ; qtot 0.316834
  481         hc     16    bbb    H11    481 0.06265900   1.008000   ; qtot 0.379493
  482         hc     16    bbb    H12    482 0.06265900   1.008000   ; qtot 0.442152
  483         c3     16    bbb     C7    483 0.05858200  12.010000   ; qtot 0.500734
  484         h1     16    bbb    H13    484 0.06123400   1.008000   ; qtot 0.561968
  485         h1     16    bbb    H14    485 0.06123400   1.008000   ; qtot 0.623202
  486         c3     16    bbb     C8    486 -0.72423400  12.010000   ; qtot -0.101032
  487         h1     16    bbb    H15    487 0.25637600   1.008000   ; qtot 0.155344
  488         h1     16    bbb    H16    488 0.25637600   1.008000   ; qtot 0.411720
  489         c3     16    bbb     C9    489 -0.72423400  12.010000   ; qtot -0.312514
  490         h1     16    bbb    H17    490 0.25637600   1.008000   ; qtot -0.056138
  491         h1     16    bbb    H18    491 0.25637600   1.008000   ; qtot 0.200238
  492         os     16    bbb     O1    492 -0.20025300  16.000000   ; qtot -0.000015
; residue   17 bbb rtp bbb q -0.0
  493         n3     17    bbb     N1    493 -0.59685800  14.010000   ; qtot -0.596873
  494         c3     17    bbb     C1    494 0.10137000  12.010000   ; qtot -0.495503
  495         h1     17    bbb     H1    495 0.04411300   1.008000   ; qtot -0.451390
  496         h1     17    bbb     H2    496 0.04411300   1.008000   ; qtot -0.407277
  497         c3     17    bbb     C2    497 0.10137000  12.010000   ; qtot -0.305907
  498         h1     17    bbb     H3    498 0.04411300   1.008000   ; qtot -0.261794
  499         h1     17    bbb     H4    499 0.04411300   1.008000   ; qtot -0.217681
  500         c3     17    bbb     C3    500 -0.00195300  12.010000   ; qtot -0.219634
  501         h1     17    bbb     H5    501 0.05064400   1.008000   ; qtot -0.168990
  502         h1     17    bbb     H6    502 0.05064400   1.008000   ; qtot -0.118346
  503         c3     17    bbb     C4    503 -0.01612100  12.010000   ; qtot -0.134467
  504         hc     17    bbb     H7    504 0.04936100   1.008000   ; qtot -0.085106
  505         hc     17    bbb     H8    505 0.04936100   1.008000   ; qtot -0.035745
  506         c3     17    bbb     C5    506 0.11363000  12.010000   ; qtot 0.077885
  507         hc     17    bbb     H9    507 0.06265900   1.008000   ; qtot 0.140544
  508         hc     17    bbb    H10    508 0.06265900   1.008000   ; qtot 0.203203
  509         c3     17    bbb     C6    509 0.11363000  12.010000   ; qtot 0.316833
  510         hc     17    bbb    H11    510 0.06265900   1.008000   ; qtot 0.379492
  511         hc     17    bbb    H12    511 0.06265900   1.008000   ; qtot 0.442151
  512         c3     17    bbb     C7    512 0.05858200  12.010000   ; qtot 0.500733
  513         h1     17    bbb    H13    513 0.06123400   1.008000   ; qtot 0.561967
  514         h1     17    bbb    H14    514 0.06123400   1.008000   ; qtot 0.623201
  515         c3     17    bbb     C8    515 -0.72423400  12.010000   ; qtot -0.101033
  516         h1     17    bbb    H15    516 0.25637600   1.008000   ; qtot 0.155343
  517         h1     17    bbb    H16    517 0.25637600   1.008000   ; qtot 0.411719
  518         c3     17    bbb     C9    518 -0.72423400  12.010000   ; qtot -0.312515
  519         h1     17    bbb    H17    519 0.25637600   1.008000   ; qtot -0.056139
  520         h1     17    bbb    H18    520 0.25637600   1.008000   ; qtot 0.200237
  521         os     17    bbb     O1    521 -0.20025300  16.000000   ; qtot -0.000016
; residue   18 bbb rtp bbb q -0.0
  522         n3     18    bbb     N1    522 -0.59685800  14.010000   ; qtot -0.596874
  523         c3     18    bbb     C1    523 0.10137000  12.010000   ; qtot -0.495504
  524         h1     18    bbb     H1    524 0.04411300   1.008000   ; qtot -0.451391
  525         h1     18    bbb     H2    525 0.04411300   1.008000   ; qtot -0.407278
  526         c3     18    bbb     C2    526 0.10137000  12.010000   ; qtot -0.305908
  527         h1     18    bbb     H3    527 0.04411300   1.008000   ; qtot -0.261795
  528         h1     18    bbb     H4    528 0.04411300   1.008000   ; qtot -0.217682
  529         c3     18    bbb     C3    529 -0.00195300  12.010000   ; qtot -0.219635
  530         h1     18    bbb     H5    530 0.05064400   1.008000   ; qtot -0.168991
  531         h1     18    bbb     H6    531 0.05064400   1.008000   ; qtot -0.118347
  532         c3     18    bbb     C4    532 -0.01612100  12.010000   ; qtot -0.134468
  533         hc     18    bbb     H7    533 0.04936100   1.008000   ; qtot -0.085107
  534         hc     18    bbb     H8    534 0.04936100   1.008000   ; qtot -0.035746
  535         c3     18    bbb     C5    535 0.11363000  12.010000   ; qtot 0.077884
  536         hc     18    bbb     H9    536 0.06265900   1.008000   ; qtot 0.140543
  537         hc     18    bbb    H10    537 0.06265900   1.008000   ; qtot 0.203202
  538         c3     18    bbb     C6    538 0.11363000  12.010000   ; qtot 0.316832
  539         hc     18    bbb    H11    539 0.06265900   1.008000   ; qtot 0.379491
  540         hc     18    bbb    H12    540 0.06265900   1.008000   ; qtot 0.442150
  541         c3     18    bbb     C7    541 0.05858200  12.010000   ; qtot 0.500732
  542         h1     18    bbb    H13    542 0.06123400   1.008000   ; qtot 0.561966
  543         h1     18    bbb    H14    543 0.06123400   1.008000   ; qtot 0.623200
  544         c3     18    bbb     C8    544 -0.72423400  12.010000   ; qtot -0.101034
  545         h1     18    bbb    H15    545 0.25637600   1.008000   ; qtot 0.155342
  546         h1     18    bbb    H16    546 0.25637600   1.008000   ; qtot 0.411718
  547         c3     18    bbb     C9    547 -0.72423400  12.010000   ; qtot -0.312516
  548         h1     18    bbb    H17    548 0.25637600   1.008000   ; qtot -0.056140
  549         h1     18    bbb    H18    549 0.25637600   1.008000   ; qtot 0.200236
  550         os     18    bbb     O1    550 -0.20025300  16.000000   ; qtot -0.000017
; residue   19 bbb rtp bbb q -0.0
  551         n3     19    bbb     N1    551 -0.59685800  14.010000   ; qtot -0.596875
  552         c3     19    bbb     C1    552 0.10137000  12.010000   ; qtot -0.495505
  553         h1     19    bbb     H1    553 0.04411300   1.008000   ; qtot -0.451392
  554         h1     19    bbb     H2    554 0.04411300   1.008000   ; qtot -0.407279
  555         c3     19    bbb     C2    555 0.10137000  12.010000   ; qtot -0.305909
  556         h1     19    bbb     H3    556 0.04411300   1.008000   ; qtot -0.261796
  557         h1     19    bbb     H4    557 0.04411300   1.008000   ; qtot -0.217683
  558         c3     19    bbb     C3    558 -0.00195300  12.010000   ; qtot -0.219636
  559         h1     19    bbb     H5    559 0.05064400   1.008000   ; qtot -0.168992
  560         h1     19    bbb     H6    560 0.05064400   1.008000   ; qtot -0.118348
  561         c3     19    bbb     C4    561 -0.01612100  12.010000   ; qtot -0.134469
  562         hc     19    bbb     H7    562 0.04936100   1.008000   ; qtot -0.085108
  563         hc     19    bbb     H8    563 0.04936100   1.008000   ; qtot -0.035747
  564         c3     19    bbb     C5    564 0.11363000  12.010000   ; qtot 0.077883
  565         hc     19    bbb     H9    565 0.06265900   1.008000   ; qtot 0.140542
  566         hc     19    bbb    H10    566 0.06265900   1.008000   ; qtot 0.203201
  567         c3     19    bbb     C6    567 0.11363000  12.010000   ; qtot 0.316831
  568         hc     19    bbb    H11    568 0.06265900   1.008000   ; qtot 0.379490
  569         hc     19    bbb    H12    569 0.06265900   1.008000   ; qtot 0.442149
  570         c3     19    bbb     C7    570 0.05858200  12.010000   ; qtot 0.500731
  571         h1     19    bbb    H13    571 0.06123400   1.008000   ; qtot 0.561965
  572         h1     19    bbb    H14    572 0.06123400   1.008000   ; qtot 0.623199
  573         c3     19    bbb     C8    573 -0.72423400  12.010000   ; qtot -0.101035
  574         h1     19    bbb    H15    574 0.25637600   1.008000   ; qtot 0.155341
  575         h1     19    bbb    H16    575 0.25637600   1.008000   ; qtot 0.411717
  576         c3     19    bbb     C9    576 -0.72423400  12.010000   ; qtot -0.312517
  577         h1     19    bbb    H17    577 0.25637600   1.008000   ; qtot -0.056141
  578         h1     19    bbb    H18    578 0.25637600   1.008000   ; qtot 0.200235
  579         os     19    bbb     O1    579 -0.20025300  16.000000   ; qtot -0.000018
; residue   20 bbb rtp bbb q -0.0
  580         n3     20    bbb     N1    580 -0.59685800  14.010000   ; qtot -0.596876
  581         c3     20    bbb     C1    581 0.10137000  12.010000   ; qtot -0.495506
  582         h1     20    bbb     H1    582 0.04411300   1.008000   ; qtot -0.451393
  583         h1     20    bbb     H2    583 0.04411300   1.008000   ; qtot -0.407280
  584         c3     20    bbb     C2    584 0.10137000  12.010000   ; qtot -0.305910
  585         h1     20    bbb     H3    585 0.04411300   1.008000   ; qtot -0.261797
  586         h1     20    bbb     H4    586 0.04411300   1.008000   ; qtot -0.217684
  587         c3     20    bbb     C3    587 -0.00195300  12.010000   ; qtot -0.219637
  588         h1     20    bbb     H5    588 0.05064400   1.008000   ; qtot -0.168993
  589         h1     20    bbb     H6    589 0.05064400   1.008000   ; qtot -0.118349
  590         c3     20    bbb     C4    590 -0.01612100  12.010000   ; qtot -0.134470
  591         hc     20    bbb     H7    591 0.04936100   1.008000   ; qtot -0.085109
  592         hc     20    bbb     H8    592 0.04936100   1.008000   ; qtot -0.035748
  593         c3     20    bbb     C5    593 0.11363000  12.010000   ; qtot 0.077882
  594         hc     20    bbb     H9    594 0.06265900   1.008000   ; qtot 0.140541
  595         hc     20    bbb    H10    595 0.06265900   1.008000   ; qtot 0.203200
  596         c3     20    bbb     C6    596 0.11363000  12.010000   ; qtot 0.316830
  597         hc     20    bbb    H11    597 0.06265900   1.008000   ; qtot 0.379489
  598         hc     20    bbb    H12    598 0.06265900   1.008000   ; qtot 0.442148
  599         c3     20    bbb     C7    599 0.05858200  12.010000   ; qtot 0.500730
  600         h1     20    bbb    H13    600 0.06123400   1.008000   ; qtot 0.561964
  601         h1     20    bbb    H14    601 0.06123400   1.008000   ; qtot 0.623198
  602         c3     20    bbb     C8    602 -0.72423400  12.010000   ; qtot -0.101036
  603         h1     20    bbb    H15    603 0.25637600   1.008000   ; qtot 0.155340
  604         h1     20    bbb    H16    604 0.25637600   1.008000   ; qtot 0.411716
  605         c3     20    bbb     C9    605 -0.72423400  12.010000   ; qtot -0.312518
  606         h1     20    bbb    H17    606 0.25637600   1.008000   ; qtot -0.056142
  607         h1     20    bbb    H18    607 0.25637600   1.008000   ; qtot 0.200234
  608         os     20    bbb     O1    608 -0.20025300  16.000000   ; qtot -0.000019
; residue   21 bbb rtp bbb q -0.0
  609         n3     21    bbb     N1    609 -0.59685800  14.010000   ; qtot -0.596877
  610         c3     21    bbb     C1    610 0.10137000  12.010000   ; qtot -0.495507
  611         h1     21    bbb     H1    611 0.04411300   1.008000   ; qtot -0.451394
  612         h1     21    bbb     H2    612 0.04411300   1.008000   ; qtot -0.407281
  613         c3     21    bbb     C2    613 0.10137000  12.010000   ; qtot -0.305911
  614         h1     21    bbb     H3    614 0.04411300   1.008000   ; qtot -0.261798
  615         h1     21    bbb     H4    615 0.04411300   1.008000   ; qtot -0.217685
  616         c3     21    bbb     C3    616 -0.00195300  12.010000   ; qtot -0.219638
  617         h1     21    bbb     H5    617 0.05064400   1.008000   ; qtot -0.168994
  618         h1     21    bbb     H6    618 0.05064400   1.008000   ; qtot -0.118350
  619         c3     21    bbb     C4    619 -0.01612100  12.010000   ; qtot -0.134471
  620         hc     21    bbb     H7    620 0.04936100   1.008000   ; qtot -0.085110
  621         hc     21    bbb     H8    621 0.04936100   1.008000   ; qtot -0.035749
  622         c3     21    bbb     C5    622 0.11363000  12.010000   ; qtot 0.077881
  623         hc     21    bbb     H9    623 0.06265900   1.008000   ; qtot 0.140540
  624         hc     21    bbb    H10    624 0.06265900   1.008000   ; qtot 0.203199
  625         c3     21    bbb     C6    625 0.11363000  12.010000   ; qtot 0.316829
  626         hc     21    bbb    H11    626 0.06265900   1.008000   ; qtot 0.379488
  627         hc     21    bbb    H12    627 0.06265900   1.008000   ; qtot 0.442147
  628         c3     21    bbb     C7    628 0.05858200  12.010000   ; qtot 0.500729
  629         h1     21    bbb    H13    629 0.06123400   1.008000   ; qtot 0.561963
  630         h1     21    bbb    H14    630 0.06123400   1.008000   ; qtot 0.623197
  631         c3     21    bbb     C8    631 -0.72423400  12.010000   ; qtot -0.101037
  632         h1     21    bbb    H15    632 0.25637600   1.008000   ; qtot 0.155339
  633         h1     21    bbb    H16    633 0.25637600   1.008000   ; qtot 0.411715
  634         c3     21    bbb     C9    634 -0.72423400  12.010000   ; qtot -0.312519
  635         h1     21    bbb    H17    635 0.25637600   1.008000   ; qtot -0.056143
  636         h1     21    bbb    H18    636 0.25637600   1.008000   ; qtot 0.200233
  637         os     21    bbb     O1    637 -0.20025300  16.000000   ; qtot -0.000020
; residue   22 bbb rtp bbb q -0.0
  638         n3     22    bbb     N1    638 -0.59685800  14.010000   ; qtot -0.596878
  639         c3     22    bbb     C1    639 0.10137000  12.010000   ; qtot -0.495508
  640         h1     22    bbb     H1    640 0.04411300   1.008000   ; qtot -0.451395
  641         h1     22    bbb     H2    641 0.04411300   1.008000   ; qtot -0.407282
  642         c3     22    bbb     C2    642 0.10137000  12.010000   ; qtot -0.305912
  643         h1     22    bbb     H3    643 0.04411300   1.008000   ; qtot -0.261799
  644         h1     22    bbb     H4    644 0.04411300   1.008000   ; qtot -0.217686
  645         c3     22    bbb     C3    645 -0.00195300  12.010000   ; qtot -0.219639
  646         h1     22    bbb     H5    646 0.05064400   1.008000   ; qtot -0.168995
  647         h1     22    bbb     H6    647 0.05064400   1.008000   ; qtot -0.118351
  648         c3     22    bbb     C4    648 -0.01612100  12.010000   ; qtot -0.134472
  649         hc     22    bbb     H7    649 0.04936100   1.008000   ; qtot -0.085111
  650         hc     22    bbb     H8    650 0.04936100   1.008000   ; qtot -0.035750
  651         c3     22    bbb     C5    651 0.11363000  12.010000   ; qtot 0.077880
  652         hc     22    bbb     H9    652 0.06265900   1.008000   ; qtot 0.140539
  653         hc     22    bbb    H10    653 0.06265900   1.008000   ; qtot 0.203198
  654         c3     22    bbb     C6    654 0.11363000  12.010000   ; qtot 0.316828
  655         hc     22    bbb    H11    655 0.06265900   1.008000   ; qtot 0.379487
  656         hc     22    bbb    H12    656 0.06265900   1.008000   ; qtot 0.442146
  657         c3     22    bbb     C7    657 0.05858200  12.010000   ; qtot 0.500728
  658         h1     22    bbb    H13    658 0.06123400   1.008000   ; qtot 0.561962
  659         h1     22    bbb    H14    659 0.06123400   1.008000   ; qtot 0.623196
  660         c3     22    bbb     C8    660 -0.72423400  12.010000   ; qtot -0.101038
  661         h1     22    bbb    H15    661 0.25637600   1.008000   ; qtot 0.155338
  662         h1     22    bbb    H16    662 0.25637600   1.008000   ; qtot 0.411714
  663         c3     22    bbb     C9    663 -0.72423400  12.010000   ; qtot -0.312520
  664         h1     22    bbb    H17    664 0.25637600   1.008000   ; qtot -0.056144
  665         h1     22    bbb    H18    665 0.25637600   1.008000   ; qtot 0.200232
  666         os     22    bbb     O1    666 -0.20025300  16.000000   ; qtot -0.000021
; residue   23 bbb rtp bbb q -0.0
  667         n3     23    bbb     N1    667 -0.59685800  14.010000   ; qtot -0.596879
  668         c3     23    bbb     C1    668 0.10137000  12.010000   ; qtot -0.495509
  669         h1     23    bbb     H1    669 0.04411300   1.008000   ; qtot -0.451396
  670         h1     23    bbb     H2    670 0.04411300   1.008000   ; qtot -0.407283
  671         c3     23    bbb     C2    671 0.10137000  12.010000   ; qtot -0.305913
  672         h1     23    bbb     H3    672 0.04411300   1.008000   ; qtot -0.261800
  673         h1     23    bbb     H4    673 0.04411300   1.008000   ; qtot -0.217687
  674         c3     23    bbb     C3    674 -0.00195300  12.010000   ; qtot -0.219640
  675         h1     23    bbb     H5    675 0.05064400   1.008000   ; qtot -0.168996
  676         h1     23    bbb     H6    676 0.05064400   1.008000   ; qtot -0.118352
  677         c3     23    bbb     C4    677 -0.01612100  12.010000   ; qtot -0.134473
  678         hc     23    bbb     H7    678 0.04936100   1.008000   ; qtot -0.085112
  679         hc     23    bbb     H8    679 0.04936100   1.008000   ; qtot -0.035751
  680         c3     23    bbb     C5    680 0.11363000  12.010000   ; qtot 0.077879
  681         hc     23    bbb     H9    681 0.06265900   1.008000   ; qtot 0.140538
  682         hc     23    bbb    H10    682 0.06265900   1.008000   ; qtot 0.203197
  683         c3     23    bbb     C6    683 0.11363000  12.010000   ; qtot 0.316827
  684         hc     23    bbb    H11    684 0.06265900   1.008000   ; qtot 0.379486
  685         hc     23    bbb    H12    685 0.06265900   1.008000   ; qtot 0.442145
  686         c3     23    bbb     C7    686 0.05858200  12.010000   ; qtot 0.500727
  687         h1     23    bbb    H13    687 0.06123400   1.008000   ; qtot 0.561961
  688         h1     23    bbb    H14    688 0.06123400   1.008000   ; qtot 0.623195
  689         c3     23    bbb     C8    689 -0.72423400  12.010000   ; qtot -0.101039
  690         h1     23    bbb    H15    690 0.25637600   1.008000   ; qtot 0.155337
  691         h1     23    bbb    H16    691 0.25637600   1.008000   ; qtot 0.411713
  692         c3     23    bbb     C9    692 -0.72423400  12.010000   ; qtot -0.312521
  693         h1     23    bbb    H17    693 0.25637600   1.008000   ; qtot -0.056145
  694         h1     23    bbb    H18    694 0.25637600   1.008000   ; qtot 0.200231
  695         os     23    bbb     O1    695 -0.20025300  16.000000   ; qtot -0.000022
; residue   24 bbb rtp bbb q -0.0
  696         n3     24    bbb     N1    696 -0.59685800  14.010000   ; qtot -0.596880
  697         c3     24    bbb     C1    697 0.10137000  12.010000   ; qtot -0.495510
  698         h1     24    bbb     H1    698 0.04411300   1.008000   ; qtot -0.451397
  699         h1     24    bbb     H2    699 0.04411300   1.008000   ; qtot -0.407284
  700         c3     24    bbb     C2    700 0.10137000  12.010000   ; qtot -0.305914
  701         h1     24    bbb     H3    701 0.04411300   1.008000   ; qtot -0.261801
  702         h1     24    bbb     H4    702 0.04411300   1.008000   ; qtot -0.217688
  703         c3     24    bbb     C3    703 -0.00195300  12.010000   ; qtot -0.219641
  704         h1     24    bbb     H5    704 0.05064400   1.008000   ; qtot -0.168997
  705         h1     24    bbb     H6    705 0.05064400   1.008000   ; qtot -0.118353
  706         c3     24    bbb     C4    706 -0.01612100  12.010000   ; qtot -0.134474
  707         hc     24    bbb     H7    707 0.04936100   1.008000   ; qtot -0.085113
  708         hc     24    bbb     H8    708 0.04936100   1.008000   ; qtot -0.035752
  709         c3     24    bbb     C5    709 0.11363000  12.010000   ; qtot 0.077878
  710         hc     24    bbb     H9    710 0.06265900   1.008000   ; qtot 0.140537
  711         hc     24    bbb    H10    711 0.06265900   1.008000   ; qtot 0.203196
  712         c3     24    bbb     C6    712 0.11363000  12.010000   ; qtot 0.316826
  713         hc     24    bbb    H11    713 0.06265900   1.008000   ; qtot 0.379485
  714         hc     24    bbb    H12    714 0.06265900   1.008000   ; qtot 0.442144
  715         c3     24    bbb     C7    715 0.05858200  12.010000   ; qtot 0.500726
  716         h1     24    bbb    H13    716 0.06123400   1.008000   ; qtot 0.561960
  717         h1     24    bbb    H14    717 0.06123400   1.008000   ; qtot 0.623194
  718         c3     24    bbb     C8    718 -0.72423400  12.010000   ; qtot -0.101040
  719         h1     24    bbb    H15    719 0.25637600   1.008000   ; qtot 0.155336
  720         h1     24    bbb    H16    720 0.25637600   1.008000   ; qtot 0.411712
  721         c3     24    bbb     C9    721 -0.72423400  12.010000   ; qtot -0.312522
  722         h1     24    bbb    H17    722 0.25637600   1.008000   ; qtot -0.056146
  723         h1     24    bbb    H18    723 0.25637600   1.008000   ; qtot 0.200230
  724         os     24    bbb     O1    724 -0.20025300  16.000000   ; qtot -0.000023
; residue   25 bbb rtp bbb q -0.0
  725         n3     25    bbb     N1    725 -0.59685800  14.010000   ; qtot -0.596881
  726         c3     25    bbb     C1    726 0.10137000  12.010000   ; qtot -0.495511
  727         h1     25    bbb     H1    727 0.04411300   1.008000   ; qtot -0.451398
  728         h1     25    bbb     H2    728 0.04411300   1.008000   ; qtot -0.407285
  729         c3     25    bbb     C2    729 0.10137000  12.010000   ; qtot -0.305915
  730         h1     25    bbb     H3    730 0.04411300   1.008000   ; qtot -0.261802
  731         h1     25    bbb     H4    731 0.04411300   1.008000   ; qtot -0.217689
  732         c3     25    bbb     C3    732 -0.00195300  12.010000   ; qtot -0.219642
  733         h1     25    bbb     H5    733 0.05064400   1.008000   ; qtot -0.168998
  734         h1     25    bbb     H6    734 0.05064400   1.008000   ; qtot -0.118354
  735         c3     25    bbb     C4    735 -0.01612100  12.010000   ; qtot -0.134475
  736         hc     25    bbb     H7    736 0.04936100   1.008000   ; qtot -0.085114
  737         hc     25    bbb     H8    737 0.04936100   1.008000   ; qtot -0.035753
  738         c3     25    bbb     C5    738 0.11363000  12.010000   ; qtot 0.077877
  739         hc     25    bbb     H9    739 0.06265900   1.008000   ; qtot 0.140536
  740         hc     25    bbb    H10    740 0.06265900   1.008000   ; qtot 0.203195
  741         c3     25    bbb     C6    741 0.11363000  12.010000   ; qtot 0.316825
  742         hc     25    bbb    H11    742 0.06265900   1.008000   ; qtot 0.379484
  743         hc     25    bbb    H12    743 0.06265900   1.008000   ; qtot 0.442143
  744         c3     25    bbb     C7    744 0.05858200  12.010000   ; qtot 0.500725
  745         h1     25    bbb    H13    745 0.06123400   1.008000   ; qtot 0.561959
  746         h1     25    bbb    H14    746 0.06123400   1.008000   ; qtot 0.623193
  747         c3     25    bbb     C8    747 -0.72423400  12.010000   ; qtot -0.101041
  748         h1     25    bbb    H15    748 0.25637600   1.008000   ; qtot 0.155335
  749         h1     25    bbb    H16    749 0.25637600   1.008000   ; qtot 0.411711
  750         c3     25    bbb     C9    750 -0.72423400  12.010000   ; qtot -0.312523
  751         h1     25    bbb    H17    751 0.25637600   1.008000   ; qtot -0.056147
  752         h1     25    bbb    H18    752 0.25637600   1.008000   ; qtot 0.200229
  753         os     25    bbb     O1    753 -0.20025300  16.000000   ; qtot -0.000024
; residue   26 bbb rtp bbb q -0.0
  754         n3     26    bbb     N1    754 -0.59685800  14.010000   ; qtot -0.596882
  755         c3     26    bbb     C1    755 0.10137000  12.010000   ; qtot -0.495512
  756         h1     26    bbb     H1    756 0.04411300   1.008000   ; qtot -0.451399
  757         h1     26    bbb     H2    757 0.04411300   1.008000   ; qtot -0.407286
  758         c3     26    bbb     C2    758 0.10137000  12.010000   ; qtot -0.305916
  759         h1     26    bbb     H3    759 0.04411300   1.008000   ; qtot -0.261803
  760         h1     26    bbb     H4    760 0.04411300   1.008000   ; qtot -0.217690
  761         c3     26    bbb     C3    761 -0.00195300  12.010000   ; qtot -0.219643
  762         h1     26    bbb     H5    762 0.05064400   1.008000   ; qtot -0.168999
  763         h1     26    bbb     H6    763 0.05064400   1.008000   ; qtot -0.118355
  764         c3     26    bbb     C4    764 -0.01612100  12.010000   ; qtot -0.134476
  765         hc     26    bbb     H7    765 0.04936100   1.008000   ; qtot -0.085115
  766         hc     26    bbb     H8    766 0.04936100   1.008000   ; qtot -0.035754
  767         c3     26    bbb     C5    767 0.11363000  12.010000   ; qtot 0.077876
  768         hc     26    bbb     H9    768 0.06265900   1.008000   ; qtot 0.140535
  769         hc     26    bbb    H10    769 0.06265900   1.008000   ; qtot 0.203194
  770         c3     26    bbb     C6    770 0.11363000  12.010000   ; qtot 0.316824
  771         hc     26    bbb    H11    771 0.06265900   1.008000   ; qtot 0.379483
  772         hc     26    bbb    H12    772 0.06265900   1.008000   ; qtot 0.442142
  773         c3     26    bbb     C7    773 0.05858200  12.010000   ; qtot 0.500724
  774         h1     26    bbb    H13    774 0.06123400   1.008000   ; qtot 0.561958
  775         h1     26    bbb    H14    775 0.06123400   1.008000   ; qtot 0.623192
  776         c3     26    bbb     C8    776 -0.72423400  12.010000   ; qtot -0.101042
  777         h1     26    bbb    H15    777 0.25637600   1.008000   ; qtot 0.155334
  778         h1     26    bbb    H16    778 0.25637600   1.008000   ; qtot 0.411710
  779         c3     26    bbb     C9    779 -0.72423400  12.010000   ; qtot -0.312524
  780         h1     26    bbb    H17    780 0.25637600   1.008000   ; qtot -0.056148
  781         h1     26    bbb    H18    781 0.25637600   1.008000   ; qtot 0.200228
  782         os     26    bbb     O1    782 -0.20025300  16.000000   ; qtot -0.000025
; residue   27 bbb rtp bbb q -0.0
  783         n3     27    bbb     N1    783 -0.59685800  14.010000   ; qtot -0.596883
  784         c3     27    bbb     C1    784 0.10137000  12.010000   ; qtot -0.495513
  785         h1     27    bbb     H1    785 0.04411300   1.008000   ; qtot -0.451400
  786         h1     27    bbb     H2    786 0.04411300   1.008000   ; qtot -0.407287
  787         c3     27    bbb     C2    787 0.10137000  12.010000   ; qtot -0.305917
  788         h1     27    bbb     H3    788 0.04411300   1.008000   ; qtot -0.261804
  789         h1     27    bbb     H4    789 0.04411300   1.008000   ; qtot -0.217691
  790         c3     27    bbb     C3    790 -0.00195300  12.010000   ; qtot -0.219644
  791         h1     27    bbb     H5    791 0.05064400   1.008000   ; qtot -0.169000
  792         h1     27    bbb     H6    792 0.05064400   1.008000   ; qtot -0.118356
  793         c3     27    bbb     C4    793 -0.01612100  12.010000   ; qtot -0.134477
  794         hc     27    bbb     H7    794 0.04936100   1.008000   ; qtot -0.085116
  795         hc     27    bbb     H8    795 0.04936100   1.008000   ; qtot -0.035755
  796         c3     27    bbb     C5    796 0.11363000  12.010000   ; qtot 0.077875
  797         hc     27    bbb     H9    797 0.06265900   1.008000   ; qtot 0.140534
  798         hc     27    bbb    H10    798 0.06265900   1.008000   ; qtot 0.203193
  799         c3     27    bbb     C6    799 0.11363000  12.010000   ; qtot 0.316823
  800         hc     27    bbb    H11    800 0.06265900   1.008000   ; qtot 0.379482
  801         hc     27    bbb    H12    801 0.06265900   1.008000   ; qtot 0.442141
  802         c3     27    bbb     C7    802 0.05858200  12.010000   ; qtot 0.500723
  803         h1     27    bbb    H13    803 0.06123400   1.008000   ; qtot 0.561957
  804         h1     27    bbb    H14    804 0.06123400   1.008000   ; qtot 0.623191
  805         c3     27    bbb     C8    805 -0.72423400  12.010000   ; qtot -0.101043
  806         h1     27    bbb    H15    806 0.25637600   1.008000   ; qtot 0.155333
  807         h1     27    bbb    H16    807 0.25637600   1.008000   ; qtot 0.411709
  808         c3     27    bbb     C9    808 -0.72423400  12.010000   ; qtot -0.312525
  809         h1     27    bbb    H17    809 0.25637600   1.008000   ; qtot -0.056149
  810         h1     27    bbb    H18    810 0.25637600   1.008000   ; qtot 0.200227
  811         os     27    bbb     O1    811 -0.20025300  16.000000   ; qtot -0.000026
; residue   28 bbb rtp bbb q -0.0
  812         n3     28    bbb     N1    812 -0.59685800  14.010000   ; qtot -0.596884
  813         c3     28    bbb     C1    813 0.10137000  12.010000   ; qtot -0.495514
  814         h1     28    bbb     H1    814 0.04411300   1.008000   ; qtot -0.451401
  815         h1     28    bbb     H2    815 0.04411300   1.008000   ; qtot -0.407288
  816         c3     28    bbb     C2    816 0.10137000  12.010000   ; qtot -0.305918
  817         h1     28    bbb     H3    817 0.04411300   1.008000   ; qtot -0.261805
  818         h1     28    bbb     H4    818 0.04411300   1.008000   ; qtot -0.217692
  819         c3     28    bbb     C3    819 -0.00195300  12.010000   ; qtot -0.219645
  820         h1     28    bbb     H5    820 0.05064400   1.008000   ; qtot -0.169001
  821         h1     28    bbb     H6    821 0.05064400   1.008000   ; qtot -0.118357
  822         c3     28    bbb     C4    822 -0.01612100  12.010000   ; qtot -0.134478
  823         hc     28    bbb     H7    823 0.04936100   1.008000   ; qtot -0.085117
  824         hc     28    bbb     H8    824 0.04936100   1.008000   ; qtot -0.035756
  825         c3     28    bbb     C5    825 0.11363000  12.010000   ; qtot 0.077874
  826         hc     28    bbb     H9    826 0.06265900   1.008000   ; qtot 0.140533
  827         hc     28    bbb    H10    827 0.06265900   1.008000   ; qtot 0.203192
  828         c3     28    bbb     C6    828 0.11363000  12.010000   ; qtot 0.316822
  829         hc     28    bbb    H11    829 0.06265900   1.008000   ; qtot 0.379481
  830         hc     28    bbb    H12    830 0.06265900   1.008000   ; qtot 0.442140
  831         c3     28    bbb     C7    831 0.05858200  12.010000   ; qtot 0.500722
  832         h1     28    bbb    H13    832 0.06123400   1.008000   ; qtot 0.561956
  833         h1     28    bbb    H14    833 0.06123400   1.008000   ; qtot 0.623190
  834         c3     28    bbb     C8    834 -0.72423400  12.010000   ; qtot -0.101044
  835         h1     28    bbb    H15    835 0.25637600   1.008000   ; qtot 0.155332
  836         h1     28    bbb    H16    836 0.25637600   1.008000   ; qtot 0.411708
  837         c3     28    bbb     C9    837 -0.72423400  12.010000   ; qtot -0.312526
  838         h1     28    bbb    H17    838 0.25637600   1.008000   ; qtot -0.056150
  839         h1     28    bbb    H18    839 0.25637600   1.008000   ; qtot 0.200226
  840         os     28    bbb     O1    840 -0.20025300  16.000000   ; qtot -0.000027
; residue   29 bbb rtp bbb q -0.0
  841         n3     29    bbb     N1    841 -0.59685800  14.010000   ; qtot -0.596885
  842         c3     29    bbb     C1    842 0.10137000  12.010000   ; qtot -0.495515
  843         h1     29    bbb     H1    843 0.04411300   1.008000   ; qtot -0.451402
  844         h1     29    bbb     H2    844 0.04411300   1.008000   ; qtot -0.407289
  845         c3     29    bbb     C2    845 0.10137000  12.010000   ; qtot -0.305919
  846         h1     29    bbb     H3    846 0.04411300   1.008000   ; qtot -0.261806
  847         h1     29    bbb     H4    847 0.04411300   1.008000   ; qtot -0.217693
  848         c3     29    bbb     C3    848 -0.00195300  12.010000   ; qtot -0.219646
  849         h1     29    bbb     H5    849 0.05064400   1.008000   ; qtot -0.169002
  850         h1     29    bbb     H6    850 0.05064400   1.008000   ; qtot -0.118358
  851         c3     29    bbb     C4    851 -0.01612100  12.010000   ; qtot -0.134479
  852         hc     29    bbb     H7    852 0.04936100   1.008000   ; qtot -0.085118
  853         hc     29    bbb     H8    853 0.04936100   1.008000   ; qtot -0.035757
  854         c3     29    bbb     C5    854 0.11363000  12.010000   ; qtot 0.077873
  855         hc     29    bbb     H9    855 0.06265900   1.008000   ; qtot 0.140532
  856         hc     29    bbb    H10    856 0.06265900   1.008000   ; qtot 0.203191
  857         c3     29    bbb     C6    857 0.11363000  12.010000   ; qtot 0.316821
  858         hc     29    bbb    H11    858 0.06265900   1.008000   ; qtot 0.379480
  859         hc     29    bbb    H12    859 0.06265900   1.008000   ; qtot 0.442139
  860         c3     29    bbb     C7    860 0.05858200  12.010000   ; qtot 0.500721
  861         h1     29    bbb    H13    861 0.06123400   1.008000   ; qtot 0.561955
  862         h1     29    bbb    H14    862 0.06123400   1.008000   ; qtot 0.623189
  863         c3     29    bbb     C8    863 -0.72423400  12.010000   ; qtot -0.101045
  864         h1     29    bbb    H15    864 0.25637600   1.008000   ; qtot 0.155331
  865         h1     29    bbb    H16    865 0.25637600   1.008000   ; qtot 0.411707
  866         c3     29    bbb     C9    866 -0.72423400  12.010000   ; qtot -0.312527
  867         h1     29    bbb    H17    867 0.25637600   1.008000   ; qtot -0.056151
  868         h1     29    bbb    H18    868 0.25637600   1.008000   ; qtot 0.200225
  869         os     29    bbb     O1    869 -0.20025300  16.000000   ; qtot -0.000028
; residue   30 bbb rtp bbb q -0.0
  870         n3     30    bbb     N1    870 -0.59685800  14.010000   ; qtot -0.596886
  871         c3     30    bbb     C1    871 0.10137000  12.010000   ; qtot -0.495516
  872         h1     30    bbb     H1    872 0.04411300   1.008000   ; qtot -0.451403
  873         h1     30    bbb     H2    873 0.04411300   1.008000   ; qtot -0.407290
  874         c3     30    bbb     C2    874 0.10137000  12.010000   ; qtot -0.305920
  875         h1     30    bbb     H3    875 0.04411300   1.008000   ; qtot -0.261807
  876         h1     30    bbb     H4    876 0.04411300   1.008000   ; qtot -0.217694
  877         c3     30    bbb     C3    877 -0.00195300  12.010000   ; qtot -0.219647
  878         h1     30    bbb     H5    878 0.05064400   1.008000   ; qtot -0.169003
  879         h1     30    bbb     H6    879 0.05064400   1.008000   ; qtot -0.118359
  880         c3     30    bbb     C4    880 -0.01612100  12.010000   ; qtot -0.134480
  881         hc     30    bbb     H7    881 0.04936100   1.008000   ; qtot -0.085119
  882         hc     30    bbb     H8    882 0.04936100   1.008000   ; qtot -0.035758
  883         c3     30    bbb     C5    883 0.11363000  12.010000   ; qtot 0.077872
  884         hc     30    bbb     H9    884 0.06265900   1.008000   ; qtot 0.140531
  885         hc     30    bbb    H10    885 0.06265900   1.008000   ; qtot 0.203190
  886         c3     30    bbb     C6    886 0.11363000  12.010000   ; qtot 0.316820
  887         hc     30    bbb    H11    887 0.06265900   1.008000   ; qtot 0.379479
  888         hc     30    bbb    H12    888 0.06265900   1.008000   ; qtot 0.442138
  889         c3     30    bbb     C7    889 0.05858200  12.010000   ; qtot 0.500720
  890         h1     30    bbb    H13    890 0.06123400   1.008000   ; qtot 0.561954
  891         h1     30    bbb    H14    891 0.06123400   1.008000   ; qtot 0.623188
  892         c3     30    bbb     C8    892 -0.72423400  12.010000   ; qtot -0.101046
  893         h1     30    bbb    H15    893 0.25637600   1.008000   ; qtot 0.155330
  894         h1     30    bbb    H16    894 0.25637600   1.008000   ; qtot 0.411706
  895         c3     30    bbb     C9    895 -0.72423400  12.010000   ; qtot -0.312528
  896         h1     30    bbb    H17    896 0.25637600   1.008000   ; qtot -0.056152
  897         h1     30    bbb    H18    897 0.25637600   1.008000   ; qtot 0.200224
  898         os     30    bbb     O1    898 -0.20025300  16.000000   ; qtot -0.000029
; residue   31 bbb rtp bbb q -0.0
  899         n3     31    bbb     N1    899 -0.59685800  14.010000   ; qtot -0.596887
  900         c3     31    bbb     C1    900 0.10137000  12.010000   ; qtot -0.495517
  901         h1     31    bbb     H1    901 0.04411300   1.008000   ; qtot -0.451404
  902         h1     31    bbb     H2    902 0.04411300   1.008000   ; qtot -0.407291
  903         c3     31    bbb     C2    903 0.10137000  12.010000   ; qtot -0.305921
  904         h1     31    bbb     H3    904 0.04411300   1.008000   ; qtot -0.261808
  905         h1     31    bbb     H4    905 0.04411300   1.008000   ; qtot -0.217695
  906         c3     31    bbb     C3    906 -0.00195300  12.010000   ; qtot -0.219648
  907         h1     31    bbb     H5    907 0.05064400   1.008000   ; qtot -0.169004
  908         h1     31    bbb     H6    908 0.05064400   1.008000   ; qtot -0.118360
  909         c3     31    bbb     C4    909 -0.01612100  12.010000   ; qtot -0.134481
  910         hc     31    bbb     H7    910 0.04936100   1.008000   ; qtot -0.085120
  911         hc     31    bbb     H8    911 0.04936100   1.008000   ; qtot -0.035759
  912         c3     31    bbb     C5    912 0.11363000  12.010000   ; qtot 0.077871
  913         hc     31    bbb     H9    913 0.06265900   1.008000   ; qtot 0.140530
  914         hc     31    bbb    H10    914 0.06265900   1.008000   ; qtot 0.203189
  915         c3     31    bbb     C6    915 0.11363000  12.010000   ; qtot 0.316819
  916         hc     31    bbb    H11    916 0.06265900   1.008000   ; qtot 0.379478
  917         hc     31    bbb    H12    917 0.06265900   1.008000   ; qtot 0.442137
  918         c3     31    bbb     C7    918 0.05858200  12.010000   ; qtot 0.500719
  919         h1     31    bbb    H13    919 0.06123400   1.008000   ; qtot 0.561953
  920         h1     31    bbb    H14    920 0.06123400   1.008000   ; qtot 0.623187
  921         c3     31    bbb     C8    921 -0.72423400  12.010000   ; qtot -0.101047
  922         h1     31    bbb    H15    922 0.25637600   1.008000   ; qtot 0.155329
  923         h1     31    bbb    H16    923 0.25637600   1.008000   ; qtot 0.411705
  924         c3     31    bbb     C9    924 -0.72423400  12.010000   ; qtot -0.312529
  925         h1     31    bbb    H17    925 0.25637600   1.008000   ; qtot -0.056153
  926         h1     31    bbb    H18    926 0.25637600   1.008000   ; qtot 0.200223
  927         os     31    bbb     O1    927 -0.20025300  16.000000   ; qtot -0.000030
; residue   32 bbb rtp bbb q -0.0
  928         n3     32    bbb     N1    928 -0.59685800  14.010000   ; qtot -0.596888
  929         c3     32    bbb     C1    929 0.10137000  12.010000   ; qtot -0.495518
  930         h1     32    bbb     H1    930 0.04411300   1.008000   ; qtot -0.451405
  931         h1     32    bbb     H2    931 0.04411300   1.008000   ; qtot -0.407292
  932         c3     32    bbb     C2    932 0.10137000  12.010000   ; qtot -0.305922
  933         h1     32    bbb     H3    933 0.04411300   1.008000   ; qtot -0.261809
  934         h1     32    bbb     H4    934 0.04411300   1.008000   ; qtot -0.217696
  935         c3     32    bbb     C3    935 -0.00195300  12.010000   ; qtot -0.219649
  936         h1     32    bbb     H5    936 0.05064400   1.008000   ; qtot -0.169005
  937         h1     32    bbb     H6    937 0.05064400   1.008000   ; qtot -0.118361
  938         c3     32    bbb     C4    938 -0.01612100  12.010000   ; qtot -0.134482
  939         hc     32    bbb     H7    939 0.04936100   1.008000   ; qtot -0.085121
  940         hc     32    bbb     H8    940 0.04936100   1.008000   ; qtot -0.035760
  941         c3     32    bbb     C5    941 0.11363000  12.010000   ; qtot 0.077870
  942         hc     32    bbb     H9    942 0.06265900   1.008000   ; qtot 0.140529
  943         hc     32    bbb    H10    943 0.06265900   1.008000   ; qtot 0.203188
  944         c3     32    bbb     C6    944 0.11363000  12.010000   ; qtot 0.316818
  945         hc     32    bbb    H11    945 0.06265900   1.008000   ; qtot 0.379477
  946         hc     32    bbb    H12    946 0.06265900   1.008000   ; qtot 0.442136
  947         c3     32    bbb     C7    947 0.05858200  12.010000   ; qtot 0.500718
  948         h1     32    bbb    H13    948 0.06123400   1.008000   ; qtot 0.561952
  949         h1     32    bbb    H14    949 0.06123400   1.008000   ; qtot 0.623186
  950         c3     32    bbb     C8    950 -0.72423400  12.010000   ; qtot -0.101048
  951         h1     32    bbb    H15    951 0.25637600   1.008000   ; qtot 0.155328
  952         h1     32    bbb    H16    952 0.25637600   1.008000   ; qtot 0.411704
  953         c3     32    bbb     C9    953 -0.72423400  12.010000   ; qtot -0.312530
  954         h1     32    bbb    H17    954 0.25637600   1.008000   ; qtot -0.056154
  955         h1     32    bbb    H18    955 0.25637600   1.008000   ; qtot 0.200222
  956         os     32    bbb     O1    956 -0.20025300  16.000000   ; qtot -0.000031
; residue   33 bbb rtp bbb q -0.0
  957         n3     33    bbb     N1    957 -0.59685800  14.010000   ; qtot -0.596889
  958         c3     33    bbb     C1    958 0.10137000  12.010000   ; qtot -0.495519
  959         h1     33    bbb     H1    959 0.04411300   1.008000   ; qtot -0.451406
  960         h1     33    bbb     H2    960 0.04411300   1.008000   ; qtot -0.407293
  961         c3     33    bbb     C2    961 0.10137000  12.010000   ; qtot -0.305923
  962         h1     33    bbb     H3    962 0.04411300   1.008000   ; qtot -0.261810
  963         h1     33    bbb     H4    963 0.04411300   1.008000   ; qtot -0.217697
  964         c3     33    bbb     C3    964 -0.00195300  12.010000   ; qtot -0.219650
  965         h1     33    bbb     H5    965 0.05064400   1.008000   ; qtot -0.169006
  966         h1     33    bbb     H6    966 0.05064400   1.008000   ; qtot -0.118362
  967         c3     33    bbb     C4    967 -0.01612100  12.010000   ; qtot -0.134483
  968         hc     33    bbb     H7    968 0.04936100   1.008000   ; qtot -0.085122
  969         hc     33    bbb     H8    969 0.04936100   1.008000   ; qtot -0.035761
  970         c3     33    bbb     C5    970 0.11363000  12.010000   ; qtot 0.077869
  971         hc     33    bbb     H9    971 0.06265900   1.008000   ; qtot 0.140528
  972         hc     33    bbb    H10    972 0.06265900   1.008000   ; qtot 0.203187
  973         c3     33    bbb     C6    973 0.11363000  12.010000   ; qtot 0.316817
  974         hc     33    bbb    H11    974 0.06265900   1.008000   ; qtot 0.379476
  975         hc     33    bbb    H12    975 0.06265900   1.008000   ; qtot 0.442135
  976         c3     33    bbb     C7    976 0.05858200  12.010000   ; qtot 0.500717
  977         h1     33    bbb    H13    977 0.06123400   1.008000   ; qtot 0.561951
  978         h1     33    bbb    H14    978 0.06123400   1.008000   ; qtot 0.623185
  979         c3     33    bbb     C8    979 -0.72423400  12.010000   ; qtot -0.101049
  980         h1     33    bbb    H15    980 0.25637600   1.008000   ; qtot 0.155327
  981         h1     33    bbb    H16    981 0.25637600   1.008000   ; qtot 0.411703
  982         c3     33    bbb     C9    982 -0.72423400  12.010000   ; qtot -0.312531
  983         h1     33    bbb    H17    983 0.25637600   1.008000   ; qtot -0.056155
  984         h1     33    bbb    H18    984 0.25637600   1.008000   ; qtot 0.200221
  985         os     33    bbb     O1    985 -0.20025300  16.000000   ; qtot -0.000032
; residue   34 bbb rtp bbb q -0.0
  986         n3     34    bbb     N1    986 -0.59685800  14.010000   ; qtot -0.596890
  987         c3     34    bbb     C1    987 0.10137000  12.010000   ; qtot -0.495520
  988         h1     34    bbb     H1    988 0.04411300   1.008000   ; qtot -0.451407
  989         h1     34    bbb     H2    989 0.04411300   1.008000   ; qtot -0.407294
  990         c3     34    bbb     C2    990 0.10137000  12.010000   ; qtot -0.305924
  991         h1     34    bbb     H3    991 0.04411300   1.008000   ; qtot -0.261811
  992         h1     34    bbb     H4    992 0.04411300   1.008000   ; qtot -0.217698
  993         c3     34    bbb     C3    993 -0.00195300  12.010000   ; qtot -0.219651
  994         h1     34    bbb     H5    994 0.05064400   1.008000   ; qtot -0.169007
  995         h1     34    bbb     H6    995 0.05064400   1.008000   ; qtot -0.118363
  996         c3     34    bbb     C4    996 -0.01612100  12.010000   ; qtot -0.134484
  997         hc     34    bbb     H7    997 0.04936100   1.008000   ; qtot -0.085123
  998         hc     34    bbb     H8    998 0.04936100   1.008000   ; qtot -0.035762
  999         c3     34    bbb     C5    999 0.11363000  12.010000   ; qtot 0.077868
 1000         hc     34    bbb     H9   1000 0.06265900   1.008000   ; qtot 0.140527
 1001         hc     34    bbb    H10   1001 0.06265900   1.008000   ; qtot 0.203186
 1002         c3     34    bbb     C6   1002 0.11363000  12.010000   ; qtot 0.316816
 1003         hc     34    bbb    H11   1003 0.06265900   1.008000   ; qtot 0.379475
 1004         hc     34    bbb    H12   1004 0.06265900   1.008000   ; qtot 0.442134
 1005         c3     34    bbb     C7   1005 0.05858200  12.010000   ; qtot 0.500716
 1006         h1     34    bbb    H13   1006 0.06123400   1.008000   ; qtot 0.561950
 1007         h1     34    bbb    H14   1007 0.06123400   1.008000   ; qtot 0.623184
 1008         c3     34    bbb     C8   1008 -0.72423400  12.010000   ; qtot -0.101050
 1009         h1     34    bbb    H15   1009 0.25637600   1.008000   ; qtot 0.155326
 1010         h1     34    bbb    H16   1010 0.25637600   1.008000   ; qtot 0.411702
 1011         c3     34    bbb     C9   1011 -0.72423400  12.010000   ; qtot -0.312532
 1012         h1     34    bbb    H17   1012 0.25637600   1.008000   ; qtot -0.056156
 1013         h1     34    bbb    H18   1013 0.25637600   1.008000   ; qtot 0.200220
 1014         os     34    bbb     O1   1014 -0.20025300  16.000000   ; qtot -0.000033
; residue   35 bbb rtp bbb q -0.0
 1015         n3     35    bbb     N1   1015 -0.59685800  14.010000   ; qtot -0.596891
 1016         c3     35    bbb     C1   1016 0.10137000  12.010000   ; qtot -0.495521
 1017         h1     35    bbb     H1   1017 0.04411300   1.008000   ; qtot -0.451408
 1018         h1     35    bbb     H2   1018 0.04411300   1.008000   ; qtot -0.407295
 1019         c3     35    bbb     C2   1019 0.10137000  12.010000   ; qtot -0.305925
 1020         h1     35    bbb     H3   1020 0.04411300   1.008000   ; qtot -0.261812
 1021         h1     35    bbb     H4   1021 0.04411300   1.008000   ; qtot -0.217699
 1022         c3     35    bbb     C3   1022 -0.00195300  12.010000   ; qtot -0.219652
 1023         h1     35    bbb     H5   1023 0.05064400   1.008000   ; qtot -0.169008
 1024         h1     35    bbb     H6   1024 0.05064400   1.008000   ; qtot -0.118364
 1025         c3     35    bbb     C4   1025 -0.01612100  12.010000   ; qtot -0.134485
 1026         hc     35    bbb     H7   1026 0.04936100   1.008000   ; qtot -0.085124
 1027         hc     35    bbb     H8   1027 0.04936100   1.008000   ; qtot -0.035763
 1028         c3     35    bbb     C5   1028 0.11363000  12.010000   ; qtot 0.077867
 1029         hc     35    bbb     H9   1029 0.06265900   1.008000   ; qtot 0.140526
 1030         hc     35    bbb    H10   1030 0.06265900   1.008000   ; qtot 0.203185
 1031         c3     35    bbb     C6   1031 0.11363000  12.010000   ; qtot 0.316815
 1032         hc     35    bbb    H11   1032 0.06265900   1.008000   ; qtot 0.379474
 1033         hc     35    bbb    H12   1033 0.06265900   1.008000   ; qtot 0.442133
 1034         c3     35    bbb     C7   1034 0.05858200  12.010000   ; qtot 0.500715
 1035         h1     35    bbb    H13   1035 0.06123400   1.008000   ; qtot 0.561949
 1036         h1     35    bbb    H14   1036 0.06123400   1.008000   ; qtot 0.623183
 1037         c3     35    bbb     C8   1037 -0.72423400  12.010000   ; qtot -0.101051
 1038         h1     35    bbb    H15   1038 0.25637600   1.008000   ; qtot 0.155325
 1039         h1     35    bbb    H16   1039 0.25637600   1.008000   ; qtot 0.411701
 1040         c3     35    bbb     C9   1040 -0.72423400  12.010000   ; qtot -0.312533
 1041         h1     35    bbb    H17   1041 0.25637600   1.008000   ; qtot -0.056157
 1042         h1     35    bbb    H18   1042 0.25637600   1.008000   ; qtot 0.200219
 1043         os     35    bbb     O1   1043 -0.20025300  16.000000   ; qtot -0.000034
; residue   36 bbb rtp bbb q -0.0
 1044         n3     36    bbb     N1   1044 -0.59685800  14.010000   ; qtot -0.596892
 1045         c3     36    bbb     C1   1045 0.10137000  12.010000   ; qtot -0.495522
 1046         h1     36    bbb     H1   1046 0.04411300   1.008000   ; qtot -0.451409
 1047         h1     36    bbb     H2   1047 0.04411300   1.008000   ; qtot -0.407296
 1048         c3     36    bbb     C2   1048 0.10137000  12.010000   ; qtot -0.305926
 1049         h1     36    bbb     H3   1049 0.04411300   1.008000   ; qtot -0.261813
 1050         h1     36    bbb     H4   1050 0.04411300   1.008000   ; qtot -0.217700
 1051         c3     36    bbb     C3   1051 -0.00195300  12.010000   ; qtot -0.219653
 1052         h1     36    bbb     H5   1052 0.05064400   1.008000   ; qtot -0.169009
 1053         h1     36    bbb     H6   1053 0.05064400   1.008000   ; qtot -0.118365
 1054         c3     36    bbb     C4   1054 -0.01612100  12.010000   ; qtot -0.134486
 1055         hc     36    bbb     H7   1055 0.04936100   1.008000   ; qtot -0.085125
 1056         hc     36    bbb     H8   1056 0.04936100   1.008000   ; qtot -0.035764
 1057         c3     36    bbb     C5   1057 0.11363000  12.010000   ; qtot 0.077866
 1058         hc     36    bbb     H9   1058 0.06265900   1.008000   ; qtot 0.140525
 1059         hc     36    bbb    H10   1059 0.06265900   1.008000   ; qtot 0.203184
 1060         c3     36    bbb     C6   1060 0.11363000  12.010000   ; qtot 0.316814
 1061         hc     36    bbb    H11   1061 0.06265900   1.008000   ; qtot 0.379473
 1062         hc     36    bbb    H12   1062 0.06265900   1.008000   ; qtot 0.442132
 1063         c3     36    bbb     C7   1063 0.05858200  12.010000   ; qtot 0.500714
 1064         h1     36    bbb    H13   1064 0.06123400   1.008000   ; qtot 0.561948
 1065         h1     36    bbb    H14   1065 0.06123400   1.008000   ; qtot 0.623182
 1066         c3     36    bbb     C8   1066 -0.72423400  12.010000   ; qtot -0.101052
 1067         h1     36    bbb    H15   1067 0.25637600   1.008000   ; qtot 0.155324
 1068         h1     36    bbb    H16   1068 0.25637600   1.008000   ; qtot 0.411700
 1069         c3     36    bbb     C9   1069 -0.72423400  12.010000   ; qtot -0.312534
 1070         h1     36    bbb    H17   1070 0.25637600   1.008000   ; qtot -0.056158
 1071         h1     36    bbb    H18   1071 0.25637600   1.008000   ; qtot 0.200218
 1072         os     36    bbb     O1   1072 -0.20025300  16.000000   ; qtot -0.000035
; residue   37 bbb rtp bbb q -0.0
 1073         n3     37    bbb     N1   1073 -0.59685800  14.010000   ; qtot -0.596893
 1074         c3     37    bbb     C1   1074 0.10137000  12.010000   ; qtot -0.495523
 1075         h1     37    bbb     H1   1075 0.04411300   1.008000   ; qtot -0.451410
 1076         h1     37    bbb     H2   1076 0.04411300   1.008000   ; qtot -0.407297
 1077         c3     37    bbb     C2   1077 0.10137000  12.010000   ; qtot -0.305927
 1078         h1     37    bbb     H3   1078 0.04411300   1.008000   ; qtot -0.261814
 1079         h1     37    bbb     H4   1079 0.04411300   1.008000   ; qtot -0.217701
 1080         c3     37    bbb     C3   1080 -0.00195300  12.010000   ; qtot -0.219654
 1081         h1     37    bbb     H5   1081 0.05064400   1.008000   ; qtot -0.169010
 1082         h1     37    bbb     H6   1082 0.05064400   1.008000   ; qtot -0.118366
 1083         c3     37    bbb     C4   1083 -0.01612100  12.010000   ; qtot -0.134487
 1084         hc     37    bbb     H7   1084 0.04936100   1.008000   ; qtot -0.085126
 1085         hc     37    bbb     H8   1085 0.04936100   1.008000   ; qtot -0.035765
 1086         c3     37    bbb     C5   1086 0.11363000  12.010000   ; qtot 0.077865
 1087         hc     37    bbb     H9   1087 0.06265900   1.008000   ; qtot 0.140524
 1088         hc     37    bbb    H10   1088 0.06265900   1.008000   ; qtot 0.203183
 1089         c3     37    bbb     C6   1089 0.11363000  12.010000   ; qtot 0.316813
 1090         hc     37    bbb    H11   1090 0.06265900   1.008000   ; qtot 0.379472
 1091         hc     37    bbb    H12   1091 0.06265900   1.008000   ; qtot 0.442131
 1092         c3     37    bbb     C7   1092 0.05858200  12.010000   ; qtot 0.500713
 1093         h1     37    bbb    H13   1093 0.06123400   1.008000   ; qtot 0.561947
 1094         h1     37    bbb    H14   1094 0.06123400   1.008000   ; qtot 0.623181
 1095         c3     37    bbb     C8   1095 -0.72423400  12.010000   ; qtot -0.101053
 1096         h1     37    bbb    H15   1096 0.25637600   1.008000   ; qtot 0.155323
 1097         h1     37    bbb    H16   1097 0.25637600   1.008000   ; qtot 0.411699
 1098         c3     37    bbb     C9   1098 -0.72423400  12.010000   ; qtot -0.312535
 1099         h1     37    bbb    H17   1099 0.25637600   1.008000   ; qtot -0.056159
 1100         h1     37    bbb    H18   1100 0.25637600   1.008000   ; qtot 0.200217
 1101         os     37    bbb     O1   1101 -0.20025300  16.000000   ; qtot -0.000036
; residue   38 bbb rtp bbb q -0.0
 1102         n3     38    bbb     N1   1102 -0.59685800  14.010000   ; qtot -0.596894
 1103         c3     38    bbb     C1   1103 0.10137000  12.010000   ; qtot -0.495524
 1104         h1     38    bbb     H1   1104 0.04411300   1.008000   ; qtot -0.451411
 1105         h1     38    bbb     H2   1105 0.04411300   1.008000   ; qtot -0.407298
 1106         c3     38    bbb     C2   1106 0.10137000  12.010000   ; qtot -0.305928
 1107         h1     38    bbb     H3   1107 0.04411300   1.008000   ; qtot -0.261815
 1108         h1     38    bbb     H4   1108 0.04411300   1.008000   ; qtot -0.217702
 1109         c3     38    bbb     C3   1109 -0.00195300  12.010000   ; qtot -0.219655
 1110         h1     38    bbb     H5   1110 0.05064400   1.008000   ; qtot -0.169011
 1111         h1     38    bbb     H6   1111 0.05064400   1.008000   ; qtot -0.118367
 1112         c3     38    bbb     C4   1112 -0.01612100  12.010000   ; qtot -0.134488
 1113         hc     38    bbb     H7   1113 0.04936100   1.008000   ; qtot -0.085127
 1114         hc     38    bbb     H8   1114 0.04936100   1.008000   ; qtot -0.035766
 1115         c3     38    bbb     C5   1115 0.11363000  12.010000   ; qtot 0.077864
 1116         hc     38    bbb     H9   1116 0.06265900   1.008000   ; qtot 0.140523
 1117         hc     38    bbb    H10   1117 0.06265900   1.008000   ; qtot 0.203182
 1118         c3     38    bbb     C6   1118 0.11363000  12.010000   ; qtot 0.316812
 1119         hc     38    bbb    H11   1119 0.06265900   1.008000   ; qtot 0.379471
 1120         hc     38    bbb    H12   1120 0.06265900   1.008000   ; qtot 0.442130
 1121         c3     38    bbb     C7   1121 0.05858200  12.010000   ; qtot 0.500712
 1122         h1     38    bbb    H13   1122 0.06123400   1.008000   ; qtot 0.561946
 1123         h1     38    bbb    H14   1123 0.06123400   1.008000   ; qtot 0.623180
 1124         c3     38    bbb     C8   1124 -0.72423400  12.010000   ; qtot -0.101054
 1125         h1     38    bbb    H15   1125 0.25637600   1.008000   ; qtot 0.155322
 1126         h1     38    bbb    H16   1126 0.25637600   1.008000   ; qtot 0.411698
 1127         c3     38    bbb     C9   1127 -0.72423400  12.010000   ; qtot -0.312536
 1128         h1     38    bbb    H17   1128 0.25637600   1.008000   ; qtot -0.056160
 1129         h1     38    bbb    H18   1129 0.25637600   1.008000   ; qtot 0.200216
 1130         os     38    bbb     O1   1130 -0.20025300  16.000000   ; qtot -0.000037
; residue   39 bbb rtp bbb q -0.0
 1131         n3     39    bbb     N1   1131 -0.59685800  14.010000   ; qtot -0.596895
 1132         c3     39    bbb     C1   1132 0.10137000  12.010000   ; qtot -0.495525
 1133         h1     39    bbb     H1   1133 0.04411300   1.008000   ; qtot -0.451412
 1134         h1     39    bbb     H2   1134 0.04411300   1.008000   ; qtot -0.407299
 1135         c3     39    bbb     C2   1135 0.10137000  12.010000   ; qtot -0.305929
 1136         h1     39    bbb     H3   1136 0.04411300   1.008000   ; qtot -0.261816
 1137         h1     39    bbb     H4   1137 0.04411300   1.008000   ; qtot -0.217703
 1138         c3     39    bbb     C3   1138 -0.00195300  12.010000   ; qtot -0.219656
 1139         h1     39    bbb     H5   1139 0.05064400   1.008000   ; qtot -0.169012
 1140         h1     39    bbb     H6   1140 0.05064400   1.008000   ; qtot -0.118368
 1141         c3     39    bbb     C4   1141 -0.01612100  12.010000   ; qtot -0.134489
 1142         hc     39    bbb     H7   1142 0.04936100   1.008000   ; qtot -0.085128
 1143         hc     39    bbb     H8   1143 0.04936100   1.008000   ; qtot -0.035767
 1144         c3     39    bbb     C5   1144 0.11363000  12.010000   ; qtot 0.077863
 1145         hc     39    bbb     H9   1145 0.06265900   1.008000   ; qtot 0.140522
 1146         hc     39    bbb    H10   1146 0.06265900   1.008000   ; qtot 0.203181
 1147         c3     39    bbb     C6   1147 0.11363000  12.010000   ; qtot 0.316811
 1148         hc     39    bbb    H11   1148 0.06265900   1.008000   ; qtot 0.379470
 1149         hc     39    bbb    H12   1149 0.06265900   1.008000   ; qtot 0.442129
 1150         c3     39    bbb     C7   1150 0.05858200  12.010000   ; qtot 0.500711
 1151         h1     39    bbb    H13   1151 0.06123400   1.008000   ; qtot 0.561945
 1152         h1     39    bbb    H14   1152 0.06123400   1.008000   ; qtot 0.623179
 1153         c3     39    bbb     C8   1153 -0.72423400  12.010000   ; qtot -0.101055
 1154         h1     39    bbb    H15   1154 0.25637600   1.008000   ; qtot 0.155321
 1155         h1     39    bbb    H16   1155 0.25637600   1.008000   ; qtot 0.411697
 1156         c3     39    bbb     C9   1156 -0.72423400  12.010000   ; qtot -0.312537
 1157         h1     39    bbb    H17   1157 0.25637600   1.008000   ; qtot -0.056161
 1158         h1     39    bbb    H18   1158 0.25637600   1.008000   ; qtot 0.200215
 1159         os     39    bbb     O1   1159 -0.20025300  16.000000   ; qtot -0.000038
; residue   40 bbb rtp bbb q -0.0
 1160         n3     40    bbb     N1   1160 -0.59685800  14.010000   ; qtot -0.596896
 1161         c3     40    bbb     C1   1161 0.10137000  12.010000   ; qtot -0.495526
 1162         h1     40    bbb     H1   1162 0.04411300   1.008000   ; qtot -0.451413
 1163         h1     40    bbb     H2   1163 0.04411300   1.008000   ; qtot -0.407300
 1164         c3     40    bbb     C2   1164 0.10137000  12.010000   ; qtot -0.305930
 1165         h1     40    bbb     H3   1165 0.04411300   1.008000   ; qtot -0.261817
 1166         h1     40    bbb     H4   1166 0.04411300   1.008000   ; qtot -0.217704
 1167         c3     40    bbb     C3   1167 -0.00195300  12.010000   ; qtot -0.219657
 1168         h1     40    bbb     H5   1168 0.05064400   1.008000   ; qtot -0.169013
 1169         h1     40    bbb     H6   1169 0.05064400   1.008000   ; qtot -0.118369
 1170         c3     40    bbb     C4   1170 -0.01612100  12.010000   ; qtot -0.134490
 1171         hc     40    bbb     H7   1171 0.04936100   1.008000   ; qtot -0.085129
 1172         hc     40    bbb     H8   1172 0.04936100   1.008000   ; qtot -0.035768
 1173         c3     40    bbb     C5   1173 0.11363000  12.010000   ; qtot 0.077862
 1174         hc     40    bbb     H9   1174 0.06265900   1.008000   ; qtot 0.140521
 1175         hc     40    bbb    H10   1175 0.06265900   1.008000   ; qtot 0.203180
 1176         c3     40    bbb     C6   1176 0.11363000  12.010000   ; qtot 0.316810
 1177         hc     40    bbb    H11   1177 0.06265900   1.008000   ; qtot 0.379469
 1178         hc     40    bbb    H12   1178 0.06265900   1.008000   ; qtot 0.442128
 1179         c3     40    bbb     C7   1179 0.05858200  12.010000   ; qtot 0.500710
 1180         h1     40    bbb    H13   1180 0.06123400   1.008000   ; qtot 0.561944
 1181         h1     40    bbb    H14   1181 0.06123400   1.008000   ; qtot 0.623178
 1182         c3     40    bbb     C8   1182 -0.72423400  12.010000   ; qtot -0.101056
 1183         h1     40    bbb    H15   1183 0.25637600   1.008000   ; qtot 0.155320
 1184         h1     40    bbb    H16   1184 0.25637600   1.008000   ; qtot 0.411696
 1185         c3     40    bbb     C9   1185 -0.72423400  12.010000   ; qtot -0.312538
 1186         h1     40    bbb    H17   1186 0.25637600   1.008000   ; qtot -0.056162
 1187         h1     40    bbb    H18   1187 0.25637600   1.008000   ; qtot 0.200214
 1188         os     40    bbb     O1   1188 -0.20025300  16.000000   ; qtot -0.000039
; residue   41 bbb rtp bbb q -0.0
 1189         n3     41    bbb     N1   1189 -0.59685800  14.010000   ; qtot -0.596897
 1190         c3     41    bbb     C1   1190 0.10137000  12.010000   ; qtot -0.495527
 1191         h1     41    bbb     H1   1191 0.04411300   1.008000   ; qtot -0.451414
 1192         h1     41    bbb     H2   1192 0.04411300   1.008000   ; qtot -0.407301
 1193         c3     41    bbb     C2   1193 0.10137000  12.010000   ; qtot -0.305931
 1194         h1     41    bbb     H3   1194 0.04411300   1.008000   ; qtot -0.261818
 1195         h1     41    bbb     H4   1195 0.04411300   1.008000   ; qtot -0.217705
 1196         c3     41    bbb     C3   1196 -0.00195300  12.010000   ; qtot -0.219658
 1197         h1     41    bbb     H5   1197 0.05064400   1.008000   ; qtot -0.169014
 1198         h1     41    bbb     H6   1198 0.05064400   1.008000   ; qtot -0.118370
 1199         c3     41    bbb     C4   1199 -0.01612100  12.010000   ; qtot -0.134491
 1200         hc     41    bbb     H7   1200 0.04936100   1.008000   ; qtot -0.085130
 1201         hc     41    bbb     H8   1201 0.04936100   1.008000   ; qtot -0.035769
 1202         c3     41    bbb     C5   1202 0.11363000  12.010000   ; qtot 0.077861
 1203         hc     41    bbb     H9   1203 0.06265900   1.008000   ; qtot 0.140520
 1204         hc     41    bbb    H10   1204 0.06265900   1.008000   ; qtot 0.203179
 1205         c3     41    bbb     C6   1205 0.11363000  12.010000   ; qtot 0.316809
 1206         hc     41    bbb    H11   1206 0.06265900   1.008000   ; qtot 0.379468
 1207         hc     41    bbb    H12   1207 0.06265900   1.008000   ; qtot 0.442127
 1208         c3     41    bbb     C7   1208 0.05858200  12.010000   ; qtot 0.500709
 1209         h1     41    bbb    H13   1209 0.06123400   1.008000   ; qtot 0.561943
 1210         h1     41    bbb    H14   1210 0.06123400   1.008000   ; qtot 0.623177
 1211         c3     41    bbb     C8   1211 -0.72423400  12.010000   ; qtot -0.101057
 1212         h1     41    bbb    H15   1212 0.25637600   1.008000   ; qtot 0.155319
 1213         h1     41    bbb    H16   1213 0.25637600   1.008000   ; qtot 0.411695
 1214         c3     41    bbb     C9   1214 -0.72423400  12.010000   ; qtot -0.312539
 1215         h1     41    bbb    H17   1215 0.25637600   1.008000   ; qtot -0.056163
 1216         h1     41    bbb    H18   1216 0.25637600   1.008000   ; qtot 0.200213
 1217         os     41    bbb     O1   1217 -0.20025300  16.000000   ; qtot -0.000040
; residue   42 bbb rtp bbb q -0.0
 1218         n3     42    bbb     N1   1218 -0.59685800  14.010000   ; qtot -0.596898
 1219         c3     42    bbb     C1   1219 0.10137000  12.010000   ; qtot -0.495528
 1220         h1     42    bbb     H1   1220 0.04411300   1.008000   ; qtot -0.451415
 1221         h1     42    bbb     H2   1221 0.04411300   1.008000   ; qtot -0.407302
 1222         c3     42    bbb     C2   1222 0.10137000  12.010000   ; qtot -0.305932
 1223         h1     42    bbb     H3   1223 0.04411300   1.008000   ; qtot -0.261819
 1224         h1     42    bbb     H4   1224 0.04411300   1.008000   ; qtot -0.217706
 1225         c3     42    bbb     C3   1225 -0.00195300  12.010000   ; qtot -0.219659
 1226         h1     42    bbb     H5   1226 0.05064400   1.008000   ; qtot -0.169015
 1227         h1     42    bbb     H6   1227 0.05064400   1.008000   ; qtot -0.118371
 1228         c3     42    bbb     C4   1228 -0.01612100  12.010000   ; qtot -0.134492
 1229         hc     42    bbb     H7   1229 0.04936100   1.008000   ; qtot -0.085131
 1230         hc     42    bbb     H8   1230 0.04936100   1.008000   ; qtot -0.035770
 1231         c3     42    bbb     C5   1231 0.11363000  12.010000   ; qtot 0.077860
 1232         hc     42    bbb     H9   1232 0.06265900   1.008000   ; qtot 0.140519
 1233         hc     42    bbb    H10   1233 0.06265900   1.008000   ; qtot 0.203178
 1234         c3     42    bbb     C6   1234 0.11363000  12.010000   ; qtot 0.316808
 1235         hc     42    bbb    H11   1235 0.06265900   1.008000   ; qtot 0.379467
 1236         hc     42    bbb    H12   1236 0.06265900   1.008000   ; qtot 0.442126
 1237         c3     42    bbb     C7   1237 0.05858200  12.010000   ; qtot 0.500708
 1238         h1     42    bbb    H13   1238 0.06123400   1.008000   ; qtot 0.561942
 1239         h1     42    bbb    H14   1239 0.06123400   1.008000   ; qtot 0.623176
 1240         c3     42    bbb     C8   1240 -0.72423400  12.010000   ; qtot -0.101058
 1241         h1     42    bbb    H15   1241 0.25637600   1.008000   ; qtot 0.155318
 1242         h1     42    bbb    H16   1242 0.25637600   1.008000   ; qtot 0.411694
 1243         c3     42    bbb     C9   1243 -0.72423400  12.010000   ; qtot -0.312540
 1244         h1     42    bbb    H17   1244 0.25637600   1.008000   ; qtot -0.056164
 1245         h1     42    bbb    H18   1245 0.25637600   1.008000   ; qtot 0.200212
 1246         os     42    bbb     O1   1246 -0.20025300  16.000000   ; qtot -0.000041
; residue   43 bbb rtp bbb q -0.0
 1247         n3     43    bbb     N1   1247 -0.59685800  14.010000   ; qtot -0.596899
 1248         c3     43    bbb     C1   1248 0.10137000  12.010000   ; qtot -0.495529
 1249         h1     43    bbb     H1   1249 0.04411300   1.008000   ; qtot -0.451416
 1250         h1     43    bbb     H2   1250 0.04411300   1.008000   ; qtot -0.407303
 1251         c3     43    bbb     C2   1251 0.10137000  12.010000   ; qtot -0.305933
 1252         h1     43    bbb     H3   1252 0.04411300   1.008000   ; qtot -0.261820
 1253         h1     43    bbb     H4   1253 0.04411300   1.008000   ; qtot -0.217707
 1254         c3     43    bbb     C3   1254 -0.00195300  12.010000   ; qtot -0.219660
 1255         h1     43    bbb     H5   1255 0.05064400   1.008000   ; qtot -0.169016
 1256         h1     43    bbb     H6   1256 0.05064400   1.008000   ; qtot -0.118372
 1257         c3     43    bbb     C4   1257 -0.01612100  12.010000   ; qtot -0.134493
 1258         hc     43    bbb     H7   1258 0.04936100   1.008000   ; qtot -0.085132
 1259         hc     43    bbb     H8   1259 0.04936100   1.008000   ; qtot -0.035771
 1260         c3     43    bbb     C5   1260 0.11363000  12.010000   ; qtot 0.077859
 1261         hc     43    bbb     H9   1261 0.06265900   1.008000   ; qtot 0.140518
 1262         hc     43    bbb    H10   1262 0.06265900   1.008000   ; qtot 0.203177
 1263         c3     43    bbb     C6   1263 0.11363000  12.010000   ; qtot 0.316807
 1264         hc     43    bbb    H11   1264 0.06265900   1.008000   ; qtot 0.379466
 1265         hc     43    bbb    H12   1265 0.06265900   1.008000   ; qtot 0.442125
 1266         c3     43    bbb     C7   1266 0.05858200  12.010000   ; qtot 0.500707
 1267         h1     43    bbb    H13   1267 0.06123400   1.008000   ; qtot 0.561941
 1268         h1     43    bbb    H14   1268 0.06123400   1.008000   ; qtot 0.623175
 1269         c3     43    bbb     C8   1269 -0.72423400  12.010000   ; qtot -0.101059
 1270         h1     43    bbb    H15   1270 0.25637600   1.008000   ; qtot 0.155317
 1271         h1     43    bbb    H16   1271 0.25637600   1.008000   ; qtot 0.411693
 1272         c3     43    bbb     C9   1272 -0.72423400  12.010000   ; qtot -0.312541
 1273         h1     43    bbb    H17   1273 0.25637600   1.008000   ; qtot -0.056165
 1274         h1     43    bbb    H18   1274 0.25637600   1.008000   ; qtot 0.200211
 1275         os     43    bbb     O1   1275 -0.20025300  16.000000   ; qtot -0.000042
; residue   44 bbb rtp bbb q -0.0
 1276         n3     44    bbb     N1   1276 -0.59685800  14.010000   ; qtot -0.596900
 1277         c3     44    bbb     C1   1277 0.10137000  12.010000   ; qtot -0.495530
 1278         h1     44    bbb     H1   1278 0.04411300   1.008000   ; qtot -0.451417
 1279         h1     44    bbb     H2   1279 0.04411300   1.008000   ; qtot -0.407304
 1280         c3     44    bbb     C2   1280 0.10137000  12.010000   ; qtot -0.305934
 1281         h1     44    bbb     H3   1281 0.04411300   1.008000   ; qtot -0.261821
 1282         h1     44    bbb     H4   1282 0.04411300   1.008000   ; qtot -0.217708
 1283         c3     44    bbb     C3   1283 -0.00195300  12.010000   ; qtot -0.219661
 1284         h1     44    bbb     H5   1284 0.05064400   1.008000   ; qtot -0.169017
 1285         h1     44    bbb     H6   1285 0.05064400   1.008000   ; qtot -0.118373
 1286         c3     44    bbb     C4   1286 -0.01612100  12.010000   ; qtot -0.134494
 1287         hc     44    bbb     H7   1287 0.04936100   1.008000   ; qtot -0.085133
 1288         hc     44    bbb     H8   1288 0.04936100   1.008000   ; qtot -0.035772
 1289         c3     44    bbb     C5   1289 0.11363000  12.010000   ; qtot 0.077858
 1290         hc     44    bbb     H9   1290 0.06265900   1.008000   ; qtot 0.140517
 1291         hc     44    bbb    H10   1291 0.06265900   1.008000   ; qtot 0.203176
 1292         c3     44    bbb     C6   1292 0.11363000  12.010000   ; qtot 0.316806
 1293         hc     44    bbb    H11   1293 0.06265900   1.008000   ; qtot 0.379465
 1294         hc     44    bbb    H12   1294 0.06265900   1.008000   ; qtot 0.442124
 1295         c3     44    bbb     C7   1295 0.05858200  12.010000   ; qtot 0.500706
 1296         h1     44    bbb    H13   1296 0.06123400   1.008000   ; qtot 0.561940
 1297         h1     44    bbb    H14   1297 0.06123400   1.008000   ; qtot 0.623174
 1298         c3     44    bbb     C8   1298 -0.72423400  12.010000   ; qtot -0.101060
 1299         h1     44    bbb    H15   1299 0.25637600   1.008000   ; qtot 0.155316
 1300         h1     44    bbb    H16   1300 0.25637600   1.008000   ; qtot 0.411692
 1301         c3     44    bbb     C9   1301 -0.72423400  12.010000   ; qtot -0.312542
 1302         h1     44    bbb    H17   1302 0.25637600   1.008000   ; qtot -0.056166
 1303         h1     44    bbb    H18   1303 0.25637600   1.008000   ; qtot 0.200210
 1304         os     44    bbb     O1   1304 -0.20025300  16.000000   ; qtot -0.000043
; residue   45 bbb rtp bbb q -0.0
 1305         n3     45    bbb     N1   1305 -0.59685800  14.010000   ; qtot -0.596901
 1306         c3     45    bbb     C1   1306 0.10137000  12.010000   ; qtot -0.495531
 1307         h1     45    bbb     H1   1307 0.04411300   1.008000   ; qtot -0.451418
 1308         h1     45    bbb     H2   1308 0.04411300   1.008000   ; qtot -0.407305
 1309         c3     45    bbb     C2   1309 0.10137000  12.010000   ; qtot -0.305935
 1310         h1     45    bbb     H3   1310 0.04411300   1.008000   ; qtot -0.261822
 1311         h1     45    bbb     H4   1311 0.04411300   1.008000   ; qtot -0.217709
 1312         c3     45    bbb     C3   1312 -0.00195300  12.010000   ; qtot -0.219662
 1313         h1     45    bbb     H5   1313 0.05064400   1.008000   ; qtot -0.169018
 1314         h1     45    bbb     H6   1314 0.05064400   1.008000   ; qtot -0.118374
 1315         c3     45    bbb     C4   1315 -0.01612100  12.010000   ; qtot -0.134495
 1316         hc     45    bbb     H7   1316 0.04936100   1.008000   ; qtot -0.085134
 1317         hc     45    bbb     H8   1317 0.04936100   1.008000   ; qtot -0.035773
 1318         c3     45    bbb     C5   1318 0.11363000  12.010000   ; qtot 0.077857
 1319         hc     45    bbb     H9   1319 0.06265900   1.008000   ; qtot 0.140516
 1320         hc     45    bbb    H10   1320 0.06265900   1.008000   ; qtot 0.203175
 1321         c3     45    bbb     C6   1321 0.11363000  12.010000   ; qtot 0.316805
 1322         hc     45    bbb    H11   1322 0.06265900   1.008000   ; qtot 0.379464
 1323         hc     45    bbb    H12   1323 0.06265900   1.008000   ; qtot 0.442123
 1324         c3     45    bbb     C7   1324 0.05858200  12.010000   ; qtot 0.500705
 1325         h1     45    bbb    H13   1325 0.06123400   1.008000   ; qtot 0.561939
 1326         h1     45    bbb    H14   1326 0.06123400   1.008000   ; qtot 0.623173
 1327         c3     45    bbb     C8   1327 -0.72423400  12.010000   ; qtot -0.101061
 1328         h1     45    bbb    H15   1328 0.25637600   1.008000   ; qtot 0.155315
 1329         h1     45    bbb    H16   1329 0.25637600   1.008000   ; qtot 0.411691
 1330         c3     45    bbb     C9   1330 -0.72423400  12.010000   ; qtot -0.312543
 1331         h1     45    bbb    H17   1331 0.25637600   1.008000   ; qtot -0.056167
 1332         h1     45    bbb    H18   1332 0.25637600   1.008000   ; qtot 0.200209
 1333         os     45    bbb     O1   1333 -0.20025300  16.000000   ; qtot -0.000044
; residue   46 bbb rtp bbb q -0.0
 1334         n3     46    bbb     N1   1334 -0.59685800  14.010000   ; qtot -0.596902
 1335         c3     46    bbb     C1   1335 0.10137000  12.010000   ; qtot -0.495532
 1336         h1     46    bbb     H1   1336 0.04411300   1.008000   ; qtot -0.451419
 1337         h1     46    bbb     H2   1337 0.04411300   1.008000   ; qtot -0.407306
 1338         c3     46    bbb     C2   1338 0.10137000  12.010000   ; qtot -0.305936
 1339         h1     46    bbb     H3   1339 0.04411300   1.008000   ; qtot -0.261823
 1340         h1     46    bbb     H4   1340 0.04411300   1.008000   ; qtot -0.217710
 1341         c3     46    bbb     C3   1341 -0.00195300  12.010000   ; qtot -0.219663
 1342         h1     46    bbb     H5   1342 0.05064400   1.008000   ; qtot -0.169019
 1343         h1     46    bbb     H6   1343 0.05064400   1.008000   ; qtot -0.118375
 1344         c3     46    bbb     C4   1344 -0.01612100  12.010000   ; qtot -0.134496
 1345         hc     46    bbb     H7   1345 0.04936100   1.008000   ; qtot -0.085135
 1346         hc     46    bbb     H8   1346 0.04936100   1.008000   ; qtot -0.035774
 1347         c3     46    bbb     C5   1347 0.11363000  12.010000   ; qtot 0.077856
 1348         hc     46    bbb     H9   1348 0.06265900   1.008000   ; qtot 0.140515
 1349         hc     46    bbb    H10   1349 0.06265900   1.008000   ; qtot 0.203174
 1350         c3     46    bbb     C6   1350 0.11363000  12.010000   ; qtot 0.316804
 1351         hc     46    bbb    H11   1351 0.06265900   1.008000   ; qtot 0.379463
 1352         hc     46    bbb    H12   1352 0.06265900   1.008000   ; qtot 0.442122
 1353         c3     46    bbb     C7   1353 0.05858200  12.010000   ; qtot 0.500704
 1354         h1     46    bbb    H13   1354 0.06123400   1.008000   ; qtot 0.561938
 1355         h1     46    bbb    H14   1355 0.06123400   1.008000   ; qtot 0.623172
 1356         c3     46    bbb     C8   1356 -0.72423400  12.010000   ; qtot -0.101062
 1357         h1     46    bbb    H15   1357 0.25637600   1.008000   ; qtot 0.155314
 1358         h1     46    bbb    H16   1358 0.25637600   1.008000   ; qtot 0.411690
 1359         c3     46    bbb     C9   1359 -0.72423400  12.010000   ; qtot -0.312544
 1360         h1     46    bbb    H17   1360 0.25637600   1.008000   ; qtot -0.056168
 1361         h1     46    bbb    H18   1361 0.25637600   1.008000   ; qtot 0.200208
 1362         os     46    bbb     O1   1362 -0.20025300  16.000000   ; qtot -0.000045
; residue   47 bbb rtp bbb q -0.0
 1363         n3     47    bbb     N1   1363 -0.59685800  14.010000   ; qtot -0.596903
 1364         c3     47    bbb     C1   1364 0.10137000  12.010000   ; qtot -0.495533
 1365         h1     47    bbb     H1   1365 0.04411300   1.008000   ; qtot -0.451420
 1366         h1     47    bbb     H2   1366 0.04411300   1.008000   ; qtot -0.407307
 1367         c3     47    bbb     C2   1367 0.10137000  12.010000   ; qtot -0.305937
 1368         h1     47    bbb     H3   1368 0.04411300   1.008000   ; qtot -0.261824
 1369         h1     47    bbb     H4   1369 0.04411300   1.008000   ; qtot -0.217711
 1370         c3     47    bbb     C3   1370 -0.00195300  12.010000   ; qtot -0.219664
 1371         h1     47    bbb     H5   1371 0.05064400   1.008000   ; qtot -0.169020
 1372         h1     47    bbb     H6   1372 0.05064400   1.008000   ; qtot -0.118376
 1373         c3     47    bbb     C4   1373 -0.01612100  12.010000   ; qtot -0.134497
 1374         hc     47    bbb     H7   1374 0.04936100   1.008000   ; qtot -0.085136
 1375         hc     47    bbb     H8   1375 0.04936100   1.008000   ; qtot -0.035775
 1376         c3     47    bbb     C5   1376 0.11363000  12.010000   ; qtot 0.077855
 1377         hc     47    bbb     H9   1377 0.06265900   1.008000   ; qtot 0.140514
 1378         hc     47    bbb    H10   1378 0.06265900   1.008000   ; qtot 0.203173
 1379         c3     47    bbb     C6   1379 0.11363000  12.010000   ; qtot 0.316803
 1380         hc     47    bbb    H11   1380 0.06265900   1.008000   ; qtot 0.379462
 1381         hc     47    bbb    H12   1381 0.06265900   1.008000   ; qtot 0.442121
 1382         c3     47    bbb     C7   1382 0.05858200  12.010000   ; qtot 0.500703
 1383         h1     47    bbb    H13   1383 0.06123400   1.008000   ; qtot 0.561937
 1384         h1     47    bbb    H14   1384 0.06123400   1.008000   ; qtot 0.623171
 1385         c3     47    bbb     C8   1385 -0.72423400  12.010000   ; qtot -0.101063
 1386         h1     47    bbb    H15   1386 0.25637600   1.008000   ; qtot 0.155313
 1387         h1     47    bbb    H16   1387 0.25637600   1.008000   ; qtot 0.411689
 1388         c3     47    bbb     C9   1388 -0.72423400  12.010000   ; qtot -0.312545
 1389         h1     47    bbb    H17   1389 0.25637600   1.008000   ; qtot -0.056169
 1390         h1     47    bbb    H18   1390 0.25637600   1.008000   ; qtot 0.200207
 1391         os     47    bbb     O1   1391 -0.20025300  16.000000   ; qtot -0.000046
; residue   48 bbb rtp bbb q -0.0
 1392         n3     48    bbb     N1   1392 -0.59685800  14.010000   ; qtot -0.596904
 1393         c3     48    bbb     C1   1393 0.10137000  12.010000   ; qtot -0.495534
 1394         h1     48    bbb     H1   1394 0.04411300   1.008000   ; qtot -0.451421
 1395         h1     48    bbb     H2   1395 0.04411300   1.008000   ; qtot -0.407308
 1396         c3     48    bbb     C2   1396 0.10137000  12.010000   ; qtot -0.305938
 1397         h1     48    bbb     H3   1397 0.04411300   1.008000   ; qtot -0.261825
 1398         h1     48    bbb     H4   1398 0.04411300   1.008000   ; qtot -0.217712
 1399         c3     48    bbb     C3   1399 -0.00195300  12.010000   ; qtot -0.219665
 1400         h1     48    bbb     H5   1400 0.05064400   1.008000   ; qtot -0.169021
 1401         h1     48    bbb     H6   1401 0.05064400   1.008000   ; qtot -0.118377
 1402         c3     48    bbb     C4   1402 -0.01612100  12.010000   ; qtot -0.134498
 1403         hc     48    bbb     H7   1403 0.04936100   1.008000   ; qtot -0.085137
 1404         hc     48    bbb     H8   1404 0.04936100   1.008000   ; qtot -0.035776
 1405         c3     48    bbb     C5   1405 0.11363000  12.010000   ; qtot 0.077854
 1406         hc     48    bbb     H9   1406 0.06265900   1.008000   ; qtot 0.140513
 1407         hc     48    bbb    H10   1407 0.06265900   1.008000   ; qtot 0.203172
 1408         c3     48    bbb     C6   1408 0.11363000  12.010000   ; qtot 0.316802
 1409         hc     48    bbb    H11   1409 0.06265900   1.008000   ; qtot 0.379461
 1410         hc     48    bbb    H12   1410 0.06265900   1.008000   ; qtot 0.442120
 1411         c3     48    bbb     C7   1411 0.05858200  12.010000   ; qtot 0.500702
 1412         h1     48    bbb    H13   1412 0.06123400   1.008000   ; qtot 0.561936
 1413         h1     48    bbb    H14   1413 0.06123400   1.008000   ; qtot 0.623170
 1414         c3     48    bbb     C8   1414 -0.72423400  12.010000   ; qtot -0.101064
 1415         h1     48    bbb    H15   1415 0.25637600   1.008000   ; qtot 0.155312
 1416         h1     48    bbb    H16   1416 0.25637600   1.008000   ; qtot 0.411688
 1417         c3     48    bbb     C9   1417 -0.72423400  12.010000   ; qtot -0.312546
 1418         h1     48    bbb    H17   1418 0.25637600   1.008000   ; qtot -0.056170
 1419         h1     48    bbb    H18   1419 0.25637600   1.008000   ; qtot 0.200206
 1420         os     48    bbb     O1   1420 -0.20025300  16.000000   ; qtot -0.000047
; residue   49 bbb rtp bbb q -0.0
 1421         n3     49    bbb     N1   1421 -0.59685800  14.010000   ; qtot -0.596905
 1422         c3     49    bbb     C1   1422 0.10137000  12.010000   ; qtot -0.495535
 1423         h1     49    bbb     H1   1423 0.04411300   1.008000   ; qtot -0.451422
 1424         h1     49    bbb     H2   1424 0.04411300   1.008000   ; qtot -0.407309
 1425         c3     49    bbb     C2   1425 0.10137000  12.010000   ; qtot -0.305939
 1426         h1     49    bbb     H3   1426 0.04411300   1.008000   ; qtot -0.261826
 1427         h1     49    bbb     H4   1427 0.04411300   1.008000   ; qtot -0.217713
 1428         c3     49    bbb     C3   1428 -0.00195300  12.010000   ; qtot -0.219666
 1429         h1     49    bbb     H5   1429 0.05064400   1.008000   ; qtot -0.169022
 1430         h1     49    bbb     H6   1430 0.05064400   1.008000   ; qtot -0.118378
 1431         c3     49    bbb     C4   1431 -0.01612100  12.010000   ; qtot -0.134499
 1432         hc     49    bbb     H7   1432 0.04936100   1.008000   ; qtot -0.085138
 1433         hc     49    bbb     H8   1433 0.04936100   1.008000   ; qtot -0.035777
 1434         c3     49    bbb     C5   1434 0.11363000  12.010000   ; qtot 0.077853
 1435         hc     49    bbb     H9   1435 0.06265900   1.008000   ; qtot 0.140512
 1436         hc     49    bbb    H10   1436 0.06265900   1.008000   ; qtot 0.203171
 1437         c3     49    bbb     C6   1437 0.11363000  12.010000   ; qtot 0.316801
 1438         hc     49    bbb    H11   1438 0.06265900   1.008000   ; qtot 0.379460
 1439         hc     49    bbb    H12   1439 0.06265900   1.008000   ; qtot 0.442119
 1440         c3     49    bbb     C7   1440 0.05858200  12.010000   ; qtot 0.500701
 1441         h1     49    bbb    H13   1441 0.06123400   1.008000   ; qtot 0.561935
 1442         h1     49    bbb    H14   1442 0.06123400   1.008000   ; qtot 0.623169
 1443         c3     49    bbb     C8   1443 -0.72423400  12.010000   ; qtot -0.101065
 1444         h1     49    bbb    H15   1444 0.25637600   1.008000   ; qtot 0.155311
 1445         h1     49    bbb    H16   1445 0.25637600   1.008000   ; qtot 0.411687
 1446         c3     49    bbb     C9   1446 -0.72423400  12.010000   ; qtot -0.312547
 1447         h1     49    bbb    H17   1447 0.25637600   1.008000   ; qtot -0.056171
 1448         h1     49    bbb    H18   1448 0.25637600   1.008000   ; qtot 0.200205
 1449         os     49    bbb     O1   1449 -0.20025300  16.000000   ; qtot -0.000048
; residue   50 bbb rtp bbb q -0.0
 1450         n3     50    bbb     N1   1450 -0.59685800  14.010000   ; qtot -0.596906
 1451         c3     50    bbb     C1   1451 0.10137000  12.010000   ; qtot -0.495536
 1452         h1     50    bbb     H1   1452 0.04411300   1.008000   ; qtot -0.451423
 1453         h1     50    bbb     H2   1453 0.04411300   1.008000   ; qtot -0.407310
 1454         c3     50    bbb     C2   1454 0.10137000  12.010000   ; qtot -0.305940
 1455         h1     50    bbb     H3   1455 0.04411300   1.008000   ; qtot -0.261827
 1456         h1     50    bbb     H4   1456 0.04411300   1.008000   ; qtot -0.217714
 1457         c3     50    bbb     C3   1457 -0.00195300  12.010000   ; qtot -0.219667
 1458         h1     50    bbb     H5   1458 0.05064400   1.008000   ; qtot -0.169023
 1459         h1     50    bbb     H6   1459 0.05064400   1.008000   ; qtot -0.118379
 1460         c3     50    bbb     C4   1460 -0.01612100  12.010000   ; qtot -0.134500
 1461         hc     50    bbb     H7   1461 0.04936100   1.008000   ; qtot -0.085139
 1462         hc     50    bbb     H8   1462 0.04936100   1.008000   ; qtot -0.035778
 1463         c3     50    bbb     C5   1463 0.11363000  12.010000   ; qtot 0.077852
 1464         hc     50    bbb     H9   1464 0.06265900   1.008000   ; qtot 0.140511
 1465         hc     50    bbb    H10   1465 0.06265900   1.008000   ; qtot 0.203170
 1466         c3     50    bbb     C6   1466 0.11363000  12.010000   ; qtot 0.316800
 1467         hc     50    bbb    H11   1467 0.06265900   1.008000   ; qtot 0.379459
 1468         hc     50    bbb    H12   1468 0.06265900   1.008000   ; qtot 0.442118
 1469         c3     50    bbb     C7   1469 0.05858200  12.010000   ; qtot 0.500700
 1470         h1     50    bbb    H13   1470 0.06123400   1.008000   ; qtot 0.561934
 1471         h1     50    bbb    H14   1471 0.06123400   1.008000   ; qtot 0.623168
 1472         c3     50    bbb     C8   1472 -0.72423400  12.010000   ; qtot -0.101066
 1473         h1     50    bbb    H15   1473 0.25637600   1.008000   ; qtot 0.155310
 1474         h1     50    bbb    H16   1474 0.25637600   1.008000   ; qtot 0.411686
 1475         c3     50    bbb     C9   1475 -0.72423400  12.010000   ; qtot -0.312548
 1476         h1     50    bbb    H17   1476 0.25637600   1.008000   ; qtot -0.056172
 1477         h1     50    bbb    H18   1477 0.25637600   1.008000   ; qtot 0.200204
 1478         os     50    bbb     O1   1478 -0.20025300  16.000000   ; qtot -0.000049
; residue   51 bbb rtp bbb q -0.0
 1479         n3     51    bbb     N1   1479 -0.59685800  14.010000   ; qtot -0.596907
 1480         c3     51    bbb     C1   1480 0.10137000  12.010000   ; qtot -0.495537
 1481         h1     51    bbb     H1   1481 0.04411300   1.008000   ; qtot -0.451424
 1482         h1     51    bbb     H2   1482 0.04411300   1.008000   ; qtot -0.407311
 1483         c3     51    bbb     C2   1483 0.10137000  12.010000   ; qtot -0.305941
 1484         h1     51    bbb     H3   1484 0.04411300   1.008000   ; qtot -0.261828
 1485         h1     51    bbb     H4   1485 0.04411300   1.008000   ; qtot -0.217715
 1486         c3     51    bbb     C3   1486 -0.00195300  12.010000   ; qtot -0.219668
 1487         h1     51    bbb     H5   1487 0.05064400   1.008000   ; qtot -0.169024
 1488         h1     51    bbb     H6   1488 0.05064400   1.008000   ; qtot -0.118380
 1489         c3     51    bbb     C4   1489 -0.01612100  12.010000   ; qtot -0.134501
 1490         hc     51    bbb     H7   1490 0.04936100   1.008000   ; qtot -0.085140
 1491         hc     51    bbb     H8   1491 0.04936100   1.008000   ; qtot -0.035779
 1492         c3     51    bbb     C5   1492 0.11363000  12.010000   ; qtot 0.077851
 1493         hc     51    bbb     H9   1493 0.06265900   1.008000   ; qtot 0.140510
 1494         hc     51    bbb    H10   1494 0.06265900   1.008000   ; qtot 0.203169
 1495         c3     51    bbb     C6   1495 0.11363000  12.010000   ; qtot 0.316799
 1496         hc     51    bbb    H11   1496 0.06265900   1.008000   ; qtot 0.379458
 1497         hc     51    bbb    H12   1497 0.06265900   1.008000   ; qtot 0.442117
 1498         c3     51    bbb     C7   1498 0.05858200  12.010000   ; qtot 0.500699
 1499         h1     51    bbb    H13   1499 0.06123400   1.008000   ; qtot 0.561933
 1500         h1     51    bbb    H14   1500 0.06123400   1.008000   ; qtot 0.623167
 1501         c3     51    bbb     C8   1501 -0.72423400  12.010000   ; qtot -0.101067
 1502         h1     51    bbb    H15   1502 0.25637600   1.008000   ; qtot 0.155309
 1503         h1     51    bbb    H16   1503 0.25637600   1.008000   ; qtot 0.411685
 1504         c3     51    bbb     C9   1504 -0.72423400  12.010000   ; qtot -0.312549
 1505         h1     51    bbb    H17   1505 0.25637600   1.008000   ; qtot -0.056173
 1506         h1     51    bbb    H18   1506 0.25637600   1.008000   ; qtot 0.200203
 1507         os     51    bbb     O1   1507 -0.20025300  16.000000   ; qtot -0.000050
; residue   52 bbb rtp bbb q -0.0
 1508         n3     52    bbb     N1   1508 -0.59685800  14.010000   ; qtot -0.596908
 1509         c3     52    bbb     C1   1509 0.10137000  12.010000   ; qtot -0.495538
 1510         h1     52    bbb     H1   1510 0.04411300   1.008000   ; qtot -0.451425
 1511         h1     52    bbb     H2   1511 0.04411300   1.008000   ; qtot -0.407312
 1512         c3     52    bbb     C2   1512 0.10137000  12.010000   ; qtot -0.305942
 1513         h1     52    bbb     H3   1513 0.04411300   1.008000   ; qtot -0.261829
 1514         h1     52    bbb     H4   1514 0.04411300   1.008000   ; qtot -0.217716
 1515         c3     52    bbb     C3   1515 -0.00195300  12.010000   ; qtot -0.219669
 1516         h1     52    bbb     H5   1516 0.05064400   1.008000   ; qtot -0.169025
 1517         h1     52    bbb     H6   1517 0.05064400   1.008000   ; qtot -0.118381
 1518         c3     52    bbb     C4   1518 -0.01612100  12.010000   ; qtot -0.134502
 1519         hc     52    bbb     H7   1519 0.04936100   1.008000   ; qtot -0.085141
 1520         hc     52    bbb     H8   1520 0.04936100   1.008000   ; qtot -0.035780
 1521         c3     52    bbb     C5   1521 0.11363000  12.010000   ; qtot 0.077850
 1522         hc     52    bbb     H9   1522 0.06265900   1.008000   ; qtot 0.140509
 1523         hc     52    bbb    H10   1523 0.06265900   1.008000   ; qtot 0.203168
 1524         c3     52    bbb     C6   1524 0.11363000  12.010000   ; qtot 0.316798
 1525         hc     52    bbb    H11   1525 0.06265900   1.008000   ; qtot 0.379457
 1526         hc     52    bbb    H12   1526 0.06265900   1.008000   ; qtot 0.442116
 1527         c3     52    bbb     C7   1527 0.05858200  12.010000   ; qtot 0.500698
 1528         h1     52    bbb    H13   1528 0.06123400   1.008000   ; qtot 0.561932
 1529         h1     52    bbb    H14   1529 0.06123400   1.008000   ; qtot 0.623166
 1530         c3     52    bbb     C8   1530 -0.72423400  12.010000   ; qtot -0.101068
 1531         h1     52    bbb    H15   1531 0.25637600   1.008000   ; qtot 0.155308
 1532         h1     52    bbb    H16   1532 0.25637600   1.008000   ; qtot 0.411684
 1533         c3     52    bbb     C9   1533 -0.72423400  12.010000   ; qtot -0.312550
 1534         h1     52    bbb    H17   1534 0.25637600   1.008000   ; qtot -0.056174
 1535         h1     52    bbb    H18   1535 0.25637600   1.008000   ; qtot 0.200202
 1536         os     52    bbb     O1   1536 -0.20025300  16.000000   ; qtot -0.000051
; residue   53 bbb rtp bbb q -0.0
 1537         n3     53    bbb     N1   1537 -0.59685800  14.010000   ; qtot -0.596909
 1538         c3     53    bbb     C1   1538 0.10137000  12.010000   ; qtot -0.495539
 1539         h1     53    bbb     H1   1539 0.04411300   1.008000   ; qtot -0.451426
 1540         h1     53    bbb     H2   1540 0.04411300   1.008000   ; qtot -0.407313
 1541         c3     53    bbb     C2   1541 0.10137000  12.010000   ; qtot -0.305943
 1542         h1     53    bbb     H3   1542 0.04411300   1.008000   ; qtot -0.261830
 1543         h1     53    bbb     H4   1543 0.04411300   1.008000   ; qtot -0.217717
 1544         c3     53    bbb     C3   1544 -0.00195300  12.010000   ; qtot -0.219670
 1545         h1     53    bbb     H5   1545 0.05064400   1.008000   ; qtot -0.169026
 1546         h1     53    bbb     H6   1546 0.05064400   1.008000   ; qtot -0.118382
 1547         c3     53    bbb     C4   1547 -0.01612100  12.010000   ; qtot -0.134503
 1548         hc     53    bbb     H7   1548 0.04936100   1.008000   ; qtot -0.085142
 1549         hc     53    bbb     H8   1549 0.04936100   1.008000   ; qtot -0.035781
 1550         c3     53    bbb     C5   1550 0.11363000  12.010000   ; qtot 0.077849
 1551         hc     53    bbb     H9   1551 0.06265900   1.008000   ; qtot 0.140508
 1552         hc     53    bbb    H10   1552 0.06265900   1.008000   ; qtot 0.203167
 1553         c3     53    bbb     C6   1553 0.11363000  12.010000   ; qtot 0.316797
 1554         hc     53    bbb    H11   1554 0.06265900   1.008000   ; qtot 0.379456
 1555         hc     53    bbb    H12   1555 0.06265900   1.008000   ; qtot 0.442115
 1556         c3     53    bbb     C7   1556 0.05858200  12.010000   ; qtot 0.500697
 1557         h1     53    bbb    H13   1557 0.06123400   1.008000   ; qtot 0.561931
 1558         h1     53    bbb    H14   1558 0.06123400   1.008000   ; qtot 0.623165
 1559         c3     53    bbb     C8   1559 -0.72423400  12.010000   ; qtot -0.101069
 1560         h1     53    bbb    H15   1560 0.25637600   1.008000   ; qtot 0.155307
 1561         h1     53    bbb    H16   1561 0.25637600   1.008000   ; qtot 0.411683
 1562         c3     53    bbb     C9   1562 -0.72423400  12.010000   ; qtot -0.312551
 1563         h1     53    bbb    H17   1563 0.25637600   1.008000   ; qtot -0.056175
 1564         h1     53    bbb    H18   1564 0.25637600   1.008000   ; qtot 0.200201
 1565         os     53    bbb     O1   1565 -0.20025300  16.000000   ; qtot -0.000052
; residue   54 bbb rtp bbb q -0.0
 1566         n3     54    bbb     N1   1566 -0.59685800  14.010000   ; qtot -0.596910
 1567         c3     54    bbb     C1   1567 0.10137000  12.010000   ; qtot -0.495540
 1568         h1     54    bbb     H1   1568 0.04411300   1.008000   ; qtot -0.451427
 1569         h1     54    bbb     H2   1569 0.04411300   1.008000   ; qtot -0.407314
 1570         c3     54    bbb     C2   1570 0.10137000  12.010000   ; qtot -0.305944
 1571         h1     54    bbb     H3   1571 0.04411300   1.008000   ; qtot -0.261831
 1572         h1     54    bbb     H4   1572 0.04411300   1.008000   ; qtot -0.217718
 1573         c3     54    bbb     C3   1573 -0.00195300  12.010000   ; qtot -0.219671
 1574         h1     54    bbb     H5   1574 0.05064400   1.008000   ; qtot -0.169027
 1575         h1     54    bbb     H6   1575 0.05064400   1.008000   ; qtot -0.118383
 1576         c3     54    bbb     C4   1576 -0.01612100  12.010000   ; qtot -0.134504
 1577         hc     54    bbb     H7   1577 0.04936100   1.008000   ; qtot -0.085143
 1578         hc     54    bbb     H8   1578 0.04936100   1.008000   ; qtot -0.035782
 1579         c3     54    bbb     C5   1579 0.11363000  12.010000   ; qtot 0.077848
 1580         hc     54    bbb     H9   1580 0.06265900   1.008000   ; qtot 0.140507
 1581         hc     54    bbb    H10   1581 0.06265900   1.008000   ; qtot 0.203166
 1582         c3     54    bbb     C6   1582 0.11363000  12.010000   ; qtot 0.316796
 1583         hc     54    bbb    H11   1583 0.06265900   1.008000   ; qtot 0.379455
 1584         hc     54    bbb    H12   1584 0.06265900   1.008000   ; qtot 0.442114
 1585         c3     54    bbb     C7   1585 0.05858200  12.010000   ; qtot 0.500696
 1586         h1     54    bbb    H13   1586 0.06123400   1.008000   ; qtot 0.561930
 1587         h1     54    bbb    H14   1587 0.06123400   1.008000   ; qtot 0.623164
 1588         c3     54    bbb     C8   1588 -0.72423400  12.010000   ; qtot -0.101070
 1589         h1     54    bbb    H15   1589 0.25637600   1.008000   ; qtot 0.155306
 1590         h1     54    bbb    H16   1590 0.25637600   1.008000   ; qtot 0.411682
 1591         c3     54    bbb     C9   1591 -0.72423400  12.010000   ; qtot -0.312552
 1592         h1     54    bbb    H17   1592 0.25637600   1.008000   ; qtot -0.056176
 1593         h1     54    bbb    H18   1593 0.25637600   1.008000   ; qtot 0.200200
 1594         os     54    bbb     O1   1594 -0.20025300  16.000000   ; qtot -0.000053
; residue   55 bbb rtp bbb q -0.0
 1595         n3     55    bbb     N1   1595 -0.59685800  14.010000   ; qtot -0.596911
 1596         c3     55    bbb     C1   1596 0.10137000  12.010000   ; qtot -0.495541
 1597         h1     55    bbb     H1   1597 0.04411300   1.008000   ; qtot -0.451428
 1598         h1     55    bbb     H2   1598 0.04411300   1.008000   ; qtot -0.407315
 1599         c3     55    bbb     C2   1599 0.10137000  12.010000   ; qtot -0.305945
 1600         h1     55    bbb     H3   1600 0.04411300   1.008000   ; qtot -0.261832
 1601         h1     55    bbb     H4   1601 0.04411300   1.008000   ; qtot -0.217719
 1602         c3     55    bbb     C3   1602 -0.00195300  12.010000   ; qtot -0.219672
 1603         h1     55    bbb     H5   1603 0.05064400   1.008000   ; qtot -0.169028
 1604         h1     55    bbb     H6   1604 0.05064400   1.008000   ; qtot -0.118384
 1605         c3     55    bbb     C4   1605 -0.01612100  12.010000   ; qtot -0.134505
 1606         hc     55    bbb     H7   1606 0.04936100   1.008000   ; qtot -0.085144
 1607         hc     55    bbb     H8   1607 0.04936100   1.008000   ; qtot -0.035783
 1608         c3     55    bbb     C5   1608 0.11363000  12.010000   ; qtot 0.077847
 1609         hc     55    bbb     H9   1609 0.06265900   1.008000   ; qtot 0.140506
 1610         hc     55    bbb    H10   1610 0.06265900   1.008000   ; qtot 0.203165
 1611         c3     55    bbb     C6   1611 0.11363000  12.010000   ; qtot 0.316795
 1612         hc     55    bbb    H11   1612 0.06265900   1.008000   ; qtot 0.379454
 1613         hc     55    bbb    H12   1613 0.06265900   1.008000   ; qtot 0.442113
 1614         c3     55    bbb     C7   1614 0.05858200  12.010000   ; qtot 0.500695
 1615         h1     55    bbb    H13   1615 0.06123400   1.008000   ; qtot 0.561929
 1616         h1     55    bbb    H14   1616 0.06123400   1.008000   ; qtot 0.623163
 1617         c3     55    bbb     C8   1617 -0.72423400  12.010000   ; qtot -0.101071
 1618         h1     55    bbb    H15   1618 0.25637600   1.008000   ; qtot 0.155305
 1619         h1     55    bbb    H16   1619 0.25637600   1.008000   ; qtot 0.411681
 1620         c3     55    bbb     C9   1620 -0.72423400  12.010000   ; qtot -0.312553
 1621         h1     55    bbb    H17   1621 0.25637600   1.008000   ; qtot -0.056177
 1622         h1     55    bbb    H18   1622 0.25637600   1.008000   ; qtot 0.200199
 1623         os     55    bbb     O1   1623 -0.20025300  16.000000   ; qtot -0.000054
; residue   56 bbb rtp bbb q -0.0
 1624         n3     56    bbb     N1   1624 -0.59685800  14.010000   ; qtot -0.596912
 1625         c3     56    bbb     C1   1625 0.10137000  12.010000   ; qtot -0.495542
 1626         h1     56    bbb     H1   1626 0.04411300   1.008000   ; qtot -0.451429
 1627         h1     56    bbb     H2   1627 0.04411300   1.008000   ; qtot -0.407316
 1628         c3     56    bbb     C2   1628 0.10137000  12.010000   ; qtot -0.305946
 1629         h1     56    bbb     H3   1629 0.04411300   1.008000   ; qtot -0.261833
 1630         h1     56    bbb     H4   1630 0.04411300   1.008000   ; qtot -0.217720
 1631         c3     56    bbb     C3   1631 -0.00195300  12.010000   ; qtot -0.219673
 1632         h1     56    bbb     H5   1632 0.05064400   1.008000   ; qtot -0.169029
 1633         h1     56    bbb     H6   1633 0.05064400   1.008000   ; qtot -0.118385
 1634         c3     56    bbb     C4   1634 -0.01612100  12.010000   ; qtot -0.134506
 1635         hc     56    bbb     H7   1635 0.04936100   1.008000   ; qtot -0.085145
 1636         hc     56    bbb     H8   1636 0.04936100   1.008000   ; qtot -0.035784
 1637         c3     56    bbb     C5   1637 0.11363000  12.010000   ; qtot 0.077846
 1638         hc     56    bbb     H9   1638 0.06265900   1.008000   ; qtot 0.140505
 1639         hc     56    bbb    H10   1639 0.06265900   1.008000   ; qtot 0.203164
 1640         c3     56    bbb     C6   1640 0.11363000  12.010000   ; qtot 0.316794
 1641         hc     56    bbb    H11   1641 0.06265900   1.008000   ; qtot 0.379453
 1642         hc     56    bbb    H12   1642 0.06265900   1.008000   ; qtot 0.442112
 1643         c3     56    bbb     C7   1643 0.05858200  12.010000   ; qtot 0.500694
 1644         h1     56    bbb    H13   1644 0.06123400   1.008000   ; qtot 0.561928
 1645         h1     56    bbb    H14   1645 0.06123400   1.008000   ; qtot 0.623162
 1646         c3     56    bbb     C8   1646 -0.72423400  12.010000   ; qtot -0.101072
 1647         h1     56    bbb    H15   1647 0.25637600   1.008000   ; qtot 0.155304
 1648         h1     56    bbb    H16   1648 0.25637600   1.008000   ; qtot 0.411680
 1649         c3     56    bbb     C9   1649 -0.72423400  12.010000   ; qtot -0.312554
 1650         h1     56    bbb    H17   1650 0.25637600   1.008000   ; qtot -0.056178
 1651         h1     56    bbb    H18   1651 0.25637600   1.008000   ; qtot 0.200198
 1652         os     56    bbb     O1   1652 -0.20025300  16.000000   ; qtot -0.000055
; residue   57 bbb rtp bbb q -0.0
 1653         n3     57    bbb     N1   1653 -0.59685800  14.010000   ; qtot -0.596913
 1654         c3     57    bbb     C1   1654 0.10137000  12.010000   ; qtot -0.495543
 1655         h1     57    bbb     H1   1655 0.04411300   1.008000   ; qtot -0.451430
 1656         h1     57    bbb     H2   1656 0.04411300   1.008000   ; qtot -0.407317
 1657         c3     57    bbb     C2   1657 0.10137000  12.010000   ; qtot -0.305947
 1658         h1     57    bbb     H3   1658 0.04411300   1.008000   ; qtot -0.261834
 1659         h1     57    bbb     H4   1659 0.04411300   1.008000   ; qtot -0.217721
 1660         c3     57    bbb     C3   1660 -0.00195300  12.010000   ; qtot -0.219674
 1661         h1     57    bbb     H5   1661 0.05064400   1.008000   ; qtot -0.169030
 1662         h1     57    bbb     H6   1662 0.05064400   1.008000   ; qtot -0.118386
 1663         c3     57    bbb     C4   1663 -0.01612100  12.010000   ; qtot -0.134507
 1664         hc     57    bbb     H7   1664 0.04936100   1.008000   ; qtot -0.085146
 1665         hc     57    bbb     H8   1665 0.04936100   1.008000   ; qtot -0.035785
 1666         c3     57    bbb     C5   1666 0.11363000  12.010000   ; qtot 0.077845
 1667         hc     57    bbb     H9   1667 0.06265900   1.008000   ; qtot 0.140504
 1668         hc     57    bbb    H10   1668 0.06265900   1.008000   ; qtot 0.203163
 1669         c3     57    bbb     C6   1669 0.11363000  12.010000   ; qtot 0.316793
 1670         hc     57    bbb    H11   1670 0.06265900   1.008000   ; qtot 0.379452
 1671         hc     57    bbb    H12   1671 0.06265900   1.008000   ; qtot 0.442111
 1672         c3     57    bbb     C7   1672 0.05858200  12.010000   ; qtot 0.500693
 1673         h1     57    bbb    H13   1673 0.06123400   1.008000   ; qtot 0.561927
 1674         h1     57    bbb    H14   1674 0.06123400   1.008000   ; qtot 0.623161
 1675         c3     57    bbb     C8   1675 -0.72423400  12.010000   ; qtot -0.101073
 1676         h1     57    bbb    H15   1676 0.25637600   1.008000   ; qtot 0.155303
 1677         h1     57    bbb    H16   1677 0.25637600   1.008000   ; qtot 0.411679
 1678         c3     57    bbb     C9   1678 -0.72423400  12.010000   ; qtot -0.312555
 1679         h1     57    bbb    H17   1679 0.25637600   1.008000   ; qtot -0.056179
 1680         h1     57    bbb    H18   1680 0.25637600   1.008000   ; qtot 0.200197
 1681         os     57    bbb     O1   1681 -0.20025300  16.000000   ; qtot -0.000056
; residue   58 bbb rtp bbb q -0.0
 1682         n3     58    bbb     N1   1682 -0.59685800  14.010000   ; qtot -0.596914
 1683         c3     58    bbb     C1   1683 0.10137000  12.010000   ; qtot -0.495544
 1684         h1     58    bbb     H1   1684 0.04411300   1.008000   ; qtot -0.451431
 1685         h1     58    bbb     H2   1685 0.04411300   1.008000   ; qtot -0.407318
 1686         c3     58    bbb     C2   1686 0.10137000  12.010000   ; qtot -0.305948
 1687         h1     58    bbb     H3   1687 0.04411300   1.008000   ; qtot -0.261835
 1688         h1     58    bbb     H4   1688 0.04411300   1.008000   ; qtot -0.217722
 1689         c3     58    bbb     C3   1689 -0.00195300  12.010000   ; qtot -0.219675
 1690         h1     58    bbb     H5   1690 0.05064400   1.008000   ; qtot -0.169031
 1691         h1     58    bbb     H6   1691 0.05064400   1.008000   ; qtot -0.118387
 1692         c3     58    bbb     C4   1692 -0.01612100  12.010000   ; qtot -0.134508
 1693         hc     58    bbb     H7   1693 0.04936100   1.008000   ; qtot -0.085147
 1694         hc     58    bbb     H8   1694 0.04936100   1.008000   ; qtot -0.035786
 1695         c3     58    bbb     C5   1695 0.11363000  12.010000   ; qtot 0.077844
 1696         hc     58    bbb     H9   1696 0.06265900   1.008000   ; qtot 0.140503
 1697         hc     58    bbb    H10   1697 0.06265900   1.008000   ; qtot 0.203162
 1698         c3     58    bbb     C6   1698 0.11363000  12.010000   ; qtot 0.316792
 1699         hc     58    bbb    H11   1699 0.06265900   1.008000   ; qtot 0.379451
 1700         hc     58    bbb    H12   1700 0.06265900   1.008000   ; qtot 0.442110
 1701         c3     58    bbb     C7   1701 0.05858200  12.010000   ; qtot 0.500692
 1702         h1     58    bbb    H13   1702 0.06123400   1.008000   ; qtot 0.561926
 1703         h1     58    bbb    H14   1703 0.06123400   1.008000   ; qtot 0.623160
 1704         c3     58    bbb     C8   1704 -0.72423400  12.010000   ; qtot -0.101074
 1705         h1     58    bbb    H15   1705 0.25637600   1.008000   ; qtot 0.155302
 1706         h1     58    bbb    H16   1706 0.25637600   1.008000   ; qtot 0.411678
 1707         c3     58    bbb     C9   1707 -0.72423400  12.010000   ; qtot -0.312556
 1708         h1     58    bbb    H17   1708 0.25637600   1.008000   ; qtot -0.056180
 1709         h1     58    bbb    H18   1709 0.25637600   1.008000   ; qtot 0.200196
 1710         os     58    bbb     O1   1710 -0.20025300  16.000000   ; qtot -0.000057
; residue   59 bbb rtp bbb q -0.0
 1711         n3     59    bbb     N1   1711 -0.59685800  14.010000   ; qtot -0.596915
 1712         c3     59    bbb     C1   1712 0.10137000  12.010000   ; qtot -0.495545
 1713         h1     59    bbb     H1   1713 0.04411300   1.008000   ; qtot -0.451432
 1714         h1     59    bbb     H2   1714 0.04411300   1.008000   ; qtot -0.407319
 1715         c3     59    bbb     C2   1715 0.10137000  12.010000   ; qtot -0.305949
 1716         h1     59    bbb     H3   1716 0.04411300   1.008000   ; qtot -0.261836
 1717         h1     59    bbb     H4   1717 0.04411300   1.008000   ; qtot -0.217723
 1718         c3     59    bbb     C3   1718 -0.00195300  12.010000   ; qtot -0.219676
 1719         h1     59    bbb     H5   1719 0.05064400   1.008000   ; qtot -0.169032
 1720         h1     59    bbb     H6   1720 0.05064400   1.008000   ; qtot -0.118388
 1721         c3     59    bbb     C4   1721 -0.01612100  12.010000   ; qtot -0.134509
 1722         hc     59    bbb     H7   1722 0.04936100   1.008000   ; qtot -0.085148
 1723         hc     59    bbb     H8   1723 0.04936100   1.008000   ; qtot -0.035787
 1724         c3     59    bbb     C5   1724 0.11363000  12.010000   ; qtot 0.077843
 1725         hc     59    bbb     H9   1725 0.06265900   1.008000   ; qtot 0.140502
 1726         hc     59    bbb    H10   1726 0.06265900   1.008000   ; qtot 0.203161
 1727         c3     59    bbb     C6   1727 0.11363000  12.010000   ; qtot 0.316791
 1728         hc     59    bbb    H11   1728 0.06265900   1.008000   ; qtot 0.379450
 1729         hc     59    bbb    H12   1729 0.06265900   1.008000   ; qtot 0.442109
 1730         c3     59    bbb     C7   1730 0.05858200  12.010000   ; qtot 0.500691
 1731         h1     59    bbb    H13   1731 0.06123400   1.008000   ; qtot 0.561925
 1732         h1     59    bbb    H14   1732 0.06123400   1.008000   ; qtot 0.623159
 1733         c3     59    bbb     C8   1733 -0.72423400  12.010000   ; qtot -0.101075
 1734         h1     59    bbb    H15   1734 0.25637600   1.008000   ; qtot 0.155301
 1735         h1     59    bbb    H16   1735 0.25637600   1.008000   ; qtot 0.411677
 1736         c3     59    bbb     C9   1736 -0.72423400  12.010000   ; qtot -0.312557
 1737         h1     59    bbb    H17   1737 0.25637600   1.008000   ; qtot -0.056181
 1738         h1     59    bbb    H18   1738 0.25637600   1.008000   ; qtot 0.200195
 1739         os     59    bbb     O1   1739 -0.20025300  16.000000   ; qtot -0.000058
; residue   60 bbb rtp bbb q -0.0
 1740         n3     60    bbb     N1   1740 -0.59685800  14.010000   ; qtot -0.596916
 1741         c3     60    bbb     C1   1741 0.10137000  12.010000   ; qtot -0.495546
 1742         h1     60    bbb     H1   1742 0.04411300   1.008000   ; qtot -0.451433
 1743         h1     60    bbb     H2   1743 0.04411300   1.008000   ; qtot -0.407320
 1744         c3     60    bbb     C2   1744 0.10137000  12.010000   ; qtot -0.305950
 1745         h1     60    bbb     H3   1745 0.04411300   1.008000   ; qtot -0.261837
 1746         h1     60    bbb     H4   1746 0.04411300   1.008000   ; qtot -0.217724
 1747         c3     60    bbb     C3   1747 -0.00195300  12.010000   ; qtot -0.219677
 1748         h1     60    bbb     H5   1748 0.05064400   1.008000   ; qtot -0.169033
 1749         h1     60    bbb     H6   1749 0.05064400   1.008000   ; qtot -0.118389
 1750         c3     60    bbb     C4   1750 -0.01612100  12.010000   ; qtot -0.134510
 1751         hc     60    bbb     H7   1751 0.04936100   1.008000   ; qtot -0.085149
 1752         hc     60    bbb     H8   1752 0.04936100   1.008000   ; qtot -0.035788
 1753         c3     60    bbb     C5   1753 0.11363000  12.010000   ; qtot 0.077842
 1754         hc     60    bbb     H9   1754 0.06265900   1.008000   ; qtot 0.140501
 1755         hc     60    bbb    H10   1755 0.06265900   1.008000   ; qtot 0.203160
 1756         c3     60    bbb     C6   1756 0.11363000  12.010000   ; qtot 0.316790
 1757         hc     60    bbb    H11   1757 0.06265900   1.008000   ; qtot 0.379449
 1758         hc     60    bbb    H12   1758 0.06265900   1.008000   ; qtot 0.442108
 1759         c3     60    bbb     C7   1759 0.05858200  12.010000   ; qtot 0.500690
 1760         h1     60    bbb    H13   1760 0.06123400   1.008000   ; qtot 0.561924
 1761         h1     60    bbb    H14   1761 0.06123400   1.008000   ; qtot 0.623158
 1762         c3     60    bbb     C8   1762 -0.72423400  12.010000   ; qtot -0.101076
 1763         h1     60    bbb    H15   1763 0.25637600   1.008000   ; qtot 0.155300
 1764         h1     60    bbb    H16   1764 0.25637600   1.008000   ; qtot 0.411676
 1765         c3     60    bbb     C9   1765 -0.72423400  12.010000   ; qtot -0.312558
 1766         h1     60    bbb    H17   1766 0.25637600   1.008000   ; qtot -0.056182
 1767         h1     60    bbb    H18   1767 0.25637600   1.008000   ; qtot 0.200194
 1768         os     60    bbb     O1   1768 -0.20025300  16.000000   ; qtot -0.000059
; residue   61 bbb rtp bbb q -0.0
 1769         n3     61    bbb     N1   1769 -0.59685800  14.010000   ; qtot -0.596917
 1770         c3     61    bbb     C1   1770 0.10137000  12.010000   ; qtot -0.495547
 1771         h1     61    bbb     H1   1771 0.04411300   1.008000   ; qtot -0.451434
 1772         h1     61    bbb     H2   1772 0.04411300   1.008000   ; qtot -0.407321
 1773         c3     61    bbb     C2   1773 0.10137000  12.010000   ; qtot -0.305951
 1774         h1     61    bbb     H3   1774 0.04411300   1.008000   ; qtot -0.261838
 1775         h1     61    bbb     H4   1775 0.04411300   1.008000   ; qtot -0.217725
 1776         c3     61    bbb     C3   1776 -0.00195300  12.010000   ; qtot -0.219678
 1777         h1     61    bbb     H5   1777 0.05064400   1.008000   ; qtot -0.169034
 1778         h1     61    bbb     H6   1778 0.05064400   1.008000   ; qtot -0.118390
 1779         c3     61    bbb     C4   1779 -0.01612100  12.010000   ; qtot -0.134511
 1780         hc     61    bbb     H7   1780 0.04936100   1.008000   ; qtot -0.085150
 1781         hc     61    bbb     H8   1781 0.04936100   1.008000   ; qtot -0.035789
 1782         c3     61    bbb     C5   1782 0.11363000  12.010000   ; qtot 0.077841
 1783         hc     61    bbb     H9   1783 0.06265900   1.008000   ; qtot 0.140500
 1784         hc     61    bbb    H10   1784 0.06265900   1.008000   ; qtot 0.203159
 1785         c3     61    bbb     C6   1785 0.11363000  12.010000   ; qtot 0.316789
 1786         hc     61    bbb    H11   1786 0.06265900   1.008000   ; qtot 0.379448
 1787         hc     61    bbb    H12   1787 0.06265900   1.008000   ; qtot 0.442107
 1788         c3     61    bbb     C7   1788 0.05858200  12.010000   ; qtot 0.500689
 1789         h1     61    bbb    H13   1789 0.06123400   1.008000   ; qtot 0.561923
 1790         h1     61    bbb    H14   1790 0.06123400   1.008000   ; qtot 0.623157
 1791         c3     61    bbb     C8   1791 -0.72423400  12.010000   ; qtot -0.101077
 1792         h1     61    bbb    H15   1792 0.25637600   1.008000   ; qtot 0.155299
 1793         h1     61    bbb    H16   1793 0.25637600   1.008000   ; qtot 0.411675
 1794         c3     61    bbb     C9   1794 -0.72423400  12.010000   ; qtot -0.312559
 1795         h1     61    bbb    H17   1795 0.25637600   1.008000   ; qtot -0.056183
 1796         h1     61    bbb    H18   1796 0.25637600   1.008000   ; qtot 0.200193
 1797         os     61    bbb     O1   1797 -0.20025300  16.000000   ; qtot -0.000060
; residue   62 bbb rtp bbb q -0.0
 1798         n3     62    bbb     N1   1798 -0.59685800  14.010000   ; qtot -0.596918
 1799         c3     62    bbb     C1   1799 0.10137000  12.010000   ; qtot -0.495548
 1800         h1     62    bbb     H1   1800 0.04411300   1.008000   ; qtot -0.451435
 1801         h1     62    bbb     H2   1801 0.04411300   1.008000   ; qtot -0.407322
 1802         c3     62    bbb     C2   1802 0.10137000  12.010000   ; qtot -0.305952
 1803         h1     62    bbb     H3   1803 0.04411300   1.008000   ; qtot -0.261839
 1804         h1     62    bbb     H4   1804 0.04411300   1.008000   ; qtot -0.217726
 1805         c3     62    bbb     C3   1805 -0.00195300  12.010000   ; qtot -0.219679
 1806         h1     62    bbb     H5   1806 0.05064400   1.008000   ; qtot -0.169035
 1807         h1     62    bbb     H6   1807 0.05064400   1.008000   ; qtot -0.118391
 1808         c3     62    bbb     C4   1808 -0.01612100  12.010000   ; qtot -0.134512
 1809         hc     62    bbb     H7   1809 0.04936100   1.008000   ; qtot -0.085151
 1810         hc     62    bbb     H8   1810 0.04936100   1.008000   ; qtot -0.035790
 1811         c3     62    bbb     C5   1811 0.11363000  12.010000   ; qtot 0.077840
 1812         hc     62    bbb     H9   1812 0.06265900   1.008000   ; qtot 0.140499
 1813         hc     62    bbb    H10   1813 0.06265900   1.008000   ; qtot 0.203158
 1814         c3     62    bbb     C6   1814 0.11363000  12.010000   ; qtot 0.316788
 1815         hc     62    bbb    H11   1815 0.06265900   1.008000   ; qtot 0.379447
 1816         hc     62    bbb    H12   1816 0.06265900   1.008000   ; qtot 0.442106
 1817         c3     62    bbb     C7   1817 0.05858200  12.010000   ; qtot 0.500688
 1818         h1     62    bbb    H13   1818 0.06123400   1.008000   ; qtot 0.561922
 1819         h1     62    bbb    H14   1819 0.06123400   1.008000   ; qtot 0.623156
 1820         c3     62    bbb     C8   1820 -0.72423400  12.010000   ; qtot -0.101078
 1821         h1     62    bbb    H15   1821 0.25637600   1.008000   ; qtot 0.155298
 1822         h1     62    bbb    H16   1822 0.25637600   1.008000   ; qtot 0.411674
 1823         c3     62    bbb     C9   1823 -0.72423400  12.010000   ; qtot -0.312560
 1824         h1     62    bbb    H17   1824 0.25637600   1.008000   ; qtot -0.056184
 1825         h1     62    bbb    H18   1825 0.25637600   1.008000   ; qtot 0.200192
 1826         os     62    bbb     O1   1826 -0.20025300  16.000000   ; qtot -0.000061
; residue   63 bbb rtp bbb q -0.0
 1827         n3     63    bbb     N1   1827 -0.59685800  14.010000   ; qtot -0.596919
 1828         c3     63    bbb     C1   1828 0.10137000  12.010000   ; qtot -0.495549
 1829         h1     63    bbb     H1   1829 0.04411300   1.008000   ; qtot -0.451436
 1830         h1     63    bbb     H2   1830 0.04411300   1.008000   ; qtot -0.407323
 1831         c3     63    bbb     C2   1831 0.10137000  12.010000   ; qtot -0.305953
 1832         h1     63    bbb     H3   1832 0.04411300   1.008000   ; qtot -0.261840
 1833         h1     63    bbb     H4   1833 0.04411300   1.008000   ; qtot -0.217727
 1834         c3     63    bbb     C3   1834 -0.00195300  12.010000   ; qtot -0.219680
 1835         h1     63    bbb     H5   1835 0.05064400   1.008000   ; qtot -0.169036
 1836         h1     63    bbb     H6   1836 0.05064400   1.008000   ; qtot -0.118392
 1837         c3     63    bbb     C4   1837 -0.01612100  12.010000   ; qtot -0.134513
 1838         hc     63    bbb     H7   1838 0.04936100   1.008000   ; qtot -0.085152
 1839         hc     63    bbb     H8   1839 0.04936100   1.008000   ; qtot -0.035791
 1840         c3     63    bbb     C5   1840 0.11363000  12.010000   ; qtot 0.077839
 1841         hc     63    bbb     H9   1841 0.06265900   1.008000   ; qtot 0.140498
 1842         hc     63    bbb    H10   1842 0.06265900   1.008000   ; qtot 0.203157
 1843         c3     63    bbb     C6   1843 0.11363000  12.010000   ; qtot 0.316787
 1844         hc     63    bbb    H11   1844 0.06265900   1.008000   ; qtot 0.379446
 1845         hc     63    bbb    H12   1845 0.06265900   1.008000   ; qtot 0.442105
 1846         c3     63    bbb     C7   1846 0.05858200  12.010000   ; qtot 0.500687
 1847         h1     63    bbb    H13   1847 0.06123400   1.008000   ; qtot 0.561921
 1848         h1     63    bbb    H14   1848 0.06123400   1.008000   ; qtot 0.623155
 1849         c3     63    bbb     C8   1849 -0.72423400  12.010000   ; qtot -0.101079
 1850         h1     63    bbb    H15   1850 0.25637600   1.008000   ; qtot 0.155297
 1851         h1     63    bbb    H16   1851 0.25637600   1.008000   ; qtot 0.411673
 1852         c3     63    bbb     C9   1852 -0.72423400  12.010000   ; qtot -0.312561
 1853         h1     63    bbb    H17   1853 0.25637600   1.008000   ; qtot -0.056185
 1854         h1     63    bbb    H18   1854 0.25637600   1.008000   ; qtot 0.200191
 1855         os     63    bbb     O1   1855 -0.20025300  16.000000   ; qtot -0.000062
; residue   64 bbb rtp bbb q -0.0
 1856         n3     64    bbb     N1   1856 -0.59685800  14.010000   ; qtot -0.596920
 1857         c3     64    bbb     C1   1857 0.10137000  12.010000   ; qtot -0.495550
 1858         h1     64    bbb     H1   1858 0.04411300   1.008000   ; qtot -0.451437
 1859         h1     64    bbb     H2   1859 0.04411300   1.008000   ; qtot -0.407324
 1860         c3     64    bbb     C2   1860 0.10137000  12.010000   ; qtot -0.305954
 1861         h1     64    bbb     H3   1861 0.04411300   1.008000   ; qtot -0.261841
 1862         h1     64    bbb     H4   1862 0.04411300   1.008000   ; qtot -0.217728
 1863         c3     64    bbb     C3   1863 -0.00195300  12.010000   ; qtot -0.219681
 1864         h1     64    bbb     H5   1864 0.05064400   1.008000   ; qtot -0.169037
 1865         h1     64    bbb     H6   1865 0.05064400   1.008000   ; qtot -0.118393
 1866         c3     64    bbb     C4   1866 -0.01612100  12.010000   ; qtot -0.134514
 1867         hc     64    bbb     H7   1867 0.04936100   1.008000   ; qtot -0.085153
 1868         hc     64    bbb     H8   1868 0.04936100   1.008000   ; qtot -0.035792
 1869         c3     64    bbb     C5   1869 0.11363000  12.010000   ; qtot 0.077838
 1870         hc     64    bbb     H9   1870 0.06265900   1.008000   ; qtot 0.140497
 1871         hc     64    bbb    H10   1871 0.06265900   1.008000   ; qtot 0.203156
 1872         c3     64    bbb     C6   1872 0.11363000  12.010000   ; qtot 0.316786
 1873         hc     64    bbb    H11   1873 0.06265900   1.008000   ; qtot 0.379445
 1874         hc     64    bbb    H12   1874 0.06265900   1.008000   ; qtot 0.442104
 1875         c3     64    bbb     C7   1875 0.05858200  12.010000   ; qtot 0.500686
 1876         h1     64    bbb    H13   1876 0.06123400   1.008000   ; qtot 0.561920
 1877         h1     64    bbb    H14   1877 0.06123400   1.008000   ; qtot 0.623154
 1878         c3     64    bbb     C8   1878 -0.72423400  12.010000   ; qtot -0.101080
 1879         h1     64    bbb    H15   1879 0.25637600   1.008000   ; qtot 0.155296
 1880         h1     64    bbb    H16   1880 0.25637600   1.008000   ; qtot 0.411672
 1881         c3     64    bbb     C9   1881 -0.72423400  12.010000   ; qtot -0.312562
 1882         h1     64    bbb    H17   1882 0.25637600   1.008000   ; qtot -0.056186
 1883         h1     64    bbb    H18   1883 0.25637600   1.008000   ; qtot 0.200190
 1884         os     64    bbb     O1   1884 -0.20025300  16.000000   ; qtot -0.000063
; residue   65 bbb rtp bbb q -0.0
 1885         n3     65    bbb     N1   1885 -0.59685800  14.010000   ; qtot -0.596921
 1886         c3     65    bbb     C1   1886 0.10137000  12.010000   ; qtot -0.495551
 1887         h1     65    bbb     H1   1887 0.04411300   1.008000   ; qtot -0.451438
 1888         h1     65    bbb     H2   1888 0.04411300   1.008000   ; qtot -0.407325
 1889         c3     65    bbb     C2   1889 0.10137000  12.010000   ; qtot -0.305955
 1890         h1     65    bbb     H3   1890 0.04411300   1.008000   ; qtot -0.261842
 1891         h1     65    bbb     H4   1891 0.04411300   1.008000   ; qtot -0.217729
 1892         c3     65    bbb     C3   1892 -0.00195300  12.010000   ; qtot -0.219682
 1893         h1     65    bbb     H5   1893 0.05064400   1.008000   ; qtot -0.169038
 1894         h1     65    bbb     H6   1894 0.05064400   1.008000   ; qtot -0.118394
 1895         c3     65    bbb     C4   1895 -0.01612100  12.010000   ; qtot -0.134515
 1896         hc     65    bbb     H7   1896 0.04936100   1.008000   ; qtot -0.085154
 1897         hc     65    bbb     H8   1897 0.04936100   1.008000   ; qtot -0.035793
 1898         c3     65    bbb     C5   1898 0.11363000  12.010000   ; qtot 0.077837
 1899         hc     65    bbb     H9   1899 0.06265900   1.008000   ; qtot 0.140496
 1900         hc     65    bbb    H10   1900 0.06265900   1.008000   ; qtot 0.203155
 1901         c3     65    bbb     C6   1901 0.11363000  12.010000   ; qtot 0.316785
 1902         hc     65    bbb    H11   1902 0.06265900   1.008000   ; qtot 0.379444
 1903         hc     65    bbb    H12   1903 0.06265900   1.008000   ; qtot 0.442103
 1904         c3     65    bbb     C7   1904 0.05858200  12.010000   ; qtot 0.500685
 1905         h1     65    bbb    H13   1905 0.06123400   1.008000   ; qtot 0.561919
 1906         h1     65    bbb    H14   1906 0.06123400   1.008000   ; qtot 0.623153
 1907         c3     65    bbb     C8   1907 -0.72423400  12.010000   ; qtot -0.101081
 1908         h1     65    bbb    H15   1908 0.25637600   1.008000   ; qtot 0.155295
 1909         h1     65    bbb    H16   1909 0.25637600   1.008000   ; qtot 0.411671
 1910         c3     65    bbb     C9   1910 -0.72423400  12.010000   ; qtot -0.312563
 1911         h1     65    bbb    H17   1911 0.25637600   1.008000   ; qtot -0.056187
 1912         h1     65    bbb    H18   1912 0.25637600   1.008000   ; qtot 0.200189
 1913         os     65    bbb     O1   1913 -0.20025300  16.000000   ; qtot -0.000064
; residue   66 bbb rtp bbb q -0.0
 1914         n3     66    bbb     N1   1914 -0.59685800  14.010000   ; qtot -0.596922
 1915         c3     66    bbb     C1   1915 0.10137000  12.010000   ; qtot -0.495552
 1916         h1     66    bbb     H1   1916 0.04411300   1.008000   ; qtot -0.451439
 1917         h1     66    bbb     H2   1917 0.04411300   1.008000   ; qtot -0.407326
 1918         c3     66    bbb     C2   1918 0.10137000  12.010000   ; qtot -0.305956
 1919         h1     66    bbb     H3   1919 0.04411300   1.008000   ; qtot -0.261843
 1920         h1     66    bbb     H4   1920 0.04411300   1.008000   ; qtot -0.217730
 1921         c3     66    bbb     C3   1921 -0.00195300  12.010000   ; qtot -0.219683
 1922         h1     66    bbb     H5   1922 0.05064400   1.008000   ; qtot -0.169039
 1923         h1     66    bbb     H6   1923 0.05064400   1.008000   ; qtot -0.118395
 1924         c3     66    bbb     C4   1924 -0.01612100  12.010000   ; qtot -0.134516
 1925         hc     66    bbb     H7   1925 0.04936100   1.008000   ; qtot -0.085155
 1926         hc     66    bbb     H8   1926 0.04936100   1.008000   ; qtot -0.035794
 1927         c3     66    bbb     C5   1927 0.11363000  12.010000   ; qtot 0.077836
 1928         hc     66    bbb     H9   1928 0.06265900   1.008000   ; qtot 0.140495
 1929         hc     66    bbb    H10   1929 0.06265900   1.008000   ; qtot 0.203154
 1930         c3     66    bbb     C6   1930 0.11363000  12.010000   ; qtot 0.316784
 1931         hc     66    bbb    H11   1931 0.06265900   1.008000   ; qtot 0.379443
 1932         hc     66    bbb    H12   1932 0.06265900   1.008000   ; qtot 0.442102
 1933         c3     66    bbb     C7   1933 0.05858200  12.010000   ; qtot 0.500684
 1934         h1     66    bbb    H13   1934 0.06123400   1.008000   ; qtot 0.561918
 1935         h1     66    bbb    H14   1935 0.06123400   1.008000   ; qtot 0.623152
 1936         c3     66    bbb     C8   1936 -0.72423400  12.010000   ; qtot -0.101082
 1937         h1     66    bbb    H15   1937 0.25637600   1.008000   ; qtot 0.155294
 1938         h1     66    bbb    H16   1938 0.25637600   1.008000   ; qtot 0.411670
 1939         c3     66    bbb     C9   1939 -0.72423400  12.010000   ; qtot -0.312564
 1940         h1     66    bbb    H17   1940 0.25637600   1.008000   ; qtot -0.056188
 1941         h1     66    bbb    H18   1941 0.25637600   1.008000   ; qtot 0.200188
 1942         os     66    bbb     O1   1942 -0.20025300  16.000000   ; qtot -0.000065
; residue   67 bbb rtp bbb q -0.0
 1943         n3     67    bbb     N1   1943 -0.59685800  14.010000   ; qtot -0.596923
 1944         c3     67    bbb     C1   1944 0.10137000  12.010000   ; qtot -0.495553
 1945         h1     67    bbb     H1   1945 0.04411300   1.008000   ; qtot -0.451440
 1946         h1     67    bbb     H2   1946 0.04411300   1.008000   ; qtot -0.407327
 1947         c3     67    bbb     C2   1947 0.10137000  12.010000   ; qtot -0.305957
 1948         h1     67    bbb     H3   1948 0.04411300   1.008000   ; qtot -0.261844
 1949         h1     67    bbb     H4   1949 0.04411300   1.008000   ; qtot -0.217731
 1950         c3     67    bbb     C3   1950 -0.00195300  12.010000   ; qtot -0.219684
 1951         h1     67    bbb     H5   1951 0.05064400   1.008000   ; qtot -0.169040
 1952         h1     67    bbb     H6   1952 0.05064400   1.008000   ; qtot -0.118396
 1953         c3     67    bbb     C4   1953 -0.01612100  12.010000   ; qtot -0.134517
 1954         hc     67    bbb     H7   1954 0.04936100   1.008000   ; qtot -0.085156
 1955         hc     67    bbb     H8   1955 0.04936100   1.008000   ; qtot -0.035795
 1956         c3     67    bbb     C5   1956 0.11363000  12.010000   ; qtot 0.077835
 1957         hc     67    bbb     H9   1957 0.06265900   1.008000   ; qtot 0.140494
 1958         hc     67    bbb    H10   1958 0.06265900   1.008000   ; qtot 0.203153
 1959         c3     67    bbb     C6   1959 0.11363000  12.010000   ; qtot 0.316783
 1960         hc     67    bbb    H11   1960 0.06265900   1.008000   ; qtot 0.379442
 1961         hc     67    bbb    H12   1961 0.06265900   1.008000   ; qtot 0.442101
 1962         c3     67    bbb     C7   1962 0.05858200  12.010000   ; qtot 0.500683
 1963         h1     67    bbb    H13   1963 0.06123400   1.008000   ; qtot 0.561917
 1964         h1     67    bbb    H14   1964 0.06123400   1.008000   ; qtot 0.623151
 1965         c3     67    bbb     C8   1965 -0.72423400  12.010000   ; qtot -0.101083
 1966         h1     67    bbb    H15   1966 0.25637600   1.008000   ; qtot 0.155293
 1967         h1     67    bbb    H16   1967 0.25637600   1.008000   ; qtot 0.411669
 1968         c3     67    bbb     C9   1968 -0.72423400  12.010000   ; qtot -0.312565
 1969         h1     67    bbb    H17   1969 0.25637600   1.008000   ; qtot -0.056189
 1970         h1     67    bbb    H18   1970 0.25637600   1.008000   ; qtot 0.200187
 1971         os     67    bbb     O1   1971 -0.20025300  16.000000   ; qtot -0.000066
; residue   68 bbb rtp bbb q -0.0
 1972         n3     68    bbb     N1   1972 -0.59685800  14.010000   ; qtot -0.596924
 1973         c3     68    bbb     C1   1973 0.10137000  12.010000   ; qtot -0.495554
 1974         h1     68    bbb     H1   1974 0.04411300   1.008000   ; qtot -0.451441
 1975         h1     68    bbb     H2   1975 0.04411300   1.008000   ; qtot -0.407328
 1976         c3     68    bbb     C2   1976 0.10137000  12.010000   ; qtot -0.305958
 1977         h1     68    bbb     H3   1977 0.04411300   1.008000   ; qtot -0.261845
 1978         h1     68    bbb     H4   1978 0.04411300   1.008000   ; qtot -0.217732
 1979         c3     68    bbb     C3   1979 -0.00195300  12.010000   ; qtot -0.219685
 1980         h1     68    bbb     H5   1980 0.05064400   1.008000   ; qtot -0.169041
 1981         h1     68    bbb     H6   1981 0.05064400   1.008000   ; qtot -0.118397
 1982         c3     68    bbb     C4   1982 -0.01612100  12.010000   ; qtot -0.134518
 1983         hc     68    bbb     H7   1983 0.04936100   1.008000   ; qtot -0.085157
 1984         hc     68    bbb     H8   1984 0.04936100   1.008000   ; qtot -0.035796
 1985         c3     68    bbb     C5   1985 0.11363000  12.010000   ; qtot 0.077834
 1986         hc     68    bbb     H9   1986 0.06265900   1.008000   ; qtot 0.140493
 1987         hc     68    bbb    H10   1987 0.06265900   1.008000   ; qtot 0.203152
 1988         c3     68    bbb     C6   1988 0.11363000  12.010000   ; qtot 0.316782
 1989         hc     68    bbb    H11   1989 0.06265900   1.008000   ; qtot 0.379441
 1990         hc     68    bbb    H12   1990 0.06265900   1.008000   ; qtot 0.442100
 1991         c3     68    bbb     C7   1991 0.05858200  12.010000   ; qtot 0.500682
 1992         h1     68    bbb    H13   1992 0.06123400   1.008000   ; qtot 0.561916
 1993         h1     68    bbb    H14   1993 0.06123400   1.008000   ; qtot 0.623150
 1994         c3     68    bbb     C8   1994 -0.72423400  12.010000   ; qtot -0.101084
 1995         h1     68    bbb    H15   1995 0.25637600   1.008000   ; qtot 0.155292
 1996         h1     68    bbb    H16   1996 0.25637600   1.008000   ; qtot 0.411668
 1997         c3     68    bbb     C9   1997 -0.72423400  12.010000   ; qtot -0.312566
 1998         h1     68    bbb    H17   1998 0.25637600   1.008000   ; qtot -0.056190
 1999         h1     68    bbb    H18   1999 0.25637600   1.008000   ; qtot 0.200186
 2000         os     68    bbb     O1   2000 -0.20025300  16.000000   ; qtot -0.000067
; residue   69 bbb rtp bbb q -0.0
 2001         n3     69    bbb     N1   2001 -0.59685800  14.010000   ; qtot -0.596925
 2002         c3     69    bbb     C1   2002 0.10137000  12.010000   ; qtot -0.495555
 2003         h1     69    bbb     H1   2003 0.04411300   1.008000   ; qtot -0.451442
 2004         h1     69    bbb     H2   2004 0.04411300   1.008000   ; qtot -0.407329
 2005         c3     69    bbb     C2   2005 0.10137000  12.010000   ; qtot -0.305959
 2006         h1     69    bbb     H3   2006 0.04411300   1.008000   ; qtot -0.261846
 2007         h1     69    bbb     H4   2007 0.04411300   1.008000   ; qtot -0.217733
 2008         c3     69    bbb     C3   2008 -0.00195300  12.010000   ; qtot -0.219686
 2009         h1     69    bbb     H5   2009 0.05064400   1.008000   ; qtot -0.169042
 2010         h1     69    bbb     H6   2010 0.05064400   1.008000   ; qtot -0.118398
 2011         c3     69    bbb     C4   2011 -0.01612100  12.010000   ; qtot -0.134519
 2012         hc     69    bbb     H7   2012 0.04936100   1.008000   ; qtot -0.085158
 2013         hc     69    bbb     H8   2013 0.04936100   1.008000   ; qtot -0.035797
 2014         c3     69    bbb     C5   2014 0.11363000  12.010000   ; qtot 0.077833
 2015         hc     69    bbb     H9   2015 0.06265900   1.008000   ; qtot 0.140492
 2016         hc     69    bbb    H10   2016 0.06265900   1.008000   ; qtot 0.203151
 2017         c3     69    bbb     C6   2017 0.11363000  12.010000   ; qtot 0.316781
 2018         hc     69    bbb    H11   2018 0.06265900   1.008000   ; qtot 0.379440
 2019         hc     69    bbb    H12   2019 0.06265900   1.008000   ; qtot 0.442099
 2020         c3     69    bbb     C7   2020 0.05858200  12.010000   ; qtot 0.500681
 2021         h1     69    bbb    H13   2021 0.06123400   1.008000   ; qtot 0.561915
 2022         h1     69    bbb    H14   2022 0.06123400   1.008000   ; qtot 0.623149
 2023         c3     69    bbb     C8   2023 -0.72423400  12.010000   ; qtot -0.101085
 2024         h1     69    bbb    H15   2024 0.25637600   1.008000   ; qtot 0.155291
 2025         h1     69    bbb    H16   2025 0.25637600   1.008000   ; qtot 0.411667
 2026         c3     69    bbb     C9   2026 -0.72423400  12.010000   ; qtot -0.312567
 2027         h1     69    bbb    H17   2027 0.25637600   1.008000   ; qtot -0.056191
 2028         h1     69    bbb    H18   2028 0.25637600   1.008000   ; qtot 0.200185
 2029         os     69    bbb     O1   2029 -0.20025300  16.000000   ; qtot -0.000068
; residue   70 bbb rtp bbb q -0.0
 2030         n3     70    bbb     N1   2030 -0.59685800  14.010000   ; qtot -0.596926
 2031         c3     70    bbb     C1   2031 0.10137000  12.010000   ; qtot -0.495556
 2032         h1     70    bbb     H1   2032 0.04411300   1.008000   ; qtot -0.451443
 2033         h1     70    bbb     H2   2033 0.04411300   1.008000   ; qtot -0.407330
 2034         c3     70    bbb     C2   2034 0.10137000  12.010000   ; qtot -0.305960
 2035         h1     70    bbb     H3   2035 0.04411300   1.008000   ; qtot -0.261847
 2036         h1     70    bbb     H4   2036 0.04411300   1.008000   ; qtot -0.217734
 2037         c3     70    bbb     C3   2037 -0.00195300  12.010000   ; qtot -0.219687
 2038         h1     70    bbb     H5   2038 0.05064400   1.008000   ; qtot -0.169043
 2039         h1     70    bbb     H6   2039 0.05064400   1.008000   ; qtot -0.118399
 2040         c3     70    bbb     C4   2040 -0.01612100  12.010000   ; qtot -0.134520
 2041         hc     70    bbb     H7   2041 0.04936100   1.008000   ; qtot -0.085159
 2042         hc     70    bbb     H8   2042 0.04936100   1.008000   ; qtot -0.035798
 2043         c3     70    bbb     C5   2043 0.11363000  12.010000   ; qtot 0.077832
 2044         hc     70    bbb     H9   2044 0.06265900   1.008000   ; qtot 0.140491
 2045         hc     70    bbb    H10   2045 0.06265900   1.008000   ; qtot 0.203150
 2046         c3     70    bbb     C6   2046 0.11363000  12.010000   ; qtot 0.316780
 2047         hc     70    bbb    H11   2047 0.06265900   1.008000   ; qtot 0.379439
 2048         hc     70    bbb    H12   2048 0.06265900   1.008000   ; qtot 0.442098
 2049         c3     70    bbb     C7   2049 0.05858200  12.010000   ; qtot 0.500680
 2050         h1     70    bbb    H13   2050 0.06123400   1.008000   ; qtot 0.561914
 2051         h1     70    bbb    H14   2051 0.06123400   1.008000   ; qtot 0.623148
 2052         c3     70    bbb     C8   2052 -0.72423400  12.010000   ; qtot -0.101086
 2053         h1     70    bbb    H15   2053 0.25637600   1.008000   ; qtot 0.155290
 2054         h1     70    bbb    H16   2054 0.25637600   1.008000   ; qtot 0.411666
 2055         c3     70    bbb     C9   2055 -0.72423400  12.010000   ; qtot -0.312568
 2056         h1     70    bbb    H17   2056 0.25637600   1.008000   ; qtot -0.056192
 2057         h1     70    bbb    H18   2057 0.25637600   1.008000   ; qtot 0.200184
 2058         os     70    bbb     O1   2058 -0.20025300  16.000000   ; qtot -0.000069
; residue   71 bbb rtp bbb q -0.0
 2059         n3     71    bbb     N1   2059 -0.59685800  14.010000   ; qtot -0.596927
 2060         c3     71    bbb     C1   2060 0.10137000  12.010000   ; qtot -0.495557
 2061         h1     71    bbb     H1   2061 0.04411300   1.008000   ; qtot -0.451444
 2062         h1     71    bbb     H2   2062 0.04411300   1.008000   ; qtot -0.407331
 2063         c3     71    bbb     C2   2063 0.10137000  12.010000   ; qtot -0.305961
 2064         h1     71    bbb     H3   2064 0.04411300   1.008000   ; qtot -0.261848
 2065         h1     71    bbb     H4   2065 0.04411300   1.008000   ; qtot -0.217735
 2066         c3     71    bbb     C3   2066 -0.00195300  12.010000   ; qtot -0.219688
 2067         h1     71    bbb     H5   2067 0.05064400   1.008000   ; qtot -0.169044
 2068         h1     71    bbb     H6   2068 0.05064400   1.008000   ; qtot -0.118400
 2069         c3     71    bbb     C4   2069 -0.01612100  12.010000   ; qtot -0.134521
 2070         hc     71    bbb     H7   2070 0.04936100   1.008000   ; qtot -0.085160
 2071         hc     71    bbb     H8   2071 0.04936100   1.008000   ; qtot -0.035799
 2072         c3     71    bbb     C5   2072 0.11363000  12.010000   ; qtot 0.077831
 2073         hc     71    bbb     H9   2073 0.06265900   1.008000   ; qtot 0.140490
 2074         hc     71    bbb    H10   2074 0.06265900   1.008000   ; qtot 0.203149
 2075         c3     71    bbb     C6   2075 0.11363000  12.010000   ; qtot 0.316779
 2076         hc     71    bbb    H11   2076 0.06265900   1.008000   ; qtot 0.379438
 2077         hc     71    bbb    H12   2077 0.06265900   1.008000   ; qtot 0.442097
 2078         c3     71    bbb     C7   2078 0.05858200  12.010000   ; qtot 0.500679
 2079         h1     71    bbb    H13   2079 0.06123400   1.008000   ; qtot 0.561913
 2080         h1     71    bbb    H14   2080 0.06123400   1.008000   ; qtot 0.623147
 2081         c3     71    bbb     C8   2081 -0.72423400  12.010000   ; qtot -0.101087
 2082         h1     71    bbb    H15   2082 0.25637600   1.008000   ; qtot 0.155289
 2083         h1     71    bbb    H16   2083 0.25637600   1.008000   ; qtot 0.411665
 2084         c3     71    bbb     C9   2084 -0.72423400  12.010000   ; qtot -0.312569
 2085         h1     71    bbb    H17   2085 0.25637600   1.008000   ; qtot -0.056193
 2086         h1     71    bbb    H18   2086 0.25637600   1.008000   ; qtot 0.200183
 2087         os     71    bbb     O1   2087 -0.20025300  16.000000   ; qtot -0.000070
; residue   72 bbb rtp bbb q -0.0
 2088         n3     72    bbb     N1   2088 -0.59685800  14.010000   ; qtot -0.596928
 2089         c3     72    bbb     C1   2089 0.10137000  12.010000   ; qtot -0.495558
 2090         h1     72    bbb     H1   2090 0.04411300   1.008000   ; qtot -0.451445
 2091         h1     72    bbb     H2   2091 0.04411300   1.008000   ; qtot -0.407332
 2092         c3     72    bbb     C2   2092 0.10137000  12.010000   ; qtot -0.305962
 2093         h1     72    bbb     H3   2093 0.04411300   1.008000   ; qtot -0.261849
 2094         h1     72    bbb     H4   2094 0.04411300   1.008000   ; qtot -0.217736
 2095         c3     72    bbb     C3   2095 -0.00195300  12.010000   ; qtot -0.219689
 2096         h1     72    bbb     H5   2096 0.05064400   1.008000   ; qtot -0.169045
 2097         h1     72    bbb     H6   2097 0.05064400   1.008000   ; qtot -0.118401
 2098         c3     72    bbb     C4   2098 -0.01612100  12.010000   ; qtot -0.134522
 2099         hc     72    bbb     H7   2099 0.04936100   1.008000   ; qtot -0.085161
 2100         hc     72    bbb     H8   2100 0.04936100   1.008000   ; qtot -0.035800
 2101         c3     72    bbb     C5   2101 0.11363000  12.010000   ; qtot 0.077830
 2102         hc     72    bbb     H9   2102 0.06265900   1.008000   ; qtot 0.140489
 2103         hc     72    bbb    H10   2103 0.06265900   1.008000   ; qtot 0.203148
 2104         c3     72    bbb     C6   2104 0.11363000  12.010000   ; qtot 0.316778
 2105         hc     72    bbb    H11   2105 0.06265900   1.008000   ; qtot 0.379437
 2106         hc     72    bbb    H12   2106 0.06265900   1.008000   ; qtot 0.442096
 2107         c3     72    bbb     C7   2107 0.05858200  12.010000   ; qtot 0.500678
 2108         h1     72    bbb    H13   2108 0.06123400   1.008000   ; qtot 0.561912
 2109         h1     72    bbb    H14   2109 0.06123400   1.008000   ; qtot 0.623146
 2110         c3     72    bbb     C8   2110 -0.72423400  12.010000   ; qtot -0.101088
 2111         h1     72    bbb    H15   2111 0.25637600   1.008000   ; qtot 0.155288
 2112         h1     72    bbb    H16   2112 0.25637600   1.008000   ; qtot 0.411664
 2113         c3     72    bbb     C9   2113 -0.72423400  12.010000   ; qtot -0.312570
 2114         h1     72    bbb    H17   2114 0.25637600   1.008000   ; qtot -0.056194
 2115         h1     72    bbb    H18   2115 0.25637600   1.008000   ; qtot 0.200182
 2116         os     72    bbb     O1   2116 -0.20025300  16.000000   ; qtot -0.000071
; residue   73 bbb rtp bbb q -0.0
 2117         n3     73    bbb     N1   2117 -0.59685800  14.010000   ; qtot -0.596929
 2118         c3     73    bbb     C1   2118 0.10137000  12.010000   ; qtot -0.495559
 2119         h1     73    bbb     H1   2119 0.04411300   1.008000   ; qtot -0.451446
 2120         h1     73    bbb     H2   2120 0.04411300   1.008000   ; qtot -0.407333
 2121         c3     73    bbb     C2   2121 0.10137000  12.010000   ; qtot -0.305963
 2122         h1     73    bbb     H3   2122 0.04411300   1.008000   ; qtot -0.261850
 2123         h1     73    bbb     H4   2123 0.04411300   1.008000   ; qtot -0.217737
 2124         c3     73    bbb     C3   2124 -0.00195300  12.010000   ; qtot -0.219690
 2125         h1     73    bbb     H5   2125 0.05064400   1.008000   ; qtot -0.169046
 2126         h1     73    bbb     H6   2126 0.05064400   1.008000   ; qtot -0.118402
 2127         c3     73    bbb     C4   2127 -0.01612100  12.010000   ; qtot -0.134523
 2128         hc     73    bbb     H7   2128 0.04936100   1.008000   ; qtot -0.085162
 2129         hc     73    bbb     H8   2129 0.04936100   1.008000   ; qtot -0.035801
 2130         c3     73    bbb     C5   2130 0.11363000  12.010000   ; qtot 0.077829
 2131         hc     73    bbb     H9   2131 0.06265900   1.008000   ; qtot 0.140488
 2132         hc     73    bbb    H10   2132 0.06265900   1.008000   ; qtot 0.203147
 2133         c3     73    bbb     C6   2133 0.11363000  12.010000   ; qtot 0.316777
 2134         hc     73    bbb    H11   2134 0.06265900   1.008000   ; qtot 0.379436
 2135         hc     73    bbb    H12   2135 0.06265900   1.008000   ; qtot 0.442095
 2136         c3     73    bbb     C7   2136 0.05858200  12.010000   ; qtot 0.500677
 2137         h1     73    bbb    H13   2137 0.06123400   1.008000   ; qtot 0.561911
 2138         h1     73    bbb    H14   2138 0.06123400   1.008000   ; qtot 0.623145
 2139         c3     73    bbb     C8   2139 -0.72423400  12.010000   ; qtot -0.101089
 2140         h1     73    bbb    H15   2140 0.25637600   1.008000   ; qtot 0.155287
 2141         h1     73    bbb    H16   2141 0.25637600   1.008000   ; qtot 0.411663
 2142         c3     73    bbb     C9   2142 -0.72423400  12.010000   ; qtot -0.312571
 2143         h1     73    bbb    H17   2143 0.25637600   1.008000   ; qtot -0.056195
 2144         h1     73    bbb    H18   2144 0.25637600   1.008000   ; qtot 0.200181
 2145         os     73    bbb     O1   2145 -0.20025300  16.000000   ; qtot -0.000072
; residue   74 bbb rtp bbb q -0.0
 2146         n3     74    bbb     N1   2146 -0.59685800  14.010000   ; qtot -0.596930
 2147         c3     74    bbb     C1   2147 0.10137000  12.010000   ; qtot -0.495560
 2148         h1     74    bbb     H1   2148 0.04411300   1.008000   ; qtot -0.451447
 2149         h1     74    bbb     H2   2149 0.04411300   1.008000   ; qtot -0.407334
 2150         c3     74    bbb     C2   2150 0.10137000  12.010000   ; qtot -0.305964
 2151         h1     74    bbb     H3   2151 0.04411300   1.008000   ; qtot -0.261851
 2152         h1     74    bbb     H4   2152 0.04411300   1.008000   ; qtot -0.217738
 2153         c3     74    bbb     C3   2153 -0.00195300  12.010000   ; qtot -0.219691
 2154         h1     74    bbb     H5   2154 0.05064400   1.008000   ; qtot -0.169047
 2155         h1     74    bbb     H6   2155 0.05064400   1.008000   ; qtot -0.118403
 2156         c3     74    bbb     C4   2156 -0.01612100  12.010000   ; qtot -0.134524
 2157         hc     74    bbb     H7   2157 0.04936100   1.008000   ; qtot -0.085163
 2158         hc     74    bbb     H8   2158 0.04936100   1.008000   ; qtot -0.035802
 2159         c3     74    bbb     C5   2159 0.11363000  12.010000   ; qtot 0.077828
 2160         hc     74    bbb     H9   2160 0.06265900   1.008000   ; qtot 0.140487
 2161         hc     74    bbb    H10   2161 0.06265900   1.008000   ; qtot 0.203146
 2162         c3     74    bbb     C6   2162 0.11363000  12.010000   ; qtot 0.316776
 2163         hc     74    bbb    H11   2163 0.06265900   1.008000   ; qtot 0.379435
 2164         hc     74    bbb    H12   2164 0.06265900   1.008000   ; qtot 0.442094
 2165         c3     74    bbb     C7   2165 0.05858200  12.010000   ; qtot 0.500676
 2166         h1     74    bbb    H13   2166 0.06123400   1.008000   ; qtot 0.561910
 2167         h1     74    bbb    H14   2167 0.06123400   1.008000   ; qtot 0.623144
 2168         c3     74    bbb     C8   2168 -0.72423400  12.010000   ; qtot -0.101090
 2169         h1     74    bbb    H15   2169 0.25637600   1.008000   ; qtot 0.155286
 2170         h1     74    bbb    H16   2170 0.25637600   1.008000   ; qtot 0.411662
 2171         c3     74    bbb     C9   2171 -0.72423400  12.010000   ; qtot -0.312572
 2172         h1     74    bbb    H17   2172 0.25637600   1.008000   ; qtot -0.056196
 2173         h1     74    bbb    H18   2173 0.25637600   1.008000   ; qtot 0.200180
 2174         os     74    bbb     O1   2174 -0.20025300  16.000000   ; qtot -0.000073
; residue   75 bbb rtp bbb q -0.0
 2175         n3     75    bbb     N1   2175 -0.59685800  14.010000   ; qtot -0.596931
 2176         c3     75    bbb     C1   2176 0.10137000  12.010000   ; qtot -0.495561
 2177         h1     75    bbb     H1   2177 0.04411300   1.008000   ; qtot -0.451448
 2178         h1     75    bbb     H2   2178 0.04411300   1.008000   ; qtot -0.407335
 2179         c3     75    bbb     C2   2179 0.10137000  12.010000   ; qtot -0.305965
 2180         h1     75    bbb     H3   2180 0.04411300   1.008000   ; qtot -0.261852
 2181         h1     75    bbb     H4   2181 0.04411300   1.008000   ; qtot -0.217739
 2182         c3     75    bbb     C3   2182 -0.00195300  12.010000   ; qtot -0.219692
 2183         h1     75    bbb     H5   2183 0.05064400   1.008000   ; qtot -0.169048
 2184         h1     75    bbb     H6   2184 0.05064400   1.008000   ; qtot -0.118404
 2185         c3     75    bbb     C4   2185 -0.01612100  12.010000   ; qtot -0.134525
 2186         hc     75    bbb     H7   2186 0.04936100   1.008000   ; qtot -0.085164
 2187         hc     75    bbb     H8   2187 0.04936100   1.008000   ; qtot -0.035803
 2188         c3     75    bbb     C5   2188 0.11363000  12.010000   ; qtot 0.077827
 2189         hc     75    bbb     H9   2189 0.06265900   1.008000   ; qtot 0.140486
 2190         hc     75    bbb    H10   2190 0.06265900   1.008000   ; qtot 0.203145
 2191         c3     75    bbb     C6   2191 0.11363000  12.010000   ; qtot 0.316775
 2192         hc     75    bbb    H11   2192 0.06265900   1.008000   ; qtot 0.379434
 2193         hc     75    bbb    H12   2193 0.06265900   1.008000   ; qtot 0.442093
 2194         c3     75    bbb     C7   2194 0.05858200  12.010000   ; qtot 0.500675
 2195         h1     75    bbb    H13   2195 0.06123400   1.008000   ; qtot 0.561909
 2196         h1     75    bbb    H14   2196 0.06123400   1.008000   ; qtot 0.623143
 2197         c3     75    bbb     C8   2197 -0.72423400  12.010000   ; qtot -0.101091
 2198         h1     75    bbb    H15   2198 0.25637600   1.008000   ; qtot 0.155285
 2199         h1     75    bbb    H16   2199 0.25637600   1.008000   ; qtot 0.411661
 2200         c3     75    bbb     C9   2200 -0.72423400  12.010000   ; qtot -0.312573
 2201         h1     75    bbb    H17   2201 0.25637600   1.008000   ; qtot -0.056197
 2202         h1     75    bbb    H18   2202 0.25637600   1.008000   ; qtot 0.200179
 2203         os     75    bbb     O1   2203 -0.20025300  16.000000   ; qtot -0.000074
; residue   76 bbb rtp bbb q -0.0
 2204         n3     76    bbb     N1   2204 -0.59685800  14.010000   ; qtot -0.596932
 2205         c3     76    bbb     C1   2205 0.10137000  12.010000   ; qtot -0.495562
 2206         h1     76    bbb     H1   2206 0.04411300   1.008000   ; qtot -0.451449
 2207         h1     76    bbb     H2   2207 0.04411300   1.008000   ; qtot -0.407336
 2208         c3     76    bbb     C2   2208 0.10137000  12.010000   ; qtot -0.305966
 2209         h1     76    bbb     H3   2209 0.04411300   1.008000   ; qtot -0.261853
 2210         h1     76    bbb     H4   2210 0.04411300   1.008000   ; qtot -0.217740
 2211         c3     76    bbb     C3   2211 -0.00195300  12.010000   ; qtot -0.219693
 2212         h1     76    bbb     H5   2212 0.05064400   1.008000   ; qtot -0.169049
 2213         h1     76    bbb     H6   2213 0.05064400   1.008000   ; qtot -0.118405
 2214         c3     76    bbb     C4   2214 -0.01612100  12.010000   ; qtot -0.134526
 2215         hc     76    bbb     H7   2215 0.04936100   1.008000   ; qtot -0.085165
 2216         hc     76    bbb     H8   2216 0.04936100   1.008000   ; qtot -0.035804
 2217         c3     76    bbb     C5   2217 0.11363000  12.010000   ; qtot 0.077826
 2218         hc     76    bbb     H9   2218 0.06265900   1.008000   ; qtot 0.140485
 2219         hc     76    bbb    H10   2219 0.06265900   1.008000   ; qtot 0.203144
 2220         c3     76    bbb     C6   2220 0.11363000  12.010000   ; qtot 0.316774
 2221         hc     76    bbb    H11   2221 0.06265900   1.008000   ; qtot 0.379433
 2222         hc     76    bbb    H12   2222 0.06265900   1.008000   ; qtot 0.442092
 2223         c3     76    bbb     C7   2223 0.05858200  12.010000   ; qtot 0.500674
 2224         h1     76    bbb    H13   2224 0.06123400   1.008000   ; qtot 0.561908
 2225         h1     76    bbb    H14   2225 0.06123400   1.008000   ; qtot 0.623142
 2226         c3     76    bbb     C8   2226 -0.72423400  12.010000   ; qtot -0.101092
 2227         h1     76    bbb    H15   2227 0.25637600   1.008000   ; qtot 0.155284
 2228         h1     76    bbb    H16   2228 0.25637600   1.008000   ; qtot 0.411660
 2229         c3     76    bbb     C9   2229 -0.72423400  12.010000   ; qtot -0.312574
 2230         h1     76    bbb    H17   2230 0.25637600   1.008000   ; qtot -0.056198
 2231         h1     76    bbb    H18   2231 0.25637600   1.008000   ; qtot 0.200178
 2232         os     76    bbb     O1   2232 -0.20025300  16.000000   ; qtot -0.000075
; residue   77 bbb rtp bbb q -0.0
 2233         n3     77    bbb     N1   2233 -0.59685800  14.010000   ; qtot -0.596933
 2234         c3     77    bbb     C1   2234 0.10137000  12.010000   ; qtot -0.495563
 2235         h1     77    bbb     H1   2235 0.04411300   1.008000   ; qtot -0.451450
 2236         h1     77    bbb     H2   2236 0.04411300   1.008000   ; qtot -0.407337
 2237         c3     77    bbb     C2   2237 0.10137000  12.010000   ; qtot -0.305967
 2238         h1     77    bbb     H3   2238 0.04411300   1.008000   ; qtot -0.261854
 2239         h1     77    bbb     H4   2239 0.04411300   1.008000   ; qtot -0.217741
 2240         c3     77    bbb     C3   2240 -0.00195300  12.010000   ; qtot -0.219694
 2241         h1     77    bbb     H5   2241 0.05064400   1.008000   ; qtot -0.169050
 2242         h1     77    bbb     H6   2242 0.05064400   1.008000   ; qtot -0.118406
 2243         c3     77    bbb     C4   2243 -0.01612100  12.010000   ; qtot -0.134527
 2244         hc     77    bbb     H7   2244 0.04936100   1.008000   ; qtot -0.085166
 2245         hc     77    bbb     H8   2245 0.04936100   1.008000   ; qtot -0.035805
 2246         c3     77    bbb     C5   2246 0.11363000  12.010000   ; qtot 0.077825
 2247         hc     77    bbb     H9   2247 0.06265900   1.008000   ; qtot 0.140484
 2248         hc     77    bbb    H10   2248 0.06265900   1.008000   ; qtot 0.203143
 2249         c3     77    bbb     C6   2249 0.11363000  12.010000   ; qtot 0.316773
 2250         hc     77    bbb    H11   2250 0.06265900   1.008000   ; qtot 0.379432
 2251         hc     77    bbb    H12   2251 0.06265900   1.008000   ; qtot 0.442091
 2252         c3     77    bbb     C7   2252 0.05858200  12.010000   ; qtot 0.500673
 2253         h1     77    bbb    H13   2253 0.06123400   1.008000   ; qtot 0.561907
 2254         h1     77    bbb    H14   2254 0.06123400   1.008000   ; qtot 0.623141
 2255         c3     77    bbb     C8   2255 -0.72423400  12.010000   ; qtot -0.101093
 2256         h1     77    bbb    H15   2256 0.25637600   1.008000   ; qtot 0.155283
 2257         h1     77    bbb    H16   2257 0.25637600   1.008000   ; qtot 0.411659
 2258         c3     77    bbb     C9   2258 -0.72423400  12.010000   ; qtot -0.312575
 2259         h1     77    bbb    H17   2259 0.25637600   1.008000   ; qtot -0.056199
 2260         h1     77    bbb    H18   2260 0.25637600   1.008000   ; qtot 0.200177
 2261         os     77    bbb     O1   2261 -0.20025300  16.000000   ; qtot -0.000076
; residue   78 bbb rtp bbb q -0.0
 2262         n3     78    bbb     N1   2262 -0.59685800  14.010000   ; qtot -0.596934
 2263         c3     78    bbb     C1   2263 0.10137000  12.010000   ; qtot -0.495564
 2264         h1     78    bbb     H1   2264 0.04411300   1.008000   ; qtot -0.451451
 2265         h1     78    bbb     H2   2265 0.04411300   1.008000   ; qtot -0.407338
 2266         c3     78    bbb     C2   2266 0.10137000  12.010000   ; qtot -0.305968
 2267         h1     78    bbb     H3   2267 0.04411300   1.008000   ; qtot -0.261855
 2268         h1     78    bbb     H4   2268 0.04411300   1.008000   ; qtot -0.217742
 2269         c3     78    bbb     C3   2269 -0.00195300  12.010000   ; qtot -0.219695
 2270         h1     78    bbb     H5   2270 0.05064400   1.008000   ; qtot -0.169051
 2271         h1     78    bbb     H6   2271 0.05064400   1.008000   ; qtot -0.118407
 2272         c3     78    bbb     C4   2272 -0.01612100  12.010000   ; qtot -0.134528
 2273         hc     78    bbb     H7   2273 0.04936100   1.008000   ; qtot -0.085167
 2274         hc     78    bbb     H8   2274 0.04936100   1.008000   ; qtot -0.035806
 2275         c3     78    bbb     C5   2275 0.11363000  12.010000   ; qtot 0.077824
 2276         hc     78    bbb     H9   2276 0.06265900   1.008000   ; qtot 0.140483
 2277         hc     78    bbb    H10   2277 0.06265900   1.008000   ; qtot 0.203142
 2278         c3     78    bbb     C6   2278 0.11363000  12.010000   ; qtot 0.316772
 2279         hc     78    bbb    H11   2279 0.06265900   1.008000   ; qtot 0.379431
 2280         hc     78    bbb    H12   2280 0.06265900   1.008000   ; qtot 0.442090
 2281         c3     78    bbb     C7   2281 0.05858200  12.010000   ; qtot 0.500672
 2282         h1     78    bbb    H13   2282 0.06123400   1.008000   ; qtot 0.561906
 2283         h1     78    bbb    H14   2283 0.06123400   1.008000   ; qtot 0.623140
 2284         c3     78    bbb     C8   2284 -0.72423400  12.010000   ; qtot -0.101094
 2285         h1     78    bbb    H15   2285 0.25637600   1.008000   ; qtot 0.155282
 2286         h1     78    bbb    H16   2286 0.25637600   1.008000   ; qtot 0.411658
 2287         c3     78    bbb     C9   2287 -0.72423400  12.010000   ; qtot -0.312576
 2288         h1     78    bbb    H17   2288 0.25637600   1.008000   ; qtot -0.056200
 2289         h1     78    bbb    H18   2289 0.25637600   1.008000   ; qtot 0.200176
 2290         os     78    bbb     O1   2290 -0.20025300  16.000000   ; qtot -0.000077
; residue   79 bbb rtp bbb q -0.0
 2291         n3     79    bbb     N1   2291 -0.59685800  14.010000   ; qtot -0.596935
 2292         c3     79    bbb     C1   2292 0.10137000  12.010000   ; qtot -0.495565
 2293         h1     79    bbb     H1   2293 0.04411300   1.008000   ; qtot -0.451452
 2294         h1     79    bbb     H2   2294 0.04411300   1.008000   ; qtot -0.407339
 2295         c3     79    bbb     C2   2295 0.10137000  12.010000   ; qtot -0.305969
 2296         h1     79    bbb     H3   2296 0.04411300   1.008000   ; qtot -0.261856
 2297         h1     79    bbb     H4   2297 0.04411300   1.008000   ; qtot -0.217743
 2298         c3     79    bbb     C3   2298 -0.00195300  12.010000   ; qtot -0.219696
 2299         h1     79    bbb     H5   2299 0.05064400   1.008000   ; qtot -0.169052
 2300         h1     79    bbb     H6   2300 0.05064400   1.008000   ; qtot -0.118408
 2301         c3     79    bbb     C4   2301 -0.01612100  12.010000   ; qtot -0.134529
 2302         hc     79    bbb     H7   2302 0.04936100   1.008000   ; qtot -0.085168
 2303         hc     79    bbb     H8   2303 0.04936100   1.008000   ; qtot -0.035807
 2304         c3     79    bbb     C5   2304 0.11363000  12.010000   ; qtot 0.077823
 2305         hc     79    bbb     H9   2305 0.06265900   1.008000   ; qtot 0.140482
 2306         hc     79    bbb    H10   2306 0.06265900   1.008000   ; qtot 0.203141
 2307         c3     79    bbb     C6   2307 0.11363000  12.010000   ; qtot 0.316771
 2308         hc     79    bbb    H11   2308 0.06265900   1.008000   ; qtot 0.379430
 2309         hc     79    bbb    H12   2309 0.06265900   1.008000   ; qtot 0.442089
 2310         c3     79    bbb     C7   2310 0.05858200  12.010000   ; qtot 0.500671
 2311         h1     79    bbb    H13   2311 0.06123400   1.008000   ; qtot 0.561905
 2312         h1     79    bbb    H14   2312 0.06123400   1.008000   ; qtot 0.623139
 2313         c3     79    bbb     C8   2313 -0.72423400  12.010000   ; qtot -0.101095
 2314         h1     79    bbb    H15   2314 0.25637600   1.008000   ; qtot 0.155281
 2315         h1     79    bbb    H16   2315 0.25637600   1.008000   ; qtot 0.411657
 2316         c3     79    bbb     C9   2316 -0.72423400  12.010000   ; qtot -0.312577
 2317         h1     79    bbb    H17   2317 0.25637600   1.008000   ; qtot -0.056201
 2318         h1     79    bbb    H18   2318 0.25637600   1.008000   ; qtot 0.200175
 2319         os     79    bbb     O1   2319 -0.20025300  16.000000   ; qtot -0.000078
; residue   80 bbb rtp bbb q -0.0
 2320         n3     80    bbb     N1   2320 -0.59685800  14.010000   ; qtot -0.596936
 2321         c3     80    bbb     C1   2321 0.10137000  12.010000   ; qtot -0.495566
 2322         h1     80    bbb     H1   2322 0.04411300   1.008000   ; qtot -0.451453
 2323         h1     80    bbb     H2   2323 0.04411300   1.008000   ; qtot -0.407340
 2324         c3     80    bbb     C2   2324 0.10137000  12.010000   ; qtot -0.305970
 2325         h1     80    bbb     H3   2325 0.04411300   1.008000   ; qtot -0.261857
 2326         h1     80    bbb     H4   2326 0.04411300   1.008000   ; qtot -0.217744
 2327         c3     80    bbb     C3   2327 -0.00195300  12.010000   ; qtot -0.219697
 2328         h1     80    bbb     H5   2328 0.05064400   1.008000   ; qtot -0.169053
 2329         h1     80    bbb     H6   2329 0.05064400   1.008000   ; qtot -0.118409
 2330         c3     80    bbb     C4   2330 -0.01612100  12.010000   ; qtot -0.134530
 2331         hc     80    bbb     H7   2331 0.04936100   1.008000   ; qtot -0.085169
 2332         hc     80    bbb     H8   2332 0.04936100   1.008000   ; qtot -0.035808
 2333         c3     80    bbb     C5   2333 0.11363000  12.010000   ; qtot 0.077822
 2334         hc     80    bbb     H9   2334 0.06265900   1.008000   ; qtot 0.140481
 2335         hc     80    bbb    H10   2335 0.06265900   1.008000   ; qtot 0.203140
 2336         c3     80    bbb     C6   2336 0.11363000  12.010000   ; qtot 0.316770
 2337         hc     80    bbb    H11   2337 0.06265900   1.008000   ; qtot 0.379429
 2338         hc     80    bbb    H12   2338 0.06265900   1.008000   ; qtot 0.442088
 2339         c3     80    bbb     C7   2339 0.05858200  12.010000   ; qtot 0.500670
 2340         h1     80    bbb    H13   2340 0.06123400   1.008000   ; qtot 0.561904
 2341         h1     80    bbb    H14   2341 0.06123400   1.008000   ; qtot 0.623138
 2342         c3     80    bbb     C8   2342 -0.72423400  12.010000   ; qtot -0.101096
 2343         h1     80    bbb    H15   2343 0.25637600   1.008000   ; qtot 0.155280
 2344         h1     80    bbb    H16   2344 0.25637600   1.008000   ; qtot 0.411656
 2345         c3     80    bbb     C9   2345 -0.72423400  12.010000   ; qtot -0.312578
 2346         h1     80    bbb    H17   2346 0.25637600   1.008000   ; qtot -0.056202
 2347         h1     80    bbb    H18   2347 0.25637600   1.008000   ; qtot 0.200174
 2348         os     80    bbb     O1   2348 -0.20025300  16.000000   ; qtot -0.000079
; residue   81 bbb rtp bbb q -0.0
 2349         n3     81    bbb     N1   2349 -0.59685800  14.010000   ; qtot -0.596937
 2350         c3     81    bbb     C1   2350 0.10137000  12.010000   ; qtot -0.495567
 2351         h1     81    bbb     H1   2351 0.04411300   1.008000   ; qtot -0.451454
 2352         h1     81    bbb     H2   2352 0.04411300   1.008000   ; qtot -0.407341
 2353         c3     81    bbb     C2   2353 0.10137000  12.010000   ; qtot -0.305971
 2354         h1     81    bbb     H3   2354 0.04411300   1.008000   ; qtot -0.261858
 2355         h1     81    bbb     H4   2355 0.04411300   1.008000   ; qtot -0.217745
 2356         c3     81    bbb     C3   2356 -0.00195300  12.010000   ; qtot -0.219698
 2357         h1     81    bbb     H5   2357 0.05064400   1.008000   ; qtot -0.169054
 2358         h1     81    bbb     H6   2358 0.05064400   1.008000   ; qtot -0.118410
 2359         c3     81    bbb     C4   2359 -0.01612100  12.010000   ; qtot -0.134531
 2360         hc     81    bbb     H7   2360 0.04936100   1.008000   ; qtot -0.085170
 2361         hc     81    bbb     H8   2361 0.04936100   1.008000   ; qtot -0.035809
 2362         c3     81    bbb     C5   2362 0.11363000  12.010000   ; qtot 0.077821
 2363         hc     81    bbb     H9   2363 0.06265900   1.008000   ; qtot 0.140480
 2364         hc     81    bbb    H10   2364 0.06265900   1.008000   ; qtot 0.203139
 2365         c3     81    bbb     C6   2365 0.11363000  12.010000   ; qtot 0.316769
 2366         hc     81    bbb    H11   2366 0.06265900   1.008000   ; qtot 0.379428
 2367         hc     81    bbb    H12   2367 0.06265900   1.008000   ; qtot 0.442087
 2368         c3     81    bbb     C7   2368 0.05858200  12.010000   ; qtot 0.500669
 2369         h1     81    bbb    H13   2369 0.06123400   1.008000   ; qtot 0.561903
 2370         h1     81    bbb    H14   2370 0.06123400   1.008000   ; qtot 0.623137
 2371         c3     81    bbb     C8   2371 -0.72423400  12.010000   ; qtot -0.101097
 2372         h1     81    bbb    H15   2372 0.25637600   1.008000   ; qtot 0.155279
 2373         h1     81    bbb    H16   2373 0.25637600   1.008000   ; qtot 0.411655
 2374         c3     81    bbb     C9   2374 -0.72423400  12.010000   ; qtot -0.312579
 2375         h1     81    bbb    H17   2375 0.25637600   1.008000   ; qtot -0.056203
 2376         h1     81    bbb    H18   2376 0.25637600   1.008000   ; qtot 0.200173
 2377         os     81    bbb     O1   2377 -0.20025300  16.000000   ; qtot -0.000080
; residue   82 bbb rtp bbb q -0.0
 2378         n3     82    bbb     N1   2378 -0.59685800  14.010000   ; qtot -0.596938
 2379         c3     82    bbb     C1   2379 0.10137000  12.010000   ; qtot -0.495568
 2380         h1     82    bbb     H1   2380 0.04411300   1.008000   ; qtot -0.451455
 2381         h1     82    bbb     H2   2381 0.04411300   1.008000   ; qtot -0.407342
 2382         c3     82    bbb     C2   2382 0.10137000  12.010000   ; qtot -0.305972
 2383         h1     82    bbb     H3   2383 0.04411300   1.008000   ; qtot -0.261859
 2384         h1     82    bbb     H4   2384 0.04411300   1.008000   ; qtot -0.217746
 2385         c3     82    bbb     C3   2385 -0.00195300  12.010000   ; qtot -0.219699
 2386         h1     82    bbb     H5   2386 0.05064400   1.008000   ; qtot -0.169055
 2387         h1     82    bbb     H6   2387 0.05064400   1.008000   ; qtot -0.118411
 2388         c3     82    bbb     C4   2388 -0.01612100  12.010000   ; qtot -0.134532
 2389         hc     82    bbb     H7   2389 0.04936100   1.008000   ; qtot -0.085171
 2390         hc     82    bbb     H8   2390 0.04936100   1.008000   ; qtot -0.035810
 2391         c3     82    bbb     C5   2391 0.11363000  12.010000   ; qtot 0.077820
 2392         hc     82    bbb     H9   2392 0.06265900   1.008000   ; qtot 0.140479
 2393         hc     82    bbb    H10   2393 0.06265900   1.008000   ; qtot 0.203138
 2394         c3     82    bbb     C6   2394 0.11363000  12.010000   ; qtot 0.316768
 2395         hc     82    bbb    H11   2395 0.06265900   1.008000   ; qtot 0.379427
 2396         hc     82    bbb    H12   2396 0.06265900   1.008000   ; qtot 0.442086
 2397         c3     82    bbb     C7   2397 0.05858200  12.010000   ; qtot 0.500668
 2398         h1     82    bbb    H13   2398 0.06123400   1.008000   ; qtot 0.561902
 2399         h1     82    bbb    H14   2399 0.06123400   1.008000   ; qtot 0.623136
 2400         c3     82    bbb     C8   2400 -0.72423400  12.010000   ; qtot -0.101098
 2401         h1     82    bbb    H15   2401 0.25637600   1.008000   ; qtot 0.155278
 2402         h1     82    bbb    H16   2402 0.25637600   1.008000   ; qtot 0.411654
 2403         c3     82    bbb     C9   2403 -0.72423400  12.010000   ; qtot -0.312580
 2404         h1     82    bbb    H17   2404 0.25637600   1.008000   ; qtot -0.056204
 2405         h1     82    bbb    H18   2405 0.25637600   1.008000   ; qtot 0.200172
 2406         os     82    bbb     O1   2406 -0.20025300  16.000000   ; qtot -0.000081
; residue   83 bbb rtp bbb q -0.0
 2407         n3     83    bbb     N1   2407 -0.59685800  14.010000   ; qtot -0.596939
 2408         c3     83    bbb     C1   2408 0.10137000  12.010000   ; qtot -0.495569
 2409         h1     83    bbb     H1   2409 0.04411300   1.008000   ; qtot -0.451456
 2410         h1     83    bbb     H2   2410 0.04411300   1.008000   ; qtot -0.407343
 2411         c3     83    bbb     C2   2411 0.10137000  12.010000   ; qtot -0.305973
 2412         h1     83    bbb     H3   2412 0.04411300   1.008000   ; qtot -0.261860
 2413         h1     83    bbb     H4   2413 0.04411300   1.008000   ; qtot -0.217747
 2414         c3     83    bbb     C3   2414 -0.00195300  12.010000   ; qtot -0.219700
 2415         h1     83    bbb     H5   2415 0.05064400   1.008000   ; qtot -0.169056
 2416         h1     83    bbb     H6   2416 0.05064400   1.008000   ; qtot -0.118412
 2417         c3     83    bbb     C4   2417 -0.01612100  12.010000   ; qtot -0.134533
 2418         hc     83    bbb     H7   2418 0.04936100   1.008000   ; qtot -0.085172
 2419         hc     83    bbb     H8   2419 0.04936100   1.008000   ; qtot -0.035811
 2420         c3     83    bbb     C5   2420 0.11363000  12.010000   ; qtot 0.077819
 2421         hc     83    bbb     H9   2421 0.06265900   1.008000   ; qtot 0.140478
 2422         hc     83    bbb    H10   2422 0.06265900   1.008000   ; qtot 0.203137
 2423         c3     83    bbb     C6   2423 0.11363000  12.010000   ; qtot 0.316767
 2424         hc     83    bbb    H11   2424 0.06265900   1.008000   ; qtot 0.379426
 2425         hc     83    bbb    H12   2425 0.06265900   1.008000   ; qtot 0.442085
 2426         c3     83    bbb     C7   2426 0.05858200  12.010000   ; qtot 0.500667
 2427         h1     83    bbb    H13   2427 0.06123400   1.008000   ; qtot 0.561901
 2428         h1     83    bbb    H14   2428 0.06123400   1.008000   ; qtot 0.623135
 2429         c3     83    bbb     C8   2429 -0.72423400  12.010000   ; qtot -0.101099
 2430         h1     83    bbb    H15   2430 0.25637600   1.008000   ; qtot 0.155277
 2431         h1     83    bbb    H16   2431 0.25637600   1.008000   ; qtot 0.411653
 2432         c3     83    bbb     C9   2432 -0.72423400  12.010000   ; qtot -0.312581
 2433         h1     83    bbb    H17   2433 0.25637600   1.008000   ; qtot -0.056205
 2434         h1     83    bbb    H18   2434 0.25637600   1.008000   ; qtot 0.200171
 2435         os     83    bbb     O1   2435 -0.20025300  16.000000   ; qtot -0.000082
; residue   84 bbb rtp bbb q -0.0
 2436         n3     84    bbb     N1   2436 -0.59685800  14.010000   ; qtot -0.596940
 2437         c3     84    bbb     C1   2437 0.10137000  12.010000   ; qtot -0.495570
 2438         h1     84    bbb     H1   2438 0.04411300   1.008000   ; qtot -0.451457
 2439         h1     84    bbb     H2   2439 0.04411300   1.008000   ; qtot -0.407344
 2440         c3     84    bbb     C2   2440 0.10137000  12.010000   ; qtot -0.305974
 2441         h1     84    bbb     H3   2441 0.04411300   1.008000   ; qtot -0.261861
 2442         h1     84    bbb     H4   2442 0.04411300   1.008000   ; qtot -0.217748
 2443         c3     84    bbb     C3   2443 -0.00195300  12.010000   ; qtot -0.219701
 2444         h1     84    bbb     H5   2444 0.05064400   1.008000   ; qtot -0.169057
 2445         h1     84    bbb     H6   2445 0.05064400   1.008000   ; qtot -0.118413
 2446         c3     84    bbb     C4   2446 -0.01612100  12.010000   ; qtot -0.134534
 2447         hc     84    bbb     H7   2447 0.04936100   1.008000   ; qtot -0.085173
 2448         hc     84    bbb     H8   2448 0.04936100   1.008000   ; qtot -0.035812
 2449         c3     84    bbb     C5   2449 0.11363000  12.010000   ; qtot 0.077818
 2450         hc     84    bbb     H9   2450 0.06265900   1.008000   ; qtot 0.140477
 2451         hc     84    bbb    H10   2451 0.06265900   1.008000   ; qtot 0.203136
 2452         c3     84    bbb     C6   2452 0.11363000  12.010000   ; qtot 0.316766
 2453         hc     84    bbb    H11   2453 0.06265900   1.008000   ; qtot 0.379425
 2454         hc     84    bbb    H12   2454 0.06265900   1.008000   ; qtot 0.442084
 2455         c3     84    bbb     C7   2455 0.05858200  12.010000   ; qtot 0.500666
 2456         h1     84    bbb    H13   2456 0.06123400   1.008000   ; qtot 0.561900
 2457         h1     84    bbb    H14   2457 0.06123400   1.008000   ; qtot 0.623134
 2458         c3     84    bbb     C8   2458 -0.72423400  12.010000   ; qtot -0.101100
 2459         h1     84    bbb    H15   2459 0.25637600   1.008000   ; qtot 0.155276
 2460         h1     84    bbb    H16   2460 0.25637600   1.008000   ; qtot 0.411652
 2461         c3     84    bbb     C9   2461 -0.72423400  12.010000   ; qtot -0.312582
 2462         h1     84    bbb    H17   2462 0.25637600   1.008000   ; qtot -0.056206
 2463         h1     84    bbb    H18   2463 0.25637600   1.008000   ; qtot 0.200170
 2464         os     84    bbb     O1   2464 -0.20025300  16.000000   ; qtot -0.000083
; residue   85 bbb rtp bbb q -0.0
 2465         n3     85    bbb     N1   2465 -0.59685800  14.010000   ; qtot -0.596941
 2466         c3     85    bbb     C1   2466 0.10137000  12.010000   ; qtot -0.495571
 2467         h1     85    bbb     H1   2467 0.04411300   1.008000   ; qtot -0.451458
 2468         h1     85    bbb     H2   2468 0.04411300   1.008000   ; qtot -0.407345
 2469         c3     85    bbb     C2   2469 0.10137000  12.010000   ; qtot -0.305975
 2470         h1     85    bbb     H3   2470 0.04411300   1.008000   ; qtot -0.261862
 2471         h1     85    bbb     H4   2471 0.04411300   1.008000   ; qtot -0.217749
 2472         c3     85    bbb     C3   2472 -0.00195300  12.010000   ; qtot -0.219702
 2473         h1     85    bbb     H5   2473 0.05064400   1.008000   ; qtot -0.169058
 2474         h1     85    bbb     H6   2474 0.05064400   1.008000   ; qtot -0.118414
 2475         c3     85    bbb     C4   2475 -0.01612100  12.010000   ; qtot -0.134535
 2476         hc     85    bbb     H7   2476 0.04936100   1.008000   ; qtot -0.085174
 2477         hc     85    bbb     H8   2477 0.04936100   1.008000   ; qtot -0.035813
 2478         c3     85    bbb     C5   2478 0.11363000  12.010000   ; qtot 0.077817
 2479         hc     85    bbb     H9   2479 0.06265900   1.008000   ; qtot 0.140476
 2480         hc     85    bbb    H10   2480 0.06265900   1.008000   ; qtot 0.203135
 2481         c3     85    bbb     C6   2481 0.11363000  12.010000   ; qtot 0.316765
 2482         hc     85    bbb    H11   2482 0.06265900   1.008000   ; qtot 0.379424
 2483         hc     85    bbb    H12   2483 0.06265900   1.008000   ; qtot 0.442083
 2484         c3     85    bbb     C7   2484 0.05858200  12.010000   ; qtot 0.500665
 2485         h1     85    bbb    H13   2485 0.06123400   1.008000   ; qtot 0.561899
 2486         h1     85    bbb    H14   2486 0.06123400   1.008000   ; qtot 0.623133
 2487         c3     85    bbb     C8   2487 -0.72423400  12.010000   ; qtot -0.101101
 2488         h1     85    bbb    H15   2488 0.25637600   1.008000   ; qtot 0.155275
 2489         h1     85    bbb    H16   2489 0.25637600   1.008000   ; qtot 0.411651
 2490         c3     85    bbb     C9   2490 -0.72423400  12.010000   ; qtot -0.312583
 2491         h1     85    bbb    H17   2491 0.25637600   1.008000   ; qtot -0.056207
 2492         h1     85    bbb    H18   2492 0.25637600   1.008000   ; qtot 0.200169
 2493         os     85    bbb     O1   2493 -0.20025300  16.000000   ; qtot -0.000084
; residue   86 bbb rtp bbb q -0.0
 2494         n3     86    bbb     N1   2494 -0.59685800  14.010000   ; qtot -0.596942
 2495         c3     86    bbb     C1   2495 0.10137000  12.010000   ; qtot -0.495572
 2496         h1     86    bbb     H1   2496 0.04411300   1.008000   ; qtot -0.451459
 2497         h1     86    bbb     H2   2497 0.04411300   1.008000   ; qtot -0.407346
 2498         c3     86    bbb     C2   2498 0.10137000  12.010000   ; qtot -0.305976
 2499         h1     86    bbb     H3   2499 0.04411300   1.008000   ; qtot -0.261863
 2500         h1     86    bbb     H4   2500 0.04411300   1.008000   ; qtot -0.217750
 2501         c3     86    bbb     C3   2501 -0.00195300  12.010000   ; qtot -0.219703
 2502         h1     86    bbb     H5   2502 0.05064400   1.008000   ; qtot -0.169059
 2503         h1     86    bbb     H6   2503 0.05064400   1.008000   ; qtot -0.118415
 2504         c3     86    bbb     C4   2504 -0.01612100  12.010000   ; qtot -0.134536
 2505         hc     86    bbb     H7   2505 0.04936100   1.008000   ; qtot -0.085175
 2506         hc     86    bbb     H8   2506 0.04936100   1.008000   ; qtot -0.035814
 2507         c3     86    bbb     C5   2507 0.11363000  12.010000   ; qtot 0.077816
 2508         hc     86    bbb     H9   2508 0.06265900   1.008000   ; qtot 0.140475
 2509         hc     86    bbb    H10   2509 0.06265900   1.008000   ; qtot 0.203134
 2510         c3     86    bbb     C6   2510 0.11363000  12.010000   ; qtot 0.316764
 2511         hc     86    bbb    H11   2511 0.06265900   1.008000   ; qtot 0.379423
 2512         hc     86    bbb    H12   2512 0.06265900   1.008000   ; qtot 0.442082
 2513         c3     86    bbb     C7   2513 0.05858200  12.010000   ; qtot 0.500664
 2514         h1     86    bbb    H13   2514 0.06123400   1.008000   ; qtot 0.561898
 2515         h1     86    bbb    H14   2515 0.06123400   1.008000   ; qtot 0.623132
 2516         c3     86    bbb     C8   2516 -0.72423400  12.010000   ; qtot -0.101102
 2517         h1     86    bbb    H15   2517 0.25637600   1.008000   ; qtot 0.155274
 2518         h1     86    bbb    H16   2518 0.25637600   1.008000   ; qtot 0.411650
 2519         c3     86    bbb     C9   2519 -0.72423400  12.010000   ; qtot -0.312584
 2520         h1     86    bbb    H17   2520 0.25637600   1.008000   ; qtot -0.056208
 2521         h1     86    bbb    H18   2521 0.25637600   1.008000   ; qtot 0.200168
 2522         os     86    bbb     O1   2522 -0.20025300  16.000000   ; qtot -0.000085
; residue   87 bbb rtp bbb q -0.0
 2523         n3     87    bbb     N1   2523 -0.59685800  14.010000   ; qtot -0.596943
 2524         c3     87    bbb     C1   2524 0.10137000  12.010000   ; qtot -0.495573
 2525         h1     87    bbb     H1   2525 0.04411300   1.008000   ; qtot -0.451460
 2526         h1     87    bbb     H2   2526 0.04411300   1.008000   ; qtot -0.407347
 2527         c3     87    bbb     C2   2527 0.10137000  12.010000   ; qtot -0.305977
 2528         h1     87    bbb     H3   2528 0.04411300   1.008000   ; qtot -0.261864
 2529         h1     87    bbb     H4   2529 0.04411300   1.008000   ; qtot -0.217751
 2530         c3     87    bbb     C3   2530 -0.00195300  12.010000   ; qtot -0.219704
 2531         h1     87    bbb     H5   2531 0.05064400   1.008000   ; qtot -0.169060
 2532         h1     87    bbb     H6   2532 0.05064400   1.008000   ; qtot -0.118416
 2533         c3     87    bbb     C4   2533 -0.01612100  12.010000   ; qtot -0.134537
 2534         hc     87    bbb     H7   2534 0.04936100   1.008000   ; qtot -0.085176
 2535         hc     87    bbb     H8   2535 0.04936100   1.008000   ; qtot -0.035815
 2536         c3     87    bbb     C5   2536 0.11363000  12.010000   ; qtot 0.077815
 2537         hc     87    bbb     H9   2537 0.06265900   1.008000   ; qtot 0.140474
 2538         hc     87    bbb    H10   2538 0.06265900   1.008000   ; qtot 0.203133
 2539         c3     87    bbb     C6   2539 0.11363000  12.010000   ; qtot 0.316763
 2540         hc     87    bbb    H11   2540 0.06265900   1.008000   ; qtot 0.379422
 2541         hc     87    bbb    H12   2541 0.06265900   1.008000   ; qtot 0.442081
 2542         c3     87    bbb     C7   2542 0.05858200  12.010000   ; qtot 0.500663
 2543         h1     87    bbb    H13   2543 0.06123400   1.008000   ; qtot 0.561897
 2544         h1     87    bbb    H14   2544 0.06123400   1.008000   ; qtot 0.623131
 2545         c3     87    bbb     C8   2545 -0.72423400  12.010000   ; qtot -0.101103
 2546         h1     87    bbb    H15   2546 0.25637600   1.008000   ; qtot 0.155273
 2547         h1     87    bbb    H16   2547 0.25637600   1.008000   ; qtot 0.411649
 2548         c3     87    bbb     C9   2548 -0.72423400  12.010000   ; qtot -0.312585
 2549         h1     87    bbb    H17   2549 0.25637600   1.008000   ; qtot -0.056209
 2550         h1     87    bbb    H18   2550 0.25637600   1.008000   ; qtot 0.200167
 2551         os     87    bbb     O1   2551 -0.20025300  16.000000   ; qtot -0.000086
; residue   88 bbb rtp bbb q -0.0
 2552         n3     88    bbb     N1   2552 -0.59685800  14.010000   ; qtot -0.596944
 2553         c3     88    bbb     C1   2553 0.10137000  12.010000   ; qtot -0.495574
 2554         h1     88    bbb     H1   2554 0.04411300   1.008000   ; qtot -0.451461
 2555         h1     88    bbb     H2   2555 0.04411300   1.008000   ; qtot -0.407348
 2556         c3     88    bbb     C2   2556 0.10137000  12.010000   ; qtot -0.305978
 2557         h1     88    bbb     H3   2557 0.04411300   1.008000   ; qtot -0.261865
 2558         h1     88    bbb     H4   2558 0.04411300   1.008000   ; qtot -0.217752
 2559         c3     88    bbb     C3   2559 -0.00195300  12.010000   ; qtot -0.219705
 2560         h1     88    bbb     H5   2560 0.05064400   1.008000   ; qtot -0.169061
 2561         h1     88    bbb     H6   2561 0.05064400   1.008000   ; qtot -0.118417
 2562         c3     88    bbb     C4   2562 -0.01612100  12.010000   ; qtot -0.134538
 2563         hc     88    bbb     H7   2563 0.04936100   1.008000   ; qtot -0.085177
 2564         hc     88    bbb     H8   2564 0.04936100   1.008000   ; qtot -0.035816
 2565         c3     88    bbb     C5   2565 0.11363000  12.010000   ; qtot 0.077814
 2566         hc     88    bbb     H9   2566 0.06265900   1.008000   ; qtot 0.140473
 2567         hc     88    bbb    H10   2567 0.06265900   1.008000   ; qtot 0.203132
 2568         c3     88    bbb     C6   2568 0.11363000  12.010000   ; qtot 0.316762
 2569         hc     88    bbb    H11   2569 0.06265900   1.008000   ; qtot 0.379421
 2570         hc     88    bbb    H12   2570 0.06265900   1.008000   ; qtot 0.442080
 2571         c3     88    bbb     C7   2571 0.05858200  12.010000   ; qtot 0.500662
 2572         h1     88    bbb    H13   2572 0.06123400   1.008000   ; qtot 0.561896
 2573         h1     88    bbb    H14   2573 0.06123400   1.008000   ; qtot 0.623130
 2574         c3     88    bbb     C8   2574 -0.72423400  12.010000   ; qtot -0.101104
 2575         h1     88    bbb    H15   2575 0.25637600   1.008000   ; qtot 0.155272
 2576         h1     88    bbb    H16   2576 0.25637600   1.008000   ; qtot 0.411648
 2577         c3     88    bbb     C9   2577 -0.72423400  12.010000   ; qtot -0.312586
 2578         h1     88    bbb    H17   2578 0.25637600   1.008000   ; qtot -0.056210
 2579         h1     88    bbb    H18   2579 0.25637600   1.008000   ; qtot 0.200166
 2580         os     88    bbb     O1   2580 -0.20025300  16.000000   ; qtot -0.000087
; residue   89 bbb rtp bbb q -0.0
 2581         n3     89    bbb     N1   2581 -0.59685800  14.010000   ; qtot -0.596945
 2582         c3     89    bbb     C1   2582 0.10137000  12.010000   ; qtot -0.495575
 2583         h1     89    bbb     H1   2583 0.04411300   1.008000   ; qtot -0.451462
 2584         h1     89    bbb     H2   2584 0.04411300   1.008000   ; qtot -0.407349
 2585         c3     89    bbb     C2   2585 0.10137000  12.010000   ; qtot -0.305979
 2586         h1     89    bbb     H3   2586 0.04411300   1.008000   ; qtot -0.261866
 2587         h1     89    bbb     H4   2587 0.04411300   1.008000   ; qtot -0.217753
 2588         c3     89    bbb     C3   2588 -0.00195300  12.010000   ; qtot -0.219706
 2589         h1     89    bbb     H5   2589 0.05064400   1.008000   ; qtot -0.169062
 2590         h1     89    bbb     H6   2590 0.05064400   1.008000   ; qtot -0.118418
 2591         c3     89    bbb     C4   2591 -0.01612100  12.010000   ; qtot -0.134539
 2592         hc     89    bbb     H7   2592 0.04936100   1.008000   ; qtot -0.085178
 2593         hc     89    bbb     H8   2593 0.04936100   1.008000   ; qtot -0.035817
 2594         c3     89    bbb     C5   2594 0.11363000  12.010000   ; qtot 0.077813
 2595         hc     89    bbb     H9   2595 0.06265900   1.008000   ; qtot 0.140472
 2596         hc     89    bbb    H10   2596 0.06265900   1.008000   ; qtot 0.203131
 2597         c3     89    bbb     C6   2597 0.11363000  12.010000   ; qtot 0.316761
 2598         hc     89    bbb    H11   2598 0.06265900   1.008000   ; qtot 0.379420
 2599         hc     89    bbb    H12   2599 0.06265900   1.008000   ; qtot 0.442079
 2600         c3     89    bbb     C7   2600 0.05858200  12.010000   ; qtot 0.500661
 2601         h1     89    bbb    H13   2601 0.06123400   1.008000   ; qtot 0.561895
 2602         h1     89    bbb    H14   2602 0.06123400   1.008000   ; qtot 0.623129
 2603         c3     89    bbb     C8   2603 -0.72423400  12.010000   ; qtot -0.101105
 2604         h1     89    bbb    H15   2604 0.25637600   1.008000   ; qtot 0.155271
 2605         h1     89    bbb    H16   2605 0.25637600   1.008000   ; qtot 0.411647
 2606         c3     89    bbb     C9   2606 -0.72423400  12.010000   ; qtot -0.312587
 2607         h1     89    bbb    H17   2607 0.25637600   1.008000   ; qtot -0.056211
 2608         h1     89    bbb    H18   2608 0.25637600   1.008000   ; qtot 0.200165
 2609         os     89    bbb     O1   2609 -0.20025300  16.000000   ; qtot -0.000088
; residue   90 bbb rtp bbb q -0.0
 2610         n3     90    bbb     N1   2610 -0.59685800  14.010000   ; qtot -0.596946
 2611         c3     90    bbb     C1   2611 0.10137000  12.010000   ; qtot -0.495576
 2612         h1     90    bbb     H1   2612 0.04411300   1.008000   ; qtot -0.451463
 2613         h1     90    bbb     H2   2613 0.04411300   1.008000   ; qtot -0.407350
 2614         c3     90    bbb     C2   2614 0.10137000  12.010000   ; qtot -0.305980
 2615         h1     90    bbb     H3   2615 0.04411300   1.008000   ; qtot -0.261867
 2616         h1     90    bbb     H4   2616 0.04411300   1.008000   ; qtot -0.217754
 2617         c3     90    bbb     C3   2617 -0.00195300  12.010000   ; qtot -0.219707
 2618         h1     90    bbb     H5   2618 0.05064400   1.008000   ; qtot -0.169063
 2619         h1     90    bbb     H6   2619 0.05064400   1.008000   ; qtot -0.118419
 2620         c3     90    bbb     C4   2620 -0.01612100  12.010000   ; qtot -0.134540
 2621         hc     90    bbb     H7   2621 0.04936100   1.008000   ; qtot -0.085179
 2622         hc     90    bbb     H8   2622 0.04936100   1.008000   ; qtot -0.035818
 2623         c3     90    bbb     C5   2623 0.11363000  12.010000   ; qtot 0.077812
 2624         hc     90    bbb     H9   2624 0.06265900   1.008000   ; qtot 0.140471
 2625         hc     90    bbb    H10   2625 0.06265900   1.008000   ; qtot 0.203130
 2626         c3     90    bbb     C6   2626 0.11363000  12.010000   ; qtot 0.316760
 2627         hc     90    bbb    H11   2627 0.06265900   1.008000   ; qtot 0.379419
 2628         hc     90    bbb    H12   2628 0.06265900   1.008000   ; qtot 0.442078
 2629         c3     90    bbb     C7   2629 0.05858200  12.010000   ; qtot 0.500660
 2630         h1     90    bbb    H13   2630 0.06123400   1.008000   ; qtot 0.561894
 2631         h1     90    bbb    H14   2631 0.06123400   1.008000   ; qtot 0.623128
 2632         c3     90    bbb     C8   2632 -0.72423400  12.010000   ; qtot -0.101106
 2633         h1     90    bbb    H15   2633 0.25637600   1.008000   ; qtot 0.155270
 2634         h1     90    bbb    H16   2634 0.25637600   1.008000   ; qtot 0.411646
 2635         c3     90    bbb     C9   2635 -0.72423400  12.010000   ; qtot -0.312588
 2636         h1     90    bbb    H17   2636 0.25637600   1.008000   ; qtot -0.056212
 2637         h1     90    bbb    H18   2637 0.25637600   1.008000   ; qtot 0.200164
 2638         os     90    bbb     O1   2638 -0.20025300  16.000000   ; qtot -0.000089
; residue   91 bbb rtp bbb q -0.0
 2639         n3     91    bbb     N1   2639 -0.59685800  14.010000   ; qtot -0.596947
 2640         c3     91    bbb     C1   2640 0.10137000  12.010000   ; qtot -0.495577
 2641         h1     91    bbb     H1   2641 0.04411300   1.008000   ; qtot -0.451464
 2642         h1     91    bbb     H2   2642 0.04411300   1.008000   ; qtot -0.407351
 2643         c3     91    bbb     C2   2643 0.10137000  12.010000   ; qtot -0.305981
 2644         h1     91    bbb     H3   2644 0.04411300   1.008000   ; qtot -0.261868
 2645         h1     91    bbb     H4   2645 0.04411300   1.008000   ; qtot -0.217755
 2646         c3     91    bbb     C3   2646 -0.00195300  12.010000   ; qtot -0.219708
 2647         h1     91    bbb     H5   2647 0.05064400   1.008000   ; qtot -0.169064
 2648         h1     91    bbb     H6   2648 0.05064400   1.008000   ; qtot -0.118420
 2649         c3     91    bbb     C4   2649 -0.01612100  12.010000   ; qtot -0.134541
 2650         hc     91    bbb     H7   2650 0.04936100   1.008000   ; qtot -0.085180
 2651         hc     91    bbb     H8   2651 0.04936100   1.008000   ; qtot -0.035819
 2652         c3     91    bbb     C5   2652 0.11363000  12.010000   ; qtot 0.077811
 2653         hc     91    bbb     H9   2653 0.06265900   1.008000   ; qtot 0.140470
 2654         hc     91    bbb    H10   2654 0.06265900   1.008000   ; qtot 0.203129
 2655         c3     91    bbb     C6   2655 0.11363000  12.010000   ; qtot 0.316759
 2656         hc     91    bbb    H11   2656 0.06265900   1.008000   ; qtot 0.379418
 2657         hc     91    bbb    H12   2657 0.06265900   1.008000   ; qtot 0.442077
 2658         c3     91    bbb     C7   2658 0.05858200  12.010000   ; qtot 0.500659
 2659         h1     91    bbb    H13   2659 0.06123400   1.008000   ; qtot 0.561893
 2660         h1     91    bbb    H14   2660 0.06123400   1.008000   ; qtot 0.623127
 2661         c3     91    bbb     C8   2661 -0.72423400  12.010000   ; qtot -0.101107
 2662         h1     91    bbb    H15   2662 0.25637600   1.008000   ; qtot 0.155269
 2663         h1     91    bbb    H16   2663 0.25637600   1.008000   ; qtot 0.411645
 2664         c3     91    bbb     C9   2664 -0.72423400  12.010000   ; qtot -0.312589
 2665         h1     91    bbb    H17   2665 0.25637600   1.008000   ; qtot -0.056213
 2666         h1     91    bbb    H18   2666 0.25637600   1.008000   ; qtot 0.200163
 2667         os     91    bbb     O1   2667 -0.20025300  16.000000   ; qtot -0.000090
; residue   92 bbb rtp bbb q -0.0
 2668         n3     92    bbb     N1   2668 -0.59685800  14.010000   ; qtot -0.596948
 2669         c3     92    bbb     C1   2669 0.10137000  12.010000   ; qtot -0.495578
 2670         h1     92    bbb     H1   2670 0.04411300   1.008000   ; qtot -0.451465
 2671         h1     92    bbb     H2   2671 0.04411300   1.008000   ; qtot -0.407352
 2672         c3     92    bbb     C2   2672 0.10137000  12.010000   ; qtot -0.305982
 2673         h1     92    bbb     H3   2673 0.04411300   1.008000   ; qtot -0.261869
 2674         h1     92    bbb     H4   2674 0.04411300   1.008000   ; qtot -0.217756
 2675         c3     92    bbb     C3   2675 -0.00195300  12.010000   ; qtot -0.219709
 2676         h1     92    bbb     H5   2676 0.05064400   1.008000   ; qtot -0.169065
 2677         h1     92    bbb     H6   2677 0.05064400   1.008000   ; qtot -0.118421
 2678         c3     92    bbb     C4   2678 -0.01612100  12.010000   ; qtot -0.134542
 2679         hc     92    bbb     H7   2679 0.04936100   1.008000   ; qtot -0.085181
 2680         hc     92    bbb     H8   2680 0.04936100   1.008000   ; qtot -0.035820
 2681         c3     92    bbb     C5   2681 0.11363000  12.010000   ; qtot 0.077810
 2682         hc     92    bbb     H9   2682 0.06265900   1.008000   ; qtot 0.140469
 2683         hc     92    bbb    H10   2683 0.06265900   1.008000   ; qtot 0.203128
 2684         c3     92    bbb     C6   2684 0.11363000  12.010000   ; qtot 0.316758
 2685         hc     92    bbb    H11   2685 0.06265900   1.008000   ; qtot 0.379417
 2686         hc     92    bbb    H12   2686 0.06265900   1.008000   ; qtot 0.442076
 2687         c3     92    bbb     C7   2687 0.05858200  12.010000   ; qtot 0.500658
 2688         h1     92    bbb    H13   2688 0.06123400   1.008000   ; qtot 0.561892
 2689         h1     92    bbb    H14   2689 0.06123400   1.008000   ; qtot 0.623126
 2690         c3     92    bbb     C8   2690 -0.72423400  12.010000   ; qtot -0.101108
 2691         h1     92    bbb    H15   2691 0.25637600   1.008000   ; qtot 0.155268
 2692         h1     92    bbb    H16   2692 0.25637600   1.008000   ; qtot 0.411644
 2693         c3     92    bbb     C9   2693 -0.72423400  12.010000   ; qtot -0.312590
 2694         h1     92    bbb    H17   2694 0.25637600   1.008000   ; qtot -0.056214
 2695         h1     92    bbb    H18   2695 0.25637600   1.008000   ; qtot 0.200162
 2696         os     92    bbb     O1   2696 -0.20025300  16.000000   ; qtot -0.000091
; residue   93 bbb rtp bbb q -0.0
 2697         n3     93    bbb     N1   2697 -0.59685800  14.010000   ; qtot -0.596949
 2698         c3     93    bbb     C1   2698 0.10137000  12.010000   ; qtot -0.495579
 2699         h1     93    bbb     H1   2699 0.04411300   1.008000   ; qtot -0.451466
 2700         h1     93    bbb     H2   2700 0.04411300   1.008000   ; qtot -0.407353
 2701         c3     93    bbb     C2   2701 0.10137000  12.010000   ; qtot -0.305983
 2702         h1     93    bbb     H3   2702 0.04411300   1.008000   ; qtot -0.261870
 2703         h1     93    bbb     H4   2703 0.04411300   1.008000   ; qtot -0.217757
 2704         c3     93    bbb     C3   2704 -0.00195300  12.010000   ; qtot -0.219710
 2705         h1     93    bbb     H5   2705 0.05064400   1.008000   ; qtot -0.169066
 2706         h1     93    bbb     H6   2706 0.05064400   1.008000   ; qtot -0.118422
 2707         c3     93    bbb     C4   2707 -0.01612100  12.010000   ; qtot -0.134543
 2708         hc     93    bbb     H7   2708 0.04936100   1.008000   ; qtot -0.085182
 2709         hc     93    bbb     H8   2709 0.04936100   1.008000   ; qtot -0.035821
 2710         c3     93    bbb     C5   2710 0.11363000  12.010000   ; qtot 0.077809
 2711         hc     93    bbb     H9   2711 0.06265900   1.008000   ; qtot 0.140468
 2712         hc     93    bbb    H10   2712 0.06265900   1.008000   ; qtot 0.203127
 2713         c3     93    bbb     C6   2713 0.11363000  12.010000   ; qtot 0.316757
 2714         hc     93    bbb    H11   2714 0.06265900   1.008000   ; qtot 0.379416
 2715         hc     93    bbb    H12   2715 0.06265900   1.008000   ; qtot 0.442075
 2716         c3     93    bbb     C7   2716 0.05858200  12.010000   ; qtot 0.500657
 2717         h1     93    bbb    H13   2717 0.06123400   1.008000   ; qtot 0.561891
 2718         h1     93    bbb    H14   2718 0.06123400   1.008000   ; qtot 0.623125
 2719         c3     93    bbb     C8   2719 -0.72423400  12.010000   ; qtot -0.101109
 2720         h1     93    bbb    H15   2720 0.25637600   1.008000   ; qtot 0.155267
 2721         h1     93    bbb    H16   2721 0.25637600   1.008000   ; qtot 0.411643
 2722         c3     93    bbb     C9   2722 -0.72423400  12.010000   ; qtot -0.312591
 2723         h1     93    bbb    H17   2723 0.25637600   1.008000   ; qtot -0.056215
 2724         h1     93    bbb    H18   2724 0.25637600   1.008000   ; qtot 0.200161
 2725         os     93    bbb     O1   2725 -0.20025300  16.000000   ; qtot -0.000092
; residue   94 bbb rtp bbb q -0.0
 2726         n3     94    bbb     N1   2726 -0.59685800  14.010000   ; qtot -0.596950
 2727         c3     94    bbb     C1   2727 0.10137000  12.010000   ; qtot -0.495580
 2728         h1     94    bbb     H1   2728 0.04411300   1.008000   ; qtot -0.451467
 2729         h1     94    bbb     H2   2729 0.04411300   1.008000   ; qtot -0.407354
 2730         c3     94    bbb     C2   2730 0.10137000  12.010000   ; qtot -0.305984
 2731         h1     94    bbb     H3   2731 0.04411300   1.008000   ; qtot -0.261871
 2732         h1     94    bbb     H4   2732 0.04411300   1.008000   ; qtot -0.217758
 2733         c3     94    bbb     C3   2733 -0.00195300  12.010000   ; qtot -0.219711
 2734         h1     94    bbb     H5   2734 0.05064400   1.008000   ; qtot -0.169067
 2735         h1     94    bbb     H6   2735 0.05064400   1.008000   ; qtot -0.118423
 2736         c3     94    bbb     C4   2736 -0.01612100  12.010000   ; qtot -0.134544
 2737         hc     94    bbb     H7   2737 0.04936100   1.008000   ; qtot -0.085183
 2738         hc     94    bbb     H8   2738 0.04936100   1.008000   ; qtot -0.035822
 2739         c3     94    bbb     C5   2739 0.11363000  12.010000   ; qtot 0.077808
 2740         hc     94    bbb     H9   2740 0.06265900   1.008000   ; qtot 0.140467
 2741         hc     94    bbb    H10   2741 0.06265900   1.008000   ; qtot 0.203126
 2742         c3     94    bbb     C6   2742 0.11363000  12.010000   ; qtot 0.316756
 2743         hc     94    bbb    H11   2743 0.06265900   1.008000   ; qtot 0.379415
 2744         hc     94    bbb    H12   2744 0.06265900   1.008000   ; qtot 0.442074
 2745         c3     94    bbb     C7   2745 0.05858200  12.010000   ; qtot 0.500656
 2746         h1     94    bbb    H13   2746 0.06123400   1.008000   ; qtot 0.561890
 2747         h1     94    bbb    H14   2747 0.06123400   1.008000   ; qtot 0.623124
 2748         c3     94    bbb     C8   2748 -0.72423400  12.010000   ; qtot -0.101110
 2749         h1     94    bbb    H15   2749 0.25637600   1.008000   ; qtot 0.155266
 2750         h1     94    bbb    H16   2750 0.25637600   1.008000   ; qtot 0.411642
 2751         c3     94    bbb     C9   2751 -0.72423400  12.010000   ; qtot -0.312592
 2752         h1     94    bbb    H17   2752 0.25637600   1.008000   ; qtot -0.056216
 2753         h1     94    bbb    H18   2753 0.25637600   1.008000   ; qtot 0.200160
 2754         os     94    bbb     O1   2754 -0.20025300  16.000000   ; qtot -0.000093
; residue   95 bbb rtp bbb q -0.0
 2755         n3     95    bbb     N1   2755 -0.59685800  14.010000   ; qtot -0.596951
 2756         c3     95    bbb     C1   2756 0.10137000  12.010000   ; qtot -0.495581
 2757         h1     95    bbb     H1   2757 0.04411300   1.008000   ; qtot -0.451468
 2758         h1     95    bbb     H2   2758 0.04411300   1.008000   ; qtot -0.407355
 2759         c3     95    bbb     C2   2759 0.10137000  12.010000   ; qtot -0.305985
 2760         h1     95    bbb     H3   2760 0.04411300   1.008000   ; qtot -0.261872
 2761         h1     95    bbb     H4   2761 0.04411300   1.008000   ; qtot -0.217759
 2762         c3     95    bbb     C3   2762 -0.00195300  12.010000   ; qtot -0.219712
 2763         h1     95    bbb     H5   2763 0.05064400   1.008000   ; qtot -0.169068
 2764         h1     95    bbb     H6   2764 0.05064400   1.008000   ; qtot -0.118424
 2765         c3     95    bbb     C4   2765 -0.01612100  12.010000   ; qtot -0.134545
 2766         hc     95    bbb     H7   2766 0.04936100   1.008000   ; qtot -0.085184
 2767         hc     95    bbb     H8   2767 0.04936100   1.008000   ; qtot -0.035823
 2768         c3     95    bbb     C5   2768 0.11363000  12.010000   ; qtot 0.077807
 2769         hc     95    bbb     H9   2769 0.06265900   1.008000   ; qtot 0.140466
 2770         hc     95    bbb    H10   2770 0.06265900   1.008000   ; qtot 0.203125
 2771         c3     95    bbb     C6   2771 0.11363000  12.010000   ; qtot 0.316755
 2772         hc     95    bbb    H11   2772 0.06265900   1.008000   ; qtot 0.379414
 2773         hc     95    bbb    H12   2773 0.06265900   1.008000   ; qtot 0.442073
 2774         c3     95    bbb     C7   2774 0.05858200  12.010000   ; qtot 0.500655
 2775         h1     95    bbb    H13   2775 0.06123400   1.008000   ; qtot 0.561889
 2776         h1     95    bbb    H14   2776 0.06123400   1.008000   ; qtot 0.623123
 2777         c3     95    bbb     C8   2777 -0.72423400  12.010000   ; qtot -0.101111
 2778         h1     95    bbb    H15   2778 0.25637600   1.008000   ; qtot 0.155265
 2779         h1     95    bbb    H16   2779 0.25637600   1.008000   ; qtot 0.411641
 2780         c3     95    bbb     C9   2780 -0.72423400  12.010000   ; qtot -0.312593
 2781         h1     95    bbb    H17   2781 0.25637600   1.008000   ; qtot -0.056217
 2782         h1     95    bbb    H18   2782 0.25637600   1.008000   ; qtot 0.200159
 2783         os     95    bbb     O1   2783 -0.20025300  16.000000   ; qtot -0.000094
; residue   96 bbb rtp bbb q -0.0
 2784         n3     96    bbb     N1   2784 -0.59685800  14.010000   ; qtot -0.596952
 2785         c3     96    bbb     C1   2785 0.10137000  12.010000   ; qtot -0.495582
 2786         h1     96    bbb     H1   2786 0.04411300   1.008000   ; qtot -0.451469
 2787         h1     96    bbb     H2   2787 0.04411300   1.008000   ; qtot -0.407356
 2788         c3     96    bbb     C2   2788 0.10137000  12.010000   ; qtot -0.305986
 2789         h1     96    bbb     H3   2789 0.04411300   1.008000   ; qtot -0.261873
 2790         h1     96    bbb     H4   2790 0.04411300   1.008000   ; qtot -0.217760
 2791         c3     96    bbb     C3   2791 -0.00195300  12.010000   ; qtot -0.219713
 2792         h1     96    bbb     H5   2792 0.05064400   1.008000   ; qtot -0.169069
 2793         h1     96    bbb     H6   2793 0.05064400   1.008000   ; qtot -0.118425
 2794         c3     96    bbb     C4   2794 -0.01612100  12.010000   ; qtot -0.134546
 2795         hc     96    bbb     H7   2795 0.04936100   1.008000   ; qtot -0.085185
 2796         hc     96    bbb     H8   2796 0.04936100   1.008000   ; qtot -0.035824
 2797         c3     96    bbb     C5   2797 0.11363000  12.010000   ; qtot 0.077806
 2798         hc     96    bbb     H9   2798 0.06265900   1.008000   ; qtot 0.140465
 2799         hc     96    bbb    H10   2799 0.06265900   1.008000   ; qtot 0.203124
 2800         c3     96    bbb     C6   2800 0.11363000  12.010000   ; qtot 0.316754
 2801         hc     96    bbb    H11   2801 0.06265900   1.008000   ; qtot 0.379413
 2802         hc     96    bbb    H12   2802 0.06265900   1.008000   ; qtot 0.442072
 2803         c3     96    bbb     C7   2803 0.05858200  12.010000   ; qtot 0.500654
 2804         h1     96    bbb    H13   2804 0.06123400   1.008000   ; qtot 0.561888
 2805         h1     96    bbb    H14   2805 0.06123400   1.008000   ; qtot 0.623122
 2806         c3     96    bbb     C8   2806 -0.72423400  12.010000   ; qtot -0.101112
 2807         h1     96    bbb    H15   2807 0.25637600   1.008000   ; qtot 0.155264
 2808         h1     96    bbb    H16   2808 0.25637600   1.008000   ; qtot 0.411640
 2809         c3     96    bbb     C9   2809 -0.72423400  12.010000   ; qtot -0.312594
 2810         h1     96    bbb    H17   2810 0.25637600   1.008000   ; qtot -0.056218
 2811         h1     96    bbb    H18   2811 0.25637600   1.008000   ; qtot 0.200158
 2812         os     96    bbb     O1   2812 -0.20025300  16.000000   ; qtot -0.000095
; residue   97 bbb rtp bbb q -0.0
 2813         n3     97    bbb     N1   2813 -0.59685800  14.010000   ; qtot -0.596953
 2814         c3     97    bbb     C1   2814 0.10137000  12.010000   ; qtot -0.495583
 2815         h1     97    bbb     H1   2815 0.04411300   1.008000   ; qtot -0.451470
 2816         h1     97    bbb     H2   2816 0.04411300   1.008000   ; qtot -0.407357
 2817         c3     97    bbb     C2   2817 0.10137000  12.010000   ; qtot -0.305987
 2818         h1     97    bbb     H3   2818 0.04411300   1.008000   ; qtot -0.261874
 2819         h1     97    bbb     H4   2819 0.04411300   1.008000   ; qtot -0.217761
 2820         c3     97    bbb     C3   2820 -0.00195300  12.010000   ; qtot -0.219714
 2821         h1     97    bbb     H5   2821 0.05064400   1.008000   ; qtot -0.169070
 2822         h1     97    bbb     H6   2822 0.05064400   1.008000   ; qtot -0.118426
 2823         c3     97    bbb     C4   2823 -0.01612100  12.010000   ; qtot -0.134547
 2824         hc     97    bbb     H7   2824 0.04936100   1.008000   ; qtot -0.085186
 2825         hc     97    bbb     H8   2825 0.04936100   1.008000   ; qtot -0.035825
 2826         c3     97    bbb     C5   2826 0.11363000  12.010000   ; qtot 0.077805
 2827         hc     97    bbb     H9   2827 0.06265900   1.008000   ; qtot 0.140464
 2828         hc     97    bbb    H10   2828 0.06265900   1.008000   ; qtot 0.203123
 2829         c3     97    bbb     C6   2829 0.11363000  12.010000   ; qtot 0.316753
 2830         hc     97    bbb    H11   2830 0.06265900   1.008000   ; qtot 0.379412
 2831         hc     97    bbb    H12   2831 0.06265900   1.008000   ; qtot 0.442071
 2832         c3     97    bbb     C7   2832 0.05858200  12.010000   ; qtot 0.500653
 2833         h1     97    bbb    H13   2833 0.06123400   1.008000   ; qtot 0.561887
 2834         h1     97    bbb    H14   2834 0.06123400   1.008000   ; qtot 0.623121
 2835         c3     97    bbb     C8   2835 -0.72423400  12.010000   ; qtot -0.101113
 2836         h1     97    bbb    H15   2836 0.25637600   1.008000   ; qtot 0.155263
 2837         h1     97    bbb    H16   2837 0.25637600   1.008000   ; qtot 0.411639
 2838         c3     97    bbb     C9   2838 -0.72423400  12.010000   ; qtot -0.312595
 2839         h1     97    bbb    H17   2839 0.25637600   1.008000   ; qtot -0.056219
 2840         h1     97    bbb    H18   2840 0.25637600   1.008000   ; qtot 0.200157
 2841         os     97    bbb     O1   2841 -0.20025300  16.000000   ; qtot -0.000096
; residue   98 bbb rtp bbb q -0.0
 2842         n3     98    bbb     N1   2842 -0.59685800  14.010000   ; qtot -0.596954
 2843         c3     98    bbb     C1   2843 0.10137000  12.010000   ; qtot -0.495584
 2844         h1     98    bbb     H1   2844 0.04411300   1.008000   ; qtot -0.451471
 2845         h1     98    bbb     H2   2845 0.04411300   1.008000   ; qtot -0.407358
 2846         c3     98    bbb     C2   2846 0.10137000  12.010000   ; qtot -0.305988
 2847         h1     98    bbb     H3   2847 0.04411300   1.008000   ; qtot -0.261875
 2848         h1     98    bbb     H4   2848 0.04411300   1.008000   ; qtot -0.217762
 2849         c3     98    bbb     C3   2849 -0.00195300  12.010000   ; qtot -0.219715
 2850         h1     98    bbb     H5   2850 0.05064400   1.008000   ; qtot -0.169071
 2851         h1     98    bbb     H6   2851 0.05064400   1.008000   ; qtot -0.118427
 2852         c3     98    bbb     C4   2852 -0.01612100  12.010000   ; qtot -0.134548
 2853         hc     98    bbb     H7   2853 0.04936100   1.008000   ; qtot -0.085187
 2854         hc     98    bbb     H8   2854 0.04936100   1.008000   ; qtot -0.035826
 2855         c3     98    bbb     C5   2855 0.11363000  12.010000   ; qtot 0.077804
 2856         hc     98    bbb     H9   2856 0.06265900   1.008000   ; qtot 0.140463
 2857         hc     98    bbb    H10   2857 0.06265900   1.008000   ; qtot 0.203122
 2858         c3     98    bbb     C6   2858 0.11363000  12.010000   ; qtot 0.316752
 2859         hc     98    bbb    H11   2859 0.06265900   1.008000   ; qtot 0.379411
 2860         hc     98    bbb    H12   2860 0.06265900   1.008000   ; qtot 0.442070
 2861         c3     98    bbb     C7   2861 0.05858200  12.010000   ; qtot 0.500652
 2862         h1     98    bbb    H13   2862 0.06123400   1.008000   ; qtot 0.561886
 2863         h1     98    bbb    H14   2863 0.06123400   1.008000   ; qtot 0.623120
 2864         c3     98    bbb     C8   2864 -0.72423400  12.010000   ; qtot -0.101114
 2865         h1     98    bbb    H15   2865 0.25637600   1.008000   ; qtot 0.155262
 2866         h1     98    bbb    H16   2866 0.25637600   1.008000   ; qtot 0.411638
 2867         c3     98    bbb     C9   2867 -0.72423400  12.010000   ; qtot -0.312596
 2868         h1     98    bbb    H17   2868 0.25637600   1.008000   ; qtot -0.056220
 2869         h1     98    bbb    H18   2869 0.25637600   1.008000   ; qtot 0.200156
 2870         os     98    bbb     O1   2870 -0.20025300  16.000000   ; qtot -0.000097
; residue   99 bbb rtp bbb q -0.0
 2871         n3     99    bbb     N1   2871 -0.59685800  14.010000   ; qtot -0.596955
 2872         c3     99    bbb     C1   2872 0.10137000  12.010000   ; qtot -0.495585
 2873         h1     99    bbb     H1   2873 0.04411300   1.008000   ; qtot -0.451472
 2874         h1     99    bbb     H2   2874 0.04411300   1.008000   ; qtot -0.407359
 2875         c3     99    bbb     C2   2875 0.10137000  12.010000   ; qtot -0.305989
 2876         h1     99    bbb     H3   2876 0.04411300   1.008000   ; qtot -0.261876
 2877         h1     99    bbb     H4   2877 0.04411300   1.008000   ; qtot -0.217763
 2878         c3     99    bbb     C3   2878 -0.00195300  12.010000   ; qtot -0.219716
 2879         h1     99    bbb     H5   2879 0.05064400   1.008000   ; qtot -0.169072
 2880         h1     99    bbb     H6   2880 0.05064400   1.008000   ; qtot -0.118428
 2881         c3     99    bbb     C4   2881 -0.01612100  12.010000   ; qtot -0.134549
 2882         hc     99    bbb     H7   2882 0.04936100   1.008000   ; qtot -0.085188
 2883         hc     99    bbb     H8   2883 0.04936100   1.008000   ; qtot -0.035827
 2884         c3     99    bbb     C5   2884 0.11363000  12.010000   ; qtot 0.077803
 2885         hc     99    bbb     H9   2885 0.06265900   1.008000   ; qtot 0.140462
 2886         hc     99    bbb    H10   2886 0.06265900   1.008000   ; qtot 0.203121
 2887         c3     99    bbb     C6   2887 0.11363000  12.010000   ; qtot 0.316751
 2888         hc     99    bbb    H11   2888 0.06265900   1.008000   ; qtot 0.379410
 2889         hc     99    bbb    H12   2889 0.06265900   1.008000   ; qtot 0.442069
 2890         c3     99    bbb     C7   2890 0.05858200  12.010000   ; qtot 0.500651
 2891         h1     99    bbb    H13   2891 0.06123400   1.008000   ; qtot 0.561885
 2892         h1     99    bbb    H14   2892 0.06123400   1.008000   ; qtot 0.623119
 2893         c3     99    bbb     C8   2893 -0.72423400  12.010000   ; qtot -0.101115
 2894         h1     99    bbb    H15   2894 0.25637600   1.008000   ; qtot 0.155261
 2895         h1     99    bbb    H16   2895 0.25637600   1.008000   ; qtot 0.411637
 2896         c3     99    bbb     C9   2896 -0.72423400  12.010000   ; qtot -0.312597
 2897         h1     99    bbb    H17   2897 0.25637600   1.008000   ; qtot -0.056221
 2898         h1     99    bbb    H18   2898 0.25637600   1.008000   ; qtot 0.200155
 2899         os     99    bbb     O1   2899 -0.20025300  16.000000   ; qtot -0.000098
; residue  100 bbb rtp bbb q -0.0
 2900         n3    100    bbb     N1   2900 -0.59685800  14.010000   ; qtot -0.596956
 2901         c3    100    bbb     C1   2901 0.10137000  12.010000   ; qtot -0.495586
 2902         h1    100    bbb     H1   2902 0.04411300   1.008000   ; qtot -0.451473
 2903         h1    100    bbb     H2   2903 0.04411300   1.008000   ; qtot -0.407360
 2904         c3    100    bbb     C2   2904 0.10137000  12.010000   ; qtot -0.305990
 2905         h1    100    bbb     H3   2905 0.04411300   1.008000   ; qtot -0.261877
 2906         h1    100    bbb     H4   2906 0.04411300   1.008000   ; qtot -0.217764
 2907         c3    100    bbb     C3   2907 -0.00195300  12.010000   ; qtot -0.219717
 2908         h1    100    bbb     H5   2908 0.05064400   1.008000   ; qtot -0.169073
 2909         h1    100    bbb     H6   2909 0.05064400   1.008000   ; qtot -0.118429
 2910         c3    100    bbb     C4   2910 -0.01612100  12.010000   ; qtot -0.134550
 2911         hc    100    bbb     H7   2911 0.04936100   1.008000   ; qtot -0.085189
 2912         hc    100    bbb     H8   2912 0.04936100   1.008000   ; qtot -0.035828
 2913         c3    100    bbb     C5   2913 0.11363000  12.010000   ; qtot 0.077802
 2914         hc    100    bbb     H9   2914 0.06265900   1.008000   ; qtot 0.140461
 2915         hc    100    bbb    H10   2915 0.06265900   1.008000   ; qtot 0.203120
 2916         c3    100    bbb     C6   2916 0.11363000  12.010000   ; qtot 0.316750
 2917         hc    100    bbb    H11   2917 0.06265900   1.008000   ; qtot 0.379409
 2918         hc    100    bbb    H12   2918 0.06265900   1.008000   ; qtot 0.442068
 2919         c3    100    bbb     C7   2919 0.05858200  12.010000   ; qtot 0.500650
 2920         h1    100    bbb    H13   2920 0.06123400   1.008000   ; qtot 0.561884
 2921         h1    100    bbb    H14   2921 0.06123400   1.008000   ; qtot 0.623118
 2922         c3    100    bbb     C8   2922 -0.72423400  12.010000   ; qtot -0.101116
 2923         h1    100    bbb    H15   2923 0.25637600   1.008000   ; qtot 0.155260
 2924         h1    100    bbb    H16   2924 0.25637600   1.008000   ; qtot 0.411636
 2925         c3    100    bbb     C9   2925 -0.72423400  12.010000   ; qtot -0.312598
 2926         h1    100    bbb    H17   2926 0.25637600   1.008000   ; qtot -0.056222
 2927         h1    100    bbb    H18   2927 0.25637600   1.008000   ; qtot 0.200154
 2928         os    100    bbb     O1   2928 -0.20025300  16.000000   ; qtot -0.000099
; residue  101 bbb rtp bbb q -0.0
 2929         n3    101    bbb     N1   2929 -0.59685800  14.010000   ; qtot -0.596957
 2930         c3    101    bbb     C1   2930 0.10137000  12.010000   ; qtot -0.495587
 2931         h1    101    bbb     H1   2931 0.04411300   1.008000   ; qtot -0.451474
 2932         h1    101    bbb     H2   2932 0.04411300   1.008000   ; qtot -0.407361
 2933         c3    101    bbb     C2   2933 0.10137000  12.010000   ; qtot -0.305991
 2934         h1    101    bbb     H3   2934 0.04411300   1.008000   ; qtot -0.261878
 2935         h1    101    bbb     H4   2935 0.04411300   1.008000   ; qtot -0.217765
 2936         c3    101    bbb     C3   2936 -0.00195300  12.010000   ; qtot -0.219718
 2937         h1    101    bbb     H5   2937 0.05064400   1.008000   ; qtot -0.169074
 2938         h1    101    bbb     H6   2938 0.05064400   1.008000   ; qtot -0.118430
 2939         c3    101    bbb     C4   2939 -0.01612100  12.010000   ; qtot -0.134551
 2940         hc    101    bbb     H7   2940 0.04936100   1.008000   ; qtot -0.085190
 2941         hc    101    bbb     H8   2941 0.04936100   1.008000   ; qtot -0.035829
 2942         c3    101    bbb     C5   2942 0.11363000  12.010000   ; qtot 0.077801
 2943         hc    101    bbb     H9   2943 0.06265900   1.008000   ; qtot 0.140460
 2944         hc    101    bbb    H10   2944 0.06265900   1.008000   ; qtot 0.203119
 2945         c3    101    bbb     C6   2945 0.11363000  12.010000   ; qtot 0.316749
 2946         hc    101    bbb    H11   2946 0.06265900   1.008000   ; qtot 0.379408
 2947         hc    101    bbb    H12   2947 0.06265900   1.008000   ; qtot 0.442067
 2948         c3    101    bbb     C7   2948 0.05858200  12.010000   ; qtot 0.500649
 2949         h1    101    bbb    H13   2949 0.06123400   1.008000   ; qtot 0.561883
 2950         h1    101    bbb    H14   2950 0.06123400   1.008000   ; qtot 0.623117
 2951         c3    101    bbb     C8   2951 -0.72423400  12.010000   ; qtot -0.101117
 2952         h1    101    bbb    H15   2952 0.25637600   1.008000   ; qtot 0.155259
 2953         h1    101    bbb    H16   2953 0.25637600   1.008000   ; qtot 0.411635
 2954         c3    101    bbb     C9   2954 -0.72423400  12.010000   ; qtot -0.312599
 2955         h1    101    bbb    H17   2955 0.25637600   1.008000   ; qtot -0.056223
 2956         h1    101    bbb    H18   2956 0.25637600   1.008000   ; qtot 0.200153
 2957         os    101    bbb     O1   2957 -0.20025300  16.000000   ; qtot -0.000100
; residue  102 bbb rtp bbb q -0.0
 2958         n3    102    bbb     N1   2958 -0.59685800  14.010000   ; qtot -0.596958
 2959         c3    102    bbb     C1   2959 0.10137000  12.010000   ; qtot -0.495588
 2960         h1    102    bbb     H1   2960 0.04411300   1.008000   ; qtot -0.451475
 2961         h1    102    bbb     H2   2961 0.04411300   1.008000   ; qtot -0.407362
 2962         c3    102    bbb     C2   2962 0.10137000  12.010000   ; qtot -0.305992
 2963         h1    102    bbb     H3   2963 0.04411300   1.008000   ; qtot -0.261879
 2964         h1    102    bbb     H4   2964 0.04411300   1.008000   ; qtot -0.217766
 2965         c3    102    bbb     C3   2965 -0.00195300  12.010000   ; qtot -0.219719
 2966         h1    102    bbb     H5   2966 0.05064400   1.008000   ; qtot -0.169075
 2967         h1    102    bbb     H6   2967 0.05064400   1.008000   ; qtot -0.118431
 2968         c3    102    bbb     C4   2968 -0.01612100  12.010000   ; qtot -0.134552
 2969         hc    102    bbb     H7   2969 0.04936100   1.008000   ; qtot -0.085191
 2970         hc    102    bbb     H8   2970 0.04936100   1.008000   ; qtot -0.035830
 2971         c3    102    bbb     C5   2971 0.11363000  12.010000   ; qtot 0.077800
 2972         hc    102    bbb     H9   2972 0.06265900   1.008000   ; qtot 0.140459
 2973         hc    102    bbb    H10   2973 0.06265900   1.008000   ; qtot 0.203118
 2974         c3    102    bbb     C6   2974 0.11363000  12.010000   ; qtot 0.316748
 2975         hc    102    bbb    H11   2975 0.06265900   1.008000   ; qtot 0.379407
 2976         hc    102    bbb    H12   2976 0.06265900   1.008000   ; qtot 0.442066
 2977         c3    102    bbb     C7   2977 0.05858200  12.010000   ; qtot 0.500648
 2978         h1    102    bbb    H13   2978 0.06123400   1.008000   ; qtot 0.561882
 2979         h1    102    bbb    H14   2979 0.06123400   1.008000   ; qtot 0.623116
 2980         c3    102    bbb     C8   2980 -0.72423400  12.010000   ; qtot -0.101118
 2981         h1    102    bbb    H15   2981 0.25637600   1.008000   ; qtot 0.155258
 2982         h1    102    bbb    H16   2982 0.25637600   1.008000   ; qtot 0.411634
 2983         c3    102    bbb     C9   2983 -0.72423400  12.010000   ; qtot -0.312600
 2984         h1    102    bbb    H17   2984 0.25637600   1.008000   ; qtot -0.056224
 2985         h1    102    bbb    H18   2985 0.25637600   1.008000   ; qtot 0.200152
 2986         os    102    bbb     O1   2986 -0.20025300  16.000000   ; qtot -0.000101
; residue  103 bbb rtp bbb q -0.0
 2987         n3    103    bbb     N1   2987 -0.59685800  14.010000   ; qtot -0.596959
 2988         c3    103    bbb     C1   2988 0.10137000  12.010000   ; qtot -0.495589
 2989         h1    103    bbb     H1   2989 0.04411300   1.008000   ; qtot -0.451476
 2990         h1    103    bbb     H2   2990 0.04411300   1.008000   ; qtot -0.407363
 2991         c3    103    bbb     C2   2991 0.10137000  12.010000   ; qtot -0.305993
 2992         h1    103    bbb     H3   2992 0.04411300   1.008000   ; qtot -0.261880
 2993         h1    103    bbb     H4   2993 0.04411300   1.008000   ; qtot -0.217767
 2994         c3    103    bbb     C3   2994 -0.00195300  12.010000   ; qtot -0.219720
 2995         h1    103    bbb     H5   2995 0.05064400   1.008000   ; qtot -0.169076
 2996         h1    103    bbb     H6   2996 0.05064400   1.008000   ; qtot -0.118432
 2997         c3    103    bbb     C4   2997 -0.01612100  12.010000   ; qtot -0.134553
 2998         hc    103    bbb     H7   2998 0.04936100   1.008000   ; qtot -0.085192
 2999         hc    103    bbb     H8   2999 0.04936100   1.008000   ; qtot -0.035831
 3000         c3    103    bbb     C5   3000 0.11363000  12.010000   ; qtot 0.077799
 3001         hc    103    bbb     H9   3001 0.06265900   1.008000   ; qtot 0.140458
 3002         hc    103    bbb    H10   3002 0.06265900   1.008000   ; qtot 0.203117
 3003         c3    103    bbb     C6   3003 0.11363000  12.010000   ; qtot 0.316747
 3004         hc    103    bbb    H11   3004 0.06265900   1.008000   ; qtot 0.379406
 3005         hc    103    bbb    H12   3005 0.06265900   1.008000   ; qtot 0.442065
 3006         c3    103    bbb     C7   3006 0.05858200  12.010000   ; qtot 0.500647
 3007         h1    103    bbb    H13   3007 0.06123400   1.008000   ; qtot 0.561881
 3008         h1    103    bbb    H14   3008 0.06123400   1.008000   ; qtot 0.623115
 3009         c3    103    bbb     C8   3009 -0.72423400  12.010000   ; qtot -0.101119
 3010         h1    103    bbb    H15   3010 0.25637600   1.008000   ; qtot 0.155257
 3011         h1    103    bbb    H16   3011 0.25637600   1.008000   ; qtot 0.411633
 3012         c3    103    bbb     C9   3012 -0.72423400  12.010000   ; qtot -0.312601
 3013         h1    103    bbb    H17   3013 0.25637600   1.008000   ; qtot -0.056225
 3014         h1    103    bbb    H18   3014 0.25637600   1.008000   ; qtot 0.200151
 3015         os    103    bbb     O1   3015 -0.20025300  16.000000   ; qtot -0.000102
; residue  104 bbb rtp bbb q -0.0
 3016         n3    104    bbb     N1   3016 -0.59685800  14.010000   ; qtot -0.596960
 3017         c3    104    bbb     C1   3017 0.10137000  12.010000   ; qtot -0.495590
 3018         h1    104    bbb     H1   3018 0.04411300   1.008000   ; qtot -0.451477
 3019         h1    104    bbb     H2   3019 0.04411300   1.008000   ; qtot -0.407364
 3020         c3    104    bbb     C2   3020 0.10137000  12.010000   ; qtot -0.305994
 3021         h1    104    bbb     H3   3021 0.04411300   1.008000   ; qtot -0.261881
 3022         h1    104    bbb     H4   3022 0.04411300   1.008000   ; qtot -0.217768
 3023         c3    104    bbb     C3   3023 -0.00195300  12.010000   ; qtot -0.219721
 3024         h1    104    bbb     H5   3024 0.05064400   1.008000   ; qtot -0.169077
 3025         h1    104    bbb     H6   3025 0.05064400   1.008000   ; qtot -0.118433
 3026         c3    104    bbb     C4   3026 -0.01612100  12.010000   ; qtot -0.134554
 3027         hc    104    bbb     H7   3027 0.04936100   1.008000   ; qtot -0.085193
 3028         hc    104    bbb     H8   3028 0.04936100   1.008000   ; qtot -0.035832
 3029         c3    104    bbb     C5   3029 0.11363000  12.010000   ; qtot 0.077798
 3030         hc    104    bbb     H9   3030 0.06265900   1.008000   ; qtot 0.140457
 3031         hc    104    bbb    H10   3031 0.06265900   1.008000   ; qtot 0.203116
 3032         c3    104    bbb     C6   3032 0.11363000  12.010000   ; qtot 0.316746
 3033         hc    104    bbb    H11   3033 0.06265900   1.008000   ; qtot 0.379405
 3034         hc    104    bbb    H12   3034 0.06265900   1.008000   ; qtot 0.442064
 3035         c3    104    bbb     C7   3035 0.05858200  12.010000   ; qtot 0.500646
 3036         h1    104    bbb    H13   3036 0.06123400   1.008000   ; qtot 0.561880
 3037         h1    104    bbb    H14   3037 0.06123400   1.008000   ; qtot 0.623114
 3038         c3    104    bbb     C8   3038 -0.72423400  12.010000   ; qtot -0.101120
 3039         h1    104    bbb    H15   3039 0.25637600   1.008000   ; qtot 0.155256
 3040         h1    104    bbb    H16   3040 0.25637600   1.008000   ; qtot 0.411632
 3041         c3    104    bbb     C9   3041 -0.72423400  12.010000   ; qtot -0.312602
 3042         h1    104    bbb    H17   3042 0.25637600   1.008000   ; qtot -0.056226
 3043         h1    104    bbb    H18   3043 0.25637600   1.008000   ; qtot 0.200150
 3044         os    104    bbb     O1   3044 -0.20025300  16.000000   ; qtot -0.000103
; residue  105 bbb rtp bbb q -0.0
 3045         n3    105    bbb     N1   3045 -0.59685800  14.010000   ; qtot -0.596961
 3046         c3    105    bbb     C1   3046 0.10137000  12.010000   ; qtot -0.495591
 3047         h1    105    bbb     H1   3047 0.04411300   1.008000   ; qtot -0.451478
 3048         h1    105    bbb     H2   3048 0.04411300   1.008000   ; qtot -0.407365
 3049         c3    105    bbb     C2   3049 0.10137000  12.010000   ; qtot -0.305995
 3050         h1    105    bbb     H3   3050 0.04411300   1.008000   ; qtot -0.261882
 3051         h1    105    bbb     H4   3051 0.04411300   1.008000   ; qtot -0.217769
 3052         c3    105    bbb     C3   3052 -0.00195300  12.010000   ; qtot -0.219722
 3053         h1    105    bbb     H5   3053 0.05064400   1.008000   ; qtot -0.169078
 3054         h1    105    bbb     H6   3054 0.05064400   1.008000   ; qtot -0.118434
 3055         c3    105    bbb     C4   3055 -0.01612100  12.010000   ; qtot -0.134555
 3056         hc    105    bbb     H7   3056 0.04936100   1.008000   ; qtot -0.085194
 3057         hc    105    bbb     H8   3057 0.04936100   1.008000   ; qtot -0.035833
 3058         c3    105    bbb     C5   3058 0.11363000  12.010000   ; qtot 0.077797
 3059         hc    105    bbb     H9   3059 0.06265900   1.008000   ; qtot 0.140456
 3060         hc    105    bbb    H10   3060 0.06265900   1.008000   ; qtot 0.203115
 3061         c3    105    bbb     C6   3061 0.11363000  12.010000   ; qtot 0.316745
 3062         hc    105    bbb    H11   3062 0.06265900   1.008000   ; qtot 0.379404
 3063         hc    105    bbb    H12   3063 0.06265900   1.008000   ; qtot 0.442063
 3064         c3    105    bbb     C7   3064 0.05858200  12.010000   ; qtot 0.500645
 3065         h1    105    bbb    H13   3065 0.06123400   1.008000   ; qtot 0.561879
 3066         h1    105    bbb    H14   3066 0.06123400   1.008000   ; qtot 0.623113
 3067         c3    105    bbb     C8   3067 -0.72423400  12.010000   ; qtot -0.101121
 3068         h1    105    bbb    H15   3068 0.25637600   1.008000   ; qtot 0.155255
 3069         h1    105    bbb    H16   3069 0.25637600   1.008000   ; qtot 0.411631
 3070         c3    105    bbb     C9   3070 -0.72423400  12.010000   ; qtot -0.312603
 3071         h1    105    bbb    H17   3071 0.25637600   1.008000   ; qtot -0.056227
 3072         h1    105    bbb    H18   3072 0.25637600   1.008000   ; qtot 0.200149
 3073         os    105    bbb     O1   3073 -0.20025300  16.000000   ; qtot -0.000104
; residue  106 bbb rtp bbb q -0.0
 3074         n3    106    bbb     N1   3074 -0.59685800  14.010000   ; qtot -0.596962
 3075         c3    106    bbb     C1   3075 0.10137000  12.010000   ; qtot -0.495592
 3076         h1    106    bbb     H1   3076 0.04411300   1.008000   ; qtot -0.451479
 3077         h1    106    bbb     H2   3077 0.04411300   1.008000   ; qtot -0.407366
 3078         c3    106    bbb     C2   3078 0.10137000  12.010000   ; qtot -0.305996
 3079         h1    106    bbb     H3   3079 0.04411300   1.008000   ; qtot -0.261883
 3080         h1    106    bbb     H4   3080 0.04411300   1.008000   ; qtot -0.217770
 3081         c3    106    bbb     C3   3081 -0.00195300  12.010000   ; qtot -0.219723
 3082         h1    106    bbb     H5   3082 0.05064400   1.008000   ; qtot -0.169079
 3083         h1    106    bbb     H6   3083 0.05064400   1.008000   ; qtot -0.118435
 3084         c3    106    bbb     C4   3084 -0.01612100  12.010000   ; qtot -0.134556
 3085         hc    106    bbb     H7   3085 0.04936100   1.008000   ; qtot -0.085195
 3086         hc    106    bbb     H8   3086 0.04936100   1.008000   ; qtot -0.035834
 3087         c3    106    bbb     C5   3087 0.11363000  12.010000   ; qtot 0.077796
 3088         hc    106    bbb     H9   3088 0.06265900   1.008000   ; qtot 0.140455
 3089         hc    106    bbb    H10   3089 0.06265900   1.008000   ; qtot 0.203114
 3090         c3    106    bbb     C6   3090 0.11363000  12.010000   ; qtot 0.316744
 3091         hc    106    bbb    H11   3091 0.06265900   1.008000   ; qtot 0.379403
 3092         hc    106    bbb    H12   3092 0.06265900   1.008000   ; qtot 0.442062
 3093         c3    106    bbb     C7   3093 0.05858200  12.010000   ; qtot 0.500644
 3094         h1    106    bbb    H13   3094 0.06123400   1.008000   ; qtot 0.561878
 3095         h1    106    bbb    H14   3095 0.06123400   1.008000   ; qtot 0.623112
 3096         c3    106    bbb     C8   3096 -0.72423400  12.010000   ; qtot -0.101122
 3097         h1    106    bbb    H15   3097 0.25637600   1.008000   ; qtot 0.155254
 3098         h1    106    bbb    H16   3098 0.25637600   1.008000   ; qtot 0.411630
 3099         c3    106    bbb     C9   3099 -0.72423400  12.010000   ; qtot -0.312604
 3100         h1    106    bbb    H17   3100 0.25637600   1.008000   ; qtot -0.056228
 3101         h1    106    bbb    H18   3101 0.25637600   1.008000   ; qtot 0.200148
 3102         os    106    bbb     O1   3102 -0.20025300  16.000000   ; qtot -0.000105
; residue  107 bbb rtp bbb q -0.0
 3103         n3    107    bbb     N1   3103 -0.59685800  14.010000   ; qtot -0.596963
 3104         c3    107    bbb     C1   3104 0.10137000  12.010000   ; qtot -0.495593
 3105         h1    107    bbb     H1   3105 0.04411300   1.008000   ; qtot -0.451480
 3106         h1    107    bbb     H2   3106 0.04411300   1.008000   ; qtot -0.407367
 3107         c3    107    bbb     C2   3107 0.10137000  12.010000   ; qtot -0.305997
 3108         h1    107    bbb     H3   3108 0.04411300   1.008000   ; qtot -0.261884
 3109         h1    107    bbb     H4   3109 0.04411300   1.008000   ; qtot -0.217771
 3110         c3    107    bbb     C3   3110 -0.00195300  12.010000   ; qtot -0.219724
 3111         h1    107    bbb     H5   3111 0.05064400   1.008000   ; qtot -0.169080
 3112         h1    107    bbb     H6   3112 0.05064400   1.008000   ; qtot -0.118436
 3113         c3    107    bbb     C4   3113 -0.01612100  12.010000   ; qtot -0.134557
 3114         hc    107    bbb     H7   3114 0.04936100   1.008000   ; qtot -0.085196
 3115         hc    107    bbb     H8   3115 0.04936100   1.008000   ; qtot -0.035835
 3116         c3    107    bbb     C5   3116 0.11363000  12.010000   ; qtot 0.077795
 3117         hc    107    bbb     H9   3117 0.06265900   1.008000   ; qtot 0.140454
 3118         hc    107    bbb    H10   3118 0.06265900   1.008000   ; qtot 0.203113
 3119         c3    107    bbb     C6   3119 0.11363000  12.010000   ; qtot 0.316743
 3120         hc    107    bbb    H11   3120 0.06265900   1.008000   ; qtot 0.379402
 3121         hc    107    bbb    H12   3121 0.06265900   1.008000   ; qtot 0.442061
 3122         c3    107    bbb     C7   3122 0.05858200  12.010000   ; qtot 0.500643
 3123         h1    107    bbb    H13   3123 0.06123400   1.008000   ; qtot 0.561877
 3124         h1    107    bbb    H14   3124 0.06123400   1.008000   ; qtot 0.623111
 3125         c3    107    bbb     C8   3125 -0.72423400  12.010000   ; qtot -0.101123
 3126         h1    107    bbb    H15   3126 0.25637600   1.008000   ; qtot 0.155253
 3127         h1    107    bbb    H16   3127 0.25637600   1.008000   ; qtot 0.411629
 3128         c3    107    bbb     C9   3128 -0.72423400  12.010000   ; qtot -0.312605
 3129         h1    107    bbb    H17   3129 0.25637600   1.008000   ; qtot -0.056229
 3130         h1    107    bbb    H18   3130 0.25637600   1.008000   ; qtot 0.200147
 3131         os    107    bbb     O1   3131 -0.20025300  16.000000   ; qtot -0.000106
; residue  108 bbb rtp bbb q -0.0
 3132         n3    108    bbb     N1   3132 -0.59685800  14.010000   ; qtot -0.596964
 3133         c3    108    bbb     C1   3133 0.10137000  12.010000   ; qtot -0.495594
 3134         h1    108    bbb     H1   3134 0.04411300   1.008000   ; qtot -0.451481
 3135         h1    108    bbb     H2   3135 0.04411300   1.008000   ; qtot -0.407368
 3136         c3    108    bbb     C2   3136 0.10137000  12.010000   ; qtot -0.305998
 3137         h1    108    bbb     H3   3137 0.04411300   1.008000   ; qtot -0.261885
 3138         h1    108    bbb     H4   3138 0.04411300   1.008000   ; qtot -0.217772
 3139         c3    108    bbb     C3   3139 -0.00195300  12.010000   ; qtot -0.219725
 3140         h1    108    bbb     H5   3140 0.05064400   1.008000   ; qtot -0.169081
 3141         h1    108    bbb     H6   3141 0.05064400   1.008000   ; qtot -0.118437
 3142         c3    108    bbb     C4   3142 -0.01612100  12.010000   ; qtot -0.134558
 3143         hc    108    bbb     H7   3143 0.04936100   1.008000   ; qtot -0.085197
 3144         hc    108    bbb     H8   3144 0.04936100   1.008000   ; qtot -0.035836
 3145         c3    108    bbb     C5   3145 0.11363000  12.010000   ; qtot 0.077794
 3146         hc    108    bbb     H9   3146 0.06265900   1.008000   ; qtot 0.140453
 3147         hc    108    bbb    H10   3147 0.06265900   1.008000   ; qtot 0.203112
 3148         c3    108    bbb     C6   3148 0.11363000  12.010000   ; qtot 0.316742
 3149         hc    108    bbb    H11   3149 0.06265900   1.008000   ; qtot 0.379401
 3150         hc    108    bbb    H12   3150 0.06265900   1.008000   ; qtot 0.442060
 3151         c3    108    bbb     C7   3151 0.05858200  12.010000   ; qtot 0.500642
 3152         h1    108    bbb    H13   3152 0.06123400   1.008000   ; qtot 0.561876
 3153         h1    108    bbb    H14   3153 0.06123400   1.008000   ; qtot 0.623110
 3154         c3    108    bbb     C8   3154 -0.72423400  12.010000   ; qtot -0.101124
 3155         h1    108    bbb    H15   3155 0.25637600   1.008000   ; qtot 0.155252
 3156         h1    108    bbb    H16   3156 0.25637600   1.008000   ; qtot 0.411628
 3157         c3    108    bbb     C9   3157 -0.72423400  12.010000   ; qtot -0.312606
 3158         h1    108    bbb    H17   3158 0.25637600   1.008000   ; qtot -0.056230
 3159         h1    108    bbb    H18   3159 0.25637600   1.008000   ; qtot 0.200146
 3160         os    108    bbb     O1   3160 -0.20025300  16.000000   ; qtot -0.000107
; residue  109 bbb rtp bbb q -0.0
 3161         n3    109    bbb     N1   3161 -0.59685800  14.010000   ; qtot -0.596965
 3162         c3    109    bbb     C1   3162 0.10137000  12.010000   ; qtot -0.495595
 3163         h1    109    bbb     H1   3163 0.04411300   1.008000   ; qtot -0.451482
 3164         h1    109    bbb     H2   3164 0.04411300   1.008000   ; qtot -0.407369
 3165         c3    109    bbb     C2   3165 0.10137000  12.010000   ; qtot -0.305999
 3166         h1    109    bbb     H3   3166 0.04411300   1.008000   ; qtot -0.261886
 3167         h1    109    bbb     H4   3167 0.04411300   1.008000   ; qtot -0.217773
 3168         c3    109    bbb     C3   3168 -0.00195300  12.010000   ; qtot -0.219726
 3169         h1    109    bbb     H5   3169 0.05064400   1.008000   ; qtot -0.169082
 3170         h1    109    bbb     H6   3170 0.05064400   1.008000   ; qtot -0.118438
 3171         c3    109    bbb     C4   3171 -0.01612100  12.010000   ; qtot -0.134559
 3172         hc    109    bbb     H7   3172 0.04936100   1.008000   ; qtot -0.085198
 3173         hc    109    bbb     H8   3173 0.04936100   1.008000   ; qtot -0.035837
 3174         c3    109    bbb     C5   3174 0.11363000  12.010000   ; qtot 0.077793
 3175         hc    109    bbb     H9   3175 0.06265900   1.008000   ; qtot 0.140452
 3176         hc    109    bbb    H10   3176 0.06265900   1.008000   ; qtot 0.203111
 3177         c3    109    bbb     C6   3177 0.11363000  12.010000   ; qtot 0.316741
 3178         hc    109    bbb    H11   3178 0.06265900   1.008000   ; qtot 0.379400
 3179         hc    109    bbb    H12   3179 0.06265900   1.008000   ; qtot 0.442059
 3180         c3    109    bbb     C7   3180 0.05858200  12.010000   ; qtot 0.500641
 3181         h1    109    bbb    H13   3181 0.06123400   1.008000   ; qtot 0.561875
 3182         h1    109    bbb    H14   3182 0.06123400   1.008000   ; qtot 0.623109
 3183         c3    109    bbb     C8   3183 -0.72423400  12.010000   ; qtot -0.101125
 3184         h1    109    bbb    H15   3184 0.25637600   1.008000   ; qtot 0.155251
 3185         h1    109    bbb    H16   3185 0.25637600   1.008000   ; qtot 0.411627
 3186         c3    109    bbb     C9   3186 -0.72423400  12.010000   ; qtot -0.312607
 3187         h1    109    bbb    H17   3187 0.25637600   1.008000   ; qtot -0.056231
 3188         h1    109    bbb    H18   3188 0.25637600   1.008000   ; qtot 0.200145
 3189         os    109    bbb     O1   3189 -0.20025300  16.000000   ; qtot -0.000108
; residue  110 bbb rtp bbb q -0.0
 3190         n3    110    bbb     N1   3190 -0.59685800  14.010000   ; qtot -0.596966
 3191         c3    110    bbb     C1   3191 0.10137000  12.010000   ; qtot -0.495596
 3192         h1    110    bbb     H1   3192 0.04411300   1.008000   ; qtot -0.451483
 3193         h1    110    bbb     H2   3193 0.04411300   1.008000   ; qtot -0.407370
 3194         c3    110    bbb     C2   3194 0.10137000  12.010000   ; qtot -0.306000
 3195         h1    110    bbb     H3   3195 0.04411300   1.008000   ; qtot -0.261887
 3196         h1    110    bbb     H4   3196 0.04411300   1.008000   ; qtot -0.217774
 3197         c3    110    bbb     C3   3197 -0.00195300  12.010000   ; qtot -0.219727
 3198         h1    110    bbb     H5   3198 0.05064400   1.008000   ; qtot -0.169083
 3199         h1    110    bbb     H6   3199 0.05064400   1.008000   ; qtot -0.118439
 3200         c3    110    bbb     C4   3200 -0.01612100  12.010000   ; qtot -0.134560
 3201         hc    110    bbb     H7   3201 0.04936100   1.008000   ; qtot -0.085199
 3202         hc    110    bbb     H8   3202 0.04936100   1.008000   ; qtot -0.035838
 3203         c3    110    bbb     C5   3203 0.11363000  12.010000   ; qtot 0.077792
 3204         hc    110    bbb     H9   3204 0.06265900   1.008000   ; qtot 0.140451
 3205         hc    110    bbb    H10   3205 0.06265900   1.008000   ; qtot 0.203110
 3206         c3    110    bbb     C6   3206 0.11363000  12.010000   ; qtot 0.316740
 3207         hc    110    bbb    H11   3207 0.06265900   1.008000   ; qtot 0.379399
 3208         hc    110    bbb    H12   3208 0.06265900   1.008000   ; qtot 0.442058
 3209         c3    110    bbb     C7   3209 0.05858200  12.010000   ; qtot 0.500640
 3210         h1    110    bbb    H13   3210 0.06123400   1.008000   ; qtot 0.561874
 3211         h1    110    bbb    H14   3211 0.06123400   1.008000   ; qtot 0.623108
 3212         c3    110    bbb     C8   3212 -0.72423400  12.010000   ; qtot -0.101126
 3213         h1    110    bbb    H15   3213 0.25637600   1.008000   ; qtot 0.155250
 3214         h1    110    bbb    H16   3214 0.25637600   1.008000   ; qtot 0.411626
 3215         c3    110    bbb     C9   3215 -0.72423400  12.010000   ; qtot -0.312608
 3216         h1    110    bbb    H17   3216 0.25637600   1.008000   ; qtot -0.056232
 3217         h1    110    bbb    H18   3217 0.25637600   1.008000   ; qtot 0.200144
 3218         os    110    bbb     O1   3218 -0.20025300  16.000000   ; qtot -0.000109
; residue  111 bbb rtp bbb q -0.0
 3219         n3    111    bbb     N1   3219 -0.59685800  14.010000   ; qtot -0.596967
 3220         c3    111    bbb     C1   3220 0.10137000  12.010000   ; qtot -0.495597
 3221         h1    111    bbb     H1   3221 0.04411300   1.008000   ; qtot -0.451484
 3222         h1    111    bbb     H2   3222 0.04411300   1.008000   ; qtot -0.407371
 3223         c3    111    bbb     C2   3223 0.10137000  12.010000   ; qtot -0.306001
 3224         h1    111    bbb     H3   3224 0.04411300   1.008000   ; qtot -0.261888
 3225         h1    111    bbb     H4   3225 0.04411300   1.008000   ; qtot -0.217775
 3226         c3    111    bbb     C3   3226 -0.00195300  12.010000   ; qtot -0.219728
 3227         h1    111    bbb     H5   3227 0.05064400   1.008000   ; qtot -0.169084
 3228         h1    111    bbb     H6   3228 0.05064400   1.008000   ; qtot -0.118440
 3229         c3    111    bbb     C4   3229 -0.01612100  12.010000   ; qtot -0.134561
 3230         hc    111    bbb     H7   3230 0.04936100   1.008000   ; qtot -0.085200
 3231         hc    111    bbb     H8   3231 0.04936100   1.008000   ; qtot -0.035839
 3232         c3    111    bbb     C5   3232 0.11363000  12.010000   ; qtot 0.077791
 3233         hc    111    bbb     H9   3233 0.06265900   1.008000   ; qtot 0.140450
 3234         hc    111    bbb    H10   3234 0.06265900   1.008000   ; qtot 0.203109
 3235         c3    111    bbb     C6   3235 0.11363000  12.010000   ; qtot 0.316739
 3236         hc    111    bbb    H11   3236 0.06265900   1.008000   ; qtot 0.379398
 3237         hc    111    bbb    H12   3237 0.06265900   1.008000   ; qtot 0.442057
 3238         c3    111    bbb     C7   3238 0.05858200  12.010000   ; qtot 0.500639
 3239         h1    111    bbb    H13   3239 0.06123400   1.008000   ; qtot 0.561873
 3240         h1    111    bbb    H14   3240 0.06123400   1.008000   ; qtot 0.623107
 3241         c3    111    bbb     C8   3241 -0.72423400  12.010000   ; qtot -0.101127
 3242         h1    111    bbb    H15   3242 0.25637600   1.008000   ; qtot 0.155249
 3243         h1    111    bbb    H16   3243 0.25637600   1.008000   ; qtot 0.411625
 3244         c3    111    bbb     C9   3244 -0.72423400  12.010000   ; qtot -0.312609
 3245         h1    111    bbb    H17   3245 0.25637600   1.008000   ; qtot -0.056233
 3246         h1    111    bbb    H18   3246 0.25637600   1.008000   ; qtot 0.200143
 3247         os    111    bbb     O1   3247 -0.20025300  16.000000   ; qtot -0.000110
; residue  112 bbb rtp bbb q -0.0
 3248         n3    112    bbb     N1   3248 -0.59685800  14.010000   ; qtot -0.596968
 3249         c3    112    bbb     C1   3249 0.10137000  12.010000   ; qtot -0.495598
 3250         h1    112    bbb     H1   3250 0.04411300   1.008000   ; qtot -0.451485
 3251         h1    112    bbb     H2   3251 0.04411300   1.008000   ; qtot -0.407372
 3252         c3    112    bbb     C2   3252 0.10137000  12.010000   ; qtot -0.306002
 3253         h1    112    bbb     H3   3253 0.04411300   1.008000   ; qtot -0.261889
 3254         h1    112    bbb     H4   3254 0.04411300   1.008000   ; qtot -0.217776
 3255         c3    112    bbb     C3   3255 -0.00195300  12.010000   ; qtot -0.219729
 3256         h1    112    bbb     H5   3256 0.05064400   1.008000   ; qtot -0.169085
 3257         h1    112    bbb     H6   3257 0.05064400   1.008000   ; qtot -0.118441
 3258         c3    112    bbb     C4   3258 -0.01612100  12.010000   ; qtot -0.134562
 3259         hc    112    bbb     H7   3259 0.04936100   1.008000   ; qtot -0.085201
 3260         hc    112    bbb     H8   3260 0.04936100   1.008000   ; qtot -0.035840
 3261         c3    112    bbb     C5   3261 0.11363000  12.010000   ; qtot 0.077790
 3262         hc    112    bbb     H9   3262 0.06265900   1.008000   ; qtot 0.140449
 3263         hc    112    bbb    H10   3263 0.06265900   1.008000   ; qtot 0.203108
 3264         c3    112    bbb     C6   3264 0.11363000  12.010000   ; qtot 0.316738
 3265         hc    112    bbb    H11   3265 0.06265900   1.008000   ; qtot 0.379397
 3266         hc    112    bbb    H12   3266 0.06265900   1.008000   ; qtot 0.442056
 3267         c3    112    bbb     C7   3267 0.05858200  12.010000   ; qtot 0.500638
 3268         h1    112    bbb    H13   3268 0.06123400   1.008000   ; qtot 0.561872
 3269         h1    112    bbb    H14   3269 0.06123400   1.008000   ; qtot 0.623106
 3270         c3    112    bbb     C8   3270 -0.72423400  12.010000   ; qtot -0.101128
 3271         h1    112    bbb    H15   3271 0.25637600   1.008000   ; qtot 0.155248
 3272         h1    112    bbb    H16   3272 0.25637600   1.008000   ; qtot 0.411624
 3273         c3    112    bbb     C9   3273 -0.72423400  12.010000   ; qtot -0.312610
 3274         h1    112    bbb    H17   3274 0.25637600   1.008000   ; qtot -0.056234
 3275         h1    112    bbb    H18   3275 0.25637600   1.008000   ; qtot 0.200142
 3276         os    112    bbb     O1   3276 -0.20025300  16.000000   ; qtot -0.000111
; residue  113 bbb rtp bbb q -0.0
 3277         n3    113    bbb     N1   3277 -0.59685800  14.010000   ; qtot -0.596969
 3278         c3    113    bbb     C1   3278 0.10137000  12.010000   ; qtot -0.495599
 3279         h1    113    bbb     H1   3279 0.04411300   1.008000   ; qtot -0.451486
 3280         h1    113    bbb     H2   3280 0.04411300   1.008000   ; qtot -0.407373
 3281         c3    113    bbb     C2   3281 0.10137000  12.010000   ; qtot -0.306003
 3282         h1    113    bbb     H3   3282 0.04411300   1.008000   ; qtot -0.261890
 3283         h1    113    bbb     H4   3283 0.04411300   1.008000   ; qtot -0.217777
 3284         c3    113    bbb     C3   3284 -0.00195300  12.010000   ; qtot -0.219730
 3285         h1    113    bbb     H5   3285 0.05064400   1.008000   ; qtot -0.169086
 3286         h1    113    bbb     H6   3286 0.05064400   1.008000   ; qtot -0.118442
 3287         c3    113    bbb     C4   3287 -0.01612100  12.010000   ; qtot -0.134563
 3288         hc    113    bbb     H7   3288 0.04936100   1.008000   ; qtot -0.085202
 3289         hc    113    bbb     H8   3289 0.04936100   1.008000   ; qtot -0.035841
 3290         c3    113    bbb     C5   3290 0.11363000  12.010000   ; qtot 0.077789
 3291         hc    113    bbb     H9   3291 0.06265900   1.008000   ; qtot 0.140448
 3292         hc    113    bbb    H10   3292 0.06265900   1.008000   ; qtot 0.203107
 3293         c3    113    bbb     C6   3293 0.11363000  12.010000   ; qtot 0.316737
 3294         hc    113    bbb    H11   3294 0.06265900   1.008000   ; qtot 0.379396
 3295         hc    113    bbb    H12   3295 0.06265900   1.008000   ; qtot 0.442055
 3296         c3    113    bbb     C7   3296 0.05858200  12.010000   ; qtot 0.500637
 3297         h1    113    bbb    H13   3297 0.06123400   1.008000   ; qtot 0.561871
 3298         h1    113    bbb    H14   3298 0.06123400   1.008000   ; qtot 0.623105
 3299         c3    113    bbb     C8   3299 -0.72423400  12.010000   ; qtot -0.101129
 3300         h1    113    bbb    H15   3300 0.25637600   1.008000   ; qtot 0.155247
 3301         h1    113    bbb    H16   3301 0.25637600   1.008000   ; qtot 0.411623
 3302         c3    113    bbb     C9   3302 -0.72423400  12.010000   ; qtot -0.312611
 3303         h1    113    bbb    H17   3303 0.25637600   1.008000   ; qtot -0.056235
 3304         h1    113    bbb    H18   3304 0.25637600   1.008000   ; qtot 0.200141
 3305         os    113    bbb     O1   3305 -0.20025300  16.000000   ; qtot -0.000112
; residue  114 bbb rtp bbb q -0.0
 3306         n3    114    bbb     N1   3306 -0.59685800  14.010000   ; qtot -0.596970
 3307         c3    114    bbb     C1   3307 0.10137000  12.010000   ; qtot -0.495600
 3308         h1    114    bbb     H1   3308 0.04411300   1.008000   ; qtot -0.451487
 3309         h1    114    bbb     H2   3309 0.04411300   1.008000   ; qtot -0.407374
 3310         c3    114    bbb     C2   3310 0.10137000  12.010000   ; qtot -0.306004
 3311         h1    114    bbb     H3   3311 0.04411300   1.008000   ; qtot -0.261891
 3312         h1    114    bbb     H4   3312 0.04411300   1.008000   ; qtot -0.217778
 3313         c3    114    bbb     C3   3313 -0.00195300  12.010000   ; qtot -0.219731
 3314         h1    114    bbb     H5   3314 0.05064400   1.008000   ; qtot -0.169087
 3315         h1    114    bbb     H6   3315 0.05064400   1.008000   ; qtot -0.118443
 3316         c3    114    bbb     C4   3316 -0.01612100  12.010000   ; qtot -0.134564
 3317         hc    114    bbb     H7   3317 0.04936100   1.008000   ; qtot -0.085203
 3318         hc    114    bbb     H8   3318 0.04936100   1.008000   ; qtot -0.035842
 3319         c3    114    bbb     C5   3319 0.11363000  12.010000   ; qtot 0.077788
 3320         hc    114    bbb     H9   3320 0.06265900   1.008000   ; qtot 0.140447
 3321         hc    114    bbb    H10   3321 0.06265900   1.008000   ; qtot 0.203106
 3322         c3    114    bbb     C6   3322 0.11363000  12.010000   ; qtot 0.316736
 3323         hc    114    bbb    H11   3323 0.06265900   1.008000   ; qtot 0.379395
 3324         hc    114    bbb    H12   3324 0.06265900   1.008000   ; qtot 0.442054
 3325         c3    114    bbb     C7   3325 0.05858200  12.010000   ; qtot 0.500636
 3326         h1    114    bbb    H13   3326 0.06123400   1.008000   ; qtot 0.561870
 3327         h1    114    bbb    H14   3327 0.06123400   1.008000   ; qtot 0.623104
 3328         c3    114    bbb     C8   3328 -0.72423400  12.010000   ; qtot -0.101130
 3329         h1    114    bbb    H15   3329 0.25637600   1.008000   ; qtot 0.155246
 3330         h1    114    bbb    H16   3330 0.25637600   1.008000   ; qtot 0.411622
 3331         c3    114    bbb     C9   3331 -0.72423400  12.010000   ; qtot -0.312612
 3332         h1    114    bbb    H17   3332 0.25637600   1.008000   ; qtot -0.056236
 3333         h1    114    bbb    H18   3333 0.25637600   1.008000   ; qtot 0.200140
 3334         os    114    bbb     O1   3334 -0.20025300  16.000000   ; qtot -0.000113
; residue  115 bbb rtp bbb q -0.0
 3335         n3    115    bbb     N1   3335 -0.59685800  14.010000   ; qtot -0.596971
 3336         c3    115    bbb     C1   3336 0.10137000  12.010000   ; qtot -0.495601
 3337         h1    115    bbb     H1   3337 0.04411300   1.008000   ; qtot -0.451488
 3338         h1    115    bbb     H2   3338 0.04411300   1.008000   ; qtot -0.407375
 3339         c3    115    bbb     C2   3339 0.10137000  12.010000   ; qtot -0.306005
 3340         h1    115    bbb     H3   3340 0.04411300   1.008000   ; qtot -0.261892
 3341         h1    115    bbb     H4   3341 0.04411300   1.008000   ; qtot -0.217779
 3342         c3    115    bbb     C3   3342 -0.00195300  12.010000   ; qtot -0.219732
 3343         h1    115    bbb     H5   3343 0.05064400   1.008000   ; qtot -0.169088
 3344         h1    115    bbb     H6   3344 0.05064400   1.008000   ; qtot -0.118444
 3345         c3    115    bbb     C4   3345 -0.01612100  12.010000   ; qtot -0.134565
 3346         hc    115    bbb     H7   3346 0.04936100   1.008000   ; qtot -0.085204
 3347         hc    115    bbb     H8   3347 0.04936100   1.008000   ; qtot -0.035843
 3348         c3    115    bbb     C5   3348 0.11363000  12.010000   ; qtot 0.077787
 3349         hc    115    bbb     H9   3349 0.06265900   1.008000   ; qtot 0.140446
 3350         hc    115    bbb    H10   3350 0.06265900   1.008000   ; qtot 0.203105
 3351         c3    115    bbb     C6   3351 0.11363000  12.010000   ; qtot 0.316735
 3352         hc    115    bbb    H11   3352 0.06265900   1.008000   ; qtot 0.379394
 3353         hc    115    bbb    H12   3353 0.06265900   1.008000   ; qtot 0.442053
 3354         c3    115    bbb     C7   3354 0.05858200  12.010000   ; qtot 0.500635
 3355         h1    115    bbb    H13   3355 0.06123400   1.008000   ; qtot 0.561869
 3356         h1    115    bbb    H14   3356 0.06123400   1.008000   ; qtot 0.623103
 3357         c3    115    bbb     C8   3357 -0.72423400  12.010000   ; qtot -0.101131
 3358         h1    115    bbb    H15   3358 0.25637600   1.008000   ; qtot 0.155245
 3359         h1    115    bbb    H16   3359 0.25637600   1.008000   ; qtot 0.411621
 3360         c3    115    bbb     C9   3360 -0.72423400  12.010000   ; qtot -0.312613
 3361         h1    115    bbb    H17   3361 0.25637600   1.008000   ; qtot -0.056237
 3362         h1    115    bbb    H18   3362 0.25637600   1.008000   ; qtot 0.200139
 3363         os    115    bbb     O1   3363 -0.20025300  16.000000   ; qtot -0.000114
; residue  116 bbb rtp bbb q -0.0
 3364         n3    116    bbb     N1   3364 -0.59685800  14.010000   ; qtot -0.596972
 3365         c3    116    bbb     C1   3365 0.10137000  12.010000   ; qtot -0.495602
 3366         h1    116    bbb     H1   3366 0.04411300   1.008000   ; qtot -0.451489
 3367         h1    116    bbb     H2   3367 0.04411300   1.008000   ; qtot -0.407376
 3368         c3    116    bbb     C2   3368 0.10137000  12.010000   ; qtot -0.306006
 3369         h1    116    bbb     H3   3369 0.04411300   1.008000   ; qtot -0.261893
 3370         h1    116    bbb     H4   3370 0.04411300   1.008000   ; qtot -0.217780
 3371         c3    116    bbb     C3   3371 -0.00195300  12.010000   ; qtot -0.219733
 3372         h1    116    bbb     H5   3372 0.05064400   1.008000   ; qtot -0.169089
 3373         h1    116    bbb     H6   3373 0.05064400   1.008000   ; qtot -0.118445
 3374         c3    116    bbb     C4   3374 -0.01612100  12.010000   ; qtot -0.134566
 3375         hc    116    bbb     H7   3375 0.04936100   1.008000   ; qtot -0.085205
 3376         hc    116    bbb     H8   3376 0.04936100   1.008000   ; qtot -0.035844
 3377         c3    116    bbb     C5   3377 0.11363000  12.010000   ; qtot 0.077786
 3378         hc    116    bbb     H9   3378 0.06265900   1.008000   ; qtot 0.140445
 3379         hc    116    bbb    H10   3379 0.06265900   1.008000   ; qtot 0.203104
 3380         c3    116    bbb     C6   3380 0.11363000  12.010000   ; qtot 0.316734
 3381         hc    116    bbb    H11   3381 0.06265900   1.008000   ; qtot 0.379393
 3382         hc    116    bbb    H12   3382 0.06265900   1.008000   ; qtot 0.442052
 3383         c3    116    bbb     C7   3383 0.05858200  12.010000   ; qtot 0.500634
 3384         h1    116    bbb    H13   3384 0.06123400   1.008000   ; qtot 0.561868
 3385         h1    116    bbb    H14   3385 0.06123400   1.008000   ; qtot 0.623102
 3386         c3    116    bbb     C8   3386 -0.72423400  12.010000   ; qtot -0.101132
 3387         h1    116    bbb    H15   3387 0.25637600   1.008000   ; qtot 0.155244
 3388         h1    116    bbb    H16   3388 0.25637600   1.008000   ; qtot 0.411620
 3389         c3    116    bbb     C9   3389 -0.72423400  12.010000   ; qtot -0.312614
 3390         h1    116    bbb    H17   3390 0.25637600   1.008000   ; qtot -0.056238
 3391         h1    116    bbb    H18   3391 0.25637600   1.008000   ; qtot 0.200138
 3392         os    116    bbb     O1   3392 -0.20025300  16.000000   ; qtot -0.000115
; residue  117 bbb rtp bbb q -0.0
 3393         n3    117    bbb     N1   3393 -0.59685800  14.010000   ; qtot -0.596973
 3394         c3    117    bbb     C1   3394 0.10137000  12.010000   ; qtot -0.495603
 3395         h1    117    bbb     H1   3395 0.04411300   1.008000   ; qtot -0.451490
 3396         h1    117    bbb     H2   3396 0.04411300   1.008000   ; qtot -0.407377
 3397         c3    117    bbb     C2   3397 0.10137000  12.010000   ; qtot -0.306007
 3398         h1    117    bbb     H3   3398 0.04411300   1.008000   ; qtot -0.261894
 3399         h1    117    bbb     H4   3399 0.04411300   1.008000   ; qtot -0.217781
 3400         c3    117    bbb     C3   3400 -0.00195300  12.010000   ; qtot -0.219734
 3401         h1    117    bbb     H5   3401 0.05064400   1.008000   ; qtot -0.169090
 3402         h1    117    bbb     H6   3402 0.05064400   1.008000   ; qtot -0.118446
 3403         c3    117    bbb     C4   3403 -0.01612100  12.010000   ; qtot -0.134567
 3404         hc    117    bbb     H7   3404 0.04936100   1.008000   ; qtot -0.085206
 3405         hc    117    bbb     H8   3405 0.04936100   1.008000   ; qtot -0.035845
 3406         c3    117    bbb     C5   3406 0.11363000  12.010000   ; qtot 0.077785
 3407         hc    117    bbb     H9   3407 0.06265900   1.008000   ; qtot 0.140444
 3408         hc    117    bbb    H10   3408 0.06265900   1.008000   ; qtot 0.203103
 3409         c3    117    bbb     C6   3409 0.11363000  12.010000   ; qtot 0.316733
 3410         hc    117    bbb    H11   3410 0.06265900   1.008000   ; qtot 0.379392
 3411         hc    117    bbb    H12   3411 0.06265900   1.008000   ; qtot 0.442051
 3412         c3    117    bbb     C7   3412 0.05858200  12.010000   ; qtot 0.500633
 3413         h1    117    bbb    H13   3413 0.06123400   1.008000   ; qtot 0.561867
 3414         h1    117    bbb    H14   3414 0.06123400   1.008000   ; qtot 0.623101
 3415         c3    117    bbb     C8   3415 -0.72423400  12.010000   ; qtot -0.101133
 3416         h1    117    bbb    H15   3416 0.25637600   1.008000   ; qtot 0.155243
 3417         h1    117    bbb    H16   3417 0.25637600   1.008000   ; qtot 0.411619
 3418         c3    117    bbb     C9   3418 -0.72423400  12.010000   ; qtot -0.312615
 3419         h1    117    bbb    H17   3419 0.25637600   1.008000   ; qtot -0.056239
 3420         h1    117    bbb    H18   3420 0.25637600   1.008000   ; qtot 0.200137
 3421         os    117    bbb     O1   3421 -0.20025300  16.000000   ; qtot -0.000116
; residue  118 bbb rtp bbb q -0.0
 3422         n3    118    bbb     N1   3422 -0.59685800  14.010000   ; qtot -0.596974
 3423         c3    118    bbb     C1   3423 0.10137000  12.010000   ; qtot -0.495604
 3424         h1    118    bbb     H1   3424 0.04411300   1.008000   ; qtot -0.451491
 3425         h1    118    bbb     H2   3425 0.04411300   1.008000   ; qtot -0.407378
 3426         c3    118    bbb     C2   3426 0.10137000  12.010000   ; qtot -0.306008
 3427         h1    118    bbb     H3   3427 0.04411300   1.008000   ; qtot -0.261895
 3428         h1    118    bbb     H4   3428 0.04411300   1.008000   ; qtot -0.217782
 3429         c3    118    bbb     C3   3429 -0.00195300  12.010000   ; qtot -0.219735
 3430         h1    118    bbb     H5   3430 0.05064400   1.008000   ; qtot -0.169091
 3431         h1    118    bbb     H6   3431 0.05064400   1.008000   ; qtot -0.118447
 3432         c3    118    bbb     C4   3432 -0.01612100  12.010000   ; qtot -0.134568
 3433         hc    118    bbb     H7   3433 0.04936100   1.008000   ; qtot -0.085207
 3434         hc    118    bbb     H8   3434 0.04936100   1.008000   ; qtot -0.035846
 3435         c3    118    bbb     C5   3435 0.11363000  12.010000   ; qtot 0.077784
 3436         hc    118    bbb     H9   3436 0.06265900   1.008000   ; qtot 0.140443
 3437         hc    118    bbb    H10   3437 0.06265900   1.008000   ; qtot 0.203102
 3438         c3    118    bbb     C6   3438 0.11363000  12.010000   ; qtot 0.316732
 3439         hc    118    bbb    H11   3439 0.06265900   1.008000   ; qtot 0.379391
 3440         hc    118    bbb    H12   3440 0.06265900   1.008000   ; qtot 0.442050
 3441         c3    118    bbb     C7   3441 0.05858200  12.010000   ; qtot 0.500632
 3442         h1    118    bbb    H13   3442 0.06123400   1.008000   ; qtot 0.561866
 3443         h1    118    bbb    H14   3443 0.06123400   1.008000   ; qtot 0.623100
 3444         c3    118    bbb     C8   3444 -0.72423400  12.010000   ; qtot -0.101134
 3445         h1    118    bbb    H15   3445 0.25637600   1.008000   ; qtot 0.155242
 3446         h1    118    bbb    H16   3446 0.25637600   1.008000   ; qtot 0.411618
 3447         c3    118    bbb     C9   3447 -0.72423400  12.010000   ; qtot -0.312616
 3448         h1    118    bbb    H17   3448 0.25637600   1.008000   ; qtot -0.056240
 3449         h1    118    bbb    H18   3449 0.25637600   1.008000   ; qtot 0.200136
 3450         os    118    bbb     O1   3450 -0.20025300  16.000000   ; qtot -0.000117
; residue  119 bbb rtp bbb q -0.0
 3451         n3    119    bbb     N1   3451 -0.59685800  14.010000   ; qtot -0.596975
 3452         c3    119    bbb     C1   3452 0.10137000  12.010000   ; qtot -0.495605
 3453         h1    119    bbb     H1   3453 0.04411300   1.008000   ; qtot -0.451492
 3454         h1    119    bbb     H2   3454 0.04411300   1.008000   ; qtot -0.407379
 3455         c3    119    bbb     C2   3455 0.10137000  12.010000   ; qtot -0.306009
 3456         h1    119    bbb     H3   3456 0.04411300   1.008000   ; qtot -0.261896
 3457         h1    119    bbb     H4   3457 0.04411300   1.008000   ; qtot -0.217783
 3458         c3    119    bbb     C3   3458 -0.00195300  12.010000   ; qtot -0.219736
 3459         h1    119    bbb     H5   3459 0.05064400   1.008000   ; qtot -0.169092
 3460         h1    119    bbb     H6   3460 0.05064400   1.008000   ; qtot -0.118448
 3461         c3    119    bbb     C4   3461 -0.01612100  12.010000   ; qtot -0.134569
 3462         hc    119    bbb     H7   3462 0.04936100   1.008000   ; qtot -0.085208
 3463         hc    119    bbb     H8   3463 0.04936100   1.008000   ; qtot -0.035847
 3464         c3    119    bbb     C5   3464 0.11363000  12.010000   ; qtot 0.077783
 3465         hc    119    bbb     H9   3465 0.06265900   1.008000   ; qtot 0.140442
 3466         hc    119    bbb    H10   3466 0.06265900   1.008000   ; qtot 0.203101
 3467         c3    119    bbb     C6   3467 0.11363000  12.010000   ; qtot 0.316731
 3468         hc    119    bbb    H11   3468 0.06265900   1.008000   ; qtot 0.379390
 3469         hc    119    bbb    H12   3469 0.06265900   1.008000   ; qtot 0.442049
 3470         c3    119    bbb     C7   3470 0.05858200  12.010000   ; qtot 0.500631
 3471         h1    119    bbb    H13   3471 0.06123400   1.008000   ; qtot 0.561865
 3472         h1    119    bbb    H14   3472 0.06123400   1.008000   ; qtot 0.623099
 3473         c3    119    bbb     C8   3473 -0.72423400  12.010000   ; qtot -0.101135
 3474         h1    119    bbb    H15   3474 0.25637600   1.008000   ; qtot 0.155241
 3475         h1    119    bbb    H16   3475 0.25637600   1.008000   ; qtot 0.411617
 3476         c3    119    bbb     C9   3476 -0.72423400  12.010000   ; qtot -0.312617
 3477         h1    119    bbb    H17   3477 0.25637600   1.008000   ; qtot -0.056241
 3478         h1    119    bbb    H18   3478 0.25637600   1.008000   ; qtot 0.200135
 3479         os    119    bbb     O1   3479 -0.20025300  16.000000   ; qtot -0.000118
; residue  120 bbb rtp bbb q -0.0
 3480         n3    120    bbb     N1   3480 -0.59685800  14.010000   ; qtot -0.596976
 3481         c3    120    bbb     C1   3481 0.10137000  12.010000   ; qtot -0.495606
 3482         h1    120    bbb     H1   3482 0.04411300   1.008000   ; qtot -0.451493
 3483         h1    120    bbb     H2   3483 0.04411300   1.008000   ; qtot -0.407380
 3484         c3    120    bbb     C2   3484 0.10137000  12.010000   ; qtot -0.306010
 3485         h1    120    bbb     H3   3485 0.04411300   1.008000   ; qtot -0.261897
 3486         h1    120    bbb     H4   3486 0.04411300   1.008000   ; qtot -0.217784
 3487         c3    120    bbb     C3   3487 -0.00195300  12.010000   ; qtot -0.219737
 3488         h1    120    bbb     H5   3488 0.05064400   1.008000   ; qtot -0.169093
 3489         h1    120    bbb     H6   3489 0.05064400   1.008000   ; qtot -0.118449
 3490         c3    120    bbb     C4   3490 -0.01612100  12.010000   ; qtot -0.134570
 3491         hc    120    bbb     H7   3491 0.04936100   1.008000   ; qtot -0.085209
 3492         hc    120    bbb     H8   3492 0.04936100   1.008000   ; qtot -0.035848
 3493         c3    120    bbb     C5   3493 0.11363000  12.010000   ; qtot 0.077782
 3494         hc    120    bbb     H9   3494 0.06265900   1.008000   ; qtot 0.140441
 3495         hc    120    bbb    H10   3495 0.06265900   1.008000   ; qtot 0.203100
 3496         c3    120    bbb     C6   3496 0.11363000  12.010000   ; qtot 0.316730
 3497         hc    120    bbb    H11   3497 0.06265900   1.008000   ; qtot 0.379389
 3498         hc    120    bbb    H12   3498 0.06265900   1.008000   ; qtot 0.442048
 3499         c3    120    bbb     C7   3499 0.05858200  12.010000   ; qtot 0.500630
 3500         h1    120    bbb    H13   3500 0.06123400   1.008000   ; qtot 0.561864
 3501         h1    120    bbb    H14   3501 0.06123400   1.008000   ; qtot 0.623098
 3502         c3    120    bbb     C8   3502 -0.72423400  12.010000   ; qtot -0.101136
 3503         h1    120    bbb    H15   3503 0.25637600   1.008000   ; qtot 0.155240
 3504         h1    120    bbb    H16   3504 0.25637600   1.008000   ; qtot 0.411616
 3505         c3    120    bbb     C9   3505 -0.72423400  12.010000   ; qtot -0.312618
 3506         h1    120    bbb    H17   3506 0.25637600   1.008000   ; qtot -0.056242
 3507         h1    120    bbb    H18   3507 0.25637600   1.008000   ; qtot 0.200134
 3508         os    120    bbb     O1   3508 -0.20025300  16.000000   ; qtot -0.000119
; residue  121 bbb rtp bbb q -0.0
 3509         n3    121    bbb     N1   3509 -0.59685800  14.010000   ; qtot -0.596977
 3510         c3    121    bbb     C1   3510 0.10137000  12.010000   ; qtot -0.495607
 3511         h1    121    bbb     H1   3511 0.04411300   1.008000   ; qtot -0.451494
 3512         h1    121    bbb     H2   3512 0.04411300   1.008000   ; qtot -0.407381
 3513         c3    121    bbb     C2   3513 0.10137000  12.010000   ; qtot -0.306011
 3514         h1    121    bbb     H3   3514 0.04411300   1.008000   ; qtot -0.261898
 3515         h1    121    bbb     H4   3515 0.04411300   1.008000   ; qtot -0.217785
 3516         c3    121    bbb     C3   3516 -0.00195300  12.010000   ; qtot -0.219738
 3517         h1    121    bbb     H5   3517 0.05064400   1.008000   ; qtot -0.169094
 3518         h1    121    bbb     H6   3518 0.05064400   1.008000   ; qtot -0.118450
 3519         c3    121    bbb     C4   3519 -0.01612100  12.010000   ; qtot -0.134571
 3520         hc    121    bbb     H7   3520 0.04936100   1.008000   ; qtot -0.085210
 3521         hc    121    bbb     H8   3521 0.04936100   1.008000   ; qtot -0.035849
 3522         c3    121    bbb     C5   3522 0.11363000  12.010000   ; qtot 0.077781
 3523         hc    121    bbb     H9   3523 0.06265900   1.008000   ; qtot 0.140440
 3524         hc    121    bbb    H10   3524 0.06265900   1.008000   ; qtot 0.203099
 3525         c3    121    bbb     C6   3525 0.11363000  12.010000   ; qtot 0.316729
 3526         hc    121    bbb    H11   3526 0.06265900   1.008000   ; qtot 0.379388
 3527         hc    121    bbb    H12   3527 0.06265900   1.008000   ; qtot 0.442047
 3528         c3    121    bbb     C7   3528 0.05858200  12.010000   ; qtot 0.500629
 3529         h1    121    bbb    H13   3529 0.06123400   1.008000   ; qtot 0.561863
 3530         h1    121    bbb    H14   3530 0.06123400   1.008000   ; qtot 0.623097
 3531         c3    121    bbb     C8   3531 -0.72423400  12.010000   ; qtot -0.101137
 3532         h1    121    bbb    H15   3532 0.25637600   1.008000   ; qtot 0.155239
 3533         h1    121    bbb    H16   3533 0.25637600   1.008000   ; qtot 0.411615
 3534         c3    121    bbb     C9   3534 -0.72423400  12.010000   ; qtot -0.312619
 3535         h1    121    bbb    H17   3535 0.25637600   1.008000   ; qtot -0.056243
 3536         h1    121    bbb    H18   3536 0.25637600   1.008000   ; qtot 0.200133
 3537         os    121    bbb     O1   3537 -0.20025300  16.000000   ; qtot -0.000120
; residue  122 bbb rtp bbb q -0.0
 3538         n3    122    bbb     N1   3538 -0.59685800  14.010000   ; qtot -0.596978
 3539         c3    122    bbb     C1   3539 0.10137000  12.010000   ; qtot -0.495608
 3540         h1    122    bbb     H1   3540 0.04411300   1.008000   ; qtot -0.451495
 3541         h1    122    bbb     H2   3541 0.04411300   1.008000   ; qtot -0.407382
 3542         c3    122    bbb     C2   3542 0.10137000  12.010000   ; qtot -0.306012
 3543         h1    122    bbb     H3   3543 0.04411300   1.008000   ; qtot -0.261899
 3544         h1    122    bbb     H4   3544 0.04411300   1.008000   ; qtot -0.217786
 3545         c3    122    bbb     C3   3545 -0.00195300  12.010000   ; qtot -0.219739
 3546         h1    122    bbb     H5   3546 0.05064400   1.008000   ; qtot -0.169095
 3547         h1    122    bbb     H6   3547 0.05064400   1.008000   ; qtot -0.118451
 3548         c3    122    bbb     C4   3548 -0.01612100  12.010000   ; qtot -0.134572
 3549         hc    122    bbb     H7   3549 0.04936100   1.008000   ; qtot -0.085211
 3550         hc    122    bbb     H8   3550 0.04936100   1.008000   ; qtot -0.035850
 3551         c3    122    bbb     C5   3551 0.11363000  12.010000   ; qtot 0.077780
 3552         hc    122    bbb     H9   3552 0.06265900   1.008000   ; qtot 0.140439
 3553         hc    122    bbb    H10   3553 0.06265900   1.008000   ; qtot 0.203098
 3554         c3    122    bbb     C6   3554 0.11363000  12.010000   ; qtot 0.316728
 3555         hc    122    bbb    H11   3555 0.06265900   1.008000   ; qtot 0.379387
 3556         hc    122    bbb    H12   3556 0.06265900   1.008000   ; qtot 0.442046
 3557         c3    122    bbb     C7   3557 0.05858200  12.010000   ; qtot 0.500628
 3558         h1    122    bbb    H13   3558 0.06123400   1.008000   ; qtot 0.561862
 3559         h1    122    bbb    H14   3559 0.06123400   1.008000   ; qtot 0.623096
 3560         c3    122    bbb     C8   3560 -0.72423400  12.010000   ; qtot -0.101138
 3561         h1    122    bbb    H15   3561 0.25637600   1.008000   ; qtot 0.155238
 3562         h1    122    bbb    H16   3562 0.25637600   1.008000   ; qtot 0.411614
 3563         c3    122    bbb     C9   3563 -0.72423400  12.010000   ; qtot -0.312620
 3564         h1    122    bbb    H17   3564 0.25637600   1.008000   ; qtot -0.056244
 3565         h1    122    bbb    H18   3565 0.25637600   1.008000   ; qtot 0.200132
 3566         os    122    bbb     O1   3566 -0.20025300  16.000000   ; qtot -0.000121
; residue  123 bbb rtp bbb q -0.0
 3567         n3    123    bbb     N1   3567 -0.59685800  14.010000   ; qtot -0.596979
 3568         c3    123    bbb     C1   3568 0.10137000  12.010000   ; qtot -0.495609
 3569         h1    123    bbb     H1   3569 0.04411300   1.008000   ; qtot -0.451496
 3570         h1    123    bbb     H2   3570 0.04411300   1.008000   ; qtot -0.407383
 3571         c3    123    bbb     C2   3571 0.10137000  12.010000   ; qtot -0.306013
 3572         h1    123    bbb     H3   3572 0.04411300   1.008000   ; qtot -0.261900
 3573         h1    123    bbb     H4   3573 0.04411300   1.008000   ; qtot -0.217787
 3574         c3    123    bbb     C3   3574 -0.00195300  12.010000   ; qtot -0.219740
 3575         h1    123    bbb     H5   3575 0.05064400   1.008000   ; qtot -0.169096
 3576         h1    123    bbb     H6   3576 0.05064400   1.008000   ; qtot -0.118452
 3577         c3    123    bbb     C4   3577 -0.01612100  12.010000   ; qtot -0.134573
 3578         hc    123    bbb     H7   3578 0.04936100   1.008000   ; qtot -0.085212
 3579         hc    123    bbb     H8   3579 0.04936100   1.008000   ; qtot -0.035851
 3580         c3    123    bbb     C5   3580 0.11363000  12.010000   ; qtot 0.077779
 3581         hc    123    bbb     H9   3581 0.06265900   1.008000   ; qtot 0.140438
 3582         hc    123    bbb    H10   3582 0.06265900   1.008000   ; qtot 0.203097
 3583         c3    123    bbb     C6   3583 0.11363000  12.010000   ; qtot 0.316727
 3584         hc    123    bbb    H11   3584 0.06265900   1.008000   ; qtot 0.379386
 3585         hc    123    bbb    H12   3585 0.06265900   1.008000   ; qtot 0.442045
 3586         c3    123    bbb     C7   3586 0.05858200  12.010000   ; qtot 0.500627
 3587         h1    123    bbb    H13   3587 0.06123400   1.008000   ; qtot 0.561861
 3588         h1    123    bbb    H14   3588 0.06123400   1.008000   ; qtot 0.623095
 3589         c3    123    bbb     C8   3589 -0.72423400  12.010000   ; qtot -0.101139
 3590         h1    123    bbb    H15   3590 0.25637600   1.008000   ; qtot 0.155237
 3591         h1    123    bbb    H16   3591 0.25637600   1.008000   ; qtot 0.411613
 3592         c3    123    bbb     C9   3592 -0.72423400  12.010000   ; qtot -0.312621
 3593         h1    123    bbb    H17   3593 0.25637600   1.008000   ; qtot -0.056245
 3594         h1    123    bbb    H18   3594 0.25637600   1.008000   ; qtot 0.200131
 3595         os    123    bbb     O1   3595 -0.20025300  16.000000   ; qtot -0.000122
; residue  124 bbb rtp bbb q -0.0
 3596         n3    124    bbb     N1   3596 -0.59685800  14.010000   ; qtot -0.596980
 3597         c3    124    bbb     C1   3597 0.10137000  12.010000   ; qtot -0.495610
 3598         h1    124    bbb     H1   3598 0.04411300   1.008000   ; qtot -0.451497
 3599         h1    124    bbb     H2   3599 0.04411300   1.008000   ; qtot -0.407384
 3600         c3    124    bbb     C2   3600 0.10137000  12.010000   ; qtot -0.306014
 3601         h1    124    bbb     H3   3601 0.04411300   1.008000   ; qtot -0.261901
 3602         h1    124    bbb     H4   3602 0.04411300   1.008000   ; qtot -0.217788
 3603         c3    124    bbb     C3   3603 -0.00195300  12.010000   ; qtot -0.219741
 3604         h1    124    bbb     H5   3604 0.05064400   1.008000   ; qtot -0.169097
 3605         h1    124    bbb     H6   3605 0.05064400   1.008000   ; qtot -0.118453
 3606         c3    124    bbb     C4   3606 -0.01612100  12.010000   ; qtot -0.134574
 3607         hc    124    bbb     H7   3607 0.04936100   1.008000   ; qtot -0.085213
 3608         hc    124    bbb     H8   3608 0.04936100   1.008000   ; qtot -0.035852
 3609         c3    124    bbb     C5   3609 0.11363000  12.010000   ; qtot 0.077778
 3610         hc    124    bbb     H9   3610 0.06265900   1.008000   ; qtot 0.140437
 3611         hc    124    bbb    H10   3611 0.06265900   1.008000   ; qtot 0.203096
 3612         c3    124    bbb     C6   3612 0.11363000  12.010000   ; qtot 0.316726
 3613         hc    124    bbb    H11   3613 0.06265900   1.008000   ; qtot 0.379385
 3614         hc    124    bbb    H12   3614 0.06265900   1.008000   ; qtot 0.442044
 3615         c3    124    bbb     C7   3615 0.05858200  12.010000   ; qtot 0.500626
 3616         h1    124    bbb    H13   3616 0.06123400   1.008000   ; qtot 0.561860
 3617         h1    124    bbb    H14   3617 0.06123400   1.008000   ; qtot 0.623094
 3618         c3    124    bbb     C8   3618 -0.72423400  12.010000   ; qtot -0.101139
 3619         h1    124    bbb    H15   3619 0.25637600   1.008000   ; qtot 0.155237
 3620         h1    124    bbb    H16   3620 0.25637600   1.008000   ; qtot 0.411613
 3621         c3    124    bbb     C9   3621 -0.72423400  12.010000   ; qtot -0.312621
 3622         h1    124    bbb    H17   3622 0.25637600   1.008000   ; qtot -0.056245
 3623         h1    124    bbb    H18   3623 0.25637600   1.008000   ; qtot 0.200131
 3624         os    124    bbb     O1   3624 -0.20025300  16.000000   ; qtot -0.000122
; residue  125 bbb rtp bbb q -0.0
 3625         n3    125    bbb     N1   3625 -0.59685800  14.010000   ; qtot -0.596980
 3626         c3    125    bbb     C1   3626 0.10137000  12.010000   ; qtot -0.495610
 3627         h1    125    bbb     H1   3627 0.04411300   1.008000   ; qtot -0.451497
 3628         h1    125    bbb     H2   3628 0.04411300   1.008000   ; qtot -0.407384
 3629         c3    125    bbb     C2   3629 0.10137000  12.010000   ; qtot -0.306014
 3630         h1    125    bbb     H3   3630 0.04411300   1.008000   ; qtot -0.261901
 3631         h1    125    bbb     H4   3631 0.04411300   1.008000   ; qtot -0.217788
 3632         c3    125    bbb     C3   3632 -0.00195300  12.010000   ; qtot -0.219741
 3633         h1    125    bbb     H5   3633 0.05064400   1.008000   ; qtot -0.169097
 3634         h1    125    bbb     H6   3634 0.05064400   1.008000   ; qtot -0.118453
 3635         c3    125    bbb     C4   3635 -0.01612100  12.010000   ; qtot -0.134574
 3636         hc    125    bbb     H7   3636 0.04936100   1.008000   ; qtot -0.085213
 3637         hc    125    bbb     H8   3637 0.04936100   1.008000   ; qtot -0.035852
 3638         c3    125    bbb     C5   3638 0.11363000  12.010000   ; qtot 0.077778
 3639         hc    125    bbb     H9   3639 0.06265900   1.008000   ; qtot 0.140437
 3640         hc    125    bbb    H10   3640 0.06265900   1.008000   ; qtot 0.203096
 3641         c3    125    bbb     C6   3641 0.11363000  12.010000   ; qtot 0.316726
 3642         hc    125    bbb    H11   3642 0.06265900   1.008000   ; qtot 0.379385
 3643         hc    125    bbb    H12   3643 0.06265900   1.008000   ; qtot 0.442044
 3644         c3    125    bbb     C7   3644 0.05858200  12.010000   ; qtot 0.500626
 3645         h1    125    bbb    H13   3645 0.06123400   1.008000   ; qtot 0.561860
 3646         h1    125    bbb    H14   3646 0.06123400   1.008000   ; qtot 0.623094
 3647         c3    125    bbb     C8   3647 -0.72423400  12.010000   ; qtot -0.101140
 3648         h1    125    bbb    H15   3648 0.25637600   1.008000   ; qtot 0.155236
 3649         h1    125    bbb    H16   3649 0.25637600   1.008000   ; qtot 0.411612
 3650         c3    125    bbb     C9   3650 -0.72423400  12.010000   ; qtot -0.312622
 3651         h1    125    bbb    H17   3651 0.25637600   1.008000   ; qtot -0.056246
 3652         h1    125    bbb    H18   3652 0.25637600   1.008000   ; qtot 0.200130
 3653         os    125    bbb     O1   3653 -0.20025300  16.000000   ; qtot -0.000123
; residue  126 ccc rtp ccc q -0.0
 3654         c3    126    ccc     C1   3654 0.60214900  12.010000   ; qtot 0.602026
 3655         h1    126    ccc     H1   3655 -0.09246700   1.008000   ; qtot 0.509559
 3656         h1    126    ccc     H2   3656 -0.09246700   1.008000   ; qtot 0.417092
 3657         c3    126    ccc     C2   3657 -0.02543800  12.010000   ; qtot 0.391654
 3658         hc    126    ccc     H3   3658 0.00853100   1.008000   ; qtot 0.400185
 3659         hc    126    ccc     H4   3659 0.00853100   1.008000   ; qtot 0.408716
 3660         c3    126    ccc     C3   3660 -0.04070000  12.010000   ; qtot 0.368016
 3661         h1    126    ccc     H5   3661 0.04605500   1.008000   ; qtot 0.414071
 3662         h1    126    ccc     H6   3662 0.04605500   1.008000   ; qtot 0.460126
 3663         n3    126    ccc     N1   3663 -1.11801800  14.010000   ; qtot -0.657892
 3664         hn    126    ccc     H7   3664 0.38419200   1.008000   ; qtot -0.273700
 3665         hn    126    ccc     H8   3665 0.38419200   1.008000   ; qtot 0.110492
 3666         os    126    ccc     O1   3666 -0.11061500  16.000000   ; qtot -0.000123
; residue  127 ccc rtp ccc q -0.0
 3667         c3    127    ccc     C1   3667 0.60214900  12.010000   ; qtot 0.602026
 3668         h1    127    ccc     H1   3668 -0.09246700   1.008000   ; qtot 0.509559
 3669         h1    127    ccc     H2   3669 -0.09246700   1.008000   ; qtot 0.417092
 3670         c3    127    ccc     C2   3670 -0.02543800  12.010000   ; qtot 0.391654
 3671         hc    127    ccc     H3   3671 0.00853100   1.008000   ; qtot 0.400185
 3672         hc    127    ccc     H4   3672 0.00853100   1.008000   ; qtot 0.408716
 3673         c3    127    ccc     C3   3673 -0.04070000  12.010000   ; qtot 0.368016
 3674         h1    127    ccc     H5   3674 0.04605500   1.008000   ; qtot 0.414071
 3675         h1    127    ccc     H6   3675 0.04605500   1.008000   ; qtot 0.460126
 3676         n3    127    ccc     N1   3676 -1.11801800  14.010000   ; qtot -0.657892
 3677         hn    127    ccc     H7   3677 0.38419200   1.008000   ; qtot -0.273700
 3678         hn    127    ccc     H8   3678 0.38419200   1.008000   ; qtot 0.110492
 3679         os    127    ccc     O1   3679 -0.11061500  16.000000   ; qtot -0.000123
; residue  128 ccc rtp ccc q -0.0
 3680         c3    128    ccc     C1   3680 0.60214900  12.010000   ; qtot 0.602026
 3681         h1    128    ccc     H1   3681 -0.09246700   1.008000   ; qtot 0.509559
 3682         h1    128    ccc     H2   3682 -0.09246700   1.008000   ; qtot 0.417092
 3683         c3    128    ccc     C2   3683 -0.02543800  12.010000   ; qtot 0.391654
 3684         hc    128    ccc     H3   3684 0.00853100   1.008000   ; qtot 0.400185
 3685         hc    128    ccc     H4   3685 0.00853100   1.008000   ; qtot 0.408716
 3686         c3    128    ccc     C3   3686 -0.04070000  12.010000   ; qtot 0.368016
 3687         h1    128    ccc     H5   3687 0.04605500   1.008000   ; qtot 0.414071
 3688         h1    128    ccc     H6   3688 0.04605500   1.008000   ; qtot 0.460126
 3689         n3    128    ccc     N1   3689 -1.11801800  14.010000   ; qtot -0.657892
 3690         hn    128    ccc     H7   3690 0.38419200   1.008000   ; qtot -0.273700
 3691         hn    128    ccc     H8   3691 0.38419200   1.008000   ; qtot 0.110492
 3692         os    128    ccc     O1   3692 -0.11061500  16.000000   ; qtot -0.000123
; residue  129 ccc rtp ccc q -0.0
 3693         c3    129    ccc     C1   3693 0.60214900  12.010000   ; qtot 0.602026
 3694         h1    129    ccc     H1   3694 -0.09246700   1.008000   ; qtot 0.509559
 3695         h1    129    ccc     H2   3695 -0.09246700   1.008000   ; qtot 0.417092
 3696         c3    129    ccc     C2   3696 -0.02543800  12.010000   ; qtot 0.391654
 3697         hc    129    ccc     H3   3697 0.00853100   1.008000   ; qtot 0.400185
 3698         hc    129    ccc     H4   3698 0.00853100   1.008000   ; qtot 0.408716
 3699         c3    129    ccc     C3   3699 -0.04070000  12.010000   ; qtot 0.368016
 3700         h1    129    ccc     H5   3700 0.04605500   1.008000   ; qtot 0.414071
 3701         h1    129    ccc     H6   3701 0.04605500   1.008000   ; qtot 0.460126
 3702         n3    129    ccc     N1   3702 -1.11801800  14.010000   ; qtot -0.657892
 3703         hn    129    ccc     H7   3703 0.38419200   1.008000   ; qtot -0.273700
 3704         hn    129    ccc     H8   3704 0.38419200   1.008000   ; qtot 0.110492
 3705         os    129    ccc     O1   3705 -0.11061500  16.000000   ; qtot -0.000123
; residue  130 ccc rtp ccc q -0.0
 3706         c3    130    ccc     C1   3706 0.60214900  12.010000   ; qtot 0.602026
 3707         h1    130    ccc     H1   3707 -0.09246700   1.008000   ; qtot 0.509559
 3708         h1    130    ccc     H2   3708 -0.09246700   1.008000   ; qtot 0.417092
 3709         c3    130    ccc     C2   3709 -0.02543800  12.010000   ; qtot 0.391654
 3710         hc    130    ccc     H3   3710 0.00853100   1.008000   ; qtot 0.400185
 3711         hc    130    ccc     H4   3711 0.00853100   1.008000   ; qtot 0.408716
 3712         c3    130    ccc     C3   3712 -0.04070000  12.010000   ; qtot 0.368016
 3713         h1    130    ccc     H5   3713 0.04605500   1.008000   ; qtot 0.414071
 3714         h1    130    ccc     H6   3714 0.04605500   1.008000   ; qtot 0.460126
 3715         n3    130    ccc     N1   3715 -1.11801800  14.010000   ; qtot -0.657892
 3716         hn    130    ccc     H7   3716 0.38419200   1.008000   ; qtot -0.273700
 3717         hn    130    ccc     H8   3717 0.38419200   1.008000   ; qtot 0.110492
 3718         os    130    ccc     O1   3718 -0.11061500  16.000000   ; qtot -0.000123
; residue  131 ccc rtp ccc q -0.0
 3719         c3    131    ccc     C1   3719 0.60214900  12.010000   ; qtot 0.602026
 3720         h1    131    ccc     H1   3720 -0.09246700   1.008000   ; qtot 0.509559
 3721         h1    131    ccc     H2   3721 -0.09246700   1.008000   ; qtot 0.417092
 3722         c3    131    ccc     C2   3722 -0.02543800  12.010000   ; qtot 0.391654
 3723         hc    131    ccc     H3   3723 0.00853100   1.008000   ; qtot 0.400185
 3724         hc    131    ccc     H4   3724 0.00853100   1.008000   ; qtot 0.408716
 3725         c3    131    ccc     C3   3725 -0.04070000  12.010000   ; qtot 0.368016
 3726         h1    131    ccc     H5   3726 0.04605500   1.008000   ; qtot 0.414071
 3727         h1    131    ccc     H6   3727 0.04605500   1.008000   ; qtot 0.460126
 3728         n3    131    ccc     N1   3728 -1.11801800  14.010000   ; qtot -0.657892
 3729         hn    131    ccc     H7   3729 0.38419200   1.008000   ; qtot -0.273700
 3730         hn    131    ccc     H8   3730 0.38419200   1.008000   ; qtot 0.110492
 3731         os    131    ccc     O1   3731 -0.11061500  16.000000   ; qtot -0.000123
; residue  132 ccc rtp ccc q -0.0
 3732         c3    132    ccc     C1   3732 0.60214900  12.010000   ; qtot 0.602025
 3733         h1    132    ccc     H1   3733 -0.09246700   1.008000   ; qtot 0.509559
 3734         h1    132    ccc     H2   3734 -0.09246700   1.008000   ; qtot 0.417092
 3735         c3    132    ccc     C2   3735 -0.02543800  12.010000   ; qtot 0.391654
 3736         hc    132    ccc     H3   3736 0.00853100   1.008000   ; qtot 0.400185
 3737         hc    132    ccc     H4   3737 0.00853100   1.008000   ; qtot 0.408716
 3738         c3    132    ccc     C3   3738 -0.04070000  12.010000   ; qtot 0.368016
 3739         h1    132    ccc     H5   3739 0.04605500   1.008000   ; qtot 0.414071
 3740         h1    132    ccc     H6   3740 0.04605500   1.008000   ; qtot 0.460126
 3741         n3    132    ccc     N1   3741 -1.11801800  14.010000   ; qtot -0.657892
 3742         hn    132    ccc     H7   3742 0.38419200   1.008000   ; qtot -0.273700
 3743         hn    132    ccc     H8   3743 0.38419200   1.008000   ; qtot 0.110492
 3744         os    132    ccc     O1   3744 -0.11061500  16.000000   ; qtot -0.000123
; residue  133 ccc rtp ccc q -0.0
 3745         c3    133    ccc     C1   3745 0.60214900  12.010000   ; qtot 0.602025
 3746         h1    133    ccc     H1   3746 -0.09246700   1.008000   ; qtot 0.509558
 3747         h1    133    ccc     H2   3747 -0.09246700   1.008000   ; qtot 0.417091
 3748         c3    133    ccc     C2   3748 -0.02543800  12.010000   ; qtot 0.391653
 3749         hc    133    ccc     H3   3749 0.00853100   1.008000   ; qtot 0.400184
 3750         hc    133    ccc     H4   3750 0.00853100   1.008000   ; qtot 0.408715
 3751         c3    133    ccc     C3   3751 -0.04070000  12.010000   ; qtot 0.368015
 3752         h1    133    ccc     H5   3752 0.04605500   1.008000   ; qtot 0.414070
 3753         h1    133    ccc     H6   3753 0.04605500   1.008000   ; qtot 0.460125
 3754         n3    133    ccc     N1   3754 -1.11801800  14.010000   ; qtot -0.657893
 3755         hn    133    ccc     H7   3755 0.38419200   1.008000   ; qtot -0.273701
 3756         hn    133    ccc     H8   3756 0.38419200   1.008000   ; qtot 0.110491
 3757         os    133    ccc     O1   3757 -0.11061500  16.000000   ; qtot -0.000123
; residue  134 ccc rtp ccc q -0.0
 3758         c3    134    ccc     C1   3758 0.60214900  12.010000   ; qtot 0.602025
 3759         h1    134    ccc     H1   3759 -0.09246700   1.008000   ; qtot 0.509558
 3760         h1    134    ccc     H2   3760 -0.09246700   1.008000   ; qtot 0.417091
 3761         c3    134    ccc     C2   3761 -0.02543800  12.010000   ; qtot 0.391653
 3762         hc    134    ccc     H3   3762 0.00853100   1.008000   ; qtot 0.400184
 3763         hc    134    ccc     H4   3763 0.00853100   1.008000   ; qtot 0.408715
 3764         c3    134    ccc     C3   3764 -0.04070000  12.010000   ; qtot 0.368015
 3765         h1    134    ccc     H5   3765 0.04605500   1.008000   ; qtot 0.414070
 3766         h1    134    ccc     H6   3766 0.04605500   1.008000   ; qtot 0.460125
 3767         n3    134    ccc     N1   3767 -1.11801800  14.010000   ; qtot -0.657893
 3768         hn    134    ccc     H7   3768 0.38419200   1.008000   ; qtot -0.273701
 3769         hn    134    ccc     H8   3769 0.38419200   1.008000   ; qtot 0.110491
 3770         os    134    ccc     O1   3770 -0.11061500  16.000000   ; qtot -0.000124
; residue  135 ccc rtp ccc q -0.0
 3771         c3    135    ccc     C1   3771 0.60214900  12.010000   ; qtot 0.602025
 3772         h1    135    ccc     H1   3772 -0.09246700   1.008000   ; qtot 0.509558
 3773         h1    135    ccc     H2   3773 -0.09246700   1.008000   ; qtot 0.417091
 3774         c3    135    ccc     C2   3774 -0.02543800  12.010000   ; qtot 0.391653
 3775         hc    135    ccc     H3   3775 0.00853100   1.008000   ; qtot 0.400184
 3776         hc    135    ccc     H4   3776 0.00853100   1.008000   ; qtot 0.408715
 3777         c3    135    ccc     C3   3777 -0.04070000  12.010000   ; qtot 0.368015
 3778         h1    135    ccc     H5   3778 0.04605500   1.008000   ; qtot 0.414070
 3779         h1    135    ccc     H6   3779 0.04605500   1.008000   ; qtot 0.460125
 3780         n3    135    ccc     N1   3780 -1.11801800  14.010000   ; qtot -0.657893
 3781         hn    135    ccc     H7   3781 0.38419200   1.008000   ; qtot -0.273701
 3782         hn    135    ccc     H8   3782 0.38419200   1.008000   ; qtot 0.110491
 3783         os    135    ccc     O1   3783 -0.11061500  16.000000   ; qtot -0.000124
; residue  136 ccc rtp ccc q -0.0
 3784         c3    136    ccc     C1   3784 0.60214900  12.010000   ; qtot 0.602025
 3785         h1    136    ccc     H1   3785 -0.09246700   1.008000   ; qtot 0.509558
 3786         h1    136    ccc     H2   3786 -0.09246700   1.008000   ; qtot 0.417091
 3787         c3    136    ccc     C2   3787 -0.02543800  12.010000   ; qtot 0.391653
 3788         hc    136    ccc     H3   3788 0.00853100   1.008000   ; qtot 0.400184
 3789         hc    136    ccc     H4   3789 0.00853100   1.008000   ; qtot 0.408715
 3790         c3    136    ccc     C3   3790 -0.04070000  12.010000   ; qtot 0.368015
 3791         h1    136    ccc     H5   3791 0.04605500   1.008000   ; qtot 0.414070
 3792         h1    136    ccc     H6   3792 0.04605500   1.008000   ; qtot 0.460125
 3793         n3    136    ccc     N1   3793 -1.11801800  14.010000   ; qtot -0.657893
 3794         hn    136    ccc     H7   3794 0.38419200   1.008000   ; qtot -0.273701
 3795         hn    136    ccc     H8   3795 0.38419200   1.008000   ; qtot 0.110491
 3796         os    136    ccc     O1   3796 -0.11061500  16.000000   ; qtot -0.000124
; residue  137 ccc rtp ccc q -0.0
 3797         c3    137    ccc     C1   3797 0.60214900  12.010000   ; qtot 0.602025
 3798         h1    137    ccc     H1   3798 -0.09246700   1.008000   ; qtot 0.509558
 3799         h1    137    ccc     H2   3799 -0.09246700   1.008000   ; qtot 0.417091
 3800         c3    137    ccc     C2   3800 -0.02543800  12.010000   ; qtot 0.391653
 3801         hc    137    ccc     H3   3801 0.00853100   1.008000   ; qtot 0.400184
 3802         hc    137    ccc     H4   3802 0.00853100   1.008000   ; qtot 0.408715
 3803         c3    137    ccc     C3   3803 -0.04070000  12.010000   ; qtot 0.368015
 3804         h1    137    ccc     H5   3804 0.04605500   1.008000   ; qtot 0.414070
 3805         h1    137    ccc     H6   3805 0.04605500   1.008000   ; qtot 0.460125
 3806         n3    137    ccc     N1   3806 -1.11801800  14.010000   ; qtot -0.657893
 3807         hn    137    ccc     H7   3807 0.38419200   1.008000   ; qtot -0.273701
 3808         hn    137    ccc     H8   3808 0.38419200   1.008000   ; qtot 0.110491
 3809         os    137    ccc     O1   3809 -0.11061500  16.000000   ; qtot -0.000124
; residue  138 ccc rtp ccc q -0.0
 3810         c3    138    ccc     C1   3810 0.60214900  12.010000   ; qtot 0.602025
 3811         h1    138    ccc     H1   3811 -0.09246700   1.008000   ; qtot 0.509558
 3812         h1    138    ccc     H2   3812 -0.09246700   1.008000   ; qtot 0.417091
 3813         c3    138    ccc     C2   3813 -0.02543800  12.010000   ; qtot 0.391653
 3814         hc    138    ccc     H3   3814 0.00853100   1.008000   ; qtot 0.400184
 3815         hc    138    ccc     H4   3815 0.00853100   1.008000   ; qtot 0.408715
 3816         c3    138    ccc     C3   3816 -0.04070000  12.010000   ; qtot 0.368015
 3817         h1    138    ccc     H5   3817 0.04605500   1.008000   ; qtot 0.414070
 3818         h1    138    ccc     H6   3818 0.04605500   1.008000   ; qtot 0.460125
 3819         n3    138    ccc     N1   3819 -1.11801800  14.010000   ; qtot -0.657893
 3820         hn    138    ccc     H7   3820 0.38419200   1.008000   ; qtot -0.273701
 3821         hn    138    ccc     H8   3821 0.38419200   1.008000   ; qtot 0.110491
 3822         os    138    ccc     O1   3822 -0.11061500  16.000000   ; qtot -0.000124
; residue  139 ccc rtp ccc q -0.0
 3823         c3    139    ccc     C1   3823 0.60214900  12.010000   ; qtot 0.602025
 3824         h1    139    ccc     H1   3824 -0.09246700   1.008000   ; qtot 0.509558
 3825         h1    139    ccc     H2   3825 -0.09246700   1.008000   ; qtot 0.417091
 3826         c3    139    ccc     C2   3826 -0.02543800  12.010000   ; qtot 0.391653
 3827         hc    139    ccc     H3   3827 0.00853100   1.008000   ; qtot 0.400184
 3828         hc    139    ccc     H4   3828 0.00853100   1.008000   ; qtot 0.408715
 3829         c3    139    ccc     C3   3829 -0.04070000  12.010000   ; qtot 0.368015
 3830         h1    139    ccc     H5   3830 0.04605500   1.008000   ; qtot 0.414070
 3831         h1    139    ccc     H6   3831 0.04605500   1.008000   ; qtot 0.460125
 3832         n3    139    ccc     N1   3832 -1.11801800  14.010000   ; qtot -0.657893
 3833         hn    139    ccc     H7   3833 0.38419200   1.008000   ; qtot -0.273701
 3834         hn    139    ccc     H8   3834 0.38419200   1.008000   ; qtot 0.110491
 3835         os    139    ccc     O1   3835 -0.11061500  16.000000   ; qtot -0.000124
; residue  140 ccc rtp ccc q -0.0
 3836         c3    140    ccc     C1   3836 0.60214900  12.010000   ; qtot 0.602025
 3837         h1    140    ccc     H1   3837 -0.09246700   1.008000   ; qtot 0.509558
 3838         h1    140    ccc     H2   3838 -0.09246700   1.008000   ; qtot 0.417091
 3839         c3    140    ccc     C2   3839 -0.02543800  12.010000   ; qtot 0.391653
 3840         hc    140    ccc     H3   3840 0.00853100   1.008000   ; qtot 0.400184
 3841         hc    140    ccc     H4   3841 0.00853100   1.008000   ; qtot 0.408715
 3842         c3    140    ccc     C3   3842 -0.04070000  12.010000   ; qtot 0.368015
 3843         h1    140    ccc     H5   3843 0.04605500   1.008000   ; qtot 0.414070
 3844         h1    140    ccc     H6   3844 0.04605500   1.008000   ; qtot 0.460125
 3845         n3    140    ccc     N1   3845 -1.11801800  14.010000   ; qtot -0.657893
 3846         hn    140    ccc     H7   3846 0.38419200   1.008000   ; qtot -0.273701
 3847         hn    140    ccc     H8   3847 0.38419200   1.008000   ; qtot 0.110491
 3848         os    140    ccc     O1   3848 -0.11061500  16.000000   ; qtot -0.000124
; residue  141 ccc rtp ccc q -0.0
 3849         c3    141    ccc     C1   3849 0.60214900  12.010000   ; qtot 0.602025
 3850         h1    141    ccc     H1   3850 -0.09246700   1.008000   ; qtot 0.509558
 3851         h1    141    ccc     H2   3851 -0.09246700   1.008000   ; qtot 0.417091
 3852         c3    141    ccc     C2   3852 -0.02543800  12.010000   ; qtot 0.391653
 3853         hc    141    ccc     H3   3853 0.00853100   1.008000   ; qtot 0.400184
 3854         hc    141    ccc     H4   3854 0.00853100   1.008000   ; qtot 0.408715
 3855         c3    141    ccc     C3   3855 -0.04070000  12.010000   ; qtot 0.368015
 3856         h1    141    ccc     H5   3856 0.04605500   1.008000   ; qtot 0.414070
 3857         h1    141    ccc     H6   3857 0.04605500   1.008000   ; qtot 0.460125
 3858         n3    141    ccc     N1   3858 -1.11801800  14.010000   ; qtot -0.657893
 3859         hn    141    ccc     H7   3859 0.38419200   1.008000   ; qtot -0.273701
 3860         hn    141    ccc     H8   3860 0.38419200   1.008000   ; qtot 0.110491
 3861         os    141    ccc     O1   3861 -0.11061500  16.000000   ; qtot -0.000124
; residue  142 ccc rtp ccc q -0.0
 3862         c3    142    ccc     C1   3862 0.60214900  12.010000   ; qtot 0.602025
 3863         h1    142    ccc     H1   3863 -0.09246700   1.008000   ; qtot 0.509558
 3864         h1    142    ccc     H2   3864 -0.09246700   1.008000   ; qtot 0.417091
 3865         c3    142    ccc     C2   3865 -0.02543800  12.010000   ; qtot 0.391653
 3866         hc    142    ccc     H3   3866 0.00853100   1.008000   ; qtot 0.400184
 3867         hc    142    ccc     H4   3867 0.00853100   1.008000   ; qtot 0.408715
 3868         c3    142    ccc     C3   3868 -0.04070000  12.010000   ; qtot 0.368015
 3869         h1    142    ccc     H5   3869 0.04605500   1.008000   ; qtot 0.414070
 3870         h1    142    ccc     H6   3870 0.04605500   1.008000   ; qtot 0.460125
 3871         n3    142    ccc     N1   3871 -1.11801800  14.010000   ; qtot -0.657893
 3872         hn    142    ccc     H7   3872 0.38419200   1.008000   ; qtot -0.273701
 3873         hn    142    ccc     H8   3873 0.38419200   1.008000   ; qtot 0.110491
 3874         os    142    ccc     O1   3874 -0.11061500  16.000000   ; qtot -0.000124
; residue  143 ccc rtp ccc q -0.0
 3875         c3    143    ccc     C1   3875 0.60214900  12.010000   ; qtot 0.602025
 3876         h1    143    ccc     H1   3876 -0.09246700   1.008000   ; qtot 0.509558
 3877         h1    143    ccc     H2   3877 -0.09246700   1.008000   ; qtot 0.417091
 3878         c3    143    ccc     C2   3878 -0.02543800  12.010000   ; qtot 0.391653
 3879         hc    143    ccc     H3   3879 0.00853100   1.008000   ; qtot 0.400184
 3880         hc    143    ccc     H4   3880 0.00853100   1.008000   ; qtot 0.408715
 3881         c3    143    ccc     C3   3881 -0.04070000  12.010000   ; qtot 0.368015
 3882         h1    143    ccc     H5   3882 0.04605500   1.008000   ; qtot 0.414070
 3883         h1    143    ccc     H6   3883 0.04605500   1.008000   ; qtot 0.460125
 3884         n3    143    ccc     N1   3884 -1.11801800  14.010000   ; qtot -0.657893
 3885         hn    143    ccc     H7   3885 0.38419200   1.008000   ; qtot -0.273701
 3886         hn    143    ccc     H8   3886 0.38419200   1.008000   ; qtot 0.110491
 3887         os    143    ccc     O1   3887 -0.11061500  16.000000   ; qtot -0.000124
; residue  144 ccc rtp ccc q -0.0
 3888         c3    144    ccc     C1   3888 0.60214900  12.010000   ; qtot 0.602025
 3889         h1    144    ccc     H1   3889 -0.09246700   1.008000   ; qtot 0.509558
 3890         h1    144    ccc     H2   3890 -0.09246700   1.008000   ; qtot 0.417091
 3891         c3    144    ccc     C2   3891 -0.02543800  12.010000   ; qtot 0.391653
 3892         hc    144    ccc     H3   3892 0.00853100   1.008000   ; qtot 0.400184
 3893         hc    144    ccc     H4   3893 0.00853100   1.008000   ; qtot 0.408715
 3894         c3    144    ccc     C3   3894 -0.04070000  12.010000   ; qtot 0.368015
 3895         h1    144    ccc     H5   3895 0.04605500   1.008000   ; qtot 0.414070
 3896         h1    144    ccc     H6   3896 0.04605500   1.008000   ; qtot 0.460125
 3897         n3    144    ccc     N1   3897 -1.11801800  14.010000   ; qtot -0.657893
 3898         hn    144    ccc     H7   3898 0.38419200   1.008000   ; qtot -0.273701
 3899         hn    144    ccc     H8   3899 0.38419200   1.008000   ; qtot 0.110491
 3900         os    144    ccc     O1   3900 -0.11061500  16.000000   ; qtot -0.000124
; residue  145 ccc rtp ccc q -0.0
 3901         c3    145    ccc     C1   3901 0.60214900  12.010000   ; qtot 0.602025
 3902         h1    145    ccc     H1   3902 -0.09246700   1.008000   ; qtot 0.509558
 3903         h1    145    ccc     H2   3903 -0.09246700   1.008000   ; qtot 0.417091
 3904         c3    145    ccc     C2   3904 -0.02543800  12.010000   ; qtot 0.391653
 3905         hc    145    ccc     H3   3905 0.00853100   1.008000   ; qtot 0.400184
 3906         hc    145    ccc     H4   3906 0.00853100   1.008000   ; qtot 0.408715
 3907         c3    145    ccc     C3   3907 -0.04070000  12.010000   ; qtot 0.368015
 3908         h1    145    ccc     H5   3908 0.04605500   1.008000   ; qtot 0.414070
 3909         h1    145    ccc     H6   3909 0.04605500   1.008000   ; qtot 0.460125
 3910         n3    145    ccc     N1   3910 -1.11801800  14.010000   ; qtot -0.657893
 3911         hn    145    ccc     H7   3911 0.38419200   1.008000   ; qtot -0.273701
 3912         hn    145    ccc     H8   3912 0.38419200   1.008000   ; qtot 0.110491
 3913         os    145    ccc     O1   3913 -0.11061500  16.000000   ; qtot -0.000124
; residue  146 ccc rtp ccc q -0.0
 3914         c3    146    ccc     C1   3914 0.60214900  12.010000   ; qtot 0.602025
 3915         h1    146    ccc     H1   3915 -0.09246700   1.008000   ; qtot 0.509558
 3916         h1    146    ccc     H2   3916 -0.09246700   1.008000   ; qtot 0.417091
 3917         c3    146    ccc     C2   3917 -0.02543800  12.010000   ; qtot 0.391653
 3918         hc    146    ccc     H3   3918 0.00853100   1.008000   ; qtot 0.400184
 3919         hc    146    ccc     H4   3919 0.00853100   1.008000   ; qtot 0.408715
 3920         c3    146    ccc     C3   3920 -0.04070000  12.010000   ; qtot 0.368015
 3921         h1    146    ccc     H5   3921 0.04605500   1.008000   ; qtot 0.414070
 3922         h1    146    ccc     H6   3922 0.04605500   1.008000   ; qtot 0.460125
 3923         n3    146    ccc     N1   3923 -1.11801800  14.010000   ; qtot -0.657893
 3924         hn    146    ccc     H7   3924 0.38419200   1.008000   ; qtot -0.273701
 3925         hn    146    ccc     H8   3925 0.38419200   1.008000   ; qtot 0.110491
 3926         os    146    ccc     O1   3926 -0.11061500  16.000000   ; qtot -0.000124
; residue  147 ccc rtp ccc q -0.0
 3927         c3    147    ccc     C1   3927 0.60214900  12.010000   ; qtot 0.602025
 3928         h1    147    ccc     H1   3928 -0.09246700   1.008000   ; qtot 0.509558
 3929         h1    147    ccc     H2   3929 -0.09246700   1.008000   ; qtot 0.417091
 3930         c3    147    ccc     C2   3930 -0.02543800  12.010000   ; qtot 0.391653
 3931         hc    147    ccc     H3   3931 0.00853100   1.008000   ; qtot 0.400184
 3932         hc    147    ccc     H4   3932 0.00853100   1.008000   ; qtot 0.408715
 3933         c3    147    ccc     C3   3933 -0.04070000  12.010000   ; qtot 0.368015
 3934         h1    147    ccc     H5   3934 0.04605500   1.008000   ; qtot 0.414070
 3935         h1    147    ccc     H6   3935 0.04605500   1.008000   ; qtot 0.460125
 3936         n3    147    ccc     N1   3936 -1.11801800  14.010000   ; qtot -0.657893
 3937         hn    147    ccc     H7   3937 0.38419200   1.008000   ; qtot -0.273701
 3938         hn    147    ccc     H8   3938 0.38419200   1.008000   ; qtot 0.110491
 3939         os    147    ccc     O1   3939 -0.11061500  16.000000   ; qtot -0.000124
; residue  148 ccc rtp ccc q -0.0
 3940         c3    148    ccc     C1   3940 0.60214900  12.010000   ; qtot 0.602025
 3941         h1    148    ccc     H1   3941 -0.09246700   1.008000   ; qtot 0.509558
 3942         h1    148    ccc     H2   3942 -0.09246700   1.008000   ; qtot 0.417091
 3943         c3    148    ccc     C2   3943 -0.02543800  12.010000   ; qtot 0.391653
 3944         hc    148    ccc     H3   3944 0.00853100   1.008000   ; qtot 0.400184
 3945         hc    148    ccc     H4   3945 0.00853100   1.008000   ; qtot 0.408715
 3946         c3    148    ccc     C3   3946 -0.04070000  12.010000   ; qtot 0.368015
 3947         h1    148    ccc     H5   3947 0.04605500   1.008000   ; qtot 0.414070
 3948         h1    148    ccc     H6   3948 0.04605500   1.008000   ; qtot 0.460125
 3949         n3    148    ccc     N1   3949 -1.11801800  14.010000   ; qtot -0.657893
 3950         hn    148    ccc     H7   3950 0.38419200   1.008000   ; qtot -0.273701
 3951         hn    148    ccc     H8   3951 0.38419200   1.008000   ; qtot 0.110491
 3952         os    148    ccc     O1   3952 -0.11061500  16.000000   ; qtot -0.000124
; residue  149 ccc rtp ccc q -0.0
 3953         c3    149    ccc     C1   3953 0.60214900  12.010000   ; qtot 0.602025
 3954         h1    149    ccc     H1   3954 -0.09246700   1.008000   ; qtot 0.509558
 3955         h1    149    ccc     H2   3955 -0.09246700   1.008000   ; qtot 0.417091
 3956         c3    149    ccc     C2   3956 -0.02543800  12.010000   ; qtot 0.391653
 3957         hc    149    ccc     H3   3957 0.00853100   1.008000   ; qtot 0.400184
 3958         hc    149    ccc     H4   3958 0.00853100   1.008000   ; qtot 0.408715
 3959         c3    149    ccc     C3   3959 -0.04070000  12.010000   ; qtot 0.368015
 3960         h1    149    ccc     H5   3960 0.04605500   1.008000   ; qtot 0.414070
 3961         h1    149    ccc     H6   3961 0.04605500   1.008000   ; qtot 0.460125
 3962         n3    149    ccc     N1   3962 -1.11801800  14.010000   ; qtot -0.657893
 3963         hn    149    ccc     H7   3963 0.38419200   1.008000   ; qtot -0.273701
 3964         hn    149    ccc     H8   3964 0.38419200   1.008000   ; qtot 0.110491
 3965         os    149    ccc     O1   3965 -0.11061500  16.000000   ; qtot -0.000124
; residue  150 ccc rtp ccc q -0.0
 3966         c3    150    ccc     C1   3966 0.60214900  12.010000   ; qtot 0.602025
 3967         h1    150    ccc     H1   3967 -0.09246700   1.008000   ; qtot 0.509558
 3968         h1    150    ccc     H2   3968 -0.09246700   1.008000   ; qtot 0.417091
 3969         c3    150    ccc     C2   3969 -0.02543800  12.010000   ; qtot 0.391653
 3970         hc    150    ccc     H3   3970 0.00853100   1.008000   ; qtot 0.400184
 3971         hc    150    ccc     H4   3971 0.00853100   1.008000   ; qtot 0.408715
 3972         c3    150    ccc     C3   3972 -0.04070000  12.010000   ; qtot 0.368015
 3973         h1    150    ccc     H5   3973 0.04605500   1.008000   ; qtot 0.414070
 3974         h1    150    ccc     H6   3974 0.04605500   1.008000   ; qtot 0.460125
 3975         n3    150    ccc     N1   3975 -1.11801800  14.010000   ; qtot -0.657893
 3976         hn    150    ccc     H7   3976 0.38419200   1.008000   ; qtot -0.273701
 3977         hn    150    ccc     H8   3977 0.38419200   1.008000   ; qtot 0.110491
 3978         os    150    ccc     O1   3978 -0.11061500  16.000000   ; qtot -0.000124
; residue  151 ccc rtp ccc q -0.0
 3979         c3    151    ccc     C1   3979 0.60214900  12.010000   ; qtot 0.602025
 3980         h1    151    ccc     H1   3980 -0.09246700   1.008000   ; qtot 0.509558
 3981         h1    151    ccc     H2   3981 -0.09246700   1.008000   ; qtot 0.417091
 3982         c3    151    ccc     C2   3982 -0.02543800  12.010000   ; qtot 0.391653
 3983         hc    151    ccc     H3   3983 0.00853100   1.008000   ; qtot 0.400184
 3984         hc    151    ccc     H4   3984 0.00853100   1.008000   ; qtot 0.408715
 3985         c3    151    ccc     C3   3985 -0.04070000  12.010000   ; qtot 0.368015
 3986         h1    151    ccc     H5   3986 0.04605500   1.008000   ; qtot 0.414070
 3987         h1    151    ccc     H6   3987 0.04605500   1.008000   ; qtot 0.460125
 3988         n3    151    ccc     N1   3988 -1.11801800  14.010000   ; qtot -0.657893
 3989         hn    151    ccc     H7   3989 0.38419200   1.008000   ; qtot -0.273701
 3990         hn    151    ccc     H8   3990 0.38419200   1.008000   ; qtot 0.110491
 3991         os    151    ccc     O1   3991 -0.11061500  16.000000   ; qtot -0.000124
; residue  152 ccc rtp ccc q -0.0
 3992         c3    152    ccc     C1   3992 0.60214900  12.010000   ; qtot 0.602025
 3993         h1    152    ccc     H1   3993 -0.09246700   1.008000   ; qtot 0.509558
 3994         h1    152    ccc     H2   3994 -0.09246700   1.008000   ; qtot 0.417091
 3995         c3    152    ccc     C2   3995 -0.02543800  12.010000   ; qtot 0.391653
 3996         hc    152    ccc     H3   3996 0.00853100   1.008000   ; qtot 0.400184
 3997         hc    152    ccc     H4   3997 0.00853100   1.008000   ; qtot 0.408715
 3998         c3    152    ccc     C3   3998 -0.04070000  12.010000   ; qtot 0.368015
 3999         h1    152    ccc     H5   3999 0.04605500   1.008000   ; qtot 0.414070
 4000         h1    152    ccc     H6   4000 0.04605500   1.008000   ; qtot 0.460125
 4001         n3    152    ccc     N1   4001 -1.11801800  14.010000   ; qtot -0.657893
 4002         hn    152    ccc     H7   4002 0.38419200   1.008000   ; qtot -0.273701
 4003         hn    152    ccc     H8   4003 0.38419200   1.008000   ; qtot 0.110491
 4004         os    152    ccc     O1   4004 -0.11061500  16.000000   ; qtot -0.000124
; residue  153 ccc rtp ccc q -0.0
 4005         c3    153    ccc     C1   4005 0.60214900  12.010000   ; qtot 0.602025
 4006         h1    153    ccc     H1   4006 -0.09246700   1.008000   ; qtot 0.509558
 4007         h1    153    ccc     H2   4007 -0.09246700   1.008000   ; qtot 0.417091
 4008         c3    153    ccc     C2   4008 -0.02543800  12.010000   ; qtot 0.391653
 4009         hc    153    ccc     H3   4009 0.00853100   1.008000   ; qtot 0.400184
 4010         hc    153    ccc     H4   4010 0.00853100   1.008000   ; qtot 0.408715
 4011         c3    153    ccc     C3   4011 -0.04070000  12.010000   ; qtot 0.368015
 4012         h1    153    ccc     H5   4012 0.04605500   1.008000   ; qtot 0.414070
 4013         h1    153    ccc     H6   4013 0.04605500   1.008000   ; qtot 0.460125
 4014         n3    153    ccc     N1   4014 -1.11801800  14.010000   ; qtot -0.657893
 4015         hn    153    ccc     H7   4015 0.38419200   1.008000   ; qtot -0.273701
 4016         hn    153    ccc     H8   4016 0.38419200   1.008000   ; qtot 0.110491
 4017         os    153    ccc     O1   4017 -0.11061500  16.000000   ; qtot -0.000124
; residue  154 ccc rtp ccc q -0.0
 4018         c3    154    ccc     C1   4018 0.60214900  12.010000   ; qtot 0.602025
 4019         h1    154    ccc     H1   4019 -0.09246700   1.008000   ; qtot 0.509558
 4020         h1    154    ccc     H2   4020 -0.09246700   1.008000   ; qtot 0.417091
 4021         c3    154    ccc     C2   4021 -0.02543800  12.010000   ; qtot 0.391653
 4022         hc    154    ccc     H3   4022 0.00853100   1.008000   ; qtot 0.400184
 4023         hc    154    ccc     H4   4023 0.00853100   1.008000   ; qtot 0.408715
 4024         c3    154    ccc     C3   4024 -0.04070000  12.010000   ; qtot 0.368015
 4025         h1    154    ccc     H5   4025 0.04605500   1.008000   ; qtot 0.414070
 4026         h1    154    ccc     H6   4026 0.04605500   1.008000   ; qtot 0.460125
 4027         n3    154    ccc     N1   4027 -1.11801800  14.010000   ; qtot -0.657893
 4028         hn    154    ccc     H7   4028 0.38419200   1.008000   ; qtot -0.273701
 4029         hn    154    ccc     H8   4029 0.38419200   1.008000   ; qtot 0.110491
 4030         os    154    ccc     O1   4030 -0.11061500  16.000000   ; qtot -0.000124
; residue  155 ccc rtp ccc q -0.0
 4031         c3    155    ccc     C1   4031 0.60214900  12.010000   ; qtot 0.602025
 4032         h1    155    ccc     H1   4032 -0.09246700   1.008000   ; qtot 0.509558
 4033         h1    155    ccc     H2   4033 -0.09246700   1.008000   ; qtot 0.417091
 4034         c3    155    ccc     C2   4034 -0.02543800  12.010000   ; qtot 0.391653
 4035         hc    155    ccc     H3   4035 0.00853100   1.008000   ; qtot 0.400184
 4036         hc    155    ccc     H4   4036 0.00853100   1.008000   ; qtot 0.408715
 4037         c3    155    ccc     C3   4037 -0.04070000  12.010000   ; qtot 0.368015
 4038         h1    155    ccc     H5   4038 0.04605500   1.008000   ; qtot 0.414070
 4039         h1    155    ccc     H6   4039 0.04605500   1.008000   ; qtot 0.460125
 4040         n3    155    ccc     N1   4040 -1.11801800  14.010000   ; qtot -0.657893
 4041         hn    155    ccc     H7   4041 0.38419200   1.008000   ; qtot -0.273701
 4042         hn    155    ccc     H8   4042 0.38419200   1.008000   ; qtot 0.110491
 4043         os    155    ccc     O1   4043 -0.11061500  16.000000   ; qtot -0.000124
; residue  156 ccc rtp ccc q -0.0
 4044         c3    156    ccc     C1   4044 0.60214900  12.010000   ; qtot 0.602025
 4045         h1    156    ccc     H1   4045 -0.09246700   1.008000   ; qtot 0.509558
 4046         h1    156    ccc     H2   4046 -0.09246700   1.008000   ; qtot 0.417091
 4047         c3    156    ccc     C2   4047 -0.02543800  12.010000   ; qtot 0.391653
 4048         hc    156    ccc     H3   4048 0.00853100   1.008000   ; qtot 0.400184
 4049         hc    156    ccc     H4   4049 0.00853100   1.008000   ; qtot 0.408715
 4050         c3    156    ccc     C3   4050 -0.04070000  12.010000   ; qtot 0.368015
 4051         h1    156    ccc     H5   4051 0.04605500   1.008000   ; qtot 0.414070
 4052         h1    156    ccc     H6   4052 0.04605500   1.008000   ; qtot 0.460125
 4053         n3    156    ccc     N1   4053 -1.11801800  14.010000   ; qtot -0.657893
 4054         hn    156    ccc     H7   4054 0.38419200   1.008000   ; qtot -0.273701
 4055         hn    156    ccc     H8   4055 0.38419200   1.008000   ; qtot 0.110491
 4056         os    156    ccc     O1   4056 -0.11061500  16.000000   ; qtot -0.000124
; residue  157 ccc rtp ccc q -0.0
 4057         c3    157    ccc     C1   4057 0.60214900  12.010000   ; qtot 0.602025
 4058         h1    157    ccc     H1   4058 -0.09246700   1.008000   ; qtot 0.509558
 4059         h1    157    ccc     H2   4059 -0.09246700   1.008000   ; qtot 0.417091
 4060         c3    157    ccc     C2   4060 -0.02543800  12.010000   ; qtot 0.391653
 4061         hc    157    ccc     H3   4061 0.00853100   1.008000   ; qtot 0.400184
 4062         hc    157    ccc     H4   4062 0.00853100   1.008000   ; qtot 0.408715
 4063         c3    157    ccc     C3   4063 -0.04070000  12.010000   ; qtot 0.368015
 4064         h1    157    ccc     H5   4064 0.04605500   1.008000   ; qtot 0.414070
 4065         h1    157    ccc     H6   4065 0.04605500   1.008000   ; qtot 0.460125
 4066         n3    157    ccc     N1   4066 -1.11801800  14.010000   ; qtot -0.657893
 4067         hn    157    ccc     H7   4067 0.38419200   1.008000   ; qtot -0.273701
 4068         hn    157    ccc     H8   4068 0.38419200   1.008000   ; qtot 0.110491
 4069         os    157    ccc     O1   4069 -0.11061500  16.000000   ; qtot -0.000124
; residue  158 ccc rtp ccc q -0.0
 4070         c3    158    ccc     C1   4070 0.60214900  12.010000   ; qtot 0.602025
 4071         h1    158    ccc     H1   4071 -0.09246700   1.008000   ; qtot 0.509558
 4072         h1    158    ccc     H2   4072 -0.09246700   1.008000   ; qtot 0.417091
 4073         c3    158    ccc     C2   4073 -0.02543800  12.010000   ; qtot 0.391653
 4074         hc    158    ccc     H3   4074 0.00853100   1.008000   ; qtot 0.400184
 4075         hc    158    ccc     H4   4075 0.00853100   1.008000   ; qtot 0.408715
 4076         c3    158    ccc     C3   4076 -0.04070000  12.010000   ; qtot 0.368015
 4077         h1    158    ccc     H5   4077 0.04605500   1.008000   ; qtot 0.414070
 4078         h1    158    ccc     H6   4078 0.04605500   1.008000   ; qtot 0.460125
 4079         n3    158    ccc     N1   4079 -1.11801800  14.010000   ; qtot -0.657893
 4080         hn    158    ccc     H7   4080 0.38419200   1.008000   ; qtot -0.273701
 4081         hn    158    ccc     H8   4081 0.38419200   1.008000   ; qtot 0.110491
 4082         os    158    ccc     O1   4082 -0.11061500  16.000000   ; qtot -0.000124
; residue  159 ccc rtp ccc q -0.0
 4083         c3    159    ccc     C1   4083 0.60214900  12.010000   ; qtot 0.602025
 4084         h1    159    ccc     H1   4084 -0.09246700   1.008000   ; qtot 0.509558
 4085         h1    159    ccc     H2   4085 -0.09246700   1.008000   ; qtot 0.417091
 4086         c3    159    ccc     C2   4086 -0.02543800  12.010000   ; qtot 0.391653
 4087         hc    159    ccc     H3   4087 0.00853100   1.008000   ; qtot 0.400184
 4088         hc    159    ccc     H4   4088 0.00853100   1.008000   ; qtot 0.408715
 4089         c3    159    ccc     C3   4089 -0.04070000  12.010000   ; qtot 0.368015
 4090         h1    159    ccc     H5   4090 0.04605500   1.008000   ; qtot 0.414070
 4091         h1    159    ccc     H6   4091 0.04605500   1.008000   ; qtot 0.460125
 4092         n3    159    ccc     N1   4092 -1.11801800  14.010000   ; qtot -0.657893
 4093         hn    159    ccc     H7   4093 0.38419200   1.008000   ; qtot -0.273701
 4094         hn    159    ccc     H8   4094 0.38419200   1.008000   ; qtot 0.110491
 4095         os    159    ccc     O1   4095 -0.11061500  16.000000   ; qtot -0.000124
; residue  160 ccc rtp ccc q -0.0
 4096         c3    160    ccc     C1   4096 0.60214900  12.010000   ; qtot 0.602025
 4097         h1    160    ccc     H1   4097 -0.09246700   1.008000   ; qtot 0.509558
 4098         h1    160    ccc     H2   4098 -0.09246700   1.008000   ; qtot 0.417091
 4099         c3    160    ccc     C2   4099 -0.02543800  12.010000   ; qtot 0.391653
 4100         hc    160    ccc     H3   4100 0.00853100   1.008000   ; qtot 0.400184
 4101         hc    160    ccc     H4   4101 0.00853100   1.008000   ; qtot 0.408715
 4102         c3    160    ccc     C3   4102 -0.04070000  12.010000   ; qtot 0.368015
 4103         h1    160    ccc     H5   4103 0.04605500   1.008000   ; qtot 0.414070
 4104         h1    160    ccc     H6   4104 0.04605500   1.008000   ; qtot 0.460125
 4105         n3    160    ccc     N1   4105 -1.11801800  14.010000   ; qtot -0.657893
 4106         hn    160    ccc     H7   4106 0.38419200   1.008000   ; qtot -0.273701
 4107         hn    160    ccc     H8   4107 0.38419200   1.008000   ; qtot 0.110491
 4108         os    160    ccc     O1   4108 -0.11061500  16.000000   ; qtot -0.000124
; residue  161 ccc rtp ccc q -0.0
 4109         c3    161    ccc     C1   4109 0.60214900  12.010000   ; qtot 0.602025
 4110         h1    161    ccc     H1   4110 -0.09246700   1.008000   ; qtot 0.509558
 4111         h1    161    ccc     H2   4111 -0.09246700   1.008000   ; qtot 0.417091
 4112         c3    161    ccc     C2   4112 -0.02543800  12.010000   ; qtot 0.391653
 4113         hc    161    ccc     H3   4113 0.00853100   1.008000   ; qtot 0.400184
 4114         hc    161    ccc     H4   4114 0.00853100   1.008000   ; qtot 0.408715
 4115         c3    161    ccc     C3   4115 -0.04070000  12.010000   ; qtot 0.368015
 4116         h1    161    ccc     H5   4116 0.04605500   1.008000   ; qtot 0.414070
 4117         h1    161    ccc     H6   4117 0.04605500   1.008000   ; qtot 0.460125
 4118         n3    161    ccc     N1   4118 -1.11801800  14.010000   ; qtot -0.657893
 4119         hn    161    ccc     H7   4119 0.38419200   1.008000   ; qtot -0.273701
 4120         hn    161    ccc     H8   4120 0.38419200   1.008000   ; qtot 0.110491
 4121         os    161    ccc     O1   4121 -0.11061500  16.000000   ; qtot -0.000124
; residue  162 ccc rtp ccc q -0.0
 4122         c3    162    ccc     C1   4122 0.60214900  12.010000   ; qtot 0.602025
 4123         h1    162    ccc     H1   4123 -0.09246700   1.008000   ; qtot 0.509558
 4124         h1    162    ccc     H2   4124 -0.09246700   1.008000   ; qtot 0.417091
 4125         c3    162    ccc     C2   4125 -0.02543800  12.010000   ; qtot 0.391653
 4126         hc    162    ccc     H3   4126 0.00853100   1.008000   ; qtot 0.400184
 4127         hc    162    ccc     H4   4127 0.00853100   1.008000   ; qtot 0.408715
 4128         c3    162    ccc     C3   4128 -0.04070000  12.010000   ; qtot 0.368015
 4129         h1    162    ccc     H5   4129 0.04605500   1.008000   ; qtot 0.414070
 4130         h1    162    ccc     H6   4130 0.04605500   1.008000   ; qtot 0.460125
 4131         n3    162    ccc     N1   4131 -1.11801800  14.010000   ; qtot -0.657893
 4132         hn    162    ccc     H7   4132 0.38419200   1.008000   ; qtot -0.273701
 4133         hn    162    ccc     H8   4133 0.38419200   1.008000   ; qtot 0.110491
 4134         os    162    ccc     O1   4134 -0.11061500  16.000000   ; qtot -0.000124
; residue  163 ccc rtp ccc q -0.0
 4135         c3    163    ccc     C1   4135 0.60214900  12.010000   ; qtot 0.602025
 4136         h1    163    ccc     H1   4136 -0.09246700   1.008000   ; qtot 0.509558
 4137         h1    163    ccc     H2   4137 -0.09246700   1.008000   ; qtot 0.417091
 4138         c3    163    ccc     C2   4138 -0.02543800  12.010000   ; qtot 0.391653
 4139         hc    163    ccc     H3   4139 0.00853100   1.008000   ; qtot 0.400184
 4140         hc    163    ccc     H4   4140 0.00853100   1.008000   ; qtot 0.408715
 4141         c3    163    ccc     C3   4141 -0.04070000  12.010000   ; qtot 0.368015
 4142         h1    163    ccc     H5   4142 0.04605500   1.008000   ; qtot 0.414070
 4143         h1    163    ccc     H6   4143 0.04605500   1.008000   ; qtot 0.460125
 4144         n3    163    ccc     N1   4144 -1.11801800  14.010000   ; qtot -0.657893
 4145         hn    163    ccc     H7   4145 0.38419200   1.008000   ; qtot -0.273701
 4146         hn    163    ccc     H8   4146 0.38419200   1.008000   ; qtot 0.110491
 4147         os    163    ccc     O1   4147 -0.11061500  16.000000   ; qtot -0.000124
; residue  164 ccc rtp ccc q -0.0
 4148         c3    164    ccc     C1   4148 0.60214900  12.010000   ; qtot 0.602025
 4149         h1    164    ccc     H1   4149 -0.09246700   1.008000   ; qtot 0.509558
 4150         h1    164    ccc     H2   4150 -0.09246700   1.008000   ; qtot 0.417091
 4151         c3    164    ccc     C2   4151 -0.02543800  12.010000   ; qtot 0.391653
 4152         hc    164    ccc     H3   4152 0.00853100   1.008000   ; qtot 0.400184
 4153         hc    164    ccc     H4   4153 0.00853100   1.008000   ; qtot 0.408715
 4154         c3    164    ccc     C3   4154 -0.04070000  12.010000   ; qtot 0.368015
 4155         h1    164    ccc     H5   4155 0.04605500   1.008000   ; qtot 0.414070
 4156         h1    164    ccc     H6   4156 0.04605500   1.008000   ; qtot 0.460125
 4157         n3    164    ccc     N1   4157 -1.11801800  14.010000   ; qtot -0.657893
 4158         hn    164    ccc     H7   4158 0.38419200   1.008000   ; qtot -0.273701
 4159         hn    164    ccc     H8   4159 0.38419200   1.008000   ; qtot 0.110491
 4160         os    164    ccc     O1   4160 -0.11061500  16.000000   ; qtot -0.000124
; residue  165 ccc rtp ccc q -0.0
 4161         c3    165    ccc     C1   4161 0.60214900  12.010000   ; qtot 0.602025
 4162         h1    165    ccc     H1   4162 -0.09246700   1.008000   ; qtot 0.509558
 4163         h1    165    ccc     H2   4163 -0.09246700   1.008000   ; qtot 0.417091
 4164         c3    165    ccc     C2   4164 -0.02543800  12.010000   ; qtot 0.391653
 4165         hc    165    ccc     H3   4165 0.00853100   1.008000   ; qtot 0.400184
 4166         hc    165    ccc     H4   4166 0.00853100   1.008000   ; qtot 0.408715
 4167         c3    165    ccc     C3   4167 -0.04070000  12.010000   ; qtot 0.368015
 4168         h1    165    ccc     H5   4168 0.04605500   1.008000   ; qtot 0.414070
 4169         h1    165    ccc     H6   4169 0.04605500   1.008000   ; qtot 0.460125
 4170         n3    165    ccc     N1   4170 -1.11801800  14.010000   ; qtot -0.657893
 4171         hn    165    ccc     H7   4171 0.38419200   1.008000   ; qtot -0.273701
 4172         hn    165    ccc     H8   4172 0.38419200   1.008000   ; qtot 0.110491
 4173         os    165    ccc     O1   4173 -0.11061500  16.000000   ; qtot -0.000124
; residue  166 ccc rtp ccc q -0.0
 4174         c3    166    ccc     C1   4174 0.60214900  12.010000   ; qtot 0.602025
 4175         h1    166    ccc     H1   4175 -0.09246700   1.008000   ; qtot 0.509558
 4176         h1    166    ccc     H2   4176 -0.09246700   1.008000   ; qtot 0.417091
 4177         c3    166    ccc     C2   4177 -0.02543800  12.010000   ; qtot 0.391653
 4178         hc    166    ccc     H3   4178 0.00853100   1.008000   ; qtot 0.400184
 4179         hc    166    ccc     H4   4179 0.00853100   1.008000   ; qtot 0.408715
 4180         c3    166    ccc     C3   4180 -0.04070000  12.010000   ; qtot 0.368015
 4181         h1    166    ccc     H5   4181 0.04605500   1.008000   ; qtot 0.414070
 4182         h1    166    ccc     H6   4182 0.04605500   1.008000   ; qtot 0.460125
 4183         n3    166    ccc     N1   4183 -1.11801800  14.010000   ; qtot -0.657893
 4184         hn    166    ccc     H7   4184 0.38419200   1.008000   ; qtot -0.273701
 4185         hn    166    ccc     H8   4185 0.38419200   1.008000   ; qtot 0.110491
 4186         os    166    ccc     O1   4186 -0.11061500  16.000000   ; qtot -0.000124
; residue  167 ccc rtp ccc q -0.0
 4187         c3    167    ccc     C1   4187 0.60214900  12.010000   ; qtot 0.602025
 4188         h1    167    ccc     H1   4188 -0.09246700   1.008000   ; qtot 0.509558
 4189         h1    167    ccc     H2   4189 -0.09246700   1.008000   ; qtot 0.417091
 4190         c3    167    ccc     C2   4190 -0.02543800  12.010000   ; qtot 0.391653
 4191         hc    167    ccc     H3   4191 0.00853100   1.008000   ; qtot 0.400184
 4192         hc    167    ccc     H4   4192 0.00853100   1.008000   ; qtot 0.408715
 4193         c3    167    ccc     C3   4193 -0.04070000  12.010000   ; qtot 0.368015
 4194         h1    167    ccc     H5   4194 0.04605500   1.008000   ; qtot 0.414070
 4195         h1    167    ccc     H6   4195 0.04605500   1.008000   ; qtot 0.460125
 4196         n3    167    ccc     N1   4196 -1.11801800  14.010000   ; qtot -0.657893
 4197         hn    167    ccc     H7   4197 0.38419200   1.008000   ; qtot -0.273701
 4198         hn    167    ccc     H8   4198 0.38419200   1.008000   ; qtot 0.110491
 4199         os    167    ccc     O1   4199 -0.11061500  16.000000   ; qtot -0.000124
; residue  168 ccc rtp ccc q -0.0
 4200         c3    168    ccc     C1   4200 0.60214900  12.010000   ; qtot 0.602025
 4201         h1    168    ccc     H1   4201 -0.09246700   1.008000   ; qtot 0.509558
 4202         h1    168    ccc     H2   4202 -0.09246700   1.008000   ; qtot 0.417091
 4203         c3    168    ccc     C2   4203 -0.02543800  12.010000   ; qtot 0.391653
 4204         hc    168    ccc     H3   4204 0.00853100   1.008000   ; qtot 0.400184
 4205         hc    168    ccc     H4   4205 0.00853100   1.008000   ; qtot 0.408715
 4206         c3    168    ccc     C3   4206 -0.04070000  12.010000   ; qtot 0.368015
 4207         h1    168    ccc     H5   4207 0.04605500   1.008000   ; qtot 0.414070
 4208         h1    168    ccc     H6   4208 0.04605500   1.008000   ; qtot 0.460125
 4209         n3    168    ccc     N1   4209 -1.11801800  14.010000   ; qtot -0.657893
 4210         hn    168    ccc     H7   4210 0.38419200   1.008000   ; qtot -0.273701
 4211         hn    168    ccc     H8   4211 0.38419200   1.008000   ; qtot 0.110491
 4212         os    168    ccc     O1   4212 -0.11061500  16.000000   ; qtot -0.000124
; residue  169 ccc rtp ccc q -0.0
 4213         c3    169    ccc     C1   4213 0.60214900  12.010000   ; qtot 0.602025
 4214         h1    169    ccc     H1   4214 -0.09246700   1.008000   ; qtot 0.509558
 4215         h1    169    ccc     H2   4215 -0.09246700   1.008000   ; qtot 0.417091
 4216         c3    169    ccc     C2   4216 -0.02543800  12.010000   ; qtot 0.391653
 4217         hc    169    ccc     H3   4217 0.00853100   1.008000   ; qtot 0.400184
 4218         hc    169    ccc     H4   4218 0.00853100   1.008000   ; qtot 0.408715
 4219         c3    169    ccc     C3   4219 -0.04070000  12.010000   ; qtot 0.368015
 4220         h1    169    ccc     H5   4220 0.04605500   1.008000   ; qtot 0.414070
 4221         h1    169    ccc     H6   4221 0.04605500   1.008000   ; qtot 0.460125
 4222         n3    169    ccc     N1   4222 -1.11801800  14.010000   ; qtot -0.657893
 4223         hn    169    ccc     H7   4223 0.38419200   1.008000   ; qtot -0.273701
 4224         hn    169    ccc     H8   4224 0.38419200   1.008000   ; qtot 0.110491
 4225         os    169    ccc     O1   4225 -0.11061500  16.000000   ; qtot -0.000124
; residue  170 ccc rtp ccc q -0.0
 4226         c3    170    ccc     C1   4226 0.60214900  12.010000   ; qtot 0.602025
 4227         h1    170    ccc     H1   4227 -0.09246700   1.008000   ; qtot 0.509558
 4228         h1    170    ccc     H2   4228 -0.09246700   1.008000   ; qtot 0.417091
 4229         c3    170    ccc     C2   4229 -0.02543800  12.010000   ; qtot 0.391653
 4230         hc    170    ccc     H3   4230 0.00853100   1.008000   ; qtot 0.400184
 4231         hc    170    ccc     H4   4231 0.00853100   1.008000   ; qtot 0.408715
 4232         c3    170    ccc     C3   4232 -0.04070000  12.010000   ; qtot 0.368015
 4233         h1    170    ccc     H5   4233 0.04605500   1.008000   ; qtot 0.414070
 4234         h1    170    ccc     H6   4234 0.04605500   1.008000   ; qtot 0.460125
 4235         n3    170    ccc     N1   4235 -1.11801800  14.010000   ; qtot -0.657893
 4236         hn    170    ccc     H7   4236 0.38419200   1.008000   ; qtot -0.273701
 4237         hn    170    ccc     H8   4237 0.38419200   1.008000   ; qtot 0.110491
 4238         os    170    ccc     O1   4238 -0.11061500  16.000000   ; qtot -0.000124
; residue  171 ccc rtp ccc q -0.0
 4239         c3    171    ccc     C1   4239 0.60214900  12.010000   ; qtot 0.602025
 4240         h1    171    ccc     H1   4240 -0.09246700   1.008000   ; qtot 0.509558
 4241         h1    171    ccc     H2   4241 -0.09246700   1.008000   ; qtot 0.417091
 4242         c3    171    ccc     C2   4242 -0.02543800  12.010000   ; qtot 0.391653
 4243         hc    171    ccc     H3   4243 0.00853100   1.008000   ; qtot 0.400184
 4244         hc    171    ccc     H4   4244 0.00853100   1.008000   ; qtot 0.408715
 4245         c3    171    ccc     C3   4245 -0.04070000  12.010000   ; qtot 0.368015
 4246         h1    171    ccc     H5   4246 0.04605500   1.008000   ; qtot 0.414070
 4247         h1    171    ccc     H6   4247 0.04605500   1.008000   ; qtot 0.460125
 4248         n3    171    ccc     N1   4248 -1.11801800  14.010000   ; qtot -0.657893
 4249         hn    171    ccc     H7   4249 0.38419200   1.008000   ; qtot -0.273701
 4250         hn    171    ccc     H8   4250 0.38419200   1.008000   ; qtot 0.110491
 4251         os    171    ccc     O1   4251 -0.11061500  16.000000   ; qtot -0.000124
; residue  172 ccc rtp ccc q -0.0
 4252         c3    172    ccc     C1   4252 0.60214900  12.010000   ; qtot 0.602025
 4253         h1    172    ccc     H1   4253 -0.09246700   1.008000   ; qtot 0.509558
 4254         h1    172    ccc     H2   4254 -0.09246700   1.008000   ; qtot 0.417091
 4255         c3    172    ccc     C2   4255 -0.02543800  12.010000   ; qtot 0.391653
 4256         hc    172    ccc     H3   4256 0.00853100   1.008000   ; qtot 0.400184
 4257         hc    172    ccc     H4   4257 0.00853100   1.008000   ; qtot 0.408715
 4258         c3    172    ccc     C3   4258 -0.04070000  12.010000   ; qtot 0.368015
 4259         h1    172    ccc     H5   4259 0.04605500   1.008000   ; qtot 0.414070
 4260         h1    172    ccc     H6   4260 0.04605500   1.008000   ; qtot 0.460125
 4261         n3    172    ccc     N1   4261 -1.11801800  14.010000   ; qtot -0.657893
 4262         hn    172    ccc     H7   4262 0.38419200   1.008000   ; qtot -0.273701
 4263         hn    172    ccc     H8   4263 0.38419200   1.008000   ; qtot 0.110491
 4264         os    172    ccc     O1   4264 -0.11061500  16.000000   ; qtot -0.000124
; residue  173 ccc rtp ccc q -0.0
 4265         c3    173    ccc     C1   4265 0.60214900  12.010000   ; qtot 0.602025
 4266         h1    173    ccc     H1   4266 -0.09246700   1.008000   ; qtot 0.509558
 4267         h1    173    ccc     H2   4267 -0.09246700   1.008000   ; qtot 0.417091
 4268         c3    173    ccc     C2   4268 -0.02543800  12.010000   ; qtot 0.391653
 4269         hc    173    ccc     H3   4269 0.00853100   1.008000   ; qtot 0.400184
 4270         hc    173    ccc     H4   4270 0.00853100   1.008000   ; qtot 0.408715
 4271         c3    173    ccc     C3   4271 -0.04070000  12.010000   ; qtot 0.368015
 4272         h1    173    ccc     H5   4272 0.04605500   1.008000   ; qtot 0.414070
 4273         h1    173    ccc     H6   4273 0.04605500   1.008000   ; qtot 0.460125
 4274         n3    173    ccc     N1   4274 -1.11801800  14.010000   ; qtot -0.657893
 4275         hn    173    ccc     H7   4275 0.38419200   1.008000   ; qtot -0.273701
 4276         hn    173    ccc     H8   4276 0.38419200   1.008000   ; qtot 0.110491
 4277         os    173    ccc     O1   4277 -0.11061500  16.000000   ; qtot -0.000124
; residue  174 ccc rtp ccc q -0.0
 4278         c3    174    ccc     C1   4278 0.60214900  12.010000   ; qtot 0.602025
 4279         h1    174    ccc     H1   4279 -0.09246700   1.008000   ; qtot 0.509558
 4280         h1    174    ccc     H2   4280 -0.09246700   1.008000   ; qtot 0.417091
 4281         c3    174    ccc     C2   4281 -0.02543800  12.010000   ; qtot 0.391653
 4282         hc    174    ccc     H3   4282 0.00853100   1.008000   ; qtot 0.400184
 4283         hc    174    ccc     H4   4283 0.00853100   1.008000   ; qtot 0.408715
 4284         c3    174    ccc     C3   4284 -0.04070000  12.010000   ; qtot 0.368015
 4285         h1    174    ccc     H5   4285 0.04605500   1.008000   ; qtot 0.414070
 4286         h1    174    ccc     H6   4286 0.04605500   1.008000   ; qtot 0.460125
 4287         n3    174    ccc     N1   4287 -1.11801800  14.010000   ; qtot -0.657893
 4288         hn    174    ccc     H7   4288 0.38419200   1.008000   ; qtot -0.273701
 4289         hn    174    ccc     H8   4289 0.38419200   1.008000   ; qtot 0.110491
 4290         os    174    ccc     O1   4290 -0.11061500  16.000000   ; qtot -0.000124
; residue  175 ccc rtp ccc q -0.0
 4291         c3    175    ccc     C1   4291 0.60214900  12.010000   ; qtot 0.602025
 4292         h1    175    ccc     H1   4292 -0.09246700   1.008000   ; qtot 0.509558
 4293         h1    175    ccc     H2   4293 -0.09246700   1.008000   ; qtot 0.417091
 4294         c3    175    ccc     C2   4294 -0.02543800  12.010000   ; qtot 0.391653
 4295         hc    175    ccc     H3   4295 0.00853100   1.008000   ; qtot 0.400184
 4296         hc    175    ccc     H4   4296 0.00853100   1.008000   ; qtot 0.408715
 4297         c3    175    ccc     C3   4297 -0.04070000  12.010000   ; qtot 0.368015
 4298         h1    175    ccc     H5   4298 0.04605500   1.008000   ; qtot 0.414070
 4299         h1    175    ccc     H6   4299 0.04605500   1.008000   ; qtot 0.460125
 4300         n3    175    ccc     N1   4300 -1.11801800  14.010000   ; qtot -0.657893
 4301         hn    175    ccc     H7   4301 0.38419200   1.008000   ; qtot -0.273701
 4302         hn    175    ccc     H8   4302 0.38419200   1.008000   ; qtot 0.110491
 4303         os    175    ccc     O1   4303 -0.11061500  16.000000   ; qtot -0.000124
; residue  176 ccc rtp ccc q -0.0
 4304         c3    176    ccc     C1   4304 0.60214900  12.010000   ; qtot 0.602025
 4305         h1    176    ccc     H1   4305 -0.09246700   1.008000   ; qtot 0.509558
 4306         h1    176    ccc     H2   4306 -0.09246700   1.008000   ; qtot 0.417091
 4307         c3    176    ccc     C2   4307 -0.02543800  12.010000   ; qtot 0.391653
 4308         hc    176    ccc     H3   4308 0.00853100   1.008000   ; qtot 0.400184
 4309         hc    176    ccc     H4   4309 0.00853100   1.008000   ; qtot 0.408715
 4310         c3    176    ccc     C3   4310 -0.04070000  12.010000   ; qtot 0.368015
 4311         h1    176    ccc     H5   4311 0.04605500   1.008000   ; qtot 0.414070
 4312         h1    176    ccc     H6   4312 0.04605500   1.008000   ; qtot 0.460125
 4313         n3    176    ccc     N1   4313 -1.11801800  14.010000   ; qtot -0.657893
 4314         hn    176    ccc     H7   4314 0.38419200   1.008000   ; qtot -0.273701
 4315         hn    176    ccc     H8   4315 0.38419200   1.008000   ; qtot 0.110491
 4316         os    176    ccc     O1   4316 -0.11061500  16.000000   ; qtot -0.000124
; residue  177 ccc rtp ccc q -0.0
 4317         c3    177    ccc     C1   4317 0.60214900  12.010000   ; qtot 0.602025
 4318         h1    177    ccc     H1   4318 -0.09246700   1.008000   ; qtot 0.509558
 4319         h1    177    ccc     H2   4319 -0.09246700   1.008000   ; qtot 0.417091
 4320         c3    177    ccc     C2   4320 -0.02543800  12.010000   ; qtot 0.391653
 4321         hc    177    ccc     H3   4321 0.00853100   1.008000   ; qtot 0.400184
 4322         hc    177    ccc     H4   4322 0.00853100   1.008000   ; qtot 0.408715
 4323         c3    177    ccc     C3   4323 -0.04070000  12.010000   ; qtot 0.368015
 4324         h1    177    ccc     H5   4324 0.04605500   1.008000   ; qtot 0.414070
 4325         h1    177    ccc     H6   4325 0.04605500   1.008000   ; qtot 0.460125
 4326         n3    177    ccc     N1   4326 -1.11801800  14.010000   ; qtot -0.657893
 4327         hn    177    ccc     H7   4327 0.38419200   1.008000   ; qtot -0.273701
 4328         hn    177    ccc     H8   4328 0.38419200   1.008000   ; qtot 0.110491
 4329         os    177    ccc     O1   4329 -0.11061500  16.000000   ; qtot -0.000124
; residue  178 ccc rtp ccc q -0.0
 4330         c3    178    ccc     C1   4330 0.60214900  12.010000   ; qtot 0.602025
 4331         h1    178    ccc     H1   4331 -0.09246700   1.008000   ; qtot 0.509558
 4332         h1    178    ccc     H2   4332 -0.09246700   1.008000   ; qtot 0.417091
 4333         c3    178    ccc     C2   4333 -0.02543800  12.010000   ; qtot 0.391653
 4334         hc    178    ccc     H3   4334 0.00853100   1.008000   ; qtot 0.400184
 4335         hc    178    ccc     H4   4335 0.00853100   1.008000   ; qtot 0.408715
 4336         c3    178    ccc     C3   4336 -0.04070000  12.010000   ; qtot 0.368015
 4337         h1    178    ccc     H5   4337 0.04605500   1.008000   ; qtot 0.414070
 4338         h1    178    ccc     H6   4338 0.04605500   1.008000   ; qtot 0.460125
 4339         n3    178    ccc     N1   4339 -1.11801800  14.010000   ; qtot -0.657893
 4340         hn    178    ccc     H7   4340 0.38419200   1.008000   ; qtot -0.273701
 4341         hn    178    ccc     H8   4341 0.38419200   1.008000   ; qtot 0.110491
 4342         os    178    ccc     O1   4342 -0.11061500  16.000000   ; qtot -0.000124
; residue  179 ccc rtp ccc q -0.0
 4343         c3    179    ccc     C1   4343 0.60214900  12.010000   ; qtot 0.602025
 4344         h1    179    ccc     H1   4344 -0.09246700   1.008000   ; qtot 0.509558
 4345         h1    179    ccc     H2   4345 -0.09246700   1.008000   ; qtot 0.417091
 4346         c3    179    ccc     C2   4346 -0.02543800  12.010000   ; qtot 0.391653
 4347         hc    179    ccc     H3   4347 0.00853100   1.008000   ; qtot 0.400184
 4348         hc    179    ccc     H4   4348 0.00853100   1.008000   ; qtot 0.408715
 4349         c3    179    ccc     C3   4349 -0.04070000  12.010000   ; qtot 0.368015
 4350         h1    179    ccc     H5   4350 0.04605500   1.008000   ; qtot 0.414070
 4351         h1    179    ccc     H6   4351 0.04605500   1.008000   ; qtot 0.460125
 4352         n3    179    ccc     N1   4352 -1.11801800  14.010000   ; qtot -0.657893
 4353         hn    179    ccc     H7   4353 0.38419200   1.008000   ; qtot -0.273701
 4354         hn    179    ccc     H8   4354 0.38419200   1.008000   ; qtot 0.110491
 4355         os    179    ccc     O1   4355 -0.11061500  16.000000   ; qtot -0.000124
; residue  180 ccc rtp ccc q -0.0
 4356         c3    180    ccc     C1   4356 0.60214900  12.010000   ; qtot 0.602025
 4357         h1    180    ccc     H1   4357 -0.09246700   1.008000   ; qtot 0.509558
 4358         h1    180    ccc     H2   4358 -0.09246700   1.008000   ; qtot 0.417091
 4359         c3    180    ccc     C2   4359 -0.02543800  12.010000   ; qtot 0.391653
 4360         hc    180    ccc     H3   4360 0.00853100   1.008000   ; qtot 0.400184
 4361         hc    180    ccc     H4   4361 0.00853100   1.008000   ; qtot 0.408715
 4362         c3    180    ccc     C3   4362 -0.04070000  12.010000   ; qtot 0.368015
 4363         h1    180    ccc     H5   4363 0.04605500   1.008000   ; qtot 0.414070
 4364         h1    180    ccc     H6   4364 0.04605500   1.008000   ; qtot 0.460125
 4365         n3    180    ccc     N1   4365 -1.11801800  14.010000   ; qtot -0.657893
 4366         hn    180    ccc     H7   4366 0.38419200   1.008000   ; qtot -0.273701
 4367         hn    180    ccc     H8   4367 0.38419200   1.008000   ; qtot 0.110491
 4368         os    180    ccc     O1   4368 -0.11061500  16.000000   ; qtot -0.000124
; residue  181 ccc rtp ccc q -0.0
 4369         c3    181    ccc     C1   4369 0.60214900  12.010000   ; qtot 0.602025
 4370         h1    181    ccc     H1   4370 -0.09246700   1.008000   ; qtot 0.509558
 4371         h1    181    ccc     H2   4371 -0.09246700   1.008000   ; qtot 0.417091
 4372         c3    181    ccc     C2   4372 -0.02543800  12.010000   ; qtot 0.391653
 4373         hc    181    ccc     H3   4373 0.00853100   1.008000   ; qtot 0.400184
 4374         hc    181    ccc     H4   4374 0.00853100   1.008000   ; qtot 0.408715
 4375         c3    181    ccc     C3   4375 -0.04070000  12.010000   ; qtot 0.368015
 4376         h1    181    ccc     H5   4376 0.04605500   1.008000   ; qtot 0.414070
 4377         h1    181    ccc     H6   4377 0.04605500   1.008000   ; qtot 0.460125
 4378         n3    181    ccc     N1   4378 -1.11801800  14.010000   ; qtot -0.657893
 4379         hn    181    ccc     H7   4379 0.38419200   1.008000   ; qtot -0.273701
 4380         hn    181    ccc     H8   4380 0.38419200   1.008000   ; qtot 0.110491
 4381         os    181    ccc     O1   4381 -0.11061500  16.000000   ; qtot -0.000124
; residue  182 ccc rtp ccc q -0.0
 4382         c3    182    ccc     C1   4382 0.60214900  12.010000   ; qtot 0.602025
 4383         h1    182    ccc     H1   4383 -0.09246700   1.008000   ; qtot 0.509558
 4384         h1    182    ccc     H2   4384 -0.09246700   1.008000   ; qtot 0.417091
 4385         c3    182    ccc     C2   4385 -0.02543800  12.010000   ; qtot 0.391653
 4386         hc    182    ccc     H3   4386 0.00853100   1.008000   ; qtot 0.400184
 4387         hc    182    ccc     H4   4387 0.00853100   1.008000   ; qtot 0.408715
 4388         c3    182    ccc     C3   4388 -0.04070000  12.010000   ; qtot 0.368015
 4389         h1    182    ccc     H5   4389 0.04605500   1.008000   ; qtot 0.414070
 4390         h1    182    ccc     H6   4390 0.04605500   1.008000   ; qtot 0.460125
 4391         n3    182    ccc     N1   4391 -1.11801800  14.010000   ; qtot -0.657893
 4392         hn    182    ccc     H7   4392 0.38419200   1.008000   ; qtot -0.273701
 4393         hn    182    ccc     H8   4393 0.38419200   1.008000   ; qtot 0.110491
 4394         os    182    ccc     O1   4394 -0.11061500  16.000000   ; qtot -0.000124
; residue  183 ccc rtp ccc q -0.0
 4395         c3    183    ccc     C1   4395 0.60214900  12.010000   ; qtot 0.602025
 4396         h1    183    ccc     H1   4396 -0.09246700   1.008000   ; qtot 0.509558
 4397         h1    183    ccc     H2   4397 -0.09246700   1.008000   ; qtot 0.417091
 4398         c3    183    ccc     C2   4398 -0.02543800  12.010000   ; qtot 0.391653
 4399         hc    183    ccc     H3   4399 0.00853100   1.008000   ; qtot 0.400184
 4400         hc    183    ccc     H4   4400 0.00853100   1.008000   ; qtot 0.408715
 4401         c3    183    ccc     C3   4401 -0.04070000  12.010000   ; qtot 0.368015
 4402         h1    183    ccc     H5   4402 0.04605500   1.008000   ; qtot 0.414070
 4403         h1    183    ccc     H6   4403 0.04605500   1.008000   ; qtot 0.460125
 4404         n3    183    ccc     N1   4404 -1.11801800  14.010000   ; qtot -0.657893
 4405         hn    183    ccc     H7   4405 0.38419200   1.008000   ; qtot -0.273701
 4406         hn    183    ccc     H8   4406 0.38419200   1.008000   ; qtot 0.110491
 4407         os    183    ccc     O1   4407 -0.11061500  16.000000   ; qtot -0.000124
; residue  184 ccc rtp ccc q -0.0
 4408         c3    184    ccc     C1   4408 0.60214900  12.010000   ; qtot 0.602025
 4409         h1    184    ccc     H1   4409 -0.09246700   1.008000   ; qtot 0.509558
 4410         h1    184    ccc     H2   4410 -0.09246700   1.008000   ; qtot 0.417091
 4411         c3    184    ccc     C2   4411 -0.02543800  12.010000   ; qtot 0.391653
 4412         hc    184    ccc     H3   4412 0.00853100   1.008000   ; qtot 0.400184
 4413         hc    184    ccc     H4   4413 0.00853100   1.008000   ; qtot 0.408715
 4414         c3    184    ccc     C3   4414 -0.04070000  12.010000   ; qtot 0.368015
 4415         h1    184    ccc     H5   4415 0.04605500   1.008000   ; qtot 0.414070
 4416         h1    184    ccc     H6   4416 0.04605500   1.008000   ; qtot 0.460125
 4417         n3    184    ccc     N1   4417 -1.11801800  14.010000   ; qtot -0.657893
 4418         hn    184    ccc     H7   4418 0.38419200   1.008000   ; qtot -0.273701
 4419         hn    184    ccc     H8   4419 0.38419200   1.008000   ; qtot 0.110491
 4420         os    184    ccc     O1   4420 -0.11061500  16.000000   ; qtot -0.000124
; residue  185 ccc rtp ccc q -0.0
 4421         c3    185    ccc     C1   4421 0.60214900  12.010000   ; qtot 0.602025
 4422         h1    185    ccc     H1   4422 -0.09246700   1.008000   ; qtot 0.509558
 4423         h1    185    ccc     H2   4423 -0.09246700   1.008000   ; qtot 0.417091
 4424         c3    185    ccc     C2   4424 -0.02543800  12.010000   ; qtot 0.391653
 4425         hc    185    ccc     H3   4425 0.00853100   1.008000   ; qtot 0.400184
 4426         hc    185    ccc     H4   4426 0.00853100   1.008000   ; qtot 0.408715
 4427         c3    185    ccc     C3   4427 -0.04070000  12.010000   ; qtot 0.368015
 4428         h1    185    ccc     H5   4428 0.04605500   1.008000   ; qtot 0.414070
 4429         h1    185    ccc     H6   4429 0.04605500   1.008000   ; qtot 0.460125
 4430         n3    185    ccc     N1   4430 -1.11801800  14.010000   ; qtot -0.657893
 4431         hn    185    ccc     H7   4431 0.38419200   1.008000   ; qtot -0.273701
 4432         hn    185    ccc     H8   4432 0.38419200   1.008000   ; qtot 0.110491
 4433         os    185    ccc     O1   4433 -0.11061500  16.000000   ; qtot -0.000124
; residue  186 ccc rtp ccc q -0.0
 4434         c3    186    ccc     C1   4434 0.60214900  12.010000   ; qtot 0.602025
 4435         h1    186    ccc     H1   4435 -0.09246700   1.008000   ; qtot 0.509558
 4436         h1    186    ccc     H2   4436 -0.09246700   1.008000   ; qtot 0.417091
 4437         c3    186    ccc     C2   4437 -0.02543800  12.010000   ; qtot 0.391653
 4438         hc    186    ccc     H3   4438 0.00853100   1.008000   ; qtot 0.400184
 4439         hc    186    ccc     H4   4439 0.00853100   1.008000   ; qtot 0.408715
 4440         c3    186    ccc     C3   4440 -0.04070000  12.010000   ; qtot 0.368015
 4441         h1    186    ccc     H5   4441 0.04605500   1.008000   ; qtot 0.414070
 4442         h1    186    ccc     H6   4442 0.04605500   1.008000   ; qtot 0.460125
 4443         n3    186    ccc     N1   4443 -1.11801800  14.010000   ; qtot -0.657893
 4444         hn    186    ccc     H7   4444 0.38419200   1.008000   ; qtot -0.273701
 4445         hn    186    ccc     H8   4445 0.38419200   1.008000   ; qtot 0.110491
 4446         os    186    ccc     O1   4446 -0.11061500  16.000000   ; qtot -0.000124
; residue  187 ccc rtp ccc q -0.0
 4447         c3    187    ccc     C1   4447 0.60214900  12.010000   ; qtot 0.602025
 4448         h1    187    ccc     H1   4448 -0.09246700   1.008000   ; qtot 0.509558
 4449         h1    187    ccc     H2   4449 -0.09246700   1.008000   ; qtot 0.417091
 4450         c3    187    ccc     C2   4450 -0.02543800  12.010000   ; qtot 0.391653
 4451         hc    187    ccc     H3   4451 0.00853100   1.008000   ; qtot 0.400184
 4452         hc    187    ccc     H4   4452 0.00853100   1.008000   ; qtot 0.408715
 4453         c3    187    ccc     C3   4453 -0.04070000  12.010000   ; qtot 0.368015
 4454         h1    187    ccc     H5   4454 0.04605500   1.008000   ; qtot 0.414070
 4455         h1    187    ccc     H6   4455 0.04605500   1.008000   ; qtot 0.460125
 4456         n3    187    ccc     N1   4456 -1.11801800  14.010000   ; qtot -0.657893
 4457         hn    187    ccc     H7   4457 0.38419200   1.008000   ; qtot -0.273701
 4458         hn    187    ccc     H8   4458 0.38419200   1.008000   ; qtot 0.110491
 4459         os    187    ccc     O1   4459 -0.11061500  16.000000   ; qtot -0.000124
; residue  188 ccc rtp ccc q -0.0
 4460         c3    188    ccc     C1   4460 0.60214900  12.010000   ; qtot 0.602025
 4461         h1    188    ccc     H1   4461 -0.09246700   1.008000   ; qtot 0.509558
 4462         h1    188    ccc     H2   4462 -0.09246700   1.008000   ; qtot 0.417091
 4463         c3    188    ccc     C2   4463 -0.02543800  12.010000   ; qtot 0.391653
 4464         hc    188    ccc     H3   4464 0.00853100   1.008000   ; qtot 0.400184
 4465         hc    188    ccc     H4   4465 0.00853100   1.008000   ; qtot 0.408715
 4466         c3    188    ccc     C3   4466 -0.04070000  12.010000   ; qtot 0.368015
 4467         h1    188    ccc     H5   4467 0.04605500   1.008000   ; qtot 0.414070
 4468         h1    188    ccc     H6   4468 0.04605500   1.008000   ; qtot 0.460125
 4469         n3    188    ccc     N1   4469 -1.11801800  14.010000   ; qtot -0.657893
 4470         hn    188    ccc     H7   4470 0.38419200   1.008000   ; qtot -0.273701
 4471         hn    188    ccc     H8   4471 0.38419200   1.008000   ; qtot 0.110491
 4472         os    188    ccc     O1   4472 -0.11061500  16.000000   ; qtot -0.000124
; residue  189 ccc rtp ccc q -0.0
 4473         c3    189    ccc     C1   4473 0.60214900  12.010000   ; qtot 0.602025
 4474         h1    189    ccc     H1   4474 -0.09246700   1.008000   ; qtot 0.509558
 4475         h1    189    ccc     H2   4475 -0.09246700   1.008000   ; qtot 0.417091
 4476         c3    189    ccc     C2   4476 -0.02543800  12.010000   ; qtot 0.391653
 4477         hc    189    ccc     H3   4477 0.00853100   1.008000   ; qtot 0.400184
 4478         hc    189    ccc     H4   4478 0.00853100   1.008000   ; qtot 0.408715
 4479         c3    189    ccc     C3   4479 -0.04070000  12.010000   ; qtot 0.368015
 4480         h1    189    ccc     H5   4480 0.04605500   1.008000   ; qtot 0.414070
 4481         h1    189    ccc     H6   4481 0.04605500   1.008000   ; qtot 0.460125
 4482         n3    189    ccc     N1   4482 -1.11801800  14.010000   ; qtot -0.657893
 4483         hn    189    ccc     H7   4483 0.38419200   1.008000   ; qtot -0.273701
 4484         hn    189    ccc     H8   4484 0.38419200   1.008000   ; qtot 0.110491
 4485         os    189    ccc     O1   4485 -0.11061500  16.000000   ; qtot -0.000124
; residue  190 ccc rtp ccc q -0.0
 4486         c3    190    ccc     C1   4486 0.60214900  12.010000   ; qtot 0.602025
 4487         h1    190    ccc     H1   4487 -0.09246700   1.008000   ; qtot 0.509558
 4488         h1    190    ccc     H2   4488 -0.09246700   1.008000   ; qtot 0.417091
 4489         c3    190    ccc     C2   4489 -0.02543800  12.010000   ; qtot 0.391653
 4490         hc    190    ccc     H3   4490 0.00853100   1.008000   ; qtot 0.400184
 4491         hc    190    ccc     H4   4491 0.00853100   1.008000   ; qtot 0.408715
 4492         c3    190    ccc     C3   4492 -0.04070000  12.010000   ; qtot 0.368015
 4493         h1    190    ccc     H5   4493 0.04605500   1.008000   ; qtot 0.414070
 4494         h1    190    ccc     H6   4494 0.04605500   1.008000   ; qtot 0.460125
 4495         n3    190    ccc     N1   4495 -1.11801800  14.010000   ; qtot -0.657893
 4496         hn    190    ccc     H7   4496 0.38419200   1.008000   ; qtot -0.273701
 4497         hn    190    ccc     H8   4497 0.38419200   1.008000   ; qtot 0.110491
 4498         os    190    ccc     O1   4498 -0.11061500  16.000000   ; qtot -0.000124
; residue  191 ccc rtp ccc q -0.0
 4499         c3    191    ccc     C1   4499 0.60214900  12.010000   ; qtot 0.602025
 4500         h1    191    ccc     H1   4500 -0.09246700   1.008000   ; qtot 0.509558
 4501         h1    191    ccc     H2   4501 -0.09246700   1.008000   ; qtot 0.417091
 4502         c3    191    ccc     C2   4502 -0.02543800  12.010000   ; qtot 0.391653
 4503         hc    191    ccc     H3   4503 0.00853100   1.008000   ; qtot 0.400184
 4504         hc    191    ccc     H4   4504 0.00853100   1.008000   ; qtot 0.408715
 4505         c3    191    ccc     C3   4505 -0.04070000  12.010000   ; qtot 0.368015
 4506         h1    191    ccc     H5   4506 0.04605500   1.008000   ; qtot 0.414070
 4507         h1    191    ccc     H6   4507 0.04605500   1.008000   ; qtot 0.460125
 4508         n3    191    ccc     N1   4508 -1.11801800  14.010000   ; qtot -0.657893
 4509         hn    191    ccc     H7   4509 0.38419200   1.008000   ; qtot -0.273701
 4510         hn    191    ccc     H8   4510 0.38419200   1.008000   ; qtot 0.110491
 4511         os    191    ccc     O1   4511 -0.11061500  16.000000   ; qtot -0.000124
; residue  192 ccc rtp ccc q -0.0
 4512         c3    192    ccc     C1   4512 0.60214900  12.010000   ; qtot 0.602025
 4513         h1    192    ccc     H1   4513 -0.09246700   1.008000   ; qtot 0.509558
 4514         h1    192    ccc     H2   4514 -0.09246700   1.008000   ; qtot 0.417091
 4515         c3    192    ccc     C2   4515 -0.02543800  12.010000   ; qtot 0.391653
 4516         hc    192    ccc     H3   4516 0.00853100   1.008000   ; qtot 0.400184
 4517         hc    192    ccc     H4   4517 0.00853100   1.008000   ; qtot 0.408715
 4518         c3    192    ccc     C3   4518 -0.04070000  12.010000   ; qtot 0.368015
 4519         h1    192    ccc     H5   4519 0.04605500   1.008000   ; qtot 0.414070
 4520         h1    192    ccc     H6   4520 0.04605500   1.008000   ; qtot 0.460125
 4521         n3    192    ccc     N1   4521 -1.11801800  14.010000   ; qtot -0.657893
 4522         hn    192    ccc     H7   4522 0.38419200   1.008000   ; qtot -0.273701
 4523         hn    192    ccc     H8   4523 0.38419200   1.008000   ; qtot 0.110491
 4524         os    192    ccc     O1   4524 -0.11061500  16.000000   ; qtot -0.000124
; residue  193 ccc rtp ccc q -0.0
 4525         c3    193    ccc     C1   4525 0.60214900  12.010000   ; qtot 0.602025
 4526         h1    193    ccc     H1   4526 -0.09246700   1.008000   ; qtot 0.509558
 4527         h1    193    ccc     H2   4527 -0.09246700   1.008000   ; qtot 0.417091
 4528         c3    193    ccc     C2   4528 -0.02543800  12.010000   ; qtot 0.391653
 4529         hc    193    ccc     H3   4529 0.00853100   1.008000   ; qtot 0.400184
 4530         hc    193    ccc     H4   4530 0.00853100   1.008000   ; qtot 0.408715
 4531         c3    193    ccc     C3   4531 -0.04070000  12.010000   ; qtot 0.368015
 4532         h1    193    ccc     H5   4532 0.04605500   1.008000   ; qtot 0.414070
 4533         h1    193    ccc     H6   4533 0.04605500   1.008000   ; qtot 0.460125
 4534         n3    193    ccc     N1   4534 -1.11801800  14.010000   ; qtot -0.657893
 4535         hn    193    ccc     H7   4535 0.38419200   1.008000   ; qtot -0.273701
 4536         hn    193    ccc     H8   4536 0.38419200   1.008000   ; qtot 0.110491
 4537         os    193    ccc     O1   4537 -0.11061500  16.000000   ; qtot -0.000124
; residue  194 ccc rtp ccc q -0.0
 4538         c3    194    ccc     C1   4538 0.60214900  12.010000   ; qtot 0.602025
 4539         h1    194    ccc     H1   4539 -0.09246700   1.008000   ; qtot 0.509558
 4540         h1    194    ccc     H2   4540 -0.09246700   1.008000   ; qtot 0.417091
 4541         c3    194    ccc     C2   4541 -0.02543800  12.010000   ; qtot 0.391653
 4542         hc    194    ccc     H3   4542 0.00853100   1.008000   ; qtot 0.400184
 4543         hc    194    ccc     H4   4543 0.00853100   1.008000   ; qtot 0.408715
 4544         c3    194    ccc     C3   4544 -0.04070000  12.010000   ; qtot 0.368015
 4545         h1    194    ccc     H5   4545 0.04605500   1.008000   ; qtot 0.414070
 4546         h1    194    ccc     H6   4546 0.04605500   1.008000   ; qtot 0.460125
 4547         n3    194    ccc     N1   4547 -1.11801800  14.010000   ; qtot -0.657893
 4548         hn    194    ccc     H7   4548 0.38419200   1.008000   ; qtot -0.273701
 4549         hn    194    ccc     H8   4549 0.38419200   1.008000   ; qtot 0.110491
 4550         os    194    ccc     O1   4550 -0.11061500  16.000000   ; qtot -0.000124
; residue  195 ccc rtp ccc q -0.0
 4551         c3    195    ccc     C1   4551 0.60214900  12.010000   ; qtot 0.602025
 4552         h1    195    ccc     H1   4552 -0.09246700   1.008000   ; qtot 0.509558
 4553         h1    195    ccc     H2   4553 -0.09246700   1.008000   ; qtot 0.417091
 4554         c3    195    ccc     C2   4554 -0.02543800  12.010000   ; qtot 0.391653
 4555         hc    195    ccc     H3   4555 0.00853100   1.008000   ; qtot 0.400184
 4556         hc    195    ccc     H4   4556 0.00853100   1.008000   ; qtot 0.408715
 4557         c3    195    ccc     C3   4557 -0.04070000  12.010000   ; qtot 0.368015
 4558         h1    195    ccc     H5   4558 0.04605500   1.008000   ; qtot 0.414070
 4559         h1    195    ccc     H6   4559 0.04605500   1.008000   ; qtot 0.460125
 4560         n3    195    ccc     N1   4560 -1.11801800  14.010000   ; qtot -0.657893
 4561         hn    195    ccc     H7   4561 0.38419200   1.008000   ; qtot -0.273701
 4562         hn    195    ccc     H8   4562 0.38419200   1.008000   ; qtot 0.110491
 4563         os    195    ccc     O1   4563 -0.11061500  16.000000   ; qtot -0.000124
; residue  196 ccc rtp ccc q -0.0
 4564         c3    196    ccc     C1   4564 0.60214900  12.010000   ; qtot 0.602025
 4565         h1    196    ccc     H1   4565 -0.09246700   1.008000   ; qtot 0.509558
 4566         h1    196    ccc     H2   4566 -0.09246700   1.008000   ; qtot 0.417091
 4567         c3    196    ccc     C2   4567 -0.02543800  12.010000   ; qtot 0.391653
 4568         hc    196    ccc     H3   4568 0.00853100   1.008000   ; qtot 0.400184
 4569         hc    196    ccc     H4   4569 0.00853100   1.008000   ; qtot 0.408715
 4570         c3    196    ccc     C3   4570 -0.04070000  12.010000   ; qtot 0.368015
 4571         h1    196    ccc     H5   4571 0.04605500   1.008000   ; qtot 0.414070
 4572         h1    196    ccc     H6   4572 0.04605500   1.008000   ; qtot 0.460125
 4573         n3    196    ccc     N1   4573 -1.11801800  14.010000   ; qtot -0.657893
 4574         hn    196    ccc     H7   4574 0.38419200   1.008000   ; qtot -0.273701
 4575         hn    196    ccc     H8   4575 0.38419200   1.008000   ; qtot 0.110491
 4576         os    196    ccc     O1   4576 -0.11061500  16.000000   ; qtot -0.000124
; residue  197 ccc rtp ccc q -0.0
 4577         c3    197    ccc     C1   4577 0.60214900  12.010000   ; qtot 0.602025
 4578         h1    197    ccc     H1   4578 -0.09246700   1.008000   ; qtot 0.509558
 4579         h1    197    ccc     H2   4579 -0.09246700   1.008000   ; qtot 0.417091
 4580         c3    197    ccc     C2   4580 -0.02543800  12.010000   ; qtot 0.391653
 4581         hc    197    ccc     H3   4581 0.00853100   1.008000   ; qtot 0.400184
 4582         hc    197    ccc     H4   4582 0.00853100   1.008000   ; qtot 0.408715
 4583         c3    197    ccc     C3   4583 -0.04070000  12.010000   ; qtot 0.368015
 4584         h1    197    ccc     H5   4584 0.04605500   1.008000   ; qtot 0.414070
 4585         h1    197    ccc     H6   4585 0.04605500   1.008000   ; qtot 0.460125
 4586         n3    197    ccc     N1   4586 -1.11801800  14.010000   ; qtot -0.657893
 4587         hn    197    ccc     H7   4587 0.38419200   1.008000   ; qtot -0.273701
 4588         hn    197    ccc     H8   4588 0.38419200   1.008000   ; qtot 0.110491
 4589         os    197    ccc     O1   4589 -0.11061500  16.000000   ; qtot -0.000124
; residue  198 ccc rtp ccc q -0.0
 4590         c3    198    ccc     C1   4590 0.60214900  12.010000   ; qtot 0.602025
 4591         h1    198    ccc     H1   4591 -0.09246700   1.008000   ; qtot 0.509558
 4592         h1    198    ccc     H2   4592 -0.09246700   1.008000   ; qtot 0.417091
 4593         c3    198    ccc     C2   4593 -0.02543800  12.010000   ; qtot 0.391653
 4594         hc    198    ccc     H3   4594 0.00853100   1.008000   ; qtot 0.400184
 4595         hc    198    ccc     H4   4595 0.00853100   1.008000   ; qtot 0.408715
 4596         c3    198    ccc     C3   4596 -0.04070000  12.010000   ; qtot 0.368015
 4597         h1    198    ccc     H5   4597 0.04605500   1.008000   ; qtot 0.414070
 4598         h1    198    ccc     H6   4598 0.04605500   1.008000   ; qtot 0.460125
 4599         n3    198    ccc     N1   4599 -1.11801800  14.010000   ; qtot -0.657893
 4600         hn    198    ccc     H7   4600 0.38419200   1.008000   ; qtot -0.273701
 4601         hn    198    ccc     H8   4601 0.38419200   1.008000   ; qtot 0.110491
 4602         os    198    ccc     O1   4602 -0.11061500  16.000000   ; qtot -0.000124
; residue  199 ccc rtp ccc q -0.0
 4603         c3    199    ccc     C1   4603 0.60214900  12.010000   ; qtot 0.602025
 4604         h1    199    ccc     H1   4604 -0.09246700   1.008000   ; qtot 0.509558
 4605         h1    199    ccc     H2   4605 -0.09246700   1.008000   ; qtot 0.417091
 4606         c3    199    ccc     C2   4606 -0.02543800  12.010000   ; qtot 0.391653
 4607         hc    199    ccc     H3   4607 0.00853100   1.008000   ; qtot 0.400184
 4608         hc    199    ccc     H4   4608 0.00853100   1.008000   ; qtot 0.408715
 4609         c3    199    ccc     C3   4609 -0.04070000  12.010000   ; qtot 0.368015
 4610         h1    199    ccc     H5   4610 0.04605500   1.008000   ; qtot 0.414070
 4611         h1    199    ccc     H6   4611 0.04605500   1.008000   ; qtot 0.460125
 4612         n3    199    ccc     N1   4612 -1.11801800  14.010000   ; qtot -0.657893
 4613         hn    199    ccc     H7   4613 0.38419200   1.008000   ; qtot -0.273701
 4614         hn    199    ccc     H8   4614 0.38419200   1.008000   ; qtot 0.110491
 4615         os    199    ccc     O1   4615 -0.11061500  16.000000   ; qtot -0.000124
; residue  200 ccc rtp ccc q -0.0
 4616         c3    200    ccc     C1   4616 0.60214900  12.010000   ; qtot 0.602025
 4617         h1    200    ccc     H1   4617 -0.09246700   1.008000   ; qtot 0.509558
 4618         h1    200    ccc     H2   4618 -0.09246700   1.008000   ; qtot 0.417091
 4619         c3    200    ccc     C2   4619 -0.02543800  12.010000   ; qtot 0.391653
 4620         hc    200    ccc     H3   4620 0.00853100   1.008000   ; qtot 0.400184
 4621         hc    200    ccc     H4   4621 0.00853100   1.008000   ; qtot 0.408715
 4622         c3    200    ccc     C3   4622 -0.04070000  12.010000   ; qtot 0.368015
 4623         h1    200    ccc     H5   4623 0.04605500   1.008000   ; qtot 0.414070
 4624         h1    200    ccc     H6   4624 0.04605500   1.008000   ; qtot 0.460125
 4625         n3    200    ccc     N1   4625 -1.11801800  14.010000   ; qtot -0.657893
 4626         hn    200    ccc     H7   4626 0.38419200   1.008000   ; qtot -0.273701
 4627         hn    200    ccc     H8   4627 0.38419200   1.008000   ; qtot 0.110491
 4628         os    200    ccc     O1   4628 -0.11061500  16.000000   ; qtot -0.000124
; residue  201 ccc rtp ccc q -0.0
 4629         c3    201    ccc     C1   4629 0.60214900  12.010000   ; qtot 0.602025
 4630         h1    201    ccc     H1   4630 -0.09246700   1.008000   ; qtot 0.509558
 4631         h1    201    ccc     H2   4631 -0.09246700   1.008000   ; qtot 0.417091
 4632         c3    201    ccc     C2   4632 -0.02543800  12.010000   ; qtot 0.391653
 4633         hc    201    ccc     H3   4633 0.00853100   1.008000   ; qtot 0.400184
 4634         hc    201    ccc     H4   4634 0.00853100   1.008000   ; qtot 0.408715
 4635         c3    201    ccc     C3   4635 -0.04070000  12.010000   ; qtot 0.368015
 4636         h1    201    ccc     H5   4636 0.04605500   1.008000   ; qtot 0.414070
 4637         h1    201    ccc     H6   4637 0.04605500   1.008000   ; qtot 0.460125
 4638         n3    201    ccc     N1   4638 -1.11801800  14.010000   ; qtot -0.657893
 4639         hn    201    ccc     H7   4639 0.38419200   1.008000   ; qtot -0.273701
 4640         hn    201    ccc     H8   4640 0.38419200   1.008000   ; qtot 0.110491
 4641         os    201    ccc     O1   4641 -0.11061500  16.000000   ; qtot -0.000124
; residue  202 ccc rtp ccc q -0.0
 4642         c3    202    ccc     C1   4642 0.60214900  12.010000   ; qtot 0.602025
 4643         h1    202    ccc     H1   4643 -0.09246700   1.008000   ; qtot 0.509558
 4644         h1    202    ccc     H2   4644 -0.09246700   1.008000   ; qtot 0.417091
 4645         c3    202    ccc     C2   4645 -0.02543800  12.010000   ; qtot 0.391653
 4646         hc    202    ccc     H3   4646 0.00853100   1.008000   ; qtot 0.400184
 4647         hc    202    ccc     H4   4647 0.00853100   1.008000   ; qtot 0.408715
 4648         c3    202    ccc     C3   4648 -0.04070000  12.010000   ; qtot 0.368015
 4649         h1    202    ccc     H5   4649 0.04605500   1.008000   ; qtot 0.414070
 4650         h1    202    ccc     H6   4650 0.04605500   1.008000   ; qtot 0.460125
 4651         n3    202    ccc     N1   4651 -1.11801800  14.010000   ; qtot -0.657893
 4652         hn    202    ccc     H7   4652 0.38419200   1.008000   ; qtot -0.273701
 4653         hn    202    ccc     H8   4653 0.38419200   1.008000   ; qtot 0.110491
 4654         os    202    ccc     O1   4654 -0.11061500  16.000000   ; qtot -0.000124
; residue  203 ccc rtp ccc q -0.0
 4655         c3    203    ccc     C1   4655 0.60214900  12.010000   ; qtot 0.602025
 4656         h1    203    ccc     H1   4656 -0.09246700   1.008000   ; qtot 0.509558
 4657         h1    203    ccc     H2   4657 -0.09246700   1.008000   ; qtot 0.417091
 4658         c3    203    ccc     C2   4658 -0.02543800  12.010000   ; qtot 0.391653
 4659         hc    203    ccc     H3   4659 0.00853100   1.008000   ; qtot 0.400184
 4660         hc    203    ccc     H4   4660 0.00853100   1.008000   ; qtot 0.408715
 4661         c3    203    ccc     C3   4661 -0.04070000  12.010000   ; qtot 0.368015
 4662         h1    203    ccc     H5   4662 0.04605500   1.008000   ; qtot 0.414070
 4663         h1    203    ccc     H6   4663 0.04605500   1.008000   ; qtot 0.460125
 4664         n3    203    ccc     N1   4664 -1.11801800  14.010000   ; qtot -0.657893
 4665         hn    203    ccc     H7   4665 0.38419200   1.008000   ; qtot -0.273701
 4666         hn    203    ccc     H8   4666 0.38419200   1.008000   ; qtot 0.110491
 4667         os    203    ccc     O1   4667 -0.11061500  16.000000   ; qtot -0.000124
; residue  204 ccc rtp ccc q -0.0
 4668         c3    204    ccc     C1   4668 0.60214900  12.010000   ; qtot 0.602025
 4669         h1    204    ccc     H1   4669 -0.09246700   1.008000   ; qtot 0.509558
 4670         h1    204    ccc     H2   4670 -0.09246700   1.008000   ; qtot 0.417091
 4671         c3    204    ccc     C2   4671 -0.02543800  12.010000   ; qtot 0.391653
 4672         hc    204    ccc     H3   4672 0.00853100   1.008000   ; qtot 0.400184
 4673         hc    204    ccc     H4   4673 0.00853100   1.008000   ; qtot 0.408715
 4674         c3    204    ccc     C3   4674 -0.04070000  12.010000   ; qtot 0.368015
 4675         h1    204    ccc     H5   4675 0.04605500   1.008000   ; qtot 0.414070
 4676         h1    204    ccc     H6   4676 0.04605500   1.008000   ; qtot 0.460125
 4677         n3    204    ccc     N1   4677 -1.11801800  14.010000   ; qtot -0.657893
 4678         hn    204    ccc     H7   4678 0.38419200   1.008000   ; qtot -0.273701
 4679         hn    204    ccc     H8   4679 0.38419200   1.008000   ; qtot 0.110491
 4680         os    204    ccc     O1   4680 -0.11061500  16.000000   ; qtot -0.000124
; residue  205 ccc rtp ccc q -0.0
 4681         c3    205    ccc     C1   4681 0.60214900  12.010000   ; qtot 0.602025
 4682         h1    205    ccc     H1   4682 -0.09246700   1.008000   ; qtot 0.509558
 4683         h1    205    ccc     H2   4683 -0.09246700   1.008000   ; qtot 0.417091
 4684         c3    205    ccc     C2   4684 -0.02543800  12.010000   ; qtot 0.391653
 4685         hc    205    ccc     H3   4685 0.00853100   1.008000   ; qtot 0.400184
 4686         hc    205    ccc     H4   4686 0.00853100   1.008000   ; qtot 0.408715
 4687         c3    205    ccc     C3   4687 -0.04070000  12.010000   ; qtot 0.368015
 4688         h1    205    ccc     H5   4688 0.04605500   1.008000   ; qtot 0.414070
 4689         h1    205    ccc     H6   4689 0.04605500   1.008000   ; qtot 0.460125
 4690         n3    205    ccc     N1   4690 -1.11801800  14.010000   ; qtot -0.657893
 4691         hn    205    ccc     H7   4691 0.38419200   1.008000   ; qtot -0.273701
 4692         hn    205    ccc     H8   4692 0.38419200   1.008000   ; qtot 0.110491
 4693         os    205    ccc     O1   4693 -0.11061500  16.000000   ; qtot -0.000124
; residue  206 ccc rtp ccc q -0.0
 4694         c3    206    ccc     C1   4694 0.60214900  12.010000   ; qtot 0.602025
 4695         h1    206    ccc     H1   4695 -0.09246700   1.008000   ; qtot 0.509558
 4696         h1    206    ccc     H2   4696 -0.09246700   1.008000   ; qtot 0.417091
 4697         c3    206    ccc     C2   4697 -0.02543800  12.010000   ; qtot 0.391653
 4698         hc    206    ccc     H3   4698 0.00853100   1.008000   ; qtot 0.400184
 4699         hc    206    ccc     H4   4699 0.00853100   1.008000   ; qtot 0.408715
 4700         c3    206    ccc     C3   4700 -0.04070000  12.010000   ; qtot 0.368015
 4701         h1    206    ccc     H5   4701 0.04605500   1.008000   ; qtot 0.414070
 4702         h1    206    ccc     H6   4702 0.04605500   1.008000   ; qtot 0.460125
 4703         n3    206    ccc     N1   4703 -1.11801800  14.010000   ; qtot -0.657893
 4704         hn    206    ccc     H7   4704 0.38419200   1.008000   ; qtot -0.273701
 4705         hn    206    ccc     H8   4705 0.38419200   1.008000   ; qtot 0.110491
 4706         os    206    ccc     O1   4706 -0.11061500  16.000000   ; qtot -0.000124
; residue  207 ccc rtp ccc q -0.0
 4707         c3    207    ccc     C1   4707 0.60214900  12.010000   ; qtot 0.602025
 4708         h1    207    ccc     H1   4708 -0.09246700   1.008000   ; qtot 0.509558
 4709         h1    207    ccc     H2   4709 -0.09246700   1.008000   ; qtot 0.417091
 4710         c3    207    ccc     C2   4710 -0.02543800  12.010000   ; qtot 0.391653
 4711         hc    207    ccc     H3   4711 0.00853100   1.008000   ; qtot 0.400184
 4712         hc    207    ccc     H4   4712 0.00853100   1.008000   ; qtot 0.408715
 4713         c3    207    ccc     C3   4713 -0.04070000  12.010000   ; qtot 0.368015
 4714         h1    207    ccc     H5   4714 0.04605500   1.008000   ; qtot 0.414070
 4715         h1    207    ccc     H6   4715 0.04605500   1.008000   ; qtot 0.460125
 4716         n3    207    ccc     N1   4716 -1.11801800  14.010000   ; qtot -0.657893
 4717         hn    207    ccc     H7   4717 0.38419200   1.008000   ; qtot -0.273701
 4718         hn    207    ccc     H8   4718 0.38419200   1.008000   ; qtot 0.110491
 4719         os    207    ccc     O1   4719 -0.11061500  16.000000   ; qtot -0.000124
; residue  208 ccc rtp ccc q -0.0
 4720         c3    208    ccc     C1   4720 0.60214900  12.010000   ; qtot 0.602025
 4721         h1    208    ccc     H1   4721 -0.09246700   1.008000   ; qtot 0.509558
 4722         h1    208    ccc     H2   4722 -0.09246700   1.008000   ; qtot 0.417091
 4723         c3    208    ccc     C2   4723 -0.02543800  12.010000   ; qtot 0.391653
 4724         hc    208    ccc     H3   4724 0.00853100   1.008000   ; qtot 0.400184
 4725         hc    208    ccc     H4   4725 0.00853100   1.008000   ; qtot 0.408715
 4726         c3    208    ccc     C3   4726 -0.04070000  12.010000   ; qtot 0.368015
 4727         h1    208    ccc     H5   4727 0.04605500   1.008000   ; qtot 0.414070
 4728         h1    208    ccc     H6   4728 0.04605500   1.008000   ; qtot 0.460125
 4729         n3    208    ccc     N1   4729 -1.11801800  14.010000   ; qtot -0.657893
 4730         hn    208    ccc     H7   4730 0.38419200   1.008000   ; qtot -0.273701
 4731         hn    208    ccc     H8   4731 0.38419200   1.008000   ; qtot 0.110491
 4732         os    208    ccc     O1   4732 -0.11061500  16.000000   ; qtot -0.000124
; residue  209 ccc rtp ccc q -0.0
 4733         c3    209    ccc     C1   4733 0.60214900  12.010000   ; qtot 0.602025
 4734         h1    209    ccc     H1   4734 -0.09246700   1.008000   ; qtot 0.509558
 4735         h1    209    ccc     H2   4735 -0.09246700   1.008000   ; qtot 0.417091
 4736         c3    209    ccc     C2   4736 -0.02543800  12.010000   ; qtot 0.391653
 4737         hc    209    ccc     H3   4737 0.00853100   1.008000   ; qtot 0.400184
 4738         hc    209    ccc     H4   4738 0.00853100   1.008000   ; qtot 0.408715
 4739         c3    209    ccc     C3   4739 -0.04070000  12.010000   ; qtot 0.368015
 4740         h1    209    ccc     H5   4740 0.04605500   1.008000   ; qtot 0.414070
 4741         h1    209    ccc     H6   4741 0.04605500   1.008000   ; qtot 0.460125
 4742         n3    209    ccc     N1   4742 -1.11801800  14.010000   ; qtot -0.657893
 4743         hn    209    ccc     H7   4743 0.38419200   1.008000   ; qtot -0.273701
 4744         hn    209    ccc     H8   4744 0.38419200   1.008000   ; qtot 0.110491
 4745         os    209    ccc     O1   4745 -0.11061500  16.000000   ; qtot -0.000124
; residue  210 ccc rtp ccc q -0.0
 4746         c3    210    ccc     C1   4746 0.60214900  12.010000   ; qtot 0.602025
 4747         h1    210    ccc     H1   4747 -0.09246700   1.008000   ; qtot 0.509558
 4748         h1    210    ccc     H2   4748 -0.09246700   1.008000   ; qtot 0.417091
 4749         c3    210    ccc     C2   4749 -0.02543800  12.010000   ; qtot 0.391653
 4750         hc    210    ccc     H3   4750 0.00853100   1.008000   ; qtot 0.400184
 4751         hc    210    ccc     H4   4751 0.00853100   1.008000   ; qtot 0.408715
 4752         c3    210    ccc     C3   4752 -0.04070000  12.010000   ; qtot 0.368015
 4753         h1    210    ccc     H5   4753 0.04605500   1.008000   ; qtot 0.414070
 4754         h1    210    ccc     H6   4754 0.04605500   1.008000   ; qtot 0.460125
 4755         n3    210    ccc     N1   4755 -1.11801800  14.010000   ; qtot -0.657893
 4756         hn    210    ccc     H7   4756 0.38419200   1.008000   ; qtot -0.273701
 4757         hn    210    ccc     H8   4757 0.38419200   1.008000   ; qtot 0.110491
 4758         os    210    ccc     O1   4758 -0.11061500  16.000000   ; qtot -0.000124
; residue  211 ccc rtp ccc q -0.0
 4759         c3    211    ccc     C1   4759 0.60214900  12.010000   ; qtot 0.602025
 4760         h1    211    ccc     H1   4760 -0.09246700   1.008000   ; qtot 0.509558
 4761         h1    211    ccc     H2   4761 -0.09246700   1.008000   ; qtot 0.417091
 4762         c3    211    ccc     C2   4762 -0.02543800  12.010000   ; qtot 0.391653
 4763         hc    211    ccc     H3   4763 0.00853100   1.008000   ; qtot 0.400184
 4764         hc    211    ccc     H4   4764 0.00853100   1.008000   ; qtot 0.408715
 4765         c3    211    ccc     C3   4765 -0.04070000  12.010000   ; qtot 0.368015
 4766         h1    211    ccc     H5   4766 0.04605500   1.008000   ; qtot 0.414070
 4767         h1    211    ccc     H6   4767 0.04605500   1.008000   ; qtot 0.460125
 4768         n3    211    ccc     N1   4768 -1.11801800  14.010000   ; qtot -0.657893
 4769         hn    211    ccc     H7   4769 0.38419200   1.008000   ; qtot -0.273701
 4770         hn    211    ccc     H8   4770 0.38419200   1.008000   ; qtot 0.110491
 4771         os    211    ccc     O1   4771 -0.11061500  16.000000   ; qtot -0.000124
; residue  212 ccc rtp ccc q -0.0
 4772         c3    212    ccc     C1   4772 0.60214900  12.010000   ; qtot 0.602025
 4773         h1    212    ccc     H1   4773 -0.09246700   1.008000   ; qtot 0.509558
 4774         h1    212    ccc     H2   4774 -0.09246700   1.008000   ; qtot 0.417091
 4775         c3    212    ccc     C2   4775 -0.02543800  12.010000   ; qtot 0.391653
 4776         hc    212    ccc     H3   4776 0.00853100   1.008000   ; qtot 0.400184
 4777         hc    212    ccc     H4   4777 0.00853100   1.008000   ; qtot 0.408715
 4778         c3    212    ccc     C3   4778 -0.04070000  12.010000   ; qtot 0.368015
 4779         h1    212    ccc     H5   4779 0.04605500   1.008000   ; qtot 0.414070
 4780         h1    212    ccc     H6   4780 0.04605500   1.008000   ; qtot 0.460125
 4781         n3    212    ccc     N1   4781 -1.11801800  14.010000   ; qtot -0.657893
 4782         hn    212    ccc     H7   4782 0.38419200   1.008000   ; qtot -0.273701
 4783         hn    212    ccc     H8   4783 0.38419200   1.008000   ; qtot 0.110491
 4784         os    212    ccc     O1   4784 -0.11061500  16.000000   ; qtot -0.000124
; residue  213 ccc rtp ccc q -0.0
 4785         c3    213    ccc     C1   4785 0.60214900  12.010000   ; qtot 0.602025
 4786         h1    213    ccc     H1   4786 -0.09246700   1.008000   ; qtot 0.509558
 4787         h1    213    ccc     H2   4787 -0.09246700   1.008000   ; qtot 0.417091
 4788         c3    213    ccc     C2   4788 -0.02543800  12.010000   ; qtot 0.391653
 4789         hc    213    ccc     H3   4789 0.00853100   1.008000   ; qtot 0.400184
 4790         hc    213    ccc     H4   4790 0.00853100   1.008000   ; qtot 0.408715
 4791         c3    213    ccc     C3   4791 -0.04070000  12.010000   ; qtot 0.368015
 4792         h1    213    ccc     H5   4792 0.04605500   1.008000   ; qtot 0.414070
 4793         h1    213    ccc     H6   4793 0.04605500   1.008000   ; qtot 0.460125
 4794         n3    213    ccc     N1   4794 -1.11801800  14.010000   ; qtot -0.657893
 4795         hn    213    ccc     H7   4795 0.38419200   1.008000   ; qtot -0.273701
 4796         hn    213    ccc     H8   4796 0.38419200   1.008000   ; qtot 0.110491
 4797         os    213    ccc     O1   4797 -0.11061500  16.000000   ; qtot -0.000124
; residue  214 ccc rtp ccc q -0.0
 4798         c3    214    ccc     C1   4798 0.60214900  12.010000   ; qtot 0.602025
 4799         h1    214    ccc     H1   4799 -0.09246700   1.008000   ; qtot 0.509558
 4800         h1    214    ccc     H2   4800 -0.09246700   1.008000   ; qtot 0.417091
 4801         c3    214    ccc     C2   4801 -0.02543800  12.010000   ; qtot 0.391653
 4802         hc    214    ccc     H3   4802 0.00853100   1.008000   ; qtot 0.400184
 4803         hc    214    ccc     H4   4803 0.00853100   1.008000   ; qtot 0.408715
 4804         c3    214    ccc     C3   4804 -0.04070000  12.010000   ; qtot 0.368015
 4805         h1    214    ccc     H5   4805 0.04605500   1.008000   ; qtot 0.414070
 4806         h1    214    ccc     H6   4806 0.04605500   1.008000   ; qtot 0.460125
 4807         n3    214    ccc     N1   4807 -1.11801800  14.010000   ; qtot -0.657893
 4808         hn    214    ccc     H7   4808 0.38419200   1.008000   ; qtot -0.273701
 4809         hn    214    ccc     H8   4809 0.38419200   1.008000   ; qtot 0.110491
 4810         os    214    ccc     O1   4810 -0.11061500  16.000000   ; qtot -0.000124
; residue  215 ccc rtp ccc q -0.0
 4811         c3    215    ccc     C1   4811 0.60214900  12.010000   ; qtot 0.602025
 4812         h1    215    ccc     H1   4812 -0.09246700   1.008000   ; qtot 0.509558
 4813         h1    215    ccc     H2   4813 -0.09246700   1.008000   ; qtot 0.417091
 4814         c3    215    ccc     C2   4814 -0.02543800  12.010000   ; qtot 0.391653
 4815         hc    215    ccc     H3   4815 0.00853100   1.008000   ; qtot 0.400184
 4816         hc    215    ccc     H4   4816 0.00853100   1.008000   ; qtot 0.408715
 4817         c3    215    ccc     C3   4817 -0.04070000  12.010000   ; qtot 0.368015
 4818         h1    215    ccc     H5   4818 0.04605500   1.008000   ; qtot 0.414070
 4819         h1    215    ccc     H6   4819 0.04605500   1.008000   ; qtot 0.460125
 4820         n3    215    ccc     N1   4820 -1.11801800  14.010000   ; qtot -0.657893
 4821         hn    215    ccc     H7   4821 0.38419200   1.008000   ; qtot -0.273701
 4822         hn    215    ccc     H8   4822 0.38419200   1.008000   ; qtot 0.110491
 4823         os    215    ccc     O1   4823 -0.11061500  16.000000   ; qtot -0.000124
; residue  216 ccc rtp ccc q -0.0
 4824         c3    216    ccc     C1   4824 0.60214900  12.010000   ; qtot 0.602025
 4825         h1    216    ccc     H1   4825 -0.09246700   1.008000   ; qtot 0.509558
 4826         h1    216    ccc     H2   4826 -0.09246700   1.008000   ; qtot 0.417091
 4827         c3    216    ccc     C2   4827 -0.02543800  12.010000   ; qtot 0.391653
 4828         hc    216    ccc     H3   4828 0.00853100   1.008000   ; qtot 0.400184
 4829         hc    216    ccc     H4   4829 0.00853100   1.008000   ; qtot 0.408715
 4830         c3    216    ccc     C3   4830 -0.04070000  12.010000   ; qtot 0.368015
 4831         h1    216    ccc     H5   4831 0.04605500   1.008000   ; qtot 0.414070
 4832         h1    216    ccc     H6   4832 0.04605500   1.008000   ; qtot 0.460125
 4833         n3    216    ccc     N1   4833 -1.11801800  14.010000   ; qtot -0.657893
 4834         hn    216    ccc     H7   4834 0.38419200   1.008000   ; qtot -0.273701
 4835         hn    216    ccc     H8   4835 0.38419200   1.008000   ; qtot 0.110491
 4836         os    216    ccc     O1   4836 -0.11061500  16.000000   ; qtot -0.000124
; residue  217 ccc rtp ccc q -0.0
 4837         c3    217    ccc     C1   4837 0.60214900  12.010000   ; qtot 0.602025
 4838         h1    217    ccc     H1   4838 -0.09246700   1.008000   ; qtot 0.509558
 4839         h1    217    ccc     H2   4839 -0.09246700   1.008000   ; qtot 0.417091
 4840         c3    217    ccc     C2   4840 -0.02543800  12.010000   ; qtot 0.391653
 4841         hc    217    ccc     H3   4841 0.00853100   1.008000   ; qtot 0.400184
 4842         hc    217    ccc     H4   4842 0.00853100   1.008000   ; qtot 0.408715
 4843         c3    217    ccc     C3   4843 -0.04070000  12.010000   ; qtot 0.368015
 4844         h1    217    ccc     H5   4844 0.04605500   1.008000   ; qtot 0.414070
 4845         h1    217    ccc     H6   4845 0.04605500   1.008000   ; qtot 0.460125
 4846         n3    217    ccc     N1   4846 -1.11801800  14.010000   ; qtot -0.657893
 4847         hn    217    ccc     H7   4847 0.38419200   1.008000   ; qtot -0.273701
 4848         hn    217    ccc     H8   4848 0.38419200   1.008000   ; qtot 0.110491
 4849         os    217    ccc     O1   4849 -0.11061500  16.000000   ; qtot -0.000124
; residue  218 ccc rtp ccc q -0.0
 4850         c3    218    ccc     C1   4850 0.60214900  12.010000   ; qtot 0.602025
 4851         h1    218    ccc     H1   4851 -0.09246700   1.008000   ; qtot 0.509558
 4852         h1    218    ccc     H2   4852 -0.09246700   1.008000   ; qtot 0.417091
 4853         c3    218    ccc     C2   4853 -0.02543800  12.010000   ; qtot 0.391653
 4854         hc    218    ccc     H3   4854 0.00853100   1.008000   ; qtot 0.400184
 4855         hc    218    ccc     H4   4855 0.00853100   1.008000   ; qtot 0.408715
 4856         c3    218    ccc     C3   4856 -0.04070000  12.010000   ; qtot 0.368015
 4857         h1    218    ccc     H5   4857 0.04605500   1.008000   ; qtot 0.414070
 4858         h1    218    ccc     H6   4858 0.04605500   1.008000   ; qtot 0.460125
 4859         n3    218    ccc     N1   4859 -1.11801800  14.010000   ; qtot -0.657893
 4860         hn    218    ccc     H7   4860 0.38419200   1.008000   ; qtot -0.273701
 4861         hn    218    ccc     H8   4861 0.38419200   1.008000   ; qtot 0.110491
 4862         os    218    ccc     O1   4862 -0.11061500  16.000000   ; qtot -0.000124
; residue  219 ccc rtp ccc q -0.0
 4863         c3    219    ccc     C1   4863 0.60214900  12.010000   ; qtot 0.602025
 4864         h1    219    ccc     H1   4864 -0.09246700   1.008000   ; qtot 0.509558
 4865         h1    219    ccc     H2   4865 -0.09246700   1.008000   ; qtot 0.417091
 4866         c3    219    ccc     C2   4866 -0.02543800  12.010000   ; qtot 0.391653
 4867         hc    219    ccc     H3   4867 0.00853100   1.008000   ; qtot 0.400184
 4868         hc    219    ccc     H4   4868 0.00853100   1.008000   ; qtot 0.408715
 4869         c3    219    ccc     C3   4869 -0.04070000  12.010000   ; qtot 0.368015
 4870         h1    219    ccc     H5   4870 0.04605500   1.008000   ; qtot 0.414070
 4871         h1    219    ccc     H6   4871 0.04605500   1.008000   ; qtot 0.460125
 4872         n3    219    ccc     N1   4872 -1.11801800  14.010000   ; qtot -0.657893
 4873         hn    219    ccc     H7   4873 0.38419200   1.008000   ; qtot -0.273701
 4874         hn    219    ccc     H8   4874 0.38419200   1.008000   ; qtot 0.110491
 4875         os    219    ccc     O1   4875 -0.11061500  16.000000   ; qtot -0.000124
; residue  220 ccc rtp ccc q -0.0
 4876         c3    220    ccc     C1   4876 0.60214900  12.010000   ; qtot 0.602025
 4877         h1    220    ccc     H1   4877 -0.09246700   1.008000   ; qtot 0.509558
 4878         h1    220    ccc     H2   4878 -0.09246700   1.008000   ; qtot 0.417091
 4879         c3    220    ccc     C2   4879 -0.02543800  12.010000   ; qtot 0.391653
 4880         hc    220    ccc     H3   4880 0.00853100   1.008000   ; qtot 0.400184
 4881         hc    220    ccc     H4   4881 0.00853100   1.008000   ; qtot 0.408715
 4882         c3    220    ccc     C3   4882 -0.04070000  12.010000   ; qtot 0.368015
 4883         h1    220    ccc     H5   4883 0.04605500   1.008000   ; qtot 0.414070
 4884         h1    220    ccc     H6   4884 0.04605500   1.008000   ; qtot 0.460125
 4885         n3    220    ccc     N1   4885 -1.11801800  14.010000   ; qtot -0.657893
 4886         hn    220    ccc     H7   4886 0.38419200   1.008000   ; qtot -0.273701
 4887         hn    220    ccc     H8   4887 0.38419200   1.008000   ; qtot 0.110491
 4888         os    220    ccc     O1   4888 -0.11061500  16.000000   ; qtot -0.000124
; residue  221 ccc rtp ccc q -0.0
 4889         c3    221    ccc     C1   4889 0.60214900  12.010000   ; qtot 0.602025
 4890         h1    221    ccc     H1   4890 -0.09246700   1.008000   ; qtot 0.509558
 4891         h1    221    ccc     H2   4891 -0.09246700   1.008000   ; qtot 0.417091
 4892         c3    221    ccc     C2   4892 -0.02543800  12.010000   ; qtot 0.391653
 4893         hc    221    ccc     H3   4893 0.00853100   1.008000   ; qtot 0.400184
 4894         hc    221    ccc     H4   4894 0.00853100   1.008000   ; qtot 0.408715
 4895         c3    221    ccc     C3   4895 -0.04070000  12.010000   ; qtot 0.368015
 4896         h1    221    ccc     H5   4896 0.04605500   1.008000   ; qtot 0.414070
 4897         h1    221    ccc     H6   4897 0.04605500   1.008000   ; qtot 0.460125
 4898         n3    221    ccc     N1   4898 -1.11801800  14.010000   ; qtot -0.657893
 4899         hn    221    ccc     H7   4899 0.38419200   1.008000   ; qtot -0.273701
 4900         hn    221    ccc     H8   4900 0.38419200   1.008000   ; qtot 0.110491
 4901         os    221    ccc     O1   4901 -0.11061500  16.000000   ; qtot -0.000124
; residue  222 ccc rtp ccc q -0.0
 4902         c3    222    ccc     C1   4902 0.60214900  12.010000   ; qtot 0.602025
 4903         h1    222    ccc     H1   4903 -0.09246700   1.008000   ; qtot 0.509558
 4904         h1    222    ccc     H2   4904 -0.09246700   1.008000   ; qtot 0.417091
 4905         c3    222    ccc     C2   4905 -0.02543800  12.010000   ; qtot 0.391653
 4906         hc    222    ccc     H3   4906 0.00853100   1.008000   ; qtot 0.400184
 4907         hc    222    ccc     H4   4907 0.00853100   1.008000   ; qtot 0.408715
 4908         c3    222    ccc     C3   4908 -0.04070000  12.010000   ; qtot 0.368015
 4909         h1    222    ccc     H5   4909 0.04605500   1.008000   ; qtot 0.414070
 4910         h1    222    ccc     H6   4910 0.04605500   1.008000   ; qtot 0.460125
 4911         n3    222    ccc     N1   4911 -1.11801800  14.010000   ; qtot -0.657893
 4912         hn    222    ccc     H7   4912 0.38419200   1.008000   ; qtot -0.273701
 4913         hn    222    ccc     H8   4913 0.38419200   1.008000   ; qtot 0.110491
 4914         os    222    ccc     O1   4914 -0.11061500  16.000000   ; qtot -0.000124
; residue  223 ccc rtp ccc q -0.0
 4915         c3    223    ccc     C1   4915 0.60214900  12.010000   ; qtot 0.602025
 4916         h1    223    ccc     H1   4916 -0.09246700   1.008000   ; qtot 0.509558
 4917         h1    223    ccc     H2   4917 -0.09246700   1.008000   ; qtot 0.417091
 4918         c3    223    ccc     C2   4918 -0.02543800  12.010000   ; qtot 0.391653
 4919         hc    223    ccc     H3   4919 0.00853100   1.008000   ; qtot 0.400184
 4920         hc    223    ccc     H4   4920 0.00853100   1.008000   ; qtot 0.408715
 4921         c3    223    ccc     C3   4921 -0.04070000  12.010000   ; qtot 0.368015
 4922         h1    223    ccc     H5   4922 0.04605500   1.008000   ; qtot 0.414070
 4923         h1    223    ccc     H6   4923 0.04605500   1.008000   ; qtot 0.460125
 4924         n3    223    ccc     N1   4924 -1.11801800  14.010000   ; qtot -0.657893
 4925         hn    223    ccc     H7   4925 0.38419200   1.008000   ; qtot -0.273701
 4926         hn    223    ccc     H8   4926 0.38419200   1.008000   ; qtot 0.110491
 4927         os    223    ccc     O1   4927 -0.11061500  16.000000   ; qtot -0.000124
; residue  224 ccc rtp ccc q -0.0
 4928         c3    224    ccc     C1   4928 0.60214900  12.010000   ; qtot 0.602025
 4929         h1    224    ccc     H1   4929 -0.09246700   1.008000   ; qtot 0.509558
 4930         h1    224    ccc     H2   4930 -0.09246700   1.008000   ; qtot 0.417091
 4931         c3    224    ccc     C2   4931 -0.02543800  12.010000   ; qtot 0.391653
 4932         hc    224    ccc     H3   4932 0.00853100   1.008000   ; qtot 0.400184
 4933         hc    224    ccc     H4   4933 0.00853100   1.008000   ; qtot 0.408715
 4934         c3    224    ccc     C3   4934 -0.04070000  12.010000   ; qtot 0.368015
 4935         h1    224    ccc     H5   4935 0.04605500   1.008000   ; qtot 0.414070
 4936         h1    224    ccc     H6   4936 0.04605500   1.008000   ; qtot 0.460125
 4937         n3    224    ccc     N1   4937 -1.11801800  14.010000   ; qtot -0.657893
 4938         hn    224    ccc     H7   4938 0.38419200   1.008000   ; qtot -0.273701
 4939         hn    224    ccc     H8   4939 0.38419200   1.008000   ; qtot 0.110491
 4940         os    224    ccc     O1   4940 -0.11061500  16.000000   ; qtot -0.000124
; residue  225 ccc rtp ccc q -0.0
 4941         c3    225    ccc     C1   4941 0.60214900  12.010000   ; qtot 0.602025
 4942         h1    225    ccc     H1   4942 -0.09246700   1.008000   ; qtot 0.509558
 4943         h1    225    ccc     H2   4943 -0.09246700   1.008000   ; qtot 0.417091
 4944         c3    225    ccc     C2   4944 -0.02543800  12.010000   ; qtot 0.391653
 4945         hc    225    ccc     H3   4945 0.00853100   1.008000   ; qtot 0.400184
 4946         hc    225    ccc     H4   4946 0.00853100   1.008000   ; qtot 0.408715
 4947         c3    225    ccc     C3   4947 -0.04070000  12.010000   ; qtot 0.368015
 4948         h1    225    ccc     H5   4948 0.04605500   1.008000   ; qtot 0.414070
 4949         h1    225    ccc     H6   4949 0.04605500   1.008000   ; qtot 0.460125
 4950         n3    225    ccc     N1   4950 -1.11801800  14.010000   ; qtot -0.657893
 4951         hn    225    ccc     H7   4951 0.38419200   1.008000   ; qtot -0.273701
 4952         hn    225    ccc     H8   4952 0.38419200   1.008000   ; qtot 0.110491
 4953         os    225    ccc     O1   4953 -0.11061500  16.000000   ; qtot -0.000124
; residue  226 ccc rtp ccc q -0.0
 4954         c3    226    ccc     C1   4954 0.60214900  12.010000   ; qtot 0.602025
 4955         h1    226    ccc     H1   4955 -0.09246700   1.008000   ; qtot 0.509558
 4956         h1    226    ccc     H2   4956 -0.09246700   1.008000   ; qtot 0.417091
 4957         c3    226    ccc     C2   4957 -0.02543800  12.010000   ; qtot 0.391653
 4958         hc    226    ccc     H3   4958 0.00853100   1.008000   ; qtot 0.400184
 4959         hc    226    ccc     H4   4959 0.00853100   1.008000   ; qtot 0.408715
 4960         c3    226    ccc     C3   4960 -0.04070000  12.010000   ; qtot 0.368015
 4961         h1    226    ccc     H5   4961 0.04605500   1.008000   ; qtot 0.414070
 4962         h1    226    ccc     H6   4962 0.04605500   1.008000   ; qtot 0.460125
 4963         n3    226    ccc     N1   4963 -1.11801800  14.010000   ; qtot -0.657893
 4964         hn    226    ccc     H7   4964 0.38419200   1.008000   ; qtot -0.273701
 4965         hn    226    ccc     H8   4965 0.38419200   1.008000   ; qtot 0.110491
 4966         os    226    ccc     O1   4966 -0.11061500  16.000000   ; qtot -0.000124
; residue  227 ccc rtp ccc q -0.0
 4967         c3    227    ccc     C1   4967 0.60214900  12.010000   ; qtot 0.602025
 4968         h1    227    ccc     H1   4968 -0.09246700   1.008000   ; qtot 0.509558
 4969         h1    227    ccc     H2   4969 -0.09246700   1.008000   ; qtot 0.417091
 4970         c3    227    ccc     C2   4970 -0.02543800  12.010000   ; qtot 0.391653
 4971         hc    227    ccc     H3   4971 0.00853100   1.008000   ; qtot 0.400184
 4972         hc    227    ccc     H4   4972 0.00853100   1.008000   ; qtot 0.408715
 4973         c3    227    ccc     C3   4973 -0.04070000  12.010000   ; qtot 0.368015
 4974         h1    227    ccc     H5   4974 0.04605500   1.008000   ; qtot 0.414070
 4975         h1    227    ccc     H6   4975 0.04605500   1.008000   ; qtot 0.460125
 4976         n3    227    ccc     N1   4976 -1.11801800  14.010000   ; qtot -0.657893
 4977         hn    227    ccc     H7   4977 0.38419200   1.008000   ; qtot -0.273701
 4978         hn    227    ccc     H8   4978 0.38419200   1.008000   ; qtot 0.110491
 4979         os    227    ccc     O1   4979 -0.11061500  16.000000   ; qtot -0.000124
; residue  228 ccc rtp ccc q -0.0
 4980         c3    228    ccc     C1   4980 0.60214900  12.010000   ; qtot 0.602025
 4981         h1    228    ccc     H1   4981 -0.09246700   1.008000   ; qtot 0.509558
 4982         h1    228    ccc     H2   4982 -0.09246700   1.008000   ; qtot 0.417091
 4983         c3    228    ccc     C2   4983 -0.02543800  12.010000   ; qtot 0.391653
 4984         hc    228    ccc     H3   4984 0.00853100   1.008000   ; qtot 0.400184
 4985         hc    228    ccc     H4   4985 0.00853100   1.008000   ; qtot 0.408715
 4986         c3    228    ccc     C3   4986 -0.04070000  12.010000   ; qtot 0.368015
 4987         h1    228    ccc     H5   4987 0.04605500   1.008000   ; qtot 0.414070
 4988         h1    228    ccc     H6   4988 0.04605500   1.008000   ; qtot 0.460125
 4989         n3    228    ccc     N1   4989 -1.11801800  14.010000   ; qtot -0.657893
 4990         hn    228    ccc     H7   4990 0.38419200   1.008000   ; qtot -0.273701
 4991         hn    228    ccc     H8   4991 0.38419200   1.008000   ; qtot 0.110491
 4992         os    228    ccc     O1   4992 -0.11061500  16.000000   ; qtot -0.000124
; residue  229 ccc rtp ccc q -0.0
 4993         c3    229    ccc     C1   4993 0.60214900  12.010000   ; qtot 0.602025
 4994         h1    229    ccc     H1   4994 -0.09246700   1.008000   ; qtot 0.509558
 4995         h1    229    ccc     H2   4995 -0.09246700   1.008000   ; qtot 0.417091
 4996         c3    229    ccc     C2   4996 -0.02543800  12.010000   ; qtot 0.391653
 4997         hc    229    ccc     H3   4997 0.00853100   1.008000   ; qtot 0.400184
 4998         hc    229    ccc     H4   4998 0.00853100   1.008000   ; qtot 0.408715
 4999         c3    229    ccc     C3   4999 -0.04070000  12.010000   ; qtot 0.368015
 5000         h1    229    ccc     H5   5000 0.04605500   1.008000   ; qtot 0.414070
 5001         h1    229    ccc     H6   5001 0.04605500   1.008000   ; qtot 0.460125
 5002         n3    229    ccc     N1   5002 -1.11801800  14.010000   ; qtot -0.657893
 5003         hn    229    ccc     H7   5003 0.38419200   1.008000   ; qtot -0.273701
 5004         hn    229    ccc     H8   5004 0.38419200   1.008000   ; qtot 0.110491
 5005         os    229    ccc     O1   5005 -0.11061500  16.000000   ; qtot -0.000124
; residue  230 ccc rtp ccc q -0.0
 5006         c3    230    ccc     C1   5006 0.60214900  12.010000   ; qtot 0.602025
 5007         h1    230    ccc     H1   5007 -0.09246700   1.008000   ; qtot 0.509558
 5008         h1    230    ccc     H2   5008 -0.09246700   1.008000   ; qtot 0.417091
 5009         c3    230    ccc     C2   5009 -0.02543800  12.010000   ; qtot 0.391653
 5010         hc    230    ccc     H3   5010 0.00853100   1.008000   ; qtot 0.400184
 5011         hc    230    ccc     H4   5011 0.00853100   1.008000   ; qtot 0.408715
 5012         c3    230    ccc     C3   5012 -0.04070000  12.010000   ; qtot 0.368015
 5013         h1    230    ccc     H5   5013 0.04605500   1.008000   ; qtot 0.414070
 5014         h1    230    ccc     H6   5014 0.04605500   1.008000   ; qtot 0.460125
 5015         n3    230    ccc     N1   5015 -1.11801800  14.010000   ; qtot -0.657893
 5016         hn    230    ccc     H7   5016 0.38419200   1.008000   ; qtot -0.273701
 5017         hn    230    ccc     H8   5017 0.38419200   1.008000   ; qtot 0.110491
 5018         os    230    ccc     O1   5018 -0.11061500  16.000000   ; qtot -0.000124
; residue  231 ccc rtp ccc q -0.0
 5019         c3    231    ccc     C1   5019 0.60214900  12.010000   ; qtot 0.602025
 5020         h1    231    ccc     H1   5020 -0.09246700   1.008000   ; qtot 0.509558
 5021         h1    231    ccc     H2   5021 -0.09246700   1.008000   ; qtot 0.417091
 5022         c3    231    ccc     C2   5022 -0.02543800  12.010000   ; qtot 0.391653
 5023         hc    231    ccc     H3   5023 0.00853100   1.008000   ; qtot 0.400184
 5024         hc    231    ccc     H4   5024 0.00853100   1.008000   ; qtot 0.408715
 5025         c3    231    ccc     C3   5025 -0.04070000  12.010000   ; qtot 0.368015
 5026         h1    231    ccc     H5   5026 0.04605500   1.008000   ; qtot 0.414070
 5027         h1    231    ccc     H6   5027 0.04605500   1.008000   ; qtot 0.460125
 5028         n3    231    ccc     N1   5028 -1.11801800  14.010000   ; qtot -0.657893
 5029         hn    231    ccc     H7   5029 0.38419200   1.008000   ; qtot -0.273701
 5030         hn    231    ccc     H8   5030 0.38419200   1.008000   ; qtot 0.110491
 5031         os    231    ccc     O1   5031 -0.11061500  16.000000   ; qtot -0.000124
; residue  232 ccc rtp ccc q -0.0
 5032         c3    232    ccc     C1   5032 0.60214900  12.010000   ; qtot 0.602025
 5033         h1    232    ccc     H1   5033 -0.09246700   1.008000   ; qtot 0.509558
 5034         h1    232    ccc     H2   5034 -0.09246700   1.008000   ; qtot 0.417091
 5035         c3    232    ccc     C2   5035 -0.02543800  12.010000   ; qtot 0.391653
 5036         hc    232    ccc     H3   5036 0.00853100   1.008000   ; qtot 0.400184
 5037         hc    232    ccc     H4   5037 0.00853100   1.008000   ; qtot 0.408715
 5038         c3    232    ccc     C3   5038 -0.04070000  12.010000   ; qtot 0.368015
 5039         h1    232    ccc     H5   5039 0.04605500   1.008000   ; qtot 0.414070
 5040         h1    232    ccc     H6   5040 0.04605500   1.008000   ; qtot 0.460125
 5041         n3    232    ccc     N1   5041 -1.11801800  14.010000   ; qtot -0.657893
 5042         hn    232    ccc     H7   5042 0.38419200   1.008000   ; qtot -0.273701
 5043         hn    232    ccc     H8   5043 0.38419200   1.008000   ; qtot 0.110491
 5044         os    232    ccc     O1   5044 -0.11061500  16.000000   ; qtot -0.000124
; residue  233 ccc rtp ccc q -0.0
 5045         c3    233    ccc     C1   5045 0.60214900  12.010000   ; qtot 0.602025
 5046         h1    233    ccc     H1   5046 -0.09246700   1.008000   ; qtot 0.509558
 5047         h1    233    ccc     H2   5047 -0.09246700   1.008000   ; qtot 0.417091
 5048         c3    233    ccc     C2   5048 -0.02543800  12.010000   ; qtot 0.391653
 5049         hc    233    ccc     H3   5049 0.00853100   1.008000   ; qtot 0.400184
 5050         hc    233    ccc     H4   5050 0.00853100   1.008000   ; qtot 0.408715
 5051         c3    233    ccc     C3   5051 -0.04070000  12.010000   ; qtot 0.368015
 5052         h1    233    ccc     H5   5052 0.04605500   1.008000   ; qtot 0.414070
 5053         h1    233    ccc     H6   5053 0.04605500   1.008000   ; qtot 0.460125
 5054         n3    233    ccc     N1   5054 -1.11801800  14.010000   ; qtot -0.657893
 5055         hn    233    ccc     H7   5055 0.38419200   1.008000   ; qtot -0.273701
 5056         hn    233    ccc     H8   5056 0.38419200   1.008000   ; qtot 0.110491
 5057         os    233    ccc     O1   5057 -0.11061500  16.000000   ; qtot -0.000124
; residue  234 ccc rtp ccc q -0.0
 5058         c3    234    ccc     C1   5058 0.60214900  12.010000   ; qtot 0.602025
 5059         h1    234    ccc     H1   5059 -0.09246700   1.008000   ; qtot 0.509558
 5060         h1    234    ccc     H2   5060 -0.09246700   1.008000   ; qtot 0.417091
 5061         c3    234    ccc     C2   5061 -0.02543800  12.010000   ; qtot 0.391653
 5062         hc    234    ccc     H3   5062 0.00853100   1.008000   ; qtot 0.400184
 5063         hc    234    ccc     H4   5063 0.00853100   1.008000   ; qtot 0.408715
 5064         c3    234    ccc     C3   5064 -0.04070000  12.010000   ; qtot 0.368015
 5065         h1    234    ccc     H5   5065 0.04605500   1.008000   ; qtot 0.414070
 5066         h1    234    ccc     H6   5066 0.04605500   1.008000   ; qtot 0.460125
 5067         n3    234    ccc     N1   5067 -1.11801800  14.010000   ; qtot -0.657893
 5068         hn    234    ccc     H7   5068 0.38419200   1.008000   ; qtot -0.273701
 5069         hn    234    ccc     H8   5069 0.38419200   1.008000   ; qtot 0.110491
 5070         os    234    ccc     O1   5070 -0.11061500  16.000000   ; qtot -0.000124
; residue  235 ccc rtp ccc q -0.0
 5071         c3    235    ccc     C1   5071 0.60214900  12.010000   ; qtot 0.602025
 5072         h1    235    ccc     H1   5072 -0.09246700   1.008000   ; qtot 0.509558
 5073         h1    235    ccc     H2   5073 -0.09246700   1.008000   ; qtot 0.417091
 5074         c3    235    ccc     C2   5074 -0.02543800  12.010000   ; qtot 0.391653
 5075         hc    235    ccc     H3   5075 0.00853100   1.008000   ; qtot 0.400184
 5076         hc    235    ccc     H4   5076 0.00853100   1.008000   ; qtot 0.408715
 5077         c3    235    ccc     C3   5077 -0.04070000  12.010000   ; qtot 0.368015
 5078         h1    235    ccc     H5   5078 0.04605500   1.008000   ; qtot 0.414070
 5079         h1    235    ccc     H6   5079 0.04605500   1.008000   ; qtot 0.460125
 5080         n3    235    ccc     N1   5080 -1.11801800  14.010000   ; qtot -0.657893
 5081         hn    235    ccc     H7   5081 0.38419200   1.008000   ; qtot -0.273701
 5082         hn    235    ccc     H8   5082 0.38419200   1.008000   ; qtot 0.110491
 5083         os    235    ccc     O1   5083 -0.11061500  16.000000   ; qtot -0.000124
; residue  236 ccc rtp ccc q -0.0
 5084         c3    236    ccc     C1   5084 0.60214900  12.010000   ; qtot 0.602025
 5085         h1    236    ccc     H1   5085 -0.09246700   1.008000   ; qtot 0.509558
 5086         h1    236    ccc     H2   5086 -0.09246700   1.008000   ; qtot 0.417091
 5087         c3    236    ccc     C2   5087 -0.02543800  12.010000   ; qtot 0.391653
 5088         hc    236    ccc     H3   5088 0.00853100   1.008000   ; qtot 0.400184
 5089         hc    236    ccc     H4   5089 0.00853100   1.008000   ; qtot 0.408715
 5090         c3    236    ccc     C3   5090 -0.04070000  12.010000   ; qtot 0.368015
 5091         h1    236    ccc     H5   5091 0.04605500   1.008000   ; qtot 0.414070
 5092         h1    236    ccc     H6   5092 0.04605500   1.008000   ; qtot 0.460125
 5093         n3    236    ccc     N1   5093 -1.11801800  14.010000   ; qtot -0.657893
 5094         hn    236    ccc     H7   5094 0.38419200   1.008000   ; qtot -0.273701
 5095         hn    236    ccc     H8   5095 0.38419200   1.008000   ; qtot 0.110491
 5096         os    236    ccc     O1   5096 -0.11061500  16.000000   ; qtot -0.000124
; residue  237 ccc rtp ccc q -0.0
 5097         c3    237    ccc     C1   5097 0.60214900  12.010000   ; qtot 0.602025
 5098         h1    237    ccc     H1   5098 -0.09246700   1.008000   ; qtot 0.509558
 5099         h1    237    ccc     H2   5099 -0.09246700   1.008000   ; qtot 0.417091
 5100         c3    237    ccc     C2   5100 -0.02543800  12.010000   ; qtot 0.391653
 5101         hc    237    ccc     H3   5101 0.00853100   1.008000   ; qtot 0.400184
 5102         hc    237    ccc     H4   5102 0.00853100   1.008000   ; qtot 0.408715
 5103         c3    237    ccc     C3   5103 -0.04070000  12.010000   ; qtot 0.368015
 5104         h1    237    ccc     H5   5104 0.04605500   1.008000   ; qtot 0.414070
 5105         h1    237    ccc     H6   5105 0.04605500   1.008000   ; qtot 0.460125
 5106         n3    237    ccc     N1   5106 -1.11801800  14.010000   ; qtot -0.657893
 5107         hn    237    ccc     H7   5107 0.38419200   1.008000   ; qtot -0.273701
 5108         hn    237    ccc     H8   5108 0.38419200   1.008000   ; qtot 0.110491
 5109         os    237    ccc     O1   5109 -0.11061500  16.000000   ; qtot -0.000124
; residue  238 ccc rtp ccc q -0.0
 5110         c3    238    ccc     C1   5110 0.60214900  12.010000   ; qtot 0.602025
 5111         h1    238    ccc     H1   5111 -0.09246700   1.008000   ; qtot 0.509558
 5112         h1    238    ccc     H2   5112 -0.09246700   1.008000   ; qtot 0.417091
 5113         c3    238    ccc     C2   5113 -0.02543800  12.010000   ; qtot 0.391653
 5114         hc    238    ccc     H3   5114 0.00853100   1.008000   ; qtot 0.400184
 5115         hc    238    ccc     H4   5115 0.00853100   1.008000   ; qtot 0.408715
 5116         c3    238    ccc     C3   5116 -0.04070000  12.010000   ; qtot 0.368015
 5117         h1    238    ccc     H5   5117 0.04605500   1.008000   ; qtot 0.414070
 5118         h1    238    ccc     H6   5118 0.04605500   1.008000   ; qtot 0.460125
 5119         n3    238    ccc     N1   5119 -1.11801800  14.010000   ; qtot -0.657893
 5120         hn    238    ccc     H7   5120 0.38419200   1.008000   ; qtot -0.273701
 5121         hn    238    ccc     H8   5121 0.38419200   1.008000   ; qtot 0.110491
 5122         os    238    ccc     O1   5122 -0.11061500  16.000000   ; qtot -0.000124
; residue  239 ccc rtp ccc q -0.0
 5123         c3    239    ccc     C1   5123 0.60214900  12.010000   ; qtot 0.602025
 5124         h1    239    ccc     H1   5124 -0.09246700   1.008000   ; qtot 0.509558
 5125         h1    239    ccc     H2   5125 -0.09246700   1.008000   ; qtot 0.417091
 5126         c3    239    ccc     C2   5126 -0.02543800  12.010000   ; qtot 0.391653
 5127         hc    239    ccc     H3   5127 0.00853100   1.008000   ; qtot 0.400184
 5128         hc    239    ccc     H4   5128 0.00853100   1.008000   ; qtot 0.408715
 5129         c3    239    ccc     C3   5129 -0.04070000  12.010000   ; qtot 0.368015
 5130         h1    239    ccc     H5   5130 0.04605500   1.008000   ; qtot 0.414070
 5131         h1    239    ccc     H6   5131 0.04605500   1.008000   ; qtot 0.460125
 5132         n3    239    ccc     N1   5132 -1.11801800  14.010000   ; qtot -0.657893
 5133         hn    239    ccc     H7   5133 0.38419200   1.008000   ; qtot -0.273701
 5134         hn    239    ccc     H8   5134 0.38419200   1.008000   ; qtot 0.110491
 5135         os    239    ccc     O1   5135 -0.11061500  16.000000   ; qtot -0.000124
; residue  240 ccc rtp ccc q -0.0
 5136         c3    240    ccc     C1   5136 0.60214900  12.010000   ; qtot 0.602025
 5137         h1    240    ccc     H1   5137 -0.09246700   1.008000   ; qtot 0.509558
 5138         h1    240    ccc     H2   5138 -0.09246700   1.008000   ; qtot 0.417091
 5139         c3    240    ccc     C2   5139 -0.02543800  12.010000   ; qtot 0.391653
 5140         hc    240    ccc     H3   5140 0.00853100   1.008000   ; qtot 0.400184
 5141         hc    240    ccc     H4   5141 0.00853100   1.008000   ; qtot 0.408715
 5142         c3    240    ccc     C3   5142 -0.04070000  12.010000   ; qtot 0.368015
 5143         h1    240    ccc     H5   5143 0.04605500   1.008000   ; qtot 0.414070
 5144         h1    240    ccc     H6   5144 0.04605500   1.008000   ; qtot 0.460125
 5145         n3    240    ccc     N1   5145 -1.11801800  14.010000   ; qtot -0.657893
 5146         hn    240    ccc     H7   5146 0.38419200   1.008000   ; qtot -0.273701
 5147         hn    240    ccc     H8   5147 0.38419200   1.008000   ; qtot 0.110491
 5148         os    240    ccc     O1   5148 -0.11061500  16.000000   ; qtot -0.000124
; residue  241 ccc rtp ccc q -0.0
 5149         c3    241    ccc     C1   5149 0.60214900  12.010000   ; qtot 0.602025
 5150         h1    241    ccc     H1   5150 -0.09246700   1.008000   ; qtot 0.509558
 5151         h1    241    ccc     H2   5151 -0.09246700   1.008000   ; qtot 0.417091
 5152         c3    241    ccc     C2   5152 -0.02543800  12.010000   ; qtot 0.391653
 5153         hc    241    ccc     H3   5153 0.00853100   1.008000   ; qtot 0.400184
 5154         hc    241    ccc     H4   5154 0.00853100   1.008000   ; qtot 0.408715
 5155         c3    241    ccc     C3   5155 -0.04070000  12.010000   ; qtot 0.368015
 5156         h1    241    ccc     H5   5156 0.04605500   1.008000   ; qtot 0.414070
 5157         h1    241    ccc     H6   5157 0.04605500   1.008000   ; qtot 0.460125
 5158         n3    241    ccc     N1   5158 -1.11801800  14.010000   ; qtot -0.657893
 5159         hn    241    ccc     H7   5159 0.38419200   1.008000   ; qtot -0.273701
 5160         hn    241    ccc     H8   5160 0.38419200   1.008000   ; qtot 0.110491
 5161         os    241    ccc     O1   5161 -0.11061500  16.000000   ; qtot -0.000124
; residue  242 ccc rtp ccc q -0.0
 5162         c3    242    ccc     C1   5162 0.60214900  12.010000   ; qtot 0.602025
 5163         h1    242    ccc     H1   5163 -0.09246700   1.008000   ; qtot 0.509558
 5164         h1    242    ccc     H2   5164 -0.09246700   1.008000   ; qtot 0.417091
 5165         c3    242    ccc     C2   5165 -0.02543800  12.010000   ; qtot 0.391653
 5166         hc    242    ccc     H3   5166 0.00853100   1.008000   ; qtot 0.400184
 5167         hc    242    ccc     H4   5167 0.00853100   1.008000   ; qtot 0.408715
 5168         c3    242    ccc     C3   5168 -0.04070000  12.010000   ; qtot 0.368015
 5169         h1    242    ccc     H5   5169 0.04605500   1.008000   ; qtot 0.414070
 5170         h1    242    ccc     H6   5170 0.04605500   1.008000   ; qtot 0.460125
 5171         n3    242    ccc     N1   5171 -1.11801800  14.010000   ; qtot -0.657893
 5172         hn    242    ccc     H7   5172 0.38419200   1.008000   ; qtot -0.273701
 5173         hn    242    ccc     H8   5173 0.38419200   1.008000   ; qtot 0.110491
 5174         os    242    ccc     O1   5174 -0.11061500  16.000000   ; qtot -0.000124
; residue  243 ccc rtp ccc q -0.0
 5175         c3    243    ccc     C1   5175 0.60214900  12.010000   ; qtot 0.602025
 5176         h1    243    ccc     H1   5176 -0.09246700   1.008000   ; qtot 0.509558
 5177         h1    243    ccc     H2   5177 -0.09246700   1.008000   ; qtot 0.417091
 5178         c3    243    ccc     C2   5178 -0.02543800  12.010000   ; qtot 0.391653
 5179         hc    243    ccc     H3   5179 0.00853100   1.008000   ; qtot 0.400184
 5180         hc    243    ccc     H4   5180 0.00853100   1.008000   ; qtot 0.408715
 5181         c3    243    ccc     C3   5181 -0.04070000  12.010000   ; qtot 0.368015
 5182         h1    243    ccc     H5   5182 0.04605500   1.008000   ; qtot 0.414070
 5183         h1    243    ccc     H6   5183 0.04605500   1.008000   ; qtot 0.460125
 5184         n3    243    ccc     N1   5184 -1.11801800  14.010000   ; qtot -0.657893
 5185         hn    243    ccc     H7   5185 0.38419200   1.008000   ; qtot -0.273701
 5186         hn    243    ccc     H8   5186 0.38419200   1.008000   ; qtot 0.110491
 5187         os    243    ccc     O1   5187 -0.11061500  16.000000   ; qtot -0.000124
; residue  244 ccc rtp ccc q -0.0
 5188         c3    244    ccc     C1   5188 0.60214900  12.010000   ; qtot 0.602025
 5189         h1    244    ccc     H1   5189 -0.09246700   1.008000   ; qtot 0.509558
 5190         h1    244    ccc     H2   5190 -0.09246700   1.008000   ; qtot 0.417091
 5191         c3    244    ccc     C2   5191 -0.02543800  12.010000   ; qtot 0.391653
 5192         hc    244    ccc     H3   5192 0.00853100   1.008000   ; qtot 0.400184
 5193         hc    244    ccc     H4   5193 0.00853100   1.008000   ; qtot 0.408715
 5194         c3    244    ccc     C3   5194 -0.04070000  12.010000   ; qtot 0.368015
 5195         h1    244    ccc     H5   5195 0.04605500   1.008000   ; qtot 0.414070
 5196         h1    244    ccc     H6   5196 0.04605500   1.008000   ; qtot 0.460125
 5197         n3    244    ccc     N1   5197 -1.11801800  14.010000   ; qtot -0.657893
 5198         hn    244    ccc     H7   5198 0.38419200   1.008000   ; qtot -0.273701
 5199         hn    244    ccc     H8   5199 0.38419200   1.008000   ; qtot 0.110491
 5200         os    244    ccc     O1   5200 -0.11061500  16.000000   ; qtot -0.000124
; residue  245 ccc rtp ccc q -0.0
 5201         c3    245    ccc     C1   5201 0.60214900  12.010000   ; qtot 0.602025
 5202         h1    245    ccc     H1   5202 -0.09246700   1.008000   ; qtot 0.509558
 5203         h1    245    ccc     H2   5203 -0.09246700   1.008000   ; qtot 0.417091
 5204         c3    245    ccc     C2   5204 -0.02543800  12.010000   ; qtot 0.391653
 5205         hc    245    ccc     H3   5205 0.00853100   1.008000   ; qtot 0.400184
 5206         hc    245    ccc     H4   5206 0.00853100   1.008000   ; qtot 0.408715
 5207         c3    245    ccc     C3   5207 -0.04070000  12.010000   ; qtot 0.368015
 5208         h1    245    ccc     H5   5208 0.04605500   1.008000   ; qtot 0.414070
 5209         h1    245    ccc     H6   5209 0.04605500   1.008000   ; qtot 0.460125
 5210         n3    245    ccc     N1   5210 -1.11801800  14.010000   ; qtot -0.657893
 5211         hn    245    ccc     H7   5211 0.38419200   1.008000   ; qtot -0.273701
 5212         hn    245    ccc     H8   5212 0.38419200   1.008000   ; qtot 0.110491
 5213         os    245    ccc     O1   5213 -0.11061500  16.000000   ; qtot -0.000124
; residue  246 ccc rtp ccc q -0.0
 5214         c3    246    ccc     C1   5214 0.60214900  12.010000   ; qtot 0.602025
 5215         h1    246    ccc     H1   5215 -0.09246700   1.008000   ; qtot 0.509558
 5216         h1    246    ccc     H2   5216 -0.09246700   1.008000   ; qtot 0.417091
 5217         c3    246    ccc     C2   5217 -0.02543800  12.010000   ; qtot 0.391653
 5218         hc    246    ccc     H3   5218 0.00853100   1.008000   ; qtot 0.400184
 5219         hc    246    ccc     H4   5219 0.00853100   1.008000   ; qtot 0.408715
 5220         c3    246    ccc     C3   5220 -0.04070000  12.010000   ; qtot 0.368015
 5221         h1    246    ccc     H5   5221 0.04605500   1.008000   ; qtot 0.414070
 5222         h1    246    ccc     H6   5222 0.04605500   1.008000   ; qtot 0.460125
 5223         n3    246    ccc     N1   5223 -1.11801800  14.010000   ; qtot -0.657893
 5224         hn    246    ccc     H7   5224 0.38419200   1.008000   ; qtot -0.273701
 5225         hn    246    ccc     H8   5225 0.38419200   1.008000   ; qtot 0.110491
 5226         os    246    ccc     O1   5226 -0.11061500  16.000000   ; qtot -0.000124
; residue  247 ccc rtp ccc q -0.0
 5227         c3    247    ccc     C1   5227 0.60214900  12.010000   ; qtot 0.602025
 5228         h1    247    ccc     H1   5228 -0.09246700   1.008000   ; qtot 0.509558
 5229         h1    247    ccc     H2   5229 -0.09246700   1.008000   ; qtot 0.417091
 5230         c3    247    ccc     C2   5230 -0.02543800  12.010000   ; qtot 0.391653
 5231         hc    247    ccc     H3   5231 0.00853100   1.008000   ; qtot 0.400184
 5232         hc    247    ccc     H4   5232 0.00853100   1.008000   ; qtot 0.408715
 5233         c3    247    ccc     C3   5233 -0.04070000  12.010000   ; qtot 0.368015
 5234         h1    247    ccc     H5   5234 0.04605500   1.008000   ; qtot 0.414070
 5235         h1    247    ccc     H6   5235 0.04605500   1.008000   ; qtot 0.460125
 5236         n3    247    ccc     N1   5236 -1.11801800  14.010000   ; qtot -0.657893
 5237         hn    247    ccc     H7   5237 0.38419200   1.008000   ; qtot -0.273701
 5238         hn    247    ccc     H8   5238 0.38419200   1.008000   ; qtot 0.110491
 5239         os    247    ccc     O1   5239 -0.11061500  16.000000   ; qtot -0.000124
; residue  248 ccc rtp ccc q -0.0
 5240         c3    248    ccc     C1   5240 0.60214900  12.010000   ; qtot 0.602025
 5241         h1    248    ccc     H1   5241 -0.09246700   1.008000   ; qtot 0.509558
 5242         h1    248    ccc     H2   5242 -0.09246700   1.008000   ; qtot 0.417091
 5243         c3    248    ccc     C2   5243 -0.02543800  12.010000   ; qtot 0.391653
 5244         hc    248    ccc     H3   5244 0.00853100   1.008000   ; qtot 0.400184
 5245         hc    248    ccc     H4   5245 0.00853100   1.008000   ; qtot 0.408715
 5246         c3    248    ccc     C3   5246 -0.04070000  12.010000   ; qtot 0.368015
 5247         h1    248    ccc     H5   5247 0.04605500   1.008000   ; qtot 0.414070
 5248         h1    248    ccc     H6   5248 0.04605500   1.008000   ; qtot 0.460125
 5249         n3    248    ccc     N1   5249 -1.11801800  14.010000   ; qtot -0.657893
 5250         hn    248    ccc     H7   5250 0.38419200   1.008000   ; qtot -0.273701
 5251         hn    248    ccc     H8   5251 0.38419200   1.008000   ; qtot 0.110491
 5252         os    248    ccc     O1   5252 -0.11061500  16.000000   ; qtot -0.000124
; residue  249 ccc rtp ccc q -0.0
 5253         c3    249    ccc     C1   5253 0.60214900  12.010000   ; qtot 0.602025
 5254         h1    249    ccc     H1   5254 -0.09246700   1.008000   ; qtot 0.509558
 5255         h1    249    ccc     H2   5255 -0.09246700   1.008000   ; qtot 0.417091
 5256         c3    249    ccc     C2   5256 -0.02543800  12.010000   ; qtot 0.391653
 5257         hc    249    ccc     H3   5257 0.00853100   1.008000   ; qtot 0.400184
 5258         hc    249    ccc     H4   5258 0.00853100   1.008000   ; qtot 0.408715
 5259         c3    249    ccc     C3   5259 -0.04070000  12.010000   ; qtot 0.368015
 5260         h1    249    ccc     H5   5260 0.04605500   1.008000   ; qtot 0.414070
 5261         h1    249    ccc     H6   5261 0.04605500   1.008000   ; qtot 0.460125
 5262         n3    249    ccc     N1   5262 -1.11801800  14.010000   ; qtot -0.657893
 5263         hn    249    ccc     H7   5263 0.38419200   1.008000   ; qtot -0.273701
 5264         hn    249    ccc     H8   5264 0.38419200   1.008000   ; qtot 0.110491
 5265         os    249    ccc     O1   5265 -0.11061500  16.000000   ; qtot -0.000124
; residue  250 ccc rtp ccc q -0.0
 5266         c3    250    ccc     C1   5266 0.60214900  12.010000   ; qtot 0.602025
 5267         h1    250    ccc     H1   5267 -0.09246700   1.008000   ; qtot 0.509558
 5268         h1    250    ccc     H2   5268 -0.09246700   1.008000   ; qtot 0.417091
 5269         c3    250    ccc     C2   5269 -0.02543800  12.010000   ; qtot 0.391653
 5270         hc    250    ccc     H3   5270 0.00853100   1.008000   ; qtot 0.400184
 5271         hc    250    ccc     H4   5271 0.00853100   1.008000   ; qtot 0.408715
 5272         c3    250    ccc     C3   5272 -0.04070000  12.010000   ; qtot 0.368015
 5273         h1    250    ccc     H5   5273 0.04605500   1.008000   ; qtot 0.414070
 5274         h1    250    ccc     H6   5274 0.04605500   1.008000   ; qtot 0.460125
 5275         n3    250    ccc     N1   5275 -1.11801800  14.010000   ; qtot -0.657893
 5276         hn    250    ccc     H7   5276 0.38419200   1.008000   ; qtot -0.273701
 5277         hn    250    ccc     H8   5277 0.38419200   1.008000   ; qtot 0.110491
 5278         os    250    ccc     O1   5278 -0.11061500  16.000000   ; qtot -0.000124
; residue  251 ccc rtp ccc q -0.0
 5279         c3    251    ccc     C1   5279 0.60214900  12.010000   ; qtot 0.602025
 5280         h1    251    ccc     H1   5280 -0.09246700   1.008000   ; qtot 0.509558
 5281         h1    251    ccc     H2   5281 -0.09246700   1.008000   ; qtot 0.417091
 5282         c3    251    ccc     C2   5282 -0.02543800  12.010000   ; qtot 0.391653
 5283         hc    251    ccc     H3   5283 0.00853100   1.008000   ; qtot 0.400184
 5284         hc    251    ccc     H4   5284 0.00853100   1.008000   ; qtot 0.408715
 5285         c3    251    ccc     C3   5285 -0.04070000  12.010000   ; qtot 0.368015
 5286         h1    251    ccc     H5   5286 0.04605500   1.008000   ; qtot 0.414070
 5287         h1    251    ccc     H6   5287 0.04605500   1.008000   ; qtot 0.460125
 5288         n3    251    ccc     N1   5288 -1.11801800  14.010000   ; qtot -0.657893
 5289         hn    251    ccc     H7   5289 0.38419200   1.008000   ; qtot -0.273701
 5290         hn    251    ccc     H8   5290 0.38419200   1.008000   ; qtot 0.110491
 5291         os    251    ccc     O1   5291 -0.11061500  16.000000   ; qtot -0.000124
; residue  252 ccc rtp ccc q -0.0
 5292         c3    252    ccc     C1   5292 0.60214900  12.010000   ; qtot 0.602025
 5293         h1    252    ccc     H1   5293 -0.09246700   1.008000   ; qtot 0.509558
 5294         h1    252    ccc     H2   5294 -0.09246700   1.008000   ; qtot 0.417091
 5295         c3    252    ccc     C2   5295 -0.02543800  12.010000   ; qtot 0.391653
 5296         hc    252    ccc     H3   5296 0.00853100   1.008000   ; qtot 0.400184
 5297         hc    252    ccc     H4   5297 0.00853100   1.008000   ; qtot 0.408715
 5298         c3    252    ccc     C3   5298 -0.04070000  12.010000   ; qtot 0.368015
 5299         h1    252    ccc     H5   5299 0.04605500   1.008000   ; qtot 0.414070
 5300         h1    252    ccc     H6   5300 0.04605500   1.008000   ; qtot 0.460125
 5301         n3    252    ccc     N1   5301 -1.11801800  14.010000   ; qtot -0.657893
 5302         hn    252    ccc     H7   5302 0.38419200   1.008000   ; qtot -0.273701
 5303         hn    252    ccc     H8   5303 0.38419200   1.008000   ; qtot 0.110491
 5304         os    252    ccc     O1   5304 -0.11061500  16.000000   ; qtot -0.000124
; residue  253 ccc rtp ccc q -0.0
 5305         c3    253    ccc     C1   5305 0.60214900  12.010000   ; qtot 0.602025
 5306         h1    253    ccc     H1   5306 -0.09246700   1.008000   ; qtot 0.509558
 5307         h1    253    ccc     H2   5307 -0.09246700   1.008000   ; qtot 0.417091
 5308         c3    253    ccc     C2   5308 -0.02543800  12.010000   ; qtot 0.391653
 5309         hc    253    ccc     H3   5309 0.00853100   1.008000   ; qtot 0.400184
 5310         hc    253    ccc     H4   5310 0.00853100   1.008000   ; qtot 0.408715
 5311         c3    253    ccc     C3   5311 -0.04070000  12.010000   ; qtot 0.368015
 5312         h1    253    ccc     H5   5312 0.04605500   1.008000   ; qtot 0.414070
 5313         h1    253    ccc     H6   5313 0.04605500   1.008000   ; qtot 0.460125
 5314         n3    253    ccc     N1   5314 -1.11801800  14.010000   ; qtot -0.657893
 5315         hn    253    ccc     H7   5315 0.38419200   1.008000   ; qtot -0.273701
 5316         hn    253    ccc     H8   5316 0.38419200   1.008000   ; qtot 0.110491
 5317         os    253    ccc     O1   5317 -0.11061500  16.000000   ; qtot -0.000124

[ bonds ]
;    ai     aj funct         c0         c1         c2         c3
      1      2     1   0.14316 258236.480000
      1      5     1   0.14316 258236.480000
      2      8     1   0.15375 251793.120000
      5     11     1   0.15375 251793.120000
      8     14     1   0.15375 251793.120000
     11     17     1   0.15375 251793.120000
     14     20     1   0.14647 272713.120000
     17     21     1   0.14647 272713.120000
     20     28     1   0.14647 272713.120000
     20     31     1   0.14647 272713.120000
     21     22     1   0.14647 272713.120000
     21     25     1   0.14647 272713.120000
     22     34     1   0.15375 251793.120000
     25     37     1   0.15375 251793.120000
     28     40     1   0.15375 251793.120000
     31     43     1   0.15375 251793.120000
     34     55     1   0.15375 251793.120000
     37     52     1   0.15375 251793.120000
     40     49     1   0.15375 251793.120000
     43     46     1   0.15375 251793.120000
     46     86     1   0.14316 258236.480000
     49    115     1   0.14316 258236.480000
     52    144     1   0.14316 258236.480000
     55    173     1   0.14316 258236.480000
     58     59     1   0.14647 272713.120000
     58     62     1   0.14647 272713.120000
     58     65     1   0.14647 272713.120000
     59     71     1   0.15375 251793.120000
     62     74     1   0.15375 251793.120000
     65     68     1   0.15375 251793.120000
     68     77     1   0.15375 251793.120000
     71     83     1   0.15375 251793.120000
     74     80     1   0.15375 251793.120000
     77     86     1   0.14316 258236.480000
     80    202     1   0.14316 258236.480000
     83    231     1   0.14316 258236.480000
     87     88     1   0.14647 272713.120000
     87     91     1   0.14647 272713.120000
     87     94     1   0.14647 272713.120000
     88    100     1   0.15375 251793.120000
     91    103     1   0.15375 251793.120000
     94     97     1   0.15375 251793.120000
     97    106     1   0.15375 251793.120000
    100    112     1   0.15375 251793.120000
    103    109     1   0.15375 251793.120000
    106    115     1   0.14316 258236.480000
    109    260     1   0.14316 258236.480000
    112    289     1   0.14316 258236.480000
    116    117     1   0.14647 272713.120000
    116    120     1   0.14647 272713.120000
    116    123     1   0.14647 272713.120000
    117    129     1   0.15375 251793.120000
    120    132     1   0.15375 251793.120000
    123    126     1   0.15375 251793.120000
    126    135     1   0.15375 251793.120000
    129    141     1   0.15375 251793.120000
    132    138     1   0.15375 251793.120000
    135    144     1   0.14316 258236.480000
    138    318     1   0.14316 258236.480000
    141    347     1   0.14316 258236.480000
    145    146     1   0.14647 272713.120000
    145    149     1   0.14647 272713.120000
    145    152     1   0.14647 272713.120000
    146    158     1   0.15375 251793.120000
    149    161     1   0.15375 251793.120000
    152    155     1   0.15375 251793.120000
    155    164     1   0.15375 251793.120000
    158    170     1   0.15375 251793.120000
    161    167     1   0.15375 251793.120000
    164    173     1   0.14316 258236.480000
    167    376     1   0.14316 258236.480000
    170    405     1   0.14316 258236.480000
    174    175     1   0.14647 272713.120000
    174    178     1   0.14647 272713.120000
    174    181     1   0.14647 272713.120000
    175    187     1   0.15375 251793.120000
    178    190     1   0.15375 251793.120000
    181    184     1   0.15375 251793.120000
    184    193     1   0.15375 251793.120000
    187    199     1   0.15375 251793.120000
    190    196     1   0.15375 251793.120000
    193    202     1   0.14316 258236.480000
    196    434     1   0.14316 258236.480000
    199    463     1   0.14316 258236.480000
    203    204     1   0.14647 272713.120000
    203    207     1   0.14647 272713.120000
    203    210     1   0.14647 272713.120000
    204    216     1   0.15375 251793.120000
    207    219     1   0.15375 251793.120000
    210    213     1   0.15375 251793.120000
    213    222     1   0.15375 251793.120000
    216    228     1   0.15375 251793.120000
    219    225     1   0.15375 251793.120000
    222    231     1   0.14316 258236.480000
    225    492     1   0.14316 258236.480000
    228    521     1   0.14316 258236.480000
    232    233     1   0.14647 272713.120000
    232    236     1   0.14647 272713.120000
    232    239     1   0.14647 272713.120000
    233    245     1   0.15375 251793.120000
    236    248     1   0.15375 251793.120000
    239    242     1   0.15375 251793.120000
    242    251     1   0.15375 251793.120000
    245    257     1   0.15375 251793.120000
    248    254     1   0.15375 251793.120000
    251    260     1   0.14316 258236.480000
    254    550     1   0.14316 258236.480000
    257    579     1   0.14316 258236.480000
    261    262     1   0.14647 272713.120000
    261    265     1   0.14647 272713.120000
    261    268     1   0.14647 272713.120000
    262    274     1   0.15375 251793.120000
    265    277     1   0.15375 251793.120000
    268    271     1   0.15375 251793.120000
    271    280     1   0.15375 251793.120000
    274    286     1   0.15375 251793.120000
    277    283     1   0.15375 251793.120000
    280    289     1   0.14316 258236.480000
    283    608     1   0.14316 258236.480000
    286    637     1   0.14316 258236.480000
    290    291     1   0.14647 272713.120000
    290    294     1   0.14647 272713.120000
    290    297     1   0.14647 272713.120000
    291    303     1   0.15375 251793.120000
    294    306     1   0.15375 251793.120000
    297    300     1   0.15375 251793.120000
    300    309     1   0.15375 251793.120000
    303    315     1   0.15375 251793.120000
    306    312     1   0.15375 251793.120000
    309    318     1   0.14316 258236.480000
    312    666     1   0.14316 258236.480000
    315    695     1   0.14316 258236.480000
    319    320     1   0.14647 272713.120000
    319    323     1   0.14647 272713.120000
    319    326     1   0.14647 272713.120000
    320    332     1   0.15375 251793.120000
    323    335     1   0.15375 251793.120000
    326    329     1   0.15375 251793.120000
    329    338     1   0.15375 251793.120000
    332    344     1   0.15375 251793.120000
    335    341     1   0.15375 251793.120000
    338    347     1   0.14316 258236.480000
    341    724     1   0.14316 258236.480000
    344    753     1   0.14316 258236.480000
    348    349     1   0.14647 272713.120000
    348    352     1   0.14647 272713.120000
    348    355     1   0.14647 272713.120000
    349    361     1   0.15375 251793.120000
    352    364     1   0.15375 251793.120000
    355    358     1   0.15375 251793.120000
    358    367     1   0.15375 251793.120000
    361    373     1   0.15375 251793.120000
    364    370     1   0.15375 251793.120000
    367    376     1   0.14316 258236.480000
    370    782     1   0.14316 258236.480000
    373    811     1   0.14316 258236.480000
    377    378     1   0.14647 272713.120000
    377    381     1   0.14647 272713.120000
    377    384     1   0.14647 272713.120000
    378    390     1   0.15375 251793.120000
    381    393     1   0.15375 251793.120000
    384    387     1   0.15375 251793.120000
    387    396     1   0.15375 251793.120000
    390    402     1   0.15375 251793.120000
    393    399     1   0.15375 251793.120000
    396    405     1   0.14316 258236.480000
    399    840     1   0.14316 258236.480000
    402    869     1   0.14316 258236.480000
    406    407     1   0.14647 272713.120000
    406    410     1   0.14647 272713.120000
    406    413     1   0.14647 272713.120000
    407    419     1   0.15375 251793.120000
    410    422     1   0.15375 251793.120000
    413    416     1   0.15375 251793.120000
    416    425     1   0.15375 251793.120000
    419    431     1   0.15375 251793.120000
    422    428     1   0.15375 251793.120000
    425    434     1   0.14316 258236.480000
    428    898     1   0.14316 258236.480000
    431    927     1   0.14316 258236.480000
    435    436     1   0.14647 272713.120000
    435    439     1   0.14647 272713.120000
    435    442     1   0.14647 272713.120000
    436    448     1   0.15375 251793.120000
    439    451     1   0.15375 251793.120000
    442    445     1   0.15375 251793.120000
    445    454     1   0.15375 251793.120000
    448    460     1   0.15375 251793.120000
    451    457     1   0.15375 251793.120000
    454    463     1   0.14316 258236.480000
    457    956     1   0.14316 258236.480000
    460    985     1   0.14316 258236.480000
    464    465     1   0.14647 272713.120000
    464    468     1   0.14647 272713.120000
    464    471     1   0.14647 272713.120000
    465    477     1   0.15375 251793.120000
    468    480     1   0.15375 251793.120000
    471    474     1   0.15375 251793.120000
    474    483     1   0.15375 251793.120000
    477    489     1   0.15375 251793.120000
    480    486     1   0.15375 251793.120000
    483    492     1   0.14316 258236.480000
    486   1014     1   0.14316 258236.480000
    489   1043     1   0.14316 258236.480000
    493    494     1   0.14647 272713.120000
    493    497     1   0.14647 272713.120000
    493    500     1   0.14647 272713.120000
    494    506     1   0.15375 251793.120000
    497    509     1   0.15375 251793.120000
    500    503     1   0.15375 251793.120000
    503    512     1   0.15375 251793.120000
    506    518     1   0.15375 251793.120000
    509    515     1   0.15375 251793.120000
    512    521     1   0.14316 258236.480000
    515   1072     1   0.14316 258236.480000
    518   1101     1   0.14316 258236.480000
    522    523     1   0.14647 272713.120000
    522    526     1   0.14647 272713.120000
    522    529     1   0.14647 272713.120000
    523    535     1   0.15375 251793.120000
    526    538     1   0.15375 251793.120000
    529    532     1   0.15375 251793.120000
    532    541     1   0.15375 251793.120000
    535    547     1   0.15375 251793.120000
    538    544     1   0.15375 251793.120000
    541    550     1   0.14316 258236.480000
    544   1130     1   0.14316 258236.480000
    547   1159     1   0.14316 258236.480000
    551    552     1   0.14647 272713.120000
    551    555     1   0.14647 272713.120000
    551    558     1   0.14647 272713.120000
    552    564     1   0.15375 251793.120000
    555    567     1   0.15375 251793.120000
    558    561     1   0.15375 251793.120000
    561    570     1   0.15375 251793.120000
    564    576     1   0.15375 251793.120000
    567    573     1   0.15375 251793.120000
    570    579     1   0.14316 258236.480000
    573   1188     1   0.14316 258236.480000
    576   1217     1   0.14316 258236.480000
    580    581     1   0.14647 272713.120000
    580    584     1   0.14647 272713.120000
    580    587     1   0.14647 272713.120000
    581    593     1   0.15375 251793.120000
    584    596     1   0.15375 251793.120000
    587    590     1   0.15375 251793.120000
    590    599     1   0.15375 251793.120000
    593    605     1   0.15375 251793.120000
    596    602     1   0.15375 251793.120000
    599    608     1   0.14316 258236.480000
    602   1246     1   0.14316 258236.480000
    605   1275     1   0.14316 258236.480000
    609    610     1   0.14647 272713.120000
    609    613     1   0.14647 272713.120000
    609    616     1   0.14647 272713.120000
    610    622     1   0.15375 251793.120000
    613    625     1   0.15375 251793.120000
    616    619     1   0.15375 251793.120000
    619    628     1   0.15375 251793.120000
    622    634     1   0.15375 251793.120000
    625    631     1   0.15375 251793.120000
    628    637     1   0.14316 258236.480000
    631   1304     1   0.14316 258236.480000
    634   1333     1   0.14316 258236.480000
    638    639     1   0.14647 272713.120000
    638    642     1   0.14647 272713.120000
    638    645     1   0.14647 272713.120000
    639    651     1   0.15375 251793.120000
    642    654     1   0.15375 251793.120000
    645    648     1   0.15375 251793.120000
    648    657     1   0.15375 251793.120000
    651    663     1   0.15375 251793.120000
    654    660     1   0.15375 251793.120000
    657    666     1   0.14316 258236.480000
    660   1362     1   0.14316 258236.480000
    663   1391     1   0.14316 258236.480000
    667    668     1   0.14647 272713.120000
    667    671     1   0.14647 272713.120000
    667    674     1   0.14647 272713.120000
    668    680     1   0.15375 251793.120000
    671    683     1   0.15375 251793.120000
    674    677     1   0.15375 251793.120000
    677    686     1   0.15375 251793.120000
    680    692     1   0.15375 251793.120000
    683    689     1   0.15375 251793.120000
    686    695     1   0.14316 258236.480000
    689   1420     1   0.14316 258236.480000
    692   1449     1   0.14316 258236.480000
    696    697     1   0.14647 272713.120000
    696    700     1   0.14647 272713.120000
    696    703     1   0.14647 272713.120000
    697    709     1   0.15375 251793.120000
    700    712     1   0.15375 251793.120000
    703    706     1   0.15375 251793.120000
    706    715     1   0.15375 251793.120000
    709    721     1   0.15375 251793.120000
    712    718     1   0.15375 251793.120000
    715    724     1   0.14316 258236.480000
    718   1478     1   0.14316 258236.480000
    721   1507     1   0.14316 258236.480000
    725    726     1   0.14647 272713.120000
    725    729     1   0.14647 272713.120000
    725    732     1   0.14647 272713.120000
    726    738     1   0.15375 251793.120000
    729    741     1   0.15375 251793.120000
    732    735     1   0.15375 251793.120000
    735    744     1   0.15375 251793.120000
    738    750     1   0.15375 251793.120000
    741    747     1   0.15375 251793.120000
    744    753     1   0.14316 258236.480000
    747   1536     1   0.14316 258236.480000
    750   1565     1   0.14316 258236.480000
    754    755     1   0.14647 272713.120000
    754    758     1   0.14647 272713.120000
    754    761     1   0.14647 272713.120000
    755    767     1   0.15375 251793.120000
    758    770     1   0.15375 251793.120000
    761    764     1   0.15375 251793.120000
    764    773     1   0.15375 251793.120000
    767    779     1   0.15375 251793.120000
    770    776     1   0.15375 251793.120000
    773    782     1   0.14316 258236.480000
    776   1594     1   0.14316 258236.480000
    779   1623     1   0.14316 258236.480000
    783    784     1   0.14647 272713.120000
    783    787     1   0.14647 272713.120000
    783    790     1   0.14647 272713.120000
    784    796     1   0.15375 251793.120000
    787    799     1   0.15375 251793.120000
    790    793     1   0.15375 251793.120000
    793    802     1   0.15375 251793.120000
    796    808     1   0.15375 251793.120000
    799    805     1   0.15375 251793.120000
    802    811     1   0.14316 258236.480000
    805   1652     1   0.14316 258236.480000
    808   1681     1   0.14316 258236.480000
    812    813     1   0.14647 272713.120000
    812    816     1   0.14647 272713.120000
    812    819     1   0.14647 272713.120000
    813    825     1   0.15375 251793.120000
    816    828     1   0.15375 251793.120000
    819    822     1   0.15375 251793.120000
    822    831     1   0.15375 251793.120000
    825    837     1   0.15375 251793.120000
    828    834     1   0.15375 251793.120000
    831    840     1   0.14316 258236.480000
    834   1710     1   0.14316 258236.480000
    837   1739     1   0.14316 258236.480000
    841    842     1   0.14647 272713.120000
    841    845     1   0.14647 272713.120000
    841    848     1   0.14647 272713.120000
    842    854     1   0.15375 251793.120000
    845    857     1   0.15375 251793.120000
    848    851     1   0.15375 251793.120000
    851    860     1   0.15375 251793.120000
    854    866     1   0.15375 251793.120000
    857    863     1   0.15375 251793.120000
    860    869     1   0.14316 258236.480000
    863   1768     1   0.14316 258236.480000
    866   1797     1   0.14316 258236.480000
    870    871     1   0.14647 272713.120000
    870    874     1   0.14647 272713.120000
    870    877     1   0.14647 272713.120000
    871    883     1   0.15375 251793.120000
    874    886     1   0.15375 251793.120000
    877    880     1   0.15375 251793.120000
    880    889     1   0.15375 251793.120000
    883    895     1   0.15375 251793.120000
    886    892     1   0.15375 251793.120000
    889    898     1   0.14316 258236.480000
    892   1826     1   0.14316 258236.480000
    895   1855     1   0.14316 258236.480000
    899    900     1   0.14647 272713.120000
    899    903     1   0.14647 272713.120000
    899    906     1   0.14647 272713.120000
    900    912     1   0.15375 251793.120000
    903    915     1   0.15375 251793.120000
    906    909     1   0.15375 251793.120000
    909    918     1   0.15375 251793.120000
    912    924     1   0.15375 251793.120000
    915    921     1   0.15375 251793.120000
    918    927     1   0.14316 258236.480000
    921   1884     1   0.14316 258236.480000
    924   1913     1   0.14316 258236.480000
    928    929     1   0.14647 272713.120000
    928    932     1   0.14647 272713.120000
    928    935     1   0.14647 272713.120000
    929    941     1   0.15375 251793.120000
    932    944     1   0.15375 251793.120000
    935    938     1   0.15375 251793.120000
    938    947     1   0.15375 251793.120000
    941    953     1   0.15375 251793.120000
    944    950     1   0.15375 251793.120000
    947    956     1   0.14316 258236.480000
    950   1942     1   0.14316 258236.480000
    953   1971     1   0.14316 258236.480000
    957    958     1   0.14647 272713.120000
    957    961     1   0.14647 272713.120000
    957    964     1   0.14647 272713.120000
    958    970     1   0.15375 251793.120000
    961    973     1   0.15375 251793.120000
    964    967     1   0.15375 251793.120000
    967    976     1   0.15375 251793.120000
    970    982     1   0.15375 251793.120000
    973    979     1   0.15375 251793.120000
    976    985     1   0.14316 258236.480000
    979   2000     1   0.14316 258236.480000
    982   2029     1   0.14316 258236.480000
    986    987     1   0.14647 272713.120000
    986    990     1   0.14647 272713.120000
    986    993     1   0.14647 272713.120000
    987    999     1   0.15375 251793.120000
    990   1002     1   0.15375 251793.120000
    993    996     1   0.15375 251793.120000
    996   1005     1   0.15375 251793.120000
    999   1011     1   0.15375 251793.120000
   1002   1008     1   0.15375 251793.120000
   1005   1014     1   0.14316 258236.480000
   1008   2058     1   0.14316 258236.480000
   1011   2087     1   0.14316 258236.480000
   1015   1016     1   0.14647 272713.120000
   1015   1019     1   0.14647 272713.120000
   1015   1022     1   0.14647 272713.120000
   1016   1028     1   0.15375 251793.120000
   1019   1031     1   0.15375 251793.120000
   1022   1025     1   0.15375 251793.120000
   1025   1034     1   0.15375 251793.120000
   1028   1040     1   0.15375 251793.120000
   1031   1037     1   0.15375 251793.120000
   1034   1043     1   0.14316 258236.480000
   1037   2116     1   0.14316 258236.480000
   1040   2145     1   0.14316 258236.480000
   1044   1045     1   0.14647 272713.120000
   1044   1048     1   0.14647 272713.120000
   1044   1051     1   0.14647 272713.120000
   1045   1057     1   0.15375 251793.120000
   1048   1060     1   0.15375 251793.120000
   1051   1054     1   0.15375 251793.120000
   1054   1063     1   0.15375 251793.120000
   1057   1069     1   0.15375 251793.120000
   1060   1066     1   0.15375 251793.120000
   1063   1072     1   0.14316 258236.480000
   1066   2174     1   0.14316 258236.480000
   1069   2203     1   0.14316 258236.480000
   1073   1074     1   0.14647 272713.120000
   1073   1077     1   0.14647 272713.120000
   1073   1080     1   0.14647 272713.120000
   1074   1086     1   0.15375 251793.120000
   1077   1089     1   0.15375 251793.120000
   1080   1083     1   0.15375 251793.120000
   1083   1092     1   0.15375 251793.120000
   1086   1098     1   0.15375 251793.120000
   1089   1095     1   0.15375 251793.120000
   1092   1101     1   0.14316 258236.480000
   1095   2232     1   0.14316 258236.480000
   1098   2261     1   0.14316 258236.480000
   1102   1103     1   0.14647 272713.120000
   1102   1106     1   0.14647 272713.120000
   1102   1109     1   0.14647 272713.120000
   1103   1115     1   0.15375 251793.120000
   1106   1118     1   0.15375 251793.120000
   1109   1112     1   0.15375 251793.120000
   1112   1121     1   0.15375 251793.120000
   1115   1127     1   0.15375 251793.120000
   1118   1124     1   0.15375 251793.120000
   1121   1130     1   0.14316 258236.480000
   1124   2290     1   0.14316 258236.480000
   1127   2319     1   0.14316 258236.480000
   1131   1132     1   0.14647 272713.120000
   1131   1135     1   0.14647 272713.120000
   1131   1138     1   0.14647 272713.120000
   1132   1144     1   0.15375 251793.120000
   1135   1147     1   0.15375 251793.120000
   1138   1141     1   0.15375 251793.120000
   1141   1150     1   0.15375 251793.120000
   1144   1156     1   0.15375 251793.120000
   1147   1153     1   0.15375 251793.120000
   1150   1159     1   0.14316 258236.480000
   1153   2348     1   0.14316 258236.480000
   1156   2377     1   0.14316 258236.480000
   1160   1161     1   0.14647 272713.120000
   1160   1164     1   0.14647 272713.120000
   1160   1167     1   0.14647 272713.120000
   1161   1173     1   0.15375 251793.120000
   1164   1176     1   0.15375 251793.120000
   1167   1170     1   0.15375 251793.120000
   1170   1179     1   0.15375 251793.120000
   1173   1185     1   0.15375 251793.120000
   1176   1182     1   0.15375 251793.120000
   1179   1188     1   0.14316 258236.480000
   1182   2406     1   0.14316 258236.480000
   1185   2435     1   0.14316 258236.480000
   1189   1190     1   0.14647 272713.120000
   1189   1193     1   0.14647 272713.120000
   1189   1196     1   0.14647 272713.120000
   1190   1202     1   0.15375 251793.120000
   1193   1205     1   0.15375 251793.120000
   1196   1199     1   0.15375 251793.120000
   1199   1208     1   0.15375 251793.120000
   1202   1214     1   0.15375 251793.120000
   1205   1211     1   0.15375 251793.120000
   1208   1217     1   0.14316 258236.480000
   1211   2464     1   0.14316 258236.480000
   1214   2493     1   0.14316 258236.480000
   1218   1219     1   0.14647 272713.120000
   1218   1222     1   0.14647 272713.120000
   1218   1225     1   0.14647 272713.120000
   1219   1231     1   0.15375 251793.120000
   1222   1234     1   0.15375 251793.120000
   1225   1228     1   0.15375 251793.120000
   1228   1237     1   0.15375 251793.120000
   1231   1243     1   0.15375 251793.120000
   1234   1240     1   0.15375 251793.120000
   1237   1246     1   0.14316 258236.480000
   1240   2522     1   0.14316 258236.480000
   1243   2551     1   0.14316 258236.480000
   1247   1248     1   0.14647 272713.120000
   1247   1251     1   0.14647 272713.120000
   1247   1254     1   0.14647 272713.120000
   1248   1260     1   0.15375 251793.120000
   1251   1263     1   0.15375 251793.120000
   1254   1257     1   0.15375 251793.120000
   1257   1266     1   0.15375 251793.120000
   1260   1272     1   0.15375 251793.120000
   1263   1269     1   0.15375 251793.120000
   1266   1275     1   0.14316 258236.480000
   1269   2580     1   0.14316 258236.480000
   1272   2609     1   0.14316 258236.480000
   1276   1277     1   0.14647 272713.120000
   1276   1280     1   0.14647 272713.120000
   1276   1283     1   0.14647 272713.120000
   1277   1289     1   0.15375 251793.120000
   1280   1292     1   0.15375 251793.120000
   1283   1286     1   0.15375 251793.120000
   1286   1295     1   0.15375 251793.120000
   1289   1301     1   0.15375 251793.120000
   1292   1298     1   0.15375 251793.120000
   1295   1304     1   0.14316 258236.480000
   1298   2638     1   0.14316 258236.480000
   1301   2667     1   0.14316 258236.480000
   1305   1306     1   0.14647 272713.120000
   1305   1309     1   0.14647 272713.120000
   1305   1312     1   0.14647 272713.120000
   1306   1318     1   0.15375 251793.120000
   1309   1321     1   0.15375 251793.120000
   1312   1315     1   0.15375 251793.120000
   1315   1324     1   0.15375 251793.120000
   1318   1330     1   0.15375 251793.120000
   1321   1327     1   0.15375 251793.120000
   1324   1333     1   0.14316 258236.480000
   1327   2696     1   0.14316 258236.480000
   1330   2725     1   0.14316 258236.480000
   1334   1335     1   0.14647 272713.120000
   1334   1338     1   0.14647 272713.120000
   1334   1341     1   0.14647 272713.120000
   1335   1347     1   0.15375 251793.120000
   1338   1350     1   0.15375 251793.120000
   1341   1344     1   0.15375 251793.120000
   1344   1353     1   0.15375 251793.120000
   1347   1359     1   0.15375 251793.120000
   1350   1356     1   0.15375 251793.120000
   1353   1362     1   0.14316 258236.480000
   1356   2754     1   0.14316 258236.480000
   1359   2783     1   0.14316 258236.480000
   1363   1364     1   0.14647 272713.120000
   1363   1367     1   0.14647 272713.120000
   1363   1370     1   0.14647 272713.120000
   1364   1376     1   0.15375 251793.120000
   1367   1379     1   0.15375 251793.120000
   1370   1373     1   0.15375 251793.120000
   1373   1382     1   0.15375 251793.120000
   1376   1388     1   0.15375 251793.120000
   1379   1385     1   0.15375 251793.120000
   1382   1391     1   0.14316 258236.480000
   1385   2812     1   0.14316 258236.480000
   1388   2841     1   0.14316 258236.480000
   1392   1393     1   0.14647 272713.120000
   1392   1396     1   0.14647 272713.120000
   1392   1399     1   0.14647 272713.120000
   1393   1405     1   0.15375 251793.120000
   1396   1408     1   0.15375 251793.120000
   1399   1402     1   0.15375 251793.120000
   1402   1411     1   0.15375 251793.120000
   1405   1417     1   0.15375 251793.120000
   1408   1414     1   0.15375 251793.120000
   1411   1420     1   0.14316 258236.480000
   1414   2870     1   0.14316 258236.480000
   1417   2899     1   0.14316 258236.480000
   1421   1422     1   0.14647 272713.120000
   1421   1425     1   0.14647 272713.120000
   1421   1428     1   0.14647 272713.120000
   1422   1434     1   0.15375 251793.120000
   1425   1437     1   0.15375 251793.120000
   1428   1431     1   0.15375 251793.120000
   1431   1440     1   0.15375 251793.120000
   1434   1446     1   0.15375 251793.120000
   1437   1443     1   0.15375 251793.120000
   1440   1449     1   0.14316 258236.480000
   1443   2928     1   0.14316 258236.480000
   1446   2957     1   0.14316 258236.480000
   1450   1451     1   0.14647 272713.120000
   1450   1454     1   0.14647 272713.120000
   1450   1457     1   0.14647 272713.120000
   1451   1463     1   0.15375 251793.120000
   1454   1466     1   0.15375 251793.120000
   1457   1460     1   0.15375 251793.120000
   1460   1469     1   0.15375 251793.120000
   1463   1475     1   0.15375 251793.120000
   1466   1472     1   0.15375 251793.120000
   1469   1478     1   0.14316 258236.480000
   1472   2986     1   0.14316 258236.480000
   1475   3015     1   0.14316 258236.480000
   1479   1480     1   0.14647 272713.120000
   1479   1483     1   0.14647 272713.120000
   1479   1486     1   0.14647 272713.120000
   1480   1492     1   0.15375 251793.120000
   1483   1495     1   0.15375 251793.120000
   1486   1489     1   0.15375 251793.120000
   1489   1498     1   0.15375 251793.120000
   1492   1504     1   0.15375 251793.120000
   1495   1501     1   0.15375 251793.120000
   1498   1507     1   0.14316 258236.480000
   1501   3044     1   0.14316 258236.480000
   1504   3073     1   0.14316 258236.480000
   1508   1509     1   0.14647 272713.120000
   1508   1512     1   0.14647 272713.120000
   1508   1515     1   0.14647 272713.120000
   1509   1521     1   0.15375 251793.120000
   1512   1524     1   0.15375 251793.120000
   1515   1518     1   0.15375 251793.120000
   1518   1527     1   0.15375 251793.120000
   1521   1533     1   0.15375 251793.120000
   1524   1530     1   0.15375 251793.120000
   1527   1536     1   0.14316 258236.480000
   1530   3102     1   0.14316 258236.480000
   1533   3131     1   0.14316 258236.480000
   1537   1538     1   0.14647 272713.120000
   1537   1541     1   0.14647 272713.120000
   1537   1544     1   0.14647 272713.120000
   1538   1550     1   0.15375 251793.120000
   1541   1553     1   0.15375 251793.120000
   1544   1547     1   0.15375 251793.120000
   1547   1556     1   0.15375 251793.120000
   1550   1562     1   0.15375 251793.120000
   1553   1559     1   0.15375 251793.120000
   1556   1565     1   0.14316 258236.480000
   1559   3160     1   0.14316 258236.480000
   1562   3189     1   0.14316 258236.480000
   1566   1567     1   0.14647 272713.120000
   1566   1570     1   0.14647 272713.120000
   1566   1573     1   0.14647 272713.120000
   1567   1579     1   0.15375 251793.120000
   1570   1582     1   0.15375 251793.120000
   1573   1576     1   0.15375 251793.120000
   1576   1585     1   0.15375 251793.120000
   1579   1591     1   0.15375 251793.120000
   1582   1588     1   0.15375 251793.120000
   1585   1594     1   0.14316 258236.480000
   1588   3218     1   0.14316 258236.480000
   1591   3247     1   0.14316 258236.480000
   1595   1596     1   0.14647 272713.120000
   1595   1599     1   0.14647 272713.120000
   1595   1602     1   0.14647 272713.120000
   1596   1608     1   0.15375 251793.120000
   1599   1611     1   0.15375 251793.120000
   1602   1605     1   0.15375 251793.120000
   1605   1614     1   0.15375 251793.120000
   1608   1620     1   0.15375 251793.120000
   1611   1617     1   0.15375 251793.120000
   1614   1623     1   0.14316 258236.480000
   1617   3276     1   0.14316 258236.480000
   1620   3305     1   0.14316 258236.480000
   1624   1625     1   0.14647 272713.120000
   1624   1628     1   0.14647 272713.120000
   1624   1631     1   0.14647 272713.120000
   1625   1637     1   0.15375 251793.120000
   1628   1640     1   0.15375 251793.120000
   1631   1634     1   0.15375 251793.120000
   1634   1643     1   0.15375 251793.120000
   1637   1649     1   0.15375 251793.120000
   1640   1646     1   0.15375 251793.120000
   1643   1652     1   0.14316 258236.480000
   1646   3334     1   0.14316 258236.480000
   1649   3363     1   0.14316 258236.480000
   1653   1654     1   0.14647 272713.120000
   1653   1657     1   0.14647 272713.120000
   1653   1660     1   0.14647 272713.120000
   1654   1666     1   0.15375 251793.120000
   1657   1669     1   0.15375 251793.120000
   1660   1663     1   0.15375 251793.120000
   1663   1672     1   0.15375 251793.120000
   1666   1678     1   0.15375 251793.120000
   1669   1675     1   0.15375 251793.120000
   1672   1681     1   0.14316 258236.480000
   1675   3392     1   0.14316 258236.480000
   1678   3421     1   0.14316 258236.480000
   1682   1683     1   0.14647 272713.120000
   1682   1686     1   0.14647 272713.120000
   1682   1689     1   0.14647 272713.120000
   1683   1695     1   0.15375 251793.120000
   1686   1698     1   0.15375 251793.120000
   1689   1692     1   0.15375 251793.120000
   1692   1701     1   0.15375 251793.120000
   1695   1707     1   0.15375 251793.120000
   1698   1704     1   0.15375 251793.120000
   1701   1710     1   0.14316 258236.480000
   1704   3450     1   0.14316 258236.480000
   1707   3479     1   0.14316 258236.480000
   1711   1712     1   0.14647 272713.120000
   1711   1715     1   0.14647 272713.120000
   1711   1718     1   0.14647 272713.120000
   1712   1724     1   0.15375 251793.120000
   1715   1727     1   0.15375 251793.120000
   1718   1721     1   0.15375 251793.120000
   1721   1730     1   0.15375 251793.120000
   1724   1736     1   0.15375 251793.120000
   1727   1733     1   0.15375 251793.120000
   1730   1739     1   0.14316 258236.480000
   1733   3508     1   0.14316 258236.480000
   1736   3537     1   0.14316 258236.480000
   1740   1741     1   0.14647 272713.120000
   1740   1744     1   0.14647 272713.120000
   1740   1747     1   0.14647 272713.120000
   1741   1753     1   0.15375 251793.120000
   1744   1756     1   0.15375 251793.120000
   1747   1750     1   0.15375 251793.120000
   1750   1759     1   0.15375 251793.120000
   1753   1765     1   0.15375 251793.120000
   1756   1762     1   0.15375 251793.120000
   1759   1768     1   0.14316 258236.480000
   1762   3566     1   0.14316 258236.480000
   1765   3595     1   0.14316 258236.480000
   1769   1770     1   0.14647 272713.120000
   1769   1773     1   0.14647 272713.120000
   1769   1776     1   0.14647 272713.120000
   1770   1782     1   0.15375 251793.120000
   1773   1785     1   0.15375 251793.120000
   1776   1779     1   0.15375 251793.120000
   1779   1788     1   0.15375 251793.120000
   1782   1794     1   0.15375 251793.120000
   1785   1791     1   0.15375 251793.120000
   1788   1797     1   0.14316 258236.480000
   1791   3624     1   0.14316 258236.480000
   1794   3653     1   0.14316 258236.480000
   1798   1799     1   0.14647 272713.120000
   1798   1802     1   0.14647 272713.120000
   1798   1805     1   0.14647 272713.120000
   1799   1811     1   0.15375 251793.120000
   1802   1814     1   0.15375 251793.120000
   1805   1808     1   0.15375 251793.120000
   1808   1817     1   0.15375 251793.120000
   1811   1823     1   0.15375 251793.120000
   1814   1820     1   0.15375 251793.120000
   1817   1826     1   0.14316 258236.480000
   1820   3666     1   0.14316 258236.480000
   1823   3679     1   0.14316 258236.480000
   1827   1828     1   0.14647 272713.120000
   1827   1831     1   0.14647 272713.120000
   1827   1834     1   0.14647 272713.120000
   1828   1840     1   0.15375 251793.120000
   1831   1843     1   0.15375 251793.120000
   1834   1837     1   0.15375 251793.120000
   1837   1846     1   0.15375 251793.120000
   1840   1852     1   0.15375 251793.120000
   1843   1849     1   0.15375 251793.120000
   1846   1855     1   0.14316 258236.480000
   1849   3692     1   0.14316 258236.480000
   1852   3705     1   0.14316 258236.480000
   1856   1857     1   0.14647 272713.120000
   1856   1860     1   0.14647 272713.120000
   1856   1863     1   0.14647 272713.120000
   1857   1869     1   0.15375 251793.120000
   1860   1872     1   0.15375 251793.120000
   1863   1866     1   0.15375 251793.120000
   1866   1875     1   0.15375 251793.120000
   1869   1881     1   0.15375 251793.120000
   1872   1878     1   0.15375 251793.120000
   1875   1884     1   0.14316 258236.480000
   1878   3718     1   0.14316 258236.480000
   1881   3731     1   0.14316 258236.480000
   1885   1886     1   0.14647 272713.120000
   1885   1889     1   0.14647 272713.120000
   1885   1892     1   0.14647 272713.120000
   1886   1898     1   0.15375 251793.120000
   1889   1901     1   0.15375 251793.120000
   1892   1895     1   0.15375 251793.120000
   1895   1904     1   0.15375 251793.120000
   1898   1910     1   0.15375 251793.120000
   1901   1907     1   0.15375 251793.120000
   1904   1913     1   0.14316 258236.480000
   1907   3744     1   0.14316 258236.480000
   1910   3757     1   0.14316 258236.480000
   1914   1915     1   0.14647 272713.120000
   1914   1918     1   0.14647 272713.120000
   1914   1921     1   0.14647 272713.120000
   1915   1927     1   0.15375 251793.120000
   1918   1930     1   0.15375 251793.120000
   1921   1924     1   0.15375 251793.120000
   1924   1933     1   0.15375 251793.120000
   1927   1939     1   0.15375 251793.120000
   1930   1936     1   0.15375 251793.120000
   1933   1942     1   0.14316 258236.480000
   1936   3770     1   0.14316 258236.480000
   1939   3783     1   0.14316 258236.480000
   1943   1944     1   0.14647 272713.120000
   1943   1947     1   0.14647 272713.120000
   1943   1950     1   0.14647 272713.120000
   1944   1956     1   0.15375 251793.120000
   1947   1959     1   0.15375 251793.120000
   1950   1953     1   0.15375 251793.120000
   1953   1962     1   0.15375 251793.120000
   1956   1968     1   0.15375 251793.120000
   1959   1965     1   0.15375 251793.120000
   1962   1971     1   0.14316 258236.480000
   1965   3796     1   0.14316 258236.480000
   1968   3809     1   0.14316 258236.480000
   1972   1973     1   0.14647 272713.120000
   1972   1976     1   0.14647 272713.120000
   1972   1979     1   0.14647 272713.120000
   1973   1985     1   0.15375 251793.120000
   1976   1988     1   0.15375 251793.120000
   1979   1982     1   0.15375 251793.120000
   1982   1991     1   0.15375 251793.120000
   1985   1997     1   0.15375 251793.120000
   1988   1994     1   0.15375 251793.120000
   1991   2000     1   0.14316 258236.480000
   1994   3822     1   0.14316 258236.480000
   1997   3835     1   0.14316 258236.480000
   2001   2002     1   0.14647 272713.120000
   2001   2005     1   0.14647 272713.120000
   2001   2008     1   0.14647 272713.120000
   2002   2014     1   0.15375 251793.120000
   2005   2017     1   0.15375 251793.120000
   2008   2011     1   0.15375 251793.120000
   2011   2020     1   0.15375 251793.120000
   2014   2026     1   0.15375 251793.120000
   2017   2023     1   0.15375 251793.120000
   2020   2029     1   0.14316 258236.480000
   2023   3848     1   0.14316 258236.480000
   2026   3861     1   0.14316 258236.480000
   2030   2031     1   0.14647 272713.120000
   2030   2034     1   0.14647 272713.120000
   2030   2037     1   0.14647 272713.120000
   2031   2043     1   0.15375 251793.120000
   2034   2046     1   0.15375 251793.120000
   2037   2040     1   0.15375 251793.120000
   2040   2049     1   0.15375 251793.120000
   2043   2055     1   0.15375 251793.120000
   2046   2052     1   0.15375 251793.120000
   2049   2058     1   0.14316 258236.480000
   2052   3874     1   0.14316 258236.480000
   2055   3887     1   0.14316 258236.480000
   2059   2060     1   0.14647 272713.120000
   2059   2063     1   0.14647 272713.120000
   2059   2066     1   0.14647 272713.120000
   2060   2072     1   0.15375 251793.120000
   2063   2075     1   0.15375 251793.120000
   2066   2069     1   0.15375 251793.120000
   2069   2078     1   0.15375 251793.120000
   2072   2084     1   0.15375 251793.120000
   2075   2081     1   0.15375 251793.120000
   2078   2087     1   0.14316 258236.480000
   2081   3900     1   0.14316 258236.480000
   2084   3913     1   0.14316 258236.480000
   2088   2089     1   0.14647 272713.120000
   2088   2092     1   0.14647 272713.120000
   2088   2095     1   0.14647 272713.120000
   2089   2101     1   0.15375 251793.120000
   2092   2104     1   0.15375 251793.120000
   2095   2098     1   0.15375 251793.120000
   2098   2107     1   0.15375 251793.120000
   2101   2113     1   0.15375 251793.120000
   2104   2110     1   0.15375 251793.120000
   2107   2116     1   0.14316 258236.480000
   2110   3926     1   0.14316 258236.480000
   2113   3939     1   0.14316 258236.480000
   2117   2118     1   0.14647 272713.120000
   2117   2121     1   0.14647 272713.120000
   2117   2124     1   0.14647 272713.120000
   2118   2130     1   0.15375 251793.120000
   2121   2133     1   0.15375 251793.120000
   2124   2127     1   0.15375 251793.120000
   2127   2136     1   0.15375 251793.120000
   2130   2142     1   0.15375 251793.120000
   2133   2139     1   0.15375 251793.120000
   2136   2145     1   0.14316 258236.480000
   2139   3952     1   0.14316 258236.480000
   2142   3965     1   0.14316 258236.480000
   2146   2147     1   0.14647 272713.120000
   2146   2150     1   0.14647 272713.120000
   2146   2153     1   0.14647 272713.120000
   2147   2159     1   0.15375 251793.120000
   2150   2162     1   0.15375 251793.120000
   2153   2156     1   0.15375 251793.120000
   2156   2165     1   0.15375 251793.120000
   2159   2171     1   0.15375 251793.120000
   2162   2168     1   0.15375 251793.120000
   2165   2174     1   0.14316 258236.480000
   2168   3978     1   0.14316 258236.480000
   2171   3991     1   0.14316 258236.480000
   2175   2176     1   0.14647 272713.120000
   2175   2179     1   0.14647 272713.120000
   2175   2182     1   0.14647 272713.120000
   2176   2188     1   0.15375 251793.120000
   2179   2191     1   0.15375 251793.120000
   2182   2185     1   0.15375 251793.120000
   2185   2194     1   0.15375 251793.120000
   2188   2200     1   0.15375 251793.120000
   2191   2197     1   0.15375 251793.120000
   2194   2203     1   0.14316 258236.480000
   2197   4004     1   0.14316 258236.480000
   2200   4017     1   0.14316 258236.480000
   2204   2205     1   0.14647 272713.120000
   2204   2208     1   0.14647 272713.120000
   2204   2211     1   0.14647 272713.120000
   2205   2217     1   0.15375 251793.120000
   2208   2220     1   0.15375 251793.120000
   2211   2214     1   0.15375 251793.120000
   2214   2223     1   0.15375 251793.120000
   2217   2229     1   0.15375 251793.120000
   2220   2226     1   0.15375 251793.120000
   2223   2232     1   0.14316 258236.480000
   2226   4030     1   0.14316 258236.480000
   2229   4043     1   0.14316 258236.480000
   2233   2234     1   0.14647 272713.120000
   2233   2237     1   0.14647 272713.120000
   2233   2240     1   0.14647 272713.120000
   2234   2246     1   0.15375 251793.120000
   2237   2249     1   0.15375 251793.120000
   2240   2243     1   0.15375 251793.120000
   2243   2252     1   0.15375 251793.120000
   2246   2258     1   0.15375 251793.120000
   2249   2255     1   0.15375 251793.120000
   2252   2261     1   0.14316 258236.480000
   2255   4056     1   0.14316 258236.480000
   2258   4069     1   0.14316 258236.480000
   2262   2263     1   0.14647 272713.120000
   2262   2266     1   0.14647 272713.120000
   2262   2269     1   0.14647 272713.120000
   2263   2275     1   0.15375 251793.120000
   2266   2278     1   0.15375 251793.120000
   2269   2272     1   0.15375 251793.120000
   2272   2281     1   0.15375 251793.120000
   2275   2287     1   0.15375 251793.120000
   2278   2284     1   0.15375 251793.120000
   2281   2290     1   0.14316 258236.480000
   2284   4082     1   0.14316 258236.480000
   2287   4095     1   0.14316 258236.480000
   2291   2292     1   0.14647 272713.120000
   2291   2295     1   0.14647 272713.120000
   2291   2298     1   0.14647 272713.120000
   2292   2304     1   0.15375 251793.120000
   2295   2307     1   0.15375 251793.120000
   2298   2301     1   0.15375 251793.120000
   2301   2310     1   0.15375 251793.120000
   2304   2316     1   0.15375 251793.120000
   2307   2313     1   0.15375 251793.120000
   2310   2319     1   0.14316 258236.480000
   2313   4108     1   0.14316 258236.480000
   2316   4121     1   0.14316 258236.480000
   2320   2321     1   0.14647 272713.120000
   2320   2324     1   0.14647 272713.120000
   2320   2327     1   0.14647 272713.120000
   2321   2333     1   0.15375 251793.120000
   2324   2336     1   0.15375 251793.120000
   2327   2330     1   0.15375 251793.120000
   2330   2339     1   0.15375 251793.120000
   2333   2345     1   0.15375 251793.120000
   2336   2342     1   0.15375 251793.120000
   2339   2348     1   0.14316 258236.480000
   2342   4134     1   0.14316 258236.480000
   2345   4147     1   0.14316 258236.480000
   2349   2350     1   0.14647 272713.120000
   2349   2353     1   0.14647 272713.120000
   2349   2356     1   0.14647 272713.120000
   2350   2362     1   0.15375 251793.120000
   2353   2365     1   0.15375 251793.120000
   2356   2359     1   0.15375 251793.120000
   2359   2368     1   0.15375 251793.120000
   2362   2374     1   0.15375 251793.120000
   2365   2371     1   0.15375 251793.120000
   2368   2377     1   0.14316 258236.480000
   2371   4160     1   0.14316 258236.480000
   2374   4173     1   0.14316 258236.480000
   2378   2379     1   0.14647 272713.120000
   2378   2382     1   0.14647 272713.120000
   2378   2385     1   0.14647 272713.120000
   2379   2391     1   0.15375 251793.120000
   2382   2394     1   0.15375 251793.120000
   2385   2388     1   0.15375 251793.120000
   2388   2397     1   0.15375 251793.120000
   2391   2403     1   0.15375 251793.120000
   2394   2400     1   0.15375 251793.120000
   2397   2406     1   0.14316 258236.480000
   2400   4186     1   0.14316 258236.480000
   2403   4199     1   0.14316 258236.480000
   2407   2408     1   0.14647 272713.120000
   2407   2411     1   0.14647 272713.120000
   2407   2414     1   0.14647 272713.120000
   2408   2420     1   0.15375 251793.120000
   2411   2423     1   0.15375 251793.120000
   2414   2417     1   0.15375 251793.120000
   2417   2426     1   0.15375 251793.120000
   2420   2432     1   0.15375 251793.120000
   2423   2429     1   0.15375 251793.120000
   2426   2435     1   0.14316 258236.480000
   2429   4212     1   0.14316 258236.480000
   2432   4225     1   0.14316 258236.480000
   2436   2437     1   0.14647 272713.120000
   2436   2440     1   0.14647 272713.120000
   2436   2443     1   0.14647 272713.120000
   2437   2449     1   0.15375 251793.120000
   2440   2452     1   0.15375 251793.120000
   2443   2446     1   0.15375 251793.120000
   2446   2455     1   0.15375 251793.120000
   2449   2461     1   0.15375 251793.120000
   2452   2458     1   0.15375 251793.120000
   2455   2464     1   0.14316 258236.480000
   2458   4238     1   0.14316 258236.480000
   2461   4251     1   0.14316 258236.480000
   2465   2466     1   0.14647 272713.120000
   2465   2469     1   0.14647 272713.120000
   2465   2472     1   0.14647 272713.120000
   2466   2478     1   0.15375 251793.120000
   2469   2481     1   0.15375 251793.120000
   2472   2475     1   0.15375 251793.120000
   2475   2484     1   0.15375 251793.120000
   2478   2490     1   0.15375 251793.120000
   2481   2487     1   0.15375 251793.120000
   2484   2493     1   0.14316 258236.480000
   2487   4264     1   0.14316 258236.480000
   2490   4277     1   0.14316 258236.480000
   2494   2495     1   0.14647 272713.120000
   2494   2498     1   0.14647 272713.120000
   2494   2501     1   0.14647 272713.120000
   2495   2507     1   0.15375 251793.120000
   2498   2510     1   0.15375 251793.120000
   2501   2504     1   0.15375 251793.120000
   2504   2513     1   0.15375 251793.120000
   2507   2519     1   0.15375 251793.120000
   2510   2516     1   0.15375 251793.120000
   2513   2522     1   0.14316 258236.480000
   2516   4290     1   0.14316 258236.480000
   2519   4303     1   0.14316 258236.480000
   2523   2524     1   0.14647 272713.120000
   2523   2527     1   0.14647 272713.120000
   2523   2530     1   0.14647 272713.120000
   2524   2536     1   0.15375 251793.120000
   2527   2539     1   0.15375 251793.120000
   2530   2533     1   0.15375 251793.120000
   2533   2542     1   0.15375 251793.120000
   2536   2548     1   0.15375 251793.120000
   2539   2545     1   0.15375 251793.120000
   2542   2551     1   0.14316 258236.480000
   2545   4316     1   0.14316 258236.480000
   2548   4329     1   0.14316 258236.480000
   2552   2553     1   0.14647 272713.120000
   2552   2556     1   0.14647 272713.120000
   2552   2559     1   0.14647 272713.120000
   2553   2565     1   0.15375 251793.120000
   2556   2568     1   0.15375 251793.120000
   2559   2562     1   0.15375 251793.120000
   2562   2571     1   0.15375 251793.120000
   2565   2577     1   0.15375 251793.120000
   2568   2574     1   0.15375 251793.120000
   2571   2580     1   0.14316 258236.480000
   2574   4342     1   0.14316 258236.480000
   2577   4355     1   0.14316 258236.480000
   2581   2582     1   0.14647 272713.120000
   2581   2585     1   0.14647 272713.120000
   2581   2588     1   0.14647 272713.120000
   2582   2594     1   0.15375 251793.120000
   2585   2597     1   0.15375 251793.120000
   2588   2591     1   0.15375 251793.120000
   2591   2600     1   0.15375 251793.120000
   2594   2606     1   0.15375 251793.120000
   2597   2603     1   0.15375 251793.120000
   2600   2609     1   0.14316 258236.480000
   2603   4368     1   0.14316 258236.480000
   2606   4381     1   0.14316 258236.480000
   2610   2611     1   0.14647 272713.120000
   2610   2614     1   0.14647 272713.120000
   2610   2617     1   0.14647 272713.120000
   2611   2623     1   0.15375 251793.120000
   2614   2626     1   0.15375 251793.120000
   2617   2620     1   0.15375 251793.120000
   2620   2629     1   0.15375 251793.120000
   2623   2635     1   0.15375 251793.120000
   2626   2632     1   0.15375 251793.120000
   2629   2638     1   0.14316 258236.480000
   2632   4394     1   0.14316 258236.480000
   2635   4407     1   0.14316 258236.480000
   2639   2640     1   0.14647 272713.120000
   2639   2643     1   0.14647 272713.120000
   2639   2646     1   0.14647 272713.120000
   2640   2652     1   0.15375 251793.120000
   2643   2655     1   0.15375 251793.120000
   2646   2649     1   0.15375 251793.120000
   2649   2658     1   0.15375 251793.120000
   2652   2664     1   0.15375 251793.120000
   2655   2661     1   0.15375 251793.120000
   2658   2667     1   0.14316 258236.480000
   2661   4420     1   0.14316 258236.480000
   2664   4433     1   0.14316 258236.480000
   2668   2669     1   0.14647 272713.120000
   2668   2672     1   0.14647 272713.120000
   2668   2675     1   0.14647 272713.120000
   2669   2681     1   0.15375 251793.120000
   2672   2684     1   0.15375 251793.120000
   2675   2678     1   0.15375 251793.120000
   2678   2687     1   0.15375 251793.120000
   2681   2693     1   0.15375 251793.120000
   2684   2690     1   0.15375 251793.120000
   2687   2696     1   0.14316 258236.480000
   2690   4446     1   0.14316 258236.480000
   2693   4459     1   0.14316 258236.480000
   2697   2698     1   0.14647 272713.120000
   2697   2701     1   0.14647 272713.120000
   2697   2704     1   0.14647 272713.120000
   2698   2710     1   0.15375 251793.120000
   2701   2713     1   0.15375 251793.120000
   2704   2707     1   0.15375 251793.120000
   2707   2716     1   0.15375 251793.120000
   2710   2722     1   0.15375 251793.120000
   2713   2719     1   0.15375 251793.120000
   2716   2725     1   0.14316 258236.480000
   2719   4472     1   0.14316 258236.480000
   2722   4485     1   0.14316 258236.480000
   2726   2727     1   0.14647 272713.120000
   2726   2730     1   0.14647 272713.120000
   2726   2733     1   0.14647 272713.120000
   2727   2739     1   0.15375 251793.120000
   2730   2742     1   0.15375 251793.120000
   2733   2736     1   0.15375 251793.120000
   2736   2745     1   0.15375 251793.120000
   2739   2751     1   0.15375 251793.120000
   2742   2748     1   0.15375 251793.120000
   2745   2754     1   0.14316 258236.480000
   2748   4498     1   0.14316 258236.480000
   2751   4511     1   0.14316 258236.480000
   2755   2756     1   0.14647 272713.120000
   2755   2759     1   0.14647 272713.120000
   2755   2762     1   0.14647 272713.120000
   2756   2768     1   0.15375 251793.120000
   2759   2771     1   0.15375 251793.120000
   2762   2765     1   0.15375 251793.120000
   2765   2774     1   0.15375 251793.120000
   2768   2780     1   0.15375 251793.120000
   2771   2777     1   0.15375 251793.120000
   2774   2783     1   0.14316 258236.480000
   2777   4524     1   0.14316 258236.480000
   2780   4537     1   0.14316 258236.480000
   2784   2785     1   0.14647 272713.120000
   2784   2788     1   0.14647 272713.120000
   2784   2791     1   0.14647 272713.120000
   2785   2797     1   0.15375 251793.120000
   2788   2800     1   0.15375 251793.120000
   2791   2794     1   0.15375 251793.120000
   2794   2803     1   0.15375 251793.120000
   2797   2809     1   0.15375 251793.120000
   2800   2806     1   0.15375 251793.120000
   2803   2812     1   0.14316 258236.480000
   2806   4550     1   0.14316 258236.480000
   2809   4563     1   0.14316 258236.480000
   2813   2814     1   0.14647 272713.120000
   2813   2817     1   0.14647 272713.120000
   2813   2820     1   0.14647 272713.120000
   2814   2826     1   0.15375 251793.120000
   2817   2829     1   0.15375 251793.120000
   2820   2823     1   0.15375 251793.120000
   2823   2832     1   0.15375 251793.120000
   2826   2838     1   0.15375 251793.120000
   2829   2835     1   0.15375 251793.120000
   2832   2841     1   0.14316 258236.480000
   2835   4576     1   0.14316 258236.480000
   2838   4589     1   0.14316 258236.480000
   2842   2843     1   0.14647 272713.120000
   2842   2846     1   0.14647 272713.120000
   2842   2849     1   0.14647 272713.120000
   2843   2855     1   0.15375 251793.120000
   2846   2858     1   0.15375 251793.120000
   2849   2852     1   0.15375 251793.120000
   2852   2861     1   0.15375 251793.120000
   2855   2867     1   0.15375 251793.120000
   2858   2864     1   0.15375 251793.120000
   2861   2870     1   0.14316 258236.480000
   2864   4602     1   0.14316 258236.480000
   2867   4615     1   0.14316 258236.480000
   2871   2872     1   0.14647 272713.120000
   2871   2875     1   0.14647 272713.120000
   2871   2878     1   0.14647 272713.120000
   2872   2884     1   0.15375 251793.120000
   2875   2887     1   0.15375 251793.120000
   2878   2881     1   0.15375 251793.120000
   2881   2890     1   0.15375 251793.120000
   2884   2896     1   0.15375 251793.120000
   2887   2893     1   0.15375 251793.120000
   2890   2899     1   0.14316 258236.480000
   2893   4628     1   0.14316 258236.480000
   2896   4641     1   0.14316 258236.480000
   2900   2901     1   0.14647 272713.120000
   2900   2904     1   0.14647 272713.120000
   2900   2907     1   0.14647 272713.120000
   2901   2913     1   0.15375 251793.120000
   2904   2916     1   0.15375 251793.120000
   2907   2910     1   0.15375 251793.120000
   2910   2919     1   0.15375 251793.120000
   2913   2925     1   0.15375 251793.120000
   2916   2922     1   0.15375 251793.120000
   2919   2928     1   0.14316 258236.480000
   2922   4654     1   0.14316 258236.480000
   2925   4667     1   0.14316 258236.480000
   2929   2930     1   0.14647 272713.120000
   2929   2933     1   0.14647 272713.120000
   2929   2936     1   0.14647 272713.120000
   2930   2942     1   0.15375 251793.120000
   2933   2945     1   0.15375 251793.120000
   2936   2939     1   0.15375 251793.120000
   2939   2948     1   0.15375 251793.120000
   2942   2954     1   0.15375 251793.120000
   2945   2951     1   0.15375 251793.120000
   2948   2957     1   0.14316 258236.480000
   2951   4680     1   0.14316 258236.480000
   2954   4693     1   0.14316 258236.480000
   2958   2959     1   0.14647 272713.120000
   2958   2962     1   0.14647 272713.120000
   2958   2965     1   0.14647 272713.120000
   2959   2971     1   0.15375 251793.120000
   2962   2974     1   0.15375 251793.120000
   2965   2968     1   0.15375 251793.120000
   2968   2977     1   0.15375 251793.120000
   2971   2983     1   0.15375 251793.120000
   2974   2980     1   0.15375 251793.120000
   2977   2986     1   0.14316 258236.480000
   2980   4706     1   0.14316 258236.480000
   2983   4719     1   0.14316 258236.480000
   2987   2988     1   0.14647 272713.120000
   2987   2991     1   0.14647 272713.120000
   2987   2994     1   0.14647 272713.120000
   2988   3000     1   0.15375 251793.120000
   2991   3003     1   0.15375 251793.120000
   2994   2997     1   0.15375 251793.120000
   2997   3006     1   0.15375 251793.120000
   3000   3012     1   0.15375 251793.120000
   3003   3009     1   0.15375 251793.120000
   3006   3015     1   0.14316 258236.480000
   3009   4732     1   0.14316 258236.480000
   3012   4745     1   0.14316 258236.480000
   3016   3017     1   0.14647 272713.120000
   3016   3020     1   0.14647 272713.120000
   3016   3023     1   0.14647 272713.120000
   3017   3029     1   0.15375 251793.120000
   3020   3032     1   0.15375 251793.120000
   3023   3026     1   0.15375 251793.120000
   3026   3035     1   0.15375 251793.120000
   3029   3041     1   0.15375 251793.120000
   3032   3038     1   0.15375 251793.120000
   3035   3044     1   0.14316 258236.480000
   3038   4758     1   0.14316 258236.480000
   3041   4771     1   0.14316 258236.480000
   3045   3046     1   0.14647 272713.120000
   3045   3049     1   0.14647 272713.120000
   3045   3052     1   0.14647 272713.120000
   3046   3058     1   0.15375 251793.120000
   3049   3061     1   0.15375 251793.120000
   3052   3055     1   0.15375 251793.120000
   3055   3064     1   0.15375 251793.120000
   3058   3070     1   0.15375 251793.120000
   3061   3067     1   0.15375 251793.120000
   3064   3073     1   0.14316 258236.480000
   3067   4784     1   0.14316 258236.480000
   3070   4797     1   0.14316 258236.480000
   3074   3075     1   0.14647 272713.120000
   3074   3078     1   0.14647 272713.120000
   3074   3081     1   0.14647 272713.120000
   3075   3087     1   0.15375 251793.120000
   3078   3090     1   0.15375 251793.120000
   3081   3084     1   0.15375 251793.120000
   3084   3093     1   0.15375 251793.120000
   3087   3099     1   0.15375 251793.120000
   3090   3096     1   0.15375 251793.120000
   3093   3102     1   0.14316 258236.480000
   3096   4810     1   0.14316 258236.480000
   3099   4823     1   0.14316 258236.480000
   3103   3104     1   0.14647 272713.120000
   3103   3107     1   0.14647 272713.120000
   3103   3110     1   0.14647 272713.120000
   3104   3116     1   0.15375 251793.120000
   3107   3119     1   0.15375 251793.120000
   3110   3113     1   0.15375 251793.120000
   3113   3122     1   0.15375 251793.120000
   3116   3128     1   0.15375 251793.120000
   3119   3125     1   0.15375 251793.120000
   3122   3131     1   0.14316 258236.480000
   3125   4836     1   0.14316 258236.480000
   3128   4849     1   0.14316 258236.480000
   3132   3133     1   0.14647 272713.120000
   3132   3136     1   0.14647 272713.120000
   3132   3139     1   0.14647 272713.120000
   3133   3145     1   0.15375 251793.120000
   3136   3148     1   0.15375 251793.120000
   3139   3142     1   0.15375 251793.120000
   3142   3151     1   0.15375 251793.120000
   3145   3157     1   0.15375 251793.120000
   3148   3154     1   0.15375 251793.120000
   3151   3160     1   0.14316 258236.480000
   3154   4862     1   0.14316 258236.480000
   3157   4875     1   0.14316 258236.480000
   3161   3162     1   0.14647 272713.120000
   3161   3165     1   0.14647 272713.120000
   3161   3168     1   0.14647 272713.120000
   3162   3174     1   0.15375 251793.120000
   3165   3177     1   0.15375 251793.120000
   3168   3171     1   0.15375 251793.120000
   3171   3180     1   0.15375 251793.120000
   3174   3186     1   0.15375 251793.120000
   3177   3183     1   0.15375 251793.120000
   3180   3189     1   0.14316 258236.480000
   3183   4888     1   0.14316 258236.480000
   3186   4901     1   0.14316 258236.480000
   3190   3191     1   0.14647 272713.120000
   3190   3194     1   0.14647 272713.120000
   3190   3197     1   0.14647 272713.120000
   3191   3203     1   0.15375 251793.120000
   3194   3206     1   0.15375 251793.120000
   3197   3200     1   0.15375 251793.120000
   3200   3209     1   0.15375 251793.120000
   3203   3215     1   0.15375 251793.120000
   3206   3212     1   0.15375 251793.120000
   3209   3218     1   0.14316 258236.480000
   3212   4914     1   0.14316 258236.480000
   3215   4927     1   0.14316 258236.480000
   3219   3220     1   0.14647 272713.120000
   3219   3223     1   0.14647 272713.120000
   3219   3226     1   0.14647 272713.120000
   3220   3232     1   0.15375 251793.120000
   3223   3235     1   0.15375 251793.120000
   3226   3229     1   0.15375 251793.120000
   3229   3238     1   0.15375 251793.120000
   3232   3244     1   0.15375 251793.120000
   3235   3241     1   0.15375 251793.120000
   3238   3247     1   0.14316 258236.480000
   3241   4940     1   0.14316 258236.480000
   3244   4953     1   0.14316 258236.480000
   3248   3249     1   0.14647 272713.120000
   3248   3252     1   0.14647 272713.120000
   3248   3255     1   0.14647 272713.120000
   3249   3261     1   0.15375 251793.120000
   3252   3264     1   0.15375 251793.120000
   3255   3258     1   0.15375 251793.120000
   3258   3267     1   0.15375 251793.120000
   3261   3273     1   0.15375 251793.120000
   3264   3270     1   0.15375 251793.120000
   3267   3276     1   0.14316 258236.480000
   3270   4966     1   0.14316 258236.480000
   3273   4979     1   0.14316 258236.480000
   3277   3278     1   0.14647 272713.120000
   3277   3281     1   0.14647 272713.120000
   3277   3284     1   0.14647 272713.120000
   3278   3290     1   0.15375 251793.120000
   3281   3293     1   0.15375 251793.120000
   3284   3287     1   0.15375 251793.120000
   3287   3296     1   0.15375 251793.120000
   3290   3302     1   0.15375 251793.120000
   3293   3299     1   0.15375 251793.120000
   3296   3305     1   0.14316 258236.480000
   3299   4992     1   0.14316 258236.480000
   3302   5005     1   0.14316 258236.480000
   3306   3307     1   0.14647 272713.120000
   3306   3310     1   0.14647 272713.120000
   3306   3313     1   0.14647 272713.120000
   3307   3319     1   0.15375 251793.120000
   3310   3322     1   0.15375 251793.120000
   3313   3316     1   0.15375 251793.120000
   3316   3325     1   0.15375 251793.120000
   3319   3331     1   0.15375 251793.120000
   3322   3328     1   0.15375 251793.120000
   3325   3334     1   0.14316 258236.480000
   3328   5018     1   0.14316 258236.480000
   3331   5031     1   0.14316 258236.480000
   3335   3336     1   0.14647 272713.120000
   3335   3339     1   0.14647 272713.120000
   3335   3342     1   0.14647 272713.120000
   3336   3348     1   0.15375 251793.120000
   3339   3351     1   0.15375 251793.120000
   3342   3345     1   0.15375 251793.120000
   3345   3354     1   0.15375 251793.120000
   3348   3360     1   0.15375 251793.120000
   3351   3357     1   0.15375 251793.120000
   3354   3363     1   0.14316 258236.480000
   3357   5044     1   0.14316 258236.480000
   3360   5057     1   0.14316 258236.480000
   3364   3365     1   0.14647 272713.120000
   3364   3368     1   0.14647 272713.120000
   3364   3371     1   0.14647 272713.120000
   3365   3377     1   0.15375 251793.120000
   3368   3380     1   0.15375 251793.120000
   3371   3374     1   0.15375 251793.120000
   3374   3383     1   0.15375 251793.120000
   3377   3389     1   0.15375 251793.120000
   3380   3386     1   0.15375 251793.120000
   3383   3392     1   0.14316 258236.480000
   3386   5070     1   0.14316 258236.480000
   3389   5083     1   0.14316 258236.480000
   3393   3394     1   0.14647 272713.120000
   3393   3397     1   0.14647 272713.120000
   3393   3400     1   0.14647 272713.120000
   3394   3406     1   0.15375 251793.120000
   3397   3409     1   0.15375 251793.120000
   3400   3403     1   0.15375 251793.120000
   3403   3412     1   0.15375 251793.120000
   3406   3418     1   0.15375 251793.120000
   3409   3415     1   0.15375 251793.120000
   3412   3421     1   0.14316 258236.480000
   3415   5096     1   0.14316 258236.480000
   3418   5109     1   0.14316 258236.480000
   3422   3423     1   0.14647 272713.120000
   3422   3426     1   0.14647 272713.120000
   3422   3429     1   0.14647 272713.120000
   3423   3435     1   0.15375 251793.120000
   3426   3438     1   0.15375 251793.120000
   3429   3432     1   0.15375 251793.120000
   3432   3441     1   0.15375 251793.120000
   3435   3447     1   0.15375 251793.120000
   3438   3444     1   0.15375 251793.120000
   3441   3450     1   0.14316 258236.480000
   3444   5122     1   0.14316 258236.480000
   3447   5135     1   0.14316 258236.480000
   3451   3452     1   0.14647 272713.120000
   3451   3455     1   0.14647 272713.120000
   3451   3458     1   0.14647 272713.120000
   3452   3464     1   0.15375 251793.120000
   3455   3467     1   0.15375 251793.120000
   3458   3461     1   0.15375 251793.120000
   3461   3470     1   0.15375 251793.120000
   3464   3476     1   0.15375 251793.120000
   3467   3473     1   0.15375 251793.120000
   3470   3479     1   0.14316 258236.480000
   3473   5148     1   0.14316 258236.480000
   3476   5161     1   0.14316 258236.480000
   3480   3481     1   0.14647 272713.120000
   3480   3484     1   0.14647 272713.120000
   3480   3487     1   0.14647 272713.120000
   3481   3493     1   0.15375 251793.120000
   3484   3496     1   0.15375 251793.120000
   3487   3490     1   0.15375 251793.120000
   3490   3499     1   0.15375 251793.120000
   3493   3505     1   0.15375 251793.120000
   3496   3502     1   0.15375 251793.120000
   3499   3508     1   0.14316 258236.480000
   3502   5174     1   0.14316 258236.480000
   3505   5187     1   0.14316 258236.480000
   3509   3510     1   0.14647 272713.120000
   3509   3513     1   0.14647 272713.120000
   3509   3516     1   0.14647 272713.120000
   3510   3522     1   0.15375 251793.120000
   3513   3525     1   0.15375 251793.120000
   3516   3519     1   0.15375 251793.120000
   3519   3528     1   0.15375 251793.120000
   3522   3534     1   0.15375 251793.120000
   3525   3531     1   0.15375 251793.120000
   3528   3537     1   0.14316 258236.480000
   3531   5200     1   0.14316 258236.480000
   3534   5213     1   0.14316 258236.480000
   3538   3539     1   0.14647 272713.120000
   3538   3542     1   0.14647 272713.120000
   3538   3545     1   0.14647 272713.120000
   3539   3551     1   0.15375 251793.120000
   3542   3554     1   0.15375 251793.120000
   3545   3548     1   0.15375 251793.120000
   3548   3557     1   0.15375 251793.120000
   3551   3563     1   0.15375 251793.120000
   3554   3560     1   0.15375 251793.120000
   3557   3566     1   0.14316 258236.480000
   3560   5226     1   0.14316 258236.480000
   3563   5239     1   0.14316 258236.480000
   3567   3568     1   0.14647 272713.120000
   3567   3571     1   0.14647 272713.120000
   3567   3574     1   0.14647 272713.120000
   3568   3580     1   0.15375 251793.120000
   3571   3583     1   0.15375 251793.120000
   3574   3577     1   0.15375 251793.120000
   3577   3586     1   0.15375 251793.120000
   3580   3592     1   0.15375 251793.120000
   3583   3589     1   0.15375 251793.120000
   3586   3595     1   0.14316 258236.480000
   3589   5252     1   0.14316 258236.480000
   3592   5265     1   0.14316 258236.480000
   3596   3597     1   0.14647 272713.120000
   3596   3600     1   0.14647 272713.120000
   3596   3603     1   0.14647 272713.120000
   3597   3609     1   0.15375 251793.120000
   3600   3612     1   0.15375 251793.120000
   3603   3606     1   0.15375 251793.120000
   3606   3615     1   0.15375 251793.120000
   3609   3621     1   0.15375 251793.120000
   3612   3618     1   0.15375 251793.120000
   3615   3624     1   0.14316 258236.480000
   3618   5278     1   0.14316 258236.480000
   3621   5291     1   0.14316 258236.480000
   3625   3626     1   0.14647 272713.120000
   3625   3629     1   0.14647 272713.120000
   3625   3632     1   0.14647 272713.120000
   3626   3638     1   0.15375 251793.120000
   3629   3641     1   0.15375 251793.120000
   3632   3635     1   0.15375 251793.120000
   3635   3644     1   0.15375 251793.120000
   3638   3650     1   0.15375 251793.120000
   3641   3647     1   0.15375 251793.120000
   3644   3653     1   0.14316 258236.480000
   3647   5304     1   0.14316 258236.480000
   3650   5317     1   0.14316 258236.480000
   3654   3657     1   0.15375 251793.120000
   3654   3663     1   0.14647 272713.120000
   3657   3660     1   0.15375 251793.120000
   3660   3666     1   0.14316 258236.480000
   3667   3670     1   0.15375 251793.120000
   3667   3676     1   0.14647 272713.120000
   3670   3673     1   0.15375 251793.120000
   3673   3679     1   0.14316 258236.480000
   3680   3683     1   0.15375 251793.120000
   3680   3689     1   0.14647 272713.120000
   3683   3686     1   0.15375 251793.120000
   3686   3692     1   0.14316 258236.480000
   3693   3696     1   0.15375 251793.120000
   3693   3702     1   0.14647 272713.120000
   3696   3699     1   0.15375 251793.120000
   3699   3705     1   0.14316 258236.480000
   3706   3709     1   0.15375 251793.120000
   3706   3715     1   0.14647 272713.120000
   3709   3712     1   0.15375 251793.120000
   3712   3718     1   0.14316 258236.480000
   3719   3722     1   0.15375 251793.120000
   3719   3728     1   0.14647 272713.120000
   3722   3725     1   0.15375 251793.120000
   3725   3731     1   0.14316 258236.480000
   3732   3735     1   0.15375 251793.120000
   3732   3741     1   0.14647 272713.120000
   3735   3738     1   0.15375 251793.120000
   3738   3744     1   0.14316 258236.480000
   3745   3748     1   0.15375 251793.120000
   3745   3754     1   0.14647 272713.120000
   3748   3751     1   0.15375 251793.120000
   3751   3757     1   0.14316 258236.480000
   3758   3761     1   0.15375 251793.120000
   3758   3767     1   0.14647 272713.120000
   3761   3764     1   0.15375 251793.120000
   3764   3770     1   0.14316 258236.480000
   3771   3774     1   0.15375 251793.120000
   3771   3780     1   0.14647 272713.120000
   3774   3777     1   0.15375 251793.120000
   3777   3783     1   0.14316 258236.480000
   3784   3787     1   0.15375 251793.120000
   3784   3793     1   0.14647 272713.120000
   3787   3790     1   0.15375 251793.120000
   3790   3796     1   0.14316 258236.480000
   3797   3800     1   0.15375 251793.120000
   3797   3806     1   0.14647 272713.120000
   3800   3803     1   0.15375 251793.120000
   3803   3809     1   0.14316 258236.480000
   3810   3813     1   0.15375 251793.120000
   3810   3819     1   0.14647 272713.120000
   3813   3816     1   0.15375 251793.120000
   3816   3822     1   0.14316 258236.480000
   3823   3826     1   0.15375 251793.120000
   3823   3832     1   0.14647 272713.120000
   3826   3829     1   0.15375 251793.120000
   3829   3835     1   0.14316 258236.480000
   3836   3839     1   0.15375 251793.120000
   3836   3845     1   0.14647 272713.120000
   3839   3842     1   0.15375 251793.120000
   3842   3848     1   0.14316 258236.480000
   3849   3852     1   0.15375 251793.120000
   3849   3858     1   0.14647 272713.120000
   3852   3855     1   0.15375 251793.120000
   3855   3861     1   0.14316 258236.480000
   3862   3865     1   0.15375 251793.120000
   3862   3871     1   0.14647 272713.120000
   3865   3868     1   0.15375 251793.120000
   3868   3874     1   0.14316 258236.480000
   3875   3878     1   0.15375 251793.120000
   3875   3884     1   0.14647 272713.120000
   3878   3881     1   0.15375 251793.120000
   3881   3887     1   0.14316 258236.480000
   3888   3891     1   0.15375 251793.120000
   3888   3897     1   0.14647 272713.120000
   3891   3894     1   0.15375 251793.120000
   3894   3900     1   0.14316 258236.480000
   3901   3904     1   0.15375 251793.120000
   3901   3910     1   0.14647 272713.120000
   3904   3907     1   0.15375 251793.120000
   3907   3913     1   0.14316 258236.480000
   3914   3917     1   0.15375 251793.120000
   3914   3923     1   0.14647 272713.120000
   3917   3920     1   0.15375 251793.120000
   3920   3926     1   0.14316 258236.480000
   3927   3930     1   0.15375 251793.120000
   3927   3936     1   0.14647 272713.120000
   3930   3933     1   0.15375 251793.120000
   3933   3939     1   0.14316 258236.480000
   3940   3943     1   0.15375 251793.120000
   3940   3949     1   0.14647 272713.120000
   3943   3946     1   0.15375 251793.120000
   3946   3952     1   0.14316 258236.480000
   3953   3956     1   0.15375 251793.120000
   3953   3962     1   0.14647 272713.120000
   3956   3959     1   0.15375 251793.120000
   3959   3965     1   0.14316 258236.480000
   3966   3969     1   0.15375 251793.120000
   3966   3975     1   0.14647 272713.120000
   3969   3972     1   0.15375 251793.120000
   3972   3978     1   0.14316 258236.480000
   3979   3982     1   0.15375 251793.120000
   3979   3988     1   0.14647 272713.120000
   3982   3985     1   0.15375 251793.120000
   3985   3991     1   0.14316 258236.480000
   3992   3995     1   0.15375 251793.120000
   3992   4001     1   0.14647 272713.120000
   3995   3998     1   0.15375 251793.120000
   3998   4004     1   0.14316 258236.480000
   4005   4008     1   0.15375 251793.120000
   4005   4014     1   0.14647 272713.120000
   4008   4011     1   0.15375 251793.120000
   4011   4017     1   0.14316 258236.480000
   4018   4021     1   0.15375 251793.120000
   4018   4027     1   0.14647 272713.120000
   4021   4024     1   0.15375 251793.120000
   4024   4030     1   0.14316 258236.480000
   4031   4034     1   0.15375 251793.120000
   4031   4040     1   0.14647 272713.120000
   4034   4037     1   0.15375 251793.120000
   4037   4043     1   0.14316 258236.480000
   4044   4047     1   0.15375 251793.120000
   4044   4053     1   0.14647 272713.120000
   4047   4050     1   0.15375 251793.120000
   4050   4056     1   0.14316 258236.480000
   4057   4060     1   0.15375 251793.120000
   4057   4066     1   0.14647 272713.120000
   4060   4063     1   0.15375 251793.120000
   4063   4069     1   0.14316 258236.480000
   4070   4073     1   0.15375 251793.120000
   4070   4079     1   0.14647 272713.120000
   4073   4076     1   0.15375 251793.120000
   4076   4082     1   0.14316 258236.480000
   4083   4086     1   0.15375 251793.120000
   4083   4092     1   0.14647 272713.120000
   4086   4089     1   0.15375 251793.120000
   4089   4095     1   0.14316 258236.480000
   4096   4099     1   0.15375 251793.120000
   4096   4105     1   0.14647 272713.120000
   4099   4102     1   0.15375 251793.120000
   4102   4108     1   0.14316 258236.480000
   4109   4112     1   0.15375 251793.120000
   4109   4118     1   0.14647 272713.120000
   4112   4115     1   0.15375 251793.120000
   4115   4121     1   0.14316 258236.480000
   4122   4125     1   0.15375 251793.120000
   4122   4131     1   0.14647 272713.120000
   4125   4128     1   0.15375 251793.120000
   4128   4134     1   0.14316 258236.480000
   4135   4138     1   0.15375 251793.120000
   4135   4144     1   0.14647 272713.120000
   4138   4141     1   0.15375 251793.120000
   4141   4147     1   0.14316 258236.480000
   4148   4151     1   0.15375 251793.120000
   4148   4157     1   0.14647 272713.120000
   4151   4154     1   0.15375 251793.120000
   4154   4160     1   0.14316 258236.480000
   4161   4164     1   0.15375 251793.120000
   4161   4170     1   0.14647 272713.120000
   4164   4167     1   0.15375 251793.120000
   4167   4173     1   0.14316 258236.480000
   4174   4177     1   0.15375 251793.120000
   4174   4183     1   0.14647 272713.120000
   4177   4180     1   0.15375 251793.120000
   4180   4186     1   0.14316 258236.480000
   4187   4190     1   0.15375 251793.120000
   4187   4196     1   0.14647 272713.120000
   4190   4193     1   0.15375 251793.120000
   4193   4199     1   0.14316 258236.480000
   4200   4203     1   0.15375 251793.120000
   4200   4209     1   0.14647 272713.120000
   4203   4206     1   0.15375 251793.120000
   4206   4212     1   0.14316 258236.480000
   4213   4216     1   0.15375 251793.120000
   4213   4222     1   0.14647 272713.120000
   4216   4219     1   0.15375 251793.120000
   4219   4225     1   0.14316 258236.480000
   4226   4229     1   0.15375 251793.120000
   4226   4235     1   0.14647 272713.120000
   4229   4232     1   0.15375 251793.120000
   4232   4238     1   0.14316 258236.480000
   4239   4242     1   0.15375 251793.120000
   4239   4248     1   0.14647 272713.120000
   4242   4245     1   0.15375 251793.120000
   4245   4251     1   0.14316 258236.480000
   4252   4255     1   0.15375 251793.120000
   4252   4261     1   0.14647 272713.120000
   4255   4258     1   0.15375 251793.120000
   4258   4264     1   0.14316 258236.480000
   4265   4268     1   0.15375 251793.120000
   4265   4274     1   0.14647 272713.120000
   4268   4271     1   0.15375 251793.120000
   4271   4277     1   0.14316 258236.480000
   4278   4281     1   0.15375 251793.120000
   4278   4287     1   0.14647 272713.120000
   4281   4284     1   0.15375 251793.120000
   4284   4290     1   0.14316 258236.480000
   4291   4294     1   0.15375 251793.120000
   4291   4300     1   0.14647 272713.120000
   4294   4297     1   0.15375 251793.120000
   4297   4303     1   0.14316 258236.480000
   4304   4307     1   0.15375 251793.120000
   4304   4313     1   0.14647 272713.120000
   4307   4310     1   0.15375 251793.120000
   4310   4316     1   0.14316 258236.480000
   4317   4320     1   0.15375 251793.120000
   4317   4326     1   0.14647 272713.120000
   4320   4323     1   0.15375 251793.120000
   4323   4329     1   0.14316 258236.480000
   4330   4333     1   0.15375 251793.120000
   4330   4339     1   0.14647 272713.120000
   4333   4336     1   0.15375 251793.120000
   4336   4342     1   0.14316 258236.480000
   4343   4346     1   0.15375 251793.120000
   4343   4352     1   0.14647 272713.120000
   4346   4349     1   0.15375 251793.120000
   4349   4355     1   0.14316 258236.480000
   4356   4359     1   0.15375 251793.120000
   4356   4365     1   0.14647 272713.120000
   4359   4362     1   0.15375 251793.120000
   4362   4368     1   0.14316 258236.480000
   4369   4372     1   0.15375 251793.120000
   4369   4378     1   0.14647 272713.120000
   4372   4375     1   0.15375 251793.120000
   4375   4381     1   0.14316 258236.480000
   4382   4385     1   0.15375 251793.120000
   4382   4391     1   0.14647 272713.120000
   4385   4388     1   0.15375 251793.120000
   4388   4394     1   0.14316 258236.480000
   4395   4398     1   0.15375 251793.120000
   4395   4404     1   0.14647 272713.120000
   4398   4401     1   0.15375 251793.120000
   4401   4407     1   0.14316 258236.480000
   4408   4411     1   0.15375 251793.120000
   4408   4417     1   0.14647 272713.120000
   4411   4414     1   0.15375 251793.120000
   4414   4420     1   0.14316 258236.480000
   4421   4424     1   0.15375 251793.120000
   4421   4430     1   0.14647 272713.120000
   4424   4427     1   0.15375 251793.120000
   4427   4433     1   0.14316 258236.480000
   4434   4437     1   0.15375 251793.120000
   4434   4443     1   0.14647 272713.120000
   4437   4440     1   0.15375 251793.120000
   4440   4446     1   0.14316 258236.480000
   4447   4450     1   0.15375 251793.120000
   4447   4456     1   0.14647 272713.120000
   4450   4453     1   0.15375 251793.120000
   4453   4459     1   0.14316 258236.480000
   4460   4463     1   0.15375 251793.120000
   4460   4469     1   0.14647 272713.120000
   4463   4466     1   0.15375 251793.120000
   4466   4472     1   0.14316 258236.480000
   4473   4476     1   0.15375 251793.120000
   4473   4482     1   0.14647 272713.120000
   4476   4479     1   0.15375 251793.120000
   4479   4485     1   0.14316 258236.480000
   4486   4489     1   0.15375 251793.120000
   4486   4495     1   0.14647 272713.120000
   4489   4492     1   0.15375 251793.120000
   4492   4498     1   0.14316 258236.480000
   4499   4502     1   0.15375 251793.120000
   4499   4508     1   0.14647 272713.120000
   4502   4505     1   0.15375 251793.120000
   4505   4511     1   0.14316 258236.480000
   4512   4515     1   0.15375 251793.120000
   4512   4521     1   0.14647 272713.120000
   4515   4518     1   0.15375 251793.120000
   4518   4524     1   0.14316 258236.480000
   4525   4528     1   0.15375 251793.120000
   4525   4534     1   0.14647 272713.120000
   4528   4531     1   0.15375 251793.120000
   4531   4537     1   0.14316 258236.480000
   4538   4541     1   0.15375 251793.120000
   4538   4547     1   0.14647 272713.120000
   4541   4544     1   0.15375 251793.120000
   4544   4550     1   0.14316 258236.480000
   4551   4554     1   0.15375 251793.120000
   4551   4560     1   0.14647 272713.120000
   4554   4557     1   0.15375 251793.120000
   4557   4563     1   0.14316 258236.480000
   4564   4567     1   0.15375 251793.120000
   4564   4573     1   0.14647 272713.120000
   4567   4570     1   0.15375 251793.120000
   4570   4576     1   0.14316 258236.480000
   4577   4580     1   0.15375 251793.120000
   4577   4586     1   0.14647 272713.120000
   4580   4583     1   0.15375 251793.120000
   4583   4589     1   0.14316 258236.480000
   4590   4593     1   0.15375 251793.120000
   4590   4599     1   0.14647 272713.120000
   4593   4596     1   0.15375 251793.120000
   4596   4602     1   0.14316 258236.480000
   4603   4606     1   0.15375 251793.120000
   4603   4612     1   0.14647 272713.120000
   4606   4609     1   0.15375 251793.120000
   4609   4615     1   0.14316 258236.480000
   4616   4619     1   0.15375 251793.120000
   4616   4625     1   0.14647 272713.120000
   4619   4622     1   0.15375 251793.120000
   4622   4628     1   0.14316 258236.480000
   4629   4632     1   0.15375 251793.120000
   4629   4638     1   0.14647 272713.120000
   4632   4635     1   0.15375 251793.120000
   4635   4641     1   0.14316 258236.480000
   4642   4645     1   0.15375 251793.120000
   4642   4651     1   0.14647 272713.120000
   4645   4648     1   0.15375 251793.120000
   4648   4654     1   0.14316 258236.480000
   4655   4658     1   0.15375 251793.120000
   4655   4664     1   0.14647 272713.120000
   4658   4661     1   0.15375 251793.120000
   4661   4667     1   0.14316 258236.480000
   4668   4671     1   0.15375 251793.120000
   4668   4677     1   0.14647 272713.120000
   4671   4674     1   0.15375 251793.120000
   4674   4680     1   0.14316 258236.480000
   4681   4684     1   0.15375 251793.120000
   4681   4690     1   0.14647 272713.120000
   4684   4687     1   0.15375 251793.120000
   4687   4693     1   0.14316 258236.480000
   4694   4697     1   0.15375 251793.120000
   4694   4703     1   0.14647 272713.120000
   4697   4700     1   0.15375 251793.120000
   4700   4706     1   0.14316 258236.480000
   4707   4710     1   0.15375 251793.120000
   4707   4716     1   0.14647 272713.120000
   4710   4713     1   0.15375 251793.120000
   4713   4719     1   0.14316 258236.480000
   4720   4723     1   0.15375 251793.120000
   4720   4729     1   0.14647 272713.120000
   4723   4726     1   0.15375 251793.120000
   4726   4732     1   0.14316 258236.480000
   4733   4736     1   0.15375 251793.120000
   4733   4742     1   0.14647 272713.120000
   4736   4739     1   0.15375 251793.120000
   4739   4745     1   0.14316 258236.480000
   4746   4749     1   0.15375 251793.120000
   4746   4755     1   0.14647 272713.120000
   4749   4752     1   0.15375 251793.120000
   4752   4758     1   0.14316 258236.480000
   4759   4762     1   0.15375 251793.120000
   4759   4768     1   0.14647 272713.120000
   4762   4765     1   0.15375 251793.120000
   4765   4771     1   0.14316 258236.480000
   4772   4775     1   0.15375 251793.120000
   4772   4781     1   0.14647 272713.120000
   4775   4778     1   0.15375 251793.120000
   4778   4784     1   0.14316 258236.480000
   4785   4788     1   0.15375 251793.120000
   4785   4794     1   0.14647 272713.120000
   4788   4791     1   0.15375 251793.120000
   4791   4797     1   0.14316 258236.480000
   4798   4801     1   0.15375 251793.120000
   4798   4807     1   0.14647 272713.120000
   4801   4804     1   0.15375 251793.120000
   4804   4810     1   0.14316 258236.480000
   4811   4814     1   0.15375 251793.120000
   4811   4820     1   0.14647 272713.120000
   4814   4817     1   0.15375 251793.120000
   4817   4823     1   0.14316 258236.480000
   4824   4827     1   0.15375 251793.120000
   4824   4833     1   0.14647 272713.120000
   4827   4830     1   0.15375 251793.120000
   4830   4836     1   0.14316 258236.480000
   4837   4840     1   0.15375 251793.120000
   4837   4846     1   0.14647 272713.120000
   4840   4843     1   0.15375 251793.120000
   4843   4849     1   0.14316 258236.480000
   4850   4853     1   0.15375 251793.120000
   4850   4859     1   0.14647 272713.120000
   4853   4856     1   0.15375 251793.120000
   4856   4862     1   0.14316 258236.480000
   4863   4866     1   0.15375 251793.120000
   4863   4872     1   0.14647 272713.120000
   4866   4869     1   0.15375 251793.120000
   4869   4875     1   0.14316 258236.480000
   4876   4879     1   0.15375 251793.120000
   4876   4885     1   0.14647 272713.120000
   4879   4882     1   0.15375 251793.120000
   4882   4888     1   0.14316 258236.480000
   4889   4892     1   0.15375 251793.120000
   4889   4898     1   0.14647 272713.120000
   4892   4895     1   0.15375 251793.120000
   4895   4901     1   0.14316 258236.480000
   4902   4905     1   0.15375 251793.120000
   4902   4911     1   0.14647 272713.120000
   4905   4908     1   0.15375 251793.120000
   4908   4914     1   0.14316 258236.480000
   4915   4918     1   0.15375 251793.120000
   4915   4924     1   0.14647 272713.120000
   4918   4921     1   0.15375 251793.120000
   4921   4927     1   0.14316 258236.480000
   4928   4931     1   0.15375 251793.120000
   4928   4937     1   0.14647 272713.120000
   4931   4934     1   0.15375 251793.120000
   4934   4940     1   0.14316 258236.480000
   4941   4944     1   0.15375 251793.120000
   4941   4950     1   0.14647 272713.120000
   4944   4947     1   0.15375 251793.120000
   4947   4953     1   0.14316 258236.480000
   4954   4957     1   0.15375 251793.120000
   4954   4963     1   0.14647 272713.120000
   4957   4960     1   0.15375 251793.120000
   4960   4966     1   0.14316 258236.480000
   4967   4970     1   0.15375 251793.120000
   4967   4976     1   0.14647 272713.120000
   4970   4973     1   0.15375 251793.120000
   4973   4979     1   0.14316 258236.480000
   4980   4983     1   0.15375 251793.120000
   4980   4989     1   0.14647 272713.120000
   4983   4986     1   0.15375 251793.120000
   4986   4992     1   0.14316 258236.480000
   4993   4996     1   0.15375 251793.120000
   4993   5002     1   0.14647 272713.120000
   4996   4999     1   0.15375 251793.120000
   4999   5005     1   0.14316 258236.480000
   5006   5009     1   0.15375 251793.120000
   5006   5015     1   0.14647 272713.120000
   5009   5012     1   0.15375 251793.120000
   5012   5018     1   0.14316 258236.480000
   5019   5022     1   0.15375 251793.120000
   5019   5028     1   0.14647 272713.120000
   5022   5025     1   0.15375 251793.120000
   5025   5031     1   0.14316 258236.480000
   5032   5035     1   0.15375 251793.120000
   5032   5041     1   0.14647 272713.120000
   5035   5038     1   0.15375 251793.120000
   5038   5044     1   0.14316 258236.480000
   5045   5048     1   0.15375 251793.120000
   5045   5054     1   0.14647 272713.120000
   5048   5051     1   0.15375 251793.120000
   5051   5057     1   0.14316 258236.480000
   5058   5061     1   0.15375 251793.120000
   5058   5067     1   0.14647 272713.120000
   5061   5064     1   0.15375 251793.120000
   5064   5070     1   0.14316 258236.480000
   5071   5074     1   0.15375 251793.120000
   5071   5080     1   0.14647 272713.120000
   5074   5077     1   0.15375 251793.120000
   5077   5083     1   0.14316 258236.480000
   5084   5087     1   0.15375 251793.120000
   5084   5093     1   0.14647 272713.120000
   5087   5090     1   0.15375 251793.120000
   5090   5096     1   0.14316 258236.480000
   5097   5100     1   0.15375 251793.120000
   5097   5106     1   0.14647 272713.120000
   5100   5103     1   0.15375 251793.120000
   5103   5109     1   0.14316 258236.480000
   5110   5113     1   0.15375 251793.120000
   5110   5119     1   0.14647 272713.120000
   5113   5116     1   0.15375 251793.120000
   5116   5122     1   0.14316 258236.480000
   5123   5126     1   0.15375 251793.120000
   5123   5132     1   0.14647 272713.120000
   5126   5129     1   0.15375 251793.120000
   5129   5135     1   0.14316 258236.480000
   5136   5139     1   0.15375 251793.120000
   5136   5145     1   0.14647 272713.120000
   5139   5142     1   0.15375 251793.120000
   5142   5148     1   0.14316 258236.480000
   5149   5152     1   0.15375 251793.120000
   5149   5158     1   0.14647 272713.120000
   5152   5155     1   0.15375 251793.120000
   5155   5161     1   0.14316 258236.480000
   5162   5165     1   0.15375 251793.120000
   5162   5171     1   0.14647 272713.120000
   5165   5168     1   0.15375 251793.120000
   5168   5174     1   0.14316 258236.480000
   5175   5178     1   0.15375 251793.120000
   5175   5184     1   0.14647 272713.120000
   5178   5181     1   0.15375 251793.120000
   5181   5187     1   0.14316 258236.480000
   5188   5191     1   0.15375 251793.120000
   5188   5197     1   0.14647 272713.120000
   5191   5194     1   0.15375 251793.120000
   5194   5200     1   0.14316 258236.480000
   5201   5204     1   0.15375 251793.120000
   5201   5210     1   0.14647 272713.120000
   5204   5207     1   0.15375 251793.120000
   5207   5213     1   0.14316 258236.480000
   5214   5217     1   0.15375 251793.120000
   5214   5223     1   0.14647 272713.120000
   5217   5220     1   0.15375 251793.120000
   5220   5226     1   0.14316 258236.480000
   5227   5230     1   0.15375 251793.120000
   5227   5236     1   0.14647 272713.120000
   5230   5233     1   0.15375 251793.120000
   5233   5239     1   0.14316 258236.480000
   5240   5243     1   0.15375 251793.120000
   5240   5249     1   0.14647 272713.120000
   5243   5246     1   0.15375 251793.120000
   5246   5252     1   0.14316 258236.480000
   5253   5256     1   0.15375 251793.120000
   5253   5262     1   0.14647 272713.120000
   5256   5259     1   0.15375 251793.120000
   5259   5265     1   0.14316 258236.480000
   5266   5269     1   0.15375 251793.120000
   5266   5275     1   0.14647 272713.120000
   5269   5272     1   0.15375 251793.120000
   5272   5278     1   0.14316 258236.480000
   5279   5282     1   0.15375 251793.120000
   5279   5288     1   0.14647 272713.120000
   5282   5285     1   0.15375 251793.120000
   5285   5291     1   0.14316 258236.480000
   5292   5295     1   0.15375 251793.120000
   5292   5301     1   0.14647 272713.120000
   5295   5298     1   0.15375 251793.120000
   5298   5304     1   0.14316 258236.480000
   5305   5308     1   0.15375 251793.120000
   5305   5314     1   0.14647 272713.120000
   5308   5311     1   0.15375 251793.120000
   5311   5317     1   0.14316 258236.480000
      2      3     1   0.10969 276646.080000
      2      4     1   0.10969 276646.080000
      5      6     1   0.10969 276646.080000
      5      7     1   0.10969 276646.080000
      8      9     1   0.10969 276646.080000
      8     10     1   0.10969 276646.080000
     11     12     1   0.10969 276646.080000
     11     13     1   0.10969 276646.080000
     14     15     1   0.10969 276646.080000
     14     16     1   0.10969 276646.080000
     17     18     1   0.10969 276646.080000
     17     19     1   0.10969 276646.080000
     22     23     1   0.10969 276646.080000
     22     24     1   0.10969 276646.080000
     25     26     1   0.10969 276646.080000
     25     27     1   0.10969 276646.080000
     28     29     1   0.10969 276646.080000
     28     30     1   0.10969 276646.080000
     31     32     1   0.10969 276646.080000
     31     33     1   0.10969 276646.080000
     34     35     1   0.10969 276646.080000
     34     36     1   0.10969 276646.080000
     37     38     1   0.10969 276646.080000
     37     39     1   0.10969 276646.080000
     40     41     1   0.10969 276646.080000
     40     42     1   0.10969 276646.080000
     43     44     1   0.10969 276646.080000
     43     45     1   0.10969 276646.080000
     46     47     1   0.10969 276646.080000
     46     48     1   0.10969 276646.080000
     49     50     1   0.10969 276646.080000
     49     51     1   0.10969 276646.080000
     52     53     1   0.10969 276646.080000
     52     54     1   0.10969 276646.080000
     55     56     1   0.10969 276646.080000
     55     57     1   0.10969 276646.080000
     59     60     1   0.10969 276646.080000
     59     61     1   0.10969 276646.080000
     62     63     1   0.10969 276646.080000
     62     64     1   0.10969 276646.080000
     65     66     1   0.10969 276646.080000
     65     67     1   0.10969 276646.080000
     68     69     1   0.10969 276646.080000
     68     70     1   0.10969 276646.080000
     71     72     1   0.10969 276646.080000
     71     73     1   0.10969 276646.080000
     74     75     1   0.10969 276646.080000
     74     76     1   0.10969 276646.080000
     77     78     1   0.10969 276646.080000
     77     79     1   0.10969 276646.080000
     80     81     1   0.10969 276646.080000
     80     82     1   0.10969 276646.080000
     83     84     1   0.10969 276646.080000
     83     85     1   0.10969 276646.080000
     88     89     1   0.10969 276646.080000
     88     90     1   0.10969 276646.080000
     91     92     1   0.10969 276646.080000
     91     93     1   0.10969 276646.080000
     94     95     1   0.10969 276646.080000
     94     96     1   0.10969 276646.080000
     97     98     1   0.10969 276646.080000
     97     99     1   0.10969 276646.080000
    100    101     1   0.10969 276646.080000
    100    102     1   0.10969 276646.080000
    103    104     1   0.10969 276646.080000
    103    105     1   0.10969 276646.080000
    106    107     1   0.10969 276646.080000
    106    108     1   0.10969 276646.080000
    109    110     1   0.10969 276646.080000
    109    111     1   0.10969 276646.080000
    112    113     1   0.10969 276646.080000
    112    114     1   0.10969 276646.080000
    117    118     1   0.10969 276646.080000
    117    119     1   0.10969 276646.080000
    120    121     1   0.10969 276646.080000
    120    122     1   0.10969 276646.080000
    123    124     1   0.10969 276646.080000
    123    125     1   0.10969 276646.080000
    126    127     1   0.10969 276646.080000
    126    128     1   0.10969 276646.080000
    129    130     1   0.10969 276646.080000
    129    131     1   0.10969 276646.080000
    132    133     1   0.10969 276646.080000
    132    134     1   0.10969 276646.080000
    135    136     1   0.10969 276646.080000
    135    137     1   0.10969 276646.080000
    138    139     1   0.10969 276646.080000
    138    140     1   0.10969 276646.080000
    141    142     1   0.10969 276646.080000
    141    143     1   0.10969 276646.080000
    146    147     1   0.10969 276646.080000
    146    148     1   0.10969 276646.080000
    149    150     1   0.10969 276646.080000
    149    151     1   0.10969 276646.080000
    152    153     1   0.10969 276646.080000
    152    154     1   0.10969 276646.080000
    155    156     1   0.10969 276646.080000
    155    157     1   0.10969 276646.080000
    158    159     1   0.10969 276646.080000
    158    160     1   0.10969 276646.080000
    161    162     1   0.10969 276646.080000
    161    163     1   0.10969 276646.080000
    164    165     1   0.10969 276646.080000
    164    166     1   0.10969 276646.080000
    167    168     1   0.10969 276646.080000
    167    169     1   0.10969 276646.080000
    170    171     1   0.10969 276646.080000
    170    172     1   0.10969 276646.080000
    175    176     1   0.10969 276646.080000
    175    177     1   0.10969 276646.080000
    178    179     1   0.10969 276646.080000
    178    180     1   0.10969 276646.080000
    181    182     1   0.10969 276646.080000
    181    183     1   0.10969 276646.080000
    184    185     1   0.10969 276646.080000
    184    186     1   0.10969 276646.080000
    187    188     1   0.10969 276646.080000
    187    189     1   0.10969 276646.080000
    190    191     1   0.10969 276646.080000
    190    192     1   0.10969 276646.080000
    193    194     1   0.10969 276646.080000
    193    195     1   0.10969 276646.080000
    196    197     1   0.10969 276646.080000
    196    198     1   0.10969 276646.080000
    199    200     1   0.10969 276646.080000
    199    201     1   0.10969 276646.080000
    204    205     1   0.10969 276646.080000
    204    206     1   0.10969 276646.080000
    207    208     1   0.10969 276646.080000
    207    209     1   0.10969 276646.080000
    210    211     1   0.10969 276646.080000
    210    212     1   0.10969 276646.080000
    213    214     1   0.10969 276646.080000
    213    215     1   0.10969 276646.080000
    216    217     1   0.10969 276646.080000
    216    218     1   0.10969 276646.080000
    219    220     1   0.10969 276646.080000
    219    221     1   0.10969 276646.080000
    222    223     1   0.10969 276646.080000
    222    224     1   0.10969 276646.080000
    225    226     1   0.10969 276646.080000
    225    227     1   0.10969 276646.080000
    228    229     1   0.10969 276646.080000
    228    230     1   0.10969 276646.080000
    233    234     1   0.10969 276646.080000
    233    235     1   0.10969 276646.080000
    236    237     1   0.10969 276646.080000
    236    238     1   0.10969 276646.080000
    239    240     1   0.10969 276646.080000
    239    241     1   0.10969 276646.080000
    242    243     1   0.10969 276646.080000
    242    244     1   0.10969 276646.080000
    245    246     1   0.10969 276646.080000
    245    247     1   0.10969 276646.080000
    248    249     1   0.10969 276646.080000
    248    250     1   0.10969 276646.080000
    251    252     1   0.10969 276646.080000
    251    253     1   0.10969 276646.080000
    254    255     1   0.10969 276646.080000
    254    256     1   0.10969 276646.080000
    257    258     1   0.10969 276646.080000
    257    259     1   0.10969 276646.080000
    262    263     1   0.10969 276646.080000
    262    264     1   0.10969 276646.080000
    265    266     1   0.10969 276646.080000
    265    267     1   0.10969 276646.080000
    268    269     1   0.10969 276646.080000
    268    270     1   0.10969 276646.080000
    271    272     1   0.10969 276646.080000
    271    273     1   0.10969 276646.080000
    274    275     1   0.10969 276646.080000
    274    276     1   0.10969 276646.080000
    277    278     1   0.10969 276646.080000
    277    279     1   0.10969 276646.080000
    280    281     1   0.10969 276646.080000
    280    282     1   0.10969 276646.080000
    283    284     1   0.10969 276646.080000
    283    285     1   0.10969 276646.080000
    286    287     1   0.10969 276646.080000
    286    288     1   0.10969 276646.080000
    291    292     1   0.10969 276646.080000
    291    293     1   0.10969 276646.080000
    294    295     1   0.10969 276646.080000
    294    296     1   0.10969 276646.080000
    297    298     1   0.10969 276646.080000
    297    299     1   0.10969 276646.080000
    300    301     1   0.10969 276646.080000
    300    302     1   0.10969 276646.080000
    303    304     1   0.10969 276646.080000
    303    305     1   0.10969 276646.080000
    306    307     1   0.10969 276646.080000
    306    308     1   0.10969 276646.080000
    309    310     1   0.10969 276646.080000
    309    311     1   0.10969 276646.080000
    312    313     1   0.10969 276646.080000
    312    314     1   0.10969 276646.080000
    315    316     1   0.10969 276646.080000
    315    317     1   0.10969 276646.080000
    320    321     1   0.10969 276646.080000
    320    322     1   0.10969 276646.080000
    323    324     1   0.10969 276646.080000
    323    325     1   0.10969 276646.080000
    326    327     1   0.10969 276646.080000
    326    328     1   0.10969 276646.080000
    329    330     1   0.10969 276646.080000
    329    331     1   0.10969 276646.080000
    332    333     1   0.10969 276646.080000
    332    334     1   0.10969 276646.080000
    335    336     1   0.10969 276646.080000
    335    337     1   0.10969 276646.080000
    338    339     1   0.10969 276646.080000
    338    340     1   0.10969 276646.080000
    341    342     1   0.10969 276646.080000
    341    343     1   0.10969 276646.080000
    344    345     1   0.10969 276646.080000
    344    346     1   0.10969 276646.080000
    349    350     1   0.10969 276646.080000
    349    351     1   0.10969 276646.080000
    352    353     1   0.10969 276646.080000
    352    354     1   0.10969 276646.080000
    355    356     1   0.10969 276646.080000
    355    357     1   0.10969 276646.080000
    358    359     1   0.10969 276646.080000
    358    360     1   0.10969 276646.080000
    361    362     1   0.10969 276646.080000
    361    363     1   0.10969 276646.080000
    364    365     1   0.10969 276646.080000
    364    366     1   0.10969 276646.080000
    367    368     1   0.10969 276646.080000
    367    369     1   0.10969 276646.080000
    370    371     1   0.10969 276646.080000
    370    372     1   0.10969 276646.080000
    373    374     1   0.10969 276646.080000
    373    375     1   0.10969 276646.080000
    378    379     1   0.10969 276646.080000
    378    380     1   0.10969 276646.080000
    381    382     1   0.10969 276646.080000
    381    383     1   0.10969 276646.080000
    384    385     1   0.10969 276646.080000
    384    386     1   0.10969 276646.080000
    387    388     1   0.10969 276646.080000
    387    389     1   0.10969 276646.080000
    390    391     1   0.10969 276646.080000
    390    392     1   0.10969 276646.080000
    393    394     1   0.10969 276646.080000
    393    395     1   0.10969 276646.080000
    396    397     1   0.10969 276646.080000
    396    398     1   0.10969 276646.080000
    399    400     1   0.10969 276646.080000
    399    401     1   0.10969 276646.080000
    402    403     1   0.10969 276646.080000
    402    404     1   0.10969 276646.080000
    407    408     1   0.10969 276646.080000
    407    409     1   0.10969 276646.080000
    410    411     1   0.10969 276646.080000
    410    412     1   0.10969 276646.080000
    413    414     1   0.10969 276646.080000
    413    415     1   0.10969 276646.080000
    416    417     1   0.10969 276646.080000
    416    418     1   0.10969 276646.080000
    419    420     1   0.10969 276646.080000
    419    421     1   0.10969 276646.080000
    422    423     1   0.10969 276646.080000
    422    424     1   0.10969 276646.080000
    425    426     1   0.10969 276646.080000
    425    427     1   0.10969 276646.080000
    428    429     1   0.10969 276646.080000
    428    430     1   0.10969 276646.080000
    431    432     1   0.10969 276646.080000
    431    433     1   0.10969 276646.080000
    436    437     1   0.10969 276646.080000
    436    438     1   0.10969 276646.080000
    439    440     1   0.10969 276646.080000
    439    441     1   0.10969 276646.080000
    442    443     1   0.10969 276646.080000
    442    444     1   0.10969 276646.080000
    445    446     1   0.10969 276646.080000
    445    447     1   0.10969 276646.080000
    448    449     1   0.10969 276646.080000
    448    450     1   0.10969 276646.080000
    451    452     1   0.10969 276646.080000
    451    453     1   0.10969 276646.080000
    454    455     1   0.10969 276646.080000
    454    456     1   0.10969 276646.080000
    457    458     1   0.10969 276646.080000
    457    459     1   0.10969 276646.080000
    460    461     1   0.10969 276646.080000
    460    462     1   0.10969 276646.080000
    465    466     1   0.10969 276646.080000
    465    467     1   0.10969 276646.080000
    468    469     1   0.10969 276646.080000
    468    470     1   0.10969 276646.080000
    471    472     1   0.10969 276646.080000
    471    473     1   0.10969 276646.080000
    474    475     1   0.10969 276646.080000
    474    476     1   0.10969 276646.080000
    477    478     1   0.10969 276646.080000
    477    479     1   0.10969 276646.080000
    480    481     1   0.10969 276646.080000
    480    482     1   0.10969 276646.080000
    483    484     1   0.10969 276646.080000
    483    485     1   0.10969 276646.080000
    486    487     1   0.10969 276646.080000
    486    488     1   0.10969 276646.080000
    489    490     1   0.10969 276646.080000
    489    491     1   0.10969 276646.080000
    494    495     1   0.10969 276646.080000
    494    496     1   0.10969 276646.080000
    497    498     1   0.10969 276646.080000
    497    499     1   0.10969 276646.080000
    500    501     1   0.10969 276646.080000
    500    502     1   0.10969 276646.080000
    503    504     1   0.10969 276646.080000
    503    505     1   0.10969 276646.080000
    506    507     1   0.10969 276646.080000
    506    508     1   0.10969 276646.080000
    509    510     1   0.10969 276646.080000
    509    511     1   0.10969 276646.080000
    512    513     1   0.10969 276646.080000
    512    514     1   0.10969 276646.080000
    515    516     1   0.10969 276646.080000
    515    517     1   0.10969 276646.080000
    518    519     1   0.10969 276646.080000
    518    520     1   0.10969 276646.080000
    523    524     1   0.10969 276646.080000
    523    525     1   0.10969 276646.080000
    526    527     1   0.10969 276646.080000
    526    528     1   0.10969 276646.080000
    529    530     1   0.10969 276646.080000
    529    531     1   0.10969 276646.080000
    532    533     1   0.10969 276646.080000
    532    534     1   0.10969 276646.080000
    535    536     1   0.10969 276646.080000
    535    537     1   0.10969 276646.080000
    538    539     1   0.10969 276646.080000
    538    540     1   0.10969 276646.080000
    541    542     1   0.10969 276646.080000
    541    543     1   0.10969 276646.080000
    544    545     1   0.10969 276646.080000
    544    546     1   0.10969 276646.080000
    547    548     1   0.10969 276646.080000
    547    549     1   0.10969 276646.080000
    552    553     1   0.10969 276646.080000
    552    554     1   0.10969 276646.080000
    555    556     1   0.10969 276646.080000
    555    557     1   0.10969 276646.080000
    558    559     1   0.10969 276646.080000
    558    560     1   0.10969 276646.080000
    561    562     1   0.10969 276646.080000
    561    563     1   0.10969 276646.080000
    564    565     1   0.10969 276646.080000
    564    566     1   0.10969 276646.080000
    567    568     1   0.10969 276646.080000
    567    569     1   0.10969 276646.080000
    570    571     1   0.10969 276646.080000
    570    572     1   0.10969 276646.080000
    573    574     1   0.10969 276646.080000
    573    575     1   0.10969 276646.080000
    576    577     1   0.10969 276646.080000
    576    578     1   0.10969 276646.080000
    581    582     1   0.10969 276646.080000
    581    583     1   0.10969 276646.080000
    584    585     1   0.10969 276646.080000
    584    586     1   0.10969 276646.080000
    587    588     1   0.10969 276646.080000
    587    589     1   0.10969 276646.080000
    590    591     1   0.10969 276646.080000
    590    592     1   0.10969 276646.080000
    593    594     1   0.10969 276646.080000
    593    595     1   0.10969 276646.080000
    596    597     1   0.10969 276646.080000
    596    598     1   0.10969 276646.080000
    599    600     1   0.10969 276646.080000
    599    601     1   0.10969 276646.080000
    602    603     1   0.10969 276646.080000
    602    604     1   0.10969 276646.080000
    605    606     1   0.10969 276646.080000
    605    607     1   0.10969 276646.080000
    610    611     1   0.10969 276646.080000
    610    612     1   0.10969 276646.080000
    613    614     1   0.10969 276646.080000
    613    615     1   0.10969 276646.080000
    616    617     1   0.10969 276646.080000
    616    618     1   0.10969 276646.080000
    619    620     1   0.10969 276646.080000
    619    621     1   0.10969 276646.080000
    622    623     1   0.10969 276646.080000
    622    624     1   0.10969 276646.080000
    625    626     1   0.10969 276646.080000
    625    627     1   0.10969 276646.080000
    628    629     1   0.10969 276646.080000
    628    630     1   0.10969 276646.080000
    631    632     1   0.10969 276646.080000
    631    633     1   0.10969 276646.080000
    634    635     1   0.10969 276646.080000
    634    636     1   0.10969 276646.080000
    639    640     1   0.10969 276646.080000
    639    641     1   0.10969 276646.080000
    642    643     1   0.10969 276646.080000
    642    644     1   0.10969 276646.080000
    645    646     1   0.10969 276646.080000
    645    647     1   0.10969 276646.080000
    648    649     1   0.10969 276646.080000
    648    650     1   0.10969 276646.080000
    651    652     1   0.10969 276646.080000
    651    653     1   0.10969 276646.080000
    654    655     1   0.10969 276646.080000
    654    656     1   0.10969 276646.080000
    657    658     1   0.10969 276646.080000
    657    659     1   0.10969 276646.080000
    660    661     1   0.10969 276646.080000
    660    662     1   0.10969 276646.080000
    663    664     1   0.10969 276646.080000
    663    665     1   0.10969 276646.080000
    668    669     1   0.10969 276646.080000
    668    670     1   0.10969 276646.080000
    671    672     1   0.10969 276646.080000
    671    673     1   0.10969 276646.080000
    674    675     1   0.10969 276646.080000
    674    676     1   0.10969 276646.080000
    677    678     1   0.10969 276646.080000
    677    679     1   0.10969 276646.080000
    680    681     1   0.10969 276646.080000
    680    682     1   0.10969 276646.080000
    683    684     1   0.10969 276646.080000
    683    685     1   0.10969 276646.080000
    686    687     1   0.10969 276646.080000
    686    688     1   0.10969 276646.080000
    689    690     1   0.10969 276646.080000
    689    691     1   0.10969 276646.080000
    692    693     1   0.10969 276646.080000
    692    694     1   0.10969 276646.080000
    697    698     1   0.10969 276646.080000
    697    699     1   0.10969 276646.080000
    700    701     1   0.10969 276646.080000
    700    702     1   0.10969 276646.080000
    703    704     1   0.10969 276646.080000
    703    705     1   0.10969 276646.080000
    706    707     1   0.10969 276646.080000
    706    708     1   0.10969 276646.080000
    709    710     1   0.10969 276646.080000
    709    711     1   0.10969 276646.080000
    712    713     1   0.10969 276646.080000
    712    714     1   0.10969 276646.080000
    715    716     1   0.10969 276646.080000
    715    717     1   0.10969 276646.080000
    718    719     1   0.10969 276646.080000
    718    720     1   0.10969 276646.080000
    721    722     1   0.10969 276646.080000
    721    723     1   0.10969 276646.080000
    726    727     1   0.10969 276646.080000
    726    728     1   0.10969 276646.080000
    729    730     1   0.10969 276646.080000
    729    731     1   0.10969 276646.080000
    732    733     1   0.10969 276646.080000
    732    734     1   0.10969 276646.080000
    735    736     1   0.10969 276646.080000
    735    737     1   0.10969 276646.080000
    738    739     1   0.10969 276646.080000
    738    740     1   0.10969 276646.080000
    741    742     1   0.10969 276646.080000
    741    743     1   0.10969 276646.080000
    744    745     1   0.10969 276646.080000
    744    746     1   0.10969 276646.080000
    747    748     1   0.10969 276646.080000
    747    749     1   0.10969 276646.080000
    750    751     1   0.10969 276646.080000
    750    752     1   0.10969 276646.080000
    755    756     1   0.10969 276646.080000
    755    757     1   0.10969 276646.080000
    758    759     1   0.10969 276646.080000
    758    760     1   0.10969 276646.080000
    761    762     1   0.10969 276646.080000
    761    763     1   0.10969 276646.080000
    764    765     1   0.10969 276646.080000
    764    766     1   0.10969 276646.080000
    767    768     1   0.10969 276646.080000
    767    769     1   0.10969 276646.080000
    770    771     1   0.10969 276646.080000
    770    772     1   0.10969 276646.080000
    773    774     1   0.10969 276646.080000
    773    775     1   0.10969 276646.080000
    776    777     1   0.10969 276646.080000
    776    778     1   0.10969 276646.080000
    779    780     1   0.10969 276646.080000
    779    781     1   0.10969 276646.080000
    784    785     1   0.10969 276646.080000
    784    786     1   0.10969 276646.080000
    787    788     1   0.10969 276646.080000
    787    789     1   0.10969 276646.080000
    790    791     1   0.10969 276646.080000
    790    792     1   0.10969 276646.080000
    793    794     1   0.10969 276646.080000
    793    795     1   0.10969 276646.080000
    796    797     1   0.10969 276646.080000
    796    798     1   0.10969 276646.080000
    799    800     1   0.10969 276646.080000
    799    801     1   0.10969 276646.080000
    802    803     1   0.10969 276646.080000
    802    804     1   0.10969 276646.080000
    805    806     1   0.10969 276646.080000
    805    807     1   0.10969 276646.080000
    808    809     1   0.10969 276646.080000
    808    810     1   0.10969 276646.080000
    813    814     1   0.10969 276646.080000
    813    815     1   0.10969 276646.080000
    816    817     1   0.10969 276646.080000
    816    818     1   0.10969 276646.080000
    819    820     1   0.10969 276646.080000
    819    821     1   0.10969 276646.080000
    822    823     1   0.10969 276646.080000
    822    824     1   0.10969 276646.080000
    825    826     1   0.10969 276646.080000
    825    827     1   0.10969 276646.080000
    828    829     1   0.10969 276646.080000
    828    830     1   0.10969 276646.080000
    831    832     1   0.10969 276646.080000
    831    833     1   0.10969 276646.080000
    834    835     1   0.10969 276646.080000
    834    836     1   0.10969 276646.080000
    837    838     1   0.10969 276646.080000
    837    839     1   0.10969 276646.080000
    842    843     1   0.10969 276646.080000
    842    844     1   0.10969 276646.080000
    845    846     1   0.10969 276646.080000
    845    847     1   0.10969 276646.080000
    848    849     1   0.10969 276646.080000
    848    850     1   0.10969 276646.080000
    851    852     1   0.10969 276646.080000
    851    853     1   0.10969 276646.080000
    854    855     1   0.10969 276646.080000
    854    856     1   0.10969 276646.080000
    857    858     1   0.10969 276646.080000
    857    859     1   0.10969 276646.080000
    860    861     1   0.10969 276646.080000
    860    862     1   0.10969 276646.080000
    863    864     1   0.10969 276646.080000
    863    865     1   0.10969 276646.080000
    866    867     1   0.10969 276646.080000
    866    868     1   0.10969 276646.080000
    871    872     1   0.10969 276646.080000
    871    873     1   0.10969 276646.080000
    874    875     1   0.10969 276646.080000
    874    876     1   0.10969 276646.080000
    877    878     1   0.10969 276646.080000
    877    879     1   0.10969 276646.080000
    880    881     1   0.10969 276646.080000
    880    882     1   0.10969 276646.080000
    883    884     1   0.10969 276646.080000
    883    885     1   0.10969 276646.080000
    886    887     1   0.10969 276646.080000
    886    888     1   0.10969 276646.080000
    889    890     1   0.10969 276646.080000
    889    891     1   0.10969 276646.080000
    892    893     1   0.10969 276646.080000
    892    894     1   0.10969 276646.080000
    895    896     1   0.10969 276646.080000
    895    897     1   0.10969 276646.080000
    900    901     1   0.10969 276646.080000
    900    902     1   0.10969 276646.080000
    903    904     1   0.10969 276646.080000
    903    905     1   0.10969 276646.080000
    906    907     1   0.10969 276646.080000
    906    908     1   0.10969 276646.080000
    909    910     1   0.10969 276646.080000
    909    911     1   0.10969 276646.080000
    912    913     1   0.10969 276646.080000
    912    914     1   0.10969 276646.080000
    915    916     1   0.10969 276646.080000
    915    917     1   0.10969 276646.080000
    918    919     1   0.10969 276646.080000
    918    920     1   0.10969 276646.080000
    921    922     1   0.10969 276646.080000
    921    923     1   0.10969 276646.080000
    924    925     1   0.10969 276646.080000
    924    926     1   0.10969 276646.080000
    929    930     1   0.10969 276646.080000
    929    931     1   0.10969 276646.080000
    932    933     1   0.10969 276646.080000
    932    934     1   0.10969 276646.080000
    935    936     1   0.10969 276646.080000
    935    937     1   0.10969 276646.080000
    938    939     1   0.10969 276646.080000
    938    940     1   0.10969 276646.080000
    941    942     1   0.10969 276646.080000
    941    943     1   0.10969 276646.080000
    944    945     1   0.10969 276646.080000
    944    946     1   0.10969 276646.080000
    947    948     1   0.10969 276646.080000
    947    949     1   0.10969 276646.080000
    950    951     1   0.10969 276646.080000
    950    952     1   0.10969 276646.080000
    953    954     1   0.10969 276646.080000
    953    955     1   0.10969 276646.080000
    958    959     1   0.10969 276646.080000
    958    960     1   0.10969 276646.080000
    961    962     1   0.10969 276646.080000
    961    963     1   0.10969 276646.080000
    964    965     1   0.10969 276646.080000
    964    966     1   0.10969 276646.080000
    967    968     1   0.10969 276646.080000
    967    969     1   0.10969 276646.080000
    970    971     1   0.10969 276646.080000
    970    972     1   0.10969 276646.080000
    973    974     1   0.10969 276646.080000
    973    975     1   0.10969 276646.080000
    976    977     1   0.10969 276646.080000
    976    978     1   0.10969 276646.080000
    979    980     1   0.10969 276646.080000
    979    981     1   0.10969 276646.080000
    982    983     1   0.10969 276646.080000
    982    984     1   0.10969 276646.080000
    987    988     1   0.10969 276646.080000
    987    989     1   0.10969 276646.080000
    990    991     1   0.10969 276646.080000
    990    992     1   0.10969 276646.080000
    993    994     1   0.10969 276646.080000
    993    995     1   0.10969 276646.080000
    996    997     1   0.10969 276646.080000
    996    998     1   0.10969 276646.080000
    999   1000     1   0.10969 276646.080000
    999   1001     1   0.10969 276646.080000
   1002   1003     1   0.10969 276646.080000
   1002   1004     1   0.10969 276646.080000
   1005   1006     1   0.10969 276646.080000
   1005   1007     1   0.10969 276646.080000
   1008   1009     1   0.10969 276646.080000
   1008   1010     1   0.10969 276646.080000
   1011   1012     1   0.10969 276646.080000
   1011   1013     1   0.10969 276646.080000
   1016   1017     1   0.10969 276646.080000
   1016   1018     1   0.10969 276646.080000
   1019   1020     1   0.10969 276646.080000
   1019   1021     1   0.10969 276646.080000
   1022   1023     1   0.10969 276646.080000
   1022   1024     1   0.10969 276646.080000
   1025   1026     1   0.10969 276646.080000
   1025   1027     1   0.10969 276646.080000
   1028   1029     1   0.10969 276646.080000
   1028   1030     1   0.10969 276646.080000
   1031   1032     1   0.10969 276646.080000
   1031   1033     1   0.10969 276646.080000
   1034   1035     1   0.10969 276646.080000
   1034   1036     1   0.10969 276646.080000
   1037   1038     1   0.10969 276646.080000
   1037   1039     1   0.10969 276646.080000
   1040   1041     1   0.10969 276646.080000
   1040   1042     1   0.10969 276646.080000
   1045   1046     1   0.10969 276646.080000
   1045   1047     1   0.10969 276646.080000
   1048   1049     1   0.10969 276646.080000
   1048   1050     1   0.10969 276646.080000
   1051   1052     1   0.10969 276646.080000
   1051   1053     1   0.10969 276646.080000
   1054   1055     1   0.10969 276646.080000
   1054   1056     1   0.10969 276646.080000
   1057   1058     1   0.10969 276646.080000
   1057   1059     1   0.10969 276646.080000
   1060   1061     1   0.10969 276646.080000
   1060   1062     1   0.10969 276646.080000
   1063   1064     1   0.10969 276646.080000
   1063   1065     1   0.10969 276646.080000
   1066   1067     1   0.10969 276646.080000
   1066   1068     1   0.10969 276646.080000
   1069   1070     1   0.10969 276646.080000
   1069   1071     1   0.10969 276646.080000
   1074   1075     1   0.10969 276646.080000
   1074   1076     1   0.10969 276646.080000
   1077   1078     1   0.10969 276646.080000
   1077   1079     1   0.10969 276646.080000
   1080   1081     1   0.10969 276646.080000
   1080   1082     1   0.10969 276646.080000
   1083   1084     1   0.10969 276646.080000
   1083   1085     1   0.10969 276646.080000
   1086   1087     1   0.10969 276646.080000
   1086   1088     1   0.10969 276646.080000
   1089   1090     1   0.10969 276646.080000
   1089   1091     1   0.10969 276646.080000
   1092   1093     1   0.10969 276646.080000
   1092   1094     1   0.10969 276646.080000
   1095   1096     1   0.10969 276646.080000
   1095   1097     1   0.10969 276646.080000
   1098   1099     1   0.10969 276646.080000
   1098   1100     1   0.10969 276646.080000
   1103   1104     1   0.10969 276646.080000
   1103   1105     1   0.10969 276646.080000
   1106   1107     1   0.10969 276646.080000
   1106   1108     1   0.10969 276646.080000
   1109   1110     1   0.10969 276646.080000
   1109   1111     1   0.10969 276646.080000
   1112   1113     1   0.10969 276646.080000
   1112   1114     1   0.10969 276646.080000
   1115   1116     1   0.10969 276646.080000
   1115   1117     1   0.10969 276646.080000
   1118   1119     1   0.10969 276646.080000
   1118   1120     1   0.10969 276646.080000
   1121   1122     1   0.10969 276646.080000
   1121   1123     1   0.10969 276646.080000
   1124   1125     1   0.10969 276646.080000
   1124   1126     1   0.10969 276646.080000
   1127   1128     1   0.10969 276646.080000
   1127   1129     1   0.10969 276646.080000
   1132   1133     1   0.10969 276646.080000
   1132   1134     1   0.10969 276646.080000
   1135   1136     1   0.10969 276646.080000
   1135   1137     1   0.10969 276646.080000
   1138   1139     1   0.10969 276646.080000
   1138   1140     1   0.10969 276646.080000
   1141   1142     1   0.10969 276646.080000
   1141   1143     1   0.10969 276646.080000
   1144   1145     1   0.10969 276646.080000
   1144   1146     1   0.10969 276646.080000
   1147   1148     1   0.10969 276646.080000
   1147   1149     1   0.10969 276646.080000
   1150   1151     1   0.10969 276646.080000
   1150   1152     1   0.10969 276646.080000
   1153   1154     1   0.10969 276646.080000
   1153   1155     1   0.10969 276646.080000
   1156   1157     1   0.10969 276646.080000
   1156   1158     1   0.10969 276646.080000
   1161   1162     1   0.10969 276646.080000
   1161   1163     1   0.10969 276646.080000
   1164   1165     1   0.10969 276646.080000
   1164   1166     1   0.10969 276646.080000
   1167   1168     1   0.10969 276646.080000
   1167   1169     1   0.10969 276646.080000
   1170   1171     1   0.10969 276646.080000
   1170   1172     1   0.10969 276646.080000
   1173   1174     1   0.10969 276646.080000
   1173   1175     1   0.10969 276646.080000
   1176   1177     1   0.10969 276646.080000
   1176   1178     1   0.10969 276646.080000
   1179   1180     1   0.10969 276646.080000
   1179   1181     1   0.10969 276646.080000
   1182   1183     1   0.10969 276646.080000
   1182   1184     1   0.10969 276646.080000
   1185   1186     1   0.10969 276646.080000
   1185   1187     1   0.10969 276646.080000
   1190   1191     1   0.10969 276646.080000
   1190   1192     1   0.10969 276646.080000
   1193   1194     1   0.10969 276646.080000
   1193   1195     1   0.10969 276646.080000
   1196   1197     1   0.10969 276646.080000
   1196   1198     1   0.10969 276646.080000
   1199   1200     1   0.10969 276646.080000
   1199   1201     1   0.10969 276646.080000
   1202   1203     1   0.10969 276646.080000
   1202   1204     1   0.10969 276646.080000
   1205   1206     1   0.10969 276646.080000
   1205   1207     1   0.10969 276646.080000
   1208   1209     1   0.10969 276646.080000
   1208   1210     1   0.10969 276646.080000
   1211   1212     1   0.10969 276646.080000
   1211   1213     1   0.10969 276646.080000
   1214   1215     1   0.10969 276646.080000
   1214   1216     1   0.10969 276646.080000
   1219   1220     1   0.10969 276646.080000
   1219   1221     1   0.10969 276646.080000
   1222   1223     1   0.10969 276646.080000
   1222   1224     1   0.10969 276646.080000
   1225   1226     1   0.10969 276646.080000
   1225   1227     1   0.10969 276646.080000
   1228   1229     1   0.10969 276646.080000
   1228   1230     1   0.10969 276646.080000
   1231   1232     1   0.10969 276646.080000
   1231   1233     1   0.10969 276646.080000
   1234   1235     1   0.10969 276646.080000
   1234   1236     1   0.10969 276646.080000
   1237   1238     1   0.10969 276646.080000
   1237   1239     1   0.10969 276646.080000
   1240   1241     1   0.10969 276646.080000
   1240   1242     1   0.10969 276646.080000
   1243   1244     1   0.10969 276646.080000
   1243   1245     1   0.10969 276646.080000
   1248   1249     1   0.10969 276646.080000
   1248   1250     1   0.10969 276646.080000
   1251   1252     1   0.10969 276646.080000
   1251   1253     1   0.10969 276646.080000
   1254   1255     1   0.10969 276646.080000
   1254   1256     1   0.10969 276646.080000
   1257   1258     1   0.10969 276646.080000
   1257   1259     1   0.10969 276646.080000
   1260   1261     1   0.10969 276646.080000
   1260   1262     1   0.10969 276646.080000
   1263   1264     1   0.10969 276646.080000
   1263   1265     1   0.10969 276646.080000
   1266   1267     1   0.10969 276646.080000
   1266   1268     1   0.10969 276646.080000
   1269   1270     1   0.10969 276646.080000
   1269   1271     1   0.10969 276646.080000
   1272   1273     1   0.10969 276646.080000
   1272   1274     1   0.10969 276646.080000
   1277   1278     1   0.10969 276646.080000
   1277   1279     1   0.10969 276646.080000
   1280   1281     1   0.10969 276646.080000
   1280   1282     1   0.10969 276646.080000
   1283   1284     1   0.10969 276646.080000
   1283   1285     1   0.10969 276646.080000
   1286   1287     1   0.10969 276646.080000
   1286   1288     1   0.10969 276646.080000
   1289   1290     1   0.10969 276646.080000
   1289   1291     1   0.10969 276646.080000
   1292   1293     1   0.10969 276646.080000
   1292   1294     1   0.10969 276646.080000
   1295   1296     1   0.10969 276646.080000
   1295   1297     1   0.10969 276646.080000
   1298   1299     1   0.10969 276646.080000
   1298   1300     1   0.10969 276646.080000
   1301   1302     1   0.10969 276646.080000
   1301   1303     1   0.10969 276646.080000
   1306   1307     1   0.10969 276646.080000
   1306   1308     1   0.10969 276646.080000
   1309   1310     1   0.10969 276646.080000
   1309   1311     1   0.10969 276646.080000
   1312   1313     1   0.10969 276646.080000
   1312   1314     1   0.10969 276646.080000
   1315   1316     1   0.10969 276646.080000
   1315   1317     1   0.10969 276646.080000
   1318   1319     1   0.10969 276646.080000
   1318   1320     1   0.10969 276646.080000
   1321   1322     1   0.10969 276646.080000
   1321   1323     1   0.10969 276646.080000
   1324   1325     1   0.10969 276646.080000
   1324   1326     1   0.10969 276646.080000
   1327   1328     1   0.10969 276646.080000
   1327   1329     1   0.10969 276646.080000
   1330   1331     1   0.10969 276646.080000
   1330   1332     1   0.10969 276646.080000
   1335   1336     1   0.10969 276646.080000
   1335   1337     1   0.10969 276646.080000
   1338   1339     1   0.10969 276646.080000
   1338   1340     1   0.10969 276646.080000
   1341   1342     1   0.10969 276646.080000
   1341   1343     1   0.10969 276646.080000
   1344   1345     1   0.10969 276646.080000
   1344   1346     1   0.10969 276646.080000
   1347   1348     1   0.10969 276646.080000
   1347   1349     1   0.10969 276646.080000
   1350   1351     1   0.10969 276646.080000
   1350   1352     1   0.10969 276646.080000
   1353   1354     1   0.10969 276646.080000
   1353   1355     1   0.10969 276646.080000
   1356   1357     1   0.10969 276646.080000
   1356   1358     1   0.10969 276646.080000
   1359   1360     1   0.10969 276646.080000
   1359   1361     1   0.10969 276646.080000
   1364   1365     1   0.10969 276646.080000
   1364   1366     1   0.10969 276646.080000
   1367   1368     1   0.10969 276646.080000
   1367   1369     1   0.10969 276646.080000
   1370   1371     1   0.10969 276646.080000
   1370   1372     1   0.10969 276646.080000
   1373   1374     1   0.10969 276646.080000
   1373   1375     1   0.10969 276646.080000
   1376   1377     1   0.10969 276646.080000
   1376   1378     1   0.10969 276646.080000
   1379   1380     1   0.10969 276646.080000
   1379   1381     1   0.10969 276646.080000
   1382   1383     1   0.10969 276646.080000
   1382   1384     1   0.10969 276646.080000
   1385   1386     1   0.10969 276646.080000
   1385   1387     1   0.10969 276646.080000
   1388   1389     1   0.10969 276646.080000
   1388   1390     1   0.10969 276646.080000
   1393   1394     1   0.10969 276646.080000
   1393   1395     1   0.10969 276646.080000
   1396   1397     1   0.10969 276646.080000
   1396   1398     1   0.10969 276646.080000
   1399   1400     1   0.10969 276646.080000
   1399   1401     1   0.10969 276646.080000
   1402   1403     1   0.10969 276646.080000
   1402   1404     1   0.10969 276646.080000
   1405   1406     1   0.10969 276646.080000
   1405   1407     1   0.10969 276646.080000
   1408   1409     1   0.10969 276646.080000
   1408   1410     1   0.10969 276646.080000
   1411   1412     1   0.10969 276646.080000
   1411   1413     1   0.10969 276646.080000
   1414   1415     1   0.10969 276646.080000
   1414   1416     1   0.10969 276646.080000
   1417   1418     1   0.10969 276646.080000
   1417   1419     1   0.10969 276646.080000
   1422   1423     1   0.10969 276646.080000
   1422   1424     1   0.10969 276646.080000
   1425   1426     1   0.10969 276646.080000
   1425   1427     1   0.10969 276646.080000
   1428   1429     1   0.10969 276646.080000
   1428   1430     1   0.10969 276646.080000
   1431   1432     1   0.10969 276646.080000
   1431   1433     1   0.10969 276646.080000
   1434   1435     1   0.10969 276646.080000
   1434   1436     1   0.10969 276646.080000
   1437   1438     1   0.10969 276646.080000
   1437   1439     1   0.10969 276646.080000
   1440   1441     1   0.10969 276646.080000
   1440   1442     1   0.10969 276646.080000
   1443   1444     1   0.10969 276646.080000
   1443   1445     1   0.10969 276646.080000
   1446   1447     1   0.10969 276646.080000
   1446   1448     1   0.10969 276646.080000
   1451   1452     1   0.10969 276646.080000
   1451   1453     1   0.10969 276646.080000
   1454   1455     1   0.10969 276646.080000
   1454   1456     1   0.10969 276646.080000
   1457   1458     1   0.10969 276646.080000
   1457   1459     1   0.10969 276646.080000
   1460   1461     1   0.10969 276646.080000
   1460   1462     1   0.10969 276646.080000
   1463   1464     1   0.10969 276646.080000
   1463   1465     1   0.10969 276646.080000
   1466   1467     1   0.10969 276646.080000
   1466   1468     1   0.10969 276646.080000
   1469   1470     1   0.10969 276646.080000
   1469   1471     1   0.10969 276646.080000
   1472   1473     1   0.10969 276646.080000
   1472   1474     1   0.10969 276646.080000
   1475   1476     1   0.10969 276646.080000
   1475   1477     1   0.10969 276646.080000
   1480   1481     1   0.10969 276646.080000
   1480   1482     1   0.10969 276646.080000
   1483   1484     1   0.10969 276646.080000
   1483   1485     1   0.10969 276646.080000
   1486   1487     1   0.10969 276646.080000
   1486   1488     1   0.10969 276646.080000
   1489   1490     1   0.10969 276646.080000
   1489   1491     1   0.10969 276646.080000
   1492   1493     1   0.10969 276646.080000
   1492   1494     1   0.10969 276646.080000
   1495   1496     1   0.10969 276646.080000
   1495   1497     1   0.10969 276646.080000
   1498   1499     1   0.10969 276646.080000
   1498   1500     1   0.10969 276646.080000
   1501   1502     1   0.10969 276646.080000
   1501   1503     1   0.10969 276646.080000
   1504   1505     1   0.10969 276646.080000
   1504   1506     1   0.10969 276646.080000
   1509   1510     1   0.10969 276646.080000
   1509   1511     1   0.10969 276646.080000
   1512   1513     1   0.10969 276646.080000
   1512   1514     1   0.10969 276646.080000
   1515   1516     1   0.10969 276646.080000
   1515   1517     1   0.10969 276646.080000
   1518   1519     1   0.10969 276646.080000
   1518   1520     1   0.10969 276646.080000
   1521   1522     1   0.10969 276646.080000
   1521   1523     1   0.10969 276646.080000
   1524   1525     1   0.10969 276646.080000
   1524   1526     1   0.10969 276646.080000
   1527   1528     1   0.10969 276646.080000
   1527   1529     1   0.10969 276646.080000
   1530   1531     1   0.10969 276646.080000
   1530   1532     1   0.10969 276646.080000
   1533   1534     1   0.10969 276646.080000
   1533   1535     1   0.10969 276646.080000
   1538   1539     1   0.10969 276646.080000
   1538   1540     1   0.10969 276646.080000
   1541   1542     1   0.10969 276646.080000
   1541   1543     1   0.10969 276646.080000
   1544   1545     1   0.10969 276646.080000
   1544   1546     1   0.10969 276646.080000
   1547   1548     1   0.10969 276646.080000
   1547   1549     1   0.10969 276646.080000
   1550   1551     1   0.10969 276646.080000
   1550   1552     1   0.10969 276646.080000
   1553   1554     1   0.10969 276646.080000
   1553   1555     1   0.10969 276646.080000
   1556   1557     1   0.10969 276646.080000
   1556   1558     1   0.10969 276646.080000
   1559   1560     1   0.10969 276646.080000
   1559   1561     1   0.10969 276646.080000
   1562   1563     1   0.10969 276646.080000
   1562   1564     1   0.10969 276646.080000
   1567   1568     1   0.10969 276646.080000
   1567   1569     1   0.10969 276646.080000
   1570   1571     1   0.10969 276646.080000
   1570   1572     1   0.10969 276646.080000
   1573   1574     1   0.10969 276646.080000
   1573   1575     1   0.10969 276646.080000
   1576   1577     1   0.10969 276646.080000
   1576   1578     1   0.10969 276646.080000
   1579   1580     1   0.10969 276646.080000
   1579   1581     1   0.10969 276646.080000
   1582   1583     1   0.10969 276646.080000
   1582   1584     1   0.10969 276646.080000
   1585   1586     1   0.10969 276646.080000
   1585   1587     1   0.10969 276646.080000
   1588   1589     1   0.10969 276646.080000
   1588   1590     1   0.10969 276646.080000
   1591   1592     1   0.10969 276646.080000
   1591   1593     1   0.10969 276646.080000
   1596   1597     1   0.10969 276646.080000
   1596   1598     1   0.10969 276646.080000
   1599   1600     1   0.10969 276646.080000
   1599   1601     1   0.10969 276646.080000
   1602   1603     1   0.10969 276646.080000
   1602   1604     1   0.10969 276646.080000
   1605   1606     1   0.10969 276646.080000
   1605   1607     1   0.10969 276646.080000
   1608   1609     1   0.10969 276646.080000
   1608   1610     1   0.10969 276646.080000
   1611   1612     1   0.10969 276646.080000
   1611   1613     1   0.10969 276646.080000
   1614   1615     1   0.10969 276646.080000
   1614   1616     1   0.10969 276646.080000
   1617   1618     1   0.10969 276646.080000
   1617   1619     1   0.10969 276646.080000
   1620   1621     1   0.10969 276646.080000
   1620   1622     1   0.10969 276646.080000
   1625   1626     1   0.10969 276646.080000
   1625   1627     1   0.10969 276646.080000
   1628   1629     1   0.10969 276646.080000
   1628   1630     1   0.10969 276646.080000
   1631   1632     1   0.10969 276646.080000
   1631   1633     1   0.10969 276646.080000
   1634   1635     1   0.10969 276646.080000
   1634   1636     1   0.10969 276646.080000
   1637   1638     1   0.10969 276646.080000
   1637   1639     1   0.10969 276646.080000
   1640   1641     1   0.10969 276646.080000
   1640   1642     1   0.10969 276646.080000
   1643   1644     1   0.10969 276646.080000
   1643   1645     1   0.10969 276646.080000
   1646   1647     1   0.10969 276646.080000
   1646   1648     1   0.10969 276646.080000
   1649   1650     1   0.10969 276646.080000
   1649   1651     1   0.10969 276646.080000
   1654   1655     1   0.10969 276646.080000
   1654   1656     1   0.10969 276646.080000
   1657   1658     1   0.10969 276646.080000
   1657   1659     1   0.10969 276646.080000
   1660   1661     1   0.10969 276646.080000
   1660   1662     1   0.10969 276646.080000
   1663   1664     1   0.10969 276646.080000
   1663   1665     1   0.10969 276646.080000
   1666   1667     1   0.10969 276646.080000
   1666   1668     1   0.10969 276646.080000
   1669   1670     1   0.10969 276646.080000
   1669   1671     1   0.10969 276646.080000
   1672   1673     1   0.10969 276646.080000
   1672   1674     1   0.10969 276646.080000
   1675   1676     1   0.10969 276646.080000
   1675   1677     1   0.10969 276646.080000
   1678   1679     1   0.10969 276646.080000
   1678   1680     1   0.10969 276646.080000
   1683   1684     1   0.10969 276646.080000
   1683   1685     1   0.10969 276646.080000
   1686   1687     1   0.10969 276646.080000
   1686   1688     1   0.10969 276646.080000
   1689   1690     1   0.10969 276646.080000
   1689   1691     1   0.10969 276646.080000
   1692   1693     1   0.10969 276646.080000
   1692   1694     1   0.10969 276646.080000
   1695   1696     1   0.10969 276646.080000
   1695   1697     1   0.10969 276646.080000
   1698   1699     1   0.10969 276646.080000
   1698   1700     1   0.10969 276646.080000
   1701   1702     1   0.10969 276646.080000
   1701   1703     1   0.10969 276646.080000
   1704   1705     1   0.10969 276646.080000
   1704   1706     1   0.10969 276646.080000
   1707   1708     1   0.10969 276646.080000
   1707   1709     1   0.10969 276646.080000
   1712   1713     1   0.10969 276646.080000
   1712   1714     1   0.10969 276646.080000
   1715   1716     1   0.10969 276646.080000
   1715   1717     1   0.10969 276646.080000
   1718   1719     1   0.10969 276646.080000
   1718   1720     1   0.10969 276646.080000
   1721   1722     1   0.10969 276646.080000
   1721   1723     1   0.10969 276646.080000
   1724   1725     1   0.10969 276646.080000
   1724   1726     1   0.10969 276646.080000
   1727   1728     1   0.10969 276646.080000
   1727   1729     1   0.10969 276646.080000
   1730   1731     1   0.10969 276646.080000
   1730   1732     1   0.10969 276646.080000
   1733   1734     1   0.10969 276646.080000
   1733   1735     1   0.10969 276646.080000
   1736   1737     1   0.10969 276646.080000
   1736   1738     1   0.10969 276646.080000
   1741   1742     1   0.10969 276646.080000
   1741   1743     1   0.10969 276646.080000
   1744   1745     1   0.10969 276646.080000
   1744   1746     1   0.10969 276646.080000
   1747   1748     1   0.10969 276646.080000
   1747   1749     1   0.10969 276646.080000
   1750   1751     1   0.10969 276646.080000
   1750   1752     1   0.10969 276646.080000
   1753   1754     1   0.10969 276646.080000
   1753   1755     1   0.10969 276646.080000
   1756   1757     1   0.10969 276646.080000
   1756   1758     1   0.10969 276646.080000
   1759   1760     1   0.10969 276646.080000
   1759   1761     1   0.10969 276646.080000
   1762   1763     1   0.10969 276646.080000
   1762   1764     1   0.10969 276646.080000
   1765   1766     1   0.10969 276646.080000
   1765   1767     1   0.10969 276646.080000
   1770   1771     1   0.10969 276646.080000
   1770   1772     1   0.10969 276646.080000
   1773   1774     1   0.10969 276646.080000
   1773   1775     1   0.10969 276646.080000
   1776   1777     1   0.10969 276646.080000
   1776   1778     1   0.10969 276646.080000
   1779   1780     1   0.10969 276646.080000
   1779   1781     1   0.10969 276646.080000
   1782   1783     1   0.10969 276646.080000
   1782   1784     1   0.10969 276646.080000
   1785   1786     1   0.10969 276646.080000
   1785   1787     1   0.10969 276646.080000
   1788   1789     1   0.10969 276646.080000
   1788   1790     1   0.10969 276646.080000
   1791   1792     1   0.10969 276646.080000
   1791   1793     1   0.10969 276646.080000
   1794   1795     1   0.10969 276646.080000
   1794   1796     1   0.10969 276646.080000
   1799   1800     1   0.10969 276646.080000
   1799   1801     1   0.10969 276646.080000
   1802   1803     1   0.10969 276646.080000
   1802   1804     1   0.10969 276646.080000
   1805   1806     1   0.10969 276646.080000
   1805   1807     1   0.10969 276646.080000
   1808   1809     1   0.10969 276646.080000
   1808   1810     1   0.10969 276646.080000
   1811   1812     1   0.10969 276646.080000
   1811   1813     1   0.10969 276646.080000
   1814   1815     1   0.10969 276646.080000
   1814   1816     1   0.10969 276646.080000
   1817   1818     1   0.10969 276646.080000
   1817   1819     1   0.10969 276646.080000
   1820   1821     1   0.10969 276646.080000
   1820   1822     1   0.10969 276646.080000
   1823   1824     1   0.10969 276646.080000
   1823   1825     1   0.10969 276646.080000
   1828   1829     1   0.10969 276646.080000
   1828   1830     1   0.10969 276646.080000
   1831   1832     1   0.10969 276646.080000
   1831   1833     1   0.10969 276646.080000
   1834   1835     1   0.10969 276646.080000
   1834   1836     1   0.10969 276646.080000
   1837   1838     1   0.10969 276646.080000
   1837   1839     1   0.10969 276646.080000
   1840   1841     1   0.10969 276646.080000
   1840   1842     1   0.10969 276646.080000
   1843   1844     1   0.10969 276646.080000
   1843   1845     1   0.10969 276646.080000
   1846   1847     1   0.10969 276646.080000
   1846   1848     1   0.10969 276646.080000
   1849   1850     1   0.10969 276646.080000
   1849   1851     1   0.10969 276646.080000
   1852   1853     1   0.10969 276646.080000
   1852   1854     1   0.10969 276646.080000
   1857   1858     1   0.10969 276646.080000
   1857   1859     1   0.10969 276646.080000
   1860   1861     1   0.10969 276646.080000
   1860   1862     1   0.10969 276646.080000
   1863   1864     1   0.10969 276646.080000
   1863   1865     1   0.10969 276646.080000
   1866   1867     1   0.10969 276646.080000
   1866   1868     1   0.10969 276646.080000
   1869   1870     1   0.10969 276646.080000
   1869   1871     1   0.10969 276646.080000
   1872   1873     1   0.10969 276646.080000
   1872   1874     1   0.10969 276646.080000
   1875   1876     1   0.10969 276646.080000
   1875   1877     1   0.10969 276646.080000
   1878   1879     1   0.10969 276646.080000
   1878   1880     1   0.10969 276646.080000
   1881   1882     1   0.10969 276646.080000
   1881   1883     1   0.10969 276646.080000
   1886   1887     1   0.10969 276646.080000
   1886   1888     1   0.10969 276646.080000
   1889   1890     1   0.10969 276646.080000
   1889   1891     1   0.10969 276646.080000
   1892   1893     1   0.10969 276646.080000
   1892   1894     1   0.10969 276646.080000
   1895   1896     1   0.10969 276646.080000
   1895   1897     1   0.10969 276646.080000
   1898   1899     1   0.10969 276646.080000
   1898   1900     1   0.10969 276646.080000
   1901   1902     1   0.10969 276646.080000
   1901   1903     1   0.10969 276646.080000
   1904   1905     1   0.10969 276646.080000
   1904   1906     1   0.10969 276646.080000
   1907   1908     1   0.10969 276646.080000
   1907   1909     1   0.10969 276646.080000
   1910   1911     1   0.10969 276646.080000
   1910   1912     1   0.10969 276646.080000
   1915   1916     1   0.10969 276646.080000
   1915   1917     1   0.10969 276646.080000
   1918   1919     1   0.10969 276646.080000
   1918   1920     1   0.10969 276646.080000
   1921   1922     1   0.10969 276646.080000
   1921   1923     1   0.10969 276646.080000
   1924   1925     1   0.10969 276646.080000
   1924   1926     1   0.10969 276646.080000
   1927   1928     1   0.10969 276646.080000
   1927   1929     1   0.10969 276646.080000
   1930   1931     1   0.10969 276646.080000
   1930   1932     1   0.10969 276646.080000
   1933   1934     1   0.10969 276646.080000
   1933   1935     1   0.10969 276646.080000
   1936   1937     1   0.10969 276646.080000
   1936   1938     1   0.10969 276646.080000
   1939   1940     1   0.10969 276646.080000
   1939   1941     1   0.10969 276646.080000
   1944   1945     1   0.10969 276646.080000
   1944   1946     1   0.10969 276646.080000
   1947   1948     1   0.10969 276646.080000
   1947   1949     1   0.10969 276646.080000
   1950   1951     1   0.10969 276646.080000
   1950   1952     1   0.10969 276646.080000
   1953   1954     1   0.10969 276646.080000
   1953   1955     1   0.10969 276646.080000
   1956   1957     1   0.10969 276646.080000
   1956   1958     1   0.10969 276646.080000
   1959   1960     1   0.10969 276646.080000
   1959   1961     1   0.10969 276646.080000
   1962   1963     1   0.10969 276646.080000
   1962   1964     1   0.10969 276646.080000
   1965   1966     1   0.10969 276646.080000
   1965   1967     1   0.10969 276646.080000
   1968   1969     1   0.10969 276646.080000
   1968   1970     1   0.10969 276646.080000
   1973   1974     1   0.10969 276646.080000
   1973   1975     1   0.10969 276646.080000
   1976   1977     1   0.10969 276646.080000
   1976   1978     1   0.10969 276646.080000
   1979   1980     1   0.10969 276646.080000
   1979   1981     1   0.10969 276646.080000
   1982   1983     1   0.10969 276646.080000
   1982   1984     1   0.10969 276646.080000
   1985   1986     1   0.10969 276646.080000
   1985   1987     1   0.10969 276646.080000
   1988   1989     1   0.10969 276646.080000
   1988   1990     1   0.10969 276646.080000
   1991   1992     1   0.10969 276646.080000
   1991   1993     1   0.10969 276646.080000
   1994   1995     1   0.10969 276646.080000
   1994   1996     1   0.10969 276646.080000
   1997   1998     1   0.10969 276646.080000
   1997   1999     1   0.10969 276646.080000
   2002   2003     1   0.10969 276646.080000
   2002   2004     1   0.10969 276646.080000
   2005   2006     1   0.10969 276646.080000
   2005   2007     1   0.10969 276646.080000
   2008   2009     1   0.10969 276646.080000
   2008   2010     1   0.10969 276646.080000
   2011   2012     1   0.10969 276646.080000
   2011   2013     1   0.10969 276646.080000
   2014   2015     1   0.10969 276646.080000
   2014   2016     1   0.10969 276646.080000
   2017   2018     1   0.10969 276646.080000
   2017   2019     1   0.10969 276646.080000
   2020   2021     1   0.10969 276646.080000
   2020   2022     1   0.10969 276646.080000
   2023   2024     1   0.10969 276646.080000
   2023   2025     1   0.10969 276646.080000
   2026   2027     1   0.10969 276646.080000
   2026   2028     1   0.10969 276646.080000
   2031   2032     1   0.10969 276646.080000
   2031   2033     1   0.10969 276646.080000
   2034   2035     1   0.10969 276646.080000
   2034   2036     1   0.10969 276646.080000
   2037   2038     1   0.10969 276646.080000
   2037   2039     1   0.10969 276646.080000
   2040   2041     1   0.10969 276646.080000
   2040   2042     1   0.10969 276646.080000
   2043   2044     1   0.10969 276646.080000
   2043   2045     1   0.10969 276646.080000
   2046   2047     1   0.10969 276646.080000
   2046   2048     1   0.10969 276646.080000
   2049   2050     1   0.10969 276646.080000
   2049   2051     1   0.10969 276646.080000
   2052   2053     1   0.10969 276646.080000
   2052   2054     1   0.10969 276646.080000
   2055   2056     1   0.10969 276646.080000
   2055   2057     1   0.10969 276646.080000
   2060   2061     1   0.10969 276646.080000
   2060   2062     1   0.10969 276646.080000
   2063   2064     1   0.10969 276646.080000
   2063   2065     1   0.10969 276646.080000
   2066   2067     1   0.10969 276646.080000
   2066   2068     1   0.10969 276646.080000
   2069   2070     1   0.10969 276646.080000
   2069   2071     1   0.10969 276646.080000
   2072   2073     1   0.10969 276646.080000
   2072   2074     1   0.10969 276646.080000
   2075   2076     1   0.10969 276646.080000
   2075   2077     1   0.10969 276646.080000
   2078   2079     1   0.10969 276646.080000
   2078   2080     1   0.10969 276646.080000
   2081   2082     1   0.10969 276646.080000
   2081   2083     1   0.10969 276646.080000
   2084   2085     1   0.10969 276646.080000
   2084   2086     1   0.10969 276646.080000
   2089   2090     1   0.10969 276646.080000
   2089   2091     1   0.10969 276646.080000
   2092   2093     1   0.10969 276646.080000
   2092   2094     1   0.10969 276646.080000
   2095   2096     1   0.10969 276646.080000
   2095   2097     1   0.10969 276646.080000
   2098   2099     1   0.10969 276646.080000
   2098   2100     1   0.10969 276646.080000
   2101   2102     1   0.10969 276646.080000
   2101   2103     1   0.10969 276646.080000
   2104   2105     1   0.10969 276646.080000
   2104   2106     1   0.10969 276646.080000
   2107   2108     1   0.10969 276646.080000
   2107   2109     1   0.10969 276646.080000
   2110   2111     1   0.10969 276646.080000
   2110   2112     1   0.10969 276646.080000
   2113   2114     1   0.10969 276646.080000
   2113   2115     1   0.10969 276646.080000
   2118   2119     1   0.10969 276646.080000
   2118   2120     1   0.10969 276646.080000
   2121   2122     1   0.10969 276646.080000
   2121   2123     1   0.10969 276646.080000
   2124   2125     1   0.10969 276646.080000
   2124   2126     1   0.10969 276646.080000
   2127   2128     1   0.10969 276646.080000
   2127   2129     1   0.10969 276646.080000
   2130   2131     1   0.10969 276646.080000
   2130   2132     1   0.10969 276646.080000
   2133   2134     1   0.10969 276646.080000
   2133   2135     1   0.10969 276646.080000
   2136   2137     1   0.10969 276646.080000
   2136   2138     1   0.10969 276646.080000
   2139   2140     1   0.10969 276646.080000
   2139   2141     1   0.10969 276646.080000
   2142   2143     1   0.10969 276646.080000
   2142   2144     1   0.10969 276646.080000
   2147   2148     1   0.10969 276646.080000
   2147   2149     1   0.10969 276646.080000
   2150   2151     1   0.10969 276646.080000
   2150   2152     1   0.10969 276646.080000
   2153   2154     1   0.10969 276646.080000
   2153   2155     1   0.10969 276646.080000
   2156   2157     1   0.10969 276646.080000
   2156   2158     1   0.10969 276646.080000
   2159   2160     1   0.10969 276646.080000
   2159   2161     1   0.10969 276646.080000
   2162   2163     1   0.10969 276646.080000
   2162   2164     1   0.10969 276646.080000
   2165   2166     1   0.10969 276646.080000
   2165   2167     1   0.10969 276646.080000
   2168   2169     1   0.10969 276646.080000
   2168   2170     1   0.10969 276646.080000
   2171   2172     1   0.10969 276646.080000
   2171   2173     1   0.10969 276646.080000
   2176   2177     1   0.10969 276646.080000
   2176   2178     1   0.10969 276646.080000
   2179   2180     1   0.10969 276646.080000
   2179   2181     1   0.10969 276646.080000
   2182   2183     1   0.10969 276646.080000
   2182   2184     1   0.10969 276646.080000
   2185   2186     1   0.10969 276646.080000
   2185   2187     1   0.10969 276646.080000
   2188   2189     1   0.10969 276646.080000
   2188   2190     1   0.10969 276646.080000
   2191   2192     1   0.10969 276646.080000
   2191   2193     1   0.10969 276646.080000
   2194   2195     1   0.10969 276646.080000
   2194   2196     1   0.10969 276646.080000
   2197   2198     1   0.10969 276646.080000
   2197   2199     1   0.10969 276646.080000
   2200   2201     1   0.10969 276646.080000
   2200   2202     1   0.10969 276646.080000
   2205   2206     1   0.10969 276646.080000
   2205   2207     1   0.10969 276646.080000
   2208   2209     1   0.10969 276646.080000
   2208   2210     1   0.10969 276646.080000
   2211   2212     1   0.10969 276646.080000
   2211   2213     1   0.10969 276646.080000
   2214   2215     1   0.10969 276646.080000
   2214   2216     1   0.10969 276646.080000
   2217   2218     1   0.10969 276646.080000
   2217   2219     1   0.10969 276646.080000
   2220   2221     1   0.10969 276646.080000
   2220   2222     1   0.10969 276646.080000
   2223   2224     1   0.10969 276646.080000
   2223   2225     1   0.10969 276646.080000
   2226   2227     1   0.10969 276646.080000
   2226   2228     1   0.10969 276646.080000
   2229   2230     1   0.10969 276646.080000
   2229   2231     1   0.10969 276646.080000
   2234   2235     1   0.10969 276646.080000
   2234   2236     1   0.10969 276646.080000
   2237   2238     1   0.10969 276646.080000
   2237   2239     1   0.10969 276646.080000
   2240   2241     1   0.10969 276646.080000
   2240   2242     1   0.10969 276646.080000
   2243   2244     1   0.10969 276646.080000
   2243   2245     1   0.10969 276646.080000
   2246   2247     1   0.10969 276646.080000
   2246   2248     1   0.10969 276646.080000
   2249   2250     1   0.10969 276646.080000
   2249   2251     1   0.10969 276646.080000
   2252   2253     1   0.10969 276646.080000
   2252   2254     1   0.10969 276646.080000
   2255   2256     1   0.10969 276646.080000
   2255   2257     1   0.10969 276646.080000
   2258   2259     1   0.10969 276646.080000
   2258   2260     1   0.10969 276646.080000
   2263   2264     1   0.10969 276646.080000
   2263   2265     1   0.10969 276646.080000
   2266   2267     1   0.10969 276646.080000
   2266   2268     1   0.10969 276646.080000
   2269   2270     1   0.10969 276646.080000
   2269   2271     1   0.10969 276646.080000
   2272   2273     1   0.10969 276646.080000
   2272   2274     1   0.10969 276646.080000
   2275   2276     1   0.10969 276646.080000
   2275   2277     1   0.10969 276646.080000
   2278   2279     1   0.10969 276646.080000
   2278   2280     1   0.10969 276646.080000
   2281   2282     1   0.10969 276646.080000
   2281   2283     1   0.10969 276646.080000
   2284   2285     1   0.10969 276646.080000
   2284   2286     1   0.10969 276646.080000
   2287   2288     1   0.10969 276646.080000
   2287   2289     1   0.10969 276646.080000
   2292   2293     1   0.10969 276646.080000
   2292   2294     1   0.10969 276646.080000
   2295   2296     1   0.10969 276646.080000
   2295   2297     1   0.10969 276646.080000
   2298   2299     1   0.10969 276646.080000
   2298   2300     1   0.10969 276646.080000
   2301   2302     1   0.10969 276646.080000
   2301   2303     1   0.10969 276646.080000
   2304   2305     1   0.10969 276646.080000
   2304   2306     1   0.10969 276646.080000
   2307   2308     1   0.10969 276646.080000
   2307   2309     1   0.10969 276646.080000
   2310   2311     1   0.10969 276646.080000
   2310   2312     1   0.10969 276646.080000
   2313   2314     1   0.10969 276646.080000
   2313   2315     1   0.10969 276646.080000
   2316   2317     1   0.10969 276646.080000
   2316   2318     1   0.10969 276646.080000
   2321   2322     1   0.10969 276646.080000
   2321   2323     1   0.10969 276646.080000
   2324   2325     1   0.10969 276646.080000
   2324   2326     1   0.10969 276646.080000
   2327   2328     1   0.10969 276646.080000
   2327   2329     1   0.10969 276646.080000
   2330   2331     1   0.10969 276646.080000
   2330   2332     1   0.10969 276646.080000
   2333   2334     1   0.10969 276646.080000
   2333   2335     1   0.10969 276646.080000
   2336   2337     1   0.10969 276646.080000
   2336   2338     1   0.10969 276646.080000
   2339   2340     1   0.10969 276646.080000
   2339   2341     1   0.10969 276646.080000
   2342   2343     1   0.10969 276646.080000
   2342   2344     1   0.10969 276646.080000
   2345   2346     1   0.10969 276646.080000
   2345   2347     1   0.10969 276646.080000
   2350   2351     1   0.10969 276646.080000
   2350   2352     1   0.10969 276646.080000
   2353   2354     1   0.10969 276646.080000
   2353   2355     1   0.10969 276646.080000
   2356   2357     1   0.10969 276646.080000
   2356   2358     1   0.10969 276646.080000
   2359   2360     1   0.10969 276646.080000
   2359   2361     1   0.10969 276646.080000
   2362   2363     1   0.10969 276646.080000
   2362   2364     1   0.10969 276646.080000
   2365   2366     1   0.10969 276646.080000
   2365   2367     1   0.10969 276646.080000
   2368   2369     1   0.10969 276646.080000
   2368   2370     1   0.10969 276646.080000
   2371   2372     1   0.10969 276646.080000
   2371   2373     1   0.10969 276646.080000
   2374   2375     1   0.10969 276646.080000
   2374   2376     1   0.10969 276646.080000
   2379   2380     1   0.10969 276646.080000
   2379   2381     1   0.10969 276646.080000
   2382   2383     1   0.10969 276646.080000
   2382   2384     1   0.10969 276646.080000
   2385   2386     1   0.10969 276646.080000
   2385   2387     1   0.10969 276646.080000
   2388   2389     1   0.10969 276646.080000
   2388   2390     1   0.10969 276646.080000
   2391   2392     1   0.10969 276646.080000
   2391   2393     1   0.10969 276646.080000
   2394   2395     1   0.10969 276646.080000
   2394   2396     1   0.10969 276646.080000
   2397   2398     1   0.10969 276646.080000
   2397   2399     1   0.10969 276646.080000
   2400   2401     1   0.10969 276646.080000
   2400   2402     1   0.10969 276646.080000
   2403   2404     1   0.10969 276646.080000
   2403   2405     1   0.10969 276646.080000
   2408   2409     1   0.10969 276646.080000
   2408   2410     1   0.10969 276646.080000
   2411   2412     1   0.10969 276646.080000
   2411   2413     1   0.10969 276646.080000
   2414   2415     1   0.10969 276646.080000
   2414   2416     1   0.10969 276646.080000
   2417   2418     1   0.10969 276646.080000
   2417   2419     1   0.10969 276646.080000
   2420   2421     1   0.10969 276646.080000
   2420   2422     1   0.10969 276646.080000
   2423   2424     1   0.10969 276646.080000
   2423   2425     1   0.10969 276646.080000
   2426   2427     1   0.10969 276646.080000
   2426   2428     1   0.10969 276646.080000
   2429   2430     1   0.10969 276646.080000
   2429   2431     1   0.10969 276646.080000
   2432   2433     1   0.10969 276646.080000
   2432   2434     1   0.10969 276646.080000
   2437   2438     1   0.10969 276646.080000
   2437   2439     1   0.10969 276646.080000
   2440   2441     1   0.10969 276646.080000
   2440   2442     1   0.10969 276646.080000
   2443   2444     1   0.10969 276646.080000
   2443   2445     1   0.10969 276646.080000
   2446   2447     1   0.10969 276646.080000
   2446   2448     1   0.10969 276646.080000
   2449   2450     1   0.10969 276646.080000
   2449   2451     1   0.10969 276646.080000
   2452   2453     1   0.10969 276646.080000
   2452   2454     1   0.10969 276646.080000
   2455   2456     1   0.10969 276646.080000
   2455   2457     1   0.10969 276646.080000
   2458   2459     1   0.10969 276646.080000
   2458   2460     1   0.10969 276646.080000
   2461   2462     1   0.10969 276646.080000
   2461   2463     1   0.10969 276646.080000
   2466   2467     1   0.10969 276646.080000
   2466   2468     1   0.10969 276646.080000
   2469   2470     1   0.10969 276646.080000
   2469   2471     1   0.10969 276646.080000
   2472   2473     1   0.10969 276646.080000
   2472   2474     1   0.10969 276646.080000
   2475   2476     1   0.10969 276646.080000
   2475   2477     1   0.10969 276646.080000
   2478   2479     1   0.10969 276646.080000
   2478   2480     1   0.10969 276646.080000
   2481   2482     1   0.10969 276646.080000
   2481   2483     1   0.10969 276646.080000
   2484   2485     1   0.10969 276646.080000
   2484   2486     1   0.10969 276646.080000
   2487   2488     1   0.10969 276646.080000
   2487   2489     1   0.10969 276646.080000
   2490   2491     1   0.10969 276646.080000
   2490   2492     1   0.10969 276646.080000
   2495   2496     1   0.10969 276646.080000
   2495   2497     1   0.10969 276646.080000
   2498   2499     1   0.10969 276646.080000
   2498   2500     1   0.10969 276646.080000
   2501   2502     1   0.10969 276646.080000
   2501   2503     1   0.10969 276646.080000
   2504   2505     1   0.10969 276646.080000
   2504   2506     1   0.10969 276646.080000
   2507   2508     1   0.10969 276646.080000
   2507   2509     1   0.10969 276646.080000
   2510   2511     1   0.10969 276646.080000
   2510   2512     1   0.10969 276646.080000
   2513   2514     1   0.10969 276646.080000
   2513   2515     1   0.10969 276646.080000
   2516   2517     1   0.10969 276646.080000
   2516   2518     1   0.10969 276646.080000
   2519   2520     1   0.10969 276646.080000
   2519   2521     1   0.10969 276646.080000
   2524   2525     1   0.10969 276646.080000
   2524   2526     1   0.10969 276646.080000
   2527   2528     1   0.10969 276646.080000
   2527   2529     1   0.10969 276646.080000
   2530   2531     1   0.10969 276646.080000
   2530   2532     1   0.10969 276646.080000
   2533   2534     1   0.10969 276646.080000
   2533   2535     1   0.10969 276646.080000
   2536   2537     1   0.10969 276646.080000
   2536   2538     1   0.10969 276646.080000
   2539   2540     1   0.10969 276646.080000
   2539   2541     1   0.10969 276646.080000
   2542   2543     1   0.10969 276646.080000
   2542   2544     1   0.10969 276646.080000
   2545   2546     1   0.10969 276646.080000
   2545   2547     1   0.10969 276646.080000
   2548   2549     1   0.10969 276646.080000
   2548   2550     1   0.10969 276646.080000
   2553   2554     1   0.10969 276646.080000
   2553   2555     1   0.10969 276646.080000
   2556   2557     1   0.10969 276646.080000
   2556   2558     1   0.10969 276646.080000
   2559   2560     1   0.10969 276646.080000
   2559   2561     1   0.10969 276646.080000
   2562   2563     1   0.10969 276646.080000
   2562   2564     1   0.10969 276646.080000
   2565   2566     1   0.10969 276646.080000
   2565   2567     1   0.10969 276646.080000
   2568   2569     1   0.10969 276646.080000
   2568   2570     1   0.10969 276646.080000
   2571   2572     1   0.10969 276646.080000
   2571   2573     1   0.10969 276646.080000
   2574   2575     1   0.10969 276646.080000
   2574   2576     1   0.10969 276646.080000
   2577   2578     1   0.10969 276646.080000
   2577   2579     1   0.10969 276646.080000
   2582   2583     1   0.10969 276646.080000
   2582   2584     1   0.10969 276646.080000
   2585   2586     1   0.10969 276646.080000
   2585   2587     1   0.10969 276646.080000
   2588   2589     1   0.10969 276646.080000
   2588   2590     1   0.10969 276646.080000
   2591   2592     1   0.10969 276646.080000
   2591   2593     1   0.10969 276646.080000
   2594   2595     1   0.10969 276646.080000
   2594   2596     1   0.10969 276646.080000
   2597   2598     1   0.10969 276646.080000
   2597   2599     1   0.10969 276646.080000
   2600   2601     1   0.10969 276646.080000
   2600   2602     1   0.10969 276646.080000
   2603   2604     1   0.10969 276646.080000
   2603   2605     1   0.10969 276646.080000
   2606   2607     1   0.10969 276646.080000
   2606   2608     1   0.10969 276646.080000
   2611   2612     1   0.10969 276646.080000
   2611   2613     1   0.10969 276646.080000
   2614   2615     1   0.10969 276646.080000
   2614   2616     1   0.10969 276646.080000
   2617   2618     1   0.10969 276646.080000
   2617   2619     1   0.10969 276646.080000
   2620   2621     1   0.10969 276646.080000
   2620   2622     1   0.10969 276646.080000
   2623   2624     1   0.10969 276646.080000
   2623   2625     1   0.10969 276646.080000
   2626   2627     1   0.10969 276646.080000
   2626   2628     1   0.10969 276646.080000
   2629   2630     1   0.10969 276646.080000
   2629   2631     1   0.10969 276646.080000
   2632   2633     1   0.10969 276646.080000
   2632   2634     1   0.10969 276646.080000
   2635   2636     1   0.10969 276646.080000
   2635   2637     1   0.10969 276646.080000
   2640   2641     1   0.10969 276646.080000
   2640   2642     1   0.10969 276646.080000
   2643   2644     1   0.10969 276646.080000
   2643   2645     1   0.10969 276646.080000
   2646   2647     1   0.10969 276646.080000
   2646   2648     1   0.10969 276646.080000
   2649   2650     1   0.10969 276646.080000
   2649   2651     1   0.10969 276646.080000
   2652   2653     1   0.10969 276646.080000
   2652   2654     1   0.10969 276646.080000
   2655   2656     1   0.10969 276646.080000
   2655   2657     1   0.10969 276646.080000
   2658   2659     1   0.10969 276646.080000
   2658   2660     1   0.10969 276646.080000
   2661   2662     1   0.10969 276646.080000
   2661   2663     1   0.10969 276646.080000
   2664   2665     1   0.10969 276646.080000
   2664   2666     1   0.10969 276646.080000
   2669   2670     1   0.10969 276646.080000
   2669   2671     1   0.10969 276646.080000
   2672   2673     1   0.10969 276646.080000
   2672   2674     1   0.10969 276646.080000
   2675   2676     1   0.10969 276646.080000
   2675   2677     1   0.10969 276646.080000
   2678   2679     1   0.10969 276646.080000
   2678   2680     1   0.10969 276646.080000
   2681   2682     1   0.10969 276646.080000
   2681   2683     1   0.10969 276646.080000
   2684   2685     1   0.10969 276646.080000
   2684   2686     1   0.10969 276646.080000
   2687   2688     1   0.10969 276646.080000
   2687   2689     1   0.10969 276646.080000
   2690   2691     1   0.10969 276646.080000
   2690   2692     1   0.10969 276646.080000
   2693   2694     1   0.10969 276646.080000
   2693   2695     1   0.10969 276646.080000
   2698   2699     1   0.10969 276646.080000
   2698   2700     1   0.10969 276646.080000
   2701   2702     1   0.10969 276646.080000
   2701   2703     1   0.10969 276646.080000
   2704   2705     1   0.10969 276646.080000
   2704   2706     1   0.10969 276646.080000
   2707   2708     1   0.10969 276646.080000
   2707   2709     1   0.10969 276646.080000
   2710   2711     1   0.10969 276646.080000
   2710   2712     1   0.10969 276646.080000
   2713   2714     1   0.10969 276646.080000
   2713   2715     1   0.10969 276646.080000
   2716   2717     1   0.10969 276646.080000
   2716   2718     1   0.10969 276646.080000
   2719   2720     1   0.10969 276646.080000
   2719   2721     1   0.10969 276646.080000
   2722   2723     1   0.10969 276646.080000
   2722   2724     1   0.10969 276646.080000
   2727   2728     1   0.10969 276646.080000
   2727   2729     1   0.10969 276646.080000
   2730   2731     1   0.10969 276646.080000
   2730   2732     1   0.10969 276646.080000
   2733   2734     1   0.10969 276646.080000
   2733   2735     1   0.10969 276646.080000
   2736   2737     1   0.10969 276646.080000
   2736   2738     1   0.10969 276646.080000
   2739   2740     1   0.10969 276646.080000
   2739   2741     1   0.10969 276646.080000
   2742   2743     1   0.10969 276646.080000
   2742   2744     1   0.10969 276646.080000
   2745   2746     1   0.10969 276646.080000
   2745   2747     1   0.10969 276646.080000
   2748   2749     1   0.10969 276646.080000
   2748   2750     1   0.10969 276646.080000
   2751   2752     1   0.10969 276646.080000
   2751   2753     1   0.10969 276646.080000
   2756   2757     1   0.10969 276646.080000
   2756   2758     1   0.10969 276646.080000
   2759   2760     1   0.10969 276646.080000
   2759   2761     1   0.10969 276646.080000
   2762   2763     1   0.10969 276646.080000
   2762   2764     1   0.10969 276646.080000
   2765   2766     1   0.10969 276646.080000
   2765   2767     1   0.10969 276646.080000
   2768   2769     1   0.10969 276646.080000
   2768   2770     1   0.10969 276646.080000
   2771   2772     1   0.10969 276646.080000
   2771   2773     1   0.10969 276646.080000
   2774   2775     1   0.10969 276646.080000
   2774   2776     1   0.10969 276646.080000
   2777   2778     1   0.10969 276646.080000
   2777   2779     1   0.10969 276646.080000
   2780   2781     1   0.10969 276646.080000
   2780   2782     1   0.10969 276646.080000
   2785   2786     1   0.10969 276646.080000
   2785   2787     1   0.10969 276646.080000
   2788   2789     1   0.10969 276646.080000
   2788   2790     1   0.10969 276646.080000
   2791   2792     1   0.10969 276646.080000
   2791   2793     1   0.10969 276646.080000
   2794   2795     1   0.10969 276646.080000
   2794   2796     1   0.10969 276646.080000
   2797   2798     1   0.10969 276646.080000
   2797   2799     1   0.10969 276646.080000
   2800   2801     1   0.10969 276646.080000
   2800   2802     1   0.10969 276646.080000
   2803   2804     1   0.10969 276646.080000
   2803   2805     1   0.10969 276646.080000
   2806   2807     1   0.10969 276646.080000
   2806   2808     1   0.10969 276646.080000
   2809   2810     1   0.10969 276646.080000
   2809   2811     1   0.10969 276646.080000
   2814   2815     1   0.10969 276646.080000
   2814   2816     1   0.10969 276646.080000
   2817   2818     1   0.10969 276646.080000
   2817   2819     1   0.10969 276646.080000
   2820   2821     1   0.10969 276646.080000
   2820   2822     1   0.10969 276646.080000
   2823   2824     1   0.10969 276646.080000
   2823   2825     1   0.10969 276646.080000
   2826   2827     1   0.10969 276646.080000
   2826   2828     1   0.10969 276646.080000
   2829   2830     1   0.10969 276646.080000
   2829   2831     1   0.10969 276646.080000
   2832   2833     1   0.10969 276646.080000
   2832   2834     1   0.10969 276646.080000
   2835   2836     1   0.10969 276646.080000
   2835   2837     1   0.10969 276646.080000
   2838   2839     1   0.10969 276646.080000
   2838   2840     1   0.10969 276646.080000
   2843   2844     1   0.10969 276646.080000
   2843   2845     1   0.10969 276646.080000
   2846   2847     1   0.10969 276646.080000
   2846   2848     1   0.10969 276646.080000
   2849   2850     1   0.10969 276646.080000
   2849   2851     1   0.10969 276646.080000
   2852   2853     1   0.10969 276646.080000
   2852   2854     1   0.10969 276646.080000
   2855   2856     1   0.10969 276646.080000
   2855   2857     1   0.10969 276646.080000
   2858   2859     1   0.10969 276646.080000
   2858   2860     1   0.10969 276646.080000
   2861   2862     1   0.10969 276646.080000
   2861   2863     1   0.10969 276646.080000
   2864   2865     1   0.10969 276646.080000
   2864   2866     1   0.10969 276646.080000
   2867   2868     1   0.10969 276646.080000
   2867   2869     1   0.10969 276646.080000
   2872   2873     1   0.10969 276646.080000
   2872   2874     1   0.10969 276646.080000
   2875   2876     1   0.10969 276646.080000
   2875   2877     1   0.10969 276646.080000
   2878   2879     1   0.10969 276646.080000
   2878   2880     1   0.10969 276646.080000
   2881   2882     1   0.10969 276646.080000
   2881   2883     1   0.10969 276646.080000
   2884   2885     1   0.10969 276646.080000
   2884   2886     1   0.10969 276646.080000
   2887   2888     1   0.10969 276646.080000
   2887   2889     1   0.10969 276646.080000
   2890   2891     1   0.10969 276646.080000
   2890   2892     1   0.10969 276646.080000
   2893   2894     1   0.10969 276646.080000
   2893   2895     1   0.10969 276646.080000
   2896   2897     1   0.10969 276646.080000
   2896   2898     1   0.10969 276646.080000
   2901   2902     1   0.10969 276646.080000
   2901   2903     1   0.10969 276646.080000
   2904   2905     1   0.10969 276646.080000
   2904   2906     1   0.10969 276646.080000
   2907   2908     1   0.10969 276646.080000
   2907   2909     1   0.10969 276646.080000
   2910   2911     1   0.10969 276646.080000
   2910   2912     1   0.10969 276646.080000
   2913   2914     1   0.10969 276646.080000
   2913   2915     1   0.10969 276646.080000
   2916   2917     1   0.10969 276646.080000
   2916   2918     1   0.10969 276646.080000
   2919   2920     1   0.10969 276646.080000
   2919   2921     1   0.10969 276646.080000
   2922   2923     1   0.10969 276646.080000
   2922   2924     1   0.10969 276646.080000
   2925   2926     1   0.10969 276646.080000
   2925   2927     1   0.10969 276646.080000
   2930   2931     1   0.10969 276646.080000
   2930   2932     1   0.10969 276646.080000
   2933   2934     1   0.10969 276646.080000
   2933   2935     1   0.10969 276646.080000
   2936   2937     1   0.10969 276646.080000
   2936   2938     1   0.10969 276646.080000
   2939   2940     1   0.10969 276646.080000
   2939   2941     1   0.10969 276646.080000
   2942   2943     1   0.10969 276646.080000
   2942   2944     1   0.10969 276646.080000
   2945   2946     1   0.10969 276646.080000
   2945   2947     1   0.10969 276646.080000
   2948   2949     1   0.10969 276646.080000
   2948   2950     1   0.10969 276646.080000
   2951   2952     1   0.10969 276646.080000
   2951   2953     1   0.10969 276646.080000
   2954   2955     1   0.10969 276646.080000
   2954   2956     1   0.10969 276646.080000
   2959   2960     1   0.10969 276646.080000
   2959   2961     1   0.10969 276646.080000
   2962   2963     1   0.10969 276646.080000
   2962   2964     1   0.10969 276646.080000
   2965   2966     1   0.10969 276646.080000
   2965   2967     1   0.10969 276646.080000
   2968   2969     1   0.10969 276646.080000
   2968   2970     1   0.10969 276646.080000
   2971   2972     1   0.10969 276646.080000
   2971   2973     1   0.10969 276646.080000
   2974   2975     1   0.10969 276646.080000
   2974   2976     1   0.10969 276646.080000
   2977   2978     1   0.10969 276646.080000
   2977   2979     1   0.10969 276646.080000
   2980   2981     1   0.10969 276646.080000
   2980   2982     1   0.10969 276646.080000
   2983   2984     1   0.10969 276646.080000
   2983   2985     1   0.10969 276646.080000
   2988   2989     1   0.10969 276646.080000
   2988   2990     1   0.10969 276646.080000
   2991   2992     1   0.10969 276646.080000
   2991   2993     1   0.10969 276646.080000
   2994   2995     1   0.10969 276646.080000
   2994   2996     1   0.10969 276646.080000
   2997   2998     1   0.10969 276646.080000
   2997   2999     1   0.10969 276646.080000
   3000   3001     1   0.10969 276646.080000
   3000   3002     1   0.10969 276646.080000
   3003   3004     1   0.10969 276646.080000
   3003   3005     1   0.10969 276646.080000
   3006   3007     1   0.10969 276646.080000
   3006   3008     1   0.10969 276646.080000
   3009   3010     1   0.10969 276646.080000
   3009   3011     1   0.10969 276646.080000
   3012   3013     1   0.10969 276646.080000
   3012   3014     1   0.10969 276646.080000
   3017   3018     1   0.10969 276646.080000
   3017   3019     1   0.10969 276646.080000
   3020   3021     1   0.10969 276646.080000
   3020   3022     1   0.10969 276646.080000
   3023   3024     1   0.10969 276646.080000
   3023   3025     1   0.10969 276646.080000
   3026   3027     1   0.10969 276646.080000
   3026   3028     1   0.10969 276646.080000
   3029   3030     1   0.10969 276646.080000
   3029   3031     1   0.10969 276646.080000
   3032   3033     1   0.10969 276646.080000
   3032   3034     1   0.10969 276646.080000
   3035   3036     1   0.10969 276646.080000
   3035   3037     1   0.10969 276646.080000
   3038   3039     1   0.10969 276646.080000
   3038   3040     1   0.10969 276646.080000
   3041   3042     1   0.10969 276646.080000
   3041   3043     1   0.10969 276646.080000
   3046   3047     1   0.10969 276646.080000
   3046   3048     1   0.10969 276646.080000
   3049   3050     1   0.10969 276646.080000
   3049   3051     1   0.10969 276646.080000
   3052   3053     1   0.10969 276646.080000
   3052   3054     1   0.10969 276646.080000
   3055   3056     1   0.10969 276646.080000
   3055   3057     1   0.10969 276646.080000
   3058   3059     1   0.10969 276646.080000
   3058   3060     1   0.10969 276646.080000
   3061   3062     1   0.10969 276646.080000
   3061   3063     1   0.10969 276646.080000
   3064   3065     1   0.10969 276646.080000
   3064   3066     1   0.10969 276646.080000
   3067   3068     1   0.10969 276646.080000
   3067   3069     1   0.10969 276646.080000
   3070   3071     1   0.10969 276646.080000
   3070   3072     1   0.10969 276646.080000
   3075   3076     1   0.10969 276646.080000
   3075   3077     1   0.10969 276646.080000
   3078   3079     1   0.10969 276646.080000
   3078   3080     1   0.10969 276646.080000
   3081   3082     1   0.10969 276646.080000
   3081   3083     1   0.10969 276646.080000
   3084   3085     1   0.10969 276646.080000
   3084   3086     1   0.10969 276646.080000
   3087   3088     1   0.10969 276646.080000
   3087   3089     1   0.10969 276646.080000
   3090   3091     1   0.10969 276646.080000
   3090   3092     1   0.10969 276646.080000
   3093   3094     1   0.10969 276646.080000
   3093   3095     1   0.10969 276646.080000
   3096   3097     1   0.10969 276646.080000
   3096   3098     1   0.10969 276646.080000
   3099   3100     1   0.10969 276646.080000
   3099   3101     1   0.10969 276646.080000
   3104   3105     1   0.10969 276646.080000
   3104   3106     1   0.10969 276646.080000
   3107   3108     1   0.10969 276646.080000
   3107   3109     1   0.10969 276646.080000
   3110   3111     1   0.10969 276646.080000
   3110   3112     1   0.10969 276646.080000
   3113   3114     1   0.10969 276646.080000
   3113   3115     1   0.10969 276646.080000
   3116   3117     1   0.10969 276646.080000
   3116   3118     1   0.10969 276646.080000
   3119   3120     1   0.10969 276646.080000
   3119   3121     1   0.10969 276646.080000
   3122   3123     1   0.10969 276646.080000
   3122   3124     1   0.10969 276646.080000
   3125   3126     1   0.10969 276646.080000
   3125   3127     1   0.10969 276646.080000
   3128   3129     1   0.10969 276646.080000
   3128   3130     1   0.10969 276646.080000
   3133   3134     1   0.10969 276646.080000
   3133   3135     1   0.10969 276646.080000
   3136   3137     1   0.10969 276646.080000
   3136   3138     1   0.10969 276646.080000
   3139   3140     1   0.10969 276646.080000
   3139   3141     1   0.10969 276646.080000
   3142   3143     1   0.10969 276646.080000
   3142   3144     1   0.10969 276646.080000
   3145   3146     1   0.10969 276646.080000
   3145   3147     1   0.10969 276646.080000
   3148   3149     1   0.10969 276646.080000
   3148   3150     1   0.10969 276646.080000
   3151   3152     1   0.10969 276646.080000
   3151   3153     1   0.10969 276646.080000
   3154   3155     1   0.10969 276646.080000
   3154   3156     1   0.10969 276646.080000
   3157   3158     1   0.10969 276646.080000
   3157   3159     1   0.10969 276646.080000
   3162   3163     1   0.10969 276646.080000
   3162   3164     1   0.10969 276646.080000
   3165   3166     1   0.10969 276646.080000
   3165   3167     1   0.10969 276646.080000
   3168   3169     1   0.10969 276646.080000
   3168   3170     1   0.10969 276646.080000
   3171   3172     1   0.10969 276646.080000
   3171   3173     1   0.10969 276646.080000
   3174   3175     1   0.10969 276646.080000
   3174   3176     1   0.10969 276646.080000
   3177   3178     1   0.10969 276646.080000
   3177   3179     1   0.10969 276646.080000
   3180   3181     1   0.10969 276646.080000
   3180   3182     1   0.10969 276646.080000
   3183   3184     1   0.10969 276646.080000
   3183   3185     1   0.10969 276646.080000
   3186   3187     1   0.10969 276646.080000
   3186   3188     1   0.10969 276646.080000
   3191   3192     1   0.10969 276646.080000
   3191   3193     1   0.10969 276646.080000
   3194   3195     1   0.10969 276646.080000
   3194   3196     1   0.10969 276646.080000
   3197   3198     1   0.10969 276646.080000
   3197   3199     1   0.10969 276646.080000
   3200   3201     1   0.10969 276646.080000
   3200   3202     1   0.10969 276646.080000
   3203   3204     1   0.10969 276646.080000
   3203   3205     1   0.10969 276646.080000
   3206   3207     1   0.10969 276646.080000
   3206   3208     1   0.10969 276646.080000
   3209   3210     1   0.10969 276646.080000
   3209   3211     1   0.10969 276646.080000
   3212   3213     1   0.10969 276646.080000
   3212   3214     1   0.10969 276646.080000
   3215   3216     1   0.10969 276646.080000
   3215   3217     1   0.10969 276646.080000
   3220   3221     1   0.10969 276646.080000
   3220   3222     1   0.10969 276646.080000
   3223   3224     1   0.10969 276646.080000
   3223   3225     1   0.10969 276646.080000
   3226   3227     1   0.10969 276646.080000
   3226   3228     1   0.10969 276646.080000
   3229   3230     1   0.10969 276646.080000
   3229   3231     1   0.10969 276646.080000
   3232   3233     1   0.10969 276646.080000
   3232   3234     1   0.10969 276646.080000
   3235   3236     1   0.10969 276646.080000
   3235   3237     1   0.10969 276646.080000
   3238   3239     1   0.10969 276646.080000
   3238   3240     1   0.10969 276646.080000
   3241   3242     1   0.10969 276646.080000
   3241   3243     1   0.10969 276646.080000
   3244   3245     1   0.10969 276646.080000
   3244   3246     1   0.10969 276646.080000
   3249   3250     1   0.10969 276646.080000
   3249   3251     1   0.10969 276646.080000
   3252   3253     1   0.10969 276646.080000
   3252   3254     1   0.10969 276646.080000
   3255   3256     1   0.10969 276646.080000
   3255   3257     1   0.10969 276646.080000
   3258   3259     1   0.10969 276646.080000
   3258   3260     1   0.10969 276646.080000
   3261   3262     1   0.10969 276646.080000
   3261   3263     1   0.10969 276646.080000
   3264   3265     1   0.10969 276646.080000
   3264   3266     1   0.10969 276646.080000
   3267   3268     1   0.10969 276646.080000
   3267   3269     1   0.10969 276646.080000
   3270   3271     1   0.10969 276646.080000
   3270   3272     1   0.10969 276646.080000
   3273   3274     1   0.10969 276646.080000
   3273   3275     1   0.10969 276646.080000
   3278   3279     1   0.10969 276646.080000
   3278   3280     1   0.10969 276646.080000
   3281   3282     1   0.10969 276646.080000
   3281   3283     1   0.10969 276646.080000
   3284   3285     1   0.10969 276646.080000
   3284   3286     1   0.10969 276646.080000
   3287   3288     1   0.10969 276646.080000
   3287   3289     1   0.10969 276646.080000
   3290   3291     1   0.10969 276646.080000
   3290   3292     1   0.10969 276646.080000
   3293   3294     1   0.10969 276646.080000
   3293   3295     1   0.10969 276646.080000
   3296   3297     1   0.10969 276646.080000
   3296   3298     1   0.10969 276646.080000
   3299   3300     1   0.10969 276646.080000
   3299   3301     1   0.10969 276646.080000
   3302   3303     1   0.10969 276646.080000
   3302   3304     1   0.10969 276646.080000
   3307   3308     1   0.10969 276646.080000
   3307   3309     1   0.10969 276646.080000
   3310   3311     1   0.10969 276646.080000
   3310   3312     1   0.10969 276646.080000
   3313   3314     1   0.10969 276646.080000
   3313   3315     1   0.10969 276646.080000
   3316   3317     1   0.10969 276646.080000
   3316   3318     1   0.10969 276646.080000
   3319   3320     1   0.10969 276646.080000
   3319   3321     1   0.10969 276646.080000
   3322   3323     1   0.10969 276646.080000
   3322   3324     1   0.10969 276646.080000
   3325   3326     1   0.10969 276646.080000
   3325   3327     1   0.10969 276646.080000
   3328   3329     1   0.10969 276646.080000
   3328   3330     1   0.10969 276646.080000
   3331   3332     1   0.10969 276646.080000
   3331   3333     1   0.10969 276646.080000
   3336   3337     1   0.10969 276646.080000
   3336   3338     1   0.10969 276646.080000
   3339   3340     1   0.10969 276646.080000
   3339   3341     1   0.10969 276646.080000
   3342   3343     1   0.10969 276646.080000
   3342   3344     1   0.10969 276646.080000
   3345   3346     1   0.10969 276646.080000
   3345   3347     1   0.10969 276646.080000
   3348   3349     1   0.10969 276646.080000
   3348   3350     1   0.10969 276646.080000
   3351   3352     1   0.10969 276646.080000
   3351   3353     1   0.10969 276646.080000
   3354   3355     1   0.10969 276646.080000
   3354   3356     1   0.10969 276646.080000
   3357   3358     1   0.10969 276646.080000
   3357   3359     1   0.10969 276646.080000
   3360   3361     1   0.10969 276646.080000
   3360   3362     1   0.10969 276646.080000
   3365   3366     1   0.10969 276646.080000
   3365   3367     1   0.10969 276646.080000
   3368   3369     1   0.10969 276646.080000
   3368   3370     1   0.10969 276646.080000
   3371   3372     1   0.10969 276646.080000
   3371   3373     1   0.10969 276646.080000
   3374   3375     1   0.10969 276646.080000
   3374   3376     1   0.10969 276646.080000
   3377   3378     1   0.10969 276646.080000
   3377   3379     1   0.10969 276646.080000
   3380   3381     1   0.10969 276646.080000
   3380   3382     1   0.10969 276646.080000
   3383   3384     1   0.10969 276646.080000
   3383   3385     1   0.10969 276646.080000
   3386   3387     1   0.10969 276646.080000
   3386   3388     1   0.10969 276646.080000
   3389   3390     1   0.10969 276646.080000
   3389   3391     1   0.10969 276646.080000
   3394   3395     1   0.10969 276646.080000
   3394   3396     1   0.10969 276646.080000
   3397   3398     1   0.10969 276646.080000
   3397   3399     1   0.10969 276646.080000
   3400   3401     1   0.10969 276646.080000
   3400   3402     1   0.10969 276646.080000
   3403   3404     1   0.10969 276646.080000
   3403   3405     1   0.10969 276646.080000
   3406   3407     1   0.10969 276646.080000
   3406   3408     1   0.10969 276646.080000
   3409   3410     1   0.10969 276646.080000
   3409   3411     1   0.10969 276646.080000
   3412   3413     1   0.10969 276646.080000
   3412   3414     1   0.10969 276646.080000
   3415   3416     1   0.10969 276646.080000
   3415   3417     1   0.10969 276646.080000
   3418   3419     1   0.10969 276646.080000
   3418   3420     1   0.10969 276646.080000
   3423   3424     1   0.10969 276646.080000
   3423   3425     1   0.10969 276646.080000
   3426   3427     1   0.10969 276646.080000
   3426   3428     1   0.10969 276646.080000
   3429   3430     1   0.10969 276646.080000
   3429   3431     1   0.10969 276646.080000
   3432   3433     1   0.10969 276646.080000
   3432   3434     1   0.10969 276646.080000
   3435   3436     1   0.10969 276646.080000
   3435   3437     1   0.10969 276646.080000
   3438   3439     1   0.10969 276646.080000
   3438   3440     1   0.10969 276646.080000
   3441   3442     1   0.10969 276646.080000
   3441   3443     1   0.10969 276646.080000
   3444   3445     1   0.10969 276646.080000
   3444   3446     1   0.10969 276646.080000
   3447   3448     1   0.10969 276646.080000
   3447   3449     1   0.10969 276646.080000
   3452   3453     1   0.10969 276646.080000
   3452   3454     1   0.10969 276646.080000
   3455   3456     1   0.10969 276646.080000
   3455   3457     1   0.10969 276646.080000
   3458   3459     1   0.10969 276646.080000
   3458   3460     1   0.10969 276646.080000
   3461   3462     1   0.10969 276646.080000
   3461   3463     1   0.10969 276646.080000
   3464   3465     1   0.10969 276646.080000
   3464   3466     1   0.10969 276646.080000
   3467   3468     1   0.10969 276646.080000
   3467   3469     1   0.10969 276646.080000
   3470   3471     1   0.10969 276646.080000
   3470   3472     1   0.10969 276646.080000
   3473   3474     1   0.10969 276646.080000
   3473   3475     1   0.10969 276646.080000
   3476   3477     1   0.10969 276646.080000
   3476   3478     1   0.10969 276646.080000
   3481   3482     1   0.10969 276646.080000
   3481   3483     1   0.10969 276646.080000
   3484   3485     1   0.10969 276646.080000
   3484   3486     1   0.10969 276646.080000
   3487   3488     1   0.10969 276646.080000
   3487   3489     1   0.10969 276646.080000
   3490   3491     1   0.10969 276646.080000
   3490   3492     1   0.10969 276646.080000
   3493   3494     1   0.10969 276646.080000
   3493   3495     1   0.10969 276646.080000
   3496   3497     1   0.10969 276646.080000
   3496   3498     1   0.10969 276646.080000
   3499   3500     1   0.10969 276646.080000
   3499   3501     1   0.10969 276646.080000
   3502   3503     1   0.10969 276646.080000
   3502   3504     1   0.10969 276646.080000
   3505   3506     1   0.10969 276646.080000
   3505   3507     1   0.10969 276646.080000
   3510   3511     1   0.10969 276646.080000
   3510   3512     1   0.10969 276646.080000
   3513   3514     1   0.10969 276646.080000
   3513   3515     1   0.10969 276646.080000
   3516   3517     1   0.10969 276646.080000
   3516   3518     1   0.10969 276646.080000
   3519   3520     1   0.10969 276646.080000
   3519   3521     1   0.10969 276646.080000
   3522   3523     1   0.10969 276646.080000
   3522   3524     1   0.10969 276646.080000
   3525   3526     1   0.10969 276646.080000
   3525   3527     1   0.10969 276646.080000
   3528   3529     1   0.10969 276646.080000
   3528   3530     1   0.10969 276646.080000
   3531   3532     1   0.10969 276646.080000
   3531   3533     1   0.10969 276646.080000
   3534   3535     1   0.10969 276646.080000
   3534   3536     1   0.10969 276646.080000
   3539   3540     1   0.10969 276646.080000
   3539   3541     1   0.10969 276646.080000
   3542   3543     1   0.10969 276646.080000
   3542   3544     1   0.10969 276646.080000
   3545   3546     1   0.10969 276646.080000
   3545   3547     1   0.10969 276646.080000
   3548   3549     1   0.10969 276646.080000
   3548   3550     1   0.10969 276646.080000
   3551   3552     1   0.10969 276646.080000
   3551   3553     1   0.10969 276646.080000
   3554   3555     1   0.10969 276646.080000
   3554   3556     1   0.10969 276646.080000
   3557   3558     1   0.10969 276646.080000
   3557   3559     1   0.10969 276646.080000
   3560   3561     1   0.10969 276646.080000
   3560   3562     1   0.10969 276646.080000
   3563   3564     1   0.10969 276646.080000
   3563   3565     1   0.10969 276646.080000
   3568   3569     1   0.10969 276646.080000
   3568   3570     1   0.10969 276646.080000
   3571   3572     1   0.10969 276646.080000
   3571   3573     1   0.10969 276646.080000
   3574   3575     1   0.10969 276646.080000
   3574   3576     1   0.10969 276646.080000
   3577   3578     1   0.10969 276646.080000
   3577   3579     1   0.10969 276646.080000
   3580   3581     1   0.10969 276646.080000
   3580   3582     1   0.10969 276646.080000
   3583   3584     1   0.10969 276646.080000
   3583   3585     1   0.10969 276646.080000
   3586   3587     1   0.10969 276646.080000
   3586   3588     1   0.10969 276646.080000
   3589   3590     1   0.10969 276646.080000
   3589   3591     1   0.10969 276646.080000
   3592   3593     1   0.10969 276646.080000
   3592   3594     1   0.10969 276646.080000
   3597   3598     1   0.10969 276646.080000
   3597   3599     1   0.10969 276646.080000
   3600   3601     1   0.10969 276646.080000
   3600   3602     1   0.10969 276646.080000
   3603   3604     1   0.10969 276646.080000
   3603   3605     1   0.10969 276646.080000
   3606   3607     1   0.10969 276646.080000
   3606   3608     1   0.10969 276646.080000
   3609   3610     1   0.10969 276646.080000
   3609   3611     1   0.10969 276646.080000
   3612   3613     1   0.10969 276646.080000
   3612   3614     1   0.10969 276646.080000
   3615   3616     1   0.10969 276646.080000
   3615   3617     1   0.10969 276646.080000
   3618   3619     1   0.10969 276646.080000
   3618   3620     1   0.10969 276646.080000
   3621   3622     1   0.10969 276646.080000
   3621   3623     1   0.10969 276646.080000
   3626   3627     1   0.10969 276646.080000
   3626   3628     1   0.10969 276646.080000
   3629   3630     1   0.10969 276646.080000
   3629   3631     1   0.10969 276646.080000
   3632   3633     1   0.10969 276646.080000
   3632   3634     1   0.10969 276646.080000
   3635   3636     1   0.10969 276646.080000
   3635   3637     1   0.10969 276646.080000
   3638   3639     1   0.10969 276646.080000
   3638   3640     1   0.10969 276646.080000
   3641   3642     1   0.10969 276646.080000
   3641   3643     1   0.10969 276646.080000
   3644   3645     1   0.10969 276646.080000
   3644   3646     1   0.10969 276646.080000
   3647   3648     1   0.10969 276646.080000
   3647   3649     1   0.10969 276646.080000
   3650   3651     1   0.10969 276646.080000
   3650   3652     1   0.10969 276646.080000
   3654   3655     1   0.10969 276646.080000
   3654   3656     1   0.10969 276646.080000
   3657   3658     1   0.10969 276646.080000
   3657   3659     1   0.10969 276646.080000
   3660   3661     1   0.10969 276646.080000
   3660   3662     1   0.10969 276646.080000
   3663   3664     1   0.10190 328360.320000
   3663   3665     1   0.10190 328360.320000
   3667   3668     1   0.10969 276646.080000
   3667   3669     1   0.10969 276646.080000
   3670   3671     1   0.10969 276646.080000
   3670   3672     1   0.10969 276646.080000
   3673   3674     1   0.10969 276646.080000
   3673   3675     1   0.10969 276646.080000
   3676   3677     1   0.10190 328360.320000
   3676   3678     1   0.10190 328360.320000
   3680   3681     1   0.10969 276646.080000
   3680   3682     1   0.10969 276646.080000
   3683   3684     1   0.10969 276646.080000
   3683   3685     1   0.10969 276646.080000
   3686   3687     1   0.10969 276646.080000
   3686   3688     1   0.10969 276646.080000
   3689   3690     1   0.10190 328360.320000
   3689   3691     1   0.10190 328360.320000
   3693   3694     1   0.10969 276646.080000
   3693   3695     1   0.10969 276646.080000
   3696   3697     1   0.10969 276646.080000
   3696   3698     1   0.10969 276646.080000
   3699   3700     1   0.10969 276646.080000
   3699   3701     1   0.10969 276646.080000
   3702   3703     1   0.10190 328360.320000
   3702   3704     1   0.10190 328360.320000
   3706   3707     1   0.10969 276646.080000
   3706   3708     1   0.10969 276646.080000
   3709   3710     1   0.10969 276646.080000
   3709   3711     1   0.10969 276646.080000
   3712   3713     1   0.10969 276646.080000
   3712   3714     1   0.10969 276646.080000
   3715   3716     1   0.10190 328360.320000
   3715   3717     1   0.10190 328360.320000
   3719   3720     1   0.10969 276646.080000
   3719   3721     1   0.10969 276646.080000
   3722   3723     1   0.10969 276646.080000
   3722   3724     1   0.10969 276646.080000
   3725   3726     1   0.10969 276646.080000
   3725   3727     1   0.10969 276646.080000
   3728   3729     1   0.10190 328360.320000
   3728   3730     1   0.10190 328360.320000
   3732   3733     1   0.10969 276646.080000
   3732   3734     1   0.10969 276646.080000
   3735   3736     1   0.10969 276646.080000
   3735   3737     1   0.10969 276646.080000
   3738   3739     1   0.10969 276646.080000
   3738   3740     1   0.10969 276646.080000
   3741   3742     1   0.10190 328360.320000
   3741   3743     1   0.10190 328360.320000
   3745   3746     1   0.10969 276646.080000
   3745   3747     1   0.10969 276646.080000
   3748   3749     1   0.10969 276646.080000
   3748   3750     1   0.10969 276646.080000
   3751   3752     1   0.10969 276646.080000
   3751   3753     1   0.10969 276646.080000
   3754   3755     1   0.10190 328360.320000
   3754   3756     1   0.10190 328360.320000
   3758   3759     1   0.10969 276646.080000
   3758   3760     1   0.10969 276646.080000
   3761   3762     1   0.10969 276646.080000
   3761   3763     1   0.10969 276646.080000
   3764   3765     1   0.10969 276646.080000
   3764   3766     1   0.10969 276646.080000
   3767   3768     1   0.10190 328360.320000
   3767   3769     1   0.10190 328360.320000
   3771   3772     1   0.10969 276646.080000
   3771   3773     1   0.10969 276646.080000
   3774   3775     1   0.10969 276646.080000
   3774   3776     1   0.10969 276646.080000
   3777   3778     1   0.10969 276646.080000
   3777   3779     1   0.10969 276646.080000
   3780   3781     1   0.10190 328360.320000
   3780   3782     1   0.10190 328360.320000
   3784   3785     1   0.10969 276646.080000
   3784   3786     1   0.10969 276646.080000
   3787   3788     1   0.10969 276646.080000
   3787   3789     1   0.10969 276646.080000
   3790   3791     1   0.10969 276646.080000
   3790   3792     1   0.10969 276646.080000
   3793   3794     1   0.10190 328360.320000
   3793   3795     1   0.10190 328360.320000
   3797   3798     1   0.10969 276646.080000
   3797   3799     1   0.10969 276646.080000
   3800   3801     1   0.10969 276646.080000
   3800   3802     1   0.10969 276646.080000
   3803   3804     1   0.10969 276646.080000
   3803   3805     1   0.10969 276646.080000
   3806   3807     1   0.10190 328360.320000
   3806   3808     1   0.10190 328360.320000
   3810   3811     1   0.10969 276646.080000
   3810   3812     1   0.10969 276646.080000
   3813   3814     1   0.10969 276646.080000
   3813   3815     1   0.10969 276646.080000
   3816   3817     1   0.10969 276646.080000
   3816   3818     1   0.10969 276646.080000
   3819   3820     1   0.10190 328360.320000
   3819   3821     1   0.10190 328360.320000
   3823   3824     1   0.10969 276646.080000
   3823   3825     1   0.10969 276646.080000
   3826   3827     1   0.10969 276646.080000
   3826   3828     1   0.10969 276646.080000
   3829   3830     1   0.10969 276646.080000
   3829   3831     1   0.10969 276646.080000
   3832   3833     1   0.10190 328360.320000
   3832   3834     1   0.10190 328360.320000
   3836   3837     1   0.10969 276646.080000
   3836   3838     1   0.10969 276646.080000
   3839   3840     1   0.10969 276646.080000
   3839   3841     1   0.10969 276646.080000
   3842   3843     1   0.10969 276646.080000
   3842   3844     1   0.10969 276646.080000
   3845   3846     1   0.10190 328360.320000
   3845   3847     1   0.10190 328360.320000
   3849   3850     1   0.10969 276646.080000
   3849   3851     1   0.10969 276646.080000
   3852   3853     1   0.10969 276646.080000
   3852   3854     1   0.10969 276646.080000
   3855   3856     1   0.10969 276646.080000
   3855   3857     1   0.10969 276646.080000
   3858   3859     1   0.10190 328360.320000
   3858   3860     1   0.10190 328360.320000
   3862   3863     1   0.10969 276646.080000
   3862   3864     1   0.10969 276646.080000
   3865   3866     1   0.10969 276646.080000
   3865   3867     1   0.10969 276646.080000
   3868   3869     1   0.10969 276646.080000
   3868   3870     1   0.10969 276646.080000
   3871   3872     1   0.10190 328360.320000
   3871   3873     1   0.10190 328360.320000
   3875   3876     1   0.10969 276646.080000
   3875   3877     1   0.10969 276646.080000
   3878   3879     1   0.10969 276646.080000
   3878   3880     1   0.10969 276646.080000
   3881   3882     1   0.10969 276646.080000
   3881   3883     1   0.10969 276646.080000
   3884   3885     1   0.10190 328360.320000
   3884   3886     1   0.10190 328360.320000
   3888   3889     1   0.10969 276646.080000
   3888   3890     1   0.10969 276646.080000
   3891   3892     1   0.10969 276646.080000
   3891   3893     1   0.10969 276646.080000
   3894   3895     1   0.10969 276646.080000
   3894   3896     1   0.10969 276646.080000
   3897   3898     1   0.10190 328360.320000
   3897   3899     1   0.10190 328360.320000
   3901   3902     1   0.10969 276646.080000
   3901   3903     1   0.10969 276646.080000
   3904   3905     1   0.10969 276646.080000
   3904   3906     1   0.10969 276646.080000
   3907   3908     1   0.10969 276646.080000
   3907   3909     1   0.10969 276646.080000
   3910   3911     1   0.10190 328360.320000
   3910   3912     1   0.10190 328360.320000
   3914   3915     1   0.10969 276646.080000
   3914   3916     1   0.10969 276646.080000
   3917   3918     1   0.10969 276646.080000
   3917   3919     1   0.10969 276646.080000
   3920   3921     1   0.10969 276646.080000
   3920   3922     1   0.10969 276646.080000
   3923   3924     1   0.10190 328360.320000
   3923   3925     1   0.10190 328360.320000
   3927   3928     1   0.10969 276646.080000
   3927   3929     1   0.10969 276646.080000
   3930   3931     1   0.10969 276646.080000
   3930   3932     1   0.10969 276646.080000
   3933   3934     1   0.10969 276646.080000
   3933   3935     1   0.10969 276646.080000
   3936   3937     1   0.10190 328360.320000
   3936   3938     1   0.10190 328360.320000
   3940   3941     1   0.10969 276646.080000
   3940   3942     1   0.10969 276646.080000
   3943   3944     1   0.10969 276646.080000
   3943   3945     1   0.10969 276646.080000
   3946   3947     1   0.10969 276646.080000
   3946   3948     1   0.10969 276646.080000
   3949   3950     1   0.10190 328360.320000
   3949   3951     1   0.10190 328360.320000
   3953   3954     1   0.10969 276646.080000
   3953   3955     1   0.10969 276646.080000
   3956   3957     1   0.10969 276646.080000
   3956   3958     1   0.10969 276646.080000
   3959   3960     1   0.10969 276646.080000
   3959   3961     1   0.10969 276646.080000
   3962   3963     1   0.10190 328360.320000
   3962   3964     1   0.10190 328360.320000
   3966   3967     1   0.10969 276646.080000
   3966   3968     1   0.10969 276646.080000
   3969   3970     1   0.10969 276646.080000
   3969   3971     1   0.10969 276646.080000
   3972   3973     1   0.10969 276646.080000
   3972   3974     1   0.10969 276646.080000
   3975   3976     1   0.10190 328360.320000
   3975   3977     1   0.10190 328360.320000
   3979   3980     1   0.10969 276646.080000
   3979   3981     1   0.10969 276646.080000
   3982   3983     1   0.10969 276646.080000
   3982   3984     1   0.10969 276646.080000
   3985   3986     1   0.10969 276646.080000
   3985   3987     1   0.10969 276646.080000
   3988   3989     1   0.10190 328360.320000
   3988   3990     1   0.10190 328360.320000
   3992   3993     1   0.10969 276646.080000
   3992   3994     1   0.10969 276646.080000
   3995   3996     1   0.10969 276646.080000
   3995   3997     1   0.10969 276646.080000
   3998   3999     1   0.10969 276646.080000
   3998   4000     1   0.10969 276646.080000
   4001   4002     1   0.10190 328360.320000
   4001   4003     1   0.10190 328360.320000
   4005   4006     1   0.10969 276646.080000
   4005   4007     1   0.10969 276646.080000
   4008   4009     1   0.10969 276646.080000
   4008   4010     1   0.10969 276646.080000
   4011   4012     1   0.10969 276646.080000
   4011   4013     1   0.10969 276646.080000
   4014   4015     1   0.10190 328360.320000
   4014   4016     1   0.10190 328360.320000
   4018   4019     1   0.10969 276646.080000
   4018   4020     1   0.10969 276646.080000
   4021   4022     1   0.10969 276646.080000
   4021   4023     1   0.10969 276646.080000
   4024   4025     1   0.10969 276646.080000
   4024   4026     1   0.10969 276646.080000
   4027   4028     1   0.10190 328360.320000
   4027   4029     1   0.10190 328360.320000
   4031   4032     1   0.10969 276646.080000
   4031   4033     1   0.10969 276646.080000
   4034   4035     1   0.10969 276646.080000
   4034   4036     1   0.10969 276646.080000
   4037   4038     1   0.10969 276646.080000
   4037   4039     1   0.10969 276646.080000
   4040   4041     1   0.10190 328360.320000
   4040   4042     1   0.10190 328360.320000
   4044   4045     1   0.10969 276646.080000
   4044   4046     1   0.10969 276646.080000
   4047   4048     1   0.10969 276646.080000
   4047   4049     1   0.10969 276646.080000
   4050   4051     1   0.10969 276646.080000
   4050   4052     1   0.10969 276646.080000
   4053   4054     1   0.10190 328360.320000
   4053   4055     1   0.10190 328360.320000
   4057   4058     1   0.10969 276646.080000
   4057   4059     1   0.10969 276646.080000
   4060   4061     1   0.10969 276646.080000
   4060   4062     1   0.10969 276646.080000
   4063   4064     1   0.10969 276646.080000
   4063   4065     1   0.10969 276646.080000
   4066   4067     1   0.10190 328360.320000
   4066   4068     1   0.10190 328360.320000
   4070   4071     1   0.10969 276646.080000
   4070   4072     1   0.10969 276646.080000
   4073   4074     1   0.10969 276646.080000
   4073   4075     1   0.10969 276646.080000
   4076   4077     1   0.10969 276646.080000
   4076   4078     1   0.10969 276646.080000
   4079   4080     1   0.10190 328360.320000
   4079   4081     1   0.10190 328360.320000
   4083   4084     1   0.10969 276646.080000
   4083   4085     1   0.10969 276646.080000
   4086   4087     1   0.10969 276646.080000
   4086   4088     1   0.10969 276646.080000
   4089   4090     1   0.10969 276646.080000
   4089   4091     1   0.10969 276646.080000
   4092   4093     1   0.10190 328360.320000
   4092   4094     1   0.10190 328360.320000
   4096   4097     1   0.10969 276646.080000
   4096   4098     1   0.10969 276646.080000
   4099   4100     1   0.10969 276646.080000
   4099   4101     1   0.10969 276646.080000
   4102   4103     1   0.10969 276646.080000
   4102   4104     1   0.10969 276646.080000
   4105   4106     1   0.10190 328360.320000
   4105   4107     1   0.10190 328360.320000
   4109   4110     1   0.10969 276646.080000
   4109   4111     1   0.10969 276646.080000
   4112   4113     1   0.10969 276646.080000
   4112   4114     1   0.10969 276646.080000
   4115   4116     1   0.10969 276646.080000
   4115   4117     1   0.10969 276646.080000
   4118   4119     1   0.10190 328360.320000
   4118   4120     1   0.10190 328360.320000
   4122   4123     1   0.10969 276646.080000
   4122   4124     1   0.10969 276646.080000
   4125   4126     1   0.10969 276646.080000
   4125   4127     1   0.10969 276646.080000
   4128   4129     1   0.10969 276646.080000
   4128   4130     1   0.10969 276646.080000
   4131   4132     1   0.10190 328360.320000
   4131   4133     1   0.10190 328360.320000
   4135   4136     1   0.10969 276646.080000
   4135   4137     1   0.10969 276646.080000
   4138   4139     1   0.10969 276646.080000
   4138   4140     1   0.10969 276646.080000
   4141   4142     1   0.10969 276646.080000
   4141   4143     1   0.10969 276646.080000
   4144   4145     1   0.10190 328360.320000
   4144   4146     1   0.10190 328360.320000
   4148   4149     1   0.10969 276646.080000
   4148   4150     1   0.10969 276646.080000
   4151   4152     1   0.10969 276646.080000
   4151   4153     1   0.10969 276646.080000
   4154   4155     1   0.10969 276646.080000
   4154   4156     1   0.10969 276646.080000
   4157   4158     1   0.10190 328360.320000
   4157   4159     1   0.10190 328360.320000
   4161   4162     1   0.10969 276646.080000
   4161   4163     1   0.10969 276646.080000
   4164   4165     1   0.10969 276646.080000
   4164   4166     1   0.10969 276646.080000
   4167   4168     1   0.10969 276646.080000
   4167   4169     1   0.10969 276646.080000
   4170   4171     1   0.10190 328360.320000
   4170   4172     1   0.10190 328360.320000
   4174   4175     1   0.10969 276646.080000
   4174   4176     1   0.10969 276646.080000
   4177   4178     1   0.10969 276646.080000
   4177   4179     1   0.10969 276646.080000
   4180   4181     1   0.10969 276646.080000
   4180   4182     1   0.10969 276646.080000
   4183   4184     1   0.10190 328360.320000
   4183   4185     1   0.10190 328360.320000
   4187   4188     1   0.10969 276646.080000
   4187   4189     1   0.10969 276646.080000
   4190   4191     1   0.10969 276646.080000
   4190   4192     1   0.10969 276646.080000
   4193   4194     1   0.10969 276646.080000
   4193   4195     1   0.10969 276646.080000
   4196   4197     1   0.10190 328360.320000
   4196   4198     1   0.10190 328360.320000
   4200   4201     1   0.10969 276646.080000
   4200   4202     1   0.10969 276646.080000
   4203   4204     1   0.10969 276646.080000
   4203   4205     1   0.10969 276646.080000
   4206   4207     1   0.10969 276646.080000
   4206   4208     1   0.10969 276646.080000
   4209   4210     1   0.10190 328360.320000
   4209   4211     1   0.10190 328360.320000
   4213   4214     1   0.10969 276646.080000
   4213   4215     1   0.10969 276646.080000
   4216   4217     1   0.10969 276646.080000
   4216   4218     1   0.10969 276646.080000
   4219   4220     1   0.10969 276646.080000
   4219   4221     1   0.10969 276646.080000
   4222   4223     1   0.10190 328360.320000
   4222   4224     1   0.10190 328360.320000
   4226   4227     1   0.10969 276646.080000
   4226   4228     1   0.10969 276646.080000
   4229   4230     1   0.10969 276646.080000
   4229   4231     1   0.10969 276646.080000
   4232   4233     1   0.10969 276646.080000
   4232   4234     1   0.10969 276646.080000
   4235   4236     1   0.10190 328360.320000
   4235   4237     1   0.10190 328360.320000
   4239   4240     1   0.10969 276646.080000
   4239   4241     1   0.10969 276646.080000
   4242   4243     1   0.10969 276646.080000
   4242   4244     1   0.10969 276646.080000
   4245   4246     1   0.10969 276646.080000
   4245   4247     1   0.10969 276646.080000
   4248   4249     1   0.10190 328360.320000
   4248   4250     1   0.10190 328360.320000
   4252   4253     1   0.10969 276646.080000
   4252   4254     1   0.10969 276646.080000
   4255   4256     1   0.10969 276646.080000
   4255   4257     1   0.10969 276646.080000
   4258   4259     1   0.10969 276646.080000
   4258   4260     1   0.10969 276646.080000
   4261   4262     1   0.10190 328360.320000
   4261   4263     1   0.10190 328360.320000
   4265   4266     1   0.10969 276646.080000
   4265   4267     1   0.10969 276646.080000
   4268   4269     1   0.10969 276646.080000
   4268   4270     1   0.10969 276646.080000
   4271   4272     1   0.10969 276646.080000
   4271   4273     1   0.10969 276646.080000
   4274   4275     1   0.10190 328360.320000
   4274   4276     1   0.10190 328360.320000
   4278   4279     1   0.10969 276646.080000
   4278   4280     1   0.10969 276646.080000
   4281   4282     1   0.10969 276646.080000
   4281   4283     1   0.10969 276646.080000
   4284   4285     1   0.10969 276646.080000
   4284   4286     1   0.10969 276646.080000
   4287   4288     1   0.10190 328360.320000
   4287   4289     1   0.10190 328360.320000
   4291   4292     1   0.10969 276646.080000
   4291   4293     1   0.10969 276646.080000
   4294   4295     1   0.10969 276646.080000
   4294   4296     1   0.10969 276646.080000
   4297   4298     1   0.10969 276646.080000
   4297   4299     1   0.10969 276646.080000
   4300   4301     1   0.10190 328360.320000
   4300   4302     1   0.10190 328360.320000
   4304   4305     1   0.10969 276646.080000
   4304   4306     1   0.10969 276646.080000
   4307   4308     1   0.10969 276646.080000
   4307   4309     1   0.10969 276646.080000
   4310   4311     1   0.10969 276646.080000
   4310   4312     1   0.10969 276646.080000
   4313   4314     1   0.10190 328360.320000
   4313   4315     1   0.10190 328360.320000
   4317   4318     1   0.10969 276646.080000
   4317   4319     1   0.10969 276646.080000
   4320   4321     1   0.10969 276646.080000
   4320   4322     1   0.10969 276646.080000
   4323   4324     1   0.10969 276646.080000
   4323   4325     1   0.10969 276646.080000
   4326   4327     1   0.10190 328360.320000
   4326   4328     1   0.10190 328360.320000
   4330   4331     1   0.10969 276646.080000
   4330   4332     1   0.10969 276646.080000
   4333   4334     1   0.10969 276646.080000
   4333   4335     1   0.10969 276646.080000
   4336   4337     1   0.10969 276646.080000
   4336   4338     1   0.10969 276646.080000
   4339   4340     1   0.10190 328360.320000
   4339   4341     1   0.10190 328360.320000
   4343   4344     1   0.10969 276646.080000
   4343   4345     1   0.10969 276646.080000
   4346   4347     1   0.10969 276646.080000
   4346   4348     1   0.10969 276646.080000
   4349   4350     1   0.10969 276646.080000
   4349   4351     1   0.10969 276646.080000
   4352   4353     1   0.10190 328360.320000
   4352   4354     1   0.10190 328360.320000
   4356   4357     1   0.10969 276646.080000
   4356   4358     1   0.10969 276646.080000
   4359   4360     1   0.10969 276646.080000
   4359   4361     1   0.10969 276646.080000
   4362   4363     1   0.10969 276646.080000
   4362   4364     1   0.10969 276646.080000
   4365   4366     1   0.10190 328360.320000
   4365   4367     1   0.10190 328360.320000
   4369   4370     1   0.10969 276646.080000
   4369   4371     1   0.10969 276646.080000
   4372   4373     1   0.10969 276646.080000
   4372   4374     1   0.10969 276646.080000
   4375   4376     1   0.10969 276646.080000
   4375   4377     1   0.10969 276646.080000
   4378   4379     1   0.10190 328360.320000
   4378   4380     1   0.10190 328360.320000
   4382   4383     1   0.10969 276646.080000
   4382   4384     1   0.10969 276646.080000
   4385   4386     1   0.10969 276646.080000
   4385   4387     1   0.10969 276646.080000
   4388   4389     1   0.10969 276646.080000
   4388   4390     1   0.10969 276646.080000
   4391   4392     1   0.10190 328360.320000
   4391   4393     1   0.10190 328360.320000
   4395   4396     1   0.10969 276646.080000
   4395   4397     1   0.10969 276646.080000
   4398   4399     1   0.10969 276646.080000
   4398   4400     1   0.10969 276646.080000
   4401   4402     1   0.10969 276646.080000
   4401   4403     1   0.10969 276646.080000
   4404   4405     1   0.10190 328360.320000
   4404   4406     1   0.10190 328360.320000
   4408   4409     1   0.10969 276646.080000
   4408   4410     1   0.10969 276646.080000
   4411   4412     1   0.10969 276646.080000
   4411   4413     1   0.10969 276646.080000
   4414   4415     1   0.10969 276646.080000
   4414   4416     1   0.10969 276646.080000
   4417   4418     1   0.10190 328360.320000
   4417   4419     1   0.10190 328360.320000
   4421   4422     1   0.10969 276646.080000
   4421   4423     1   0.10969 276646.080000
   4424   4425     1   0.10969 276646.080000
   4424   4426     1   0.10969 276646.080000
   4427   4428     1   0.10969 276646.080000
   4427   4429     1   0.10969 276646.080000
   4430   4431     1   0.10190 328360.320000
   4430   4432     1   0.10190 328360.320000
   4434   4435     1   0.10969 276646.080000
   4434   4436     1   0.10969 276646.080000
   4437   4438     1   0.10969 276646.080000
   4437   4439     1   0.10969 276646.080000
   4440   4441     1   0.10969 276646.080000
   4440   4442     1   0.10969 276646.080000
   4443   4444     1   0.10190 328360.320000
   4443   4445     1   0.10190 328360.320000
   4447   4448     1   0.10969 276646.080000
   4447   4449     1   0.10969 276646.080000
   4450   4451     1   0.10969 276646.080000
   4450   4452     1   0.10969 276646.080000
   4453   4454     1   0.10969 276646.080000
   4453   4455     1   0.10969 276646.080000
   4456   4457     1   0.10190 328360.320000
   4456   4458     1   0.10190 328360.320000
   4460   4461     1   0.10969 276646.080000
   4460   4462     1   0.10969 276646.080000
   4463   4464     1   0.10969 276646.080000
   4463   4465     1   0.10969 276646.080000
   4466   4467     1   0.10969 276646.080000
   4466   4468     1   0.10969 276646.080000
   4469   4470     1   0.10190 328360.320000
   4469   4471     1   0.10190 328360.320000
   4473   4474     1   0.10969 276646.080000
   4473   4475     1   0.10969 276646.080000
   4476   4477     1   0.10969 276646.080000
   4476   4478     1   0.10969 276646.080000
   4479   4480     1   0.10969 276646.080000
   4479   4481     1   0.10969 276646.080000
   4482   4483     1   0.10190 328360.320000
   4482   4484     1   0.10190 328360.320000
   4486   4487     1   0.10969 276646.080000
   4486   4488     1   0.10969 276646.080000
   4489   4490     1   0.10969 276646.080000
   4489   4491     1   0.10969 276646.080000
   4492   4493     1   0.10969 276646.080000
   4492   4494     1   0.10969 276646.080000
   4495   4496     1   0.10190 328360.320000
   4495   4497     1   0.10190 328360.320000
   4499   4500     1   0.10969 276646.080000
   4499   4501     1   0.10969 276646.080000
   4502   4503     1   0.10969 276646.080000
   4502   4504     1   0.10969 276646.080000
   4505   4506     1   0.10969 276646.080000
   4505   4507     1   0.10969 276646.080000
   4508   4509     1   0.10190 328360.320000
   4508   4510     1   0.10190 328360.320000
   4512   4513     1   0.10969 276646.080000
   4512   4514     1   0.10969 276646.080000
   4515   4516     1   0.10969 276646.080000
   4515   4517     1   0.10969 276646.080000
   4518   4519     1   0.10969 276646.080000
   4518   4520     1   0.10969 276646.080000
   4521   4522     1   0.10190 328360.320000
   4521   4523     1   0.10190 328360.320000
   4525   4526     1   0.10969 276646.080000
   4525   4527     1   0.10969 276646.080000
   4528   4529     1   0.10969 276646.080000
   4528   4530     1   0.10969 276646.080000
   4531   4532     1   0.10969 276646.080000
   4531   4533     1   0.10969 276646.080000
   4534   4535     1   0.10190 328360.320000
   4534   4536     1   0.10190 328360.320000
   4538   4539     1   0.10969 276646.080000
   4538   4540     1   0.10969 276646.080000
   4541   4542     1   0.10969 276646.080000
   4541   4543     1   0.10969 276646.080000
   4544   4545     1   0.10969 276646.080000
   4544   4546     1   0.10969 276646.080000
   4547   4548     1   0.10190 328360.320000
   4547   4549     1   0.10190 328360.320000
   4551   4552     1   0.10969 276646.080000
   4551   4553     1   0.10969 276646.080000
   4554   4555     1   0.10969 276646.080000
   4554   4556     1   0.10969 276646.080000
   4557   4558     1   0.10969 276646.080000
   4557   4559     1   0.10969 276646.080000
   4560   4561     1   0.10190 328360.320000
   4560   4562     1   0.10190 328360.320000
   4564   4565     1   0.10969 276646.080000
   4564   4566     1   0.10969 276646.080000
   4567   4568     1   0.10969 276646.080000
   4567   4569     1   0.10969 276646.080000
   4570   4571     1   0.10969 276646.080000
   4570   4572     1   0.10969 276646.080000
   4573   4574     1   0.10190 328360.320000
   4573   4575     1   0.10190 328360.320000
   4577   4578     1   0.10969 276646.080000
   4577   4579     1   0.10969 276646.080000
   4580   4581     1   0.10969 276646.080000
   4580   4582     1   0.10969 276646.080000
   4583   4584     1   0.10969 276646.080000
   4583   4585     1   0.10969 276646.080000
   4586   4587     1   0.10190 328360.320000
   4586   4588     1   0.10190 328360.320000
   4590   4591     1   0.10969 276646.080000
   4590   4592     1   0.10969 276646.080000
   4593   4594     1   0.10969 276646.080000
   4593   4595     1   0.10969 276646.080000
   4596   4597     1   0.10969 276646.080000
   4596   4598     1   0.10969 276646.080000
   4599   4600     1   0.10190 328360.320000
   4599   4601     1   0.10190 328360.320000
   4603   4604     1   0.10969 276646.080000
   4603   4605     1   0.10969 276646.080000
   4606   4607     1   0.10969 276646.080000
   4606   4608     1   0.10969 276646.080000
   4609   4610     1   0.10969 276646.080000
   4609   4611     1   0.10969 276646.080000
   4612   4613     1   0.10190 328360.320000
   4612   4614     1   0.10190 328360.320000
   4616   4617     1   0.10969 276646.080000
   4616   4618     1   0.10969 276646.080000
   4619   4620     1   0.10969 276646.080000
   4619   4621     1   0.10969 276646.080000
   4622   4623     1   0.10969 276646.080000
   4622   4624     1   0.10969 276646.080000
   4625   4626     1   0.10190 328360.320000
   4625   4627     1   0.10190 328360.320000
   4629   4630     1   0.10969 276646.080000
   4629   4631     1   0.10969 276646.080000
   4632   4633     1   0.10969 276646.080000
   4632   4634     1   0.10969 276646.080000
   4635   4636     1   0.10969 276646.080000
   4635   4637     1   0.10969 276646.080000
   4638   4639     1   0.10190 328360.320000
   4638   4640     1   0.10190 328360.320000
   4642   4643     1   0.10969 276646.080000
   4642   4644     1   0.10969 276646.080000
   4645   4646     1   0.10969 276646.080000
   4645   4647     1   0.10969 276646.080000
   4648   4649     1   0.10969 276646.080000
   4648   4650     1   0.10969 276646.080000
   4651   4652     1   0.10190 328360.320000
   4651   4653     1   0.10190 328360.320000
   4655   4656     1   0.10969 276646.080000
   4655   4657     1   0.10969 276646.080000
   4658   4659     1   0.10969 276646.080000
   4658   4660     1   0.10969 276646.080000
   4661   4662     1   0.10969 276646.080000
   4661   4663     1   0.10969 276646.080000
   4664   4665     1   0.10190 328360.320000
   4664   4666     1   0.10190 328360.320000
   4668   4669     1   0.10969 276646.080000
   4668   4670     1   0.10969 276646.080000
   4671   4672     1   0.10969 276646.080000
   4671   4673     1   0.10969 276646.080000
   4674   4675     1   0.10969 276646.080000
   4674   4676     1   0.10969 276646.080000
   4677   4678     1   0.10190 328360.320000
   4677   4679     1   0.10190 328360.320000
   4681   4682     1   0.10969 276646.080000
   4681   4683     1   0.10969 276646.080000
   4684   4685     1   0.10969 276646.080000
   4684   4686     1   0.10969 276646.080000
   4687   4688     1   0.10969 276646.080000
   4687   4689     1   0.10969 276646.080000
   4690   4691     1   0.10190 328360.320000
   4690   4692     1   0.10190 328360.320000
   4694   4695     1   0.10969 276646.080000
   4694   4696     1   0.10969 276646.080000
   4697   4698     1   0.10969 276646.080000
   4697   4699     1   0.10969 276646.080000
   4700   4701     1   0.10969 276646.080000
   4700   4702     1   0.10969 276646.080000
   4703   4704     1   0.10190 328360.320000
   4703   4705     1   0.10190 328360.320000
   4707   4708     1   0.10969 276646.080000
   4707   4709     1   0.10969 276646.080000
   4710   4711     1   0.10969 276646.080000
   4710   4712     1   0.10969 276646.080000
   4713   4714     1   0.10969 276646.080000
   4713   4715     1   0.10969 276646.080000
   4716   4717     1   0.10190 328360.320000
   4716   4718     1   0.10190 328360.320000
   4720   4721     1   0.10969 276646.080000
   4720   4722     1   0.10969 276646.080000
   4723   4724     1   0.10969 276646.080000
   4723   4725     1   0.10969 276646.080000
   4726   4727     1   0.10969 276646.080000
   4726   4728     1   0.10969 276646.080000
   4729   4730     1   0.10190 328360.320000
   4729   4731     1   0.10190 328360.320000
   4733   4734     1   0.10969 276646.080000
   4733   4735     1   0.10969 276646.080000
   4736   4737     1   0.10969 276646.080000
   4736   4738     1   0.10969 276646.080000
   4739   4740     1   0.10969 276646.080000
   4739   4741     1   0.10969 276646.080000
   4742   4743     1   0.10190 328360.320000
   4742   4744     1   0.10190 328360.320000
   4746   4747     1   0.10969 276646.080000
   4746   4748     1   0.10969 276646.080000
   4749   4750     1   0.10969 276646.080000
   4749   4751     1   0.10969 276646.080000
   4752   4753     1   0.10969 276646.080000
   4752   4754     1   0.10969 276646.080000
   4755   4756     1   0.10190 328360.320000
   4755   4757     1   0.10190 328360.320000
   4759   4760     1   0.10969 276646.080000
   4759   4761     1   0.10969 276646.080000
   4762   4763     1   0.10969 276646.080000
   4762   4764     1   0.10969 276646.080000
   4765   4766     1   0.10969 276646.080000
   4765   4767     1   0.10969 276646.080000
   4768   4769     1   0.10190 328360.320000
   4768   4770     1   0.10190 328360.320000
   4772   4773     1   0.10969 276646.080000
   4772   4774     1   0.10969 276646.080000
   4775   4776     1   0.10969 276646.080000
   4775   4777     1   0.10969 276646.080000
   4778   4779     1   0.10969 276646.080000
   4778   4780     1   0.10969 276646.080000
   4781   4782     1   0.10190 328360.320000
   4781   4783     1   0.10190 328360.320000
   4785   4786     1   0.10969 276646.080000
   4785   4787     1   0.10969 276646.080000
   4788   4789     1   0.10969 276646.080000
   4788   4790     1   0.10969 276646.080000
   4791   4792     1   0.10969 276646.080000
   4791   4793     1   0.10969 276646.080000
   4794   4795     1   0.10190 328360.320000
   4794   4796     1   0.10190 328360.320000
   4798   4799     1   0.10969 276646.080000
   4798   4800     1   0.10969 276646.080000
   4801   4802     1   0.10969 276646.080000
   4801   4803     1   0.10969 276646.080000
   4804   4805     1   0.10969 276646.080000
   4804   4806     1   0.10969 276646.080000
   4807   4808     1   0.10190 328360.320000
   4807   4809     1   0.10190 328360.320000
   4811   4812     1   0.10969 276646.080000
   4811   4813     1   0.10969 276646.080000
   4814   4815     1   0.10969 276646.080000
   4814   4816     1   0.10969 276646.080000
   4817   4818     1   0.10969 276646.080000
   4817   4819     1   0.10969 276646.080000
   4820   4821     1   0.10190 328360.320000
   4820   4822     1   0.10190 328360.320000
   4824   4825     1   0.10969 276646.080000
   4824   4826     1   0.10969 276646.080000
   4827   4828     1   0.10969 276646.080000
   4827   4829     1   0.10969 276646.080000
   4830   4831     1   0.10969 276646.080000
   4830   4832     1   0.10969 276646.080000
   4833   4834     1   0.10190 328360.320000
   4833   4835     1   0.10190 328360.320000
   4837   4838     1   0.10969 276646.080000
   4837   4839     1   0.10969 276646.080000
   4840   4841     1   0.10969 276646.080000
   4840   4842     1   0.10969 276646.080000
   4843   4844     1   0.10969 276646.080000
   4843   4845     1   0.10969 276646.080000
   4846   4847     1   0.10190 328360.320000
   4846   4848     1   0.10190 328360.320000
   4850   4851     1   0.10969 276646.080000
   4850   4852     1   0.10969 276646.080000
   4853   4854     1   0.10969 276646.080000
   4853   4855     1   0.10969 276646.080000
   4856   4857     1   0.10969 276646.080000
   4856   4858     1   0.10969 276646.080000
   4859   4860     1   0.10190 328360.320000
   4859   4861     1   0.10190 328360.320000
   4863   4864     1   0.10969 276646.080000
   4863   4865     1   0.10969 276646.080000
   4866   4867     1   0.10969 276646.080000
   4866   4868     1   0.10969 276646.080000
   4869   4870     1   0.10969 276646.080000
   4869   4871     1   0.10969 276646.080000
   4872   4873     1   0.10190 328360.320000
   4872   4874     1   0.10190 328360.320000
   4876   4877     1   0.10969 276646.080000
   4876   4878     1   0.10969 276646.080000
   4879   4880     1   0.10969 276646.080000
   4879   4881     1   0.10969 276646.080000
   4882   4883     1   0.10969 276646.080000
   4882   4884     1   0.10969 276646.080000
   4885   4886     1   0.10190 328360.320000
   4885   4887     1   0.10190 328360.320000
   4889   4890     1   0.10969 276646.080000
   4889   4891     1   0.10969 276646.080000
   4892   4893     1   0.10969 276646.080000
   4892   4894     1   0.10969 276646.080000
   4895   4896     1   0.10969 276646.080000
   4895   4897     1   0.10969 276646.080000
   4898   4899     1   0.10190 328360.320000
   4898   4900     1   0.10190 328360.320000
   4902   4903     1   0.10969 276646.080000
   4902   4904     1   0.10969 276646.080000
   4905   4906     1   0.10969 276646.080000
   4905   4907     1   0.10969 276646.080000
   4908   4909     1   0.10969 276646.080000
   4908   4910     1   0.10969 276646.080000
   4911   4912     1   0.10190 328360.320000
   4911   4913     1   0.10190 328360.320000
   4915   4916     1   0.10969 276646.080000
   4915   4917     1   0.10969 276646.080000
   4918   4919     1   0.10969 276646.080000
   4918   4920     1   0.10969 276646.080000
   4921   4922     1   0.10969 276646.080000
   4921   4923     1   0.10969 276646.080000
   4924   4925     1   0.10190 328360.320000
   4924   4926     1   0.10190 328360.320000
   4928   4929     1   0.10969 276646.080000
   4928   4930     1   0.10969 276646.080000
   4931   4932     1   0.10969 276646.080000
   4931   4933     1   0.10969 276646.080000
   4934   4935     1   0.10969 276646.080000
   4934   4936     1   0.10969 276646.080000
   4937   4938     1   0.10190 328360.320000
   4937   4939     1   0.10190 328360.320000
   4941   4942     1   0.10969 276646.080000
   4941   4943     1   0.10969 276646.080000
   4944   4945     1   0.10969 276646.080000
   4944   4946     1   0.10969 276646.080000
   4947   4948     1   0.10969 276646.080000
   4947   4949     1   0.10969 276646.080000
   4950   4951     1   0.10190 328360.320000
   4950   4952     1   0.10190 328360.320000
   4954   4955     1   0.10969 276646.080000
   4954   4956     1   0.10969 276646.080000
   4957   4958     1   0.10969 276646.080000
   4957   4959     1   0.10969 276646.080000
   4960   4961     1   0.10969 276646.080000
   4960   4962     1   0.10969 276646.080000
   4963   4964     1   0.10190 328360.320000
   4963   4965     1   0.10190 328360.320000
   4967   4968     1   0.10969 276646.080000
   4967   4969     1   0.10969 276646.080000
   4970   4971     1   0.10969 276646.080000
   4970   4972     1   0.10969 276646.080000
   4973   4974     1   0.10969 276646.080000
   4973   4975     1   0.10969 276646.080000
   4976   4977     1   0.10190 328360.320000
   4976   4978     1   0.10190 328360.320000
   4980   4981     1   0.10969 276646.080000
   4980   4982     1   0.10969 276646.080000
   4983   4984     1   0.10969 276646.080000
   4983   4985     1   0.10969 276646.080000
   4986   4987     1   0.10969 276646.080000
   4986   4988     1   0.10969 276646.080000
   4989   4990     1   0.10190 328360.320000
   4989   4991     1   0.10190 328360.320000
   4993   4994     1   0.10969 276646.080000
   4993   4995     1   0.10969 276646.080000
   4996   4997     1   0.10969 276646.080000
   4996   4998     1   0.10969 276646.080000
   4999   5000     1   0.10969 276646.080000
   4999   5001     1   0.10969 276646.080000
   5002   5003     1   0.10190 328360.320000
   5002   5004     1   0.10190 328360.320000
   5006   5007     1   0.10969 276646.080000
   5006   5008     1   0.10969 276646.080000
   5009   5010     1   0.10969 276646.080000
   5009   5011     1   0.10969 276646.080000
   5012   5013     1   0.10969 276646.080000
   5012   5014     1   0.10969 276646.080000
   5015   5016     1   0.10190 328360.320000
   5015   5017     1   0.10190 328360.320000
   5019   5020     1   0.10969 276646.080000
   5019   5021     1   0.10969 276646.080000
   5022   5023     1   0.10969 276646.080000
   5022   5024     1   0.10969 276646.080000
   5025   5026     1   0.10969 276646.080000
   5025   5027     1   0.10969 276646.080000
   5028   5029     1   0.10190 328360.320000
   5028   5030     1   0.10190 328360.320000
   5032   5033     1   0.10969 276646.080000
   5032   5034     1   0.10969 276646.080000
   5035   5036     1   0.10969 276646.080000
   5035   5037     1   0.10969 276646.080000
   5038   5039     1   0.10969 276646.080000
   5038   5040     1   0.10969 276646.080000
   5041   5042     1   0.10190 328360.320000
   5041   5043     1   0.10190 328360.320000
   5045   5046     1   0.10969 276646.080000
   5045   5047     1   0.10969 276646.080000
   5048   5049     1   0.10969 276646.080000
   5048   5050     1   0.10969 276646.080000
   5051   5052     1   0.10969 276646.080000
   5051   5053     1   0.10969 276646.080000
   5054   5055     1   0.10190 328360.320000
   5054   5056     1   0.10190 328360.320000
   5058   5059     1   0.10969 276646.080000
   5058   5060     1   0.10969 276646.080000
   5061   5062     1   0.10969 276646.080000
   5061   5063     1   0.10969 276646.080000
   5064   5065     1   0.10969 276646.080000
   5064   5066     1   0.10969 276646.080000
   5067   5068     1   0.10190 328360.320000
   5067   5069     1   0.10190 328360.320000
   5071   5072     1   0.10969 276646.080000
   5071   5073     1   0.10969 276646.080000
   5074   5075     1   0.10969 276646.080000
   5074   5076     1   0.10969 276646.080000
   5077   5078     1   0.10969 276646.080000
   5077   5079     1   0.10969 276646.080000
   5080   5081     1   0.10190 328360.320000
   5080   5082     1   0.10190 328360.320000
   5084   5085     1   0.10969 276646.080000
   5084   5086     1   0.10969 276646.080000
   5087   5088     1   0.10969 276646.080000
   5087   5089     1   0.10969 276646.080000
   5090   5091     1   0.10969 276646.080000
   5090   5092     1   0.10969 276646.080000
   5093   5094     1   0.10190 328360.320000
   5093   5095     1   0.10190 328360.320000
   5097   5098     1   0.10969 276646.080000
   5097   5099     1   0.10969 276646.080000
   5100   5101     1   0.10969 276646.080000
   5100   5102     1   0.10969 276646.080000
   5103   5104     1   0.10969 276646.080000
   5103   5105     1   0.10969 276646.080000
   5106   5107     1   0.10190 328360.320000
   5106   5108     1   0.10190 328360.320000
   5110   5111     1   0.10969 276646.080000
   5110   5112     1   0.10969 276646.080000
   5113   5114     1   0.10969 276646.080000
   5113   5115     1   0.10969 276646.080000
   5116   5117     1   0.10969 276646.080000
   5116   5118     1   0.10969 276646.080000
   5119   5120     1   0.10190 328360.320000
   5119   5121     1   0.10190 328360.320000
   5123   5124     1   0.10969 276646.080000
   5123   5125     1   0.10969 276646.080000
   5126   5127     1   0.10969 276646.080000
   5126   5128     1   0.10969 276646.080000
   5129   5130     1   0.10969 276646.080000
   5129   5131     1   0.10969 276646.080000
   5132   5133     1   0.10190 328360.320000
   5132   5134     1   0.10190 328360.320000
   5136   5137     1   0.10969 276646.080000
   5136   5138     1   0.10969 276646.080000
   5139   5140     1   0.10969 276646.080000
   5139   5141     1   0.10969 276646.080000
   5142   5143     1   0.10969 276646.080000
   5142   5144     1   0.10969 276646.080000
   5145   5146     1   0.10190 328360.320000
   5145   5147     1   0.10190 328360.320000
   5149   5150     1   0.10969 276646.080000
   5149   5151     1   0.10969 276646.080000
   5152   5153     1   0.10969 276646.080000
   5152   5154     1   0.10969 276646.080000
   5155   5156     1   0.10969 276646.080000
   5155   5157     1   0.10969 276646.080000
   5158   5159     1   0.10190 328360.320000
   5158   5160     1   0.10190 328360.320000
   5162   5163     1   0.10969 276646.080000
   5162   5164     1   0.10969 276646.080000
   5165   5166     1   0.10969 276646.080000
   5165   5167     1   0.10969 276646.080000
   5168   5169     1   0.10969 276646.080000
   5168   5170     1   0.10969 276646.080000
   5171   5172     1   0.10190 328360.320000
   5171   5173     1   0.10190 328360.320000
   5175   5176     1   0.10969 276646.080000
   5175   5177     1   0.10969 276646.080000
   5178   5179     1   0.10969 276646.080000
   5178   5180     1   0.10969 276646.080000
   5181   5182     1   0.10969 276646.080000
   5181   5183     1   0.10969 276646.080000
   5184   5185     1   0.10190 328360.320000
   5184   5186     1   0.10190 328360.320000
   5188   5189     1   0.10969 276646.080000
   5188   5190     1   0.10969 276646.080000
   5191   5192     1   0.10969 276646.080000
   5191   5193     1   0.10969 276646.080000
   5194   5195     1   0.10969 276646.080000
   5194   5196     1   0.10969 276646.080000
   5197   5198     1   0.10190 328360.320000
   5197   5199     1   0.10190 328360.320000
   5201   5202     1   0.10969 276646.080000
   5201   5203     1   0.10969 276646.080000
   5204   5205     1   0.10969 276646.080000
   5204   5206     1   0.10969 276646.080000
   5207   5208     1   0.10969 276646.080000
   5207   5209     1   0.10969 276646.080000
   5210   5211     1   0.10190 328360.320000
   5210   5212     1   0.10190 328360.320000
   5214   5215     1   0.10969 276646.080000
   5214   5216     1   0.10969 276646.080000
   5217   5218     1   0.10969 276646.080000
   5217   5219     1   0.10969 276646.080000
   5220   5221     1   0.10969 276646.080000
   5220   5222     1   0.10969 276646.080000
   5223   5224     1   0.10190 328360.320000
   5223   5225     1   0.10190 328360.320000
   5227   5228     1   0.10969 276646.080000
   5227   5229     1   0.10969 276646.080000
   5230   5231     1   0.10969 276646.080000
   5230   5232     1   0.10969 276646.080000
   5233   5234     1   0.10969 276646.080000
   5233   5235     1   0.10969 276646.080000
   5236   5237     1   0.10190 328360.320000
   5236   5238     1   0.10190 328360.320000
   5240   5241     1   0.10969 276646.080000
   5240   5242     1   0.10969 276646.080000
   5243   5244     1   0.10969 276646.080000
   5243   5245     1   0.10969 276646.080000
   5246   5247     1   0.10969 276646.080000
   5246   5248     1   0.10969 276646.080000
   5249   5250     1   0.10190 328360.320000
   5249   5251     1   0.10190 328360.320000
   5253   5254     1   0.10969 276646.080000
   5253   5255     1   0.10969 276646.080000
   5256   5257     1   0.10969 276646.080000
   5256   5258     1   0.10969 276646.080000
   5259   5260     1   0.10969 276646.080000
   5259   5261     1   0.10969 276646.080000
   5262   5263     1   0.10190 328360.320000
   5262   5264     1   0.10190 328360.320000
   5266   5267     1   0.10969 276646.080000
   5266   5268     1   0.10969 276646.080000
   5269   5270     1   0.10969 276646.080000
   5269   5271     1   0.10969 276646.080000
   5272   5273     1   0.10969 276646.080000
   5272   5274     1   0.10969 276646.080000
   5275   5276     1   0.10190 328360.320000
   5275   5277     1   0.10190 328360.320000
   5279   5280     1   0.10969 276646.080000
   5279   5281     1   0.10969 276646.080000
   5282   5283     1   0.10969 276646.080000
   5282   5284     1   0.10969 276646.080000
   5285   5286     1   0.10969 276646.080000
   5285   5287     1   0.10969 276646.080000
   5288   5289     1   0.10190 328360.320000
   5288   5290     1   0.10190 328360.320000
   5292   5293     1   0.10969 276646.080000
   5292   5294     1   0.10969 276646.080000
   5295   5296     1   0.10969 276646.080000
   5295   5297     1   0.10969 276646.080000
   5298   5299     1   0.10969 276646.080000
   5298   5300     1   0.10969 276646.080000
   5301   5302     1   0.10190 328360.320000
   5301   5303     1   0.10190 328360.320000
   5305   5306     1   0.10969 276646.080000
   5305   5307     1   0.10969 276646.080000
   5308   5309     1   0.10969 276646.080000
   5308   5310     1   0.10969 276646.080000
   5311   5312     1   0.10969 276646.080000
   5311   5313     1   0.10969 276646.080000
   5314   5315     1   0.10190 328360.320000
   5314   5316     1   0.10190 328360.320000

[ pairs ]
;    ai     aj funct         c0         c1         c2         c3
      1     14     1
      1     17     1
      2     11     1
      2     20     1
      5      8     1
      5     21     1
      8     28     1
      8     31     1
     11     22     1
     11     25     1
     14     40     1
     14     43     1
     17     34     1
     17     37     1
     20     49     1
     20     46     1
     21     55     1
     21     52     1
     22     37     1
     22    173     1
     25     34     1
     25    144     1
     28     43     1
     28    115     1
     31     40     1
     31     86     1
     34    164     1
     37    135     1
     40    106     1
     43     77     1
     46     68     1
     49     97     1
     52    126     1
     55    155     1
     58     83     1
     58     80     1
     58     77     1
     59     74     1
     59     68     1
     59    231     1
     62     71     1
     62     68     1
     62    202     1
     65     71     1
     65     74     1
     65     86     1
     71    222     1
     74    193     1
     80    184     1
     83    213     1
     87    112     1
     87    109     1
     87    106     1
     88    103     1
     88     97     1
     88    289     1
     91    100     1
     91     97     1
     91    260     1
     94    100     1
     94    103     1
     94    115     1
    100    280     1
    103    251     1
    109    242     1
    112    271     1
    116    141     1
    116    138     1
    116    135     1
    117    132     1
    117    126     1
    117    347     1
    120    129     1
    120    126     1
    120    318     1
    123    129     1
    123    132     1
    123    144     1
    129    338     1
    132    309     1
    138    300     1
    141    329     1
    145    170     1
    145    167     1
    145    164     1
    146    161     1
    146    155     1
    146    405     1
    149    158     1
    149    155     1
    149    376     1
    152    158     1
    152    161     1
    152    173     1
    158    396     1
    161    367     1
    167    358     1
    170    387     1
    174    199     1
    174    196     1
    174    193     1
    175    190     1
    175    184     1
    175    463     1
    178    187     1
    178    184     1
    178    434     1
    181    187     1
    181    190     1
    181    202     1
    187    454     1
    190    425     1
    196    416     1
    199    445     1
    203    228     1
    203    225     1
    203    222     1
    204    219     1
    204    213     1
    204    521     1
    207    216     1
    207    213     1
    207    492     1
    210    216     1
    210    219     1
    210    231     1
    216    512     1
    219    483     1
    225    474     1
    228    503     1
    232    257     1
    232    254     1
    232    251     1
    233    248     1
    233    242     1
    233    579     1
    236    245     1
    236    242     1
    236    550     1
    239    245     1
    239    248     1
    239    260     1
    245    570     1
    248    541     1
    254    532     1
    257    561     1
    261    286     1
    261    283     1
    261    280     1
    262    277     1
    262    271     1
    262    637     1
    265    274     1
    265    271     1
    265    608     1
    268    274     1
    268    277     1
    268    289     1
    274    628     1
    277    599     1
    283    590     1
    286    619     1
    290    315     1
    290    312     1
    290    309     1
    291    306     1
    291    300     1
    291    695     1
    294    303     1
    294    300     1
    294    666     1
    297    303     1
    297    306     1
    297    318     1
    303    686     1
    306    657     1
    312    648     1
    315    677     1
    319    344     1
    319    341     1
    319    338     1
    320    335     1
    320    329     1
    320    753     1
    323    332     1
    323    329     1
    323    724     1
    326    332     1
    326    335     1
    326    347     1
    332    744     1
    335    715     1
    341    706     1
    344    735     1
    348    373     1
    348    370     1
    348    367     1
    349    364     1
    349    358     1
    349    811     1
    352    361     1
    352    358     1
    352    782     1
    355    361     1
    355    364     1
    355    376     1
    361    802     1
    364    773     1
    370    764     1
    373    793     1
    377    402     1
    377    399     1
    377    396     1
    378    393     1
    378    387     1
    378    869     1
    381    390     1
    381    387     1
    381    840     1
    384    390     1
    384    393     1
    384    405     1
    390    860     1
    393    831     1
    399    822     1
    402    851     1
    406    431     1
    406    428     1
    406    425     1
    407    422     1
    407    416     1
    407    927     1
    410    419     1
    410    416     1
    410    898     1
    413    419     1
    413    422     1
    413    434     1
    419    918     1
    422    889     1
    428    880     1
    431    909     1
    435    460     1
    435    457     1
    435    454     1
    436    451     1
    436    445     1
    436    985     1
    439    448     1
    439    445     1
    439    956     1
    442    448     1
    442    451     1
    442    463     1
    448    976     1
    451    947     1
    457    938     1
    460    967     1
    464    489     1
    464    486     1
    464    483     1
    465    480     1
    465    474     1
    465   1043     1
    468    477     1
    468    474     1
    468   1014     1
    471    477     1
    471    480     1
    471    492     1
    477   1034     1
    480   1005     1
    486    996     1
    489   1025     1
    493    518     1
    493    515     1
    493    512     1
    494    509     1
    494    503     1
    494   1101     1
    497    506     1
    497    503     1
    497   1072     1
    500    506     1
    500    509     1
    500    521     1
    506   1092     1
    509   1063     1
    515   1054     1
    518   1083     1
    522    547     1
    522    544     1
    522    541     1
    523    538     1
    523    532     1
    523   1159     1
    526    535     1
    526    532     1
    526   1130     1
    529    535     1
    529    538     1
    529    550     1
    535   1150     1
    538   1121     1
    544   1112     1
    547   1141     1
    551    576     1
    551    573     1
    551    570     1
    552    567     1
    552    561     1
    552   1217     1
    555    564     1
    555    561     1
    555   1188     1
    558    564     1
    558    567     1
    558    579     1
    564   1208     1
    567   1179     1
    573   1170     1
    576   1199     1
    580    605     1
    580    602     1
    580    599     1
    581    596     1
    581    590     1
    581   1275     1
    584    593     1
    584    590     1
    584   1246     1
    587    593     1
    587    596     1
    587    608     1
    593   1266     1
    596   1237     1
    602   1228     1
    605   1257     1
    609    634     1
    609    631     1
    609    628     1
    610    625     1
    610    619     1
    610   1333     1
    613    622     1
    613    619     1
    613   1304     1
    616    622     1
    616    625     1
    616    637     1
    622   1324     1
    625   1295     1
    631   1286     1
    634   1315     1
    638    663     1
    638    660     1
    638    657     1
    639    654     1
    639    648     1
    639   1391     1
    642    651     1
    642    648     1
    642   1362     1
    645    651     1
    645    654     1
    645    666     1
    651   1382     1
    654   1353     1
    660   1344     1
    663   1373     1
    667    692     1
    667    689     1
    667    686     1
    668    683     1
    668    677     1
    668   1449     1
    671    680     1
    671    677     1
    671   1420     1
    674    680     1
    674    683     1
    674    695     1
    680   1440     1
    683   1411     1
    689   1402     1
    692   1431     1
    696    721     1
    696    718     1
    696    715     1
    697    712     1
    697    706     1
    697   1507     1
    700    709     1
    700    706     1
    700   1478     1
    703    709     1
    703    712     1
    703    724     1
    709   1498     1
    712   1469     1
    718   1460     1
    721   1489     1
    725    750     1
    725    747     1
    725    744     1
    726    741     1
    726    735     1
    726   1565     1
    729    738     1
    729    735     1
    729   1536     1
    732    738     1
    732    741     1
    732    753     1
    738   1556     1
    741   1527     1
    747   1518     1
    750   1547     1
    754    779     1
    754    776     1
    754    773     1
    755    770     1
    755    764     1
    755   1623     1
    758    767     1
    758    764     1
    758   1594     1
    761    767     1
    761    770     1
    761    782     1
    767   1614     1
    770   1585     1
    776   1576     1
    779   1605     1
    783    808     1
    783    805     1
    783    802     1
    784    799     1
    784    793     1
    784   1681     1
    787    796     1
    787    793     1
    787   1652     1
    790    796     1
    790    799     1
    790    811     1
    796   1672     1
    799   1643     1
    805   1634     1
    808   1663     1
    812    837     1
    812    834     1
    812    831     1
    813    828     1
    813    822     1
    813   1739     1
    816    825     1
    816    822     1
    816   1710     1
    819    825     1
    819    828     1
    819    840     1
    825   1730     1
    828   1701     1
    834   1692     1
    837   1721     1
    841    866     1
    841    863     1
    841    860     1
    842    857     1
    842    851     1
    842   1797     1
    845    854     1
    845    851     1
    845   1768     1
    848    854     1
    848    857     1
    848    869     1
    854   1788     1
    857   1759     1
    863   1750     1
    866   1779     1
    870    895     1
    870    892     1
    870    889     1
    871    886     1
    871    880     1
    871   1855     1
    874    883     1
    874    880     1
    874   1826     1
    877    883     1
    877    886     1
    877    898     1
    883   1846     1
    886   1817     1
    892   1808     1
    895   1837     1
    899    924     1
    899    921     1
    899    918     1
    900    915     1
    900    909     1
    900   1913     1
    903    912     1
    903    909     1
    903   1884     1
    906    912     1
    906    915     1
    906    927     1
    912   1904     1
    915   1875     1
    921   1866     1
    924   1895     1
    928    953     1
    928    950     1
    928    947     1
    929    944     1
    929    938     1
    929   1971     1
    932    941     1
    932    938     1
    932   1942     1
    935    941     1
    935    944     1
    935    956     1
    941   1962     1
    944   1933     1
    950   1924     1
    953   1953     1
    957    982     1
    957    979     1
    957    976     1
    958    973     1
    958    967     1
    958   2029     1
    961    970     1
    961    967     1
    961   2000     1
    964    970     1
    964    973     1
    964    985     1
    970   2020     1
    973   1991     1
    979   1982     1
    982   2011     1
    986   1011     1
    986   1008     1
    986   1005     1
    987   1002     1
    987    996     1
    987   2087     1
    990    999     1
    990    996     1
    990   2058     1
    993    999     1
    993   1002     1
    993   1014     1
    999   2078     1
   1002   2049     1
   1008   2040     1
   1011   2069     1
   1015   1040     1
   1015   1037     1
   1015   1034     1
   1016   1031     1
   1016   1025     1
   1016   2145     1
   1019   1028     1
   1019   1025     1
   1019   2116     1
   1022   1028     1
   1022   1031     1
   1022   1043     1
   1028   2136     1
   1031   2107     1
   1037   2098     1
   1040   2127     1
   1044   1069     1
   1044   1066     1
   1044   1063     1
   1045   1060     1
   1045   1054     1
   1045   2203     1
   1048   1057     1
   1048   1054     1
   1048   2174     1
   1051   1057     1
   1051   1060     1
   1051   1072     1
   1057   2194     1
   1060   2165     1
   1066   2156     1
   1069   2185     1
   1073   1098     1
   1073   1095     1
   1073   1092     1
   1074   1089     1
   1074   1083     1
   1074   2261     1
   1077   1086     1
   1077   1083     1
   1077   2232     1
   1080   1086     1
   1080   1089     1
   1080   1101     1
   1086   2252     1
   1089   2223     1
   1095   2214     1
   1098   2243     1
   1102   1127     1
   1102   1124     1
   1102   1121     1
   1103   1118     1
   1103   1112     1
   1103   2319     1
   1106   1115     1
   1106   1112     1
   1106   2290     1
   1109   1115     1
   1109   1118     1
   1109   1130     1
   1115   2310     1
   1118   2281     1
   1124   2272     1
   1127   2301     1
   1131   1156     1
   1131   1153     1
   1131   1150     1
   1132   1147     1
   1132   1141     1
   1132   2377     1
   1135   1144     1
   1135   1141     1
   1135   2348     1
   1138   1144     1
   1138   1147     1
   1138   1159     1
   1144   2368     1
   1147   2339     1
   1153   2330     1
   1156   2359     1
   1160   1185     1
   1160   1182     1
   1160   1179     1
   1161   1176     1
   1161   1170     1
   1161   2435     1
   1164   1173     1
   1164   1170     1
   1164   2406     1
   1167   1173     1
   1167   1176     1
   1167   1188     1
   1173   2426     1
   1176   2397     1
   1182   2388     1
   1185   2417     1
   1189   1214     1
   1189   1211     1
   1189   1208     1
   1190   1205     1
   1190   1199     1
   1190   2493     1
   1193   1202     1
   1193   1199     1
   1193   2464     1
   1196   1202     1
   1196   1205     1
   1196   1217     1
   1202   2484     1
   1205   2455     1
   1211   2446     1
   1214   2475     1
   1218   1243     1
   1218   1240     1
   1218   1237     1
   1219   1234     1
   1219   1228     1
   1219   2551     1
   1222   1231     1
   1222   1228     1
   1222   2522     1
   1225   1231     1
   1225   1234     1
   1225   1246     1
   1231   2542     1
   1234   2513     1
   1240   2504     1
   1243   2533     1
   1247   1272     1
   1247   1269     1
   1247   1266     1
   1248   1263     1
   1248   1257     1
   1248   2609     1
   1251   1260     1
   1251   1257     1
   1251   2580     1
   1254   1260     1
   1254   1263     1
   1254   1275     1
   1260   2600     1
   1263   2571     1
   1269   2562     1
   1272   2591     1
   1276   1301     1
   1276   1298     1
   1276   1295     1
   1277   1292     1
   1277   1286     1
   1277   2667     1
   1280   1289     1
   1280   1286     1
   1280   2638     1
   1283   1289     1
   1283   1292     1
   1283   1304     1
   1289   2658     1
   1292   2629     1
   1298   2620     1
   1301   2649     1
   1305   1330     1
   1305   1327     1
   1305   1324     1
   1306   1321     1
   1306   1315     1
   1306   2725     1
   1309   1318     1
   1309   1315     1
   1309   2696     1
   1312   1318     1
   1312   1321     1
   1312   1333     1
   1318   2716     1
   1321   2687     1
   1327   2678     1
   1330   2707     1
   1334   1359     1
   1334   1356     1
   1334   1353     1
   1335   1350     1
   1335   1344     1
   1335   2783     1
   1338   1347     1
   1338   1344     1
   1338   2754     1
   1341   1347     1
   1341   1350     1
   1341   1362     1
   1347   2774     1
   1350   2745     1
   1356   2736     1
   1359   2765     1
   1363   1388     1
   1363   1385     1
   1363   1382     1
   1364   1379     1
   1364   1373     1
   1364   2841     1
   1367   1376     1
   1367   1373     1
   1367   2812     1
   1370   1376     1
   1370   1379     1
   1370   1391     1
   1376   2832     1
   1379   2803     1
   1385   2794     1
   1388   2823     1
   1392   1417     1
   1392   1414     1
   1392   1411     1
   1393   1408     1
   1393   1402     1
   1393   2899     1
   1396   1405     1
   1396   1402     1
   1396   2870     1
   1399   1405     1
   1399   1408     1
   1399   1420     1
   1405   2890     1
   1408   2861     1
   1414   2852     1
   1417   2881     1
   1421   1446     1
   1421   1443     1
   1421   1440     1
   1422   1437     1
   1422   1431     1
   1422   2957     1
   1425   1434     1
   1425   1431     1
   1425   2928     1
   1428   1434     1
   1428   1437     1
   1428   1449     1
   1434   2948     1
   1437   2919     1
   1443   2910     1
   1446   2939     1
   1450   1475     1
   1450   1472     1
   1450   1469     1
   1451   1466     1
   1451   1460     1
   1451   3015     1
   1454   1463     1
   1454   1460     1
   1454   2986     1
   1457   1463     1
   1457   1466     1
   1457   1478     1
   1463   3006     1
   1466   2977     1
   1472   2968     1
   1475   2997     1
   1479   1504     1
   1479   1501     1
   1479   1498     1
   1480   1495     1
   1480   1489     1
   1480   3073     1
   1483   1492     1
   1483   1489     1
   1483   3044     1
   1486   1492     1
   1486   1495     1
   1486   1507     1
   1492   3064     1
   1495   3035     1
   1501   3026     1
   1504   3055     1
   1508   1533     1
   1508   1530     1
   1508   1527     1
   1509   1524     1
   1509   1518     1
   1509   3131     1
   1512   1521     1
   1512   1518     1
   1512   3102     1
   1515   1521     1
   1515   1524     1
   1515   1536     1
   1521   3122     1
   1524   3093     1
   1530   3084     1
   1533   3113     1
   1537   1562     1
   1537   1559     1
   1537   1556     1
   1538   1553     1
   1538   1547     1
   1538   3189     1
   1541   1550     1
   1541   1547     1
   1541   3160     1
   1544   1550     1
   1544   1553     1
   1544   1565     1
   1550   3180     1
   1553   3151     1
   1559   3142     1
   1562   3171     1
   1566   1591     1
   1566   1588     1
   1566   1585     1
   1567   1582     1
   1567   1576     1
   1567   3247     1
   1570   1579     1
   1570   1576     1
   1570   3218     1
   1573   1579     1
   1573   1582     1
   1573   1594     1
   1579   3238     1
   1582   3209     1
   1588   3200     1
   1591   3229     1
   1595   1620     1
   1595   1617     1
   1595   1614     1
   1596   1611     1
   1596   1605     1
   1596   3305     1
   1599   1608     1
   1599   1605     1
   1599   3276     1
   1602   1608     1
   1602   1611     1
   1602   1623     1
   1608   3296     1
   1611   3267     1
   1617   3258     1
   1620   3287     1
   1624   1649     1
   1624   1646     1
   1624   1643     1
   1625   1640     1
   1625   1634     1
   1625   3363     1
   1628   1637     1
   1628   1634     1
   1628   3334     1
   1631   1637     1
   1631   1640     1
   1631   1652     1
   1637   3354     1
   1640   3325     1
   1646   3316     1
   1649   3345     1
   1653   1678     1
   1653   1675     1
   1653   1672     1
   1654   1669     1
   1654   1663     1
   1654   3421     1
   1657   1666     1
   1657   1663     1
   1657   3392     1
   1660   1666     1
   1660   1669     1
   1660   1681     1
   1666   3412     1
   1669   3383     1
   1675   3374     1
   1678   3403     1
   1682   1707     1
   1682   1704     1
   1682   1701     1
   1683   1698     1
   1683   1692     1
   1683   3479     1
   1686   1695     1
   1686   1692     1
   1686   3450     1
   1689   1695     1
   1689   1698     1
   1689   1710     1
   1695   3470     1
   1698   3441     1
   1704   3432     1
   1707   3461     1
   1711   1736     1
   1711   1733     1
   1711   1730     1
   1712   1727     1
   1712   1721     1
   1712   3537     1
   1715   1724     1
   1715   1721     1
   1715   3508     1
   1718   1724     1
   1718   1727     1
   1718   1739     1
   1724   3528     1
   1727   3499     1
   1733   3490     1
   1736   3519     1
   1740   1765     1
   1740   1762     1
   1740   1759     1
   1741   1756     1
   1741   1750     1
   1741   3595     1
   1744   1753     1
   1744   1750     1
   1744   3566     1
   1747   1753     1
   1747   1756     1
   1747   1768     1
   1753   3586     1
   1756   3557     1
   1762   3548     1
   1765   3577     1
   1769   1794     1
   1769   1791     1
   1769   1788     1
   1770   1785     1
   1770   1779     1
   1770   3653     1
   1773   1782     1
   1773   1779     1
   1773   3624     1
   1776   1782     1
   1776   1785     1
   1776   1797     1
   1782   3644     1
   1785   3615     1
   1791   3606     1
   1794   3635     1
   1798   1823     1
   1798   1820     1
   1798   1817     1
   1799   1814     1
   1799   1808     1
   1799   3679     1
   1802   1811     1
   1802   1808     1
   1802   3666     1
   1805   1811     1
   1805   1814     1
   1805   1826     1
   1811   3673     1
   1814   3660     1
   1820   3657     1
   1823   3670     1
   1827   1852     1
   1827   1849     1
   1827   1846     1
   1828   1843     1
   1828   1837     1
   1828   3705     1
   1831   1840     1
   1831   1837     1
   1831   3692     1
   1834   1840     1
   1834   1843     1
   1834   1855     1
   1840   3699     1
   1843   3686     1
   1849   3683     1
   1852   3696     1
   1856   1881     1
   1856   1878     1
   1856   1875     1
   1857   1872     1
   1857   1866     1
   1857   3731     1
   1860   1869     1
   1860   1866     1
   1860   3718     1
   1863   1869     1
   1863   1872     1
   1863   1884     1
   1869   3725     1
   1872   3712     1
   1878   3709     1
   1881   3722     1
   1885   1910     1
   1885   1907     1
   1885   1904     1
   1886   1901     1
   1886   1895     1
   1886   3757     1
   1889   1898     1
   1889   1895     1
   1889   3744     1
   1892   1898     1
   1892   1901     1
   1892   1913     1
   1898   3751     1
   1901   3738     1
   1907   3735     1
   1910   3748     1
   1914   1939     1
   1914   1936     1
   1914   1933     1
   1915   1930     1
   1915   1924     1
   1915   3783     1
   1918   1927     1
   1918   1924     1
   1918   3770     1
   1921   1927     1
   1921   1930     1
   1921   1942     1
   1927   3777     1
   1930   3764     1
   1936   3761     1
   1939   3774     1
   1943   1968     1
   1943   1965     1
   1943   1962     1
   1944   1959     1
   1944   1953     1
   1944   3809     1
   1947   1956     1
   1947   1953     1
   1947   3796     1
   1950   1956     1
   1950   1959     1
   1950   1971     1
   1956   3803     1
   1959   3790     1
   1965   3787     1
   1968   3800     1
   1972   1997     1
   1972   1994     1
   1972   1991     1
   1973   1988     1
   1973   1982     1
   1973   3835     1
   1976   1985     1
   1976   1982     1
   1976   3822     1
   1979   1985     1
   1979   1988     1
   1979   2000     1
   1985   3829     1
   1988   3816     1
   1994   3813     1
   1997   3826     1
   2001   2026     1
   2001   2023     1
   2001   2020     1
   2002   2017     1
   2002   2011     1
   2002   3861     1
   2005   2014     1
   2005   2011     1
   2005   3848     1
   2008   2014     1
   2008   2017     1
   2008   2029     1
   2014   3855     1
   2017   3842     1
   2023   3839     1
   2026   3852     1
   2030   2055     1
   2030   2052     1
   2030   2049     1
   2031   2046     1
   2031   2040     1
   2031   3887     1
   2034   2043     1
   2034   2040     1
   2034   3874     1
   2037   2043     1
   2037   2046     1
   2037   2058     1
   2043   3881     1
   2046   3868     1
   2052   3865     1
   2055   3878     1
   2059   2084     1
   2059   2081     1
   2059   2078     1
   2060   2075     1
   2060   2069     1
   2060   3913     1
   2063   2072     1
   2063   2069     1
   2063   3900     1
   2066   2072     1
   2066   2075     1
   2066   2087     1
   2072   3907     1
   2075   3894     1
   2081   3891     1
   2084   3904     1
   2088   2113     1
   2088   2110     1
   2088   2107     1
   2089   2104     1
   2089   2098     1
   2089   3939     1
   2092   2101     1
   2092   2098     1
   2092   3926     1
   2095   2101     1
   2095   2104     1
   2095   2116     1
   2101   3933     1
   2104   3920     1
   2110   3917     1
   2113   3930     1
   2117   2142     1
   2117   2139     1
   2117   2136     1
   2118   2133     1
   2118   2127     1
   2118   3965     1
   2121   2130     1
   2121   2127     1
   2121   3952     1
   2124   2130     1
   2124   2133     1
   2124   2145     1
   2130   3959     1
   2133   3946     1
   2139   3943     1
   2142   3956     1
   2146   2171     1
   2146   2168     1
   2146   2165     1
   2147   2162     1
   2147   2156     1
   2147   3991     1
   2150   2159     1
   2150   2156     1
   2150   3978     1
   2153   2159     1
   2153   2162     1
   2153   2174     1
   2159   3985     1
   2162   3972     1
   2168   3969     1
   2171   3982     1
   2175   2200     1
   2175   2197     1
   2175   2194     1
   2176   2191     1
   2176   2185     1
   2176   4017     1
   2179   2188     1
   2179   2185     1
   2179   4004     1
   2182   2188     1
   2182   2191     1
   2182   2203     1
   2188   4011     1
   2191   3998     1
   2197   3995     1
   2200   4008     1
   2204   2229     1
   2204   2226     1
   2204   2223     1
   2205   2220     1
   2205   2214     1
   2205   4043     1
   2208   2217     1
   2208   2214     1
   2208   4030     1
   2211   2217     1
   2211   2220     1
   2211   2232     1
   2217   4037     1
   2220   4024     1
   2226   4021     1
   2229   4034     1
   2233   2258     1
   2233   2255     1
   2233   2252     1
   2234   2249     1
   2234   2243     1
   2234   4069     1
   2237   2246     1
   2237   2243     1
   2237   4056     1
   2240   2246     1
   2240   2249     1
   2240   2261     1
   2246   4063     1
   2249   4050     1
   2255   4047     1
   2258   4060     1
   2262   2287     1
   2262   2284     1
   2262   2281     1
   2263   2278     1
   2263   2272     1
   2263   4095     1
   2266   2275     1
   2266   2272     1
   2266   4082     1
   2269   2275     1
   2269   2278     1
   2269   2290     1
   2275   4089     1
   2278   4076     1
   2284   4073     1
   2287   4086     1
   2291   2316     1
   2291   2313     1
   2291   2310     1
   2292   2307     1
   2292   2301     1
   2292   4121     1
   2295   2304     1
   2295   2301     1
   2295   4108     1
   2298   2304     1
   2298   2307     1
   2298   2319     1
   2304   4115     1
   2307   4102     1
   2313   4099     1
   2316   4112     1
   2320   2345     1
   2320   2342     1
   2320   2339     1
   2321   2336     1
   2321   2330     1
   2321   4147     1
   2324   2333     1
   2324   2330     1
   2324   4134     1
   2327   2333     1
   2327   2336     1
   2327   2348     1
   2333   4141     1
   2336   4128     1
   2342   4125     1
   2345   4138     1
   2349   2374     1
   2349   2371     1
   2349   2368     1
   2350   2365     1
   2350   2359     1
   2350   4173     1
   2353   2362     1
   2353   2359     1
   2353   4160     1
   2356   2362     1
   2356   2365     1
   2356   2377     1
   2362   4167     1
   2365   4154     1
   2371   4151     1
   2374   4164     1
   2378   2403     1
   2378   2400     1
   2378   2397     1
   2379   2394     1
   2379   2388     1
   2379   4199     1
   2382   2391     1
   2382   2388     1
   2382   4186     1
   2385   2391     1
   2385   2394     1
   2385   2406     1
   2391   4193     1
   2394   4180     1
   2400   4177     1
   2403   4190     1
   2407   2432     1
   2407   2429     1
   2407   2426     1
   2408   2423     1
   2408   2417     1
   2408   4225     1
   2411   2420     1
   2411   2417     1
   2411   4212     1
   2414   2420     1
   2414   2423     1
   2414   2435     1
   2420   4219     1
   2423   4206     1
   2429   4203     1
   2432   4216     1
   2436   2461     1
   2436   2458     1
   2436   2455     1
   2437   2452     1
   2437   2446     1
   2437   4251     1
   2440   2449     1
   2440   2446     1
   2440   4238     1
   2443   2449     1
   2443   2452     1
   2443   2464     1
   2449   4245     1
   2452   4232     1
   2458   4229     1
   2461   4242     1
   2465   2490     1
   2465   2487     1
   2465   2484     1
   2466   2481     1
   2466   2475     1
   2466   4277     1
   2469   2478     1
   2469   2475     1
   2469   4264     1
   2472   2478     1
   2472   2481     1
   2472   2493     1
   2478   4271     1
   2481   4258     1
   2487   4255     1
   2490   4268     1
   2494   2519     1
   2494   2516     1
   2494   2513     1
   2495   2510     1
   2495   2504     1
   2495   4303     1
   2498   2507     1
   2498   2504     1
   2498   4290     1
   2501   2507     1
   2501   2510     1
   2501   2522     1
   2507   4297     1
   2510   4284     1
   2516   4281     1
   2519   4294     1
   2523   2548     1
   2523   2545     1
   2523   2542     1
   2524   2539     1
   2524   2533     1
   2524   4329     1
   2527   2536     1
   2527   2533     1
   2527   4316     1
   2530   2536     1
   2530   2539     1
   2530   2551     1
   2536   4323     1
   2539   4310     1
   2545   4307     1
   2548   4320     1
   2552   2577     1
   2552   2574     1
   2552   2571     1
   2553   2568     1
   2553   2562     1
   2553   4355     1
   2556   2565     1
   2556   2562     1
   2556   4342     1
   2559   2565     1
   2559   2568     1
   2559   2580     1
   2565   4349     1
   2568   4336     1
   2574   4333     1
   2577   4346     1
   2581   2606     1
   2581   2603     1
   2581   2600     1
   2582   2597     1
   2582   2591     1
   2582   4381     1
   2585   2594     1
   2585   2591     1
   2585   4368     1
   2588   2594     1
   2588   2597     1
   2588   2609     1
   2594   4375     1
   2597   4362     1
   2603   4359     1
   2606   4372     1
   2610   2635     1
   2610   2632     1
   2610   2629     1
   2611   2626     1
   2611   2620     1
   2611   4407     1
   2614   2623     1
   2614   2620     1
   2614   4394     1
   2617   2623     1
   2617   2626     1
   2617   2638     1
   2623   4401     1
   2626   4388     1
   2632   4385     1
   2635   4398     1
   2639   2664     1
   2639   2661     1
   2639   2658     1
   2640   2655     1
   2640   2649     1
   2640   4433     1
   2643   2652     1
   2643   2649     1
   2643   4420     1
   2646   2652     1
   2646   2655     1
   2646   2667     1
   2652   4427     1
   2655   4414     1
   2661   4411     1
   2664   4424     1
   2668   2693     1
   2668   2690     1
   2668   2687     1
   2669   2684     1
   2669   2678     1
   2669   4459     1
   2672   2681     1
   2672   2678     1
   2672   4446     1
   2675   2681     1
   2675   2684     1
   2675   2696     1
   2681   4453     1
   2684   4440     1
   2690   4437     1
   2693   4450     1
   2697   2722     1
   2697   2719     1
   2697   2716     1
   2698   2713     1
   2698   2707     1
   2698   4485     1
   2701   2710     1
   2701   2707     1
   2701   4472     1
   2704   2710     1
   2704   2713     1
   2704   2725     1
   2710   4479     1
   2713   4466     1
   2719   4463     1
   2722   4476     1
   2726   2751     1
   2726   2748     1
   2726   2745     1
   2727   2742     1
   2727   2736     1
   2727   4511     1
   2730   2739     1
   2730   2736     1
   2730   4498     1
   2733   2739     1
   2733   2742     1
   2733   2754     1
   2739   4505     1
   2742   4492     1
   2748   4489     1
   2751   4502     1
   2755   2780     1
   2755   2777     1
   2755   2774     1
   2756   2771     1
   2756   2765     1
   2756   4537     1
   2759   2768     1
   2759   2765     1
   2759   4524     1
   2762   2768     1
   2762   2771     1
   2762   2783     1
   2768   4531     1
   2771   4518     1
   2777   4515     1
   2780   4528     1
   2784   2809     1
   2784   2806     1
   2784   2803     1
   2785   2800     1
   2785   2794     1
   2785   4563     1
   2788   2797     1
   2788   2794     1
   2788   4550     1
   2791   2797     1
   2791   2800     1
   2791   2812     1
   2797   4557     1
   2800   4544     1
   2806   4541     1
   2809   4554     1
   2813   2838     1
   2813   2835     1
   2813   2832     1
   2814   2829     1
   2814   2823     1
   2814   4589     1
   2817   2826     1
   2817   2823     1
   2817   4576     1
   2820   2826     1
   2820   2829     1
   2820   2841     1
   2826   4583     1
   2829   4570     1
   2835   4567     1
   2838   4580     1
   2842   2867     1
   2842   2864     1
   2842   2861     1
   2843   2858     1
   2843   2852     1
   2843   4615     1
   2846   2855     1
   2846   2852     1
   2846   4602     1
   2849   2855     1
   2849   2858     1
   2849   2870     1
   2855   4609     1
   2858   4596     1
   2864   4593     1
   2867   4606     1
   2871   2896     1
   2871   2893     1
   2871   2890     1
   2872   2887     1
   2872   2881     1
   2872   4641     1
   2875   2884     1
   2875   2881     1
   2875   4628     1
   2878   2884     1
   2878   2887     1
   2878   2899     1
   2884   4635     1
   2887   4622     1
   2893   4619     1
   2896   4632     1
   2900   2925     1
   2900   2922     1
   2900   2919     1
   2901   2916     1
   2901   2910     1
   2901   4667     1
   2904   2913     1
   2904   2910     1
   2904   4654     1
   2907   2913     1
   2907   2916     1
   2907   2928     1
   2913   4661     1
   2916   4648     1
   2922   4645     1
   2925   4658     1
   2929   2954     1
   2929   2951     1
   2929   2948     1
   2930   2945     1
   2930   2939     1
   2930   4693     1
   2933   2942     1
   2933   2939     1
   2933   4680     1
   2936   2942     1
   2936   2945     1
   2936   2957     1
   2942   4687     1
   2945   4674     1
   2951   4671     1
   2954   4684     1
   2958   2983     1
   2958   2980     1
   2958   2977     1
   2959   2974     1
   2959   2968     1
   2959   4719     1
   2962   2971     1
   2962   2968     1
   2962   4706     1
   2965   2971     1
   2965   2974     1
   2965   2986     1
   2971   4713     1
   2974   4700     1
   2980   4697     1
   2983   4710     1
   2987   3012     1
   2987   3009     1
   2987   3006     1
   2988   3003     1
   2988   2997     1
   2988   4745     1
   2991   3000     1
   2991   2997     1
   2991   4732     1
   2994   3000     1
   2994   3003     1
   2994   3015     1
   3000   4739     1
   3003   4726     1
   3009   4723     1
   3012   4736     1
   3016   3041     1
   3016   3038     1
   3016   3035     1
   3017   3032     1
   3017   3026     1
   3017   4771     1
   3020   3029     1
   3020   3026     1
   3020   4758     1
   3023   3029     1
   3023   3032     1
   3023   3044     1
   3029   4765     1
   3032   4752     1
   3038   4749     1
   3041   4762     1
   3045   3070     1
   3045   3067     1
   3045   3064     1
   3046   3061     1
   3046   3055     1
   3046   4797     1
   3049   3058     1
   3049   3055     1
   3049   4784     1
   3052   3058     1
   3052   3061     1
   3052   3073     1
   3058   4791     1
   3061   4778     1
   3067   4775     1
   3070   4788     1
   3074   3099     1
   3074   3096     1
   3074   3093     1
   3075   3090     1
   3075   3084     1
   3075   4823     1
   3078   3087     1
   3078   3084     1
   3078   4810     1
   3081   3087     1
   3081   3090     1
   3081   3102     1
   3087   4817     1
   3090   4804     1
   3096   4801     1
   3099   4814     1
   3103   3128     1
   3103   3125     1
   3103   3122     1
   3104   3119     1
   3104   3113     1
   3104   4849     1
   3107   3116     1
   3107   3113     1
   3107   4836     1
   3110   3116     1
   3110   3119     1
   3110   3131     1
   3116   4843     1
   3119   4830     1
   3125   4827     1
   3128   4840     1
   3132   3157     1
   3132   3154     1
   3132   3151     1
   3133   3148     1
   3133   3142     1
   3133   4875     1
   3136   3145     1
   3136   3142     1
   3136   4862     1
   3139   3145     1
   3139   3148     1
   3139   3160     1
   3145   4869     1
   3148   4856     1
   3154   4853     1
   3157   4866     1
   3161   3186     1
   3161   3183     1
   3161   3180     1
   3162   3177     1
   3162   3171     1
   3162   4901     1
   3165   3174     1
   3165   3171     1
   3165   4888     1
   3168   3174     1
   3168   3177     1
   3168   3189     1
   3174   4895     1
   3177   4882     1
   3183   4879     1
   3186   4892     1
   3190   3215     1
   3190   3212     1
   3190   3209     1
   3191   3206     1
   3191   3200     1
   3191   4927     1
   3194   3203     1
   3194   3200     1
   3194   4914     1
   3197   3203     1
   3197   3206     1
   3197   3218     1
   3203   4921     1
   3206   4908     1
   3212   4905     1
   3215   4918     1
   3219   3244     1
   3219   3241     1
   3219   3238     1
   3220   3235     1
   3220   3229     1
   3220   4953     1
   3223   3232     1
   3223   3229     1
   3223   4940     1
   3226   3232     1
   3226   3235     1
   3226   3247     1
   3232   4947     1
   3235   4934     1
   3241   4931     1
   3244   4944     1
   3248   3273     1
   3248   3270     1
   3248   3267     1
   3249   3264     1
   3249   3258     1
   3249   4979     1
   3252   3261     1
   3252   3258     1
   3252   4966     1
   3255   3261     1
   3255   3264     1
   3255   3276     1
   3261   4973     1
   3264   4960     1
   3270   4957     1
   3273   4970     1
   3277   3302     1
   3277   3299     1
   3277   3296     1
   3278   3293     1
   3278   3287     1
   3278   5005     1
   3281   3290     1
   3281   3287     1
   3281   4992     1
   3284   3290     1
   3284   3293     1
   3284   3305     1
   3290   4999     1
   3293   4986     1
   3299   4983     1
   3302   4996     1
   3306   3331     1
   3306   3328     1
   3306   3325     1
   3307   3322     1
   3307   3316     1
   3307   5031     1
   3310   3319     1
   3310   3316     1
   3310   5018     1
   3313   3319     1
   3313   3322     1
   3313   3334     1
   3319   5025     1
   3322   5012     1
   3328   5009     1
   3331   5022     1
   3335   3360     1
   3335   3357     1
   3335   3354     1
   3336   3351     1
   3336   3345     1
   3336   5057     1
   3339   3348     1
   3339   3345     1
   3339   5044     1
   3342   3348     1
   3342   3351     1
   3342   3363     1
   3348   5051     1
   3351   5038     1
   3357   5035     1
   3360   5048     1
   3364   3389     1
   3364   3386     1
   3364   3383     1
   3365   3380     1
   3365   3374     1
   3365   5083     1
   3368   3377     1
   3368   3374     1
   3368   5070     1
   3371   3377     1
   3371   3380     1
   3371   3392     1
   3377   5077     1
   3380   5064     1
   3386   5061     1
   3389   5074     1
   3393   3418     1
   3393   3415     1
   3393   3412     1
   3394   3409     1
   3394   3403     1
   3394   5109     1
   3397   3406     1
   3397   3403     1
   3397   5096     1
   3400   3406     1
   3400   3409     1
   3400   3421     1
   3406   5103     1
   3409   5090     1
   3415   5087     1
   3418   5100     1
   3422   3447     1
   3422   3444     1
   3422   3441     1
   3423   3438     1
   3423   3432     1
   3423   5135     1
   3426   3435     1
   3426   3432     1
   3426   5122     1
   3429   3435     1
   3429   3438     1
   3429   3450     1
   3435   5129     1
   3438   5116     1
   3444   5113     1
   3447   5126     1
   3451   3476     1
   3451   3473     1
   3451   3470     1
   3452   3467     1
   3452   3461     1
   3452   5161     1
   3455   3464     1
   3455   3461     1
   3455   5148     1
   3458   3464     1
   3458   3467     1
   3458   3479     1
   3464   5155     1
   3467   5142     1
   3473   5139     1
   3476   5152     1
   3480   3505     1
   3480   3502     1
   3480   3499     1
   3481   3496     1
   3481   3490     1
   3481   5187     1
   3484   3493     1
   3484   3490     1
   3484   5174     1
   3487   3493     1
   3487   3496     1
   3487   3508     1
   3493   5181     1
   3496   5168     1
   3502   5165     1
   3505   5178     1
   3509   3534     1
   3509   3531     1
   3509   3528     1
   3510   3525     1
   3510   3519     1
   3510   5213     1
   3513   3522     1
   3513   3519     1
   3513   5200     1
   3516   3522     1
   3516   3525     1
   3516   3537     1
   3522   5207     1
   3525   5194     1
   3531   5191     1
   3534   5204     1
   3538   3563     1
   3538   3560     1
   3538   3557     1
   3539   3554     1
   3539   3548     1
   3539   5239     1
   3542   3551     1
   3542   3548     1
   3542   5226     1
   3545   3551     1
   3545   3554     1
   3545   3566     1
   3551   5233     1
   3554   5220     1
   3560   5217     1
   3563   5230     1
   3567   3592     1
   3567   3589     1
   3567   3586     1
   3568   3583     1
   3568   3577     1
   3568   5265     1
   3571   3580     1
   3571   3577     1
   3571   5252     1
   3574   3580     1
   3574   3583     1
   3574   3595     1
   3580   5259     1
   3583   5246     1
   3589   5243     1
   3592   5256     1
   3596   3621     1
   3596   3618     1
   3596   3615     1
   3597   3612     1
   3597   3606     1
   3597   5291     1
   3600   3609     1
   3600   3606     1
   3600   5278     1
   3603   3609     1
   3603   3612     1
   3603   3624     1
   3609   5285     1
   3612   5272     1
   3618   5269     1
   3621   5282     1
   3625   3650     1
   3625   3647     1
   3625   3644     1
   3626   3641     1
   3626   3635     1
   3626   5317     1
   3629   3638     1
   3629   3635     1
   3629   5304     1
   3632   3638     1
   3632   3641     1
   3632   3653     1
   3638   5311     1
   3641   5298     1
   3647   5295     1
   3650   5308     1
   3654   3666     1
   3660   3663     1
   3667   3679     1
   3673   3676     1
   3680   3692     1
   3686   3689     1
   3693   3705     1
   3699   3702     1
   3706   3718     1
   3712   3715     1
   3719   3731     1
   3725   3728     1
   3732   3744     1
   3738   3741     1
   3745   3757     1
   3751   3754     1
   3758   3770     1
   3764   3767     1
   3771   3783     1
   3777   3780     1
   3784   3796     1
   3790   3793     1
   3797   3809     1
   3803   3806     1
   3810   3822     1
   3816   3819     1
   3823   3835     1
   3829   3832     1
   3836   3848     1
   3842   3845     1
   3849   3861     1
   3855   3858     1
   3862   3874     1
   3868   3871     1
   3875   3887     1
   3881   3884     1
   3888   3900     1
   3894   3897     1
   3901   3913     1
   3907   3910     1
   3914   3926     1
   3920   3923     1
   3927   3939     1
   3933   3936     1
   3940   3952     1
   3946   3949     1
   3953   3965     1
   3959   3962     1
   3966   3978     1
   3972   3975     1
   3979   3991     1
   3985   3988     1
   3992   4004     1
   3998   4001     1
   4005   4017     1
   4011   4014     1
   4018   4030     1
   4024   4027     1
   4031   4043     1
   4037   4040     1
   4044   4056     1
   4050   4053     1
   4057   4069     1
   4063   4066     1
   4070   4082     1
   4076   4079     1
   4083   4095     1
   4089   4092     1
   4096   4108     1
   4102   4105     1
   4109   4121     1
   4115   4118     1
   4122   4134     1
   4128   4131     1
   4135   4147     1
   4141   4144     1
   4148   4160     1
   4154   4157     1
   4161   4173     1
   4167   4170     1
   4174   4186     1
   4180   4183     1
   4187   4199     1
   4193   4196     1
   4200   4212     1
   4206   4209     1
   4213   4225     1
   4219   4222     1
   4226   4238     1
   4232   4235     1
   4239   4251     1
   4245   4248     1
   4252   4264     1
   4258   4261     1
   4265   4277     1
   4271   4274     1
   4278   4290     1
   4284   4287     1
   4291   4303     1
   4297   4300     1
   4304   4316     1
   4310   4313     1
   4317   4329     1
   4323   4326     1
   4330   4342     1
   4336   4339     1
   4343   4355     1
   4349   4352     1
   4356   4368     1
   4362   4365     1
   4369   4381     1
   4375   4378     1
   4382   4394     1
   4388   4391     1
   4395   4407     1
   4401   4404     1
   4408   4420     1
   4414   4417     1
   4421   4433     1
   4427   4430     1
   4434   4446     1
   4440   4443     1
   4447   4459     1
   4453   4456     1
   4460   4472     1
   4466   4469     1
   4473   4485     1
   4479   4482     1
   4486   4498     1
   4492   4495     1
   4499   4511     1
   4505   4508     1
   4512   4524     1
   4518   4521     1
   4525   4537     1
   4531   4534     1
   4538   4550     1
   4544   4547     1
   4551   4563     1
   4557   4560     1
   4564   4576     1
   4570   4573     1
   4577   4589     1
   4583   4586     1
   4590   4602     1
   4596   4599     1
   4603   4615     1
   4609   4612     1
   4616   4628     1
   4622   4625     1
   4629   4641     1
   4635   4638     1
   4642   4654     1
   4648   4651     1
   4655   4667     1
   4661   4664     1
   4668   4680     1
   4674   4677     1
   4681   4693     1
   4687   4690     1
   4694   4706     1
   4700   4703     1
   4707   4719     1
   4713   4716     1
   4720   4732     1
   4726   4729     1
   4733   4745     1
   4739   4742     1
   4746   4758     1
   4752   4755     1
   4759   4771     1
   4765   4768     1
   4772   4784     1
   4778   4781     1
   4785   4797     1
   4791   4794     1
   4798   4810     1
   4804   4807     1
   4811   4823     1
   4817   4820     1
   4824   4836     1
   4830   4833     1
   4837   4849     1
   4843   4846     1
   4850   4862     1
   4856   4859     1
   4863   4875     1
   4869   4872     1
   4876   4888     1
   4882   4885     1
   4889   4901     1
   4895   4898     1
   4902   4914     1
   4908   4911     1
   4915   4927     1
   4921   4924     1
   4928   4940     1
   4934   4937     1
   4941   4953     1
   4947   4950     1
   4954   4966     1
   4960   4963     1
   4967   4979     1
   4973   4976     1
   4980   4992     1
   4986   4989     1
   4993   5005     1
   4999   5002     1
   5006   5018     1
   5012   5015     1
   5019   5031     1
   5025   5028     1
   5032   5044     1
   5038   5041     1
   5045   5057     1
   5051   5054     1
   5058   5070     1
   5064   5067     1
   5071   5083     1
   5077   5080     1
   5084   5096     1
   5090   5093     1
   5097   5109     1
   5103   5106     1
   5110   5122     1
   5116   5119     1
   5123   5135     1
   5129   5132     1
   5136   5148     1
   5142   5145     1
   5149   5161     1
   5155   5158     1
   5162   5174     1
   5168   5171     1
   5175   5187     1
   5181   5184     1
   5188   5200     1
   5194   5197     1
   5201   5213     1
   5207   5210     1
   5214   5226     1
   5220   5223     1
   5227   5239     1
   5233   5236     1
   5240   5252     1
   5246   5249     1
   5253   5265     1
   5259   5262     1
   5266   5278     1
   5272   5275     1
   5279   5291     1
   5285   5288     1
   5292   5304     1
   5298   5301     1
   5305   5317     1
   5311   5314     1
      1      9     1
      1     10     1
      1     12     1
      1     13     1
      2      6     1
      2      7     1
      2     15     1
      2     16     1
      5      3     1
      3     14     1
      3      9     1
      3     10     1
      5      4     1
      4     14     1
      4      9     1
      4     10     1
      5     18     1
      5     19     1
      6     17     1
      6     12     1
      6     13     1
      7     17     1
      7     12     1
      7     13     1
      9     20     1
      9     15     1
      9     16     1
     10     20     1
     10     15     1
     10     16     1
     12     21     1
     12     18     1
     12     19     1
     13     21     1
     13     18     1
     13     19     1
     14     29     1
     14     30     1
     14     32     1
     14     33     1
     15     28     1
     15     31     1
     16     28     1
     16     31     1
     17     23     1
     17     24     1
     17     26     1
     17     27     1
     18     22     1
     18     25     1
     19     22     1
     19     25     1
     20     41     1
     20     42     1
     20     44     1
     20     45     1
     21     35     1
     21     36     1
     21     38     1
     21     39     1
     22     26     1
     22     27     1
     22     56     1
     22     57     1
     23     25     1
     23     55     1
     23     35     1
     23     36     1
     24     25     1
     24     55     1
     24     35     1
     24     36     1
     25     53     1
     25     54     1
     26     52     1
     26     38     1
     26     39     1
     27     52     1
     27     38     1
     27     39     1
     28     32     1
     28     33     1
     28     50     1
     28     51     1
     29     31     1
     29     49     1
     29     41     1
     29     42     1
     30     31     1
     30     49     1
     30     41     1
     30     42     1
     31     47     1
     31     48     1
     32     46     1
     32     44     1
     32     45     1
     33     46     1
     33     44     1
     33     45     1
     35    173     1
     35     56     1
     35     57     1
     36    173     1
     36     56     1
     36     57     1
     38    144     1
     38     53     1
     38     54     1
     39    144     1
     39     53     1
     39     54     1
     41    115     1
     41     50     1
     41     51     1
     42    115     1
     42     50     1
     42     51     1
     44     86     1
     44     47     1
     44     48     1
     45     86     1
     45     47     1
     45     48     1
     46     78     1
     46     79     1
     47     77     1
     48     77     1
     49    107     1
     49    108     1
     50    106     1
     51    106     1
     52    136     1
     52    137     1
     53    135     1
     54    135     1
     55    165     1
     55    166     1
     56    164     1
     57    164     1
     58     72     1
     58     73     1
     58     75     1
     58     76     1
     58     69     1
     58     70     1
     59     63     1
     59     64     1
     59     66     1
     59     67     1
     59     84     1
     59     85     1
     60     62     1
     60     65     1
     60     83     1
     60     72     1
     60     73     1
     61     62     1
     61     65     1
     61     83     1
     61     72     1
     61     73     1
     62     66     1
     62     67     1
     62     81     1
     62     82     1
     63     65     1
     63     80     1
     63     75     1
     63     76     1
     64     65     1
     64     80     1
     64     75     1
     64     76     1
     65     78     1
     65     79     1
     66     77     1
     66     69     1
     66     70     1
     67     77     1
     67     69     1
     67     70     1
     69     86     1
     69     78     1
     69     79     1
     70     86     1
     70     78     1
     70     79     1
     72    231     1
     72     84     1
     72     85     1
     73    231     1
     73     84     1
     73     85     1
     75    202     1
     75     81     1
     75     82     1
     76    202     1
     76     81     1
     76     82     1
     80    194     1
     80    195     1
     81    193     1
     82    193     1
     83    223     1
     83    224     1
     84    222     1
     85    222     1
     87    101     1
     87    102     1
     87    104     1
     87    105     1
     87     98     1
     87     99     1
     88     92     1
     88     93     1
     88     95     1
     88     96     1
     88    113     1
     88    114     1
     89     91     1
     89     94     1
     89    112     1
     89    101     1
     89    102     1
     90     91     1
     90     94     1
     90    112     1
     90    101     1
     90    102     1
     91     95     1
     91     96     1
     91    110     1
     91    111     1
     92     94     1
     92    109     1
     92    104     1
     92    105     1
     93     94     1
     93    109     1
     93    104     1
     93    105     1
     94    107     1
     94    108     1
     95    106     1
     95     98     1
     95     99     1
     96    106     1
     96     98     1
     96     99     1
     98    115     1
     98    107     1
     98    108     1
     99    115     1
     99    107     1
     99    108     1
    101    289     1
    101    113     1
    101    114     1
    102    289     1
    102    113     1
    102    114     1
    104    260     1
    104    110     1
    104    111     1
    105    260     1
    105    110     1
    105    111     1
    109    252     1
    109    253     1
    110    251     1
    111    251     1
    112    281     1
    112    282     1
    113    280     1
    114    280     1
    116    130     1
    116    131     1
    116    133     1
    116    134     1
    116    127     1
    116    128     1
    117    121     1
    117    122     1
    117    124     1
    117    125     1
    117    142     1
    117    143     1
    118    120     1
    118    123     1
    118    141     1
    118    130     1
    118    131     1
    119    120     1
    119    123     1
    119    141     1
    119    130     1
    119    131     1
    120    124     1
    120    125     1
    120    139     1
    120    140     1
    121    123     1
    121    138     1
    121    133     1
    121    134     1
    122    123     1
    122    138     1
    122    133     1
    122    134     1
    123    136     1
    123    137     1
    124    135     1
    124    127     1
    124    128     1
    125    135     1
    125    127     1
    125    128     1
    127    144     1
    127    136     1
    127    137     1
    128    144     1
    128    136     1
    128    137     1
    130    347     1
    130    142     1
    130    143     1
    131    347     1
    131    142     1
    131    143     1
    133    318     1
    133    139     1
    133    140     1
    134    318     1
    134    139     1
    134    140     1
    138    310     1
    138    311     1
    139    309     1
    140    309     1
    141    339     1
    141    340     1
    142    338     1
    143    338     1
    145    159     1
    145    160     1
    145    162     1
    145    163     1
    145    156     1
    145    157     1
    146    150     1
    146    151     1
    146    153     1
    146    154     1
    146    171     1
    146    172     1
    147    149     1
    147    152     1
    147    170     1
    147    159     1
    147    160     1
    148    149     1
    148    152     1
    148    170     1
    148    159     1
    148    160     1
    149    153     1
    149    154     1
    149    168     1
    149    169     1
    150    152     1
    150    167     1
    150    162     1
    150    163     1
    151    152     1
    151    167     1
    151    162     1
    151    163     1
    152    165     1
    152    166     1
    153    164     1
    153    156     1
    153    157     1
    154    164     1
    154    156     1
    154    157     1
    156    173     1
    156    165     1
    156    166     1
    157    173     1
    157    165     1
    157    166     1
    159    405     1
    159    171     1
    159    172     1
    160    405     1
    160    171     1
    160    172     1
    162    376     1
    162    168     1
    162    169     1
    163    376     1
    163    168     1
    163    169     1
    167    368     1
    167    369     1
    168    367     1
    169    367     1
    170    397     1
    170    398     1
    171    396     1
    172    396     1
    174    188     1
    174    189     1
    174    191     1
    174    192     1
    174    185     1
    174    186     1
    175    179     1
    175    180     1
    175    182     1
    175    183     1
    175    200     1
    175    201     1
    176    178     1
    176    181     1
    176    199     1
    176    188     1
    176    189     1
    177    178     1
    177    181     1
    177    199     1
    177    188     1
    177    189     1
    178    182     1
    178    183     1
    178    197     1
    178    198     1
    179    181     1
    179    196     1
    179    191     1
    179    192     1
    180    181     1
    180    196     1
    180    191     1
    180    192     1
    181    194     1
    181    195     1
    182    193     1
    182    185     1
    182    186     1
    183    193     1
    183    185     1
    183    186     1
    185    202     1
    185    194     1
    185    195     1
    186    202     1
    186    194     1
    186    195     1
    188    463     1
    188    200     1
    188    201     1
    189    463     1
    189    200     1
    189    201     1
    191    434     1
    191    197     1
    191    198     1
    192    434     1
    192    197     1
    192    198     1
    196    426     1
    196    427     1
    197    425     1
    198    425     1
    199    455     1
    199    456     1
    200    454     1
    201    454     1
    203    217     1
    203    218     1
    203    220     1
    203    221     1
    203    214     1
    203    215     1
    204    208     1
    204    209     1
    204    211     1
    204    212     1
    204    229     1
    204    230     1
    205    207     1
    205    210     1
    205    228     1
    205    217     1
    205    218     1
    206    207     1
    206    210     1
    206    228     1
    206    217     1
    206    218     1
    207    211     1
    207    212     1
    207    226     1
    207    227     1
    208    210     1
    208    225     1
    208    220     1
    208    221     1
    209    210     1
    209    225     1
    209    220     1
    209    221     1
    210    223     1
    210    224     1
    211    222     1
    211    214     1
    211    215     1
    212    222     1
    212    214     1
    212    215     1
    214    231     1
    214    223     1
    214    224     1
    215    231     1
    215    223     1
    215    224     1
    217    521     1
    217    229     1
    217    230     1
    218    521     1
    218    229     1
    218    230     1
    220    492     1
    220    226     1
    220    227     1
    221    492     1
    221    226     1
    221    227     1
    225    484     1
    225    485     1
    226    483     1
    227    483     1
    228    513     1
    228    514     1
    229    512     1
    230    512     1
    232    246     1
    232    247     1
    232    249     1
    232    250     1
    232    243     1
    232    244     1
    233    237     1
    233    238     1
    233    240     1
    233    241     1
    233    258     1
    233    259     1
    234    236     1
    234    239     1
    234    257     1
    234    246     1
    234    247     1
    235    236     1
    235    239     1
    235    257     1
    235    246     1
    235    247     1
    236    240     1
    236    241     1
    236    255     1
    236    256     1
    237    239     1
    237    254     1
    237    249     1
    237    250     1
    238    239     1
    238    254     1
    238    249     1
    238    250     1
    239    252     1
    239    253     1
    240    251     1
    240    243     1
    240    244     1
    241    251     1
    241    243     1
    241    244     1
    243    260     1
    243    252     1
    243    253     1
    244    260     1
    244    252     1
    244    253     1
    246    579     1
    246    258     1
    246    259     1
    247    579     1
    247    258     1
    247    259     1
    249    550     1
    249    255     1
    249    256     1
    250    550     1
    250    255     1
    250    256     1
    254    542     1
    254    543     1
    255    541     1
    256    541     1
    257    571     1
    257    572     1
    258    570     1
    259    570     1
    261    275     1
    261    276     1
    261    278     1
    261    279     1
    261    272     1
    261    273     1
    262    266     1
    262    267     1
    262    269     1
    262    270     1
    262    287     1
    262    288     1
    263    265     1
    263    268     1
    263    286     1
    263    275     1
    263    276     1
    264    265     1
    264    268     1
    264    286     1
    264    275     1
    264    276     1
    265    269     1
    265    270     1
    265    284     1
    265    285     1
    266    268     1
    266    283     1
    266    278     1
    266    279     1
    267    268     1
    267    283     1
    267    278     1
    267    279     1
    268    281     1
    268    282     1
    269    280     1
    269    272     1
    269    273     1
    270    280     1
    270    272     1
    270    273     1
    272    289     1
    272    281     1
    272    282     1
    273    289     1
    273    281     1
    273    282     1
    275    637     1
    275    287     1
    275    288     1
    276    637     1
    276    287     1
    276    288     1
    278    608     1
    278    284     1
    278    285     1
    279    608     1
    279    284     1
    279    285     1
    283    600     1
    283    601     1
    284    599     1
    285    599     1
    286    629     1
    286    630     1
    287    628     1
    288    628     1
    290    304     1
    290    305     1
    290    307     1
    290    308     1
    290    301     1
    290    302     1
    291    295     1
    291    296     1
    291    298     1
    291    299     1
    291    316     1
    291    317     1
    292    294     1
    292    297     1
    292    315     1
    292    304     1
    292    305     1
    293    294     1
    293    297     1
    293    315     1
    293    304     1
    293    305     1
    294    298     1
    294    299     1
    294    313     1
    294    314     1
    295    297     1
    295    312     1
    295    307     1
    295    308     1
    296    297     1
    296    312     1
    296    307     1
    296    308     1
    297    310     1
    297    311     1
    298    309     1
    298    301     1
    298    302     1
    299    309     1
    299    301     1
    299    302     1
    301    318     1
    301    310     1
    301    311     1
    302    318     1
    302    310     1
    302    311     1
    304    695     1
    304    316     1
    304    317     1
    305    695     1
    305    316     1
    305    317     1
    307    666     1
    307    313     1
    307    314     1
    308    666     1
    308    313     1
    308    314     1
    312    658     1
    312    659     1
    313    657     1
    314    657     1
    315    687     1
    315    688     1
    316    686     1
    317    686     1
    319    333     1
    319    334     1
    319    336     1
    319    337     1
    319    330     1
    319    331     1
    320    324     1
    320    325     1
    320    327     1
    320    328     1
    320    345     1
    320    346     1
    321    323     1
    321    326     1
    321    344     1
    321    333     1
    321    334     1
    322    323     1
    322    326     1
    322    344     1
    322    333     1
    322    334     1
    323    327     1
    323    328     1
    323    342     1
    323    343     1
    324    326     1
    324    341     1
    324    336     1
    324    337     1
    325    326     1
    325    341     1
    325    336     1
    325    337     1
    326    339     1
    326    340     1
    327    338     1
    327    330     1
    327    331     1
    328    338     1
    328    330     1
    328    331     1
    330    347     1
    330    339     1
    330    340     1
    331    347     1
    331    339     1
    331    340     1
    333    753     1
    333    345     1
    333    346     1
    334    753     1
    334    345     1
    334    346     1
    336    724     1
    336    342     1
    336    343     1
    337    724     1
    337    342     1
    337    343     1
    341    716     1
    341    717     1
    342    715     1
    343    715     1
    344    745     1
    344    746     1
    345    744     1
    346    744     1
    348    362     1
    348    363     1
    348    365     1
    348    366     1
    348    359     1
    348    360     1
    349    353     1
    349    354     1
    349    356     1
    349    357     1
    349    374     1
    349    375     1
    350    352     1
    350    355     1
    350    373     1
    350    362     1
    350    363     1
    351    352     1
    351    355     1
    351    373     1
    351    362     1
    351    363     1
    352    356     1
    352    357     1
    352    371     1
    352    372     1
    353    355     1
    353    370     1
    353    365     1
    353    366     1
    354    355     1
    354    370     1
    354    365     1
    354    366     1
    355    368     1
    355    369     1
    356    367     1
    356    359     1
    356    360     1
    357    367     1
    357    359     1
    357    360     1
    359    376     1
    359    368     1
    359    369     1
    360    376     1
    360    368     1
    360    369     1
    362    811     1
    362    374     1
    362    375     1
    363    811     1
    363    374     1
    363    375     1
    365    782     1
    365    371     1
    365    372     1
    366    782     1
    366    371     1
    366    372     1
    370    774     1
    370    775     1
    371    773     1
    372    773     1
    373    803     1
    373    804     1
    374    802     1
    375    802     1
    377    391     1
    377    392     1
    377    394     1
    377    395     1
    377    388     1
    377    389     1
    378    382     1
    378    383     1
    378    385     1
    378    386     1
    378    403     1
    378    404     1
    379    381     1
    379    384     1
    379    402     1
    379    391     1
    379    392     1
    380    381     1
    380    384     1
    380    402     1
    380    391     1
    380    392     1
    381    385     1
    381    386     1
    381    400     1
    381    401     1
    382    384     1
    382    399     1
    382    394     1
    382    395     1
    383    384     1
    383    399     1
    383    394     1
    383    395     1
    384    397     1
    384    398     1
    385    396     1
    385    388     1
    385    389     1
    386    396     1
    386    388     1
    386    389     1
    388    405     1
    388    397     1
    388    398     1
    389    405     1
    389    397     1
    389    398     1
    391    869     1
    391    403     1
    391    404     1
    392    869     1
    392    403     1
    392    404     1
    394    840     1
    394    400     1
    394    401     1
    395    840     1
    395    400     1
    395    401     1
    399    832     1
    399    833     1
    400    831     1
    401    831     1
    402    861     1
    402    862     1
    403    860     1
    404    860     1
    406    420     1
    406    421     1
    406    423     1
    406    424     1
    406    417     1
    406    418     1
    407    411     1
    407    412     1
    407    414     1
    407    415     1
    407    432     1
    407    433     1
    408    410     1
    408    413     1
    408    431     1
    408    420     1
    408    421     1
    409    410     1
    409    413     1
    409    431     1
    409    420     1
    409    421     1
    410    414     1
    410    415     1
    410    429     1
    410    430     1
    411    413     1
    411    428     1
    411    423     1
    411    424     1
    412    413     1
    412    428     1
    412    423     1
    412    424     1
    413    426     1
    413    427     1
    414    425     1
    414    417     1
    414    418     1
    415    425     1
    415    417     1
    415    418     1
    417    434     1
    417    426     1
    417    427     1
    418    434     1
    418    426     1
    418    427     1
    420    927     1
    420    432     1
    420    433     1
    421    927     1
    421    432     1
    421    433     1
    423    898     1
    423    429     1
    423    430     1
    424    898     1
    424    429     1
    424    430     1
    428    890     1
    428    891     1
    429    889     1
    430    889     1
    431    919     1
    431    920     1
    432    918     1
    433    918     1
    435    449     1
    435    450     1
    435    452     1
    435    453     1
    435    446     1
    435    447     1
    436    440     1
    436    441     1
    436    443     1
    436    444     1
    436    461     1
    436    462     1
    437    439     1
    437    442     1
    437    460     1
    437    449     1
    437    450     1
    438    439     1
    438    442     1
    438    460     1
    438    449     1
    438    450     1
    439    443     1
    439    444     1
    439    458     1
    439    459     1
    440    442     1
    440    457     1
    440    452     1
    440    453     1
    441    442     1
    441    457     1
    441    452     1
    441    453     1
    442    455     1
    442    456     1
    443    454     1
    443    446     1
    443    447     1
    444    454     1
    444    446     1
    444    447     1
    446    463     1
    446    455     1
    446    456     1
    447    463     1
    447    455     1
    447    456     1
    449    985     1
    449    461     1
    449    462     1
    450    985     1
    450    461     1
    450    462     1
    452    956     1
    452    458     1
    452    459     1
    453    956     1
    453    458     1
    453    459     1
    457    948     1
    457    949     1
    458    947     1
    459    947     1
    460    977     1
    460    978     1
    461    976     1
    462    976     1
    464    478     1
    464    479     1
    464    481     1
    464    482     1
    464    475     1
    464    476     1
    465    469     1
    465    470     1
    465    472     1
    465    473     1
    465    490     1
    465    491     1
    466    468     1
    466    471     1
    466    489     1
    466    478     1
    466    479     1
    467    468     1
    467    471     1
    467    489     1
    467    478     1
    467    479     1
    468    472     1
    468    473     1
    468    487     1
    468    488     1
    469    471     1
    469    486     1
    469    481     1
    469    482     1
    470    471     1
    470    486     1
    470    481     1
    470    482     1
    471    484     1
    471    485     1
    472    483     1
    472    475     1
    472    476     1
    473    483     1
    473    475     1
    473    476     1
    475    492     1
    475    484     1
    475    485     1
    476    492     1
    476    484     1
    476    485     1
    478   1043     1
    478    490     1
    478    491     1
    479   1043     1
    479    490     1
    479    491     1
    481   1014     1
    481    487     1
    481    488     1
    482   1014     1
    482    487     1
    482    488     1
    486   1006     1
    486   1007     1
    487   1005     1
    488   1005     1
    489   1035     1
    489   1036     1
    490   1034     1
    491   1034     1
    493    507     1
    493    508     1
    493    510     1
    493    511     1
    493    504     1
    493    505     1
    494    498     1
    494    499     1
    494    501     1
    494    502     1
    494    519     1
    494    520     1
    495    497     1
    495    500     1
    495    518     1
    495    507     1
    495    508     1
    496    497     1
    496    500     1
    496    518     1
    496    507     1
    496    508     1
    497    501     1
    497    502     1
    497    516     1
    497    517     1
    498    500     1
    498    515     1
    498    510     1
    498    511     1
    499    500     1
    499    515     1
    499    510     1
    499    511     1
    500    513     1
    500    514     1
    501    512     1
    501    504     1
    501    505     1
    502    512     1
    502    504     1
    502    505     1
    504    521     1
    504    513     1
    504    514     1
    505    521     1
    505    513     1
    505    514     1
    507   1101     1
    507    519     1
    507    520     1
    508   1101     1
    508    519     1
    508    520     1
    510   1072     1
    510    516     1
    510    517     1
    511   1072     1
    511    516     1
    511    517     1
    515   1064     1
    515   1065     1
    516   1063     1
    517   1063     1
    518   1093     1
    518   1094     1
    519   1092     1
    520   1092     1
    522    536     1
    522    537     1
    522    539     1
    522    540     1
    522    533     1
    522    534     1
    523    527     1
    523    528     1
    523    530     1
    523    531     1
    523    548     1
    523    549     1
    524    526     1
    524    529     1
    524    547     1
    524    536     1
    524    537     1
    525    526     1
    525    529     1
    525    547     1
    525    536     1
    525    537     1
    526    530     1
    526    531     1
    526    545     1
    526    546     1
    527    529     1
    527    544     1
    527    539     1
    527    540     1
    528    529     1
    528    544     1
    528    539     1
    528    540     1
    529    542     1
    529    543     1
    530    541     1
    530    533     1
    530    534     1
    531    541     1
    531    533     1
    531    534     1
    533    550     1
    533    542     1
    533    543     1
    534    550     1
    534    542     1
    534    543     1
    536   1159     1
    536    548     1
    536    549     1
    537   1159     1
    537    548     1
    537    549     1
    539   1130     1
    539    545     1
    539    546     1
    540   1130     1
    540    545     1
    540    546     1
    544   1122     1
    544   1123     1
    545   1121     1
    546   1121     1
    547   1151     1
    547   1152     1
    548   1150     1
    549   1150     1
    551    565     1
    551    566     1
    551    568     1
    551    569     1
    551    562     1
    551    563     1
    552    556     1
    552    557     1
    552    559     1
    552    560     1
    552    577     1
    552    578     1
    553    555     1
    553    558     1
    553    576     1
    553    565     1
    553    566     1
    554    555     1
    554    558     1
    554    576     1
    554    565     1
    554    566     1
    555    559     1
    555    560     1
    555    574     1
    555    575     1
    556    558     1
    556    573     1
    556    568     1
    556    569     1
    557    558     1
    557    573     1
    557    568     1
    557    569     1
    558    571     1
    558    572     1
    559    570     1
    559    562     1
    559    563     1
    560    570     1
    560    562     1
    560    563     1
    562    579     1
    562    571     1
    562    572     1
    563    579     1
    563    571     1
    563    572     1
    565   1217     1
    565    577     1
    565    578     1
    566   1217     1
    566    577     1
    566    578     1
    568   1188     1
    568    574     1
    568    575     1
    569   1188     1
    569    574     1
    569    575     1
    573   1180     1
    573   1181     1
    574   1179     1
    575   1179     1
    576   1209     1
    576   1210     1
    577   1208     1
    578   1208     1
    580    594     1
    580    595     1
    580    597     1
    580    598     1
    580    591     1
    580    592     1
    581    585     1
    581    586     1
    581    588     1
    581    589     1
    581    606     1
    581    607     1
    582    584     1
    582    587     1
    582    605     1
    582    594     1
    582    595     1
    583    584     1
    583    587     1
    583    605     1
    583    594     1
    583    595     1
    584    588     1
    584    589     1
    584    603     1
    584    604     1
    585    587     1
    585    602     1
    585    597     1
    585    598     1
    586    587     1
    586    602     1
    586    597     1
    586    598     1
    587    600     1
    587    601     1
    588    599     1
    588    591     1
    588    592     1
    589    599     1
    589    591     1
    589    592     1
    591    608     1
    591    600     1
    591    601     1
    592    608     1
    592    600     1
    592    601     1
    594   1275     1
    594    606     1
    594    607     1
    595   1275     1
    595    606     1
    595    607     1
    597   1246     1
    597    603     1
    597    604     1
    598   1246     1
    598    603     1
    598    604     1
    602   1238     1
    602   1239     1
    603   1237     1
    604   1237     1
    605   1267     1
    605   1268     1
    606   1266     1
    607   1266     1
    609    623     1
    609    624     1
    609    626     1
    609    627     1
    609    620     1
    609    621     1
    610    614     1
    610    615     1
    610    617     1
    610    618     1
    610    635     1
    610    636     1
    611    613     1
    611    616     1
    611    634     1
    611    623     1
    611    624     1
    612    613     1
    612    616     1
    612    634     1
    612    623     1
    612    624     1
    613    617     1
    613    618     1
    613    632     1
    613    633     1
    614    616     1
    614    631     1
    614    626     1
    614    627     1
    615    616     1
    615    631     1
    615    626     1
    615    627     1
    616    629     1
    616    630     1
    617    628     1
    617    620     1
    617    621     1
    618    628     1
    618    620     1
    618    621     1
    620    637     1
    620    629     1
    620    630     1
    621    637     1
    621    629     1
    621    630     1
    623   1333     1
    623    635     1
    623    636     1
    624   1333     1
    624    635     1
    624    636     1
    626   1304     1
    626    632     1
    626    633     1
    627   1304     1
    627    632     1
    627    633     1
    631   1296     1
    631   1297     1
    632   1295     1
    633   1295     1
    634   1325     1
    634   1326     1
    635   1324     1
    636   1324     1
    638    652     1
    638    653     1
    638    655     1
    638    656     1
    638    649     1
    638    650     1
    639    643     1
    639    644     1
    639    646     1
    639    647     1
    639    664     1
    639    665     1
    640    642     1
    640    645     1
    640    663     1
    640    652     1
    640    653     1
    641    642     1
    641    645     1
    641    663     1
    641    652     1
    641    653     1
    642    646     1
    642    647     1
    642    661     1
    642    662     1
    643    645     1
    643    660     1
    643    655     1
    643    656     1
    644    645     1
    644    660     1
    644    655     1
    644    656     1
    645    658     1
    645    659     1
    646    657     1
    646    649     1
    646    650     1
    647    657     1
    647    649     1
    647    650     1
    649    666     1
    649    658     1
    649    659     1
    650    666     1
    650    658     1
    650    659     1
    652   1391     1
    652    664     1
    652    665     1
    653   1391     1
    653    664     1
    653    665     1
    655   1362     1
    655    661     1
    655    662     1
    656   1362     1
    656    661     1
    656    662     1
    660   1354     1
    660   1355     1
    661   1353     1
    662   1353     1
    663   1383     1
    663   1384     1
    664   1382     1
    665   1382     1
    667    681     1
    667    682     1
    667    684     1
    667    685     1
    667    678     1
    667    679     1
    668    672     1
    668    673     1
    668    675     1
    668    676     1
    668    693     1
    668    694     1
    669    671     1
    669    674     1
    669    692     1
    669    681     1
    669    682     1
    670    671     1
    670    674     1
    670    692     1
    670    681     1
    670    682     1
    671    675     1
    671    676     1
    671    690     1
    671    691     1
    672    674     1
    672    689     1
    672    684     1
    672    685     1
    673    674     1
    673    689     1
    673    684     1
    673    685     1
    674    687     1
    674    688     1
    675    686     1
    675    678     1
    675    679     1
    676    686     1
    676    678     1
    676    679     1
    678    695     1
    678    687     1
    678    688     1
    679    695     1
    679    687     1
    679    688     1
    681   1449     1
    681    693     1
    681    694     1
    682   1449     1
    682    693     1
    682    694     1
    684   1420     1
    684    690     1
    684    691     1
    685   1420     1
    685    690     1
    685    691     1
    689   1412     1
    689   1413     1
    690   1411     1
    691   1411     1
    692   1441     1
    692   1442     1
    693   1440     1
    694   1440     1
    696    710     1
    696    711     1
    696    713     1
    696    714     1
    696    707     1
    696    708     1
    697    701     1
    697    702     1
    697    704     1
    697    705     1
    697    722     1
    697    723     1
    698    700     1
    698    703     1
    698    721     1
    698    710     1
    698    711     1
    699    700     1
    699    703     1
    699    721     1
    699    710     1
    699    711     1
    700    704     1
    700    705     1
    700    719     1
    700    720     1
    701    703     1
    701    718     1
    701    713     1
    701    714     1
    702    703     1
    702    718     1
    702    713     1
    702    714     1
    703    716     1
    703    717     1
    704    715     1
    704    707     1
    704    708     1
    705    715     1
    705    707     1
    705    708     1
    707    724     1
    707    716     1
    707    717     1
    708    724     1
    708    716     1
    708    717     1
    710   1507     1
    710    722     1
    710    723     1
    711   1507     1
    711    722     1
    711    723     1
    713   1478     1
    713    719     1
    713    720     1
    714   1478     1
    714    719     1
    714    720     1
    718   1470     1
    718   1471     1
    719   1469     1
    720   1469     1
    721   1499     1
    721   1500     1
    722   1498     1
    723   1498     1
    725    739     1
    725    740     1
    725    742     1
    725    743     1
    725    736     1
    725    737     1
    726    730     1
    726    731     1
    726    733     1
    726    734     1
    726    751     1
    726    752     1
    727    729     1
    727    732     1
    727    750     1
    727    739     1
    727    740     1
    728    729     1
    728    732     1
    728    750     1
    728    739     1
    728    740     1
    729    733     1
    729    734     1
    729    748     1
    729    749     1
    730    732     1
    730    747     1
    730    742     1
    730    743     1
    731    732     1
    731    747     1
    731    742     1
    731    743     1
    732    745     1
    732    746     1
    733    744     1
    733    736     1
    733    737     1
    734    744     1
    734    736     1
    734    737     1
    736    753     1
    736    745     1
    736    746     1
    737    753     1
    737    745     1
    737    746     1
    739   1565     1
    739    751     1
    739    752     1
    740   1565     1
    740    751     1
    740    752     1
    742   1536     1
    742    748     1
    742    749     1
    743   1536     1
    743    748     1
    743    749     1
    747   1528     1
    747   1529     1
    748   1527     1
    749   1527     1
    750   1557     1
    750   1558     1
    751   1556     1
    752   1556     1
    754    768     1
    754    769     1
    754    771     1
    754    772     1
    754    765     1
    754    766     1
    755    759     1
    755    760     1
    755    762     1
    755    763     1
    755    780     1
    755    781     1
    756    758     1
    756    761     1
    756    779     1
    756    768     1
    756    769     1
    757    758     1
    757    761     1
    757    779     1
    757    768     1
    757    769     1
    758    762     1
    758    763     1
    758    777     1
    758    778     1
    759    761     1
    759    776     1
    759    771     1
    759    772     1
    760    761     1
    760    776     1
    760    771     1
    760    772     1
    761    774     1
    761    775     1
    762    773     1
    762    765     1
    762    766     1
    763    773     1
    763    765     1
    763    766     1
    765    782     1
    765    774     1
    765    775     1
    766    782     1
    766    774     1
    766    775     1
    768   1623     1
    768    780     1
    768    781     1
    769   1623     1
    769    780     1
    769    781     1
    771   1594     1
    771    777     1
    771    778     1
    772   1594     1
    772    777     1
    772    778     1
    776   1586     1
    776   1587     1
    777   1585     1
    778   1585     1
    779   1615     1
    779   1616     1
    780   1614     1
    781   1614     1
    783    797     1
    783    798     1
    783    800     1
    783    801     1
    783    794     1
    783    795     1
    784    788     1
    784    789     1
    784    791     1
    784    792     1
    784    809     1
    784    810     1
    785    787     1
    785    790     1
    785    808     1
    785    797     1
    785    798     1
    786    787     1
    786    790     1
    786    808     1
    786    797     1
    786    798     1
    787    791     1
    787    792     1
    787    806     1
    787    807     1
    788    790     1
    788    805     1
    788    800     1
    788    801     1
    789    790     1
    789    805     1
    789    800     1
    789    801     1
    790    803     1
    790    804     1
    791    802     1
    791    794     1
    791    795     1
    792    802     1
    792    794     1
    792    795     1
    794    811     1
    794    803     1
    794    804     1
    795    811     1
    795    803     1
    795    804     1
    797   1681     1
    797    809     1
    797    810     1
    798   1681     1
    798    809     1
    798    810     1
    800   1652     1
    800    806     1
    800    807     1
    801   1652     1
    801    806     1
    801    807     1
    805   1644     1
    805   1645     1
    806   1643     1
    807   1643     1
    808   1673     1
    808   1674     1
    809   1672     1
    810   1672     1
    812    826     1
    812    827     1
    812    829     1
    812    830     1
    812    823     1
    812    824     1
    813    817     1
    813    818     1
    813    820     1
    813    821     1
    813    838     1
    813    839     1
    814    816     1
    814    819     1
    814    837     1
    814    826     1
    814    827     1
    815    816     1
    815    819     1
    815    837     1
    815    826     1
    815    827     1
    816    820     1
    816    821     1
    816    835     1
    816    836     1
    817    819     1
    817    834     1
    817    829     1
    817    830     1
    818    819     1
    818    834     1
    818    829     1
    818    830     1
    819    832     1
    819    833     1
    820    831     1
    820    823     1
    820    824     1
    821    831     1
    821    823     1
    821    824     1
    823    840     1
    823    832     1
    823    833     1
    824    840     1
    824    832     1
    824    833     1
    826   1739     1
    826    838     1
    826    839     1
    827   1739     1
    827    838     1
    827    839     1
    829   1710     1
    829    835     1
    829    836     1
    830   1710     1
    830    835     1
    830    836     1
    834   1702     1
    834   1703     1
    835   1701     1
    836   1701     1
    837   1731     1
    837   1732     1
    838   1730     1
    839   1730     1
    841    855     1
    841    856     1
    841    858     1
    841    859     1
    841    852     1
    841    853     1
    842    846     1
    842    847     1
    842    849     1
    842    850     1
    842    867     1
    842    868     1
    843    845     1
    843    848     1
    843    866     1
    843    855     1
    843    856     1
    844    845     1
    844    848     1
    844    866     1
    844    855     1
    844    856     1
    845    849     1
    845    850     1
    845    864     1
    845    865     1
    846    848     1
    846    863     1
    846    858     1
    846    859     1
    847    848     1
    847    863     1
    847    858     1
    847    859     1
    848    861     1
    848    862     1
    849    860     1
    849    852     1
    849    853     1
    850    860     1
    850    852     1
    850    853     1
    852    869     1
    852    861     1
    852    862     1
    853    869     1
    853    861     1
    853    862     1
    855   1797     1
    855    867     1
    855    868     1
    856   1797     1
    856    867     1
    856    868     1
    858   1768     1
    858    864     1
    858    865     1
    859   1768     1
    859    864     1
    859    865     1
    863   1760     1
    863   1761     1
    864   1759     1
    865   1759     1
    866   1789     1
    866   1790     1
    867   1788     1
    868   1788     1
    870    884     1
    870    885     1
    870    887     1
    870    888     1
    870    881     1
    870    882     1
    871    875     1
    871    876     1
    871    878     1
    871    879     1
    871    896     1
    871    897     1
    872    874     1
    872    877     1
    872    895     1
    872    884     1
    872    885     1
    873    874     1
    873    877     1
    873    895     1
    873    884     1
    873    885     1
    874    878     1
    874    879     1
    874    893     1
    874    894     1
    875    877     1
    875    892     1
    875    887     1
    875    888     1
    876    877     1
    876    892     1
    876    887     1
    876    888     1
    877    890     1
    877    891     1
    878    889     1
    878    881     1
    878    882     1
    879    889     1
    879    881     1
    879    882     1
    881    898     1
    881    890     1
    881    891     1
    882    898     1
    882    890     1
    882    891     1
    884   1855     1
    884    896     1
    884    897     1
    885   1855     1
    885    896     1
    885    897     1
    887   1826     1
    887    893     1
    887    894     1
    888   1826     1
    888    893     1
    888    894     1
    892   1818     1
    892   1819     1
    893   1817     1
    894   1817     1
    895   1847     1
    895   1848     1
    896   1846     1
    897   1846     1
    899    913     1
    899    914     1
    899    916     1
    899    917     1
    899    910     1
    899    911     1
    900    904     1
    900    905     1
    900    907     1
    900    908     1
    900    925     1
    900    926     1
    901    903     1
    901    906     1
    901    924     1
    901    913     1
    901    914     1
    902    903     1
    902    906     1
    902    924     1
    902    913     1
    902    914     1
    903    907     1
    903    908     1
    903    922     1
    903    923     1
    904    906     1
    904    921     1
    904    916     1
    904    917     1
    905    906     1
    905    921     1
    905    916     1
    905    917     1
    906    919     1
    906    920     1
    907    918     1
    907    910     1
    907    911     1
    908    918     1
    908    910     1
    908    911     1
    910    927     1
    910    919     1
    910    920     1
    911    927     1
    911    919     1
    911    920     1
    913   1913     1
    913    925     1
    913    926     1
    914   1913     1
    914    925     1
    914    926     1
    916   1884     1
    916    922     1
    916    923     1
    917   1884     1
    917    922     1
    917    923     1
    921   1876     1
    921   1877     1
    922   1875     1
    923   1875     1
    924   1905     1
    924   1906     1
    925   1904     1
    926   1904     1
    928    942     1
    928    943     1
    928    945     1
    928    946     1
    928    939     1
    928    940     1
    929    933     1
    929    934     1
    929    936     1
    929    937     1
    929    954     1
    929    955     1
    930    932     1
    930    935     1
    930    953     1
    930    942     1
    930    943     1
    931    932     1
    931    935     1
    931    953     1
    931    942     1
    931    943     1
    932    936     1
    932    937     1
    932    951     1
    932    952     1
    933    935     1
    933    950     1
    933    945     1
    933    946     1
    934    935     1
    934    950     1
    934    945     1
    934    946     1
    935    948     1
    935    949     1
    936    947     1
    936    939     1
    936    940     1
    937    947     1
    937    939     1
    937    940     1
    939    956     1
    939    948     1
    939    949     1
    940    956     1
    940    948     1
    940    949     1
    942   1971     1
    942    954     1
    942    955     1
    943   1971     1
    943    954     1
    943    955     1
    945   1942     1
    945    951     1
    945    952     1
    946   1942     1
    946    951     1
    946    952     1
    950   1934     1
    950   1935     1
    951   1933     1
    952   1933     1
    953   1963     1
    953   1964     1
    954   1962     1
    955   1962     1
    957    971     1
    957    972     1
    957    974     1
    957    975     1
    957    968     1
    957    969     1
    958    962     1
    958    963     1
    958    965     1
    958    966     1
    958    983     1
    958    984     1
    959    961     1
    959    964     1
    959    982     1
    959    971     1
    959    972     1
    960    961     1
    960    964     1
    960    982     1
    960    971     1
    960    972     1
    961    965     1
    961    966     1
    961    980     1
    961    981     1
    962    964     1
    962    979     1
    962    974     1
    962    975     1
    963    964     1
    963    979     1
    963    974     1
    963    975     1
    964    977     1
    964    978     1
    965    976     1
    965    968     1
    965    969     1
    966    976     1
    966    968     1
    966    969     1
    968    985     1
    968    977     1
    968    978     1
    969    985     1
    969    977     1
    969    978     1
    971   2029     1
    971    983     1
    971    984     1
    972   2029     1
    972    983     1
    972    984     1
    974   2000     1
    974    980     1
    974    981     1
    975   2000     1
    975    980     1
    975    981     1
    979   1992     1
    979   1993     1
    980   1991     1
    981   1991     1
    982   2021     1
    982   2022     1
    983   2020     1
    984   2020     1
    986   1000     1
    986   1001     1
    986   1003     1
    986   1004     1
    986    997     1
    986    998     1
    987    991     1
    987    992     1
    987    994     1
    987    995     1
    987   1012     1
    987   1013     1
    988    990     1
    988    993     1
    988   1011     1
    988   1000     1
    988   1001     1
    989    990     1
    989    993     1
    989   1011     1
    989   1000     1
    989   1001     1
    990    994     1
    990    995     1
    990   1009     1
    990   1010     1
    991    993     1
    991   1008     1
    991   1003     1
    991   1004     1
    992    993     1
    992   1008     1
    992   1003     1
    992   1004     1
    993   1006     1
    993   1007     1
    994   1005     1
    994    997     1
    994    998     1
    995   1005     1
    995    997     1
    995    998     1
    997   1014     1
    997   1006     1
    997   1007     1
    998   1014     1
    998   1006     1
    998   1007     1
   1000   2087     1
   1000   1012     1
   1000   1013     1
   1001   2087     1
   1001   1012     1
   1001   1013     1
   1003   2058     1
   1003   1009     1
   1003   1010     1
   1004   2058     1
   1004   1009     1
   1004   1010     1
   1008   2050     1
   1008   2051     1
   1009   2049     1
   1010   2049     1
   1011   2079     1
   1011   2080     1
   1012   2078     1
   1013   2078     1
   1015   1029     1
   1015   1030     1
   1015   1032     1
   1015   1033     1
   1015   1026     1
   1015   1027     1
   1016   1020     1
   1016   1021     1
   1016   1023     1
   1016   1024     1
   1016   1041     1
   1016   1042     1
   1017   1019     1
   1017   1022     1
   1017   1040     1
   1017   1029     1
   1017   1030     1
   1018   1019     1
   1018   1022     1
   1018   1040     1
   1018   1029     1
   1018   1030     1
   1019   1023     1
   1019   1024     1
   1019   1038     1
   1019   1039     1
   1020   1022     1
   1020   1037     1
   1020   1032     1
   1020   1033     1
   1021   1022     1
   1021   1037     1
   1021   1032     1
   1021   1033     1
   1022   1035     1
   1022   1036     1
   1023   1034     1
   1023   1026     1
   1023   1027     1
   1024   1034     1
   1024   1026     1
   1024   1027     1
   1026   1043     1
   1026   1035     1
   1026   1036     1
   1027   1043     1
   1027   1035     1
   1027   1036     1
   1029   2145     1
   1029   1041     1
   1029   1042     1
   1030   2145     1
   1030   1041     1
   1030   1042     1
   1032   2116     1
   1032   1038     1
   1032   1039     1
   1033   2116     1
   1033   1038     1
   1033   1039     1
   1037   2108     1
   1037   2109     1
   1038   2107     1
   1039   2107     1
   1040   2137     1
   1040   2138     1
   1041   2136     1
   1042   2136     1
   1044   1058     1
   1044   1059     1
   1044   1061     1
   1044   1062     1
   1044   1055     1
   1044   1056     1
   1045   1049     1
   1045   1050     1
   1045   1052     1
   1045   1053     1
   1045   1070     1
   1045   1071     1
   1046   1048     1
   1046   1051     1
   1046   1069     1
   1046   1058     1
   1046   1059     1
   1047   1048     1
   1047   1051     1
   1047   1069     1
   1047   1058     1
   1047   1059     1
   1048   1052     1
   1048   1053     1
   1048   1067     1
   1048   1068     1
   1049   1051     1
   1049   1066     1
   1049   1061     1
   1049   1062     1
   1050   1051     1
   1050   1066     1
   1050   1061     1
   1050   1062     1
   1051   1064     1
   1051   1065     1
   1052   1063     1
   1052   1055     1
   1052   1056     1
   1053   1063     1
   1053   1055     1
   1053   1056     1
   1055   1072     1
   1055   1064     1
   1055   1065     1
   1056   1072     1
   1056   1064     1
   1056   1065     1
   1058   2203     1
   1058   1070     1
   1058   1071     1
   1059   2203     1
   1059   1070     1
   1059   1071     1
   1061   2174     1
   1061   1067     1
   1061   1068     1
   1062   2174     1
   1062   1067     1
   1062   1068     1
   1066   2166     1
   1066   2167     1
   1067   2165     1
   1068   2165     1
   1069   2195     1
   1069   2196     1
   1070   2194     1
   1071   2194     1
   1073   1087     1
   1073   1088     1
   1073   1090     1
   1073   1091     1
   1073   1084     1
   1073   1085     1
   1074   1078     1
   1074   1079     1
   1074   1081     1
   1074   1082     1
   1074   1099     1
   1074   1100     1
   1075   1077     1
   1075   1080     1
   1075   1098     1
   1075   1087     1
   1075   1088     1
   1076   1077     1
   1076   1080     1
   1076   1098     1
   1076   1087     1
   1076   1088     1
   1077   1081     1
   1077   1082     1
   1077   1096     1
   1077   1097     1
   1078   1080     1
   1078   1095     1
   1078   1090     1
   1078   1091     1
   1079   1080     1
   1079   1095     1
   1079   1090     1
   1079   1091     1
   1080   1093     1
   1080   1094     1
   1081   1092     1
   1081   1084     1
   1081   1085     1
   1082   1092     1
   1082   1084     1
   1082   1085     1
   1084   1101     1
   1084   1093     1
   1084   1094     1
   1085   1101     1
   1085   1093     1
   1085   1094     1
   1087   2261     1
   1087   1099     1
   1087   1100     1
   1088   2261     1
   1088   1099     1
   1088   1100     1
   1090   2232     1
   1090   1096     1
   1090   1097     1
   1091   2232     1
   1091   1096     1
   1091   1097     1
   1095   2224     1
   1095   2225     1
   1096   2223     1
   1097   2223     1
   1098   2253     1
   1098   2254     1
   1099   2252     1
   1100   2252     1
   1102   1116     1
   1102   1117     1
   1102   1119     1
   1102   1120     1
   1102   1113     1
   1102   1114     1
   1103   1107     1
   1103   1108     1
   1103   1110     1
   1103   1111     1
   1103   1128     1
   1103   1129     1
   1104   1106     1
   1104   1109     1
   1104   1127     1
   1104   1116     1
   1104   1117     1
   1105   1106     1
   1105   1109     1
   1105   1127     1
   1105   1116     1
   1105   1117     1
   1106   1110     1
   1106   1111     1
   1106   1125     1
   1106   1126     1
   1107   1109     1
   1107   1124     1
   1107   1119     1
   1107   1120     1
   1108   1109     1
   1108   1124     1
   1108   1119     1
   1108   1120     1
   1109   1122     1
   1109   1123     1
   1110   1121     1
   1110   1113     1
   1110   1114     1
   1111   1121     1
   1111   1113     1
   1111   1114     1
   1113   1130     1
   1113   1122     1
   1113   1123     1
   1114   1130     1
   1114   1122     1
   1114   1123     1
   1116   2319     1
   1116   1128     1
   1116   1129     1
   1117   2319     1
   1117   1128     1
   1117   1129     1
   1119   2290     1
   1119   1125     1
   1119   1126     1
   1120   2290     1
   1120   1125     1
   1120   1126     1
   1124   2282     1
   1124   2283     1
   1125   2281     1
   1126   2281     1
   1127   2311     1
   1127   2312     1
   1128   2310     1
   1129   2310     1
   1131   1145     1
   1131   1146     1
   1131   1148     1
   1131   1149     1
   1131   1142     1
   1131   1143     1
   1132   1136     1
   1132   1137     1
   1132   1139     1
   1132   1140     1
   1132   1157     1
   1132   1158     1
   1133   1135     1
   1133   1138     1
   1133   1156     1
   1133   1145     1
   1133   1146     1
   1134   1135     1
   1134   1138     1
   1134   1156     1
   1134   1145     1
   1134   1146     1
   1135   1139     1
   1135   1140     1
   1135   1154     1
   1135   1155     1
   1136   1138     1
   1136   1153     1
   1136   1148     1
   1136   1149     1
   1137   1138     1
   1137   1153     1
   1137   1148     1
   1137   1149     1
   1138   1151     1
   1138   1152     1
   1139   1150     1
   1139   1142     1
   1139   1143     1
   1140   1150     1
   1140   1142     1
   1140   1143     1
   1142   1159     1
   1142   1151     1
   1142   1152     1
   1143   1159     1
   1143   1151     1
   1143   1152     1
   1145   2377     1
   1145   1157     1
   1145   1158     1
   1146   2377     1
   1146   1157     1
   1146   1158     1
   1148   2348     1
   1148   1154     1
   1148   1155     1
   1149   2348     1
   1149   1154     1
   1149   1155     1
   1153   2340     1
   1153   2341     1
   1154   2339     1
   1155   2339     1
   1156   2369     1
   1156   2370     1
   1157   2368     1
   1158   2368     1
   1160   1174     1
   1160   1175     1
   1160   1177     1
   1160   1178     1
   1160   1171     1
   1160   1172     1
   1161   1165     1
   1161   1166     1
   1161   1168     1
   1161   1169     1
   1161   1186     1
   1161   1187     1
   1162   1164     1
   1162   1167     1
   1162   1185     1
   1162   1174     1
   1162   1175     1
   1163   1164     1
   1163   1167     1
   1163   1185     1
   1163   1174     1
   1163   1175     1
   1164   1168     1
   1164   1169     1
   1164   1183     1
   1164   1184     1
   1165   1167     1
   1165   1182     1
   1165   1177     1
   1165   1178     1
   1166   1167     1
   1166   1182     1
   1166   1177     1
   1166   1178     1
   1167   1180     1
   1167   1181     1
   1168   1179     1
   1168   1171     1
   1168   1172     1
   1169   1179     1
   1169   1171     1
   1169   1172     1
   1171   1188     1
   1171   1180     1
   1171   1181     1
   1172   1188     1
   1172   1180     1
   1172   1181     1
   1174   2435     1
   1174   1186     1
   1174   1187     1
   1175   2435     1
   1175   1186     1
   1175   1187     1
   1177   2406     1
   1177   1183     1
   1177   1184     1
   1178   2406     1
   1178   1183     1
   1178   1184     1
   1182   2398     1
   1182   2399     1
   1183   2397     1
   1184   2397     1
   1185   2427     1
   1185   2428     1
   1186   2426     1
   1187   2426     1
   1189   1203     1
   1189   1204     1
   1189   1206     1
   1189   1207     1
   1189   1200     1
   1189   1201     1
   1190   1194     1
   1190   1195     1
   1190   1197     1
   1190   1198     1
   1190   1215     1
   1190   1216     1
   1191   1193     1
   1191   1196     1
   1191   1214     1
   1191   1203     1
   1191   1204     1
   1192   1193     1
   1192   1196     1
   1192   1214     1
   1192   1203     1
   1192   1204     1
   1193   1197     1
   1193   1198     1
   1193   1212     1
   1193   1213     1
   1194   1196     1
   1194   1211     1
   1194   1206     1
   1194   1207     1
   1195   1196     1
   1195   1211     1
   1195   1206     1
   1195   1207     1
   1196   1209     1
   1196   1210     1
   1197   1208     1
   1197   1200     1
   1197   1201     1
   1198   1208     1
   1198   1200     1
   1198   1201     1
   1200   1217     1
   1200   1209     1
   1200   1210     1
   1201   1217     1
   1201   1209     1
   1201   1210     1
   1203   2493     1
   1203   1215     1
   1203   1216     1
   1204   2493     1
   1204   1215     1
   1204   1216     1
   1206   2464     1
   1206   1212     1
   1206   1213     1
   1207   2464     1
   1207   1212     1
   1207   1213     1
   1211   2456     1
   1211   2457     1
   1212   2455     1
   1213   2455     1
   1214   2485     1
   1214   2486     1
   1215   2484     1
   1216   2484     1
   1218   1232     1
   1218   1233     1
   1218   1235     1
   1218   1236     1
   1218   1229     1
   1218   1230     1
   1219   1223     1
   1219   1224     1
   1219   1226     1
   1219   1227     1
   1219   1244     1
   1219   1245     1
   1220   1222     1
   1220   1225     1
   1220   1243     1
   1220   1232     1
   1220   1233     1
   1221   1222     1
   1221   1225     1
   1221   1243     1
   1221   1232     1
   1221   1233     1
   1222   1226     1
   1222   1227     1
   1222   1241     1
   1222   1242     1
   1223   1225     1
   1223   1240     1
   1223   1235     1
   1223   1236     1
   1224   1225     1
   1224   1240     1
   1224   1235     1
   1224   1236     1
   1225   1238     1
   1225   1239     1
   1226   1237     1
   1226   1229     1
   1226   1230     1
   1227   1237     1
   1227   1229     1
   1227   1230     1
   1229   1246     1
   1229   1238     1
   1229   1239     1
   1230   1246     1
   1230   1238     1
   1230   1239     1
   1232   2551     1
   1232   1244     1
   1232   1245     1
   1233   2551     1
   1233   1244     1
   1233   1245     1
   1235   2522     1
   1235   1241     1
   1235   1242     1
   1236   2522     1
   1236   1241     1
   1236   1242     1
   1240   2514     1
   1240   2515     1
   1241   2513     1
   1242   2513     1
   1243   2543     1
   1243   2544     1
   1244   2542     1
   1245   2542     1
   1247   1261     1
   1247   1262     1
   1247   1264     1
   1247   1265     1
   1247   1258     1
   1247   1259     1
   1248   1252     1
   1248   1253     1
   1248   1255     1
   1248   1256     1
   1248   1273     1
   1248   1274     1
   1249   1251     1
   1249   1254     1
   1249   1272     1
   1249   1261     1
   1249   1262     1
   1250   1251     1
   1250   1254     1
   1250   1272     1
   1250   1261     1
   1250   1262     1
   1251   1255     1
   1251   1256     1
   1251   1270     1
   1251   1271     1
   1252   1254     1
   1252   1269     1
   1252   1264     1
   1252   1265     1
   1253   1254     1
   1253   1269     1
   1253   1264     1
   1253   1265     1
   1254   1267     1
   1254   1268     1
   1255   1266     1
   1255   1258     1
   1255   1259     1
   1256   1266     1
   1256   1258     1
   1256   1259     1
   1258   1275     1
   1258   1267     1
   1258   1268     1
   1259   1275     1
   1259   1267     1
   1259   1268     1
   1261   2609     1
   1261   1273     1
   1261   1274     1
   1262   2609     1
   1262   1273     1
   1262   1274     1
   1264   2580     1
   1264   1270     1
   1264   1271     1
   1265   2580     1
   1265   1270     1
   1265   1271     1
   1269   2572     1
   1269   2573     1
   1270   2571     1
   1271   2571     1
   1272   2601     1
   1272   2602     1
   1273   2600     1
   1274   2600     1
   1276   1290     1
   1276   1291     1
   1276   1293     1
   1276   1294     1
   1276   1287     1
   1276   1288     1
   1277   1281     1
   1277   1282     1
   1277   1284     1
   1277   1285     1
   1277   1302     1
   1277   1303     1
   1278   1280     1
   1278   1283     1
   1278   1301     1
   1278   1290     1
   1278   1291     1
   1279   1280     1
   1279   1283     1
   1279   1301     1
   1279   1290     1
   1279   1291     1
   1280   1284     1
   1280   1285     1
   1280   1299     1
   1280   1300     1
   1281   1283     1
   1281   1298     1
   1281   1293     1
   1281   1294     1
   1282   1283     1
   1282   1298     1
   1282   1293     1
   1282   1294     1
   1283   1296     1
   1283   1297     1
   1284   1295     1
   1284   1287     1
   1284   1288     1
   1285   1295     1
   1285   1287     1
   1285   1288     1
   1287   1304     1
   1287   1296     1
   1287   1297     1
   1288   1304     1
   1288   1296     1
   1288   1297     1
   1290   2667     1
   1290   1302     1
   1290   1303     1
   1291   2667     1
   1291   1302     1
   1291   1303     1
   1293   2638     1
   1293   1299     1
   1293   1300     1
   1294   2638     1
   1294   1299     1
   1294   1300     1
   1298   2630     1
   1298   2631     1
   1299   2629     1
   1300   2629     1
   1301   2659     1
   1301   2660     1
   1302   2658     1
   1303   2658     1
   1305   1319     1
   1305   1320     1
   1305   1322     1
   1305   1323     1
   1305   1316     1
   1305   1317     1
   1306   1310     1
   1306   1311     1
   1306   1313     1
   1306   1314     1
   1306   1331     1
   1306   1332     1
   1307   1309     1
   1307   1312     1
   1307   1330     1
   1307   1319     1
   1307   1320     1
   1308   1309     1
   1308   1312     1
   1308   1330     1
   1308   1319     1
   1308   1320     1
   1309   1313     1
   1309   1314     1
   1309   1328     1
   1309   1329     1
   1310   1312     1
   1310   1327     1
   1310   1322     1
   1310   1323     1
   1311   1312     1
   1311   1327     1
   1311   1322     1
   1311   1323     1
   1312   1325     1
   1312   1326     1
   1313   1324     1
   1313   1316     1
   1313   1317     1
   1314   1324     1
   1314   1316     1
   1314   1317     1
   1316   1333     1
   1316   1325     1
   1316   1326     1
   1317   1333     1
   1317   1325     1
   1317   1326     1
   1319   2725     1
   1319   1331     1
   1319   1332     1
   1320   2725     1
   1320   1331     1
   1320   1332     1
   1322   2696     1
   1322   1328     1
   1322   1329     1
   1323   2696     1
   1323   1328     1
   1323   1329     1
   1327   2688     1
   1327   2689     1
   1328   2687     1
   1329   2687     1
   1330   2717     1
   1330   2718     1
   1331   2716     1
   1332   2716     1
   1334   1348     1
   1334   1349     1
   1334   1351     1
   1334   1352     1
   1334   1345     1
   1334   1346     1
   1335   1339     1
   1335   1340     1
   1335   1342     1
   1335   1343     1
   1335   1360     1
   1335   1361     1
   1336   1338     1
   1336   1341     1
   1336   1359     1
   1336   1348     1
   1336   1349     1
   1337   1338     1
   1337   1341     1
   1337   1359     1
   1337   1348     1
   1337   1349     1
   1338   1342     1
   1338   1343     1
   1338   1357     1
   1338   1358     1
   1339   1341     1
   1339   1356     1
   1339   1351     1
   1339   1352     1
   1340   1341     1
   1340   1356     1
   1340   1351     1
   1340   1352     1
   1341   1354     1
   1341   1355     1
   1342   1353     1
   1342   1345     1
   1342   1346     1
   1343   1353     1
   1343   1345     1
   1343   1346     1
   1345   1362     1
   1345   1354     1
   1345   1355     1
   1346   1362     1
   1346   1354     1
   1346   1355     1
   1348   2783     1
   1348   1360     1
   1348   1361     1
   1349   2783     1
   1349   1360     1
   1349   1361     1
   1351   2754     1
   1351   1357     1
   1351   1358     1
   1352   2754     1
   1352   1357     1
   1352   1358     1
   1356   2746     1
   1356   2747     1
   1357   2745     1
   1358   2745     1
   1359   2775     1
   1359   2776     1
   1360   2774     1
   1361   2774     1
   1363   1377     1
   1363   1378     1
   1363   1380     1
   1363   1381     1
   1363   1374     1
   1363   1375     1
   1364   1368     1
   1364   1369     1
   1364   1371     1
   1364   1372     1
   1364   1389     1
   1364   1390     1
   1365   1367     1
   1365   1370     1
   1365   1388     1
   1365   1377     1
   1365   1378     1
   1366   1367     1
   1366   1370     1
   1366   1388     1
   1366   1377     1
   1366   1378     1
   1367   1371     1
   1367   1372     1
   1367   1386     1
   1367   1387     1
   1368   1370     1
   1368   1385     1
   1368   1380     1
   1368   1381     1
   1369   1370     1
   1369   1385     1
   1369   1380     1
   1369   1381     1
   1370   1383     1
   1370   1384     1
   1371   1382     1
   1371   1374     1
   1371   1375     1
   1372   1382     1
   1372   1374     1
   1372   1375     1
   1374   1391     1
   1374   1383     1
   1374   1384     1
   1375   1391     1
   1375   1383     1
   1375   1384     1
   1377   2841     1
   1377   1389     1
   1377   1390     1
   1378   2841     1
   1378   1389     1
   1378   1390     1
   1380   2812     1
   1380   1386     1
   1380   1387     1
   1381   2812     1
   1381   1386     1
   1381   1387     1
   1385   2804     1
   1385   2805     1
   1386   2803     1
   1387   2803     1
   1388   2833     1
   1388   2834     1
   1389   2832     1
   1390   2832     1
   1392   1406     1
   1392   1407     1
   1392   1409     1
   1392   1410     1
   1392   1403     1
   1392   1404     1
   1393   1397     1
   1393   1398     1
   1393   1400     1
   1393   1401     1
   1393   1418     1
   1393   1419     1
   1394   1396     1
   1394   1399     1
   1394   1417     1
   1394   1406     1
   1394   1407     1
   1395   1396     1
   1395   1399     1
   1395   1417     1
   1395   1406     1
   1395   1407     1
   1396   1400     1
   1396   1401     1
   1396   1415     1
   1396   1416     1
   1397   1399     1
   1397   1414     1
   1397   1409     1
   1397   1410     1
   1398   1399     1
   1398   1414     1
   1398   1409     1
   1398   1410     1
   1399   1412     1
   1399   1413     1
   1400   1411     1
   1400   1403     1
   1400   1404     1
   1401   1411     1
   1401   1403     1
   1401   1404     1
   1403   1420     1
   1403   1412     1
   1403   1413     1
   1404   1420     1
   1404   1412     1
   1404   1413     1
   1406   2899     1
   1406   1418     1
   1406   1419     1
   1407   2899     1
   1407   1418     1
   1407   1419     1
   1409   2870     1
   1409   1415     1
   1409   1416     1
   1410   2870     1
   1410   1415     1
   1410   1416     1
   1414   2862     1
   1414   2863     1
   1415   2861     1
   1416   2861     1
   1417   2891     1
   1417   2892     1
   1418   2890     1
   1419   2890     1
   1421   1435     1
   1421   1436     1
   1421   1438     1
   1421   1439     1
   1421   1432     1
   1421   1433     1
   1422   1426     1
   1422   1427     1
   1422   1429     1
   1422   1430     1
   1422   1447     1
   1422   1448     1
   1423   1425     1
   1423   1428     1
   1423   1446     1
   1423   1435     1
   1423   1436     1
   1424   1425     1
   1424   1428     1
   1424   1446     1
   1424   1435     1
   1424   1436     1
   1425   1429     1
   1425   1430     1
   1425   1444     1
   1425   1445     1
   1426   1428     1
   1426   1443     1
   1426   1438     1
   1426   1439     1
   1427   1428     1
   1427   1443     1
   1427   1438     1
   1427   1439     1
   1428   1441     1
   1428   1442     1
   1429   1440     1
   1429   1432     1
   1429   1433     1
   1430   1440     1
   1430   1432     1
   1430   1433     1
   1432   1449     1
   1432   1441     1
   1432   1442     1
   1433   1449     1
   1433   1441     1
   1433   1442     1
   1435   2957     1
   1435   1447     1
   1435   1448     1
   1436   2957     1
   1436   1447     1
   1436   1448     1
   1438   2928     1
   1438   1444     1
   1438   1445     1
   1439   2928     1
   1439   1444     1
   1439   1445     1
   1443   2920     1
   1443   2921     1
   1444   2919     1
   1445   2919     1
   1446   2949     1
   1446   2950     1
   1447   2948     1
   1448   2948     1
   1450   1464     1
   1450   1465     1
   1450   1467     1
   1450   1468     1
   1450   1461     1
   1450   1462     1
   1451   1455     1
   1451   1456     1
   1451   1458     1
   1451   1459     1
   1451   1476     1
   1451   1477     1
   1452   1454     1
   1452   1457     1
   1452   1475     1
   1452   1464     1
   1452   1465     1
   1453   1454     1
   1453   1457     1
   1453   1475     1
   1453   1464     1
   1453   1465     1
   1454   1458     1
   1454   1459     1
   1454   1473     1
   1454   1474     1
   1455   1457     1
   1455   1472     1
   1455   1467     1
   1455   1468     1
   1456   1457     1
   1456   1472     1
   1456   1467     1
   1456   1468     1
   1457   1470     1
   1457   1471     1
   1458   1469     1
   1458   1461     1
   1458   1462     1
   1459   1469     1
   1459   1461     1
   1459   1462     1
   1461   1478     1
   1461   1470     1
   1461   1471     1
   1462   1478     1
   1462   1470     1
   1462   1471     1
   1464   3015     1
   1464   1476     1
   1464   1477     1
   1465   3015     1
   1465   1476     1
   1465   1477     1
   1467   2986     1
   1467   1473     1
   1467   1474     1
   1468   2986     1
   1468   1473     1
   1468   1474     1
   1472   2978     1
   1472   2979     1
   1473   2977     1
   1474   2977     1
   1475   3007     1
   1475   3008     1
   1476   3006     1
   1477   3006     1
   1479   1493     1
   1479   1494     1
   1479   1496     1
   1479   1497     1
   1479   1490     1
   1479   1491     1
   1480   1484     1
   1480   1485     1
   1480   1487     1
   1480   1488     1
   1480   1505     1
   1480   1506     1
   1481   1483     1
   1481   1486     1
   1481   1504     1
   1481   1493     1
   1481   1494     1
   1482   1483     1
   1482   1486     1
   1482   1504     1
   1482   1493     1
   1482   1494     1
   1483   1487     1
   1483   1488     1
   1483   1502     1
   1483   1503     1
   1484   1486     1
   1484   1501     1
   1484   1496     1
   1484   1497     1
   1485   1486     1
   1485   1501     1
   1485   1496     1
   1485   1497     1
   1486   1499     1
   1486   1500     1
   1487   1498     1
   1487   1490     1
   1487   1491     1
   1488   1498     1
   1488   1490     1
   1488   1491     1
   1490   1507     1
   1490   1499     1
   1490   1500     1
   1491   1507     1
   1491   1499     1
   1491   1500     1
   1493   3073     1
   1493   1505     1
   1493   1506     1
   1494   3073     1
   1494   1505     1
   1494   1506     1
   1496   3044     1
   1496   1502     1
   1496   1503     1
   1497   3044     1
   1497   1502     1
   1497   1503     1
   1501   3036     1
   1501   3037     1
   1502   3035     1
   1503   3035     1
   1504   3065     1
   1504   3066     1
   1505   3064     1
   1506   3064     1
   1508   1522     1
   1508   1523     1
   1508   1525     1
   1508   1526     1
   1508   1519     1
   1508   1520     1
   1509   1513     1
   1509   1514     1
   1509   1516     1
   1509   1517     1
   1509   1534     1
   1509   1535     1
   1510   1512     1
   1510   1515     1
   1510   1533     1
   1510   1522     1
   1510   1523     1
   1511   1512     1
   1511   1515     1
   1511   1533     1
   1511   1522     1
   1511   1523     1
   1512   1516     1
   1512   1517     1
   1512   1531     1
   1512   1532     1
   1513   1515     1
   1513   1530     1
   1513   1525     1
   1513   1526     1
   1514   1515     1
   1514   1530     1
   1514   1525     1
   1514   1526     1
   1515   1528     1
   1515   1529     1
   1516   1527     1
   1516   1519     1
   1516   1520     1
   1517   1527     1
   1517   1519     1
   1517   1520     1
   1519   1536     1
   1519   1528     1
   1519   1529     1
   1520   1536     1
   1520   1528     1
   1520   1529     1
   1522   3131     1
   1522   1534     1
   1522   1535     1
   1523   3131     1
   1523   1534     1
   1523   1535     1
   1525   3102     1
   1525   1531     1
   1525   1532     1
   1526   3102     1
   1526   1531     1
   1526   1532     1
   1530   3094     1
   1530   3095     1
   1531   3093     1
   1532   3093     1
   1533   3123     1
   1533   3124     1
   1534   3122     1
   1535   3122     1
   1537   1551     1
   1537   1552     1
   1537   1554     1
   1537   1555     1
   1537   1548     1
   1537   1549     1
   1538   1542     1
   1538   1543     1
   1538   1545     1
   1538   1546     1
   1538   1563     1
   1538   1564     1
   1539   1541     1
   1539   1544     1
   1539   1562     1
   1539   1551     1
   1539   1552     1
   1540   1541     1
   1540   1544     1
   1540   1562     1
   1540   1551     1
   1540   1552     1
   1541   1545     1
   1541   1546     1
   1541   1560     1
   1541   1561     1
   1542   1544     1
   1542   1559     1
   1542   1554     1
   1542   1555     1
   1543   1544     1
   1543   1559     1
   1543   1554     1
   1543   1555     1
   1544   1557     1
   1544   1558     1
   1545   1556     1
   1545   1548     1
   1545   1549     1
   1546   1556     1
   1546   1548     1
   1546   1549     1
   1548   1565     1
   1548   1557     1
   1548   1558     1
   1549   1565     1
   1549   1557     1
   1549   1558     1
   1551   3189     1
   1551   1563     1
   1551   1564     1
   1552   3189     1
   1552   1563     1
   1552   1564     1
   1554   3160     1
   1554   1560     1
   1554   1561     1
   1555   3160     1
   1555   1560     1
   1555   1561     1
   1559   3152     1
   1559   3153     1
   1560   3151     1
   1561   3151     1
   1562   3181     1
   1562   3182     1
   1563   3180     1
   1564   3180     1
   1566   1580     1
   1566   1581     1
   1566   1583     1
   1566   1584     1
   1566   1577     1
   1566   1578     1
   1567   1571     1
   1567   1572     1
   1567   1574     1
   1567   1575     1
   1567   1592     1
   1567   1593     1
   1568   1570     1
   1568   1573     1
   1568   1591     1
   1568   1580     1
   1568   1581     1
   1569   1570     1
   1569   1573     1
   1569   1591     1
   1569   1580     1
   1569   1581     1
   1570   1574     1
   1570   1575     1
   1570   1589     1
   1570   1590     1
   1571   1573     1
   1571   1588     1
   1571   1583     1
   1571   1584     1
   1572   1573     1
   1572   1588     1
   1572   1583     1
   1572   1584     1
   1573   1586     1
   1573   1587     1
   1574   1585     1
   1574   1577     1
   1574   1578     1
   1575   1585     1
   1575   1577     1
   1575   1578     1
   1577   1594     1
   1577   1586     1
   1577   1587     1
   1578   1594     1
   1578   1586     1
   1578   1587     1
   1580   3247     1
   1580   1592     1
   1580   1593     1
   1581   3247     1
   1581   1592     1
   1581   1593     1
   1583   3218     1
   1583   1589     1
   1583   1590     1
   1584   3218     1
   1584   1589     1
   1584   1590     1
   1588   3210     1
   1588   3211     1
   1589   3209     1
   1590   3209     1
   1591   3239     1
   1591   3240     1
   1592   3238     1
   1593   3238     1
   1595   1609     1
   1595   1610     1
   1595   1612     1
   1595   1613     1
   1595   1606     1
   1595   1607     1
   1596   1600     1
   1596   1601     1
   1596   1603     1
   1596   1604     1
   1596   1621     1
   1596   1622     1
   1597   1599     1
   1597   1602     1
   1597   1620     1
   1597   1609     1
   1597   1610     1
   1598   1599     1
   1598   1602     1
   1598   1620     1
   1598   1609     1
   1598   1610     1
   1599   1603     1
   1599   1604     1
   1599   1618     1
   1599   1619     1
   1600   1602     1
   1600   1617     1
   1600   1612     1
   1600   1613     1
   1601   1602     1
   1601   1617     1
   1601   1612     1
   1601   1613     1
   1602   1615     1
   1602   1616     1
   1603   1614     1
   1603   1606     1
   1603   1607     1
   1604   1614     1
   1604   1606     1
   1604   1607     1
   1606   1623     1
   1606   1615     1
   1606   1616     1
   1607   1623     1
   1607   1615     1
   1607   1616     1
   1609   3305     1
   1609   1621     1
   1609   1622     1
   1610   3305     1
   1610   1621     1
   1610   1622     1
   1612   3276     1
   1612   1618     1
   1612   1619     1
   1613   3276     1
   1613   1618     1
   1613   1619     1
   1617   3268     1
   1617   3269     1
   1618   3267     1
   1619   3267     1
   1620   3297     1
   1620   3298     1
   1621   3296     1
   1622   3296     1
   1624   1638     1
   1624   1639     1
   1624   1641     1
   1624   1642     1
   1624   1635     1
   1624   1636     1
   1625   1629     1
   1625   1630     1
   1625   1632     1
   1625   1633     1
   1625   1650     1
   1625   1651     1
   1626   1628     1
   1626   1631     1
   1626   1649     1
   1626   1638     1
   1626   1639     1
   1627   1628     1
   1627   1631     1
   1627   1649     1
   1627   1638     1
   1627   1639     1
   1628   1632     1
   1628   1633     1
   1628   1647     1
   1628   1648     1
   1629   1631     1
   1629   1646     1
   1629   1641     1
   1629   1642     1
   1630   1631     1
   1630   1646     1
   1630   1641     1
   1630   1642     1
   1631   1644     1
   1631   1645     1
   1632   1643     1
   1632   1635     1
   1632   1636     1
   1633   1643     1
   1633   1635     1
   1633   1636     1
   1635   1652     1
   1635   1644     1
   1635   1645     1
   1636   1652     1
   1636   1644     1
   1636   1645     1
   1638   3363     1
   1638   1650     1
   1638   1651     1
   1639   3363     1
   1639   1650     1
   1639   1651     1
   1641   3334     1
   1641   1647     1
   1641   1648     1
   1642   3334     1
   1642   1647     1
   1642   1648     1
   1646   3326     1
   1646   3327     1
   1647   3325     1
   1648   3325     1
   1649   3355     1
   1649   3356     1
   1650   3354     1
   1651   3354     1
   1653   1667     1
   1653   1668     1
   1653   1670     1
   1653   1671     1
   1653   1664     1
   1653   1665     1
   1654   1658     1
   1654   1659     1
   1654   1661     1
   1654   1662     1
   1654   1679     1
   1654   1680     1
   1655   1657     1
   1655   1660     1
   1655   1678     1
   1655   1667     1
   1655   1668     1
   1656   1657     1
   1656   1660     1
   1656   1678     1
   1656   1667     1
   1656   1668     1
   1657   1661     1
   1657   1662     1
   1657   1676     1
   1657   1677     1
   1658   1660     1
   1658   1675     1
   1658   1670     1
   1658   1671     1
   1659   1660     1
   1659   1675     1
   1659   1670     1
   1659   1671     1
   1660   1673     1
   1660   1674     1
   1661   1672     1
   1661   1664     1
   1661   1665     1
   1662   1672     1
   1662   1664     1
   1662   1665     1
   1664   1681     1
   1664   1673     1
   1664   1674     1
   1665   1681     1
   1665   1673     1
   1665   1674     1
   1667   3421     1
   1667   1679     1
   1667   1680     1
   1668   3421     1
   1668   1679     1
   1668   1680     1
   1670   3392     1
   1670   1676     1
   1670   1677     1
   1671   3392     1
   1671   1676     1
   1671   1677     1
   1675   3384     1
   1675   3385     1
   1676   3383     1
   1677   3383     1
   1678   3413     1
   1678   3414     1
   1679   3412     1
   1680   3412     1
   1682   1696     1
   1682   1697     1
   1682   1699     1
   1682   1700     1
   1682   1693     1
   1682   1694     1
   1683   1687     1
   1683   1688     1
   1683   1690     1
   1683   1691     1
   1683   1708     1
   1683   1709     1
   1684   1686     1
   1684   1689     1
   1684   1707     1
   1684   1696     1
   1684   1697     1
   1685   1686     1
   1685   1689     1
   1685   1707     1
   1685   1696     1
   1685   1697     1
   1686   1690     1
   1686   1691     1
   1686   1705     1
   1686   1706     1
   1687   1689     1
   1687   1704     1
   1687   1699     1
   1687   1700     1
   1688   1689     1
   1688   1704     1
   1688   1699     1
   1688   1700     1
   1689   1702     1
   1689   1703     1
   1690   1701     1
   1690   1693     1
   1690   1694     1
   1691   1701     1
   1691   1693     1
   1691   1694     1
   1693   1710     1
   1693   1702     1
   1693   1703     1
   1694   1710     1
   1694   1702     1
   1694   1703     1
   1696   3479     1
   1696   1708     1
   1696   1709     1
   1697   3479     1
   1697   1708     1
   1697   1709     1
   1699   3450     1
   1699   1705     1
   1699   1706     1
   1700   3450     1
   1700   1705     1
   1700   1706     1
   1704   3442     1
   1704   3443     1
   1705   3441     1
   1706   3441     1
   1707   3471     1
   1707   3472     1
   1708   3470     1
   1709   3470     1
   1711   1725     1
   1711   1726     1
   1711   1728     1
   1711   1729     1
   1711   1722     1
   1711   1723     1
   1712   1716     1
   1712   1717     1
   1712   1719     1
   1712   1720     1
   1712   1737     1
   1712   1738     1
   1713   1715     1
   1713   1718     1
   1713   1736     1
   1713   1725     1
   1713   1726     1
   1714   1715     1
   1714   1718     1
   1714   1736     1
   1714   1725     1
   1714   1726     1
   1715   1719     1
   1715   1720     1
   1715   1734     1
   1715   1735     1
   1716   1718     1
   1716   1733     1
   1716   1728     1
   1716   1729     1
   1717   1718     1
   1717   1733     1
   1717   1728     1
   1717   1729     1
   1718   1731     1
   1718   1732     1
   1719   1730     1
   1719   1722     1
   1719   1723     1
   1720   1730     1
   1720   1722     1
   1720   1723     1
   1722   1739     1
   1722   1731     1
   1722   1732     1
   1723   1739     1
   1723   1731     1
   1723   1732     1
   1725   3537     1
   1725   1737     1
   1725   1738     1
   1726   3537     1
   1726   1737     1
   1726   1738     1
   1728   3508     1
   1728   1734     1
   1728   1735     1
   1729   3508     1
   1729   1734     1
   1729   1735     1
   1733   3500     1
   1733   3501     1
   1734   3499     1
   1735   3499     1
   1736   3529     1
   1736   3530     1
   1737   3528     1
   1738   3528     1
   1740   1754     1
   1740   1755     1
   1740   1757     1
   1740   1758     1
   1740   1751     1
   1740   1752     1
   1741   1745     1
   1741   1746     1
   1741   1748     1
   1741   1749     1
   1741   1766     1
   1741   1767     1
   1742   1744     1
   1742   1747     1
   1742   1765     1
   1742   1754     1
   1742   1755     1
   1743   1744     1
   1743   1747     1
   1743   1765     1
   1743   1754     1
   1743   1755     1
   1744   1748     1
   1744   1749     1
   1744   1763     1
   1744   1764     1
   1745   1747     1
   1745   1762     1
   1745   1757     1
   1745   1758     1
   1746   1747     1
   1746   1762     1
   1746   1757     1
   1746   1758     1
   1747   1760     1
   1747   1761     1
   1748   1759     1
   1748   1751     1
   1748   1752     1
   1749   1759     1
   1749   1751     1
   1749   1752     1
   1751   1768     1
   1751   1760     1
   1751   1761     1
   1752   1768     1
   1752   1760     1
   1752   1761     1
   1754   3595     1
   1754   1766     1
   1754   1767     1
   1755   3595     1
   1755   1766     1
   1755   1767     1
   1757   3566     1
   1757   1763     1
   1757   1764     1
   1758   3566     1
   1758   1763     1
   1758   1764     1
   1762   3558     1
   1762   3559     1
   1763   3557     1
   1764   3557     1
   1765   3587     1
   1765   3588     1
   1766   3586     1
   1767   3586     1
   1769   1783     1
   1769   1784     1
   1769   1786     1
   1769   1787     1
   1769   1780     1
   1769   1781     1
   1770   1774     1
   1770   1775     1
   1770   1777     1
   1770   1778     1
   1770   1795     1
   1770   1796     1
   1771   1773     1
   1771   1776     1
   1771   1794     1
   1771   1783     1
   1771   1784     1
   1772   1773     1
   1772   1776     1
   1772   1794     1
   1772   1783     1
   1772   1784     1
   1773   1777     1
   1773   1778     1
   1773   1792     1
   1773   1793     1
   1774   1776     1
   1774   1791     1
   1774   1786     1
   1774   1787     1
   1775   1776     1
   1775   1791     1
   1775   1786     1
   1775   1787     1
   1776   1789     1
   1776   1790     1
   1777   1788     1
   1777   1780     1
   1777   1781     1
   1778   1788     1
   1778   1780     1
   1778   1781     1
   1780   1797     1
   1780   1789     1
   1780   1790     1
   1781   1797     1
   1781   1789     1
   1781   1790     1
   1783   3653     1
   1783   1795     1
   1783   1796     1
   1784   3653     1
   1784   1795     1
   1784   1796     1
   1786   3624     1
   1786   1792     1
   1786   1793     1
   1787   3624     1
   1787   1792     1
   1787   1793     1
   1791   3616     1
   1791   3617     1
   1792   3615     1
   1793   3615     1
   1794   3645     1
   1794   3646     1
   1795   3644     1
   1796   3644     1
   1798   1812     1
   1798   1813     1
   1798   1815     1
   1798   1816     1
   1798   1809     1
   1798   1810     1
   1799   1803     1
   1799   1804     1
   1799   1806     1
   1799   1807     1
   1799   1824     1
   1799   1825     1
   1800   1802     1
   1800   1805     1
   1800   1823     1
   1800   1812     1
   1800   1813     1
   1801   1802     1
   1801   1805     1
   1801   1823     1
   1801   1812     1
   1801   1813     1
   1802   1806     1
   1802   1807     1
   1802   1821     1
   1802   1822     1
   1803   1805     1
   1803   1820     1
   1803   1815     1
   1803   1816     1
   1804   1805     1
   1804   1820     1
   1804   1815     1
   1804   1816     1
   1805   1818     1
   1805   1819     1
   1806   1817     1
   1806   1809     1
   1806   1810     1
   1807   1817     1
   1807   1809     1
   1807   1810     1
   1809   1826     1
   1809   1818     1
   1809   1819     1
   1810   1826     1
   1810   1818     1
   1810   1819     1
   1812   3679     1
   1812   1824     1
   1812   1825     1
   1813   3679     1
   1813   1824     1
   1813   1825     1
   1815   3666     1
   1815   1821     1
   1815   1822     1
   1816   3666     1
   1816   1821     1
   1816   1822     1
   1820   3661     1
   1820   3662     1
   1821   3660     1
   1822   3660     1
   1823   3674     1
   1823   3675     1
   1824   3673     1
   1825   3673     1
   1827   1841     1
   1827   1842     1
   1827   1844     1
   1827   1845     1
   1827   1838     1
   1827   1839     1
   1828   1832     1
   1828   1833     1
   1828   1835     1
   1828   1836     1
   1828   1853     1
   1828   1854     1
   1829   1831     1
   1829   1834     1
   1829   1852     1
   1829   1841     1
   1829   1842     1
   1830   1831     1
   1830   1834     1
   1830   1852     1
   1830   1841     1
   1830   1842     1
   1831   1835     1
   1831   1836     1
   1831   1850     1
   1831   1851     1
   1832   1834     1
   1832   1849     1
   1832   1844     1
   1832   1845     1
   1833   1834     1
   1833   1849     1
   1833   1844     1
   1833   1845     1
   1834   1847     1
   1834   1848     1
   1835   1846     1
   1835   1838     1
   1835   1839     1
   1836   1846     1
   1836   1838     1
   1836   1839     1
   1838   1855     1
   1838   1847     1
   1838   1848     1
   1839   1855     1
   1839   1847     1
   1839   1848     1
   1841   3705     1
   1841   1853     1
   1841   1854     1
   1842   3705     1
   1842   1853     1
   1842   1854     1
   1844   3692     1
   1844   1850     1
   1844   1851     1
   1845   3692     1
   1845   1850     1
   1845   1851     1
   1849   3687     1
   1849   3688     1
   1850   3686     1
   1851   3686     1
   1852   3700     1
   1852   3701     1
   1853   3699     1
   1854   3699     1
   1856   1870     1
   1856   1871     1
   1856   1873     1
   1856   1874     1
   1856   1867     1
   1856   1868     1
   1857   1861     1
   1857   1862     1
   1857   1864     1
   1857   1865     1
   1857   1882     1
   1857   1883     1
   1858   1860     1
   1858   1863     1
   1858   1881     1
   1858   1870     1
   1858   1871     1
   1859   1860     1
   1859   1863     1
   1859   1881     1
   1859   1870     1
   1859   1871     1
   1860   1864     1
   1860   1865     1
   1860   1879     1
   1860   1880     1
   1861   1863     1
   1861   1878     1
   1861   1873     1
   1861   1874     1
   1862   1863     1
   1862   1878     1
   1862   1873     1
   1862   1874     1
   1863   1876     1
   1863   1877     1
   1864   1875     1
   1864   1867     1
   1864   1868     1
   1865   1875     1
   1865   1867     1
   1865   1868     1
   1867   1884     1
   1867   1876     1
   1867   1877     1
   1868   1884     1
   1868   1876     1
   1868   1877     1
   1870   3731     1
   1870   1882     1
   1870   1883     1
   1871   3731     1
   1871   1882     1
   1871   1883     1
   1873   3718     1
   1873   1879     1
   1873   1880     1
   1874   3718     1
   1874   1879     1
   1874   1880     1
   1878   3713     1
   1878   3714     1
   1879   3712     1
   1880   3712     1
   1881   3726     1
   1881   3727     1
   1882   3725     1
   1883   3725     1
   1885   1899     1
   1885   1900     1
   1885   1902     1
   1885   1903     1
   1885   1896     1
   1885   1897     1
   1886   1890     1
   1886   1891     1
   1886   1893     1
   1886   1894     1
   1886   1911     1
   1886   1912     1
   1887   1889     1
   1887   1892     1
   1887   1910     1
   1887   1899     1
   1887   1900     1
   1888   1889     1
   1888   1892     1
   1888   1910     1
   1888   1899     1
   1888   1900     1
   1889   1893     1
   1889   1894     1
   1889   1908     1
   1889   1909     1
   1890   1892     1
   1890   1907     1
   1890   1902     1
   1890   1903     1
   1891   1892     1
   1891   1907     1
   1891   1902     1
   1891   1903     1
   1892   1905     1
   1892   1906     1
   1893   1904     1
   1893   1896     1
   1893   1897     1
   1894   1904     1
   1894   1896     1
   1894   1897     1
   1896   1913     1
   1896   1905     1
   1896   1906     1
   1897   1913     1
   1897   1905     1
   1897   1906     1
   1899   3757     1
   1899   1911     1
   1899   1912     1
   1900   3757     1
   1900   1911     1
   1900   1912     1
   1902   3744     1
   1902   1908     1
   1902   1909     1
   1903   3744     1
   1903   1908     1
   1903   1909     1
   1907   3739     1
   1907   3740     1
   1908   3738     1
   1909   3738     1
   1910   3752     1
   1910   3753     1
   1911   3751     1
   1912   3751     1
   1914   1928     1
   1914   1929     1
   1914   1931     1
   1914   1932     1
   1914   1925     1
   1914   1926     1
   1915   1919     1
   1915   1920     1
   1915   1922     1
   1915   1923     1
   1915   1940     1
   1915   1941     1
   1916   1918     1
   1916   1921     1
   1916   1939     1
   1916   1928     1
   1916   1929     1
   1917   1918     1
   1917   1921     1
   1917   1939     1
   1917   1928     1
   1917   1929     1
   1918   1922     1
   1918   1923     1
   1918   1937     1
   1918   1938     1
   1919   1921     1
   1919   1936     1
   1919   1931     1
   1919   1932     1
   1920   1921     1
   1920   1936     1
   1920   1931     1
   1920   1932     1
   1921   1934     1
   1921   1935     1
   1922   1933     1
   1922   1925     1
   1922   1926     1
   1923   1933     1
   1923   1925     1
   1923   1926     1
   1925   1942     1
   1925   1934     1
   1925   1935     1
   1926   1942     1
   1926   1934     1
   1926   1935     1
   1928   3783     1
   1928   1940     1
   1928   1941     1
   1929   3783     1
   1929   1940     1
   1929   1941     1
   1931   3770     1
   1931   1937     1
   1931   1938     1
   1932   3770     1
   1932   1937     1
   1932   1938     1
   1936   3765     1
   1936   3766     1
   1937   3764     1
   1938   3764     1
   1939   3778     1
   1939   3779     1
   1940   3777     1
   1941   3777     1
   1943   1957     1
   1943   1958     1
   1943   1960     1
   1943   1961     1
   1943   1954     1
   1943   1955     1
   1944   1948     1
   1944   1949     1
   1944   1951     1
   1944   1952     1
   1944   1969     1
   1944   1970     1
   1945   1947     1
   1945   1950     1
   1945   1968     1
   1945   1957     1
   1945   1958     1
   1946   1947     1
   1946   1950     1
   1946   1968     1
   1946   1957     1
   1946   1958     1
   1947   1951     1
   1947   1952     1
   1947   1966     1
   1947   1967     1
   1948   1950     1
   1948   1965     1
   1948   1960     1
   1948   1961     1
   1949   1950     1
   1949   1965     1
   1949   1960     1
   1949   1961     1
   1950   1963     1
   1950   1964     1
   1951   1962     1
   1951   1954     1
   1951   1955     1
   1952   1962     1
   1952   1954     1
   1952   1955     1
   1954   1971     1
   1954   1963     1
   1954   1964     1
   1955   1971     1
   1955   1963     1
   1955   1964     1
   1957   3809     1
   1957   1969     1
   1957   1970     1
   1958   3809     1
   1958   1969     1
   1958   1970     1
   1960   3796     1
   1960   1966     1
   1960   1967     1
   1961   3796     1
   1961   1966     1
   1961   1967     1
   1965   3791     1
   1965   3792     1
   1966   3790     1
   1967   3790     1
   1968   3804     1
   1968   3805     1
   1969   3803     1
   1970   3803     1
   1972   1986     1
   1972   1987     1
   1972   1989     1
   1972   1990     1
   1972   1983     1
   1972   1984     1
   1973   1977     1
   1973   1978     1
   1973   1980     1
   1973   1981     1
   1973   1998     1
   1973   1999     1
   1974   1976     1
   1974   1979     1
   1974   1997     1
   1974   1986     1
   1974   1987     1
   1975   1976     1
   1975   1979     1
   1975   1997     1
   1975   1986     1
   1975   1987     1
   1976   1980     1
   1976   1981     1
   1976   1995     1
   1976   1996     1
   1977   1979     1
   1977   1994     1
   1977   1989     1
   1977   1990     1
   1978   1979     1
   1978   1994     1
   1978   1989     1
   1978   1990     1
   1979   1992     1
   1979   1993     1
   1980   1991     1
   1980   1983     1
   1980   1984     1
   1981   1991     1
   1981   1983     1
   1981   1984     1
   1983   2000     1
   1983   1992     1
   1983   1993     1
   1984   2000     1
   1984   1992     1
   1984   1993     1
   1986   3835     1
   1986   1998     1
   1986   1999     1
   1987   3835     1
   1987   1998     1
   1987   1999     1
   1989   3822     1
   1989   1995     1
   1989   1996     1
   1990   3822     1
   1990   1995     1
   1990   1996     1
   1994   3817     1
   1994   3818     1
   1995   3816     1
   1996   3816     1
   1997   3830     1
   1997   3831     1
   1998   3829     1
   1999   3829     1
   2001   2015     1
   2001   2016     1
   2001   2018     1
   2001   2019     1
   2001   2012     1
   2001   2013     1
   2002   2006     1
   2002   2007     1
   2002   2009     1
   2002   2010     1
   2002   2027     1
   2002   2028     1
   2003   2005     1
   2003   2008     1
   2003   2026     1
   2003   2015     1
   2003   2016     1
   2004   2005     1
   2004   2008     1
   2004   2026     1
   2004   2015     1
   2004   2016     1
   2005   2009     1
   2005   2010     1
   2005   2024     1
   2005   2025     1
   2006   2008     1
   2006   2023     1
   2006   2018     1
   2006   2019     1
   2007   2008     1
   2007   2023     1
   2007   2018     1
   2007   2019     1
   2008   2021     1
   2008   2022     1
   2009   2020     1
   2009   2012     1
   2009   2013     1
   2010   2020     1
   2010   2012     1
   2010   2013     1
   2012   2029     1
   2012   2021     1
   2012   2022     1
   2013   2029     1
   2013   2021     1
   2013   2022     1
   2015   3861     1
   2015   2027     1
   2015   2028     1
   2016   3861     1
   2016   2027     1
   2016   2028     1
   2018   3848     1
   2018   2024     1
   2018   2025     1
   2019   3848     1
   2019   2024     1
   2019   2025     1
   2023   3843     1
   2023   3844     1
   2024   3842     1
   2025   3842     1
   2026   3856     1
   2026   3857     1
   2027   3855     1
   2028   3855     1
   2030   2044     1
   2030   2045     1
   2030   2047     1
   2030   2048     1
   2030   2041     1
   2030   2042     1
   2031   2035     1
   2031   2036     1
   2031   2038     1
   2031   2039     1
   2031   2056     1
   2031   2057     1
   2032   2034     1
   2032   2037     1
   2032   2055     1
   2032   2044     1
   2032   2045     1
   2033   2034     1
   2033   2037     1
   2033   2055     1
   2033   2044     1
   2033   2045     1
   2034   2038     1
   2034   2039     1
   2034   2053     1
   2034   2054     1
   2035   2037     1
   2035   2052     1
   2035   2047     1
   2035   2048     1
   2036   2037     1
   2036   2052     1
   2036   2047     1
   2036   2048     1
   2037   2050     1
   2037   2051     1
   2038   2049     1
   2038   2041     1
   2038   2042     1
   2039   2049     1
   2039   2041     1
   2039   2042     1
   2041   2058     1
   2041   2050     1
   2041   2051     1
   2042   2058     1
   2042   2050     1
   2042   2051     1
   2044   3887     1
   2044   2056     1
   2044   2057     1
   2045   3887     1
   2045   2056     1
   2045   2057     1
   2047   3874     1
   2047   2053     1
   2047   2054     1
   2048   3874     1
   2048   2053     1
   2048   2054     1
   2052   3869     1
   2052   3870     1
   2053   3868     1
   2054   3868     1
   2055   3882     1
   2055   3883     1
   2056   3881     1
   2057   3881     1
   2059   2073     1
   2059   2074     1
   2059   2076     1
   2059   2077     1
   2059   2070     1
   2059   2071     1
   2060   2064     1
   2060   2065     1
   2060   2067     1
   2060   2068     1
   2060   2085     1
   2060   2086     1
   2061   2063     1
   2061   2066     1
   2061   2084     1
   2061   2073     1
   2061   2074     1
   2062   2063     1
   2062   2066     1
   2062   2084     1
   2062   2073     1
   2062   2074     1
   2063   2067     1
   2063   2068     1
   2063   2082     1
   2063   2083     1
   2064   2066     1
   2064   2081     1
   2064   2076     1
   2064   2077     1
   2065   2066     1
   2065   2081     1
   2065   2076     1
   2065   2077     1
   2066   2079     1
   2066   2080     1
   2067   2078     1
   2067   2070     1
   2067   2071     1
   2068   2078     1
   2068   2070     1
   2068   2071     1
   2070   2087     1
   2070   2079     1
   2070   2080     1
   2071   2087     1
   2071   2079     1
   2071   2080     1
   2073   3913     1
   2073   2085     1
   2073   2086     1
   2074   3913     1
   2074   2085     1
   2074   2086     1
   2076   3900     1
   2076   2082     1
   2076   2083     1
   2077   3900     1
   2077   2082     1
   2077   2083     1
   2081   3895     1
   2081   3896     1
   2082   3894     1
   2083   3894     1
   2084   3908     1
   2084   3909     1
   2085   3907     1
   2086   3907     1
   2088   2102     1
   2088   2103     1
   2088   2105     1
   2088   2106     1
   2088   2099     1
   2088   2100     1
   2089   2093     1
   2089   2094     1
   2089   2096     1
   2089   2097     1
   2089   2114     1
   2089   2115     1
   2090   2092     1
   2090   2095     1
   2090   2113     1
   2090   2102     1
   2090   2103     1
   2091   2092     1
   2091   2095     1
   2091   2113     1
   2091   2102     1
   2091   2103     1
   2092   2096     1
   2092   2097     1
   2092   2111     1
   2092   2112     1
   2093   2095     1
   2093   2110     1
   2093   2105     1
   2093   2106     1
   2094   2095     1
   2094   2110     1
   2094   2105     1
   2094   2106     1
   2095   2108     1
   2095   2109     1
   2096   2107     1
   2096   2099     1
   2096   2100     1
   2097   2107     1
   2097   2099     1
   2097   2100     1
   2099   2116     1
   2099   2108     1
   2099   2109     1
   2100   2116     1
   2100   2108     1
   2100   2109     1
   2102   3939     1
   2102   2114     1
   2102   2115     1
   2103   3939     1
   2103   2114     1
   2103   2115     1
   2105   3926     1
   2105   2111     1
   2105   2112     1
   2106   3926     1
   2106   2111     1
   2106   2112     1
   2110   3921     1
   2110   3922     1
   2111   3920     1
   2112   3920     1
   2113   3934     1
   2113   3935     1
   2114   3933     1
   2115   3933     1
   2117   2131     1
   2117   2132     1
   2117   2134     1
   2117   2135     1
   2117   2128     1
   2117   2129     1
   2118   2122     1
   2118   2123     1
   2118   2125     1
   2118   2126     1
   2118   2143     1
   2118   2144     1
   2119   2121     1
   2119   2124     1
   2119   2142     1
   2119   2131     1
   2119   2132     1
   2120   2121     1
   2120   2124     1
   2120   2142     1
   2120   2131     1
   2120   2132     1
   2121   2125     1
   2121   2126     1
   2121   2140     1
   2121   2141     1
   2122   2124     1
   2122   2139     1
   2122   2134     1
   2122   2135     1
   2123   2124     1
   2123   2139     1
   2123   2134     1
   2123   2135     1
   2124   2137     1
   2124   2138     1
   2125   2136     1
   2125   2128     1
   2125   2129     1
   2126   2136     1
   2126   2128     1
   2126   2129     1
   2128   2145     1
   2128   2137     1
   2128   2138     1
   2129   2145     1
   2129   2137     1
   2129   2138     1
   2131   3965     1
   2131   2143     1
   2131   2144     1
   2132   3965     1
   2132   2143     1
   2132   2144     1
   2134   3952     1
   2134   2140     1
   2134   2141     1
   2135   3952     1
   2135   2140     1
   2135   2141     1
   2139   3947     1
   2139   3948     1
   2140   3946     1
   2141   3946     1
   2142   3960     1
   2142   3961     1
   2143   3959     1
   2144   3959     1
   2146   2160     1
   2146   2161     1
   2146   2163     1
   2146   2164     1
   2146   2157     1
   2146   2158     1
   2147   2151     1
   2147   2152     1
   2147   2154     1
   2147   2155     1
   2147   2172     1
   2147   2173     1
   2148   2150     1
   2148   2153     1
   2148   2171     1
   2148   2160     1
   2148   2161     1
   2149   2150     1
   2149   2153     1
   2149   2171     1
   2149   2160     1
   2149   2161     1
   2150   2154     1
   2150   2155     1
   2150   2169     1
   2150   2170     1
   2151   2153     1
   2151   2168     1
   2151   2163     1
   2151   2164     1
   2152   2153     1
   2152   2168     1
   2152   2163     1
   2152   2164     1
   2153   2166     1
   2153   2167     1
   2154   2165     1
   2154   2157     1
   2154   2158     1
   2155   2165     1
   2155   2157     1
   2155   2158     1
   2157   2174     1
   2157   2166     1
   2157   2167     1
   2158   2174     1
   2158   2166     1
   2158   2167     1
   2160   3991     1
   2160   2172     1
   2160   2173     1
   2161   3991     1
   2161   2172     1
   2161   2173     1
   2163   3978     1
   2163   2169     1
   2163   2170     1
   2164   3978     1
   2164   2169     1
   2164   2170     1
   2168   3973     1
   2168   3974     1
   2169   3972     1
   2170   3972     1
   2171   3986     1
   2171   3987     1
   2172   3985     1
   2173   3985     1
   2175   2189     1
   2175   2190     1
   2175   2192     1
   2175   2193     1
   2175   2186     1
   2175   2187     1
   2176   2180     1
   2176   2181     1
   2176   2183     1
   2176   2184     1
   2176   2201     1
   2176   2202     1
   2177   2179     1
   2177   2182     1
   2177   2200     1
   2177   2189     1
   2177   2190     1
   2178   2179     1
   2178   2182     1
   2178   2200     1
   2178   2189     1
   2178   2190     1
   2179   2183     1
   2179   2184     1
   2179   2198     1
   2179   2199     1
   2180   2182     1
   2180   2197     1
   2180   2192     1
   2180   2193     1
   2181   2182     1
   2181   2197     1
   2181   2192     1
   2181   2193     1
   2182   2195     1
   2182   2196     1
   2183   2194     1
   2183   2186     1
   2183   2187     1
   2184   2194     1
   2184   2186     1
   2184   2187     1
   2186   2203     1
   2186   2195     1
   2186   2196     1
   2187   2203     1
   2187   2195     1
   2187   2196     1
   2189   4017     1
   2189   2201     1
   2189   2202     1
   2190   4017     1
   2190   2201     1
   2190   2202     1
   2192   4004     1
   2192   2198     1
   2192   2199     1
   2193   4004     1
   2193   2198     1
   2193   2199     1
   2197   3999     1
   2197   4000     1
   2198   3998     1
   2199   3998     1
   2200   4012     1
   2200   4013     1
   2201   4011     1
   2202   4011     1
   2204   2218     1
   2204   2219     1
   2204   2221     1
   2204   2222     1
   2204   2215     1
   2204   2216     1
   2205   2209     1
   2205   2210     1
   2205   2212     1
   2205   2213     1
   2205   2230     1
   2205   2231     1
   2206   2208     1
   2206   2211     1
   2206   2229     1
   2206   2218     1
   2206   2219     1
   2207   2208     1
   2207   2211     1
   2207   2229     1
   2207   2218     1
   2207   2219     1
   2208   2212     1
   2208   2213     1
   2208   2227     1
   2208   2228     1
   2209   2211     1
   2209   2226     1
   2209   2221     1
   2209   2222     1
   2210   2211     1
   2210   2226     1
   2210   2221     1
   2210   2222     1
   2211   2224     1
   2211   2225     1
   2212   2223     1
   2212   2215     1
   2212   2216     1
   2213   2223     1
   2213   2215     1
   2213   2216     1
   2215   2232     1
   2215   2224     1
   2215   2225     1
   2216   2232     1
   2216   2224     1
   2216   2225     1
   2218   4043     1
   2218   2230     1
   2218   2231     1
   2219   4043     1
   2219   2230     1
   2219   2231     1
   2221   4030     1
   2221   2227     1
   2221   2228     1
   2222   4030     1
   2222   2227     1
   2222   2228     1
   2226   4025     1
   2226   4026     1
   2227   4024     1
   2228   4024     1
   2229   4038     1
   2229   4039     1
   2230   4037     1
   2231   4037     1
   2233   2247     1
   2233   2248     1
   2233   2250     1
   2233   2251     1
   2233   2244     1
   2233   2245     1
   2234   2238     1
   2234   2239     1
   2234   2241     1
   2234   2242     1
   2234   2259     1
   2234   2260     1
   2235   2237     1
   2235   2240     1
   2235   2258     1
   2235   2247     1
   2235   2248     1
   2236   2237     1
   2236   2240     1
   2236   2258     1
   2236   2247     1
   2236   2248     1
   2237   2241     1
   2237   2242     1
   2237   2256     1
   2237   2257     1
   2238   2240     1
   2238   2255     1
   2238   2250     1
   2238   2251     1
   2239   2240     1
   2239   2255     1
   2239   2250     1
   2239   2251     1
   2240   2253     1
   2240   2254     1
   2241   2252     1
   2241   2244     1
   2241   2245     1
   2242   2252     1
   2242   2244     1
   2242   2245     1
   2244   2261     1
   2244   2253     1
   2244   2254     1
   2245   2261     1
   2245   2253     1
   2245   2254     1
   2247   4069     1
   2247   2259     1
   2247   2260     1
   2248   4069     1
   2248   2259     1
   2248   2260     1
   2250   4056     1
   2250   2256     1
   2250   2257     1
   2251   4056     1
   2251   2256     1
   2251   2257     1
   2255   4051     1
   2255   4052     1
   2256   4050     1
   2257   4050     1
   2258   4064     1
   2258   4065     1
   2259   4063     1
   2260   4063     1
   2262   2276     1
   2262   2277     1
   2262   2279     1
   2262   2280     1
   2262   2273     1
   2262   2274     1
   2263   2267     1
   2263   2268     1
   2263   2270     1
   2263   2271     1
   2263   2288     1
   2263   2289     1
   2264   2266     1
   2264   2269     1
   2264   2287     1
   2264   2276     1
   2264   2277     1
   2265   2266     1
   2265   2269     1
   2265   2287     1
   2265   2276     1
   2265   2277     1
   2266   2270     1
   2266   2271     1
   2266   2285     1
   2266   2286     1
   2267   2269     1
   2267   2284     1
   2267   2279     1
   2267   2280     1
   2268   2269     1
   2268   2284     1
   2268   2279     1
   2268   2280     1
   2269   2282     1
   2269   2283     1
   2270   2281     1
   2270   2273     1
   2270   2274     1
   2271   2281     1
   2271   2273     1
   2271   2274     1
   2273   2290     1
   2273   2282     1
   2273   2283     1
   2274   2290     1
   2274   2282     1
   2274   2283     1
   2276   4095     1
   2276   2288     1
   2276   2289     1
   2277   4095     1
   2277   2288     1
   2277   2289     1
   2279   4082     1
   2279   2285     1
   2279   2286     1
   2280   4082     1
   2280   2285     1
   2280   2286     1
   2284   4077     1
   2284   4078     1
   2285   4076     1
   2286   4076     1
   2287   4090     1
   2287   4091     1
   2288   4089     1
   2289   4089     1
   2291   2305     1
   2291   2306     1
   2291   2308     1
   2291   2309     1
   2291   2302     1
   2291   2303     1
   2292   2296     1
   2292   2297     1
   2292   2299     1
   2292   2300     1
   2292   2317     1
   2292   2318     1
   2293   2295     1
   2293   2298     1
   2293   2316     1
   2293   2305     1
   2293   2306     1
   2294   2295     1
   2294   2298     1
   2294   2316     1
   2294   2305     1
   2294   2306     1
   2295   2299     1
   2295   2300     1
   2295   2314     1
   2295   2315     1
   2296   2298     1
   2296   2313     1
   2296   2308     1
   2296   2309     1
   2297   2298     1
   2297   2313     1
   2297   2308     1
   2297   2309     1
   2298   2311     1
   2298   2312     1
   2299   2310     1
   2299   2302     1
   2299   2303     1
   2300   2310     1
   2300   2302     1
   2300   2303     1
   2302   2319     1
   2302   2311     1
   2302   2312     1
   2303   2319     1
   2303   2311     1
   2303   2312     1
   2305   4121     1
   2305   2317     1
   2305   2318     1
   2306   4121     1
   2306   2317     1
   2306   2318     1
   2308   4108     1
   2308   2314     1
   2308   2315     1
   2309   4108     1
   2309   2314     1
   2309   2315     1
   2313   4103     1
   2313   4104     1
   2314   4102     1
   2315   4102     1
   2316   4116     1
   2316   4117     1
   2317   4115     1
   2318   4115     1
   2320   2334     1
   2320   2335     1
   2320   2337     1
   2320   2338     1
   2320   2331     1
   2320   2332     1
   2321   2325     1
   2321   2326     1
   2321   2328     1
   2321   2329     1
   2321   2346     1
   2321   2347     1
   2322   2324     1
   2322   2327     1
   2322   2345     1
   2322   2334     1
   2322   2335     1
   2323   2324     1
   2323   2327     1
   2323   2345     1
   2323   2334     1
   2323   2335     1
   2324   2328     1
   2324   2329     1
   2324   2343     1
   2324   2344     1
   2325   2327     1
   2325   2342     1
   2325   2337     1
   2325   2338     1
   2326   2327     1
   2326   2342     1
   2326   2337     1
   2326   2338     1
   2327   2340     1
   2327   2341     1
   2328   2339     1
   2328   2331     1
   2328   2332     1
   2329   2339     1
   2329   2331     1
   2329   2332     1
   2331   2348     1
   2331   2340     1
   2331   2341     1
   2332   2348     1
   2332   2340     1
   2332   2341     1
   2334   4147     1
   2334   2346     1
   2334   2347     1
   2335   4147     1
   2335   2346     1
   2335   2347     1
   2337   4134     1
   2337   2343     1
   2337   2344     1
   2338   4134     1
   2338   2343     1
   2338   2344     1
   2342   4129     1
   2342   4130     1
   2343   4128     1
   2344   4128     1
   2345   4142     1
   2345   4143     1
   2346   4141     1
   2347   4141     1
   2349   2363     1
   2349   2364     1
   2349   2366     1
   2349   2367     1
   2349   2360     1
   2349   2361     1
   2350   2354     1
   2350   2355     1
   2350   2357     1
   2350   2358     1
   2350   2375     1
   2350   2376     1
   2351   2353     1
   2351   2356     1
   2351   2374     1
   2351   2363     1
   2351   2364     1
   2352   2353     1
   2352   2356     1
   2352   2374     1
   2352   2363     1
   2352   2364     1
   2353   2357     1
   2353   2358     1
   2353   2372     1
   2353   2373     1
   2354   2356     1
   2354   2371     1
   2354   2366     1
   2354   2367     1
   2355   2356     1
   2355   2371     1
   2355   2366     1
   2355   2367     1
   2356   2369     1
   2356   2370     1
   2357   2368     1
   2357   2360     1
   2357   2361     1
   2358   2368     1
   2358   2360     1
   2358   2361     1
   2360   2377     1
   2360   2369     1
   2360   2370     1
   2361   2377     1
   2361   2369     1
   2361   2370     1
   2363   4173     1
   2363   2375     1
   2363   2376     1
   2364   4173     1
   2364   2375     1
   2364   2376     1
   2366   4160     1
   2366   2372     1
   2366   2373     1
   2367   4160     1
   2367   2372     1
   2367   2373     1
   2371   4155     1
   2371   4156     1
   2372   4154     1
   2373   4154     1
   2374   4168     1
   2374   4169     1
   2375   4167     1
   2376   4167     1
   2378   2392     1
   2378   2393     1
   2378   2395     1
   2378   2396     1
   2378   2389     1
   2378   2390     1
   2379   2383     1
   2379   2384     1
   2379   2386     1
   2379   2387     1
   2379   2404     1
   2379   2405     1
   2380   2382     1
   2380   2385     1
   2380   2403     1
   2380   2392     1
   2380   2393     1
   2381   2382     1
   2381   2385     1
   2381   2403     1
   2381   2392     1
   2381   2393     1
   2382   2386     1
   2382   2387     1
   2382   2401     1
   2382   2402     1
   2383   2385     1
   2383   2400     1
   2383   2395     1
   2383   2396     1
   2384   2385     1
   2384   2400     1
   2384   2395     1
   2384   2396     1
   2385   2398     1
   2385   2399     1
   2386   2397     1
   2386   2389     1
   2386   2390     1
   2387   2397     1
   2387   2389     1
   2387   2390     1
   2389   2406     1
   2389   2398     1
   2389   2399     1
   2390   2406     1
   2390   2398     1
   2390   2399     1
   2392   4199     1
   2392   2404     1
   2392   2405     1
   2393   4199     1
   2393   2404     1
   2393   2405     1
   2395   4186     1
   2395   2401     1
   2395   2402     1
   2396   4186     1
   2396   2401     1
   2396   2402     1
   2400   4181     1
   2400   4182     1
   2401   4180     1
   2402   4180     1
   2403   4194     1
   2403   4195     1
   2404   4193     1
   2405   4193     1
   2407   2421     1
   2407   2422     1
   2407   2424     1
   2407   2425     1
   2407   2418     1
   2407   2419     1
   2408   2412     1
   2408   2413     1
   2408   2415     1
   2408   2416     1
   2408   2433     1
   2408   2434     1
   2409   2411     1
   2409   2414     1
   2409   2432     1
   2409   2421     1
   2409   2422     1
   2410   2411     1
   2410   2414     1
   2410   2432     1
   2410   2421     1
   2410   2422     1
   2411   2415     1
   2411   2416     1
   2411   2430     1
   2411   2431     1
   2412   2414     1
   2412   2429     1
   2412   2424     1
   2412   2425     1
   2413   2414     1
   2413   2429     1
   2413   2424     1
   2413   2425     1
   2414   2427     1
   2414   2428     1
   2415   2426     1
   2415   2418     1
   2415   2419     1
   2416   2426     1
   2416   2418     1
   2416   2419     1
   2418   2435     1
   2418   2427     1
   2418   2428     1
   2419   2435     1
   2419   2427     1
   2419   2428     1
   2421   4225     1
   2421   2433     1
   2421   2434     1
   2422   4225     1
   2422   2433     1
   2422   2434     1
   2424   4212     1
   2424   2430     1
   2424   2431     1
   2425   4212     1
   2425   2430     1
   2425   2431     1
   2429   4207     1
   2429   4208     1
   2430   4206     1
   2431   4206     1
   2432   4220     1
   2432   4221     1
   2433   4219     1
   2434   4219     1
   2436   2450     1
   2436   2451     1
   2436   2453     1
   2436   2454     1
   2436   2447     1
   2436   2448     1
   2437   2441     1
   2437   2442     1
   2437   2444     1
   2437   2445     1
   2437   2462     1
   2437   2463     1
   2438   2440     1
   2438   2443     1
   2438   2461     1
   2438   2450     1
   2438   2451     1
   2439   2440     1
   2439   2443     1
   2439   2461     1
   2439   2450     1
   2439   2451     1
   2440   2444     1
   2440   2445     1
   2440   2459     1
   2440   2460     1
   2441   2443     1
   2441   2458     1
   2441   2453     1
   2441   2454     1
   2442   2443     1
   2442   2458     1
   2442   2453     1
   2442   2454     1
   2443   2456     1
   2443   2457     1
   2444   2455     1
   2444   2447     1
   2444   2448     1
   2445   2455     1
   2445   2447     1
   2445   2448     1
   2447   2464     1
   2447   2456     1
   2447   2457     1
   2448   2464     1
   2448   2456     1
   2448   2457     1
   2450   4251     1
   2450   2462     1
   2450   2463     1
   2451   4251     1
   2451   2462     1
   2451   2463     1
   2453   4238     1
   2453   2459     1
   2453   2460     1
   2454   4238     1
   2454   2459     1
   2454   2460     1
   2458   4233     1
   2458   4234     1
   2459   4232     1
   2460   4232     1
   2461   4246     1
   2461   4247     1
   2462   4245     1
   2463   4245     1
   2465   2479     1
   2465   2480     1
   2465   2482     1
   2465   2483     1
   2465   2476     1
   2465   2477     1
   2466   2470     1
   2466   2471     1
   2466   2473     1
   2466   2474     1
   2466   2491     1
   2466   2492     1
   2467   2469     1
   2467   2472     1
   2467   2490     1
   2467   2479     1
   2467   2480     1
   2468   2469     1
   2468   2472     1
   2468   2490     1
   2468   2479     1
   2468   2480     1
   2469   2473     1
   2469   2474     1
   2469   2488     1
   2469   2489     1
   2470   2472     1
   2470   2487     1
   2470   2482     1
   2470   2483     1
   2471   2472     1
   2471   2487     1
   2471   2482     1
   2471   2483     1
   2472   2485     1
   2472   2486     1
   2473   2484     1
   2473   2476     1
   2473   2477     1
   2474   2484     1
   2474   2476     1
   2474   2477     1
   2476   2493     1
   2476   2485     1
   2476   2486     1
   2477   2493     1
   2477   2485     1
   2477   2486     1
   2479   4277     1
   2479   2491     1
   2479   2492     1
   2480   4277     1
   2480   2491     1
   2480   2492     1
   2482   4264     1
   2482   2488     1
   2482   2489     1
   2483   4264     1
   2483   2488     1
   2483   2489     1
   2487   4259     1
   2487   4260     1
   2488   4258     1
   2489   4258     1
   2490   4272     1
   2490   4273     1
   2491   4271     1
   2492   4271     1
   2494   2508     1
   2494   2509     1
   2494   2511     1
   2494   2512     1
   2494   2505     1
   2494   2506     1
   2495   2499     1
   2495   2500     1
   2495   2502     1
   2495   2503     1
   2495   2520     1
   2495   2521     1
   2496   2498     1
   2496   2501     1
   2496   2519     1
   2496   2508     1
   2496   2509     1
   2497   2498     1
   2497   2501     1
   2497   2519     1
   2497   2508     1
   2497   2509     1
   2498   2502     1
   2498   2503     1
   2498   2517     1
   2498   2518     1
   2499   2501     1
   2499   2516     1
   2499   2511     1
   2499   2512     1
   2500   2501     1
   2500   2516     1
   2500   2511     1
   2500   2512     1
   2501   2514     1
   2501   2515     1
   2502   2513     1
   2502   2505     1
   2502   2506     1
   2503   2513     1
   2503   2505     1
   2503   2506     1
   2505   2522     1
   2505   2514     1
   2505   2515     1
   2506   2522     1
   2506   2514     1
   2506   2515     1
   2508   4303     1
   2508   2520     1
   2508   2521     1
   2509   4303     1
   2509   2520     1
   2509   2521     1
   2511   4290     1
   2511   2517     1
   2511   2518     1
   2512   4290     1
   2512   2517     1
   2512   2518     1
   2516   4285     1
   2516   4286     1
   2517   4284     1
   2518   4284     1
   2519   4298     1
   2519   4299     1
   2520   4297     1
   2521   4297     1
   2523   2537     1
   2523   2538     1
   2523   2540     1
   2523   2541     1
   2523   2534     1
   2523   2535     1
   2524   2528     1
   2524   2529     1
   2524   2531     1
   2524   2532     1
   2524   2549     1
   2524   2550     1
   2525   2527     1
   2525   2530     1
   2525   2548     1
   2525   2537     1
   2525   2538     1
   2526   2527     1
   2526   2530     1
   2526   2548     1
   2526   2537     1
   2526   2538     1
   2527   2531     1
   2527   2532     1
   2527   2546     1
   2527   2547     1
   2528   2530     1
   2528   2545     1
   2528   2540     1
   2528   2541     1
   2529   2530     1
   2529   2545     1
   2529   2540     1
   2529   2541     1
   2530   2543     1
   2530   2544     1
   2531   2542     1
   2531   2534     1
   2531   2535     1
   2532   2542     1
   2532   2534     1
   2532   2535     1
   2534   2551     1
   2534   2543     1
   2534   2544     1
   2535   2551     1
   2535   2543     1
   2535   2544     1
   2537   4329     1
   2537   2549     1
   2537   2550     1
   2538   4329     1
   2538   2549     1
   2538   2550     1
   2540   4316     1
   2540   2546     1
   2540   2547     1
   2541   4316     1
   2541   2546     1
   2541   2547     1
   2545   4311     1
   2545   4312     1
   2546   4310     1
   2547   4310     1
   2548   4324     1
   2548   4325     1
   2549   4323     1
   2550   4323     1
   2552   2566     1
   2552   2567     1
   2552   2569     1
   2552   2570     1
   2552   2563     1
   2552   2564     1
   2553   2557     1
   2553   2558     1
   2553   2560     1
   2553   2561     1
   2553   2578     1
   2553   2579     1
   2554   2556     1
   2554   2559     1
   2554   2577     1
   2554   2566     1
   2554   2567     1
   2555   2556     1
   2555   2559     1
   2555   2577     1
   2555   2566     1
   2555   2567     1
   2556   2560     1
   2556   2561     1
   2556   2575     1
   2556   2576     1
   2557   2559     1
   2557   2574     1
   2557   2569     1
   2557   2570     1
   2558   2559     1
   2558   2574     1
   2558   2569     1
   2558   2570     1
   2559   2572     1
   2559   2573     1
   2560   2571     1
   2560   2563     1
   2560   2564     1
   2561   2571     1
   2561   2563     1
   2561   2564     1
   2563   2580     1
   2563   2572     1
   2563   2573     1
   2564   2580     1
   2564   2572     1
   2564   2573     1
   2566   4355     1
   2566   2578     1
   2566   2579     1
   2567   4355     1
   2567   2578     1
   2567   2579     1
   2569   4342     1
   2569   2575     1
   2569   2576     1
   2570   4342     1
   2570   2575     1
   2570   2576     1
   2574   4337     1
   2574   4338     1
   2575   4336     1
   2576   4336     1
   2577   4350     1
   2577   4351     1
   2578   4349     1
   2579   4349     1
   2581   2595     1
   2581   2596     1
   2581   2598     1
   2581   2599     1
   2581   2592     1
   2581   2593     1
   2582   2586     1
   2582   2587     1
   2582   2589     1
   2582   2590     1
   2582   2607     1
   2582   2608     1
   2583   2585     1
   2583   2588     1
   2583   2606     1
   2583   2595     1
   2583   2596     1
   2584   2585     1
   2584   2588     1
   2584   2606     1
   2584   2595     1
   2584   2596     1
   2585   2589     1
   2585   2590     1
   2585   2604     1
   2585   2605     1
   2586   2588     1
   2586   2603     1
   2586   2598     1
   2586   2599     1
   2587   2588     1
   2587   2603     1
   2587   2598     1
   2587   2599     1
   2588   2601     1
   2588   2602     1
   2589   2600     1
   2589   2592     1
   2589   2593     1
   2590   2600     1
   2590   2592     1
   2590   2593     1
   2592   2609     1
   2592   2601     1
   2592   2602     1
   2593   2609     1
   2593   2601     1
   2593   2602     1
   2595   4381     1
   2595   2607     1
   2595   2608     1
   2596   4381     1
   2596   2607     1
   2596   2608     1
   2598   4368     1
   2598   2604     1
   2598   2605     1
   2599   4368     1
   2599   2604     1
   2599   2605     1
   2603   4363     1
   2603   4364     1
   2604   4362     1
   2605   4362     1
   2606   4376     1
   2606   4377     1
   2607   4375     1
   2608   4375     1
   2610   2624     1
   2610   2625     1
   2610   2627     1
   2610   2628     1
   2610   2621     1
   2610   2622     1
   2611   2615     1
   2611   2616     1
   2611   2618     1
   2611   2619     1
   2611   2636     1
   2611   2637     1
   2612   2614     1
   2612   2617     1
   2612   2635     1
   2612   2624     1
   2612   2625     1
   2613   2614     1
   2613   2617     1
   2613   2635     1
   2613   2624     1
   2613   2625     1
   2614   2618     1
   2614   2619     1
   2614   2633     1
   2614   2634     1
   2615   2617     1
   2615   2632     1
   2615   2627     1
   2615   2628     1
   2616   2617     1
   2616   2632     1
   2616   2627     1
   2616   2628     1
   2617   2630     1
   2617   2631     1
   2618   2629     1
   2618   2621     1
   2618   2622     1
   2619   2629     1
   2619   2621     1
   2619   2622     1
   2621   2638     1
   2621   2630     1
   2621   2631     1
   2622   2638     1
   2622   2630     1
   2622   2631     1
   2624   4407     1
   2624   2636     1
   2624   2637     1
   2625   4407     1
   2625   2636     1
   2625   2637     1
   2627   4394     1
   2627   2633     1
   2627   2634     1
   2628   4394     1
   2628   2633     1
   2628   2634     1
   2632   4389     1
   2632   4390     1
   2633   4388     1
   2634   4388     1
   2635   4402     1
   2635   4403     1
   2636   4401     1
   2637   4401     1
   2639   2653     1
   2639   2654     1
   2639   2656     1
   2639   2657     1
   2639   2650     1
   2639   2651     1
   2640   2644     1
   2640   2645     1
   2640   2647     1
   2640   2648     1
   2640   2665     1
   2640   2666     1
   2641   2643     1
   2641   2646     1
   2641   2664     1
   2641   2653     1
   2641   2654     1
   2642   2643     1
   2642   2646     1
   2642   2664     1
   2642   2653     1
   2642   2654     1
   2643   2647     1
   2643   2648     1
   2643   2662     1
   2643   2663     1
   2644   2646     1
   2644   2661     1
   2644   2656     1
   2644   2657     1
   2645   2646     1
   2645   2661     1
   2645   2656     1
   2645   2657     1
   2646   2659     1
   2646   2660     1
   2647   2658     1
   2647   2650     1
   2647   2651     1
   2648   2658     1
   2648   2650     1
   2648   2651     1
   2650   2667     1
   2650   2659     1
   2650   2660     1
   2651   2667     1
   2651   2659     1
   2651   2660     1
   2653   4433     1
   2653   2665     1
   2653   2666     1
   2654   4433     1
   2654   2665     1
   2654   2666     1
   2656   4420     1
   2656   2662     1
   2656   2663     1
   2657   4420     1
   2657   2662     1
   2657   2663     1
   2661   4415     1
   2661   4416     1
   2662   4414     1
   2663   4414     1
   2664   4428     1
   2664   4429     1
   2665   4427     1
   2666   4427     1
   2668   2682     1
   2668   2683     1
   2668   2685     1
   2668   2686     1
   2668   2679     1
   2668   2680     1
   2669   2673     1
   2669   2674     1
   2669   2676     1
   2669   2677     1
   2669   2694     1
   2669   2695     1
   2670   2672     1
   2670   2675     1
   2670   2693     1
   2670   2682     1
   2670   2683     1
   2671   2672     1
   2671   2675     1
   2671   2693     1
   2671   2682     1
   2671   2683     1
   2672   2676     1
   2672   2677     1
   2672   2691     1
   2672   2692     1
   2673   2675     1
   2673   2690     1
   2673   2685     1
   2673   2686     1
   2674   2675     1
   2674   2690     1
   2674   2685     1
   2674   2686     1
   2675   2688     1
   2675   2689     1
   2676   2687     1
   2676   2679     1
   2676   2680     1
   2677   2687     1
   2677   2679     1
   2677   2680     1
   2679   2696     1
   2679   2688     1
   2679   2689     1
   2680   2696     1
   2680   2688     1
   2680   2689     1
   2682   4459     1
   2682   2694     1
   2682   2695     1
   2683   4459     1
   2683   2694     1
   2683   2695     1
   2685   4446     1
   2685   2691     1
   2685   2692     1
   2686   4446     1
   2686   2691     1
   2686   2692     1
   2690   4441     1
   2690   4442     1
   2691   4440     1
   2692   4440     1
   2693   4454     1
   2693   4455     1
   2694   4453     1
   2695   4453     1
   2697   2711     1
   2697   2712     1
   2697   2714     1
   2697   2715     1
   2697   2708     1
   2697   2709     1
   2698   2702     1
   2698   2703     1
   2698   2705     1
   2698   2706     1
   2698   2723     1
   2698   2724     1
   2699   2701     1
   2699   2704     1
   2699   2722     1
   2699   2711     1
   2699   2712     1
   2700   2701     1
   2700   2704     1
   2700   2722     1
   2700   2711     1
   2700   2712     1
   2701   2705     1
   2701   2706     1
   2701   2720     1
   2701   2721     1
   2702   2704     1
   2702   2719     1
   2702   2714     1
   2702   2715     1
   2703   2704     1
   2703   2719     1
   2703   2714     1
   2703   2715     1
   2704   2717     1
   2704   2718     1
   2705   2716     1
   2705   2708     1
   2705   2709     1
   2706   2716     1
   2706   2708     1
   2706   2709     1
   2708   2725     1
   2708   2717     1
   2708   2718     1
   2709   2725     1
   2709   2717     1
   2709   2718     1
   2711   4485     1
   2711   2723     1
   2711   2724     1
   2712   4485     1
   2712   2723     1
   2712   2724     1
   2714   4472     1
   2714   2720     1
   2714   2721     1
   2715   4472     1
   2715   2720     1
   2715   2721     1
   2719   4467     1
   2719   4468     1
   2720   4466     1
   2721   4466     1
   2722   4480     1
   2722   4481     1
   2723   4479     1
   2724   4479     1
   2726   2740     1
   2726   2741     1
   2726   2743     1
   2726   2744     1
   2726   2737     1
   2726   2738     1
   2727   2731     1
   2727   2732     1
   2727   2734     1
   2727   2735     1
   2727   2752     1
   2727   2753     1
   2728   2730     1
   2728   2733     1
   2728   2751     1
   2728   2740     1
   2728   2741     1
   2729   2730     1
   2729   2733     1
   2729   2751     1
   2729   2740     1
   2729   2741     1
   2730   2734     1
   2730   2735     1
   2730   2749     1
   2730   2750     1
   2731   2733     1
   2731   2748     1
   2731   2743     1
   2731   2744     1
   2732   2733     1
   2732   2748     1
   2732   2743     1
   2732   2744     1
   2733   2746     1
   2733   2747     1
   2734   2745     1
   2734   2737     1
   2734   2738     1
   2735   2745     1
   2735   2737     1
   2735   2738     1
   2737   2754     1
   2737   2746     1
   2737   2747     1
   2738   2754     1
   2738   2746     1
   2738   2747     1
   2740   4511     1
   2740   2752     1
   2740   2753     1
   2741   4511     1
   2741   2752     1
   2741   2753     1
   2743   4498     1
   2743   2749     1
   2743   2750     1
   2744   4498     1
   2744   2749     1
   2744   2750     1
   2748   4493     1
   2748   4494     1
   2749   4492     1
   2750   4492     1
   2751   4506     1
   2751   4507     1
   2752   4505     1
   2753   4505     1
   2755   2769     1
   2755   2770     1
   2755   2772     1
   2755   2773     1
   2755   2766     1
   2755   2767     1
   2756   2760     1
   2756   2761     1
   2756   2763     1
   2756   2764     1
   2756   2781     1
   2756   2782     1
   2757   2759     1
   2757   2762     1
   2757   2780     1
   2757   2769     1
   2757   2770     1
   2758   2759     1
   2758   2762     1
   2758   2780     1
   2758   2769     1
   2758   2770     1
   2759   2763     1
   2759   2764     1
   2759   2778     1
   2759   2779     1
   2760   2762     1
   2760   2777     1
   2760   2772     1
   2760   2773     1
   2761   2762     1
   2761   2777     1
   2761   2772     1
   2761   2773     1
   2762   2775     1
   2762   2776     1
   2763   2774     1
   2763   2766     1
   2763   2767     1
   2764   2774     1
   2764   2766     1
   2764   2767     1
   2766   2783     1
   2766   2775     1
   2766   2776     1
   2767   2783     1
   2767   2775     1
   2767   2776     1
   2769   4537     1
   2769   2781     1
   2769   2782     1
   2770   4537     1
   2770   2781     1
   2770   2782     1
   2772   4524     1
   2772   2778     1
   2772   2779     1
   2773   4524     1
   2773   2778     1
   2773   2779     1
   2777   4519     1
   2777   4520     1
   2778   4518     1
   2779   4518     1
   2780   4532     1
   2780   4533     1
   2781   4531     1
   2782   4531     1
   2784   2798     1
   2784   2799     1
   2784   2801     1
   2784   2802     1
   2784   2795     1
   2784   2796     1
   2785   2789     1
   2785   2790     1
   2785   2792     1
   2785   2793     1
   2785   2810     1
   2785   2811     1
   2786   2788     1
   2786   2791     1
   2786   2809     1
   2786   2798     1
   2786   2799     1
   2787   2788     1
   2787   2791     1
   2787   2809     1
   2787   2798     1
   2787   2799     1
   2788   2792     1
   2788   2793     1
   2788   2807     1
   2788   2808     1
   2789   2791     1
   2789   2806     1
   2789   2801     1
   2789   2802     1
   2790   2791     1
   2790   2806     1
   2790   2801     1
   2790   2802     1
   2791   2804     1
   2791   2805     1
   2792   2803     1
   2792   2795     1
   2792   2796     1
   2793   2803     1
   2793   2795     1
   2793   2796     1
   2795   2812     1
   2795   2804     1
   2795   2805     1
   2796   2812     1
   2796   2804     1
   2796   2805     1
   2798   4563     1
   2798   2810     1
   2798   2811     1
   2799   4563     1
   2799   2810     1
   2799   2811     1
   2801   4550     1
   2801   2807     1
   2801   2808     1
   2802   4550     1
   2802   2807     1
   2802   2808     1
   2806   4545     1
   2806   4546     1
   2807   4544     1
   2808   4544     1
   2809   4558     1
   2809   4559     1
   2810   4557     1
   2811   4557     1
   2813   2827     1
   2813   2828     1
   2813   2830     1
   2813   2831     1
   2813   2824     1
   2813   2825     1
   2814   2818     1
   2814   2819     1
   2814   2821     1
   2814   2822     1
   2814   2839     1
   2814   2840     1
   2815   2817     1
   2815   2820     1
   2815   2838     1
   2815   2827     1
   2815   2828     1
   2816   2817     1
   2816   2820     1
   2816   2838     1
   2816   2827     1
   2816   2828     1
   2817   2821     1
   2817   2822     1
   2817   2836     1
   2817   2837     1
   2818   2820     1
   2818   2835     1
   2818   2830     1
   2818   2831     1
   2819   2820     1
   2819   2835     1
   2819   2830     1
   2819   2831     1
   2820   2833     1
   2820   2834     1
   2821   2832     1
   2821   2824     1
   2821   2825     1
   2822   2832     1
   2822   2824     1
   2822   2825     1
   2824   2841     1
   2824   2833     1
   2824   2834     1
   2825   2841     1
   2825   2833     1
   2825   2834     1
   2827   4589     1
   2827   2839     1
   2827   2840     1
   2828   4589     1
   2828   2839     1
   2828   2840     1
   2830   4576     1
   2830   2836     1
   2830   2837     1
   2831   4576     1
   2831   2836     1
   2831   2837     1
   2835   4571     1
   2835   4572     1
   2836   4570     1
   2837   4570     1
   2838   4584     1
   2838   4585     1
   2839   4583     1
   2840   4583     1
   2842   2856     1
   2842   2857     1
   2842   2859     1
   2842   2860     1
   2842   2853     1
   2842   2854     1
   2843   2847     1
   2843   2848     1
   2843   2850     1
   2843   2851     1
   2843   2868     1
   2843   2869     1
   2844   2846     1
   2844   2849     1
   2844   2867     1
   2844   2856     1
   2844   2857     1
   2845   2846     1
   2845   2849     1
   2845   2867     1
   2845   2856     1
   2845   2857     1
   2846   2850     1
   2846   2851     1
   2846   2865     1
   2846   2866     1
   2847   2849     1
   2847   2864     1
   2847   2859     1
   2847   2860     1
   2848   2849     1
   2848   2864     1
   2848   2859     1
   2848   2860     1
   2849   2862     1
   2849   2863     1
   2850   2861     1
   2850   2853     1
   2850   2854     1
   2851   2861     1
   2851   2853     1
   2851   2854     1
   2853   2870     1
   2853   2862     1
   2853   2863     1
   2854   2870     1
   2854   2862     1
   2854   2863     1
   2856   4615     1
   2856   2868     1
   2856   2869     1
   2857   4615     1
   2857   2868     1
   2857   2869     1
   2859   4602     1
   2859   2865     1
   2859   2866     1
   2860   4602     1
   2860   2865     1
   2860   2866     1
   2864   4597     1
   2864   4598     1
   2865   4596     1
   2866   4596     1
   2867   4610     1
   2867   4611     1
   2868   4609     1
   2869   4609     1
   2871   2885     1
   2871   2886     1
   2871   2888     1
   2871   2889     1
   2871   2882     1
   2871   2883     1
   2872   2876     1
   2872   2877     1
   2872   2879     1
   2872   2880     1
   2872   2897     1
   2872   2898     1
   2873   2875     1
   2873   2878     1
   2873   2896     1
   2873   2885     1
   2873   2886     1
   2874   2875     1
   2874   2878     1
   2874   2896     1
   2874   2885     1
   2874   2886     1
   2875   2879     1
   2875   2880     1
   2875   2894     1
   2875   2895     1
   2876   2878     1
   2876   2893     1
   2876   2888     1
   2876   2889     1
   2877   2878     1
   2877   2893     1
   2877   2888     1
   2877   2889     1
   2878   2891     1
   2878   2892     1
   2879   2890     1
   2879   2882     1
   2879   2883     1
   2880   2890     1
   2880   2882     1
   2880   2883     1
   2882   2899     1
   2882   2891     1
   2882   2892     1
   2883   2899     1
   2883   2891     1
   2883   2892     1
   2885   4641     1
   2885   2897     1
   2885   2898     1
   2886   4641     1
   2886   2897     1
   2886   2898     1
   2888   4628     1
   2888   2894     1
   2888   2895     1
   2889   4628     1
   2889   2894     1
   2889   2895     1
   2893   4623     1
   2893   4624     1
   2894   4622     1
   2895   4622     1
   2896   4636     1
   2896   4637     1
   2897   4635     1
   2898   4635     1
   2900   2914     1
   2900   2915     1
   2900   2917     1
   2900   2918     1
   2900   2911     1
   2900   2912     1
   2901   2905     1
   2901   2906     1
   2901   2908     1
   2901   2909     1
   2901   2926     1
   2901   2927     1
   2902   2904     1
   2902   2907     1
   2902   2925     1
   2902   2914     1
   2902   2915     1
   2903   2904     1
   2903   2907     1
   2903   2925     1
   2903   2914     1
   2903   2915     1
   2904   2908     1
   2904   2909     1
   2904   2923     1
   2904   2924     1
   2905   2907     1
   2905   2922     1
   2905   2917     1
   2905   2918     1
   2906   2907     1
   2906   2922     1
   2906   2917     1
   2906   2918     1
   2907   2920     1
   2907   2921     1
   2908   2919     1
   2908   2911     1
   2908   2912     1
   2909   2919     1
   2909   2911     1
   2909   2912     1
   2911   2928     1
   2911   2920     1
   2911   2921     1
   2912   2928     1
   2912   2920     1
   2912   2921     1
   2914   4667     1
   2914   2926     1
   2914   2927     1
   2915   4667     1
   2915   2926     1
   2915   2927     1
   2917   4654     1
   2917   2923     1
   2917   2924     1
   2918   4654     1
   2918   2923     1
   2918   2924     1
   2922   4649     1
   2922   4650     1
   2923   4648     1
   2924   4648     1
   2925   4662     1
   2925   4663     1
   2926   4661     1
   2927   4661     1
   2929   2943     1
   2929   2944     1
   2929   2946     1
   2929   2947     1
   2929   2940     1
   2929   2941     1
   2930   2934     1
   2930   2935     1
   2930   2937     1
   2930   2938     1
   2930   2955     1
   2930   2956     1
   2931   2933     1
   2931   2936     1
   2931   2954     1
   2931   2943     1
   2931   2944     1
   2932   2933     1
   2932   2936     1
   2932   2954     1
   2932   2943     1
   2932   2944     1
   2933   2937     1
   2933   2938     1
   2933   2952     1
   2933   2953     1
   2934   2936     1
   2934   2951     1
   2934   2946     1
   2934   2947     1
   2935   2936     1
   2935   2951     1
   2935   2946     1
   2935   2947     1
   2936   2949     1
   2936   2950     1
   2937   2948     1
   2937   2940     1
   2937   2941     1
   2938   2948     1
   2938   2940     1
   2938   2941     1
   2940   2957     1
   2940   2949     1
   2940   2950     1
   2941   2957     1
   2941   2949     1
   2941   2950     1
   2943   4693     1
   2943   2955     1
   2943   2956     1
   2944   4693     1
   2944   2955     1
   2944   2956     1
   2946   4680     1
   2946   2952     1
   2946   2953     1
   2947   4680     1
   2947   2952     1
   2947   2953     1
   2951   4675     1
   2951   4676     1
   2952   4674     1
   2953   4674     1
   2954   4688     1
   2954   4689     1
   2955   4687     1
   2956   4687     1
   2958   2972     1
   2958   2973     1
   2958   2975     1
   2958   2976     1
   2958   2969     1
   2958   2970     1
   2959   2963     1
   2959   2964     1
   2959   2966     1
   2959   2967     1
   2959   2984     1
   2959   2985     1
   2960   2962     1
   2960   2965     1
   2960   2983     1
   2960   2972     1
   2960   2973     1
   2961   2962     1
   2961   2965     1
   2961   2983     1
   2961   2972     1
   2961   2973     1
   2962   2966     1
   2962   2967     1
   2962   2981     1
   2962   2982     1
   2963   2965     1
   2963   2980     1
   2963   2975     1
   2963   2976     1
   2964   2965     1
   2964   2980     1
   2964   2975     1
   2964   2976     1
   2965   2978     1
   2965   2979     1
   2966   2977     1
   2966   2969     1
   2966   2970     1
   2967   2977     1
   2967   2969     1
   2967   2970     1
   2969   2986     1
   2969   2978     1
   2969   2979     1
   2970   2986     1
   2970   2978     1
   2970   2979     1
   2972   4719     1
   2972   2984     1
   2972   2985     1
   2973   4719     1
   2973   2984     1
   2973   2985     1
   2975   4706     1
   2975   2981     1
   2975   2982     1
   2976   4706     1
   2976   2981     1
   2976   2982     1
   2980   4701     1
   2980   4702     1
   2981   4700     1
   2982   4700     1
   2983   4714     1
   2983   4715     1
   2984   4713     1
   2985   4713     1
   2987   3001     1
   2987   3002     1
   2987   3004     1
   2987   3005     1
   2987   2998     1
   2987   2999     1
   2988   2992     1
   2988   2993     1
   2988   2995     1
   2988   2996     1
   2988   3013     1
   2988   3014     1
   2989   2991     1
   2989   2994     1
   2989   3012     1
   2989   3001     1
   2989   3002     1
   2990   2991     1
   2990   2994     1
   2990   3012     1
   2990   3001     1
   2990   3002     1
   2991   2995     1
   2991   2996     1
   2991   3010     1
   2991   3011     1
   2992   2994     1
   2992   3009     1
   2992   3004     1
   2992   3005     1
   2993   2994     1
   2993   3009     1
   2993   3004     1
   2993   3005     1
   2994   3007     1
   2994   3008     1
   2995   3006     1
   2995   2998     1
   2995   2999     1
   2996   3006     1
   2996   2998     1
   2996   2999     1
   2998   3015     1
   2998   3007     1
   2998   3008     1
   2999   3015     1
   2999   3007     1
   2999   3008     1
   3001   4745     1
   3001   3013     1
   3001   3014     1
   3002   4745     1
   3002   3013     1
   3002   3014     1
   3004   4732     1
   3004   3010     1
   3004   3011     1
   3005   4732     1
   3005   3010     1
   3005   3011     1
   3009   4727     1
   3009   4728     1
   3010   4726     1
   3011   4726     1
   3012   4740     1
   3012   4741     1
   3013   4739     1
   3014   4739     1
   3016   3030     1
   3016   3031     1
   3016   3033     1
   3016   3034     1
   3016   3027     1
   3016   3028     1
   3017   3021     1
   3017   3022     1
   3017   3024     1
   3017   3025     1
   3017   3042     1
   3017   3043     1
   3018   3020     1
   3018   3023     1
   3018   3041     1
   3018   3030     1
   3018   3031     1
   3019   3020     1
   3019   3023     1
   3019   3041     1
   3019   3030     1
   3019   3031     1
   3020   3024     1
   3020   3025     1
   3020   3039     1
   3020   3040     1
   3021   3023     1
   3021   3038     1
   3021   3033     1
   3021   3034     1
   3022   3023     1
   3022   3038     1
   3022   3033     1
   3022   3034     1
   3023   3036     1
   3023   3037     1
   3024   3035     1
   3024   3027     1
   3024   3028     1
   3025   3035     1
   3025   3027     1
   3025   3028     1
   3027   3044     1
   3027   3036     1
   3027   3037     1
   3028   3044     1
   3028   3036     1
   3028   3037     1
   3030   4771     1
   3030   3042     1
   3030   3043     1
   3031   4771     1
   3031   3042     1
   3031   3043     1
   3033   4758     1
   3033   3039     1
   3033   3040     1
   3034   4758     1
   3034   3039     1
   3034   3040     1
   3038   4753     1
   3038   4754     1
   3039   4752     1
   3040   4752     1
   3041   4766     1
   3041   4767     1
   3042   4765     1
   3043   4765     1
   3045   3059     1
   3045   3060     1
   3045   3062     1
   3045   3063     1
   3045   3056     1
   3045   3057     1
   3046   3050     1
   3046   3051     1
   3046   3053     1
   3046   3054     1
   3046   3071     1
   3046   3072     1
   3047   3049     1
   3047   3052     1
   3047   3070     1
   3047   3059     1
   3047   3060     1
   3048   3049     1
   3048   3052     1
   3048   3070     1
   3048   3059     1
   3048   3060     1
   3049   3053     1
   3049   3054     1
   3049   3068     1
   3049   3069     1
   3050   3052     1
   3050   3067     1
   3050   3062     1
   3050   3063     1
   3051   3052     1
   3051   3067     1
   3051   3062     1
   3051   3063     1
   3052   3065     1
   3052   3066     1
   3053   3064     1
   3053   3056     1
   3053   3057     1
   3054   3064     1
   3054   3056     1
   3054   3057     1
   3056   3073     1
   3056   3065     1
   3056   3066     1
   3057   3073     1
   3057   3065     1
   3057   3066     1
   3059   4797     1
   3059   3071     1
   3059   3072     1
   3060   4797     1
   3060   3071     1
   3060   3072     1
   3062   4784     1
   3062   3068     1
   3062   3069     1
   3063   4784     1
   3063   3068     1
   3063   3069     1
   3067   4779     1
   3067   4780     1
   3068   4778     1
   3069   4778     1
   3070   4792     1
   3070   4793     1
   3071   4791     1
   3072   4791     1
   3074   3088     1
   3074   3089     1
   3074   3091     1
   3074   3092     1
   3074   3085     1
   3074   3086     1
   3075   3079     1
   3075   3080     1
   3075   3082     1
   3075   3083     1
   3075   3100     1
   3075   3101     1
   3076   3078     1
   3076   3081     1
   3076   3099     1
   3076   3088     1
   3076   3089     1
   3077   3078     1
   3077   3081     1
   3077   3099     1
   3077   3088     1
   3077   3089     1
   3078   3082     1
   3078   3083     1
   3078   3097     1
   3078   3098     1
   3079   3081     1
   3079   3096     1
   3079   3091     1
   3079   3092     1
   3080   3081     1
   3080   3096     1
   3080   3091     1
   3080   3092     1
   3081   3094     1
   3081   3095     1
   3082   3093     1
   3082   3085     1
   3082   3086     1
   3083   3093     1
   3083   3085     1
   3083   3086     1
   3085   3102     1
   3085   3094     1
   3085   3095     1
   3086   3102     1
   3086   3094     1
   3086   3095     1
   3088   4823     1
   3088   3100     1
   3088   3101     1
   3089   4823     1
   3089   3100     1
   3089   3101     1
   3091   4810     1
   3091   3097     1
   3091   3098     1
   3092   4810     1
   3092   3097     1
   3092   3098     1
   3096   4805     1
   3096   4806     1
   3097   4804     1
   3098   4804     1
   3099   4818     1
   3099   4819     1
   3100   4817     1
   3101   4817     1
   3103   3117     1
   3103   3118     1
   3103   3120     1
   3103   3121     1
   3103   3114     1
   3103   3115     1
   3104   3108     1
   3104   3109     1
   3104   3111     1
   3104   3112     1
   3104   3129     1
   3104   3130     1
   3105   3107     1
   3105   3110     1
   3105   3128     1
   3105   3117     1
   3105   3118     1
   3106   3107     1
   3106   3110     1
   3106   3128     1
   3106   3117     1
   3106   3118     1
   3107   3111     1
   3107   3112     1
   3107   3126     1
   3107   3127     1
   3108   3110     1
   3108   3125     1
   3108   3120     1
   3108   3121     1
   3109   3110     1
   3109   3125     1
   3109   3120     1
   3109   3121     1
   3110   3123     1
   3110   3124     1
   3111   3122     1
   3111   3114     1
   3111   3115     1
   3112   3122     1
   3112   3114     1
   3112   3115     1
   3114   3131     1
   3114   3123     1
   3114   3124     1
   3115   3131     1
   3115   3123     1
   3115   3124     1
   3117   4849     1
   3117   3129     1
   3117   3130     1
   3118   4849     1
   3118   3129     1
   3118   3130     1
   3120   4836     1
   3120   3126     1
   3120   3127     1
   3121   4836     1
   3121   3126     1
   3121   3127     1
   3125   4831     1
   3125   4832     1
   3126   4830     1
   3127   4830     1
   3128   4844     1
   3128   4845     1
   3129   4843     1
   3130   4843     1
   3132   3146     1
   3132   3147     1
   3132   3149     1
   3132   3150     1
   3132   3143     1
   3132   3144     1
   3133   3137     1
   3133   3138     1
   3133   3140     1
   3133   3141     1
   3133   3158     1
   3133   3159     1
   3134   3136     1
   3134   3139     1
   3134   3157     1
   3134   3146     1
   3134   3147     1
   3135   3136     1
   3135   3139     1
   3135   3157     1
   3135   3146     1
   3135   3147     1
   3136   3140     1
   3136   3141     1
   3136   3155     1
   3136   3156     1
   3137   3139     1
   3137   3154     1
   3137   3149     1
   3137   3150     1
   3138   3139     1
   3138   3154     1
   3138   3149     1
   3138   3150     1
   3139   3152     1
   3139   3153     1
   3140   3151     1
   3140   3143     1
   3140   3144     1
   3141   3151     1
   3141   3143     1
   3141   3144     1
   3143   3160     1
   3143   3152     1
   3143   3153     1
   3144   3160     1
   3144   3152     1
   3144   3153     1
   3146   4875     1
   3146   3158     1
   3146   3159     1
   3147   4875     1
   3147   3158     1
   3147   3159     1
   3149   4862     1
   3149   3155     1
   3149   3156     1
   3150   4862     1
   3150   3155     1
   3150   3156     1
   3154   4857     1
   3154   4858     1
   3155   4856     1
   3156   4856     1
   3157   4870     1
   3157   4871     1
   3158   4869     1
   3159   4869     1
   3161   3175     1
   3161   3176     1
   3161   3178     1
   3161   3179     1
   3161   3172     1
   3161   3173     1
   3162   3166     1
   3162   3167     1
   3162   3169     1
   3162   3170     1
   3162   3187     1
   3162   3188     1
   3163   3165     1
   3163   3168     1
   3163   3186     1
   3163   3175     1
   3163   3176     1
   3164   3165     1
   3164   3168     1
   3164   3186     1
   3164   3175     1
   3164   3176     1
   3165   3169     1
   3165   3170     1
   3165   3184     1
   3165   3185     1
   3166   3168     1
   3166   3183     1
   3166   3178     1
   3166   3179     1
   3167   3168     1
   3167   3183     1
   3167   3178     1
   3167   3179     1
   3168   3181     1
   3168   3182     1
   3169   3180     1
   3169   3172     1
   3169   3173     1
   3170   3180     1
   3170   3172     1
   3170   3173     1
   3172   3189     1
   3172   3181     1
   3172   3182     1
   3173   3189     1
   3173   3181     1
   3173   3182     1
   3175   4901     1
   3175   3187     1
   3175   3188     1
   3176   4901     1
   3176   3187     1
   3176   3188     1
   3178   4888     1
   3178   3184     1
   3178   3185     1
   3179   4888     1
   3179   3184     1
   3179   3185     1
   3183   4883     1
   3183   4884     1
   3184   4882     1
   3185   4882     1
   3186   4896     1
   3186   4897     1
   3187   4895     1
   3188   4895     1
   3190   3204     1
   3190   3205     1
   3190   3207     1
   3190   3208     1
   3190   3201     1
   3190   3202     1
   3191   3195     1
   3191   3196     1
   3191   3198     1
   3191   3199     1
   3191   3216     1
   3191   3217     1
   3192   3194     1
   3192   3197     1
   3192   3215     1
   3192   3204     1
   3192   3205     1
   3193   3194     1
   3193   3197     1
   3193   3215     1
   3193   3204     1
   3193   3205     1
   3194   3198     1
   3194   3199     1
   3194   3213     1
   3194   3214     1
   3195   3197     1
   3195   3212     1
   3195   3207     1
   3195   3208     1
   3196   3197     1
   3196   3212     1
   3196   3207     1
   3196   3208     1
   3197   3210     1
   3197   3211     1
   3198   3209     1
   3198   3201     1
   3198   3202     1
   3199   3209     1
   3199   3201     1
   3199   3202     1
   3201   3218     1
   3201   3210     1
   3201   3211     1
   3202   3218     1
   3202   3210     1
   3202   3211     1
   3204   4927     1
   3204   3216     1
   3204   3217     1
   3205   4927     1
   3205   3216     1
   3205   3217     1
   3207   4914     1
   3207   3213     1
   3207   3214     1
   3208   4914     1
   3208   3213     1
   3208   3214     1
   3212   4909     1
   3212   4910     1
   3213   4908     1
   3214   4908     1
   3215   4922     1
   3215   4923     1
   3216   4921     1
   3217   4921     1
   3219   3233     1
   3219   3234     1
   3219   3236     1
   3219   3237     1
   3219   3230     1
   3219   3231     1
   3220   3224     1
   3220   3225     1
   3220   3227     1
   3220   3228     1
   3220   3245     1
   3220   3246     1
   3221   3223     1
   3221   3226     1
   3221   3244     1
   3221   3233     1
   3221   3234     1
   3222   3223     1
   3222   3226     1
   3222   3244     1
   3222   3233     1
   3222   3234     1
   3223   3227     1
   3223   3228     1
   3223   3242     1
   3223   3243     1
   3224   3226     1
   3224   3241     1
   3224   3236     1
   3224   3237     1
   3225   3226     1
   3225   3241     1
   3225   3236     1
   3225   3237     1
   3226   3239     1
   3226   3240     1
   3227   3238     1
   3227   3230     1
   3227   3231     1
   3228   3238     1
   3228   3230     1
   3228   3231     1
   3230   3247     1
   3230   3239     1
   3230   3240     1
   3231   3247     1
   3231   3239     1
   3231   3240     1
   3233   4953     1
   3233   3245     1
   3233   3246     1
   3234   4953     1
   3234   3245     1
   3234   3246     1
   3236   4940     1
   3236   3242     1
   3236   3243     1
   3237   4940     1
   3237   3242     1
   3237   3243     1
   3241   4935     1
   3241   4936     1
   3242   4934     1
   3243   4934     1
   3244   4948     1
   3244   4949     1
   3245   4947     1
   3246   4947     1
   3248   3262     1
   3248   3263     1
   3248   3265     1
   3248   3266     1
   3248   3259     1
   3248   3260     1
   3249   3253     1
   3249   3254     1
   3249   3256     1
   3249   3257     1
   3249   3274     1
   3249   3275     1
   3250   3252     1
   3250   3255     1
   3250   3273     1
   3250   3262     1
   3250   3263     1
   3251   3252     1
   3251   3255     1
   3251   3273     1
   3251   3262     1
   3251   3263     1
   3252   3256     1
   3252   3257     1
   3252   3271     1
   3252   3272     1
   3253   3255     1
   3253   3270     1
   3253   3265     1
   3253   3266     1
   3254   3255     1
   3254   3270     1
   3254   3265     1
   3254   3266     1
   3255   3268     1
   3255   3269     1
   3256   3267     1
   3256   3259     1
   3256   3260     1
   3257   3267     1
   3257   3259     1
   3257   3260     1
   3259   3276     1
   3259   3268     1
   3259   3269     1
   3260   3276     1
   3260   3268     1
   3260   3269     1
   3262   4979     1
   3262   3274     1
   3262   3275     1
   3263   4979     1
   3263   3274     1
   3263   3275     1
   3265   4966     1
   3265   3271     1
   3265   3272     1
   3266   4966     1
   3266   3271     1
   3266   3272     1
   3270   4961     1
   3270   4962     1
   3271   4960     1
   3272   4960     1
   3273   4974     1
   3273   4975     1
   3274   4973     1
   3275   4973     1
   3277   3291     1
   3277   3292     1
   3277   3294     1
   3277   3295     1
   3277   3288     1
   3277   3289     1
   3278   3282     1
   3278   3283     1
   3278   3285     1
   3278   3286     1
   3278   3303     1
   3278   3304     1
   3279   3281     1
   3279   3284     1
   3279   3302     1
   3279   3291     1
   3279   3292     1
   3280   3281     1
   3280   3284     1
   3280   3302     1
   3280   3291     1
   3280   3292     1
   3281   3285     1
   3281   3286     1
   3281   3300     1
   3281   3301     1
   3282   3284     1
   3282   3299     1
   3282   3294     1
   3282   3295     1
   3283   3284     1
   3283   3299     1
   3283   3294     1
   3283   3295     1
   3284   3297     1
   3284   3298     1
   3285   3296     1
   3285   3288     1
   3285   3289     1
   3286   3296     1
   3286   3288     1
   3286   3289     1
   3288   3305     1
   3288   3297     1
   3288   3298     1
   3289   3305     1
   3289   3297     1
   3289   3298     1
   3291   5005     1
   3291   3303     1
   3291   3304     1
   3292   5005     1
   3292   3303     1
   3292   3304     1
   3294   4992     1
   3294   3300     1
   3294   3301     1
   3295   4992     1
   3295   3300     1
   3295   3301     1
   3299   4987     1
   3299   4988     1
   3300   4986     1
   3301   4986     1
   3302   5000     1
   3302   5001     1
   3303   4999     1
   3304   4999     1
   3306   3320     1
   3306   3321     1
   3306   3323     1
   3306   3324     1
   3306   3317     1
   3306   3318     1
   3307   3311     1
   3307   3312     1
   3307   3314     1
   3307   3315     1
   3307   3332     1
   3307   3333     1
   3308   3310     1
   3308   3313     1
   3308   3331     1
   3308   3320     1
   3308   3321     1
   3309   3310     1
   3309   3313     1
   3309   3331     1
   3309   3320     1
   3309   3321     1
   3310   3314     1
   3310   3315     1
   3310   3329     1
   3310   3330     1
   3311   3313     1
   3311   3328     1
   3311   3323     1
   3311   3324     1
   3312   3313     1
   3312   3328     1
   3312   3323     1
   3312   3324     1
   3313   3326     1
   3313   3327     1
   3314   3325     1
   3314   3317     1
   3314   3318     1
   3315   3325     1
   3315   3317     1
   3315   3318     1
   3317   3334     1
   3317   3326     1
   3317   3327     1
   3318   3334     1
   3318   3326     1
   3318   3327     1
   3320   5031     1
   3320   3332     1
   3320   3333     1
   3321   5031     1
   3321   3332     1
   3321   3333     1
   3323   5018     1
   3323   3329     1
   3323   3330     1
   3324   5018     1
   3324   3329     1
   3324   3330     1
   3328   5013     1
   3328   5014     1
   3329   5012     1
   3330   5012     1
   3331   5026     1
   3331   5027     1
   3332   5025     1
   3333   5025     1
   3335   3349     1
   3335   3350     1
   3335   3352     1
   3335   3353     1
   3335   3346     1
   3335   3347     1
   3336   3340     1
   3336   3341     1
   3336   3343     1
   3336   3344     1
   3336   3361     1
   3336   3362     1
   3337   3339     1
   3337   3342     1
   3337   3360     1
   3337   3349     1
   3337   3350     1
   3338   3339     1
   3338   3342     1
   3338   3360     1
   3338   3349     1
   3338   3350     1
   3339   3343     1
   3339   3344     1
   3339   3358     1
   3339   3359     1
   3340   3342     1
   3340   3357     1
   3340   3352     1
   3340   3353     1
   3341   3342     1
   3341   3357     1
   3341   3352     1
   3341   3353     1
   3342   3355     1
   3342   3356     1
   3343   3354     1
   3343   3346     1
   3343   3347     1
   3344   3354     1
   3344   3346     1
   3344   3347     1
   3346   3363     1
   3346   3355     1
   3346   3356     1
   3347   3363     1
   3347   3355     1
   3347   3356     1
   3349   5057     1
   3349   3361     1
   3349   3362     1
   3350   5057     1
   3350   3361     1
   3350   3362     1
   3352   5044     1
   3352   3358     1
   3352   3359     1
   3353   5044     1
   3353   3358     1
   3353   3359     1
   3357   5039     1
   3357   5040     1
   3358   5038     1
   3359   5038     1
   3360   5052     1
   3360   5053     1
   3361   5051     1
   3362   5051     1
   3364   3378     1
   3364   3379     1
   3364   3381     1
   3364   3382     1
   3364   3375     1
   3364   3376     1
   3365   3369     1
   3365   3370     1
   3365   3372     1
   3365   3373     1
   3365   3390     1
   3365   3391     1
   3366   3368     1
   3366   3371     1
   3366   3389     1
   3366   3378     1
   3366   3379     1
   3367   3368     1
   3367   3371     1
   3367   3389     1
   3367   3378     1
   3367   3379     1
   3368   3372     1
   3368   3373     1
   3368   3387     1
   3368   3388     1
   3369   3371     1
   3369   3386     1
   3369   3381     1
   3369   3382     1
   3370   3371     1
   3370   3386     1
   3370   3381     1
   3370   3382     1
   3371   3384     1
   3371   3385     1
   3372   3383     1
   3372   3375     1
   3372   3376     1
   3373   3383     1
   3373   3375     1
   3373   3376     1
   3375   3392     1
   3375   3384     1
   3375   3385     1
   3376   3392     1
   3376   3384     1
   3376   3385     1
   3378   5083     1
   3378   3390     1
   3378   3391     1
   3379   5083     1
   3379   3390     1
   3379   3391     1
   3381   5070     1
   3381   3387     1
   3381   3388     1
   3382   5070     1
   3382   3387     1
   3382   3388     1
   3386   5065     1
   3386   5066     1
   3387   5064     1
   3388   5064     1
   3389   5078     1
   3389   5079     1
   3390   5077     1
   3391   5077     1
   3393   3407     1
   3393   3408     1
   3393   3410     1
   3393   3411     1
   3393   3404     1
   3393   3405     1
   3394   3398     1
   3394   3399     1
   3394   3401     1
   3394   3402     1
   3394   3419     1
   3394   3420     1
   3395   3397     1
   3395   3400     1
   3395   3418     1
   3395   3407     1
   3395   3408     1
   3396   3397     1
   3396   3400     1
   3396   3418     1
   3396   3407     1
   3396   3408     1
   3397   3401     1
   3397   3402     1
   3397   3416     1
   3397   3417     1
   3398   3400     1
   3398   3415     1
   3398   3410     1
   3398   3411     1
   3399   3400     1
   3399   3415     1
   3399   3410     1
   3399   3411     1
   3400   3413     1
   3400   3414     1
   3401   3412     1
   3401   3404     1
   3401   3405     1
   3402   3412     1
   3402   3404     1
   3402   3405     1
   3404   3421     1
   3404   3413     1
   3404   3414     1
   3405   3421     1
   3405   3413     1
   3405   3414     1
   3407   5109     1
   3407   3419     1
   3407   3420     1
   3408   5109     1
   3408   3419     1
   3408   3420     1
   3410   5096     1
   3410   3416     1
   3410   3417     1
   3411   5096     1
   3411   3416     1
   3411   3417     1
   3415   5091     1
   3415   5092     1
   3416   5090     1
   3417   5090     1
   3418   5104     1
   3418   5105     1
   3419   5103     1
   3420   5103     1
   3422   3436     1
   3422   3437     1
   3422   3439     1
   3422   3440     1
   3422   3433     1
   3422   3434     1
   3423   3427     1
   3423   3428     1
   3423   3430     1
   3423   3431     1
   3423   3448     1
   3423   3449     1
   3424   3426     1
   3424   3429     1
   3424   3447     1
   3424   3436     1
   3424   3437     1
   3425   3426     1
   3425   3429     1
   3425   3447     1
   3425   3436     1
   3425   3437     1
   3426   3430     1
   3426   3431     1
   3426   3445     1
   3426   3446     1
   3427   3429     1
   3427   3444     1
   3427   3439     1
   3427   3440     1
   3428   3429     1
   3428   3444     1
   3428   3439     1
   3428   3440     1
   3429   3442     1
   3429   3443     1
   3430   3441     1
   3430   3433     1
   3430   3434     1
   3431   3441     1
   3431   3433     1
   3431   3434     1
   3433   3450     1
   3433   3442     1
   3433   3443     1
   3434   3450     1
   3434   3442     1
   3434   3443     1
   3436   5135     1
   3436   3448     1
   3436   3449     1
   3437   5135     1
   3437   3448     1
   3437   3449     1
   3439   5122     1
   3439   3445     1
   3439   3446     1
   3440   5122     1
   3440   3445     1
   3440   3446     1
   3444   5117     1
   3444   5118     1
   3445   5116     1
   3446   5116     1
   3447   5130     1
   3447   5131     1
   3448   5129     1
   3449   5129     1
   3451   3465     1
   3451   3466     1
   3451   3468     1
   3451   3469     1
   3451   3462     1
   3451   3463     1
   3452   3456     1
   3452   3457     1
   3452   3459     1
   3452   3460     1
   3452   3477     1
   3452   3478     1
   3453   3455     1
   3453   3458     1
   3453   3476     1
   3453   3465     1
   3453   3466     1
   3454   3455     1
   3454   3458     1
   3454   3476     1
   3454   3465     1
   3454   3466     1
   3455   3459     1
   3455   3460     1
   3455   3474     1
   3455   3475     1
   3456   3458     1
   3456   3473     1
   3456   3468     1
   3456   3469     1
   3457   3458     1
   3457   3473     1
   3457   3468     1
   3457   3469     1
   3458   3471     1
   3458   3472     1
   3459   3470     1
   3459   3462     1
   3459   3463     1
   3460   3470     1
   3460   3462     1
   3460   3463     1
   3462   3479     1
   3462   3471     1
   3462   3472     1
   3463   3479     1
   3463   3471     1
   3463   3472     1
   3465   5161     1
   3465   3477     1
   3465   3478     1
   3466   5161     1
   3466   3477     1
   3466   3478     1
   3468   5148     1
   3468   3474     1
   3468   3475     1
   3469   5148     1
   3469   3474     1
   3469   3475     1
   3473   5143     1
   3473   5144     1
   3474   5142     1
   3475   5142     1
   3476   5156     1
   3476   5157     1
   3477   5155     1
   3478   5155     1
   3480   3494     1
   3480   3495     1
   3480   3497     1
   3480   3498     1
   3480   3491     1
   3480   3492     1
   3481   3485     1
   3481   3486     1
   3481   3488     1
   3481   3489     1
   3481   3506     1
   3481   3507     1
   3482   3484     1
   3482   3487     1
   3482   3505     1
   3482   3494     1
   3482   3495     1
   3483   3484     1
   3483   3487     1
   3483   3505     1
   3483   3494     1
   3483   3495     1
   3484   3488     1
   3484   3489     1
   3484   3503     1
   3484   3504     1
   3485   3487     1
   3485   3502     1
   3485   3497     1
   3485   3498     1
   3486   3487     1
   3486   3502     1
   3486   3497     1
   3486   3498     1
   3487   3500     1
   3487   3501     1
   3488   3499     1
   3488   3491     1
   3488   3492     1
   3489   3499     1
   3489   3491     1
   3489   3492     1
   3491   3508     1
   3491   3500     1
   3491   3501     1
   3492   3508     1
   3492   3500     1
   3492   3501     1
   3494   5187     1
   3494   3506     1
   3494   3507     1
   3495   5187     1
   3495   3506     1
   3495   3507     1
   3497   5174     1
   3497   3503     1
   3497   3504     1
   3498   5174     1
   3498   3503     1
   3498   3504     1
   3502   5169     1
   3502   5170     1
   3503   5168     1
   3504   5168     1
   3505   5182     1
   3505   5183     1
   3506   5181     1
   3507   5181     1
   3509   3523     1
   3509   3524     1
   3509   3526     1
   3509   3527     1
   3509   3520     1
   3509   3521     1
   3510   3514     1
   3510   3515     1
   3510   3517     1
   3510   3518     1
   3510   3535     1
   3510   3536     1
   3511   3513     1
   3511   3516     1
   3511   3534     1
   3511   3523     1
   3511   3524     1
   3512   3513     1
   3512   3516     1
   3512   3534     1
   3512   3523     1
   3512   3524     1
   3513   3517     1
   3513   3518     1
   3513   3532     1
   3513   3533     1
   3514   3516     1
   3514   3531     1
   3514   3526     1
   3514   3527     1
   3515   3516     1
   3515   3531     1
   3515   3526     1
   3515   3527     1
   3516   3529     1
   3516   3530     1
   3517   3528     1
   3517   3520     1
   3517   3521     1
   3518   3528     1
   3518   3520     1
   3518   3521     1
   3520   3537     1
   3520   3529     1
   3520   3530     1
   3521   3537     1
   3521   3529     1
   3521   3530     1
   3523   5213     1
   3523   3535     1
   3523   3536     1
   3524   5213     1
   3524   3535     1
   3524   3536     1
   3526   5200     1
   3526   3532     1
   3526   3533     1
   3527   5200     1
   3527   3532     1
   3527   3533     1
   3531   5195     1
   3531   5196     1
   3532   5194     1
   3533   5194     1
   3534   5208     1
   3534   5209     1
   3535   5207     1
   3536   5207     1
   3538   3552     1
   3538   3553     1
   3538   3555     1
   3538   3556     1
   3538   3549     1
   3538   3550     1
   3539   3543     1
   3539   3544     1
   3539   3546     1
   3539   3547     1
   3539   3564     1
   3539   3565     1
   3540   3542     1
   3540   3545     1
   3540   3563     1
   3540   3552     1
   3540   3553     1
   3541   3542     1
   3541   3545     1
   3541   3563     1
   3541   3552     1
   3541   3553     1
   3542   3546     1
   3542   3547     1
   3542   3561     1
   3542   3562     1
   3543   3545     1
   3543   3560     1
   3543   3555     1
   3543   3556     1
   3544   3545     1
   3544   3560     1
   3544   3555     1
   3544   3556     1
   3545   3558     1
   3545   3559     1
   3546   3557     1
   3546   3549     1
   3546   3550     1
   3547   3557     1
   3547   3549     1
   3547   3550     1
   3549   3566     1
   3549   3558     1
   3549   3559     1
   3550   3566     1
   3550   3558     1
   3550   3559     1
   3552   5239     1
   3552   3564     1
   3552   3565     1
   3553   5239     1
   3553   3564     1
   3553   3565     1
   3555   5226     1
   3555   3561     1
   3555   3562     1
   3556   5226     1
   3556   3561     1
   3556   3562     1
   3560   5221     1
   3560   5222     1
   3561   5220     1
   3562   5220     1
   3563   5234     1
   3563   5235     1
   3564   5233     1
   3565   5233     1
   3567   3581     1
   3567   3582     1
   3567   3584     1
   3567   3585     1
   3567   3578     1
   3567   3579     1
   3568   3572     1
   3568   3573     1
   3568   3575     1
   3568   3576     1
   3568   3593     1
   3568   3594     1
   3569   3571     1
   3569   3574     1
   3569   3592     1
   3569   3581     1
   3569   3582     1
   3570   3571     1
   3570   3574     1
   3570   3592     1
   3570   3581     1
   3570   3582     1
   3571   3575     1
   3571   3576     1
   3571   3590     1
   3571   3591     1
   3572   3574     1
   3572   3589     1
   3572   3584     1
   3572   3585     1
   3573   3574     1
   3573   3589     1
   3573   3584     1
   3573   3585     1
   3574   3587     1
   3574   3588     1
   3575   3586     1
   3575   3578     1
   3575   3579     1
   3576   3586     1
   3576   3578     1
   3576   3579     1
   3578   3595     1
   3578   3587     1
   3578   3588     1
   3579   3595     1
   3579   3587     1
   3579   3588     1
   3581   5265     1
   3581   3593     1
   3581   3594     1
   3582   5265     1
   3582   3593     1
   3582   3594     1
   3584   5252     1
   3584   3590     1
   3584   3591     1
   3585   5252     1
   3585   3590     1
   3585   3591     1
   3589   5247     1
   3589   5248     1
   3590   5246     1
   3591   5246     1
   3592   5260     1
   3592   5261     1
   3593   5259     1
   3594   5259     1
   3596   3610     1
   3596   3611     1
   3596   3613     1
   3596   3614     1
   3596   3607     1
   3596   3608     1
   3597   3601     1
   3597   3602     1
   3597   3604     1
   3597   3605     1
   3597   3622     1
   3597   3623     1
   3598   3600     1
   3598   3603     1
   3598   3621     1
   3598   3610     1
   3598   3611     1
   3599   3600     1
   3599   3603     1
   3599   3621     1
   3599   3610     1
   3599   3611     1
   3600   3604     1
   3600   3605     1
   3600   3619     1
   3600   3620     1
   3601   3603     1
   3601   3618     1
   3601   3613     1
   3601   3614     1
   3602   3603     1
   3602   3618     1
   3602   3613     1
   3602   3614     1
   3603   3616     1
   3603   3617     1
   3604   3615     1
   3604   3607     1
   3604   3608     1
   3605   3615     1
   3605   3607     1
   3605   3608     1
   3607   3624     1
   3607   3616     1
   3607   3617     1
   3608   3624     1
   3608   3616     1
   3608   3617     1
   3610   5291     1
   3610   3622     1
   3610   3623     1
   3611   5291     1
   3611   3622     1
   3611   3623     1
   3613   5278     1
   3613   3619     1
   3613   3620     1
   3614   5278     1
   3614   3619     1
   3614   3620     1
   3618   5273     1
   3618   5274     1
   3619   5272     1
   3620   5272     1
   3621   5286     1
   3621   5287     1
   3622   5285     1
   3623   5285     1
   3625   3639     1
   3625   3640     1
   3625   3642     1
   3625   3643     1
   3625   3636     1
   3625   3637     1
   3626   3630     1
   3626   3631     1
   3626   3633     1
   3626   3634     1
   3626   3651     1
   3626   3652     1
   3627   3629     1
   3627   3632     1
   3627   3650     1
   3627   3639     1
   3627   3640     1
   3628   3629     1
   3628   3632     1
   3628   3650     1
   3628   3639     1
   3628   3640     1
   3629   3633     1
   3629   3634     1
   3629   3648     1
   3629   3649     1
   3630   3632     1
   3630   3647     1
   3630   3642     1
   3630   3643     1
   3631   3632     1
   3631   3647     1
   3631   3642     1
   3631   3643     1
   3632   3645     1
   3632   3646     1
   3633   3644     1
   3633   3636     1
   3633   3637     1
   3634   3644     1
   3634   3636     1
   3634   3637     1
   3636   3653     1
   3636   3645     1
   3636   3646     1
   3637   3653     1
   3637   3645     1
   3637   3646     1
   3639   5317     1
   3639   3651     1
   3639   3652     1
   3640   5317     1
   3640   3651     1
   3640   3652     1
   3642   5304     1
   3642   3648     1
   3642   3649     1
   3643   5304     1
   3643   3648     1
   3643   3649     1
   3647   5299     1
   3647   5300     1
   3648   5298     1
   3649   5298     1
   3650   5312     1
   3650   5313     1
   3651   5311     1
   3652   5311     1
   3654   3661     1
   3654   3662     1
   3655   3660     1
   3655   3658     1
   3655   3659     1
   3655   3664     1
   3655   3665     1
   3656   3660     1
   3656   3658     1
   3656   3659     1
   3656   3664     1
   3656   3665     1
   3657   3664     1
   3657   3665     1
   3658   3663     1
   3658   3666     1
   3658   3661     1
   3658   3662     1
   3659   3663     1
   3659   3666     1
   3659   3661     1
   3659   3662     1
   3667   3674     1
   3667   3675     1
   3668   3673     1
   3668   3671     1
   3668   3672     1
   3668   3677     1
   3668   3678     1
   3669   3673     1
   3669   3671     1
   3669   3672     1
   3669   3677     1
   3669   3678     1
   3670   3677     1
   3670   3678     1
   3671   3679     1
   3671   3674     1
   3671   3675     1
   3671   3676     1
   3672   3679     1
   3672   3674     1
   3672   3675     1
   3672   3676     1
   3680   3687     1
   3680   3688     1
   3681   3686     1
   3681   3684     1
   3681   3685     1
   3681   3690     1
   3681   3691     1
   3682   3686     1
   3682   3684     1
   3682   3685     1
   3682   3690     1
   3682   3691     1
   3683   3690     1
   3683   3691     1
   3684   3689     1
   3684   3692     1
   3684   3687     1
   3684   3688     1
   3685   3689     1
   3685   3692     1
   3685   3687     1
   3685   3688     1
   3693   3700     1
   3693   3701     1
   3694   3699     1
   3694   3697     1
   3694   3698     1
   3694   3703     1
   3694   3704     1
   3695   3699     1
   3695   3697     1
   3695   3698     1
   3695   3703     1
   3695   3704     1
   3696   3703     1
   3696   3704     1
   3697   3705     1
   3697   3700     1
   3697   3701     1
   3697   3702     1
   3698   3705     1
   3698   3700     1
   3698   3701     1
   3698   3702     1
   3706   3713     1
   3706   3714     1
   3707   3712     1
   3707   3710     1
   3707   3711     1
   3707   3716     1
   3707   3717     1
   3708   3712     1
   3708   3710     1
   3708   3711     1
   3708   3716     1
   3708   3717     1
   3709   3716     1
   3709   3717     1
   3710   3715     1
   3710   3718     1
   3710   3713     1
   3710   3714     1
   3711   3715     1
   3711   3718     1
   3711   3713     1
   3711   3714     1
   3719   3726     1
   3719   3727     1
   3720   3725     1
   3720   3723     1
   3720   3724     1
   3720   3729     1
   3720   3730     1
   3721   3725     1
   3721   3723     1
   3721   3724     1
   3721   3729     1
   3721   3730     1
   3722   3729     1
   3722   3730     1
   3723   3731     1
   3723   3726     1
   3723   3727     1
   3723   3728     1
   3724   3731     1
   3724   3726     1
   3724   3727     1
   3724   3728     1
   3732   3739     1
   3732   3740     1
   3733   3738     1
   3733   3736     1
   3733   3737     1
   3733   3742     1
   3733   3743     1
   3734   3738     1
   3734   3736     1
   3734   3737     1
   3734   3742     1
   3734   3743     1
   3735   3742     1
   3735   3743     1
   3736   3741     1
   3736   3744     1
   3736   3739     1
   3736   3740     1
   3737   3741     1
   3737   3744     1
   3737   3739     1
   3737   3740     1
   3745   3752     1
   3745   3753     1
   3746   3751     1
   3746   3749     1
   3746   3750     1
   3746   3755     1
   3746   3756     1
   3747   3751     1
   3747   3749     1
   3747   3750     1
   3747   3755     1
   3747   3756     1
   3748   3755     1
   3748   3756     1
   3749   3757     1
   3749   3752     1
   3749   3753     1
   3749   3754     1
   3750   3757     1
   3750   3752     1
   3750   3753     1
   3750   3754     1
   3758   3765     1
   3758   3766     1
   3759   3764     1
   3759   3762     1
   3759   3763     1
   3759   3768     1
   3759   3769     1
   3760   3764     1
   3760   3762     1
   3760   3763     1
   3760   3768     1
   3760   3769     1
   3761   3768     1
   3761   3769     1
   3762   3767     1
   3762   3770     1
   3762   3765     1
   3762   3766     1
   3763   3767     1
   3763   3770     1
   3763   3765     1
   3763   3766     1
   3771   3778     1
   3771   3779     1
   3772   3777     1
   3772   3775     1
   3772   3776     1
   3772   3781     1
   3772   3782     1
   3773   3777     1
   3773   3775     1
   3773   3776     1
   3773   3781     1
   3773   3782     1
   3774   3781     1
   3774   3782     1
   3775   3783     1
   3775   3778     1
   3775   3779     1
   3775   3780     1
   3776   3783     1
   3776   3778     1
   3776   3779     1
   3776   3780     1
   3784   3791     1
   3784   3792     1
   3785   3790     1
   3785   3788     1
   3785   3789     1
   3785   3794     1
   3785   3795     1
   3786   3790     1
   3786   3788     1
   3786   3789     1
   3786   3794     1
   3786   3795     1
   3787   3794     1
   3787   3795     1
   3788   3793     1
   3788   3796     1
   3788   3791     1
   3788   3792     1
   3789   3793     1
   3789   3796     1
   3789   3791     1
   3789   3792     1
   3797   3804     1
   3797   3805     1
   3798   3803     1
   3798   3801     1
   3798   3802     1
   3798   3807     1
   3798   3808     1
   3799   3803     1
   3799   3801     1
   3799   3802     1
   3799   3807     1
   3799   3808     1
   3800   3807     1
   3800   3808     1
   3801   3809     1
   3801   3804     1
   3801   3805     1
   3801   3806     1
   3802   3809     1
   3802   3804     1
   3802   3805     1
   3802   3806     1
   3810   3817     1
   3810   3818     1
   3811   3816     1
   3811   3814     1
   3811   3815     1
   3811   3820     1
   3811   3821     1
   3812   3816     1
   3812   3814     1
   3812   3815     1
   3812   3820     1
   3812   3821     1
   3813   3820     1
   3813   3821     1
   3814   3819     1
   3814   3822     1
   3814   3817     1
   3814   3818     1
   3815   3819     1
   3815   3822     1
   3815   3817     1
   3815   3818     1
   3823   3830     1
   3823   3831     1
   3824   3829     1
   3824   3827     1
   3824   3828     1
   3824   3833     1
   3824   3834     1
   3825   3829     1
   3825   3827     1
   3825   3828     1
   3825   3833     1
   3825   3834     1
   3826   3833     1
   3826   3834     1
   3827   3835     1
   3827   3830     1
   3827   3831     1
   3827   3832     1
   3828   3835     1
   3828   3830     1
   3828   3831     1
   3828   3832     1
   3836   3843     1
   3836   3844     1
   3837   3842     1
   3837   3840     1
   3837   3841     1
   3837   3846     1
   3837   3847     1
   3838   3842     1
   3838   3840     1
   3838   3841     1
   3838   3846     1
   3838   3847     1
   3839   3846     1
   3839   3847     1
   3840   3845     1
   3840   3848     1
   3840   3843     1
   3840   3844     1
   3841   3845     1
   3841   3848     1
   3841   3843     1
   3841   3844     1
   3849   3856     1
   3849   3857     1
   3850   3855     1
   3850   3853     1
   3850   3854     1
   3850   3859     1
   3850   3860     1
   3851   3855     1
   3851   3853     1
   3851   3854     1
   3851   3859     1
   3851   3860     1
   3852   3859     1
   3852   3860     1
   3853   3861     1
   3853   3856     1
   3853   3857     1
   3853   3858     1
   3854   3861     1
   3854   3856     1
   3854   3857     1
   3854   3858     1
   3862   3869     1
   3862   3870     1
   3863   3868     1
   3863   3866     1
   3863   3867     1
   3863   3872     1
   3863   3873     1
   3864   3868     1
   3864   3866     1
   3864   3867     1
   3864   3872     1
   3864   3873     1
   3865   3872     1
   3865   3873     1
   3866   3871     1
   3866   3874     1
   3866   3869     1
   3866   3870     1
   3867   3871     1
   3867   3874     1
   3867   3869     1
   3867   3870     1
   3875   3882     1
   3875   3883     1
   3876   3881     1
   3876   3879     1
   3876   3880     1
   3876   3885     1
   3876   3886     1
   3877   3881     1
   3877   3879     1
   3877   3880     1
   3877   3885     1
   3877   3886     1
   3878   3885     1
   3878   3886     1
   3879   3887     1
   3879   3882     1
   3879   3883     1
   3879   3884     1
   3880   3887     1
   3880   3882     1
   3880   3883     1
   3880   3884     1
   3888   3895     1
   3888   3896     1
   3889   3894     1
   3889   3892     1
   3889   3893     1
   3889   3898     1
   3889   3899     1
   3890   3894     1
   3890   3892     1
   3890   3893     1
   3890   3898     1
   3890   3899     1
   3891   3898     1
   3891   3899     1
   3892   3897     1
   3892   3900     1
   3892   3895     1
   3892   3896     1
   3893   3897     1
   3893   3900     1
   3893   3895     1
   3893   3896     1
   3901   3908     1
   3901   3909     1
   3902   3907     1
   3902   3905     1
   3902   3906     1
   3902   3911     1
   3902   3912     1
   3903   3907     1
   3903   3905     1
   3903   3906     1
   3903   3911     1
   3903   3912     1
   3904   3911     1
   3904   3912     1
   3905   3913     1
   3905   3908     1
   3905   3909     1
   3905   3910     1
   3906   3913     1
   3906   3908     1
   3906   3909     1
   3906   3910     1
   3914   3921     1
   3914   3922     1
   3915   3920     1
   3915   3918     1
   3915   3919     1
   3915   3924     1
   3915   3925     1
   3916   3920     1
   3916   3918     1
   3916   3919     1
   3916   3924     1
   3916   3925     1
   3917   3924     1
   3917   3925     1
   3918   3923     1
   3918   3926     1
   3918   3921     1
   3918   3922     1
   3919   3923     1
   3919   3926     1
   3919   3921     1
   3919   3922     1
   3927   3934     1
   3927   3935     1
   3928   3933     1
   3928   3931     1
   3928   3932     1
   3928   3937     1
   3928   3938     1
   3929   3933     1
   3929   3931     1
   3929   3932     1
   3929   3937     1
   3929   3938     1
   3930   3937     1
   3930   3938     1
   3931   3939     1
   3931   3934     1
   3931   3935     1
   3931   3936     1
   3932   3939     1
   3932   3934     1
   3932   3935     1
   3932   3936     1
   3940   3947     1
   3940   3948     1
   3941   3946     1
   3941   3944     1
   3941   3945     1
   3941   3950     1
   3941   3951     1
   3942   3946     1
   3942   3944     1
   3942   3945     1
   3942   3950     1
   3942   3951     1
   3943   3950     1
   3943   3951     1
   3944   3949     1
   3944   3952     1
   3944   3947     1
   3944   3948     1
   3945   3949     1
   3945   3952     1
   3945   3947     1
   3945   3948     1
   3953   3960     1
   3953   3961     1
   3954   3959     1
   3954   3957     1
   3954   3958     1
   3954   3963     1
   3954   3964     1
   3955   3959     1
   3955   3957     1
   3955   3958     1
   3955   3963     1
   3955   3964     1
   3956   3963     1
   3956   3964     1
   3957   3965     1
   3957   3960     1
   3957   3961     1
   3957   3962     1
   3958   3965     1
   3958   3960     1
   3958   3961     1
   3958   3962     1
   3966   3973     1
   3966   3974     1
   3967   3972     1
   3967   3970     1
   3967   3971     1
   3967   3976     1
   3967   3977     1
   3968   3972     1
   3968   3970     1
   3968   3971     1
   3968   3976     1
   3968   3977     1
   3969   3976     1
   3969   3977     1
   3970   3975     1
   3970   3978     1
   3970   3973     1
   3970   3974     1
   3971   3975     1
   3971   3978     1
   3971   3973     1
   3971   3974     1
   3979   3986     1
   3979   3987     1
   3980   3985     1
   3980   3983     1
   3980   3984     1
   3980   3989     1
   3980   3990     1
   3981   3985     1
   3981   3983     1
   3981   3984     1
   3981   3989     1
   3981   3990     1
   3982   3989     1
   3982   3990     1
   3983   3991     1
   3983   3986     1
   3983   3987     1
   3983   3988     1
   3984   3991     1
   3984   3986     1
   3984   3987     1
   3984   3988     1
   3992   3999     1
   3992   4000     1
   3993   3998     1
   3993   3996     1
   3993   3997     1
   3993   4002     1
   3993   4003     1
   3994   3998     1
   3994   3996     1
   3994   3997     1
   3994   4002     1
   3994   4003     1
   3995   4002     1
   3995   4003     1
   3996   4001     1
   3996   4004     1
   3996   3999     1
   3996   4000     1
   3997   4001     1
   3997   4004     1
   3997   3999     1
   3997   4000     1
   4005   4012     1
   4005   4013     1
   4006   4011     1
   4006   4009     1
   4006   4010     1
   4006   4015     1
   4006   4016     1
   4007   4011     1
   4007   4009     1
   4007   4010     1
   4007   4015     1
   4007   4016     1
   4008   4015     1
   4008   4016     1
   4009   4017     1
   4009   4012     1
   4009   4013     1
   4009   4014     1
   4010   4017     1
   4010   4012     1
   4010   4013     1
   4010   4014     1
   4018   4025     1
   4018   4026     1
   4019   4024     1
   4019   4022     1
   4019   4023     1
   4019   4028     1
   4019   4029     1
   4020   4024     1
   4020   4022     1
   4020   4023     1
   4020   4028     1
   4020   4029     1
   4021   4028     1
   4021   4029     1
   4022   4027     1
   4022   4030     1
   4022   4025     1
   4022   4026     1
   4023   4027     1
   4023   4030     1
   4023   4025     1
   4023   4026     1
   4031   4038     1
   4031   4039     1
   4032   4037     1
   4032   4035     1
   4032   4036     1
   4032   4041     1
   4032   4042     1
   4033   4037     1
   4033   4035     1
   4033   4036     1
   4033   4041     1
   4033   4042     1
   4034   4041     1
   4034   4042     1
   4035   4043     1
   4035   4038     1
   4035   4039     1
   4035   4040     1
   4036   4043     1
   4036   4038     1
   4036   4039     1
   4036   4040     1
   4044   4051     1
   4044   4052     1
   4045   4050     1
   4045   4048     1
   4045   4049     1
   4045   4054     1
   4045   4055     1
   4046   4050     1
   4046   4048     1
   4046   4049     1
   4046   4054     1
   4046   4055     1
   4047   4054     1
   4047   4055     1
   4048   4053     1
   4048   4056     1
   4048   4051     1
   4048   4052     1
   4049   4053     1
   4049   4056     1
   4049   4051     1
   4049   4052     1
   4057   4064     1
   4057   4065     1
   4058   4063     1
   4058   4061     1
   4058   4062     1
   4058   4067     1
   4058   4068     1
   4059   4063     1
   4059   4061     1
   4059   4062     1
   4059   4067     1
   4059   4068     1
   4060   4067     1
   4060   4068     1
   4061   4069     1
   4061   4064     1
   4061   4065     1
   4061   4066     1
   4062   4069     1
   4062   4064     1
   4062   4065     1
   4062   4066     1
   4070   4077     1
   4070   4078     1
   4071   4076     1
   4071   4074     1
   4071   4075     1
   4071   4080     1
   4071   4081     1
   4072   4076     1
   4072   4074     1
   4072   4075     1
   4072   4080     1
   4072   4081     1
   4073   4080     1
   4073   4081     1
   4074   4079     1
   4074   4082     1
   4074   4077     1
   4074   4078     1
   4075   4079     1
   4075   4082     1
   4075   4077     1
   4075   4078     1
   4083   4090     1
   4083   4091     1
   4084   4089     1
   4084   4087     1
   4084   4088     1
   4084   4093     1
   4084   4094     1
   4085   4089     1
   4085   4087     1
   4085   4088     1
   4085   4093     1
   4085   4094     1
   4086   4093     1
   4086   4094     1
   4087   4095     1
   4087   4090     1
   4087   4091     1
   4087   4092     1
   4088   4095     1
   4088   4090     1
   4088   4091     1
   4088   4092     1
   4096   4103     1
   4096   4104     1
   4097   4102     1
   4097   4100     1
   4097   4101     1
   4097   4106     1
   4097   4107     1
   4098   4102     1
   4098   4100     1
   4098   4101     1
   4098   4106     1
   4098   4107     1
   4099   4106     1
   4099   4107     1
   4100   4105     1
   4100   4108     1
   4100   4103     1
   4100   4104     1
   4101   4105     1
   4101   4108     1
   4101   4103     1
   4101   4104     1
   4109   4116     1
   4109   4117     1
   4110   4115     1
   4110   4113     1
   4110   4114     1
   4110   4119     1
   4110   4120     1
   4111   4115     1
   4111   4113     1
   4111   4114     1
   4111   4119     1
   4111   4120     1
   4112   4119     1
   4112   4120     1
   4113   4121     1
   4113   4116     1
   4113   4117     1
   4113   4118     1
   4114   4121     1
   4114   4116     1
   4114   4117     1
   4114   4118     1
   4122   4129     1
   4122   4130     1
   4123   4128     1
   4123   4126     1
   4123   4127     1
   4123   4132     1
   4123   4133     1
   4124   4128     1
   4124   4126     1
   4124   4127     1
   4124   4132     1
   4124   4133     1
   4125   4132     1
   4125   4133     1
   4126   4131     1
   4126   4134     1
   4126   4129     1
   4126   4130     1
   4127   4131     1
   4127   4134     1
   4127   4129     1
   4127   4130     1
   4135   4142     1
   4135   4143     1
   4136   4141     1
   4136   4139     1
   4136   4140     1
   4136   4145     1
   4136   4146     1
   4137   4141     1
   4137   4139     1
   4137   4140     1
   4137   4145     1
   4137   4146     1
   4138   4145     1
   4138   4146     1
   4139   4147     1
   4139   4142     1
   4139   4143     1
   4139   4144     1
   4140   4147     1
   4140   4142     1
   4140   4143     1
   4140   4144     1
   4148   4155     1
   4148   4156     1
   4149   4154     1
   4149   4152     1
   4149   4153     1
   4149   4158     1
   4149   4159     1
   4150   4154     1
   4150   4152     1
   4150   4153     1
   4150   4158     1
   4150   4159     1
   4151   4158     1
   4151   4159     1
   4152   4157     1
   4152   4160     1
   4152   4155     1
   4152   4156     1
   4153   4157     1
   4153   4160     1
   4153   4155     1
   4153   4156     1
   4161   4168     1
   4161   4169     1
   4162   4167     1
   4162   4165     1
   4162   4166     1
   4162   4171     1
   4162   4172     1
   4163   4167     1
   4163   4165     1
   4163   4166     1
   4163   4171     1
   4163   4172     1
   4164   4171     1
   4164   4172     1
   4165   4173     1
   4165   4168     1
   4165   4169     1
   4165   4170     1
   4166   4173     1
   4166   4168     1
   4166   4169     1
   4166   4170     1
   4174   4181     1
   4174   4182     1
   4175   4180     1
   4175   4178     1
   4175   4179     1
   4175   4184     1
   4175   4185     1
   4176   4180     1
   4176   4178     1
   4176   4179     1
   4176   4184     1
   4176   4185     1
   4177   4184     1
   4177   4185     1
   4178   4183     1
   4178   4186     1
   4178   4181     1
   4178   4182     1
   4179   4183     1
   4179   4186     1
   4179   4181     1
   4179   4182     1
   4187   4194     1
   4187   4195     1
   4188   4193     1
   4188   4191     1
   4188   4192     1
   4188   4197     1
   4188   4198     1
   4189   4193     1
   4189   4191     1
   4189   4192     1
   4189   4197     1
   4189   4198     1
   4190   4197     1
   4190   4198     1
   4191   4199     1
   4191   4194     1
   4191   4195     1
   4191   4196     1
   4192   4199     1
   4192   4194     1
   4192   4195     1
   4192   4196     1
   4200   4207     1
   4200   4208     1
   4201   4206     1
   4201   4204     1
   4201   4205     1
   4201   4210     1
   4201   4211     1
   4202   4206     1
   4202   4204     1
   4202   4205     1
   4202   4210     1
   4202   4211     1
   4203   4210     1
   4203   4211     1
   4204   4209     1
   4204   4212     1
   4204   4207     1
   4204   4208     1
   4205   4209     1
   4205   4212     1
   4205   4207     1
   4205   4208     1
   4213   4220     1
   4213   4221     1
   4214   4219     1
   4214   4217     1
   4214   4218     1
   4214   4223     1
   4214   4224     1
   4215   4219     1
   4215   4217     1
   4215   4218     1
   4215   4223     1
   4215   4224     1
   4216   4223     1
   4216   4224     1
   4217   4225     1
   4217   4220     1
   4217   4221     1
   4217   4222     1
   4218   4225     1
   4218   4220     1
   4218   4221     1
   4218   4222     1
   4226   4233     1
   4226   4234     1
   4227   4232     1
   4227   4230     1
   4227   4231     1
   4227   4236     1
   4227   4237     1
   4228   4232     1
   4228   4230     1
   4228   4231     1
   4228   4236     1
   4228   4237     1
   4229   4236     1
   4229   4237     1
   4230   4235     1
   4230   4238     1
   4230   4233     1
   4230   4234     1
   4231   4235     1
   4231   4238     1
   4231   4233     1
   4231   4234     1
   4239   4246     1
   4239   4247     1
   4240   4245     1
   4240   4243     1
   4240   4244     1
   4240   4249     1
   4240   4250     1
   4241   4245     1
   4241   4243     1
   4241   4244     1
   4241   4249     1
   4241   4250     1
   4242   4249     1
   4242   4250     1
   4243   4251     1
   4243   4246     1
   4243   4247     1
   4243   4248     1
   4244   4251     1
   4244   4246     1
   4244   4247     1
   4244   4248     1
   4252   4259     1
   4252   4260     1
   4253   4258     1
   4253   4256     1
   4253   4257     1
   4253   4262     1
   4253   4263     1
   4254   4258     1
   4254   4256     1
   4254   4257     1
   4254   4262     1
   4254   4263     1
   4255   4262     1
   4255   4263     1
   4256   4261     1
   4256   4264     1
   4256   4259     1
   4256   4260     1
   4257   4261     1
   4257   4264     1
   4257   4259     1
   4257   4260     1
   4265   4272     1
   4265   4273     1
   4266   4271     1
   4266   4269     1
   4266   4270     1
   4266   4275     1
   4266   4276     1
   4267   4271     1
   4267   4269     1
   4267   4270     1
   4267   4275     1
   4267   4276     1
   4268   4275     1
   4268   4276     1
   4269   4277     1
   4269   4272     1
   4269   4273     1
   4269   4274     1
   4270   4277     1
   4270   4272     1
   4270   4273     1
   4270   4274     1
   4278   4285     1
   4278   4286     1
   4279   4284     1
   4279   4282     1
   4279   4283     1
   4279   4288     1
   4279   4289     1
   4280   4284     1
   4280   4282     1
   4280   4283     1
   4280   4288     1
   4280   4289     1
   4281   4288     1
   4281   4289     1
   4282   4287     1
   4282   4290     1
   4282   4285     1
   4282   4286     1
   4283   4287     1
   4283   4290     1
   4283   4285     1
   4283   4286     1
   4291   4298     1
   4291   4299     1
   4292   4297     1
   4292   4295     1
   4292   4296     1
   4292   4301     1
   4292   4302     1
   4293   4297     1
   4293   4295     1
   4293   4296     1
   4293   4301     1
   4293   4302     1
   4294   4301     1
   4294   4302     1
   4295   4303     1
   4295   4298     1
   4295   4299     1
   4295   4300     1
   4296   4303     1
   4296   4298     1
   4296   4299     1
   4296   4300     1
   4304   4311     1
   4304   4312     1
   4305   4310     1
   4305   4308     1
   4305   4309     1
   4305   4314     1
   4305   4315     1
   4306   4310     1
   4306   4308     1
   4306   4309     1
   4306   4314     1
   4306   4315     1
   4307   4314     1
   4307   4315     1
   4308   4313     1
   4308   4316     1
   4308   4311     1
   4308   4312     1
   4309   4313     1
   4309   4316     1
   4309   4311     1
   4309   4312     1
   4317   4324     1
   4317   4325     1
   4318   4323     1
   4318   4321     1
   4318   4322     1
   4318   4327     1
   4318   4328     1
   4319   4323     1
   4319   4321     1
   4319   4322     1
   4319   4327     1
   4319   4328     1
   4320   4327     1
   4320   4328     1
   4321   4329     1
   4321   4324     1
   4321   4325     1
   4321   4326     1
   4322   4329     1
   4322   4324     1
   4322   4325     1
   4322   4326     1
   4330   4337     1
   4330   4338     1
   4331   4336     1
   4331   4334     1
   4331   4335     1
   4331   4340     1
   4331   4341     1
   4332   4336     1
   4332   4334     1
   4332   4335     1
   4332   4340     1
   4332   4341     1
   4333   4340     1
   4333   4341     1
   4334   4339     1
   4334   4342     1
   4334   4337     1
   4334   4338     1
   4335   4339     1
   4335   4342     1
   4335   4337     1
   4335   4338     1
   4343   4350     1
   4343   4351     1
   4344   4349     1
   4344   4347     1
   4344   4348     1
   4344   4353     1
   4344   4354     1
   4345   4349     1
   4345   4347     1
   4345   4348     1
   4345   4353     1
   4345   4354     1
   4346   4353     1
   4346   4354     1
   4347   4355     1
   4347   4350     1
   4347   4351     1
   4347   4352     1
   4348   4355     1
   4348   4350     1
   4348   4351     1
   4348   4352     1
   4356   4363     1
   4356   4364     1
   4357   4362     1
   4357   4360     1
   4357   4361     1
   4357   4366     1
   4357   4367     1
   4358   4362     1
   4358   4360     1
   4358   4361     1
   4358   4366     1
   4358   4367     1
   4359   4366     1
   4359   4367     1
   4360   4365     1
   4360   4368     1
   4360   4363     1
   4360   4364     1
   4361   4365     1
   4361   4368     1
   4361   4363     1
   4361   4364     1
   4369   4376     1
   4369   4377     1
   4370   4375     1
   4370   4373     1
   4370   4374     1
   4370   4379     1
   4370   4380     1
   4371   4375     1
   4371   4373     1
   4371   4374     1
   4371   4379     1
   4371   4380     1
   4372   4379     1
   4372   4380     1
   4373   4381     1
   4373   4376     1
   4373   4377     1
   4373   4378     1
   4374   4381     1
   4374   4376     1
   4374   4377     1
   4374   4378     1
   4382   4389     1
   4382   4390     1
   4383   4388     1
   4383   4386     1
   4383   4387     1
   4383   4392     1
   4383   4393     1
   4384   4388     1
   4384   4386     1
   4384   4387     1
   4384   4392     1
   4384   4393     1
   4385   4392     1
   4385   4393     1
   4386   4391     1
   4386   4394     1
   4386   4389     1
   4386   4390     1
   4387   4391     1
   4387   4394     1
   4387   4389     1
   4387   4390     1
   4395   4402     1
   4395   4403     1
   4396   4401     1
   4396   4399     1
   4396   4400     1
   4396   4405     1
   4396   4406     1
   4397   4401     1
   4397   4399     1
   4397   4400     1
   4397   4405     1
   4397   4406     1
   4398   4405     1
   4398   4406     1
   4399   4407     1
   4399   4402     1
   4399   4403     1
   4399   4404     1
   4400   4407     1
   4400   4402     1
   4400   4403     1
   4400   4404     1
   4408   4415     1
   4408   4416     1
   4409   4414     1
   4409   4412     1
   4409   4413     1
   4409   4418     1
   4409   4419     1
   4410   4414     1
   4410   4412     1
   4410   4413     1
   4410   4418     1
   4410   4419     1
   4411   4418     1
   4411   4419     1
   4412   4417     1
   4412   4420     1
   4412   4415     1
   4412   4416     1
   4413   4417     1
   4413   4420     1
   4413   4415     1
   4413   4416     1
   4421   4428     1
   4421   4429     1
   4422   4427     1
   4422   4425     1
   4422   4426     1
   4422   4431     1
   4422   4432     1
   4423   4427     1
   4423   4425     1
   4423   4426     1
   4423   4431     1
   4423   4432     1
   4424   4431     1
   4424   4432     1
   4425   4433     1
   4425   4428     1
   4425   4429     1
   4425   4430     1
   4426   4433     1
   4426   4428     1
   4426   4429     1
   4426   4430     1
   4434   4441     1
   4434   4442     1
   4435   4440     1
   4435   4438     1
   4435   4439     1
   4435   4444     1
   4435   4445     1
   4436   4440     1
   4436   4438     1
   4436   4439     1
   4436   4444     1
   4436   4445     1
   4437   4444     1
   4437   4445     1
   4438   4443     1
   4438   4446     1
   4438   4441     1
   4438   4442     1
   4439   4443     1
   4439   4446     1
   4439   4441     1
   4439   4442     1
   4447   4454     1
   4447   4455     1
   4448   4453     1
   4448   4451     1
   4448   4452     1
   4448   4457     1
   4448   4458     1
   4449   4453     1
   4449   4451     1
   4449   4452     1
   4449   4457     1
   4449   4458     1
   4450   4457     1
   4450   4458     1
   4451   4459     1
   4451   4454     1
   4451   4455     1
   4451   4456     1
   4452   4459     1
   4452   4454     1
   4452   4455     1
   4452   4456     1
   4460   4467     1
   4460   4468     1
   4461   4466     1
   4461   4464     1
   4461   4465     1
   4461   4470     1
   4461   4471     1
   4462   4466     1
   4462   4464     1
   4462   4465     1
   4462   4470     1
   4462   4471     1
   4463   4470     1
   4463   4471     1
   4464   4469     1
   4464   4472     1
   4464   4467     1
   4464   4468     1
   4465   4469     1
   4465   4472     1
   4465   4467     1
   4465   4468     1
   4473   4480     1
   4473   4481     1
   4474   4479     1
   4474   4477     1
   4474   4478     1
   4474   4483     1
   4474   4484     1
   4475   4479     1
   4475   4477     1
   4475   4478     1
   4475   4483     1
   4475   4484     1
   4476   4483     1
   4476   4484     1
   4477   4485     1
   4477   4480     1
   4477   4481     1
   4477   4482     1
   4478   4485     1
   4478   4480     1
   4478   4481     1
   4478   4482     1
   4486   4493     1
   4486   4494     1
   4487   4492     1
   4487   4490     1
   4487   4491     1
   4487   4496     1
   4487   4497     1
   4488   4492     1
   4488   4490     1
   4488   4491     1
   4488   4496     1
   4488   4497     1
   4489   4496     1
   4489   4497     1
   4490   4495     1
   4490   4498     1
   4490   4493     1
   4490   4494     1
   4491   4495     1
   4491   4498     1
   4491   4493     1
   4491   4494     1
   4499   4506     1
   4499   4507     1
   4500   4505     1
   4500   4503     1
   4500   4504     1
   4500   4509     1
   4500   4510     1
   4501   4505     1
   4501   4503     1
   4501   4504     1
   4501   4509     1
   4501   4510     1
   4502   4509     1
   4502   4510     1
   4503   4511     1
   4503   4506     1
   4503   4507     1
   4503   4508     1
   4504   4511     1
   4504   4506     1
   4504   4507     1
   4504   4508     1
   4512   4519     1
   4512   4520     1
   4513   4518     1
   4513   4516     1
   4513   4517     1
   4513   4522     1
   4513   4523     1
   4514   4518     1
   4514   4516     1
   4514   4517     1
   4514   4522     1
   4514   4523     1
   4515   4522     1
   4515   4523     1
   4516   4521     1
   4516   4524     1
   4516   4519     1
   4516   4520     1
   4517   4521     1
   4517   4524     1
   4517   4519     1
   4517   4520     1
   4525   4532     1
   4525   4533     1
   4526   4531     1
   4526   4529     1
   4526   4530     1
   4526   4535     1
   4526   4536     1
   4527   4531     1
   4527   4529     1
   4527   4530     1
   4527   4535     1
   4527   4536     1
   4528   4535     1
   4528   4536     1
   4529   4537     1
   4529   4532     1
   4529   4533     1
   4529   4534     1
   4530   4537     1
   4530   4532     1
   4530   4533     1
   4530   4534     1
   4538   4545     1
   4538   4546     1
   4539   4544     1
   4539   4542     1
   4539   4543     1
   4539   4548     1
   4539   4549     1
   4540   4544     1
   4540   4542     1
   4540   4543     1
   4540   4548     1
   4540   4549     1
   4541   4548     1
   4541   4549     1
   4542   4547     1
   4542   4550     1
   4542   4545     1
   4542   4546     1
   4543   4547     1
   4543   4550     1
   4543   4545     1
   4543   4546     1
   4551   4558     1
   4551   4559     1
   4552   4557     1
   4552   4555     1
   4552   4556     1
   4552   4561     1
   4552   4562     1
   4553   4557     1
   4553   4555     1
   4553   4556     1
   4553   4561     1
   4553   4562     1
   4554   4561     1
   4554   4562     1
   4555   4563     1
   4555   4558     1
   4555   4559     1
   4555   4560     1
   4556   4563     1
   4556   4558     1
   4556   4559     1
   4556   4560     1
   4564   4571     1
   4564   4572     1
   4565   4570     1
   4565   4568     1
   4565   4569     1
   4565   4574     1
   4565   4575     1
   4566   4570     1
   4566   4568     1
   4566   4569     1
   4566   4574     1
   4566   4575     1
   4567   4574     1
   4567   4575     1
   4568   4573     1
   4568   4576     1
   4568   4571     1
   4568   4572     1
   4569   4573     1
   4569   4576     1
   4569   4571     1
   4569   4572     1
   4577   4584     1
   4577   4585     1
   4578   4583     1
   4578   4581     1
   4578   4582     1
   4578   4587     1
   4578   4588     1
   4579   4583     1
   4579   4581     1
   4579   4582     1
   4579   4587     1
   4579   4588     1
   4580   4587     1
   4580   4588     1
   4581   4589     1
   4581   4584     1
   4581   4585     1
   4581   4586     1
   4582   4589     1
   4582   4584     1
   4582   4585     1
   4582   4586     1
   4590   4597     1
   4590   4598     1
   4591   4596     1
   4591   4594     1
   4591   4595     1
   4591   4600     1
   4591   4601     1
   4592   4596     1
   4592   4594     1
   4592   4595     1
   4592   4600     1
   4592   4601     1
   4593   4600     1
   4593   4601     1
   4594   4599     1
   4594   4602     1
   4594   4597     1
   4594   4598     1
   4595   4599     1
   4595   4602     1
   4595   4597     1
   4595   4598     1
   4603   4610     1
   4603   4611     1
   4604   4609     1
   4604   4607     1
   4604   4608     1
   4604   4613     1
   4604   4614     1
   4605   4609     1
   4605   4607     1
   4605   4608     1
   4605   4613     1
   4605   4614     1
   4606   4613     1
   4606   4614     1
   4607   4615     1
   4607   4610     1
   4607   4611     1
   4607   4612     1
   4608   4615     1
   4608   4610     1
   4608   4611     1
   4608   4612     1
   4616   4623     1
   4616   4624     1
   4617   4622     1
   4617   4620     1
   4617   4621     1
   4617   4626     1
   4617   4627     1
   4618   4622     1
   4618   4620     1
   4618   4621     1
   4618   4626     1
   4618   4627     1
   4619   4626     1
   4619   4627     1
   4620   4625     1
   4620   4628     1
   4620   4623     1
   4620   4624     1
   4621   4625     1
   4621   4628     1
   4621   4623     1
   4621   4624     1
   4629   4636     1
   4629   4637     1
   4630   4635     1
   4630   4633     1
   4630   4634     1
   4630   4639     1
   4630   4640     1
   4631   4635     1
   4631   4633     1
   4631   4634     1
   4631   4639     1
   4631   4640     1
   4632   4639     1
   4632   4640     1
   4633   4641     1
   4633   4636     1
   4633   4637     1
   4633   4638     1
   4634   4641     1
   4634   4636     1
   4634   4637     1
   4634   4638     1
   4642   4649     1
   4642   4650     1
   4643   4648     1
   4643   4646     1
   4643   4647     1
   4643   4652     1
   4643   4653     1
   4644   4648     1
   4644   4646     1
   4644   4647     1
   4644   4652     1
   4644   4653     1
   4645   4652     1
   4645   4653     1
   4646   4651     1
   4646   4654     1
   4646   4649     1
   4646   4650     1
   4647   4651     1
   4647   4654     1
   4647   4649     1
   4647   4650     1
   4655   4662     1
   4655   4663     1
   4656   4661     1
   4656   4659     1
   4656   4660     1
   4656   4665     1
   4656   4666     1
   4657   4661     1
   4657   4659     1
   4657   4660     1
   4657   4665     1
   4657   4666     1
   4658   4665     1
   4658   4666     1
   4659   4667     1
   4659   4662     1
   4659   4663     1
   4659   4664     1
   4660   4667     1
   4660   4662     1
   4660   4663     1
   4660   4664     1
   4668   4675     1
   4668   4676     1
   4669   4674     1
   4669   4672     1
   4669   4673     1
   4669   4678     1
   4669   4679     1
   4670   4674     1
   4670   4672     1
   4670   4673     1
   4670   4678     1
   4670   4679     1
   4671   4678     1
   4671   4679     1
   4672   4677     1
   4672   4680     1
   4672   4675     1
   4672   4676     1
   4673   4677     1
   4673   4680     1
   4673   4675     1
   4673   4676     1
   4681   4688     1
   4681   4689     1
   4682   4687     1
   4682   4685     1
   4682   4686     1
   4682   4691     1
   4682   4692     1
   4683   4687     1
   4683   4685     1
   4683   4686     1
   4683   4691     1
   4683   4692     1
   4684   4691     1
   4684   4692     1
   4685   4693     1
   4685   4688     1
   4685   4689     1
   4685   4690     1
   4686   4693     1
   4686   4688     1
   4686   4689     1
   4686   4690     1
   4694   4701     1
   4694   4702     1
   4695   4700     1
   4695   4698     1
   4695   4699     1
   4695   4704     1
   4695   4705     1
   4696   4700     1
   4696   4698     1
   4696   4699     1
   4696   4704     1
   4696   4705     1
   4697   4704     1
   4697   4705     1
   4698   4703     1
   4698   4706     1
   4698   4701     1
   4698   4702     1
   4699   4703     1
   4699   4706     1
   4699   4701     1
   4699   4702     1
   4707   4714     1
   4707   4715     1
   4708   4713     1
   4708   4711     1
   4708   4712     1
   4708   4717     1
   4708   4718     1
   4709   4713     1
   4709   4711     1
   4709   4712     1
   4709   4717     1
   4709   4718     1
   4710   4717     1
   4710   4718     1
   4711   4719     1
   4711   4714     1
   4711   4715     1
   4711   4716     1
   4712   4719     1
   4712   4714     1
   4712   4715     1
   4712   4716     1
   4720   4727     1
   4720   4728     1
   4721   4726     1
   4721   4724     1
   4721   4725     1
   4721   4730     1
   4721   4731     1
   4722   4726     1
   4722   4724     1
   4722   4725     1
   4722   4730     1
   4722   4731     1
   4723   4730     1
   4723   4731     1
   4724   4729     1
   4724   4732     1
   4724   4727     1
   4724   4728     1
   4725   4729     1
   4725   4732     1
   4725   4727     1
   4725   4728     1
   4733   4740     1
   4733   4741     1
   4734   4739     1
   4734   4737     1
   4734   4738     1
   4734   4743     1
   4734   4744     1
   4735   4739     1
   4735   4737     1
   4735   4738     1
   4735   4743     1
   4735   4744     1
   4736   4743     1
   4736   4744     1
   4737   4745     1
   4737   4740     1
   4737   4741     1
   4737   4742     1
   4738   4745     1
   4738   4740     1
   4738   4741     1
   4738   4742     1
   4746   4753     1
   4746   4754     1
   4747   4752     1
   4747   4750     1
   4747   4751     1
   4747   4756     1
   4747   4757     1
   4748   4752     1
   4748   4750     1
   4748   4751     1
   4748   4756     1
   4748   4757     1
   4749   4756     1
   4749   4757     1
   4750   4755     1
   4750   4758     1
   4750   4753     1
   4750   4754     1
   4751   4755     1
   4751   4758     1
   4751   4753     1
   4751   4754     1
   4759   4766     1
   4759   4767     1
   4760   4765     1
   4760   4763     1
   4760   4764     1
   4760   4769     1
   4760   4770     1
   4761   4765     1
   4761   4763     1
   4761   4764     1
   4761   4769     1
   4761   4770     1
   4762   4769     1
   4762   4770     1
   4763   4771     1
   4763   4766     1
   4763   4767     1
   4763   4768     1
   4764   4771     1
   4764   4766     1
   4764   4767     1
   4764   4768     1
   4772   4779     1
   4772   4780     1
   4773   4778     1
   4773   4776     1
   4773   4777     1
   4773   4782     1
   4773   4783     1
   4774   4778     1
   4774   4776     1
   4774   4777     1
   4774   4782     1
   4774   4783     1
   4775   4782     1
   4775   4783     1
   4776   4781     1
   4776   4784     1
   4776   4779     1
   4776   4780     1
   4777   4781     1
   4777   4784     1
   4777   4779     1
   4777   4780     1
   4785   4792     1
   4785   4793     1
   4786   4791     1
   4786   4789     1
   4786   4790     1
   4786   4795     1
   4786   4796     1
   4787   4791     1
   4787   4789     1
   4787   4790     1
   4787   4795     1
   4787   4796     1
   4788   4795     1
   4788   4796     1
   4789   4797     1
   4789   4792     1
   4789   4793     1
   4789   4794     1
   4790   4797     1
   4790   4792     1
   4790   4793     1
   4790   4794     1
   4798   4805     1
   4798   4806     1
   4799   4804     1
   4799   4802     1
   4799   4803     1
   4799   4808     1
   4799   4809     1
   4800   4804     1
   4800   4802     1
   4800   4803     1
   4800   4808     1
   4800   4809     1
   4801   4808     1
   4801   4809     1
   4802   4807     1
   4802   4810     1
   4802   4805     1
   4802   4806     1
   4803   4807     1
   4803   4810     1
   4803   4805     1
   4803   4806     1
   4811   4818     1
   4811   4819     1
   4812   4817     1
   4812   4815     1
   4812   4816     1
   4812   4821     1
   4812   4822     1
   4813   4817     1
   4813   4815     1
   4813   4816     1
   4813   4821     1
   4813   4822     1
   4814   4821     1
   4814   4822     1
   4815   4823     1
   4815   4818     1
   4815   4819     1
   4815   4820     1
   4816   4823     1
   4816   4818     1
   4816   4819     1
   4816   4820     1
   4824   4831     1
   4824   4832     1
   4825   4830     1
   4825   4828     1
   4825   4829     1
   4825   4834     1
   4825   4835     1
   4826   4830     1
   4826   4828     1
   4826   4829     1
   4826   4834     1
   4826   4835     1
   4827   4834     1
   4827   4835     1
   4828   4833     1
   4828   4836     1
   4828   4831     1
   4828   4832     1
   4829   4833     1
   4829   4836     1
   4829   4831     1
   4829   4832     1
   4837   4844     1
   4837   4845     1
   4838   4843     1
   4838   4841     1
   4838   4842     1
   4838   4847     1
   4838   4848     1
   4839   4843     1
   4839   4841     1
   4839   4842     1
   4839   4847     1
   4839   4848     1
   4840   4847     1
   4840   4848     1
   4841   4849     1
   4841   4844     1
   4841   4845     1
   4841   4846     1
   4842   4849     1
   4842   4844     1
   4842   4845     1
   4842   4846     1
   4850   4857     1
   4850   4858     1
   4851   4856     1
   4851   4854     1
   4851   4855     1
   4851   4860     1
   4851   4861     1
   4852   4856     1
   4852   4854     1
   4852   4855     1
   4852   4860     1
   4852   4861     1
   4853   4860     1
   4853   4861     1
   4854   4859     1
   4854   4862     1
   4854   4857     1
   4854   4858     1
   4855   4859     1
   4855   4862     1
   4855   4857     1
   4855   4858     1
   4863   4870     1
   4863   4871     1
   4864   4869     1
   4864   4867     1
   4864   4868     1
   4864   4873     1
   4864   4874     1
   4865   4869     1
   4865   4867     1
   4865   4868     1
   4865   4873     1
   4865   4874     1
   4866   4873     1
   4866   4874     1
   4867   4875     1
   4867   4870     1
   4867   4871     1
   4867   4872     1
   4868   4875     1
   4868   4870     1
   4868   4871     1
   4868   4872     1
   4876   4883     1
   4876   4884     1
   4877   4882     1
   4877   4880     1
   4877   4881     1
   4877   4886     1
   4877   4887     1
   4878   4882     1
   4878   4880     1
   4878   4881     1
   4878   4886     1
   4878   4887     1
   4879   4886     1
   4879   4887     1
   4880   4885     1
   4880   4888     1
   4880   4883     1
   4880   4884     1
   4881   4885     1
   4881   4888     1
   4881   4883     1
   4881   4884     1
   4889   4896     1
   4889   4897     1
   4890   4895     1
   4890   4893     1
   4890   4894     1
   4890   4899     1
   4890   4900     1
   4891   4895     1
   4891   4893     1
   4891   4894     1
   4891   4899     1
   4891   4900     1
   4892   4899     1
   4892   4900     1
   4893   4901     1
   4893   4896     1
   4893   4897     1
   4893   4898     1
   4894   4901     1
   4894   4896     1
   4894   4897     1
   4894   4898     1
   4902   4909     1
   4902   4910     1
   4903   4908     1
   4903   4906     1
   4903   4907     1
   4903   4912     1
   4903   4913     1
   4904   4908     1
   4904   4906     1
   4904   4907     1
   4904   4912     1
   4904   4913     1
   4905   4912     1
   4905   4913     1
   4906   4911     1
   4906   4914     1
   4906   4909     1
   4906   4910     1
   4907   4911     1
   4907   4914     1
   4907   4909     1
   4907   4910     1
   4915   4922     1
   4915   4923     1
   4916   4921     1
   4916   4919     1
   4916   4920     1
   4916   4925     1
   4916   4926     1
   4917   4921     1
   4917   4919     1
   4917   4920     1
   4917   4925     1
   4917   4926     1
   4918   4925     1
   4918   4926     1
   4919   4927     1
   4919   4922     1
   4919   4923     1
   4919   4924     1
   4920   4927     1
   4920   4922     1
   4920   4923     1
   4920   4924     1
   4928   4935     1
   4928   4936     1
   4929   4934     1
   4929   4932     1
   4929   4933     1
   4929   4938     1
   4929   4939     1
   4930   4934     1
   4930   4932     1
   4930   4933     1
   4930   4938     1
   4930   4939     1
   4931   4938     1
   4931   4939     1
   4932   4937     1
   4932   4940     1
   4932   4935     1
   4932   4936     1
   4933   4937     1
   4933   4940     1
   4933   4935     1
   4933   4936     1
   4941   4948     1
   4941   4949     1
   4942   4947     1
   4942   4945     1
   4942   4946     1
   4942   4951     1
   4942   4952     1
   4943   4947     1
   4943   4945     1
   4943   4946     1
   4943   4951     1
   4943   4952     1
   4944   4951     1
   4944   4952     1
   4945   4953     1
   4945   4948     1
   4945   4949     1
   4945   4950     1
   4946   4953     1
   4946   4948     1
   4946   4949     1
   4946   4950     1
   4954   4961     1
   4954   4962     1
   4955   4960     1
   4955   4958     1
   4955   4959     1
   4955   4964     1
   4955   4965     1
   4956   4960     1
   4956   4958     1
   4956   4959     1
   4956   4964     1
   4956   4965     1
   4957   4964     1
   4957   4965     1
   4958   4963     1
   4958   4966     1
   4958   4961     1
   4958   4962     1
   4959   4963     1
   4959   4966     1
   4959   4961     1
   4959   4962     1
   4967   4974     1
   4967   4975     1
   4968   4973     1
   4968   4971     1
   4968   4972     1
   4968   4977     1
   4968   4978     1
   4969   4973     1
   4969   4971     1
   4969   4972     1
   4969   4977     1
   4969   4978     1
   4970   4977     1
   4970   4978     1
   4971   4979     1
   4971   4974     1
   4971   4975     1
   4971   4976     1
   4972   4979     1
   4972   4974     1
   4972   4975     1
   4972   4976     1
   4980   4987     1
   4980   4988     1
   4981   4986     1
   4981   4984     1
   4981   4985     1
   4981   4990     1
   4981   4991     1
   4982   4986     1
   4982   4984     1
   4982   4985     1
   4982   4990     1
   4982   4991     1
   4983   4990     1
   4983   4991     1
   4984   4989     1
   4984   4992     1
   4984   4987     1
   4984   4988     1
   4985   4989     1
   4985   4992     1
   4985   4987     1
   4985   4988     1
   4993   5000     1
   4993   5001     1
   4994   4999     1
   4994   4997     1
   4994   4998     1
   4994   5003     1
   4994   5004     1
   4995   4999     1
   4995   4997     1
   4995   4998     1
   4995   5003     1
   4995   5004     1
   4996   5003     1
   4996   5004     1
   4997   5005     1
   4997   5000     1
   4997   5001     1
   4997   5002     1
   4998   5005     1
   4998   5000     1
   4998   5001     1
   4998   5002     1
   5006   5013     1
   5006   5014     1
   5007   5012     1
   5007   5010     1
   5007   5011     1
   5007   5016     1
   5007   5017     1
   5008   5012     1
   5008   5010     1
   5008   5011     1
   5008   5016     1
   5008   5017     1
   5009   5016     1
   5009   5017     1
   5010   5015     1
   5010   5018     1
   5010   5013     1
   5010   5014     1
   5011   5015     1
   5011   5018     1
   5011   5013     1
   5011   5014     1
   5019   5026     1
   5019   5027     1
   5020   5025     1
   5020   5023     1
   5020   5024     1
   5020   5029     1
   5020   5030     1
   5021   5025     1
   5021   5023     1
   5021   5024     1
   5021   5029     1
   5021   5030     1
   5022   5029     1
   5022   5030     1
   5023   5031     1
   5023   5026     1
   5023   5027     1
   5023   5028     1
   5024   5031     1
   5024   5026     1
   5024   5027     1
   5024   5028     1
   5032   5039     1
   5032   5040     1
   5033   5038     1
   5033   5036     1
   5033   5037     1
   5033   5042     1
   5033   5043     1
   5034   5038     1
   5034   5036     1
   5034   5037     1
   5034   5042     1
   5034   5043     1
   5035   5042     1
   5035   5043     1
   5036   5041     1
   5036   5044     1
   5036   5039     1
   5036   5040     1
   5037   5041     1
   5037   5044     1
   5037   5039     1
   5037   5040     1
   5045   5052     1
   5045   5053     1
   5046   5051     1
   5046   5049     1
   5046   5050     1
   5046   5055     1
   5046   5056     1
   5047   5051     1
   5047   5049     1
   5047   5050     1
   5047   5055     1
   5047   5056     1
   5048   5055     1
   5048   5056     1
   5049   5057     1
   5049   5052     1
   5049   5053     1
   5049   5054     1
   5050   5057     1
   5050   5052     1
   5050   5053     1
   5050   5054     1
   5058   5065     1
   5058   5066     1
   5059   5064     1
   5059   5062     1
   5059   5063     1
   5059   5068     1
   5059   5069     1
   5060   5064     1
   5060   5062     1
   5060   5063     1
   5060   5068     1
   5060   5069     1
   5061   5068     1
   5061   5069     1
   5062   5067     1
   5062   5070     1
   5062   5065     1
   5062   5066     1
   5063   5067     1
   5063   5070     1
   5063   5065     1
   5063   5066     1
   5071   5078     1
   5071   5079     1
   5072   5077     1
   5072   5075     1
   5072   5076     1
   5072   5081     1
   5072   5082     1
   5073   5077     1
   5073   5075     1
   5073   5076     1
   5073   5081     1
   5073   5082     1
   5074   5081     1
   5074   5082     1
   5075   5083     1
   5075   5078     1
   5075   5079     1
   5075   5080     1
   5076   5083     1
   5076   5078     1
   5076   5079     1
   5076   5080     1
   5084   5091     1
   5084   5092     1
   5085   5090     1
   5085   5088     1
   5085   5089     1
   5085   5094     1
   5085   5095     1
   5086   5090     1
   5086   5088     1
   5086   5089     1
   5086   5094     1
   5086   5095     1
   5087   5094     1
   5087   5095     1
   5088   5093     1
   5088   5096     1
   5088   5091     1
   5088   5092     1
   5089   5093     1
   5089   5096     1
   5089   5091     1
   5089   5092     1
   5097   5104     1
   5097   5105     1
   5098   5103     1
   5098   5101     1
   5098   5102     1
   5098   5107     1
   5098   5108     1
   5099   5103     1
   5099   5101     1
   5099   5102     1
   5099   5107     1
   5099   5108     1
   5100   5107     1
   5100   5108     1
   5101   5109     1
   5101   5104     1
   5101   5105     1
   5101   5106     1
   5102   5109     1
   5102   5104     1
   5102   5105     1
   5102   5106     1
   5110   5117     1
   5110   5118     1
   5111   5116     1
   5111   5114     1
   5111   5115     1
   5111   5120     1
   5111   5121     1
   5112   5116     1
   5112   5114     1
   5112   5115     1
   5112   5120     1
   5112   5121     1
   5113   5120     1
   5113   5121     1
   5114   5119     1
   5114   5122     1
   5114   5117     1
   5114   5118     1
   5115   5119     1
   5115   5122     1
   5115   5117     1
   5115   5118     1
   5123   5130     1
   5123   5131     1
   5124   5129     1
   5124   5127     1
   5124   5128     1
   5124   5133     1
   5124   5134     1
   5125   5129     1
   5125   5127     1
   5125   5128     1
   5125   5133     1
   5125   5134     1
   5126   5133     1
   5126   5134     1
   5127   5135     1
   5127   5130     1
   5127   5131     1
   5127   5132     1
   5128   5135     1
   5128   5130     1
   5128   5131     1
   5128   5132     1
   5136   5143     1
   5136   5144     1
   5137   5142     1
   5137   5140     1
   5137   5141     1
   5137   5146     1
   5137   5147     1
   5138   5142     1
   5138   5140     1
   5138   5141     1
   5138   5146     1
   5138   5147     1
   5139   5146     1
   5139   5147     1
   5140   5145     1
   5140   5148     1
   5140   5143     1
   5140   5144     1
   5141   5145     1
   5141   5148     1
   5141   5143     1
   5141   5144     1
   5149   5156     1
   5149   5157     1
   5150   5155     1
   5150   5153     1
   5150   5154     1
   5150   5159     1
   5150   5160     1
   5151   5155     1
   5151   5153     1
   5151   5154     1
   5151   5159     1
   5151   5160     1
   5152   5159     1
   5152   5160     1
   5153   5161     1
   5153   5156     1
   5153   5157     1
   5153   5158     1
   5154   5161     1
   5154   5156     1
   5154   5157     1
   5154   5158     1
   5162   5169     1
   5162   5170     1
   5163   5168     1
   5163   5166     1
   5163   5167     1
   5163   5172     1
   5163   5173     1
   5164   5168     1
   5164   5166     1
   5164   5167     1
   5164   5172     1
   5164   5173     1
   5165   5172     1
   5165   5173     1
   5166   5171     1
   5166   5174     1
   5166   5169     1
   5166   5170     1
   5167   5171     1
   5167   5174     1
   5167   5169     1
   5167   5170     1
   5175   5182     1
   5175   5183     1
   5176   5181     1
   5176   5179     1
   5176   5180     1
   5176   5185     1
   5176   5186     1
   5177   5181     1
   5177   5179     1
   5177   5180     1
   5177   5185     1
   5177   5186     1
   5178   5185     1
   5178   5186     1
   5179   5187     1
   5179   5182     1
   5179   5183     1
   5179   5184     1
   5180   5187     1
   5180   5182     1
   5180   5183     1
   5180   5184     1
   5188   5195     1
   5188   5196     1
   5189   5194     1
   5189   5192     1
   5189   5193     1
   5189   5198     1
   5189   5199     1
   5190   5194     1
   5190   5192     1
   5190   5193     1
   5190   5198     1
   5190   5199     1
   5191   5198     1
   5191   5199     1
   5192   5197     1
   5192   5200     1
   5192   5195     1
   5192   5196     1
   5193   5197     1
   5193   5200     1
   5193   5195     1
   5193   5196     1
   5201   5208     1
   5201   5209     1
   5202   5207     1
   5202   5205     1
   5202   5206     1
   5202   5211     1
   5202   5212     1
   5203   5207     1
   5203   5205     1
   5203   5206     1
   5203   5211     1
   5203   5212     1
   5204   5211     1
   5204   5212     1
   5205   5213     1
   5205   5208     1
   5205   5209     1
   5205   5210     1
   5206   5213     1
   5206   5208     1
   5206   5209     1
   5206   5210     1
   5214   5221     1
   5214   5222     1
   5215   5220     1
   5215   5218     1
   5215   5219     1
   5215   5224     1
   5215   5225     1
   5216   5220     1
   5216   5218     1
   5216   5219     1
   5216   5224     1
   5216   5225     1
   5217   5224     1
   5217   5225     1
   5218   5223     1
   5218   5226     1
   5218   5221     1
   5218   5222     1
   5219   5223     1
   5219   5226     1
   5219   5221     1
   5219   5222     1
   5227   5234     1
   5227   5235     1
   5228   5233     1
   5228   5231     1
   5228   5232     1
   5228   5237     1
   5228   5238     1
   5229   5233     1
   5229   5231     1
   5229   5232     1
   5229   5237     1
   5229   5238     1
   5230   5237     1
   5230   5238     1
   5231   5239     1
   5231   5234     1
   5231   5235     1
   5231   5236     1
   5232   5239     1
   5232   5234     1
   5232   5235     1
   5232   5236     1
   5240   5247     1
   5240   5248     1
   5241   5246     1
   5241   5244     1
   5241   5245     1
   5241   5250     1
   5241   5251     1
   5242   5246     1
   5242   5244     1
   5242   5245     1
   5242   5250     1
   5242   5251     1
   5243   5250     1
   5243   5251     1
   5244   5249     1
   5244   5252     1
   5244   5247     1
   5244   5248     1
   5245   5249     1
   5245   5252     1
   5245   5247     1
   5245   5248     1
   5253   5260     1
   5253   5261     1
   5254   5259     1
   5254   5257     1
   5254   5258     1
   5254   5263     1
   5254   5264     1
   5255   5259     1
   5255   5257     1
   5255   5258     1
   5255   5263     1
   5255   5264     1
   5256   5263     1
   5256   5264     1
   5257   5265     1
   5257   5260     1
   5257   5261     1
   5257   5262     1
   5258   5265     1
   5258   5260     1
   5258   5261     1
   5258   5262     1
   5266   5273     1
   5266   5274     1
   5267   5272     1
   5267   5270     1
   5267   5271     1
   5267   5276     1
   5267   5277     1
   5268   5272     1
   5268   5270     1
   5268   5271     1
   5268   5276     1
   5268   5277     1
   5269   5276     1
   5269   5277     1
   5270   5275     1
   5270   5278     1
   5270   5273     1
   5270   5274     1
   5271   5275     1
   5271   5278     1
   5271   5273     1
   5271   5274     1
   5279   5286     1
   5279   5287     1
   5280   5285     1
   5280   5283     1
   5280   5284     1
   5280   5289     1
   5280   5290     1
   5281   5285     1
   5281   5283     1
   5281   5284     1
   5281   5289     1
   5281   5290     1
   5282   5289     1
   5282   5290     1
   5283   5291     1
   5283   5286     1
   5283   5287     1
   5283   5288     1
   5284   5291     1
   5284   5286     1
   5284   5287     1
   5284   5288     1
   5292   5299     1
   5292   5300     1
   5293   5298     1
   5293   5296     1
   5293   5297     1
   5293   5302     1
   5293   5303     1
   5294   5298     1
   5294   5296     1
   5294   5297     1
   5294   5302     1
   5294   5303     1
   5295   5302     1
   5295   5303     1
   5296   5301     1
   5296   5304     1
   5296   5299     1
   5296   5300     1
   5297   5301     1
   5297   5304     1
   5297   5299     1
   5297   5300     1
   5305   5312     1
   5305   5313     1
   5306   5311     1
   5306   5309     1
   5306   5310     1
   5306   5315     1
   5306   5316     1
   5307   5311     1
   5307   5309     1
   5307   5310     1
   5307   5315     1
   5307   5316     1
   5308   5315     1
   5308   5316     1
   5309   5317     1
   5309   5312     1
   5309   5313     1
   5309   5314     1
   5310   5317     1
   5310   5312     1
   5310   5313     1
   5310   5314     1

[ angles ]
;    ai     aj     ak funct         c0         c1         c2         c3
      1      2      8     1   107.9700462 569.024000
      1      5     11     1   107.9700462 569.024000
      2      1      5     1   112.4800480 524.673600
      2      8     14     1   111.5100476 526.347200
      5     11     17     1   111.5100476 526.347200
      8     14     20     1   111.0400475 552.288000
     11     17     21     1   111.0400475 552.288000
     14     20     28     1   112.3500484 533.878400
     14     20     31     1   112.3500484 533.878400
     17     21     22     1   112.3500484 533.878400
     17     21     25     1   112.3500484 533.878400
     20     28     40     1   111.0400475 552.288000
     20     31     43     1   111.0400475 552.288000
     21     22     34     1   111.0400475 552.288000
     21     25     37     1   111.0400475 552.288000
     22     21     25     1   112.3500484 533.878400
     22     34     55     1   111.5100476 526.347200
     25     37     52     1   111.5100476 526.347200
     28     20     31     1   112.3500484 533.878400
     28     40     49     1   111.5100476 526.347200
     31     43     46     1   111.5100476 526.347200
     34     55    173     1   107.9700462 569.024000
     37     52    144     1   107.9700462 569.024000
     40     49    115     1   107.9700462 569.024000
     43     46     86     1   107.9700462 569.024000
     46     86     77     1   112.4800480 524.673600
     49    115    106     1   112.4800480 524.673600
     52    144    135     1   112.4800480 524.673600
     55    173    164     1   112.4800480 524.673600
     58     59     71     1   111.0400475 552.288000
     58     62     74     1   111.0400475 552.288000
     58     65     68     1   111.0400475 552.288000
     59     58     62     1   112.3500484 533.878400
     59     58     65     1   112.3500484 533.878400
     59     71     83     1   111.5100476 526.347200
     62     58     65     1   112.3500484 533.878400
     62     74     80     1   111.5100476 526.347200
     65     68     77     1   111.5100476 526.347200
     68     77     86     1   107.9700462 569.024000
     71     83    231     1   107.9700462 569.024000
     74     80    202     1   107.9700462 569.024000
     80    202    193     1   112.4800480 524.673600
     83    231    222     1   112.4800480 524.673600
     87     88    100     1   111.0400475 552.288000
     87     91    103     1   111.0400475 552.288000
     87     94     97     1   111.0400475 552.288000
     88     87     91     1   112.3500484 533.878400
     88     87     94     1   112.3500484 533.878400
     88    100    112     1   111.5100476 526.347200
     91     87     94     1   112.3500484 533.878400
     91    103    109     1   111.5100476 526.347200
     94     97    106     1   111.5100476 526.347200
     97    106    115     1   107.9700462 569.024000
    100    112    289     1   107.9700462 569.024000
    103    109    260     1   107.9700462 569.024000
    109    260    251     1   112.4800480 524.673600
    112    289    280     1   112.4800480 524.673600
    116    117    129     1   111.0400475 552.288000
    116    120    132     1   111.0400475 552.288000
    116    123    126     1   111.0400475 552.288000
    117    116    120     1   112.3500484 533.878400
    117    116    123     1   112.3500484 533.878400
    117    129    141     1   111.5100476 526.347200
    120    116    123     1   112.3500484 533.878400
    120    132    138     1   111.5100476 526.347200
    123    126    135     1   111.5100476 526.347200
    126    135    144     1   107.9700462 569.024000
    129    141    347     1   107.9700462 569.024000
    132    138    318     1   107.9700462 569.024000
    138    318    309     1   112.4800480 524.673600
    141    347    338     1   112.4800480 524.673600
    145    146    158     1   111.0400475 552.288000
    145    149    161     1   111.0400475 552.288000
    145    152    155     1   111.0400475 552.288000
    146    145    149     1   112.3500484 533.878400
    146    145    152     1   112.3500484 533.878400
    146    158    170     1   111.5100476 526.347200
    149    145    152     1   112.3500484 533.878400
    149    161    167     1   111.5100476 526.347200
    152    155    164     1   111.5100476 526.347200
    155    164    173     1   107.9700462 569.024000
    158    170    405     1   107.9700462 569.024000
    161    167    376     1   107.9700462 569.024000
    167    376    367     1   112.4800480 524.673600
    170    405    396     1   112.4800480 524.673600
    174    175    187     1   111.0400475 552.288000
    174    178    190     1   111.0400475 552.288000
    174    181    184     1   111.0400475 552.288000
    175    174    178     1   112.3500484 533.878400
    175    174    181     1   112.3500484 533.878400
    175    187    199     1   111.5100476 526.347200
    178    174    181     1   112.3500484 533.878400
    178    190    196     1   111.5100476 526.347200
    181    184    193     1   111.5100476 526.347200
    184    193    202     1   107.9700462 569.024000
    187    199    463     1   107.9700462 569.024000
    190    196    434     1   107.9700462 569.024000
    196    434    425     1   112.4800480 524.673600
    199    463    454     1   112.4800480 524.673600
    203    204    216     1   111.0400475 552.288000
    203    207    219     1   111.0400475 552.288000
    203    210    213     1   111.0400475 552.288000
    204    203    207     1   112.3500484 533.878400
    204    203    210     1   112.3500484 533.878400
    204    216    228     1   111.5100476 526.347200
    207    203    210     1   112.3500484 533.878400
    207    219    225     1   111.5100476 526.347200
    210    213    222     1   111.5100476 526.347200
    213    222    231     1   107.9700462 569.024000
    216    228    521     1   107.9700462 569.024000
    219    225    492     1   107.9700462 569.024000
    225    492    483     1   112.4800480 524.673600
    228    521    512     1   112.4800480 524.673600
    232    233    245     1   111.0400475 552.288000
    232    236    248     1   111.0400475 552.288000
    232    239    242     1   111.0400475 552.288000
    233    232    236     1   112.3500484 533.878400
    233    232    239     1   112.3500484 533.878400
    233    245    257     1   111.5100476 526.347200
    236    232    239     1   112.3500484 533.878400
    236    248    254     1   111.5100476 526.347200
    239    242    251     1   111.5100476 526.347200
    242    251    260     1   107.9700462 569.024000
    245    257    579     1   107.9700462 569.024000
    248    254    550     1   107.9700462 569.024000
    254    550    541     1   112.4800480 524.673600
    257    579    570     1   112.4800480 524.673600
    261    262    274     1   111.0400475 552.288000
    261    265    277     1   111.0400475 552.288000
    261    268    271     1   111.0400475 552.288000
    262    261    265     1   112.3500484 533.878400
    262    261    268     1   112.3500484 533.878400
    262    274    286     1   111.5100476 526.347200
    265    261    268     1   112.3500484 533.878400
    265    277    283     1   111.5100476 526.347200
    268    271    280     1   111.5100476 526.347200
    271    280    289     1   107.9700462 569.024000
    274    286    637     1   107.9700462 569.024000
    277    283    608     1   107.9700462 569.024000
    283    608    599     1   112.4800480 524.673600
    286    637    628     1   112.4800480 524.673600
    290    291    303     1   111.0400475 552.288000
    290    294    306     1   111.0400475 552.288000
    290    297    300     1   111.0400475 552.288000
    291    290    294     1   112.3500484 533.878400
    291    290    297     1   112.3500484 533.878400
    291    303    315     1   111.5100476 526.347200
    294    290    297     1   112.3500484 533.878400
    294    306    312     1   111.5100476 526.347200
    297    300    309     1   111.5100476 526.347200
    300    309    318     1   107.9700462 569.024000
    303    315    695     1   107.9700462 569.024000
    306    312    666     1   107.9700462 569.024000
    312    666    657     1   112.4800480 524.673600
    315    695    686     1   112.4800480 524.673600
    319    320    332     1   111.0400475 552.288000
    319    323    335     1   111.0400475 552.288000
    319    326    329     1   111.0400475 552.288000
    320    319    323     1   112.3500484 533.878400
    320    319    326     1   112.3500484 533.878400
    320    332    344     1   111.5100476 526.347200
    323    319    326     1   112.3500484 533.878400
    323    335    341     1   111.5100476 526.347200
    326    329    338     1   111.5100476 526.347200
    329    338    347     1   107.9700462 569.024000
    332    344    753     1   107.9700462 569.024000
    335    341    724     1   107.9700462 569.024000
    341    724    715     1   112.4800480 524.673600
    344    753    744     1   112.4800480 524.673600
    348    349    361     1   111.0400475 552.288000
    348    352    364     1   111.0400475 552.288000
    348    355    358     1   111.0400475 552.288000
    349    348    352     1   112.3500484 533.878400
    349    348    355     1   112.3500484 533.878400
    349    361    373     1   111.5100476 526.347200
    352    348    355     1   112.3500484 533.878400
    352    364    370     1   111.5100476 526.347200
    355    358    367     1   111.5100476 526.347200
    358    367    376     1   107.9700462 569.024000
    361    373    811     1   107.9700462 569.024000
    364    370    782     1   107.9700462 569.024000
    370    782    773     1   112.4800480 524.673600
    373    811    802     1   112.4800480 524.673600
    377    378    390     1   111.0400475 552.288000
    377    381    393     1   111.0400475 552.288000
    377    384    387     1   111.0400475 552.288000
    378    377    381     1   112.3500484 533.878400
    378    377    384     1   112.3500484 533.878400
    378    390    402     1   111.5100476 526.347200
    381    377    384     1   112.3500484 533.878400
    381    393    399     1   111.5100476 526.347200
    384    387    396     1   111.5100476 526.347200
    387    396    405     1   107.9700462 569.024000
    390    402    869     1   107.9700462 569.024000
    393    399    840     1   107.9700462 569.024000
    399    840    831     1   112.4800480 524.673600
    402    869    860     1   112.4800480 524.673600
    406    407    419     1   111.0400475 552.288000
    406    410    422     1   111.0400475 552.288000
    406    413    416     1   111.0400475 552.288000
    407    406    410     1   112.3500484 533.878400
    407    406    413     1   112.3500484 533.878400
    407    419    431     1   111.5100476 526.347200
    410    406    413     1   112.3500484 533.878400
    410    422    428     1   111.5100476 526.347200
    413    416    425     1   111.5100476 526.347200
    416    425    434     1   107.9700462 569.024000
    419    431    927     1   107.9700462 569.024000
    422    428    898     1   107.9700462 569.024000
    428    898    889     1   112.4800480 524.673600
    431    927    918     1   112.4800480 524.673600
    435    436    448     1   111.0400475 552.288000
    435    439    451     1   111.0400475 552.288000
    435    442    445     1   111.0400475 552.288000
    436    435    439     1   112.3500484 533.878400
    436    435    442     1   112.3500484 533.878400
    436    448    460     1   111.5100476 526.347200
    439    435    442     1   112.3500484 533.878400
    439    451    457     1   111.5100476 526.347200
    442    445    454     1   111.5100476 526.347200
    445    454    463     1   107.9700462 569.024000
    448    460    985     1   107.9700462 569.024000
    451    457    956     1   107.9700462 569.024000
    457    956    947     1   112.4800480 524.673600
    460    985    976     1   112.4800480 524.673600
    464    465    477     1   111.0400475 552.288000
    464    468    480     1   111.0400475 552.288000
    464    471    474     1   111.0400475 552.288000
    465    464    468     1   112.3500484 533.878400
    465    464    471     1   112.3500484 533.878400
    465    477    489     1   111.5100476 526.347200
    468    464    471     1   112.3500484 533.878400
    468    480    486     1   111.5100476 526.347200
    471    474    483     1   111.5100476 526.347200
    474    483    492     1   107.9700462 569.024000
    477    489   1043     1   107.9700462 569.024000
    480    486   1014     1   107.9700462 569.024000
    486   1014   1005     1   112.4800480 524.673600
    489   1043   1034     1   112.4800480 524.673600
    493    494    506     1   111.0400475 552.288000
    493    497    509     1   111.0400475 552.288000
    493    500    503     1   111.0400475 552.288000
    494    493    497     1   112.3500484 533.878400
    494    493    500     1   112.3500484 533.878400
    494    506    518     1   111.5100476 526.347200
    497    493    500     1   112.3500484 533.878400
    497    509    515     1   111.5100476 526.347200
    500    503    512     1   111.5100476 526.347200
    503    512    521     1   107.9700462 569.024000
    506    518   1101     1   107.9700462 569.024000
    509    515   1072     1   107.9700462 569.024000
    515   1072   1063     1   112.4800480 524.673600
    518   1101   1092     1   112.4800480 524.673600
    522    523    535     1   111.0400475 552.288000
    522    526    538     1   111.0400475 552.288000
    522    529    532     1   111.0400475 552.288000
    523    522    526     1   112.3500484 533.878400
    523    522    529     1   112.3500484 533.878400
    523    535    547     1   111.5100476 526.347200
    526    522    529     1   112.3500484 533.878400
    526    538    544     1   111.5100476 526.347200
    529    532    541     1   111.5100476 526.347200
    532    541    550     1   107.9700462 569.024000
    535    547   1159     1   107.9700462 569.024000
    538    544   1130     1   107.9700462 569.024000
    544   1130   1121     1   112.4800480 524.673600
    547   1159   1150     1   112.4800480 524.673600
    551    552    564     1   111.0400475 552.288000
    551    555    567     1   111.0400475 552.288000
    551    558    561     1   111.0400475 552.288000
    552    551    555     1   112.3500484 533.878400
    552    551    558     1   112.3500484 533.878400
    552    564    576     1   111.5100476 526.347200
    555    551    558     1   112.3500484 533.878400
    555    567    573     1   111.5100476 526.347200
    558    561    570     1   111.5100476 526.347200
    561    570    579     1   107.9700462 569.024000
    564    576   1217     1   107.9700462 569.024000
    567    573   1188     1   107.9700462 569.024000
    573   1188   1179     1   112.4800480 524.673600
    576   1217   1208     1   112.4800480 524.673600
    580    581    593     1   111.0400475 552.288000
    580    584    596     1   111.0400475 552.288000
    580    587    590     1   111.0400475 552.288000
    581    580    584     1   112.3500484 533.878400
    581    580    587     1   112.3500484 533.878400
    581    593    605     1   111.5100476 526.347200
    584    580    587     1   112.3500484 533.878400
    584    596    602     1   111.5100476 526.347200
    587    590    599     1   111.5100476 526.347200
    590    599    608     1   107.9700462 569.024000
    593    605   1275     1   107.9700462 569.024000
    596    602   1246     1   107.9700462 569.024000
    602   1246   1237     1   112.4800480 524.673600
    605   1275   1266     1   112.4800480 524.673600
    609    610    622     1   111.0400475 552.288000
    609    613    625     1   111.0400475 552.288000
    609    616    619     1   111.0400475 552.288000
    610    609    613     1   112.3500484 533.878400
    610    609    616     1   112.3500484 533.878400
    610    622    634     1   111.5100476 526.347200
    613    609    616     1   112.3500484 533.878400
    613    625    631     1   111.5100476 526.347200
    616    619    628     1   111.5100476 526.347200
    619    628    637     1   107.9700462 569.024000
    622    634   1333     1   107.9700462 569.024000
    625    631   1304     1   107.9700462 569.024000
    631   1304   1295     1   112.4800480 524.673600
    634   1333   1324     1   112.4800480 524.673600
    638    639    651     1   111.0400475 552.288000
    638    642    654     1   111.0400475 552.288000
    638    645    648     1   111.0400475 552.288000
    639    638    642     1   112.3500484 533.878400
    639    638    645     1   112.3500484 533.878400
    639    651    663     1   111.5100476 526.347200
    642    638    645     1   112.3500484 533.878400
    642    654    660     1   111.5100476 526.347200
    645    648    657     1   111.5100476 526.347200
    648    657    666     1   107.9700462 569.024000
    651    663   1391     1   107.9700462 569.024000
    654    660   1362     1   107.9700462 569.024000
    660   1362   1353     1   112.4800480 524.673600
    663   1391   1382     1   112.4800480 524.673600
    667    668    680     1   111.0400475 552.288000
    667    671    683     1   111.0400475 552.288000
    667    674    677     1   111.0400475 552.288000
    668    667    671     1   112.3500484 533.878400
    668    667    674     1   112.3500484 533.878400
    668    680    692     1   111.5100476 526.347200
    671    667    674     1   112.3500484 533.878400
    671    683    689     1   111.5100476 526.347200
    674    677    686     1   111.5100476 526.347200
    677    686    695     1   107.9700462 569.024000
    680    692   1449     1   107.9700462 569.024000
    683    689   1420     1   107.9700462 569.024000
    689   1420   1411     1   112.4800480 524.673600
    692   1449   1440     1   112.4800480 524.673600
    696    697    709     1   111.0400475 552.288000
    696    700    712     1   111.0400475 552.288000
    696    703    706     1   111.0400475 552.288000
    697    696    700     1   112.3500484 533.878400
    697    696    703     1   112.3500484 533.878400
    697    709    721     1   111.5100476 526.347200
    700    696    703     1   112.3500484 533.878400
    700    712    718     1   111.5100476 526.347200
    703    706    715     1   111.5100476 526.347200
    706    715    724     1   107.9700462 569.024000
    709    721   1507     1   107.9700462 569.024000
    712    718   1478     1   107.9700462 569.024000
    718   1478   1469     1   112.4800480 524.673600
    721   1507   1498     1   112.4800480 524.673600
    725    726    738     1   111.0400475 552.288000
    725    729    741     1   111.0400475 552.288000
    725    732    735     1   111.0400475 552.288000
    726    725    729     1   112.3500484 533.878400
    726    725    732     1   112.3500484 533.878400
    726    738    750     1   111.5100476 526.347200
    729    725    732     1   112.3500484 533.878400
    729    741    747     1   111.5100476 526.347200
    732    735    744     1   111.5100476 526.347200
    735    744    753     1   107.9700462 569.024000
    738    750   1565     1   107.9700462 569.024000
    741    747   1536     1   107.9700462 569.024000
    747   1536   1527     1   112.4800480 524.673600
    750   1565   1556     1   112.4800480 524.673600
    754    755    767     1   111.0400475 552.288000
    754    758    770     1   111.0400475 552.288000
    754    761    764     1   111.0400475 552.288000
    755    754    758     1   112.3500484 533.878400
    755    754    761     1   112.3500484 533.878400
    755    767    779     1   111.5100476 526.347200
    758    754    761     1   112.3500484 533.878400
    758    770    776     1   111.5100476 526.347200
    761    764    773     1   111.5100476 526.347200
    764    773    782     1   107.9700462 569.024000
    767    779   1623     1   107.9700462 569.024000
    770    776   1594     1   107.9700462 569.024000
    776   1594   1585     1   112.4800480 524.673600
    779   1623   1614     1   112.4800480 524.673600
    783    784    796     1   111.0400475 552.288000
    783    787    799     1   111.0400475 552.288000
    783    790    793     1   111.0400475 552.288000
    784    783    787     1   112.3500484 533.878400
    784    783    790     1   112.3500484 533.878400
    784    796    808     1   111.5100476 526.347200
    787    783    790     1   112.3500484 533.878400
    787    799    805     1   111.5100476 526.347200
    790    793    802     1   111.5100476 526.347200
    793    802    811     1   107.9700462 569.024000
    796    808   1681     1   107.9700462 569.024000
    799    805   1652     1   107.9700462 569.024000
    805   1652   1643     1   112.4800480 524.673600
    808   1681   1672     1   112.4800480 524.673600
    812    813    825     1   111.0400475 552.288000
    812    816    828     1   111.0400475 552.288000
    812    819    822     1   111.0400475 552.288000
    813    812    816     1   112.3500484 533.878400
    813    812    819     1   112.3500484 533.878400
    813    825    837     1   111.5100476 526.347200
    816    812    819     1   112.3500484 533.878400
    816    828    834     1   111.5100476 526.347200
    819    822    831     1   111.5100476 526.347200
    822    831    840     1   107.9700462 569.024000
    825    837   1739     1   107.9700462 569.024000
    828    834   1710     1   107.9700462 569.024000
    834   1710   1701     1   112.4800480 524.673600
    837   1739   1730     1   112.4800480 524.673600
    841    842    854     1   111.0400475 552.288000
    841    845    857     1   111.0400475 552.288000
    841    848    851     1   111.0400475 552.288000
    842    841    845     1   112.3500484 533.878400
    842    841    848     1   112.3500484 533.878400
    842    854    866     1   111.5100476 526.347200
    845    841    848     1   112.3500484 533.878400
    845    857    863     1   111.5100476 526.347200
    848    851    860     1   111.5100476 526.347200
    851    860    869     1   107.9700462 569.024000
    854    866   1797     1   107.9700462 569.024000
    857    863   1768     1   107.9700462 569.024000
    863   1768   1759     1   112.4800480 524.673600
    866   1797   1788     1   112.4800480 524.673600
    870    871    883     1   111.0400475 552.288000
    870    874    886     1   111.0400475 552.288000
    870    877    880     1   111.0400475 552.288000
    871    870    874     1   112.3500484 533.878400
    871    870    877     1   112.3500484 533.878400
    871    883    895     1   111.5100476 526.347200
    874    870    877     1   112.3500484 533.878400
    874    886    892     1   111.5100476 526.347200
    877    880    889     1   111.5100476 526.347200
    880    889    898     1   107.9700462 569.024000
    883    895   1855     1   107.9700462 569.024000
    886    892   1826     1   107.9700462 569.024000
    892   1826   1817     1   112.4800480 524.673600
    895   1855   1846     1   112.4800480 524.673600
    899    900    912     1   111.0400475 552.288000
    899    903    915     1   111.0400475 552.288000
    899    906    909     1   111.0400475 552.288000
    900    899    903     1   112.3500484 533.878400
    900    899    906     1   112.3500484 533.878400
    900    912    924     1   111.5100476 526.347200
    903    899    906     1   112.3500484 533.878400
    903    915    921     1   111.5100476 526.347200
    906    909    918     1   111.5100476 526.347200
    909    918    927     1   107.9700462 569.024000
    912    924   1913     1   107.9700462 569.024000
    915    921   1884     1   107.9700462 569.024000
    921   1884   1875     1   112.4800480 524.673600
    924   1913   1904     1   112.4800480 524.673600
    928    929    941     1   111.0400475 552.288000
    928    932    944     1   111.0400475 552.288000
    928    935    938     1   111.0400475 552.288000
    929    928    932     1   112.3500484 533.878400
    929    928    935     1   112.3500484 533.878400
    929    941    953     1   111.5100476 526.347200
    932    928    935     1   112.3500484 533.878400
    932    944    950     1   111.5100476 526.347200
    935    938    947     1   111.5100476 526.347200
    938    947    956     1   107.9700462 569.024000
    941    953   1971     1   107.9700462 569.024000
    944    950   1942     1   107.9700462 569.024000
    950   1942   1933     1   112.4800480 524.673600
    953   1971   1962     1   112.4800480 524.673600
    957    958    970     1   111.0400475 552.288000
    957    961    973     1   111.0400475 552.288000
    957    964    967     1   111.0400475 552.288000
    958    957    961     1   112.3500484 533.878400
    958    957    964     1   112.3500484 533.878400
    958    970    982     1   111.5100476 526.347200
    961    957    964     1   112.3500484 533.878400
    961    973    979     1   111.5100476 526.347200
    964    967    976     1   111.5100476 526.347200
    967    976    985     1   107.9700462 569.024000
    970    982   2029     1   107.9700462 569.024000
    973    979   2000     1   107.9700462 569.024000
    979   2000   1991     1   112.4800480 524.673600
    982   2029   2020     1   112.4800480 524.673600
    986    987    999     1   111.0400475 552.288000
    986    990   1002     1   111.0400475 552.288000
    986    993    996     1   111.0400475 552.288000
    987    986    990     1   112.3500484 533.878400
    987    986    993     1   112.3500484 533.878400
    987    999   1011     1   111.5100476 526.347200
    990    986    993     1   112.3500484 533.878400
    990   1002   1008     1   111.5100476 526.347200
    993    996   1005     1   111.5100476 526.347200
    996   1005   1014     1   107.9700462 569.024000
    999   1011   2087     1   107.9700462 569.024000
   1002   1008   2058     1   107.9700462 569.024000
   1008   2058   2049     1   112.4800480 524.673600
   1011   2087   2078     1   112.4800480 524.673600
   1015   1016   1028     1   111.0400475 552.288000
   1015   1019   1031     1   111.0400475 552.288000
   1015   1022   1025     1   111.0400475 552.288000
   1016   1015   1019     1   112.3500484 533.878400
   1016   1015   1022     1   112.3500484 533.878400
   1016   1028   1040     1   111.5100476 526.347200
   1019   1015   1022     1   112.3500484 533.878400
   1019   1031   1037     1   111.5100476 526.347200
   1022   1025   1034     1   111.5100476 526.347200
   1025   1034   1043     1   107.9700462 569.024000
   1028   1040   2145     1   107.9700462 569.024000
   1031   1037   2116     1   107.9700462 569.024000
   1037   2116   2107     1   112.4800480 524.673600
   1040   2145   2136     1   112.4800480 524.673600
   1044   1045   1057     1   111.0400475 552.288000
   1044   1048   1060     1   111.0400475 552.288000
   1044   1051   1054     1   111.0400475 552.288000
   1045   1044   1048     1   112.3500484 533.878400
   1045   1044   1051     1   112.3500484 533.878400
   1045   1057   1069     1   111.5100476 526.347200
   1048   1044   1051     1   112.3500484 533.878400
   1048   1060   1066     1   111.5100476 526.347200
   1051   1054   1063     1   111.5100476 526.347200
   1054   1063   1072     1   107.9700462 569.024000
   1057   1069   2203     1   107.9700462 569.024000
   1060   1066   2174     1   107.9700462 569.024000
   1066   2174   2165     1   112.4800480 524.673600
   1069   2203   2194     1   112.4800480 524.673600
   1073   1074   1086     1   111.0400475 552.288000
   1073   1077   1089     1   111.0400475 552.288000
   1073   1080   1083     1   111.0400475 552.288000
   1074   1073   1077     1   112.3500484 533.878400
   1074   1073   1080     1   112.3500484 533.878400
   1074   1086   1098     1   111.5100476 526.347200
   1077   1073   1080     1   112.3500484 533.878400
   1077   1089   1095     1   111.5100476 526.347200
   1080   1083   1092     1   111.5100476 526.347200
   1083   1092   1101     1   107.9700462 569.024000
   1086   1098   2261     1   107.9700462 569.024000
   1089   1095   2232     1   107.9700462 569.024000
   1095   2232   2223     1   112.4800480 524.673600
   1098   2261   2252     1   112.4800480 524.673600
   1102   1103   1115     1   111.0400475 552.288000
   1102   1106   1118     1   111.0400475 552.288000
   1102   1109   1112     1   111.0400475 552.288000
   1103   1102   1106     1   112.3500484 533.878400
   1103   1102   1109     1   112.3500484 533.878400
   1103   1115   1127     1   111.5100476 526.347200
   1106   1102   1109     1   112.3500484 533.878400
   1106   1118   1124     1   111.5100476 526.347200
   1109   1112   1121     1   111.5100476 526.347200
   1112   1121   1130     1   107.9700462 569.024000
   1115   1127   2319     1   107.9700462 569.024000
   1118   1124   2290     1   107.9700462 569.024000
   1124   2290   2281     1   112.4800480 524.673600
   1127   2319   2310     1   112.4800480 524.673600
   1131   1132   1144     1   111.0400475 552.288000
   1131   1135   1147     1   111.0400475 552.288000
   1131   1138   1141     1   111.0400475 552.288000
   1132   1131   1135     1   112.3500484 533.878400
   1132   1131   1138     1   112.3500484 533.878400
   1132   1144   1156     1   111.5100476 526.347200
   1135   1131   1138     1   112.3500484 533.878400
   1135   1147   1153     1   111.5100476 526.347200
   1138   1141   1150     1   111.5100476 526.347200
   1141   1150   1159     1   107.9700462 569.024000
   1144   1156   2377     1   107.9700462 569.024000
   1147   1153   2348     1   107.9700462 569.024000
   1153   2348   2339     1   112.4800480 524.673600
   1156   2377   2368     1   112.4800480 524.673600
   1160   1161   1173     1   111.0400475 552.288000
   1160   1164   1176     1   111.0400475 552.288000
   1160   1167   1170     1   111.0400475 552.288000
   1161   1160   1164     1   112.3500484 533.878400
   1161   1160   1167     1   112.3500484 533.878400
   1161   1173   1185     1   111.5100476 526.347200
   1164   1160   1167     1   112.3500484 533.878400
   1164   1176   1182     1   111.5100476 526.347200
   1167   1170   1179     1   111.5100476 526.347200
   1170   1179   1188     1   107.9700462 569.024000
   1173   1185   2435     1   107.9700462 569.024000
   1176   1182   2406     1   107.9700462 569.024000
   1182   2406   2397     1   112.4800480 524.673600
   1185   2435   2426     1   112.4800480 524.673600
   1189   1190   1202     1   111.0400475 552.288000
   1189   1193   1205     1   111.0400475 552.288000
   1189   1196   1199     1   111.0400475 552.288000
   1190   1189   1193     1   112.3500484 533.878400
   1190   1189   1196     1   112.3500484 533.878400
   1190   1202   1214     1   111.5100476 526.347200
   1193   1189   1196     1   112.3500484 533.878400
   1193   1205   1211     1   111.5100476 526.347200
   1196   1199   1208     1   111.5100476 526.347200
   1199   1208   1217     1   107.9700462 569.024000
   1202   1214   2493     1   107.9700462 569.024000
   1205   1211   2464     1   107.9700462 569.024000
   1211   2464   2455     1   112.4800480 524.673600
   1214   2493   2484     1   112.4800480 524.673600
   1218   1219   1231     1   111.0400475 552.288000
   1218   1222   1234     1   111.0400475 552.288000
   1218   1225   1228     1   111.0400475 552.288000
   1219   1218   1222     1   112.3500484 533.878400
   1219   1218   1225     1   112.3500484 533.878400
   1219   1231   1243     1   111.5100476 526.347200
   1222   1218   1225     1   112.3500484 533.878400
   1222   1234   1240     1   111.5100476 526.347200
   1225   1228   1237     1   111.5100476 526.347200
   1228   1237   1246     1   107.9700462 569.024000
   1231   1243   2551     1   107.9700462 569.024000
   1234   1240   2522     1   107.9700462 569.024000
   1240   2522   2513     1   112.4800480 524.673600
   1243   2551   2542     1   112.4800480 524.673600
   1247   1248   1260     1   111.0400475 552.288000
   1247   1251   1263     1   111.0400475 552.288000
   1247   1254   1257     1   111.0400475 552.288000
   1248   1247   1251     1   112.3500484 533.878400
   1248   1247   1254     1   112.3500484 533.878400
   1248   1260   1272     1   111.5100476 526.347200
   1251   1247   1254     1   112.3500484 533.878400
   1251   1263   1269     1   111.5100476 526.347200
   1254   1257   1266     1   111.5100476 526.347200
   1257   1266   1275     1   107.9700462 569.024000
   1260   1272   2609     1   107.9700462 569.024000
   1263   1269   2580     1   107.9700462 569.024000
   1269   2580   2571     1   112.4800480 524.673600
   1272   2609   2600     1   112.4800480 524.673600
   1276   1277   1289     1   111.0400475 552.288000
   1276   1280   1292     1   111.0400475 552.288000
   1276   1283   1286     1   111.0400475 552.288000
   1277   1276   1280     1   112.3500484 533.878400
   1277   1276   1283     1   112.3500484 533.878400
   1277   1289   1301     1   111.5100476 526.347200
   1280   1276   1283     1   112.3500484 533.878400
   1280   1292   1298     1   111.5100476 526.347200
   1283   1286   1295     1   111.5100476 526.347200
   1286   1295   1304     1   107.9700462 569.024000
   1289   1301   2667     1   107.9700462 569.024000
   1292   1298   2638     1   107.9700462 569.024000
   1298   2638   2629     1   112.4800480 524.673600
   1301   2667   2658     1   112.4800480 524.673600
   1305   1306   1318     1   111.0400475 552.288000
   1305   1309   1321     1   111.0400475 552.288000
   1305   1312   1315     1   111.0400475 552.288000
   1306   1305   1309     1   112.3500484 533.878400
   1306   1305   1312     1   112.3500484 533.878400
   1306   1318   1330     1   111.5100476 526.347200
   1309   1305   1312     1   112.3500484 533.878400
   1309   1321   1327     1   111.5100476 526.347200
   1312   1315   1324     1   111.5100476 526.347200
   1315   1324   1333     1   107.9700462 569.024000
   1318   1330   2725     1   107.9700462 569.024000
   1321   1327   2696     1   107.9700462 569.024000
   1327   2696   2687     1   112.4800480 524.673600
   1330   2725   2716     1   112.4800480 524.673600
   1334   1335   1347     1   111.0400475 552.288000
   1334   1338   1350     1   111.0400475 552.288000
   1334   1341   1344     1   111.0400475 552.288000
   1335   1334   1338     1   112.3500484 533.878400
   1335   1334   1341     1   112.3500484 533.878400
   1335   1347   1359     1   111.5100476 526.347200
   1338   1334   1341     1   112.3500484 533.878400
   1338   1350   1356     1   111.5100476 526.347200
   1341   1344   1353     1   111.5100476 526.347200
   1344   1353   1362     1   107.9700462 569.024000
   1347   1359   2783     1   107.9700462 569.024000
   1350   1356   2754     1   107.9700462 569.024000
   1356   2754   2745     1   112.4800480 524.673600
   1359   2783   2774     1   112.4800480 524.673600
   1363   1364   1376     1   111.0400475 552.288000
   1363   1367   1379     1   111.0400475 552.288000
   1363   1370   1373     1   111.0400475 552.288000
   1364   1363   1367     1   112.3500484 533.878400
   1364   1363   1370     1   112.3500484 533.878400
   1364   1376   1388     1   111.5100476 526.347200
   1367   1363   1370     1   112.3500484 533.878400
   1367   1379   1385     1   111.5100476 526.347200
   1370   1373   1382     1   111.5100476 526.347200
   1373   1382   1391     1   107.9700462 569.024000
   1376   1388   2841     1   107.9700462 569.024000
   1379   1385   2812     1   107.9700462 569.024000
   1385   2812   2803     1   112.4800480 524.673600
   1388   2841   2832     1   112.4800480 524.673600
   1392   1393   1405     1   111.0400475 552.288000
   1392   1396   1408     1   111.0400475 552.288000
   1392   1399   1402     1   111.0400475 552.288000
   1393   1392   1396     1   112.3500484 533.878400
   1393   1392   1399     1   112.3500484 533.878400
   1393   1405   1417     1   111.5100476 526.347200
   1396   1392   1399     1   112.3500484 533.878400
   1396   1408   1414     1   111.5100476 526.347200
   1399   1402   1411     1   111.5100476 526.347200
   1402   1411   1420     1   107.9700462 569.024000
   1405   1417   2899     1   107.9700462 569.024000
   1408   1414   2870     1   107.9700462 569.024000
   1414   2870   2861     1   112.4800480 524.673600
   1417   2899   2890     1   112.4800480 524.673600
   1421   1422   1434     1   111.0400475 552.288000
   1421   1425   1437     1   111.0400475 552.288000
   1421   1428   1431     1   111.0400475 552.288000
   1422   1421   1425     1   112.3500484 533.878400
   1422   1421   1428     1   112.3500484 533.878400
   1422   1434   1446     1   111.5100476 526.347200
   1425   1421   1428     1   112.3500484 533.878400
   1425   1437   1443     1   111.5100476 526.347200
   1428   1431   1440     1   111.5100476 526.347200
   1431   1440   1449     1   107.9700462 569.024000
   1434   1446   2957     1   107.9700462 569.024000
   1437   1443   2928     1   107.9700462 569.024000
   1443   2928   2919     1   112.4800480 524.673600
   1446   2957   2948     1   112.4800480 524.673600
   1450   1451   1463     1   111.0400475 552.288000
   1450   1454   1466     1   111.0400475 552.288000
   1450   1457   1460     1   111.0400475 552.288000
   1451   1450   1454     1   112.3500484 533.878400
   1451   1450   1457     1   112.3500484 533.878400
   1451   1463   1475     1   111.5100476 526.347200
   1454   1450   1457     1   112.3500484 533.878400
   1454   1466   1472     1   111.5100476 526.347200
   1457   1460   1469     1   111.5100476 526.347200
   1460   1469   1478     1   107.9700462 569.024000
   1463   1475   3015     1   107.9700462 569.024000
   1466   1472   2986     1   107.9700462 569.024000
   1472   2986   2977     1   112.4800480 524.673600
   1475   3015   3006     1   112.4800480 524.673600
   1479   1480   1492     1   111.0400475 552.288000
   1479   1483   1495     1   111.0400475 552.288000
   1479   1486   1489     1   111.0400475 552.288000
   1480   1479   1483     1   112.3500484 533.878400
   1480   1479   1486     1   112.3500484 533.878400
   1480   1492   1504     1   111.5100476 526.347200
   1483   1479   1486     1   112.3500484 533.878400
   1483   1495   1501     1   111.5100476 526.347200
   1486   1489   1498     1   111.5100476 526.347200
   1489   1498   1507     1   107.9700462 569.024000
   1492   1504   3073     1   107.9700462 569.024000
   1495   1501   3044     1   107.9700462 569.024000
   1501   3044   3035     1   112.4800480 524.673600
   1504   3073   3064     1   112.4800480 524.673600
   1508   1509   1521     1   111.0400475 552.288000
   1508   1512   1524     1   111.0400475 552.288000
   1508   1515   1518     1   111.0400475 552.288000
   1509   1508   1512     1   112.3500484 533.878400
   1509   1508   1515     1   112.3500484 533.878400
   1509   1521   1533     1   111.5100476 526.347200
   1512   1508   1515     1   112.3500484 533.878400
   1512   1524   1530     1   111.5100476 526.347200
   1515   1518   1527     1   111.5100476 526.347200
   1518   1527   1536     1   107.9700462 569.024000
   1521   1533   3131     1   107.9700462 569.024000
   1524   1530   3102     1   107.9700462 569.024000
   1530   3102   3093     1   112.4800480 524.673600
   1533   3131   3122     1   112.4800480 524.673600
   1537   1538   1550     1   111.0400475 552.288000
   1537   1541   1553     1   111.0400475 552.288000
   1537   1544   1547     1   111.0400475 552.288000
   1538   1537   1541     1   112.3500484 533.878400
   1538   1537   1544     1   112.3500484 533.878400
   1538   1550   1562     1   111.5100476 526.347200
   1541   1537   1544     1   112.3500484 533.878400
   1541   1553   1559     1   111.5100476 526.347200
   1544   1547   1556     1   111.5100476 526.347200
   1547   1556   1565     1   107.9700462 569.024000
   1550   1562   3189     1   107.9700462 569.024000
   1553   1559   3160     1   107.9700462 569.024000
   1559   3160   3151     1   112.4800480 524.673600
   1562   3189   3180     1   112.4800480 524.673600
   1566   1567   1579     1   111.0400475 552.288000
   1566   1570   1582     1   111.0400475 552.288000
   1566   1573   1576     1   111.0400475 552.288000
   1567   1566   1570     1   112.3500484 533.878400
   1567   1566   1573     1   112.3500484 533.878400
   1567   1579   1591     1   111.5100476 526.347200
   1570   1566   1573     1   112.3500484 533.878400
   1570   1582   1588     1   111.5100476 526.347200
   1573   1576   1585     1   111.5100476 526.347200
   1576   1585   1594     1   107.9700462 569.024000
   1579   1591   3247     1   107.9700462 569.024000
   1582   1588   3218     1   107.9700462 569.024000
   1588   3218   3209     1   112.4800480 524.673600
   1591   3247   3238     1   112.4800480 524.673600
   1595   1596   1608     1   111.0400475 552.288000
   1595   1599   1611     1   111.0400475 552.288000
   1595   1602   1605     1   111.0400475 552.288000
   1596   1595   1599     1   112.3500484 533.878400
   1596   1595   1602     1   112.3500484 533.878400
   1596   1608   1620     1   111.5100476 526.347200
   1599   1595   1602     1   112.3500484 533.878400
   1599   1611   1617     1   111.5100476 526.347200
   1602   1605   1614     1   111.5100476 526.347200
   1605   1614   1623     1   107.9700462 569.024000
   1608   1620   3305     1   107.9700462 569.024000
   1611   1617   3276     1   107.9700462 569.024000
   1617   3276   3267     1   112.4800480 524.673600
   1620   3305   3296     1   112.4800480 524.673600
   1624   1625   1637     1   111.0400475 552.288000
   1624   1628   1640     1   111.0400475 552.288000
   1624   1631   1634     1   111.0400475 552.288000
   1625   1624   1628     1   112.3500484 533.878400
   1625   1624   1631     1   112.3500484 533.878400
   1625   1637   1649     1   111.5100476 526.347200
   1628   1624   1631     1   112.3500484 533.878400
   1628   1640   1646     1   111.5100476 526.347200
   1631   1634   1643     1   111.5100476 526.347200
   1634   1643   1652     1   107.9700462 569.024000
   1637   1649   3363     1   107.9700462 569.024000
   1640   1646   3334     1   107.9700462 569.024000
   1646   3334   3325     1   112.4800480 524.673600
   1649   3363   3354     1   112.4800480 524.673600
   1653   1654   1666     1   111.0400475 552.288000
   1653   1657   1669     1   111.0400475 552.288000
   1653   1660   1663     1   111.0400475 552.288000
   1654   1653   1657     1   112.3500484 533.878400
   1654   1653   1660     1   112.3500484 533.878400
   1654   1666   1678     1   111.5100476 526.347200
   1657   1653   1660     1   112.3500484 533.878400
   1657   1669   1675     1   111.5100476 526.347200
   1660   1663   1672     1   111.5100476 526.347200
   1663   1672   1681     1   107.9700462 569.024000
   1666   1678   3421     1   107.9700462 569.024000
   1669   1675   3392     1   107.9700462 569.024000
   1675   3392   3383     1   112.4800480 524.673600
   1678   3421   3412     1   112.4800480 524.673600
   1682   1683   1695     1   111.0400475 552.288000
   1682   1686   1698     1   111.0400475 552.288000
   1682   1689   1692     1   111.0400475 552.288000
   1683   1682   1686     1   112.3500484 533.878400
   1683   1682   1689     1   112.3500484 533.878400
   1683   1695   1707     1   111.5100476 526.347200
   1686   1682   1689     1   112.3500484 533.878400
   1686   1698   1704     1   111.5100476 526.347200
   1689   1692   1701     1   111.5100476 526.347200
   1692   1701   1710     1   107.9700462 569.024000
   1695   1707   3479     1   107.9700462 569.024000
   1698   1704   3450     1   107.9700462 569.024000
   1704   3450   3441     1   112.4800480 524.673600
   1707   3479   3470     1   112.4800480 524.673600
   1711   1712   1724     1   111.0400475 552.288000
   1711   1715   1727     1   111.0400475 552.288000
   1711   1718   1721     1   111.0400475 552.288000
   1712   1711   1715     1   112.3500484 533.878400
   1712   1711   1718     1   112.3500484 533.878400
   1712   1724   1736     1   111.5100476 526.347200
   1715   1711   1718     1   112.3500484 533.878400
   1715   1727   1733     1   111.5100476 526.347200
   1718   1721   1730     1   111.5100476 526.347200
   1721   1730   1739     1   107.9700462 569.024000
   1724   1736   3537     1   107.9700462 569.024000
   1727   1733   3508     1   107.9700462 569.024000
   1733   3508   3499     1   112.4800480 524.673600
   1736   3537   3528     1   112.4800480 524.673600
   1740   1741   1753     1   111.0400475 552.288000
   1740   1744   1756     1   111.0400475 552.288000
   1740   1747   1750     1   111.0400475 552.288000
   1741   1740   1744     1   112.3500484 533.878400
   1741   1740   1747     1   112.3500484 533.878400
   1741   1753   1765     1   111.5100476 526.347200
   1744   1740   1747     1   112.3500484 533.878400
   1744   1756   1762     1   111.5100476 526.347200
   1747   1750   1759     1   111.5100476 526.347200
   1750   1759   1768     1   107.9700462 569.024000
   1753   1765   3595     1   107.9700462 569.024000
   1756   1762   3566     1   107.9700462 569.024000
   1762   3566   3557     1   112.4800480 524.673600
   1765   3595   3586     1   112.4800480 524.673600
   1769   1770   1782     1   111.0400475 552.288000
   1769   1773   1785     1   111.0400475 552.288000
   1769   1776   1779     1   111.0400475 552.288000
   1770   1769   1773     1   112.3500484 533.878400
   1770   1769   1776     1   112.3500484 533.878400
   1770   1782   1794     1   111.5100476 526.347200
   1773   1769   1776     1   112.3500484 533.878400
   1773   1785   1791     1   111.5100476 526.347200
   1776   1779   1788     1   111.5100476 526.347200
   1779   1788   1797     1   107.9700462 569.024000
   1782   1794   3653     1   107.9700462 569.024000
   1785   1791   3624     1   107.9700462 569.024000
   1791   3624   3615     1   112.4800480 524.673600
   1794   3653   3644     1   112.4800480 524.673600
   1798   1799   1811     1   111.0400475 552.288000
   1798   1802   1814     1   111.0400475 552.288000
   1798   1805   1808     1   111.0400475 552.288000
   1799   1798   1802     1   112.3500484 533.878400
   1799   1798   1805     1   112.3500484 533.878400
   1799   1811   1823     1   111.5100476 526.347200
   1802   1798   1805     1   112.3500484 533.878400
   1802   1814   1820     1   111.5100476 526.347200
   1805   1808   1817     1   111.5100476 526.347200
   1808   1817   1826     1   107.9700462 569.024000
   1811   1823   3679     1   107.9700462 569.024000
   1814   1820   3666     1   107.9700462 569.024000
   1820   3666   3660     1   112.4800480 524.673600
   1823   3679   3673     1   112.4800480 524.673600
   1827   1828   1840     1   111.0400475 552.288000
   1827   1831   1843     1   111.0400475 552.288000
   1827   1834   1837     1   111.0400475 552.288000
   1828   1827   1831     1   112.3500484 533.878400
   1828   1827   1834     1   112.3500484 533.878400
   1828   1840   1852     1   111.5100476 526.347200
   1831   1827   1834     1   112.3500484 533.878400
   1831   1843   1849     1   111.5100476 526.347200
   1834   1837   1846     1   111.5100476 526.347200
   1837   1846   1855     1   107.9700462 569.024000
   1840   1852   3705     1   107.9700462 569.024000
   1843   1849   3692     1   107.9700462 569.024000
   1849   3692   3686     1   112.4800480 524.673600
   1852   3705   3699     1   112.4800480 524.673600
   1856   1857   1869     1   111.0400475 552.288000
   1856   1860   1872     1   111.0400475 552.288000
   1856   1863   1866     1   111.0400475 552.288000
   1857   1856   1860     1   112.3500484 533.878400
   1857   1856   1863     1   112.3500484 533.878400
   1857   1869   1881     1   111.5100476 526.347200
   1860   1856   1863     1   112.3500484 533.878400
   1860   1872   1878     1   111.5100476 526.347200
   1863   1866   1875     1   111.5100476 526.347200
   1866   1875   1884     1   107.9700462 569.024000
   1869   1881   3731     1   107.9700462 569.024000
   1872   1878   3718     1   107.9700462 569.024000
   1878   3718   3712     1   112.4800480 524.673600
   1881   3731   3725     1   112.4800480 524.673600
   1885   1886   1898     1   111.0400475 552.288000
   1885   1889   1901     1   111.0400475 552.288000
   1885   1892   1895     1   111.0400475 552.288000
   1886   1885   1889     1   112.3500484 533.878400
   1886   1885   1892     1   112.3500484 533.878400
   1886   1898   1910     1   111.5100476 526.347200
   1889   1885   1892     1   112.3500484 533.878400
   1889   1901   1907     1   111.5100476 526.347200
   1892   1895   1904     1   111.5100476 526.347200
   1895   1904   1913     1   107.9700462 569.024000
   1898   1910   3757     1   107.9700462 569.024000
   1901   1907   3744     1   107.9700462 569.024000
   1907   3744   3738     1   112.4800480 524.673600
   1910   3757   3751     1   112.4800480 524.673600
   1914   1915   1927     1   111.0400475 552.288000
   1914   1918   1930     1   111.0400475 552.288000
   1914   1921   1924     1   111.0400475 552.288000
   1915   1914   1918     1   112.3500484 533.878400
   1915   1914   1921     1   112.3500484 533.878400
   1915   1927   1939     1   111.5100476 526.347200
   1918   1914   1921     1   112.3500484 533.878400
   1918   1930   1936     1   111.5100476 526.347200
   1921   1924   1933     1   111.5100476 526.347200
   1924   1933   1942     1   107.9700462 569.024000
   1927   1939   3783     1   107.9700462 569.024000
   1930   1936   3770     1   107.9700462 569.024000
   1936   3770   3764     1   112.4800480 524.673600
   1939   3783   3777     1   112.4800480 524.673600
   1943   1944   1956     1   111.0400475 552.288000
   1943   1947   1959     1   111.0400475 552.288000
   1943   1950   1953     1   111.0400475 552.288000
   1944   1943   1947     1   112.3500484 533.878400
   1944   1943   1950     1   112.3500484 533.878400
   1944   1956   1968     1   111.5100476 526.347200
   1947   1943   1950     1   112.3500484 533.878400
   1947   1959   1965     1   111.5100476 526.347200
   1950   1953   1962     1   111.5100476 526.347200
   1953   1962   1971     1   107.9700462 569.024000
   1956   1968   3809     1   107.9700462 569.024000
   1959   1965   3796     1   107.9700462 569.024000
   1965   3796   3790     1   112.4800480 524.673600
   1968   3809   3803     1   112.4800480 524.673600
   1972   1973   1985     1   111.0400475 552.288000
   1972   1976   1988     1   111.0400475 552.288000
   1972   1979   1982     1   111.0400475 552.288000
   1973   1972   1976     1   112.3500484 533.878400
   1973   1972   1979     1   112.3500484 533.878400
   1973   1985   1997     1   111.5100476 526.347200
   1976   1972   1979     1   112.3500484 533.878400
   1976   1988   1994     1   111.5100476 526.347200
   1979   1982   1991     1   111.5100476 526.347200
   1982   1991   2000     1   107.9700462 569.024000
   1985   1997   3835     1   107.9700462 569.024000
   1988   1994   3822     1   107.9700462 569.024000
   1994   3822   3816     1   112.4800480 524.673600
   1997   3835   3829     1   112.4800480 524.673600
   2001   2002   2014     1   111.0400475 552.288000
   2001   2005   2017     1   111.0400475 552.288000
   2001   2008   2011     1   111.0400475 552.288000
   2002   2001   2005     1   112.3500484 533.878400
   2002   2001   2008     1   112.3500484 533.878400
   2002   2014   2026     1   111.5100476 526.347200
   2005   2001   2008     1   112.3500484 533.878400
   2005   2017   2023     1   111.5100476 526.347200
   2008   2011   2020     1   111.5100476 526.347200
   2011   2020   2029     1   107.9700462 569.024000
   2014   2026   3861     1   107.9700462 569.024000
   2017   2023   3848     1   107.9700462 569.024000
   2023   3848   3842     1   112.4800480 524.673600
   2026   3861   3855     1   112.4800480 524.673600
   2030   2031   2043     1   111.0400475 552.288000
   2030   2034   2046     1   111.0400475 552.288000
   2030   2037   2040     1   111.0400475 552.288000
   2031   2030   2034     1   112.3500484 533.878400
   2031   2030   2037     1   112.3500484 533.878400
   2031   2043   2055     1   111.5100476 526.347200
   2034   2030   2037     1   112.3500484 533.878400
   2034   2046   2052     1   111.5100476 526.347200
   2037   2040   2049     1   111.5100476 526.347200
   2040   2049   2058     1   107.9700462 569.024000
   2043   2055   3887     1   107.9700462 569.024000
   2046   2052   3874     1   107.9700462 569.024000
   2052   3874   3868     1   112.4800480 524.673600
   2055   3887   3881     1   112.4800480 524.673600
   2059   2060   2072     1   111.0400475 552.288000
   2059   2063   2075     1   111.0400475 552.288000
   2059   2066   2069     1   111.0400475 552.288000
   2060   2059   2063     1   112.3500484 533.878400
   2060   2059   2066     1   112.3500484 533.878400
   2060   2072   2084     1   111.5100476 526.347200
   2063   2059   2066     1   112.3500484 533.878400
   2063   2075   2081     1   111.5100476 526.347200
   2066   2069   2078     1   111.5100476 526.347200
   2069   2078   2087     1   107.9700462 569.024000
   2072   2084   3913     1   107.9700462 569.024000
   2075   2081   3900     1   107.9700462 569.024000
   2081   3900   3894     1   112.4800480 524.673600
   2084   3913   3907     1   112.4800480 524.673600
   2088   2089   2101     1   111.0400475 552.288000
   2088   2092   2104     1   111.0400475 552.288000
   2088   2095   2098     1   111.0400475 552.288000
   2089   2088   2092     1   112.3500484 533.878400
   2089   2088   2095     1   112.3500484 533.878400
   2089   2101   2113     1   111.5100476 526.347200
   2092   2088   2095     1   112.3500484 533.878400
   2092   2104   2110     1   111.5100476 526.347200
   2095   2098   2107     1   111.5100476 526.347200
   2098   2107   2116     1   107.9700462 569.024000
   2101   2113   3939     1   107.9700462 569.024000
   2104   2110   3926     1   107.9700462 569.024000
   2110   3926   3920     1   112.4800480 524.673600
   2113   3939   3933     1   112.4800480 524.673600
   2117   2118   2130     1   111.0400475 552.288000
   2117   2121   2133     1   111.0400475 552.288000
   2117   2124   2127     1   111.0400475 552.288000
   2118   2117   2121     1   112.3500484 533.878400
   2118   2117   2124     1   112.3500484 533.878400
   2118   2130   2142     1   111.5100476 526.347200
   2121   2117   2124     1   112.3500484 533.878400
   2121   2133   2139     1   111.5100476 526.347200
   2124   2127   2136     1   111.5100476 526.347200
   2127   2136   2145     1   107.9700462 569.024000
   2130   2142   3965     1   107.9700462 569.024000
   2133   2139   3952     1   107.9700462 569.024000
   2139   3952   3946     1   112.4800480 524.673600
   2142   3965   3959     1   112.4800480 524.673600
   2146   2147   2159     1   111.0400475 552.288000
   2146   2150   2162     1   111.0400475 552.288000
   2146   2153   2156     1   111.0400475 552.288000
   2147   2146   2150     1   112.3500484 533.878400
   2147   2146   2153     1   112.3500484 533.878400
   2147   2159   2171     1   111.5100476 526.347200
   2150   2146   2153     1   112.3500484 533.878400
   2150   2162   2168     1   111.5100476 526.347200
   2153   2156   2165     1   111.5100476 526.347200
   2156   2165   2174     1   107.9700462 569.024000
   2159   2171   3991     1   107.9700462 569.024000
   2162   2168   3978     1   107.9700462 569.024000
   2168   3978   3972     1   112.4800480 524.673600
   2171   3991   3985     1   112.4800480 524.673600
   2175   2176   2188     1   111.0400475 552.288000
   2175   2179   2191     1   111.0400475 552.288000
   2175   2182   2185     1   111.0400475 552.288000
   2176   2175   2179     1   112.3500484 533.878400
   2176   2175   2182     1   112.3500484 533.878400
   2176   2188   2200     1   111.5100476 526.347200
   2179   2175   2182     1   112.3500484 533.878400
   2179   2191   2197     1   111.5100476 526.347200
   2182   2185   2194     1   111.5100476 526.347200
   2185   2194   2203     1   107.9700462 569.024000
   2188   2200   4017     1   107.9700462 569.024000
   2191   2197   4004     1   107.9700462 569.024000
   2197   4004   3998     1   112.4800480 524.673600
   2200   4017   4011     1   112.4800480 524.673600
   2204   2205   2217     1   111.0400475 552.288000
   2204   2208   2220     1   111.0400475 552.288000
   2204   2211   2214     1   111.0400475 552.288000
   2205   2204   2208     1   112.3500484 533.878400
   2205   2204   2211     1   112.3500484 533.878400
   2205   2217   2229     1   111.5100476 526.347200
   2208   2204   2211     1   112.3500484 533.878400
   2208   2220   2226     1   111.5100476 526.347200
   2211   2214   2223     1   111.5100476 526.347200
   2214   2223   2232     1   107.9700462 569.024000
   2217   2229   4043     1   107.9700462 569.024000
   2220   2226   4030     1   107.9700462 569.024000
   2226   4030   4024     1   112.4800480 524.673600
   2229   4043   4037     1   112.4800480 524.673600
   2233   2234   2246     1   111.0400475 552.288000
   2233   2237   2249     1   111.0400475 552.288000
   2233   2240   2243     1   111.0400475 552.288000
   2234   2233   2237     1   112.3500484 533.878400
   2234   2233   2240     1   112.3500484 533.878400
   2234   2246   2258     1   111.5100476 526.347200
   2237   2233   2240     1   112.3500484 533.878400
   2237   2249   2255     1   111.5100476 526.347200
   2240   2243   2252     1   111.5100476 526.347200
   2243   2252   2261     1   107.9700462 569.024000
   2246   2258   4069     1   107.9700462 569.024000
   2249   2255   4056     1   107.9700462 569.024000
   2255   4056   4050     1   112.4800480 524.673600
   2258   4069   4063     1   112.4800480 524.673600
   2262   2263   2275     1   111.0400475 552.288000
   2262   2266   2278     1   111.0400475 552.288000
   2262   2269   2272     1   111.0400475 552.288000
   2263   2262   2266     1   112.3500484 533.878400
   2263   2262   2269     1   112.3500484 533.878400
   2263   2275   2287     1   111.5100476 526.347200
   2266   2262   2269     1   112.3500484 533.878400
   2266   2278   2284     1   111.5100476 526.347200
   2269   2272   2281     1   111.5100476 526.347200
   2272   2281   2290     1   107.9700462 569.024000
   2275   2287   4095     1   107.9700462 569.024000
   2278   2284   4082     1   107.9700462 569.024000
   2284   4082   4076     1   112.4800480 524.673600
   2287   4095   4089     1   112.4800480 524.673600
   2291   2292   2304     1   111.0400475 552.288000
   2291   2295   2307     1   111.0400475 552.288000
   2291   2298   2301     1   111.0400475 552.288000
   2292   2291   2295     1   112.3500484 533.878400
   2292   2291   2298     1   112.3500484 533.878400
   2292   2304   2316     1   111.5100476 526.347200
   2295   2291   2298     1   112.3500484 533.878400
   2295   2307   2313     1   111.5100476 526.347200
   2298   2301   2310     1   111.5100476 526.347200
   2301   2310   2319     1   107.9700462 569.024000
   2304   2316   4121     1   107.9700462 569.024000
   2307   2313   4108     1   107.9700462 569.024000
   2313   4108   4102     1   112.4800480 524.673600
   2316   4121   4115     1   112.4800480 524.673600
   2320   2321   2333     1   111.0400475 552.288000
   2320   2324   2336     1   111.0400475 552.288000
   2320   2327   2330     1   111.0400475 552.288000
   2321   2320   2324     1   112.3500484 533.878400
   2321   2320   2327     1   112.3500484 533.878400
   2321   2333   2345     1   111.5100476 526.347200
   2324   2320   2327     1   112.3500484 533.878400
   2324   2336   2342     1   111.5100476 526.347200
   2327   2330   2339     1   111.5100476 526.347200
   2330   2339   2348     1   107.9700462 569.024000
   2333   2345   4147     1   107.9700462 569.024000
   2336   2342   4134     1   107.9700462 569.024000
   2342   4134   4128     1   112.4800480 524.673600
   2345   4147   4141     1   112.4800480 524.673600
   2349   2350   2362     1   111.0400475 552.288000
   2349   2353   2365     1   111.0400475 552.288000
   2349   2356   2359     1   111.0400475 552.288000
   2350   2349   2353     1   112.3500484 533.878400
   2350   2349   2356     1   112.3500484 533.878400
   2350   2362   2374     1   111.5100476 526.347200
   2353   2349   2356     1   112.3500484 533.878400
   2353   2365   2371     1   111.5100476 526.347200
   2356   2359   2368     1   111.5100476 526.347200
   2359   2368   2377     1   107.9700462 569.024000
   2362   2374   4173     1   107.9700462 569.024000
   2365   2371   4160     1   107.9700462 569.024000
   2371   4160   4154     1   112.4800480 524.673600
   2374   4173   4167     1   112.4800480 524.673600
   2378   2379   2391     1   111.0400475 552.288000
   2378   2382   2394     1   111.0400475 552.288000
   2378   2385   2388     1   111.0400475 552.288000
   2379   2378   2382     1   112.3500484 533.878400
   2379   2378   2385     1   112.3500484 533.878400
   2379   2391   2403     1   111.5100476 526.347200
   2382   2378   2385     1   112.3500484 533.878400
   2382   2394   2400     1   111.5100476 526.347200
   2385   2388   2397     1   111.5100476 526.347200
   2388   2397   2406     1   107.9700462 569.024000
   2391   2403   4199     1   107.9700462 569.024000
   2394   2400   4186     1   107.9700462 569.024000
   2400   4186   4180     1   112.4800480 524.673600
   2403   4199   4193     1   112.4800480 524.673600
   2407   2408   2420     1   111.0400475 552.288000
   2407   2411   2423     1   111.0400475 552.288000
   2407   2414   2417     1   111.0400475 552.288000
   2408   2407   2411     1   112.3500484 533.878400
   2408   2407   2414     1   112.3500484 533.878400
   2408   2420   2432     1   111.5100476 526.347200
   2411   2407   2414     1   112.3500484 533.878400
   2411   2423   2429     1   111.5100476 526.347200
   2414   2417   2426     1   111.5100476 526.347200
   2417   2426   2435     1   107.9700462 569.024000
   2420   2432   4225     1   107.9700462 569.024000
   2423   2429   4212     1   107.9700462 569.024000
   2429   4212   4206     1   112.4800480 524.673600
   2432   4225   4219     1   112.4800480 524.673600
   2436   2437   2449     1   111.0400475 552.288000
   2436   2440   2452     1   111.0400475 552.288000
   2436   2443   2446     1   111.0400475 552.288000
   2437   2436   2440     1   112.3500484 533.878400
   2437   2436   2443     1   112.3500484 533.878400
   2437   2449   2461     1   111.5100476 526.347200
   2440   2436   2443     1   112.3500484 533.878400
   2440   2452   2458     1   111.5100476 526.347200
   2443   2446   2455     1   111.5100476 526.347200
   2446   2455   2464     1   107.9700462 569.024000
   2449   2461   4251     1   107.9700462 569.024000
   2452   2458   4238     1   107.9700462 569.024000
   2458   4238   4232     1   112.4800480 524.673600
   2461   4251   4245     1   112.4800480 524.673600
   2465   2466   2478     1   111.0400475 552.288000
   2465   2469   2481     1   111.0400475 552.288000
   2465   2472   2475     1   111.0400475 552.288000
   2466   2465   2469     1   112.3500484 533.878400
   2466   2465   2472     1   112.3500484 533.878400
   2466   2478   2490     1   111.5100476 526.347200
   2469   2465   2472     1   112.3500484 533.878400
   2469   2481   2487     1   111.5100476 526.347200
   2472   2475   2484     1   111.5100476 526.347200
   2475   2484   2493     1   107.9700462 569.024000
   2478   2490   4277     1   107.9700462 569.024000
   2481   2487   4264     1   107.9700462 569.024000
   2487   4264   4258     1   112.4800480 524.673600
   2490   4277   4271     1   112.4800480 524.673600
   2494   2495   2507     1   111.0400475 552.288000
   2494   2498   2510     1   111.0400475 552.288000
   2494   2501   2504     1   111.0400475 552.288000
   2495   2494   2498     1   112.3500484 533.878400
   2495   2494   2501     1   112.3500484 533.878400
   2495   2507   2519     1   111.5100476 526.347200
   2498   2494   2501     1   112.3500484 533.878400
   2498   2510   2516     1   111.5100476 526.347200
   2501   2504   2513     1   111.5100476 526.347200
   2504   2513   2522     1   107.9700462 569.024000
   2507   2519   4303     1   107.9700462 569.024000
   2510   2516   4290     1   107.9700462 569.024000
   2516   4290   4284     1   112.4800480 524.673600
   2519   4303   4297     1   112.4800480 524.673600
   2523   2524   2536     1   111.0400475 552.288000
   2523   2527   2539     1   111.0400475 552.288000
   2523   2530   2533     1   111.0400475 552.288000
   2524   2523   2527     1   112.3500484 533.878400
   2524   2523   2530     1   112.3500484 533.878400
   2524   2536   2548     1   111.5100476 526.347200
   2527   2523   2530     1   112.3500484 533.878400
   2527   2539   2545     1   111.5100476 526.347200
   2530   2533   2542     1   111.5100476 526.347200
   2533   2542   2551     1   107.9700462 569.024000
   2536   2548   4329     1   107.9700462 569.024000
   2539   2545   4316     1   107.9700462 569.024000
   2545   4316   4310     1   112.4800480 524.673600
   2548   4329   4323     1   112.4800480 524.673600
   2552   2553   2565     1   111.0400475 552.288000
   2552   2556   2568     1   111.0400475 552.288000
   2552   2559   2562     1   111.0400475 552.288000
   2553   2552   2556     1   112.3500484 533.878400
   2553   2552   2559     1   112.3500484 533.878400
   2553   2565   2577     1   111.5100476 526.347200
   2556   2552   2559     1   112.3500484 533.878400
   2556   2568   2574     1   111.5100476 526.347200
   2559   2562   2571     1   111.5100476 526.347200
   2562   2571   2580     1   107.9700462 569.024000
   2565   2577   4355     1   107.9700462 569.024000
   2568   2574   4342     1   107.9700462 569.024000
   2574   4342   4336     1   112.4800480 524.673600
   2577   4355   4349     1   112.4800480 524.673600
   2581   2582   2594     1   111.0400475 552.288000
   2581   2585   2597     1   111.0400475 552.288000
   2581   2588   2591     1   111.0400475 552.288000
   2582   2581   2585     1   112.3500484 533.878400
   2582   2581   2588     1   112.3500484 533.878400
   2582   2594   2606     1   111.5100476 526.347200
   2585   2581   2588     1   112.3500484 533.878400
   2585   2597   2603     1   111.5100476 526.347200
   2588   2591   2600     1   111.5100476 526.347200
   2591   2600   2609     1   107.9700462 569.024000
   2594   2606   4381     1   107.9700462 569.024000
   2597   2603   4368     1   107.9700462 569.024000
   2603   4368   4362     1   112.4800480 524.673600
   2606   4381   4375     1   112.4800480 524.673600
   2610   2611   2623     1   111.0400475 552.288000
   2610   2614   2626     1   111.0400475 552.288000
   2610   2617   2620     1   111.0400475 552.288000
   2611   2610   2614     1   112.3500484 533.878400
   2611   2610   2617     1   112.3500484 533.878400
   2611   2623   2635     1   111.5100476 526.347200
   2614   2610   2617     1   112.3500484 533.878400
   2614   2626   2632     1   111.5100476 526.347200
   2617   2620   2629     1   111.5100476 526.347200
   2620   2629   2638     1   107.9700462 569.024000
   2623   2635   4407     1   107.9700462 569.024000
   2626   2632   4394     1   107.9700462 569.024000
   2632   4394   4388     1   112.4800480 524.673600
   2635   4407   4401     1   112.4800480 524.673600
   2639   2640   2652     1   111.0400475 552.288000
   2639   2643   2655     1   111.0400475 552.288000
   2639   2646   2649     1   111.0400475 552.288000
   2640   2639   2643     1   112.3500484 533.878400
   2640   2639   2646     1   112.3500484 533.878400
   2640   2652   2664     1   111.5100476 526.347200
   2643   2639   2646     1   112.3500484 533.878400
   2643   2655   2661     1   111.5100476 526.347200
   2646   2649   2658     1   111.5100476 526.347200
   2649   2658   2667     1   107.9700462 569.024000
   2652   2664   4433     1   107.9700462 569.024000
   2655   2661   4420     1   107.9700462 569.024000
   2661   4420   4414     1   112.4800480 524.673600
   2664   4433   4427     1   112.4800480 524.673600
   2668   2669   2681     1   111.0400475 552.288000
   2668   2672   2684     1   111.0400475 552.288000
   2668   2675   2678     1   111.0400475 552.288000
   2669   2668   2672     1   112.3500484 533.878400
   2669   2668   2675     1   112.3500484 533.878400
   2669   2681   2693     1   111.5100476 526.347200
   2672   2668   2675     1   112.3500484 533.878400
   2672   2684   2690     1   111.5100476 526.347200
   2675   2678   2687     1   111.5100476 526.347200
   2678   2687   2696     1   107.9700462 569.024000
   2681   2693   4459     1   107.9700462 569.024000
   2684   2690   4446     1   107.9700462 569.024000
   2690   4446   4440     1   112.4800480 524.673600
   2693   4459   4453     1   112.4800480 524.673600
   2697   2698   2710     1   111.0400475 552.288000
   2697   2701   2713     1   111.0400475 552.288000
   2697   2704   2707     1   111.0400475 552.288000
   2698   2697   2701     1   112.3500484 533.878400
   2698   2697   2704     1   112.3500484 533.878400
   2698   2710   2722     1   111.5100476 526.347200
   2701   2697   2704     1   112.3500484 533.878400
   2701   2713   2719     1   111.5100476 526.347200
   2704   2707   2716     1   111.5100476 526.347200
   2707   2716   2725     1   107.9700462 569.024000
   2710   2722   4485     1   107.9700462 569.024000
   2713   2719   4472     1   107.9700462 569.024000
   2719   4472   4466     1   112.4800480 524.673600
   2722   4485   4479     1   112.4800480 524.673600
   2726   2727   2739     1   111.0400475 552.288000
   2726   2730   2742     1   111.0400475 552.288000
   2726   2733   2736     1   111.0400475 552.288000
   2727   2726   2730     1   112.3500484 533.878400
   2727   2726   2733     1   112.3500484 533.878400
   2727   2739   2751     1   111.5100476 526.347200
   2730   2726   2733     1   112.3500484 533.878400
   2730   2742   2748     1   111.5100476 526.347200
   2733   2736   2745     1   111.5100476 526.347200
   2736   2745   2754     1   107.9700462 569.024000
   2739   2751   4511     1   107.9700462 569.024000
   2742   2748   4498     1   107.9700462 569.024000
   2748   4498   4492     1   112.4800480 524.673600
   2751   4511   4505     1   112.4800480 524.673600
   2755   2756   2768     1   111.0400475 552.288000
   2755   2759   2771     1   111.0400475 552.288000
   2755   2762   2765     1   111.0400475 552.288000
   2756   2755   2759     1   112.3500484 533.878400
   2756   2755   2762     1   112.3500484 533.878400
   2756   2768   2780     1   111.5100476 526.347200
   2759   2755   2762     1   112.3500484 533.878400
   2759   2771   2777     1   111.5100476 526.347200
   2762   2765   2774     1   111.5100476 526.347200
   2765   2774   2783     1   107.9700462 569.024000
   2768   2780   4537     1   107.9700462 569.024000
   2771   2777   4524     1   107.9700462 569.024000
   2777   4524   4518     1   112.4800480 524.673600
   2780   4537   4531     1   112.4800480 524.673600
   2784   2785   2797     1   111.0400475 552.288000
   2784   2788   2800     1   111.0400475 552.288000
   2784   2791   2794     1   111.0400475 552.288000
   2785   2784   2788     1   112.3500484 533.878400
   2785   2784   2791     1   112.3500484 533.878400
   2785   2797   2809     1   111.5100476 526.347200
   2788   2784   2791     1   112.3500484 533.878400
   2788   2800   2806     1   111.5100476 526.347200
   2791   2794   2803     1   111.5100476 526.347200
   2794   2803   2812     1   107.9700462 569.024000
   2797   2809   4563     1   107.9700462 569.024000
   2800   2806   4550     1   107.9700462 569.024000
   2806   4550   4544     1   112.4800480 524.673600
   2809   4563   4557     1   112.4800480 524.673600
   2813   2814   2826     1   111.0400475 552.288000
   2813   2817   2829     1   111.0400475 552.288000
   2813   2820   2823     1   111.0400475 552.288000
   2814   2813   2817     1   112.3500484 533.878400
   2814   2813   2820     1   112.3500484 533.878400
   2814   2826   2838     1   111.5100476 526.347200
   2817   2813   2820     1   112.3500484 533.878400
   2817   2829   2835     1   111.5100476 526.347200
   2820   2823   2832     1   111.5100476 526.347200
   2823   2832   2841     1   107.9700462 569.024000
   2826   2838   4589     1   107.9700462 569.024000
   2829   2835   4576     1   107.9700462 569.024000
   2835   4576   4570     1   112.4800480 524.673600
   2838   4589   4583     1   112.4800480 524.673600
   2842   2843   2855     1   111.0400475 552.288000
   2842   2846   2858     1   111.0400475 552.288000
   2842   2849   2852     1   111.0400475 552.288000
   2843   2842   2846     1   112.3500484 533.878400
   2843   2842   2849     1   112.3500484 533.878400
   2843   2855   2867     1   111.5100476 526.347200
   2846   2842   2849     1   112.3500484 533.878400
   2846   2858   2864     1   111.5100476 526.347200
   2849   2852   2861     1   111.5100476 526.347200
   2852   2861   2870     1   107.9700462 569.024000
   2855   2867   4615     1   107.9700462 569.024000
   2858   2864   4602     1   107.9700462 569.024000
   2864   4602   4596     1   112.4800480 524.673600
   2867   4615   4609     1   112.4800480 524.673600
   2871   2872   2884     1   111.0400475 552.288000
   2871   2875   2887     1   111.0400475 552.288000
   2871   2878   2881     1   111.0400475 552.288000
   2872   2871   2875     1   112.3500484 533.878400
   2872   2871   2878     1   112.3500484 533.878400
   2872   2884   2896     1   111.5100476 526.347200
   2875   2871   2878     1   112.3500484 533.878400
   2875   2887   2893     1   111.5100476 526.347200
   2878   2881   2890     1   111.5100476 526.347200
   2881   2890   2899     1   107.9700462 569.024000
   2884   2896   4641     1   107.9700462 569.024000
   2887   2893   4628     1   107.9700462 569.024000
   2893   4628   4622     1   112.4800480 524.673600
   2896   4641   4635     1   112.4800480 524.673600
   2900   2901   2913     1   111.0400475 552.288000
   2900   2904   2916     1   111.0400475 552.288000
   2900   2907   2910     1   111.0400475 552.288000
   2901   2900   2904     1   112.3500484 533.878400
   2901   2900   2907     1   112.3500484 533.878400
   2901   2913   2925     1   111.5100476 526.347200
   2904   2900   2907     1   112.3500484 533.878400
   2904   2916   2922     1   111.5100476 526.347200
   2907   2910   2919     1   111.5100476 526.347200
   2910   2919   2928     1   107.9700462 569.024000
   2913   2925   4667     1   107.9700462 569.024000
   2916   2922   4654     1   107.9700462 569.024000
   2922   4654   4648     1   112.4800480 524.673600
   2925   4667   4661     1   112.4800480 524.673600
   2929   2930   2942     1   111.0400475 552.288000
   2929   2933   2945     1   111.0400475 552.288000
   2929   2936   2939     1   111.0400475 552.288000
   2930   2929   2933     1   112.3500484 533.878400
   2930   2929   2936     1   112.3500484 533.878400
   2930   2942   2954     1   111.5100476 526.347200
   2933   2929   2936     1   112.3500484 533.878400
   2933   2945   2951     1   111.5100476 526.347200
   2936   2939   2948     1   111.5100476 526.347200
   2939   2948   2957     1   107.9700462 569.024000
   2942   2954   4693     1   107.9700462 569.024000
   2945   2951   4680     1   107.9700462 569.024000
   2951   4680   4674     1   112.4800480 524.673600
   2954   4693   4687     1   112.4800480 524.673600
   2958   2959   2971     1   111.0400475 552.288000
   2958   2962   2974     1   111.0400475 552.288000
   2958   2965   2968     1   111.0400475 552.288000
   2959   2958   2962     1   112.3500484 533.878400
   2959   2958   2965     1   112.3500484 533.878400
   2959   2971   2983     1   111.5100476 526.347200
   2962   2958   2965     1   112.3500484 533.878400
   2962   2974   2980     1   111.5100476 526.347200
   2965   2968   2977     1   111.5100476 526.347200
   2968   2977   2986     1   107.9700462 569.024000
   2971   2983   4719     1   107.9700462 569.024000
   2974   2980   4706     1   107.9700462 569.024000
   2980   4706   4700     1   112.4800480 524.673600
   2983   4719   4713     1   112.4800480 524.673600
   2987   2988   3000     1   111.0400475 552.288000
   2987   2991   3003     1   111.0400475 552.288000
   2987   2994   2997     1   111.0400475 552.288000
   2988   2987   2991     1   112.3500484 533.878400
   2988   2987   2994     1   112.3500484 533.878400
   2988   3000   3012     1   111.5100476 526.347200
   2991   2987   2994     1   112.3500484 533.878400
   2991   3003   3009     1   111.5100476 526.347200
   2994   2997   3006     1   111.5100476 526.347200
   2997   3006   3015     1   107.9700462 569.024000
   3000   3012   4745     1   107.9700462 569.024000
   3003   3009   4732     1   107.9700462 569.024000
   3009   4732   4726     1   112.4800480 524.673600
   3012   4745   4739     1   112.4800480 524.673600
   3016   3017   3029     1   111.0400475 552.288000
   3016   3020   3032     1   111.0400475 552.288000
   3016   3023   3026     1   111.0400475 552.288000
   3017   3016   3020     1   112.3500484 533.878400
   3017   3016   3023     1   112.3500484 533.878400
   3017   3029   3041     1   111.5100476 526.347200
   3020   3016   3023     1   112.3500484 533.878400
   3020   3032   3038     1   111.5100476 526.347200
   3023   3026   3035     1   111.5100476 526.347200
   3026   3035   3044     1   107.9700462 569.024000
   3029   3041   4771     1   107.9700462 569.024000
   3032   3038   4758     1   107.9700462 569.024000
   3038   4758   4752     1   112.4800480 524.673600
   3041   4771   4765     1   112.4800480 524.673600
   3045   3046   3058     1   111.0400475 552.288000
   3045   3049   3061     1   111.0400475 552.288000
   3045   3052   3055     1   111.0400475 552.288000
   3046   3045   3049     1   112.3500484 533.878400
   3046   3045   3052     1   112.3500484 533.878400
   3046   3058   3070     1   111.5100476 526.347200
   3049   3045   3052     1   112.3500484 533.878400
   3049   3061   3067     1   111.5100476 526.347200
   3052   3055   3064     1   111.5100476 526.347200
   3055   3064   3073     1   107.9700462 569.024000
   3058   3070   4797     1   107.9700462 569.024000
   3061   3067   4784     1   107.9700462 569.024000
   3067   4784   4778     1   112.4800480 524.673600
   3070   4797   4791     1   112.4800480 524.673600
   3074   3075   3087     1   111.0400475 552.288000
   3074   3078   3090     1   111.0400475 552.288000
   3074   3081   3084     1   111.0400475 552.288000
   3075   3074   3078     1   112.3500484 533.878400
   3075   3074   3081     1   112.3500484 533.878400
   3075   3087   3099     1   111.5100476 526.347200
   3078   3074   3081     1   112.3500484 533.878400
   3078   3090   3096     1   111.5100476 526.347200
   3081   3084   3093     1   111.5100476 526.347200
   3084   3093   3102     1   107.9700462 569.024000
   3087   3099   4823     1   107.9700462 569.024000
   3090   3096   4810     1   107.9700462 569.024000
   3096   4810   4804     1   112.4800480 524.673600
   3099   4823   4817     1   112.4800480 524.673600
   3103   3104   3116     1   111.0400475 552.288000
   3103   3107   3119     1   111.0400475 552.288000
   3103   3110   3113     1   111.0400475 552.288000
   3104   3103   3107     1   112.3500484 533.878400
   3104   3103   3110     1   112.3500484 533.878400
   3104   3116   3128     1   111.5100476 526.347200
   3107   3103   3110     1   112.3500484 533.878400
   3107   3119   3125     1   111.5100476 526.347200
   3110   3113   3122     1   111.5100476 526.347200
   3113   3122   3131     1   107.9700462 569.024000
   3116   3128   4849     1   107.9700462 569.024000
   3119   3125   4836     1   107.9700462 569.024000
   3125   4836   4830     1   112.4800480 524.673600
   3128   4849   4843     1   112.4800480 524.673600
   3132   3133   3145     1   111.0400475 552.288000
   3132   3136   3148     1   111.0400475 552.288000
   3132   3139   3142     1   111.0400475 552.288000
   3133   3132   3136     1   112.3500484 533.878400
   3133   3132   3139     1   112.3500484 533.878400
   3133   3145   3157     1   111.5100476 526.347200
   3136   3132   3139     1   112.3500484 533.878400
   3136   3148   3154     1   111.5100476 526.347200
   3139   3142   3151     1   111.5100476 526.347200
   3142   3151   3160     1   107.9700462 569.024000
   3145   3157   4875     1   107.9700462 569.024000
   3148   3154   4862     1   107.9700462 569.024000
   3154   4862   4856     1   112.4800480 524.673600
   3157   4875   4869     1   112.4800480 524.673600
   3161   3162   3174     1   111.0400475 552.288000
   3161   3165   3177     1   111.0400475 552.288000
   3161   3168   3171     1   111.0400475 552.288000
   3162   3161   3165     1   112.3500484 533.878400
   3162   3161   3168     1   112.3500484 533.878400
   3162   3174   3186     1   111.5100476 526.347200
   3165   3161   3168     1   112.3500484 533.878400
   3165   3177   3183     1   111.5100476 526.347200
   3168   3171   3180     1   111.5100476 526.347200
   3171   3180   3189     1   107.9700462 569.024000
   3174   3186   4901     1   107.9700462 569.024000
   3177   3183   4888     1   107.9700462 569.024000
   3183   4888   4882     1   112.4800480 524.673600
   3186   4901   4895     1   112.4800480 524.673600
   3190   3191   3203     1   111.0400475 552.288000
   3190   3194   3206     1   111.0400475 552.288000
   3190   3197   3200     1   111.0400475 552.288000
   3191   3190   3194     1   112.3500484 533.878400
   3191   3190   3197     1   112.3500484 533.878400
   3191   3203   3215     1   111.5100476 526.347200
   3194   3190   3197     1   112.3500484 533.878400
   3194   3206   3212     1   111.5100476 526.347200
   3197   3200   3209     1   111.5100476 526.347200
   3200   3209   3218     1   107.9700462 569.024000
   3203   3215   4927     1   107.9700462 569.024000
   3206   3212   4914     1   107.9700462 569.024000
   3212   4914   4908     1   112.4800480 524.673600
   3215   4927   4921     1   112.4800480 524.673600
   3219   3220   3232     1   111.0400475 552.288000
   3219   3223   3235     1   111.0400475 552.288000
   3219   3226   3229     1   111.0400475 552.288000
   3220   3219   3223     1   112.3500484 533.878400
   3220   3219   3226     1   112.3500484 533.878400
   3220   3232   3244     1   111.5100476 526.347200
   3223   3219   3226     1   112.3500484 533.878400
   3223   3235   3241     1   111.5100476 526.347200
   3226   3229   3238     1   111.5100476 526.347200
   3229   3238   3247     1   107.9700462 569.024000
   3232   3244   4953     1   107.9700462 569.024000
   3235   3241   4940     1   107.9700462 569.024000
   3241   4940   4934     1   112.4800480 524.673600
   3244   4953   4947     1   112.4800480 524.673600
   3248   3249   3261     1   111.0400475 552.288000
   3248   3252   3264     1   111.0400475 552.288000
   3248   3255   3258     1   111.0400475 552.288000
   3249   3248   3252     1   112.3500484 533.878400
   3249   3248   3255     1   112.3500484 533.878400
   3249   3261   3273     1   111.5100476 526.347200
   3252   3248   3255     1   112.3500484 533.878400
   3252   3264   3270     1   111.5100476 526.347200
   3255   3258   3267     1   111.5100476 526.347200
   3258   3267   3276     1   107.9700462 569.024000
   3261   3273   4979     1   107.9700462 569.024000
   3264   3270   4966     1   107.9700462 569.024000
   3270   4966   4960     1   112.4800480 524.673600
   3273   4979   4973     1   112.4800480 524.673600
   3277   3278   3290     1   111.0400475 552.288000
   3277   3281   3293     1   111.0400475 552.288000
   3277   3284   3287     1   111.0400475 552.288000
   3278   3277   3281     1   112.3500484 533.878400
   3278   3277   3284     1   112.3500484 533.878400
   3278   3290   3302     1   111.5100476 526.347200
   3281   3277   3284     1   112.3500484 533.878400
   3281   3293   3299     1   111.5100476 526.347200
   3284   3287   3296     1   111.5100476 526.347200
   3287   3296   3305     1   107.9700462 569.024000
   3290   3302   5005     1   107.9700462 569.024000
   3293   3299   4992     1   107.9700462 569.024000
   3299   4992   4986     1   112.4800480 524.673600
   3302   5005   4999     1   112.4800480 524.673600
   3306   3307   3319     1   111.0400475 552.288000
   3306   3310   3322     1   111.0400475 552.288000
   3306   3313   3316     1   111.0400475 552.288000
   3307   3306   3310     1   112.3500484 533.878400
   3307   3306   3313     1   112.3500484 533.878400
   3307   3319   3331     1   111.5100476 526.347200
   3310   3306   3313     1   112.3500484 533.878400
   3310   3322   3328     1   111.5100476 526.347200
   3313   3316   3325     1   111.5100476 526.347200
   3316   3325   3334     1   107.9700462 569.024000
   3319   3331   5031     1   107.9700462 569.024000
   3322   3328   5018     1   107.9700462 569.024000
   3328   5018   5012     1   112.4800480 524.673600
   3331   5031   5025     1   112.4800480 524.673600
   3335   3336   3348     1   111.0400475 552.288000
   3335   3339   3351     1   111.0400475 552.288000
   3335   3342   3345     1   111.0400475 552.288000
   3336   3335   3339     1   112.3500484 533.878400
   3336   3335   3342     1   112.3500484 533.878400
   3336   3348   3360     1   111.5100476 526.347200
   3339   3335   3342     1   112.3500484 533.878400
   3339   3351   3357     1   111.5100476 526.347200
   3342   3345   3354     1   111.5100476 526.347200
   3345   3354   3363     1   107.9700462 569.024000
   3348   3360   5057     1   107.9700462 569.024000
   3351   3357   5044     1   107.9700462 569.024000
   3357   5044   5038     1   112.4800480 524.673600
   3360   5057   5051     1   112.4800480 524.673600
   3364   3365   3377     1   111.0400475 552.288000
   3364   3368   3380     1   111.0400475 552.288000
   3364   3371   3374     1   111.0400475 552.288000
   3365   3364   3368     1   112.3500484 533.878400
   3365   3364   3371     1   112.3500484 533.878400
   3365   3377   3389     1   111.5100476 526.347200
   3368   3364   3371     1   112.3500484 533.878400
   3368   3380   3386     1   111.5100476 526.347200
   3371   3374   3383     1   111.5100476 526.347200
   3374   3383   3392     1   107.9700462 569.024000
   3377   3389   5083     1   107.9700462 569.024000
   3380   3386   5070     1   107.9700462 569.024000
   3386   5070   5064     1   112.4800480 524.673600
   3389   5083   5077     1   112.4800480 524.673600
   3393   3394   3406     1   111.0400475 552.288000
   3393   3397   3409     1   111.0400475 552.288000
   3393   3400   3403     1   111.0400475 552.288000
   3394   3393   3397     1   112.3500484 533.878400
   3394   3393   3400     1   112.3500484 533.878400
   3394   3406   3418     1   111.5100476 526.347200
   3397   3393   3400     1   112.3500484 533.878400
   3397   3409   3415     1   111.5100476 526.347200
   3400   3403   3412     1   111.5100476 526.347200
   3403   3412   3421     1   107.9700462 569.024000
   3406   3418   5109     1   107.9700462 569.024000
   3409   3415   5096     1   107.9700462 569.024000
   3415   5096   5090     1   112.4800480 524.673600
   3418   5109   5103     1   112.4800480 524.673600
   3422   3423   3435     1   111.0400475 552.288000
   3422   3426   3438     1   111.0400475 552.288000
   3422   3429   3432     1   111.0400475 552.288000
   3423   3422   3426     1   112.3500484 533.878400
   3423   3422   3429     1   112.3500484 533.878400
   3423   3435   3447     1   111.5100476 526.347200
   3426   3422   3429     1   112.3500484 533.878400
   3426   3438   3444     1   111.5100476 526.347200
   3429   3432   3441     1   111.5100476 526.347200
   3432   3441   3450     1   107.9700462 569.024000
   3435   3447   5135     1   107.9700462 569.024000
   3438   3444   5122     1   107.9700462 569.024000
   3444   5122   5116     1   112.4800480 524.673600
   3447   5135   5129     1   112.4800480 524.673600
   3451   3452   3464     1   111.0400475 552.288000
   3451   3455   3467     1   111.0400475 552.288000
   3451   3458   3461     1   111.0400475 552.288000
   3452   3451   3455     1   112.3500484 533.878400
   3452   3451   3458     1   112.3500484 533.878400
   3452   3464   3476     1   111.5100476 526.347200
   3455   3451   3458     1   112.3500484 533.878400
   3455   3467   3473     1   111.5100476 526.347200
   3458   3461   3470     1   111.5100476 526.347200
   3461   3470   3479     1   107.9700462 569.024000
   3464   3476   5161     1   107.9700462 569.024000
   3467   3473   5148     1   107.9700462 569.024000
   3473   5148   5142     1   112.4800480 524.673600
   3476   5161   5155     1   112.4800480 524.673600
   3480   3481   3493     1   111.0400475 552.288000
   3480   3484   3496     1   111.0400475 552.288000
   3480   3487   3490     1   111.0400475 552.288000
   3481   3480   3484     1   112.3500484 533.878400
   3481   3480   3487     1   112.3500484 533.878400
   3481   3493   3505     1   111.5100476 526.347200
   3484   3480   3487     1   112.3500484 533.878400
   3484   3496   3502     1   111.5100476 526.347200
   3487   3490   3499     1   111.5100476 526.347200
   3490   3499   3508     1   107.9700462 569.024000
   3493   3505   5187     1   107.9700462 569.024000
   3496   3502   5174     1   107.9700462 569.024000
   3502   5174   5168     1   112.4800480 524.673600
   3505   5187   5181     1   112.4800480 524.673600
   3509   3510   3522     1   111.0400475 552.288000
   3509   3513   3525     1   111.0400475 552.288000
   3509   3516   3519     1   111.0400475 552.288000
   3510   3509   3513     1   112.3500484 533.878400
   3510   3509   3516     1   112.3500484 533.878400
   3510   3522   3534     1   111.5100476 526.347200
   3513   3509   3516     1   112.3500484 533.878400
   3513   3525   3531     1   111.5100476 526.347200
   3516   3519   3528     1   111.5100476 526.347200
   3519   3528   3537     1   107.9700462 569.024000
   3522   3534   5213     1   107.9700462 569.024000
   3525   3531   5200     1   107.9700462 569.024000
   3531   5200   5194     1   112.4800480 524.673600
   3534   5213   5207     1   112.4800480 524.673600
   3538   3539   3551     1   111.0400475 552.288000
   3538   3542   3554     1   111.0400475 552.288000
   3538   3545   3548     1   111.0400475 552.288000
   3539   3538   3542     1   112.3500484 533.878400
   3539   3538   3545     1   112.3500484 533.878400
   3539   3551   3563     1   111.5100476 526.347200
   3542   3538   3545     1   112.3500484 533.878400
   3542   3554   3560     1   111.5100476 526.347200
   3545   3548   3557     1   111.5100476 526.347200
   3548   3557   3566     1   107.9700462 569.024000
   3551   3563   5239     1   107.9700462 569.024000
   3554   3560   5226     1   107.9700462 569.024000
   3560   5226   5220     1   112.4800480 524.673600
   3563   5239   5233     1   112.4800480 524.673600
   3567   3568   3580     1   111.0400475 552.288000
   3567   3571   3583     1   111.0400475 552.288000
   3567   3574   3577     1   111.0400475 552.288000
   3568   3567   3571     1   112.3500484 533.878400
   3568   3567   3574     1   112.3500484 533.878400
   3568   3580   3592     1   111.5100476 526.347200
   3571   3567   3574     1   112.3500484 533.878400
   3571   3583   3589     1   111.5100476 526.347200
   3574   3577   3586     1   111.5100476 526.347200
   3577   3586   3595     1   107.9700462 569.024000
   3580   3592   5265     1   107.9700462 569.024000
   3583   3589   5252     1   107.9700462 569.024000
   3589   5252   5246     1   112.4800480 524.673600
   3592   5265   5259     1   112.4800480 524.673600
   3596   3597   3609     1   111.0400475 552.288000
   3596   3600   3612     1   111.0400475 552.288000
   3596   3603   3606     1   111.0400475 552.288000
   3597   3596   3600     1   112.3500484 533.878400
   3597   3596   3603     1   112.3500484 533.878400
   3597   3609   3621     1   111.5100476 526.347200
   3600   3596   3603     1   112.3500484 533.878400
   3600   3612   3618     1   111.5100476 526.347200
   3603   3606   3615     1   111.5100476 526.347200
   3606   3615   3624     1   107.9700462 569.024000
   3609   3621   5291     1   107.9700462 569.024000
   3612   3618   5278     1   107.9700462 569.024000
   3618   5278   5272     1   112.4800480 524.673600
   3621   5291   5285     1   112.4800480 524.673600
   3625   3626   3638     1   111.0400475 552.288000
   3625   3629   3641     1   111.0400475 552.288000
   3625   3632   3635     1   111.0400475 552.288000
   3626   3625   3629     1   112.3500484 533.878400
   3626   3625   3632     1   112.3500484 533.878400
   3626   3638   3650     1   111.5100476 526.347200
   3629   3625   3632     1   112.3500484 533.878400
   3629   3641   3647     1   111.5100476 526.347200
   3632   3635   3644     1   111.5100476 526.347200
   3635   3644   3653     1   107.9700462 569.024000
   3638   3650   5317     1   107.9700462 569.024000
   3641   3647   5304     1   107.9700462 569.024000
   3647   5304   5298     1   112.4800480 524.673600
   3650   5317   5311     1   112.4800480 524.673600
   3654   3657   3660     1   111.5100476 526.347200
   3657   3654   3663     1   111.0400475 552.288000
   3657   3660   3666     1   107.9700462 569.024000
   3667   3670   3673     1   111.5100476 526.347200
   3670   3673   3679     1   107.9700462 569.024000
   3670   3667   3676     1   111.0400475 552.288000
   3680   3683   3686     1   111.5100476 526.347200
   3683   3680   3689     1   111.0400475 552.288000
   3683   3686   3692     1   107.9700462 569.024000
   3693   3696   3699     1   111.5100476 526.347200
   3696   3699   3705     1   107.9700462 569.024000
   3696   3693   3702     1   111.0400475 552.288000
   3706   3709   3712     1   111.5100476 526.347200
   3709   3706   3715     1   111.0400475 552.288000
   3709   3712   3718     1   107.9700462 569.024000
   3719   3722   3725     1   111.5100476 526.347200
   3722   3725   3731     1   107.9700462 569.024000
   3722   3719   3728     1   111.0400475 552.288000
   3732   3735   3738     1   111.5100476 526.347200
   3735   3732   3741     1   111.0400475 552.288000
   3735   3738   3744     1   107.9700462 569.024000
   3745   3748   3751     1   111.5100476 526.347200
   3748   3751   3757     1   107.9700462 569.024000
   3748   3745   3754     1   111.0400475 552.288000
   3758   3761   3764     1   111.5100476 526.347200
   3761   3758   3767     1   111.0400475 552.288000
   3761   3764   3770     1   107.9700462 569.024000
   3771   3774   3777     1   111.5100476 526.347200
   3774   3777   3783     1   107.9700462 569.024000
   3774   3771   3780     1   111.0400475 552.288000
   3784   3787   3790     1   111.5100476 526.347200
   3787   3784   3793     1   111.0400475 552.288000
   3787   3790   3796     1   107.9700462 569.024000
   3797   3800   3803     1   111.5100476 526.347200
   3800   3803   3809     1   107.9700462 569.024000
   3800   3797   3806     1   111.0400475 552.288000
   3810   3813   3816     1   111.5100476 526.347200
   3813   3810   3819     1   111.0400475 552.288000
   3813   3816   3822     1   107.9700462 569.024000
   3823   3826   3829     1   111.5100476 526.347200
   3826   3829   3835     1   107.9700462 569.024000
   3826   3823   3832     1   111.0400475 552.288000
   3836   3839   3842     1   111.5100476 526.347200
   3839   3836   3845     1   111.0400475 552.288000
   3839   3842   3848     1   107.9700462 569.024000
   3849   3852   3855     1   111.5100476 526.347200
   3852   3855   3861     1   107.9700462 569.024000
   3852   3849   3858     1   111.0400475 552.288000
   3862   3865   3868     1   111.5100476 526.347200
   3865   3862   3871     1   111.0400475 552.288000
   3865   3868   3874     1   107.9700462 569.024000
   3875   3878   3881     1   111.5100476 526.347200
   3878   3881   3887     1   107.9700462 569.024000
   3878   3875   3884     1   111.0400475 552.288000
   3888   3891   3894     1   111.5100476 526.347200
   3891   3888   3897     1   111.0400475 552.288000
   3891   3894   3900     1   107.9700462 569.024000
   3901   3904   3907     1   111.5100476 526.347200
   3904   3907   3913     1   107.9700462 569.024000
   3904   3901   3910     1   111.0400475 552.288000
   3914   3917   3920     1   111.5100476 526.347200
   3917   3914   3923     1   111.0400475 552.288000
   3917   3920   3926     1   107.9700462 569.024000
   3927   3930   3933     1   111.5100476 526.347200
   3930   3933   3939     1   107.9700462 569.024000
   3930   3927   3936     1   111.0400475 552.288000
   3940   3943   3946     1   111.5100476 526.347200
   3943   3940   3949     1   111.0400475 552.288000
   3943   3946   3952     1   107.9700462 569.024000
   3953   3956   3959     1   111.5100476 526.347200
   3956   3959   3965     1   107.9700462 569.024000
   3956   3953   3962     1   111.0400475 552.288000
   3966   3969   3972     1   111.5100476 526.347200
   3969   3966   3975     1   111.0400475 552.288000
   3969   3972   3978     1   107.9700462 569.024000
   3979   3982   3985     1   111.5100476 526.347200
   3982   3985   3991     1   107.9700462 569.024000
   3982   3979   3988     1   111.0400475 552.288000
   3992   3995   3998     1   111.5100476 526.347200
   3995   3992   4001     1   111.0400475 552.288000
   3995   3998   4004     1   107.9700462 569.024000
   4005   4008   4011     1   111.5100476 526.347200
   4008   4011   4017     1   107.9700462 569.024000
   4008   4005   4014     1   111.0400475 552.288000
   4018   4021   4024     1   111.5100476 526.347200
   4021   4018   4027     1   111.0400475 552.288000
   4021   4024   4030     1   107.9700462 569.024000
   4031   4034   4037     1   111.5100476 526.347200
   4034   4037   4043     1   107.9700462 569.024000
   4034   4031   4040     1   111.0400475 552.288000
   4044   4047   4050     1   111.5100476 526.347200
   4047   4044   4053     1   111.0400475 552.288000
   4047   4050   4056     1   107.9700462 569.024000
   4057   4060   4063     1   111.5100476 526.347200
   4060   4063   4069     1   107.9700462 569.024000
   4060   4057   4066     1   111.0400475 552.288000
   4070   4073   4076     1   111.5100476 526.347200
   4073   4070   4079     1   111.0400475 552.288000
   4073   4076   4082     1   107.9700462 569.024000
   4083   4086   4089     1   111.5100476 526.347200
   4086   4089   4095     1   107.9700462 569.024000
   4086   4083   4092     1   111.0400475 552.288000
   4096   4099   4102     1   111.5100476 526.347200
   4099   4096   4105     1   111.0400475 552.288000
   4099   4102   4108     1   107.9700462 569.024000
   4109   4112   4115     1   111.5100476 526.347200
   4112   4115   4121     1   107.9700462 569.024000
   4112   4109   4118     1   111.0400475 552.288000
   4122   4125   4128     1   111.5100476 526.347200
   4125   4122   4131     1   111.0400475 552.288000
   4125   4128   4134     1   107.9700462 569.024000
   4135   4138   4141     1   111.5100476 526.347200
   4138   4141   4147     1   107.9700462 569.024000
   4138   4135   4144     1   111.0400475 552.288000
   4148   4151   4154     1   111.5100476 526.347200
   4151   4148   4157     1   111.0400475 552.288000
   4151   4154   4160     1   107.9700462 569.024000
   4161   4164   4167     1   111.5100476 526.347200
   4164   4167   4173     1   107.9700462 569.024000
   4164   4161   4170     1   111.0400475 552.288000
   4174   4177   4180     1   111.5100476 526.347200
   4177   4174   4183     1   111.0400475 552.288000
   4177   4180   4186     1   107.9700462 569.024000
   4187   4190   4193     1   111.5100476 526.347200
   4190   4193   4199     1   107.9700462 569.024000
   4190   4187   4196     1   111.0400475 552.288000
   4200   4203   4206     1   111.5100476 526.347200
   4203   4200   4209     1   111.0400475 552.288000
   4203   4206   4212     1   107.9700462 569.024000
   4213   4216   4219     1   111.5100476 526.347200
   4216   4219   4225     1   107.9700462 569.024000
   4216   4213   4222     1   111.0400475 552.288000
   4226   4229   4232     1   111.5100476 526.347200
   4229   4226   4235     1   111.0400475 552.288000
   4229   4232   4238     1   107.9700462 569.024000
   4239   4242   4245     1   111.5100476 526.347200
   4242   4245   4251     1   107.9700462 569.024000
   4242   4239   4248     1   111.0400475 552.288000
   4252   4255   4258     1   111.5100476 526.347200
   4255   4252   4261     1   111.0400475 552.288000
   4255   4258   4264     1   107.9700462 569.024000
   4265   4268   4271     1   111.5100476 526.347200
   4268   4271   4277     1   107.9700462 569.024000
   4268   4265   4274     1   111.0400475 552.288000
   4278   4281   4284     1   111.5100476 526.347200
   4281   4278   4287     1   111.0400475 552.288000
   4281   4284   4290     1   107.9700462 569.024000
   4291   4294   4297     1   111.5100476 526.347200
   4294   4297   4303     1   107.9700462 569.024000
   4294   4291   4300     1   111.0400475 552.288000
   4304   4307   4310     1   111.5100476 526.347200
   4307   4304   4313     1   111.0400475 552.288000
   4307   4310   4316     1   107.9700462 569.024000
   4317   4320   4323     1   111.5100476 526.347200
   4320   4323   4329     1   107.9700462 569.024000
   4320   4317   4326     1   111.0400475 552.288000
   4330   4333   4336     1   111.5100476 526.347200
   4333   4330   4339     1   111.0400475 552.288000
   4333   4336   4342     1   107.9700462 569.024000
   4343   4346   4349     1   111.5100476 526.347200
   4346   4349   4355     1   107.9700462 569.024000
   4346   4343   4352     1   111.0400475 552.288000
   4356   4359   4362     1   111.5100476 526.347200
   4359   4356   4365     1   111.0400475 552.288000
   4359   4362   4368     1   107.9700462 569.024000
   4369   4372   4375     1   111.5100476 526.347200
   4372   4375   4381     1   107.9700462 569.024000
   4372   4369   4378     1   111.0400475 552.288000
   4382   4385   4388     1   111.5100476 526.347200
   4385   4382   4391     1   111.0400475 552.288000
   4385   4388   4394     1   107.9700462 569.024000
   4395   4398   4401     1   111.5100476 526.347200
   4398   4401   4407     1   107.9700462 569.024000
   4398   4395   4404     1   111.0400475 552.288000
   4408   4411   4414     1   111.5100476 526.347200
   4411   4408   4417     1   111.0400475 552.288000
   4411   4414   4420     1   107.9700462 569.024000
   4421   4424   4427     1   111.5100476 526.347200
   4424   4427   4433     1   107.9700462 569.024000
   4424   4421   4430     1   111.0400475 552.288000
   4434   4437   4440     1   111.5100476 526.347200
   4437   4434   4443     1   111.0400475 552.288000
   4437   4440   4446     1   107.9700462 569.024000
   4447   4450   4453     1   111.5100476 526.347200
   4450   4453   4459     1   107.9700462 569.024000
   4450   4447   4456     1   111.0400475 552.288000
   4460   4463   4466     1   111.5100476 526.347200
   4463   4460   4469     1   111.0400475 552.288000
   4463   4466   4472     1   107.9700462 569.024000
   4473   4476   4479     1   111.5100476 526.347200
   4476   4479   4485     1   107.9700462 569.024000
   4476   4473   4482     1   111.0400475 552.288000
   4486   4489   4492     1   111.5100476 526.347200
   4489   4486   4495     1   111.0400475 552.288000
   4489   4492   4498     1   107.9700462 569.024000
   4499   4502   4505     1   111.5100476 526.347200
   4502   4505   4511     1   107.9700462 569.024000
   4502   4499   4508     1   111.0400475 552.288000
   4512   4515   4518     1   111.5100476 526.347200
   4515   4512   4521     1   111.0400475 552.288000
   4515   4518   4524     1   107.9700462 569.024000
   4525   4528   4531     1   111.5100476 526.347200
   4528   4531   4537     1   107.9700462 569.024000
   4528   4525   4534     1   111.0400475 552.288000
   4538   4541   4544     1   111.5100476 526.347200
   4541   4538   4547     1   111.0400475 552.288000
   4541   4544   4550     1   107.9700462 569.024000
   4551   4554   4557     1   111.5100476 526.347200
   4554   4557   4563     1   107.9700462 569.024000
   4554   4551   4560     1   111.0400475 552.288000
   4564   4567   4570     1   111.5100476 526.347200
   4567   4564   4573     1   111.0400475 552.288000
   4567   4570   4576     1   107.9700462 569.024000
   4577   4580   4583     1   111.5100476 526.347200
   4580   4583   4589     1   107.9700462 569.024000
   4580   4577   4586     1   111.0400475 552.288000
   4590   4593   4596     1   111.5100476 526.347200
   4593   4590   4599     1   111.0400475 552.288000
   4593   4596   4602     1   107.9700462 569.024000
   4603   4606   4609     1   111.5100476 526.347200
   4606   4609   4615     1   107.9700462 569.024000
   4606   4603   4612     1   111.0400475 552.288000
   4616   4619   4622     1   111.5100476 526.347200
   4619   4616   4625     1   111.0400475 552.288000
   4619   4622   4628     1   107.9700462 569.024000
   4629   4632   4635     1   111.5100476 526.347200
   4632   4635   4641     1   107.9700462 569.024000
   4632   4629   4638     1   111.0400475 552.288000
   4642   4645   4648     1   111.5100476 526.347200
   4645   4642   4651     1   111.0400475 552.288000
   4645   4648   4654     1   107.9700462 569.024000
   4655   4658   4661     1   111.5100476 526.347200
   4658   4661   4667     1   107.9700462 569.024000
   4658   4655   4664     1   111.0400475 552.288000
   4668   4671   4674     1   111.5100476 526.347200
   4671   4668   4677     1   111.0400475 552.288000
   4671   4674   4680     1   107.9700462 569.024000
   4681   4684   4687     1   111.5100476 526.347200
   4684   4687   4693     1   107.9700462 569.024000
   4684   4681   4690     1   111.0400475 552.288000
   4694   4697   4700     1   111.5100476 526.347200
   4697   4694   4703     1   111.0400475 552.288000
   4697   4700   4706     1   107.9700462 569.024000
   4707   4710   4713     1   111.5100476 526.347200
   4710   4713   4719     1   107.9700462 569.024000
   4710   4707   4716     1   111.0400475 552.288000
   4720   4723   4726     1   111.5100476 526.347200
   4723   4720   4729     1   111.0400475 552.288000
   4723   4726   4732     1   107.9700462 569.024000
   4733   4736   4739     1   111.5100476 526.347200
   4736   4739   4745     1   107.9700462 569.024000
   4736   4733   4742     1   111.0400475 552.288000
   4746   4749   4752     1   111.5100476 526.347200
   4749   4746   4755     1   111.0400475 552.288000
   4749   4752   4758     1   107.9700462 569.024000
   4759   4762   4765     1   111.5100476 526.347200
   4762   4765   4771     1   107.9700462 569.024000
   4762   4759   4768     1   111.0400475 552.288000
   4772   4775   4778     1   111.5100476 526.347200
   4775   4772   4781     1   111.0400475 552.288000
   4775   4778   4784     1   107.9700462 569.024000
   4785   4788   4791     1   111.5100476 526.347200
   4788   4791   4797     1   107.9700462 569.024000
   4788   4785   4794     1   111.0400475 552.288000
   4798   4801   4804     1   111.5100476 526.347200
   4801   4798   4807     1   111.0400475 552.288000
   4801   4804   4810     1   107.9700462 569.024000
   4811   4814   4817     1   111.5100476 526.347200
   4814   4817   4823     1   107.9700462 569.024000
   4814   4811   4820     1   111.0400475 552.288000
   4824   4827   4830     1   111.5100476 526.347200
   4827   4824   4833     1   111.0400475 552.288000
   4827   4830   4836     1   107.9700462 569.024000
   4837   4840   4843     1   111.5100476 526.347200
   4840   4843   4849     1   107.9700462 569.024000
   4840   4837   4846     1   111.0400475 552.288000
   4850   4853   4856     1   111.5100476 526.347200
   4853   4850   4859     1   111.0400475 552.288000
   4853   4856   4862     1   107.9700462 569.024000
   4863   4866   4869     1   111.5100476 526.347200
   4866   4869   4875     1   107.9700462 569.024000
   4866   4863   4872     1   111.0400475 552.288000
   4876   4879   4882     1   111.5100476 526.347200
   4879   4876   4885     1   111.0400475 552.288000
   4879   4882   4888     1   107.9700462 569.024000
   4889   4892   4895     1   111.5100476 526.347200
   4892   4895   4901     1   107.9700462 569.024000
   4892   4889   4898     1   111.0400475 552.288000
   4902   4905   4908     1   111.5100476 526.347200
   4905   4902   4911     1   111.0400475 552.288000
   4905   4908   4914     1   107.9700462 569.024000
   4915   4918   4921     1   111.5100476 526.347200
   4918   4921   4927     1   107.9700462 569.024000
   4918   4915   4924     1   111.0400475 552.288000
   4928   4931   4934     1   111.5100476 526.347200
   4931   4928   4937     1   111.0400475 552.288000
   4931   4934   4940     1   107.9700462 569.024000
   4941   4944   4947     1   111.5100476 526.347200
   4944   4947   4953     1   107.9700462 569.024000
   4944   4941   4950     1   111.0400475 552.288000
   4954   4957   4960     1   111.5100476 526.347200
   4957   4954   4963     1   111.0400475 552.288000
   4957   4960   4966     1   107.9700462 569.024000
   4967   4970   4973     1   111.5100476 526.347200
   4970   4973   4979     1   107.9700462 569.024000
   4970   4967   4976     1   111.0400475 552.288000
   4980   4983   4986     1   111.5100476 526.347200
   4983   4980   4989     1   111.0400475 552.288000
   4983   4986   4992     1   107.9700462 569.024000
   4993   4996   4999     1   111.5100476 526.347200
   4996   4999   5005     1   107.9700462 569.024000
   4996   4993   5002     1   111.0400475 552.288000
   5006   5009   5012     1   111.5100476 526.347200
   5009   5006   5015     1   111.0400475 552.288000
   5009   5012   5018     1   107.9700462 569.024000
   5019   5022   5025     1   111.5100476 526.347200
   5022   5025   5031     1   107.9700462 569.024000
   5022   5019   5028     1   111.0400475 552.288000
   5032   5035   5038     1   111.5100476 526.347200
   5035   5032   5041     1   111.0400475 552.288000
   5035   5038   5044     1   107.9700462 569.024000
   5045   5048   5051     1   111.5100476 526.347200
   5048   5051   5057     1   107.9700462 569.024000
   5048   5045   5054     1   111.0400475 552.288000
   5058   5061   5064     1   111.5100476 526.347200
   5061   5058   5067     1   111.0400475 552.288000
   5061   5064   5070     1   107.9700462 569.024000
   5071   5074   5077     1   111.5100476 526.347200
   5074   5077   5083     1   107.9700462 569.024000
   5074   5071   5080     1   111.0400475 552.288000
   5084   5087   5090     1   111.5100476 526.347200
   5087   5084   5093     1   111.0400475 552.288000
   5087   5090   5096     1   107.9700462 569.024000
   5097   5100   5103     1   111.5100476 526.347200
   5100   5103   5109     1   107.9700462 569.024000
   5100   5097   5106     1   111.0400475 552.288000
   5110   5113   5116     1   111.5100476 526.347200
   5113   5110   5119     1   111.0400475 552.288000
   5113   5116   5122     1   107.9700462 569.024000
   5123   5126   5129     1   111.5100476 526.347200
   5126   5129   5135     1   107.9700462 569.024000
   5126   5123   5132     1   111.0400475 552.288000
   5136   5139   5142     1   111.5100476 526.347200
   5139   5136   5145     1   111.0400475 552.288000
   5139   5142   5148     1   107.9700462 569.024000
   5149   5152   5155     1   111.5100476 526.347200
   5152   5155   5161     1   107.9700462 569.024000
   5152   5149   5158     1   111.0400475 552.288000
   5162   5165   5168     1   111.5100476 526.347200
   5165   5162   5171     1   111.0400475 552.288000
   5165   5168   5174     1   107.9700462 569.024000
   5175   5178   5181     1   111.5100476 526.347200
   5178   5181   5187     1   107.9700462 569.024000
   5178   5175   5184     1   111.0400475 552.288000
   5188   5191   5194     1   111.5100476 526.347200
   5191   5188   5197     1   111.0400475 552.288000
   5191   5194   5200     1   107.9700462 569.024000
   5201   5204   5207     1   111.5100476 526.347200
   5204   5207   5213     1   107.9700462 569.024000
   5204   5201   5210     1   111.0400475 552.288000
   5214   5217   5220     1   111.5100476 526.347200
   5217   5214   5223     1   111.0400475 552.288000
   5217   5220   5226     1   107.9700462 569.024000
   5227   5230   5233     1   111.5100476 526.347200
   5230   5233   5239     1   107.9700462 569.024000
   5230   5227   5236     1   111.0400475 552.288000
   5240   5243   5246     1   111.5100476 526.347200
   5243   5240   5249     1   111.0400475 552.288000
   5243   5246   5252     1   107.9700462 569.024000
   5253   5256   5259     1   111.5100476 526.347200
   5256   5259   5265     1   107.9700462 569.024000
   5256   5253   5262     1   111.0400475 552.288000
   5266   5269   5272     1   111.5100476 526.347200
   5269   5266   5275     1   111.0400475 552.288000
   5269   5272   5278     1   107.9700462 569.024000
   5279   5282   5285     1   111.5100476 526.347200
   5282   5285   5291     1   107.9700462 569.024000
   5282   5279   5288     1   111.0400475 552.288000
   5292   5295   5298     1   111.5100476 526.347200
   5295   5292   5301     1   111.0400475 552.288000
   5295   5298   5304     1   107.9700462 569.024000
   5305   5308   5311     1   111.5100476 526.347200
   5308   5311   5317     1   107.9700462 569.024000
   5308   5305   5314     1   111.0400475 552.288000
      1      2      3     1   109.7800468 425.094400
      1      2      4     1   109.7800468 425.094400
      1      5      6     1   109.7800468 425.094400
      1      5      7     1   109.7800468 425.094400
      2      8      9     1   109.8000471 387.438400
      2      8     10     1   109.8000471 387.438400
      3      2      8     1   109.5600471 388.275200
      3      2      4     1   108.4600466 328.025600
      4      2      8     1   109.5600471 388.275200
      5     11     12     1   109.8000471 387.438400
      5     11     13     1   109.8000471 387.438400
      6      5     11     1   109.5600471 388.275200
      6      5      7     1   108.4600466 328.025600
      7      5     11     1   109.5600471 388.275200
      8     14     15     1   109.5600471 388.275200
      8     14     16     1   109.5600471 388.275200
      9      8     14     1   109.8000471 387.438400
      9      8     10     1   107.5800459 329.699200
     10      8     14     1   109.8000471 387.438400
     11     17     18     1   109.5600471 388.275200
     11     17     19     1   109.5600471 388.275200
     12     11     17     1   109.8000471 387.438400
     12     11     13     1   107.5800459 329.699200
     13     11     17     1   109.8000471 387.438400
     15     14     20     1   109.8800469 414.216000
     15     14     16     1   108.4600466 328.025600
     16     14     20     1   109.8800469 414.216000
     18     17     21     1   109.8800469 414.216000
     18     17     19     1   108.4600466 328.025600
     19     17     21     1   109.8800469 414.216000
     20     28     29     1   109.8800469 414.216000
     20     28     30     1   109.8800469 414.216000
     20     31     32     1   109.8800469 414.216000
     20     31     33     1   109.8800469 414.216000
     21     22     23     1   109.8800469 414.216000
     21     22     24     1   109.8800469 414.216000
     21     25     26     1   109.8800469 414.216000
     21     25     27     1   109.8800469 414.216000
     22     34     35     1   109.8000471 387.438400
     22     34     36     1   109.8000471 387.438400
     23     22     34     1   109.5600471 388.275200
     23     22     24     1   108.4600466 328.025600
     24     22     34     1   109.5600471 388.275200
     25     37     38     1   109.8000471 387.438400
     25     37     39     1   109.8000471 387.438400
     26     25     37     1   109.5600471 388.275200
     26     25     27     1   108.4600466 328.025600
     27     25     37     1   109.5600471 388.275200
     28     40     41     1   109.8000471 387.438400
     28     40     42     1   109.8000471 387.438400
     29     28     40     1   109.5600471 388.275200
     29     28     30     1   108.4600466 328.025600
     30     28     40     1   109.5600471 388.275200
     31     43     44     1   109.8000471 387.438400
     31     43     45     1   109.8000471 387.438400
     32     31     43     1   109.5600471 388.275200
     32     31     33     1   108.4600466 328.025600
     33     31     43     1   109.5600471 388.275200
     34     55     56     1   109.5600471 388.275200
     34     55     57     1   109.5600471 388.275200
     35     34     55     1   109.8000471 387.438400
     35     34     36     1   107.5800459 329.699200
     36     34     55     1   109.8000471 387.438400
     37     52     53     1   109.5600471 388.275200
     37     52     54     1   109.5600471 388.275200
     38     37     52     1   109.8000471 387.438400
     38     37     39     1   107.5800459 329.699200
     39     37     52     1   109.8000471 387.438400
     40     49     50     1   109.5600471 388.275200
     40     49     51     1   109.5600471 388.275200
     41     40     49     1   109.8000471 387.438400
     41     40     42     1   107.5800459 329.699200
     42     40     49     1   109.8000471 387.438400
     43     46     47     1   109.5600471 388.275200
     43     46     48     1   109.5600471 388.275200
     44     43     46     1   109.8000471 387.438400
     44     43     45     1   107.5800459 329.699200
     45     43     46     1   109.8000471 387.438400
     47     46     86     1   109.7800468 425.094400
     47     46     48     1   108.4600466 328.025600
     48     46     86     1   109.7800468 425.094400
     50     49    115     1   109.7800468 425.094400
     50     49     51     1   108.4600466 328.025600
     51     49    115     1   109.7800468 425.094400
     53     52    144     1   109.7800468 425.094400
     53     52     54     1   108.4600466 328.025600
     54     52    144     1   109.7800468 425.094400
     56     55    173     1   109.7800468 425.094400
     56     55     57     1   108.4600466 328.025600
     57     55    173     1   109.7800468 425.094400
     58     59     60     1   109.8800469 414.216000
     58     59     61     1   109.8800469 414.216000
     58     62     63     1   109.8800469 414.216000
     58     62     64     1   109.8800469 414.216000
     58     65     66     1   109.8800469 414.216000
     58     65     67     1   109.8800469 414.216000
     59     71     72     1   109.8000471 387.438400
     59     71     73     1   109.8000471 387.438400
     60     59     71     1   109.5600471 388.275200
     60     59     61     1   108.4600466 328.025600
     61     59     71     1   109.5600471 388.275200
     62     74     75     1   109.8000471 387.438400
     62     74     76     1   109.8000471 387.438400
     63     62     74     1   109.5600471 388.275200
     63     62     64     1   108.4600466 328.025600
     64     62     74     1   109.5600471 388.275200
     65     68     69     1   109.8000471 387.438400
     65     68     70     1   109.8000471 387.438400
     66     65     68     1   109.5600471 388.275200
     66     65     67     1   108.4600466 328.025600
     67     65     68     1   109.5600471 388.275200
     68     77     78     1   109.5600471 388.275200
     68     77     79     1   109.5600471 388.275200
     69     68     77     1   109.8000471 387.438400
     69     68     70     1   107.5800459 329.699200
     70     68     77     1   109.8000471 387.438400
     71     83     84     1   109.5600471 388.275200
     71     83     85     1   109.5600471 388.275200
     72     71     83     1   109.8000471 387.438400
     72     71     73     1   107.5800459 329.699200
     73     71     83     1   109.8000471 387.438400
     74     80     81     1   109.5600471 388.275200
     74     80     82     1   109.5600471 388.275200
     75     74     80     1   109.8000471 387.438400
     75     74     76     1   107.5800459 329.699200
     76     74     80     1   109.8000471 387.438400
     78     77     86     1   109.7800468 425.094400
     78     77     79     1   108.4600466 328.025600
     79     77     86     1   109.7800468 425.094400
     81     80    202     1   109.7800468 425.094400
     81     80     82     1   108.4600466 328.025600
     82     80    202     1   109.7800468 425.094400
     84     83    231     1   109.7800468 425.094400
     84     83     85     1   108.4600466 328.025600
     85     83    231     1   109.7800468 425.094400
     87     88     89     1   109.8800469 414.216000
     87     88     90     1   109.8800469 414.216000
     87     91     92     1   109.8800469 414.216000
     87     91     93     1   109.8800469 414.216000
     87     94     95     1   109.8800469 414.216000
     87     94     96     1   109.8800469 414.216000
     88    100    101     1   109.8000471 387.438400
     88    100    102     1   109.8000471 387.438400
     89     88    100     1   109.5600471 388.275200
     89     88     90     1   108.4600466 328.025600
     90     88    100     1   109.5600471 388.275200
     91    103    104     1   109.8000471 387.438400
     91    103    105     1   109.8000471 387.438400
     92     91    103     1   109.5600471 388.275200
     92     91     93     1   108.4600466 328.025600
     93     91    103     1   109.5600471 388.275200
     94     97     98     1   109.8000471 387.438400
     94     97     99     1   109.8000471 387.438400
     95     94     97     1   109.5600471 388.275200
     95     94     96     1   108.4600466 328.025600
     96     94     97     1   109.5600471 388.275200
     97    106    107     1   109.5600471 388.275200
     97    106    108     1   109.5600471 388.275200
     98     97    106     1   109.8000471 387.438400
     98     97     99     1   107.5800459 329.699200
     99     97    106     1   109.8000471 387.438400
    100    112    113     1   109.5600471 388.275200
    100    112    114     1   109.5600471 388.275200
    101    100    112     1   109.8000471 387.438400
    101    100    102     1   107.5800459 329.699200
    102    100    112     1   109.8000471 387.438400
    103    109    110     1   109.5600471 388.275200
    103    109    111     1   109.5600471 388.275200
    104    103    109     1   109.8000471 387.438400
    104    103    105     1   107.5800459 329.699200
    105    103    109     1   109.8000471 387.438400
    107    106    115     1   109.7800468 425.094400
    107    106    108     1   108.4600466 328.025600
    108    106    115     1   109.7800468 425.094400
    110    109    260     1   109.7800468 425.094400
    110    109    111     1   108.4600466 328.025600
    111    109    260     1   109.7800468 425.094400
    113    112    289     1   109.7800468 425.094400
    113    112    114     1   108.4600466 328.025600
    114    112    289     1   109.7800468 425.094400
    116    117    118     1   109.8800469 414.216000
    116    117    119     1   109.8800469 414.216000
    116    120    121     1   109.8800469 414.216000
    116    120    122     1   109.8800469 414.216000
    116    123    124     1   109.8800469 414.216000
    116    123    125     1   109.8800469 414.216000
    117    129    130     1   109.8000471 387.438400
    117    129    131     1   109.8000471 387.438400
    118    117    129     1   109.5600471 388.275200
    118    117    119     1   108.4600466 328.025600
    119    117    129     1   109.5600471 388.275200
    120    132    133     1   109.8000471 387.438400
    120    132    134     1   109.8000471 387.438400
    121    120    132     1   109.5600471 388.275200
    121    120    122     1   108.4600466 328.025600
    122    120    132     1   109.5600471 388.275200
    123    126    127     1   109.8000471 387.438400
    123    126    128     1   109.8000471 387.438400
    124    123    126     1   109.5600471 388.275200
    124    123    125     1   108.4600466 328.025600
    125    123    126     1   109.5600471 388.275200
    126    135    136     1   109.5600471 388.275200
    126    135    137     1   109.5600471 388.275200
    127    126    135     1   109.8000471 387.438400
    127    126    128     1   107.5800459 329.699200
    128    126    135     1   109.8000471 387.438400
    129    141    142     1   109.5600471 388.275200
    129    141    143     1   109.5600471 388.275200
    130    129    141     1   109.8000471 387.438400
    130    129    131     1   107.5800459 329.699200
    131    129    141     1   109.8000471 387.438400
    132    138    139     1   109.5600471 388.275200
    132    138    140     1   109.5600471 388.275200
    133    132    138     1   109.8000471 387.438400
    133    132    134     1   107.5800459 329.699200
    134    132    138     1   109.8000471 387.438400
    136    135    144     1   109.7800468 425.094400
    136    135    137     1   108.4600466 328.025600
    137    135    144     1   109.7800468 425.094400
    139    138    318     1   109.7800468 425.094400
    139    138    140     1   108.4600466 328.025600
    140    138    318     1   109.7800468 425.094400
    142    141    347     1   109.7800468 425.094400
    142    141    143     1   108.4600466 328.025600
    143    141    347     1   109.7800468 425.094400
    145    146    147     1   109.8800469 414.216000
    145    146    148     1   109.8800469 414.216000
    145    149    150     1   109.8800469 414.216000
    145    149    151     1   109.8800469 414.216000
    145    152    153     1   109.8800469 414.216000
    145    152    154     1   109.8800469 414.216000
    146    158    159     1   109.8000471 387.438400
    146    158    160     1   109.8000471 387.438400
    147    146    158     1   109.5600471 388.275200
    147    146    148     1   108.4600466 328.025600
    148    146    158     1   109.5600471 388.275200
    149    161    162     1   109.8000471 387.438400
    149    161    163     1   109.8000471 387.438400
    150    149    161     1   109.5600471 388.275200
    150    149    151     1   108.4600466 328.025600
    151    149    161     1   109.5600471 388.275200
    152    155    156     1   109.8000471 387.438400
    152    155    157     1   109.8000471 387.438400
    153    152    155     1   109.5600471 388.275200
    153    152    154     1   108.4600466 328.025600
    154    152    155     1   109.5600471 388.275200
    155    164    165     1   109.5600471 388.275200
    155    164    166     1   109.5600471 388.275200
    156    155    164     1   109.8000471 387.438400
    156    155    157     1   107.5800459 329.699200
    157    155    164     1   109.8000471 387.438400
    158    170    171     1   109.5600471 388.275200
    158    170    172     1   109.5600471 388.275200
    159    158    170     1   109.8000471 387.438400
    159    158    160     1   107.5800459 329.699200
    160    158    170     1   109.8000471 387.438400
    161    167    168     1   109.5600471 388.275200
    161    167    169     1   109.5600471 388.275200
    162    161    167     1   109.8000471 387.438400
    162    161    163     1   107.5800459 329.699200
    163    161    167     1   109.8000471 387.438400
    165    164    173     1   109.7800468 425.094400
    165    164    166     1   108.4600466 328.025600
    166    164    173     1   109.7800468 425.094400
    168    167    376     1   109.7800468 425.094400
    168    167    169     1   108.4600466 328.025600
    169    167    376     1   109.7800468 425.094400
    171    170    405     1   109.7800468 425.094400
    171    170    172     1   108.4600466 328.025600
    172    170    405     1   109.7800468 425.094400
    174    175    176     1   109.8800469 414.216000
    174    175    177     1   109.8800469 414.216000
    174    178    179     1   109.8800469 414.216000
    174    178    180     1   109.8800469 414.216000
    174    181    182     1   109.8800469 414.216000
    174    181    183     1   109.8800469 414.216000
    175    187    188     1   109.8000471 387.438400
    175    187    189     1   109.8000471 387.438400
    176    175    187     1   109.5600471 388.275200
    176    175    177     1   108.4600466 328.025600
    177    175    187     1   109.5600471 388.275200
    178    190    191     1   109.8000471 387.438400
    178    190    192     1   109.8000471 387.438400
    179    178    190     1   109.5600471 388.275200
    179    178    180     1   108.4600466 328.025600
    180    178    190     1   109.5600471 388.275200
    181    184    185     1   109.8000471 387.438400
    181    184    186     1   109.8000471 387.438400
    182    181    184     1   109.5600471 388.275200
    182    181    183     1   108.4600466 328.025600
    183    181    184     1   109.5600471 388.275200
    184    193    194     1   109.5600471 388.275200
    184    193    195     1   109.5600471 388.275200
    185    184    193     1   109.8000471 387.438400
    185    184    186     1   107.5800459 329.699200
    186    184    193     1   109.8000471 387.438400
    187    199    200     1   109.5600471 388.275200
    187    199    201     1   109.5600471 388.275200
    188    187    199     1   109.8000471 387.438400
    188    187    189     1   107.5800459 329.699200
    189    187    199     1   109.8000471 387.438400
    190    196    197     1   109.5600471 388.275200
    190    196    198     1   109.5600471 388.275200
    191    190    196     1   109.8000471 387.438400
    191    190    192     1   107.5800459 329.699200
    192    190    196     1   109.8000471 387.438400
    194    193    202     1   109.7800468 425.094400
    194    193    195     1   108.4600466 328.025600
    195    193    202     1   109.7800468 425.094400
    197    196    434     1   109.7800468 425.094400
    197    196    198     1   108.4600466 328.025600
    198    196    434     1   109.7800468 425.094400
    200    199    463     1   109.7800468 425.094400
    200    199    201     1   108.4600466 328.025600
    201    199    463     1   109.7800468 425.094400
    203    204    205     1   109.8800469 414.216000
    203    204    206     1   109.8800469 414.216000
    203    207    208     1   109.8800469 414.216000
    203    207    209     1   109.8800469 414.216000
    203    210    211     1   109.8800469 414.216000
    203    210    212     1   109.8800469 414.216000
    204    216    217     1   109.8000471 387.438400
    204    216    218     1   109.8000471 387.438400
    205    204    216     1   109.5600471 388.275200
    205    204    206     1   108.4600466 328.025600
    206    204    216     1   109.5600471 388.275200
    207    219    220     1   109.8000471 387.438400
    207    219    221     1   109.8000471 387.438400
    208    207    219     1   109.5600471 388.275200
    208    207    209     1   108.4600466 328.025600
    209    207    219     1   109.5600471 388.275200
    210    213    214     1   109.8000471 387.438400
    210    213    215     1   109.8000471 387.438400
    211    210    213     1   109.5600471 388.275200
    211    210    212     1   108.4600466 328.025600
    212    210    213     1   109.5600471 388.275200
    213    222    223     1   109.5600471 388.275200
    213    222    224     1   109.5600471 388.275200
    214    213    222     1   109.8000471 387.438400
    214    213    215     1   107.5800459 329.699200
    215    213    222     1   109.8000471 387.438400
    216    228    229     1   109.5600471 388.275200
    216    228    230     1   109.5600471 388.275200
    217    216    228     1   109.8000471 387.438400
    217    216    218     1   107.5800459 329.699200
    218    216    228     1   109.8000471 387.438400
    219    225    226     1   109.5600471 388.275200
    219    225    227     1   109.5600471 388.275200
    220    219    225     1   109.8000471 387.438400
    220    219    221     1   107.5800459 329.699200
    221    219    225     1   109.8000471 387.438400
    223    222    231     1   109.7800468 425.094400
    223    222    224     1   108.4600466 328.025600
    224    222    231     1   109.7800468 425.094400
    226    225    492     1   109.7800468 425.094400
    226    225    227     1   108.4600466 328.025600
    227    225    492     1   109.7800468 425.094400
    229    228    521     1   109.7800468 425.094400
    229    228    230     1   108.4600466 328.025600
    230    228    521     1   109.7800468 425.094400
    232    233    234     1   109.8800469 414.216000
    232    233    235     1   109.8800469 414.216000
    232    236    237     1   109.8800469 414.216000
    232    236    238     1   109.8800469 414.216000
    232    239    240     1   109.8800469 414.216000
    232    239    241     1   109.8800469 414.216000
    233    245    246     1   109.8000471 387.438400
    233    245    247     1   109.8000471 387.438400
    234    233    245     1   109.5600471 388.275200
    234    233    235     1   108.4600466 328.025600
    235    233    245     1   109.5600471 388.275200
    236    248    249     1   109.8000471 387.438400
    236    248    250     1   109.8000471 387.438400
    237    236    248     1   109.5600471 388.275200
    237    236    238     1   108.4600466 328.025600
    238    236    248     1   109.5600471 388.275200
    239    242    243     1   109.8000471 387.438400
    239    242    244     1   109.8000471 387.438400
    240    239    242     1   109.5600471 388.275200
    240    239    241     1   108.4600466 328.025600
    241    239    242     1   109.5600471 388.275200
    242    251    252     1   109.5600471 388.275200
    242    251    253     1   109.5600471 388.275200
    243    242    251     1   109.8000471 387.438400
    243    242    244     1   107.5800459 329.699200
    244    242    251     1   109.8000471 387.438400
    245    257    258     1   109.5600471 388.275200
    245    257    259     1   109.5600471 388.275200
    246    245    257     1   109.8000471 387.438400
    246    245    247     1   107.5800459 329.699200
    247    245    257     1   109.8000471 387.438400
    248    254    255     1   109.5600471 388.275200
    248    254    256     1   109.5600471 388.275200
    249    248    254     1   109.8000471 387.438400
    249    248    250     1   107.5800459 329.699200
    250    248    254     1   109.8000471 387.438400
    252    251    260     1   109.7800468 425.094400
    252    251    253     1   108.4600466 328.025600
    253    251    260     1   109.7800468 425.094400
    255    254    550     1   109.7800468 425.094400
    255    254    256     1   108.4600466 328.025600
    256    254    550     1   109.7800468 425.094400
    258    257    579     1   109.7800468 425.094400
    258    257    259     1   108.4600466 328.025600
    259    257    579     1   109.7800468 425.094400
    261    262    263     1   109.8800469 414.216000
    261    262    264     1   109.8800469 414.216000
    261    265    266     1   109.8800469 414.216000
    261    265    267     1   109.8800469 414.216000
    261    268    269     1   109.8800469 414.216000
    261    268    270     1   109.8800469 414.216000
    262    274    275     1   109.8000471 387.438400
    262    274    276     1   109.8000471 387.438400
    263    262    274     1   109.5600471 388.275200
    263    262    264     1   108.4600466 328.025600
    264    262    274     1   109.5600471 388.275200
    265    277    278     1   109.8000471 387.438400
    265    277    279     1   109.8000471 387.438400
    266    265    277     1   109.5600471 388.275200
    266    265    267     1   108.4600466 328.025600
    267    265    277     1   109.5600471 388.275200
    268    271    272     1   109.8000471 387.438400
    268    271    273     1   109.8000471 387.438400
    269    268    271     1   109.5600471 388.275200
    269    268    270     1   108.4600466 328.025600
    270    268    271     1   109.5600471 388.275200
    271    280    281     1   109.5600471 388.275200
    271    280    282     1   109.5600471 388.275200
    272    271    280     1   109.8000471 387.438400
    272    271    273     1   107.5800459 329.699200
    273    271    280     1   109.8000471 387.438400
    274    286    287     1   109.5600471 388.275200
    274    286    288     1   109.5600471 388.275200
    275    274    286     1   109.8000471 387.438400
    275    274    276     1   107.5800459 329.699200
    276    274    286     1   109.8000471 387.438400
    277    283    284     1   109.5600471 388.275200
    277    283    285     1   109.5600471 388.275200
    278    277    283     1   109.8000471 387.438400
    278    277    279     1   107.5800459 329.699200
    279    277    283     1   109.8000471 387.438400
    281    280    289     1   109.7800468 425.094400
    281    280    282     1   108.4600466 328.025600
    282    280    289     1   109.7800468 425.094400
    284    283    608     1   109.7800468 425.094400
    284    283    285     1   108.4600466 328.025600
    285    283    608     1   109.7800468 425.094400
    287    286    637     1   109.7800468 425.094400
    287    286    288     1   108.4600466 328.025600
    288    286    637     1   109.7800468 425.094400
    290    291    292     1   109.8800469 414.216000
    290    291    293     1   109.8800469 414.216000
    290    294    295     1   109.8800469 414.216000
    290    294    296     1   109.8800469 414.216000
    290    297    298     1   109.8800469 414.216000
    290    297    299     1   109.8800469 414.216000
    291    303    304     1   109.8000471 387.438400
    291    303    305     1   109.8000471 387.438400
    292    291    303     1   109.5600471 388.275200
    292    291    293     1   108.4600466 328.025600
    293    291    303     1   109.5600471 388.275200
    294    306    307     1   109.8000471 387.438400
    294    306    308     1   109.8000471 387.438400
    295    294    306     1   109.5600471 388.275200
    295    294    296     1   108.4600466 328.025600
    296    294    306     1   109.5600471 388.275200
    297    300    301     1   109.8000471 387.438400
    297    300    302     1   109.8000471 387.438400
    298    297    300     1   109.5600471 388.275200
    298    297    299     1   108.4600466 328.025600
    299    297    300     1   109.5600471 388.275200
    300    309    310     1   109.5600471 388.275200
    300    309    311     1   109.5600471 388.275200
    301    300    309     1   109.8000471 387.438400
    301    300    302     1   107.5800459 329.699200
    302    300    309     1   109.8000471 387.438400
    303    315    316     1   109.5600471 388.275200
    303    315    317     1   109.5600471 388.275200
    304    303    315     1   109.8000471 387.438400
    304    303    305     1   107.5800459 329.699200
    305    303    315     1   109.8000471 387.438400
    306    312    313     1   109.5600471 388.275200
    306    312    314     1   109.5600471 388.275200
    307    306    312     1   109.8000471 387.438400
    307    306    308     1   107.5800459 329.699200
    308    306    312     1   109.8000471 387.438400
    310    309    318     1   109.7800468 425.094400
    310    309    311     1   108.4600466 328.025600
    311    309    318     1   109.7800468 425.094400
    313    312    666     1   109.7800468 425.094400
    313    312    314     1   108.4600466 328.025600
    314    312    666     1   109.7800468 425.094400
    316    315    695     1   109.7800468 425.094400
    316    315    317     1   108.4600466 328.025600
    317    315    695     1   109.7800468 425.094400
    319    320    321     1   109.8800469 414.216000
    319    320    322     1   109.8800469 414.216000
    319    323    324     1   109.8800469 414.216000
    319    323    325     1   109.8800469 414.216000
    319    326    327     1   109.8800469 414.216000
    319    326    328     1   109.8800469 414.216000
    320    332    333     1   109.8000471 387.438400
    320    332    334     1   109.8000471 387.438400
    321    320    332     1   109.5600471 388.275200
    321    320    322     1   108.4600466 328.025600
    322    320    332     1   109.5600471 388.275200
    323    335    336     1   109.8000471 387.438400
    323    335    337     1   109.8000471 387.438400
    324    323    335     1   109.5600471 388.275200
    324    323    325     1   108.4600466 328.025600
    325    323    335     1   109.5600471 388.275200
    326    329    330     1   109.8000471 387.438400
    326    329    331     1   109.8000471 387.438400
    327    326    329     1   109.5600471 388.275200
    327    326    328     1   108.4600466 328.025600
    328    326    329     1   109.5600471 388.275200
    329    338    339     1   109.5600471 388.275200
    329    338    340     1   109.5600471 388.275200
    330    329    338     1   109.8000471 387.438400
    330    329    331     1   107.5800459 329.699200
    331    329    338     1   109.8000471 387.438400
    332    344    345     1   109.5600471 388.275200
    332    344    346     1   109.5600471 388.275200
    333    332    344     1   109.8000471 387.438400
    333    332    334     1   107.5800459 329.699200
    334    332    344     1   109.8000471 387.438400
    335    341    342     1   109.5600471 388.275200
    335    341    343     1   109.5600471 388.275200
    336    335    341     1   109.8000471 387.438400
    336    335    337     1   107.5800459 329.699200
    337    335    341     1   109.8000471 387.438400
    339    338    347     1   109.7800468 425.094400
    339    338    340     1   108.4600466 328.025600
    340    338    347     1   109.7800468 425.094400
    342    341    724     1   109.7800468 425.094400
    342    341    343     1   108.4600466 328.025600
    343    341    724     1   109.7800468 425.094400
    345    344    753     1   109.7800468 425.094400
    345    344    346     1   108.4600466 328.025600
    346    344    753     1   109.7800468 425.094400
    348    349    350     1   109.8800469 414.216000
    348    349    351     1   109.8800469 414.216000
    348    352    353     1   109.8800469 414.216000
    348    352    354     1   109.8800469 414.216000
    348    355    356     1   109.8800469 414.216000
    348    355    357     1   109.8800469 414.216000
    349    361    362     1   109.8000471 387.438400
    349    361    363     1   109.8000471 387.438400
    350    349    361     1   109.5600471 388.275200
    350    349    351     1   108.4600466 328.025600
    351    349    361     1   109.5600471 388.275200
    352    364    365     1   109.8000471 387.438400
    352    364    366     1   109.8000471 387.438400
    353    352    364     1   109.5600471 388.275200
    353    352    354     1   108.4600466 328.025600
    354    352    364     1   109.5600471 388.275200
    355    358    359     1   109.8000471 387.438400
    355    358    360     1   109.8000471 387.438400
    356    355    358     1   109.5600471 388.275200
    356    355    357     1   108.4600466 328.025600
    357    355    358     1   109.5600471 388.275200
    358    367    368     1   109.5600471 388.275200
    358    367    369     1   109.5600471 388.275200
    359    358    367     1   109.8000471 387.438400
    359    358    360     1   107.5800459 329.699200
    360    358    367     1   109.8000471 387.438400
    361    373    374     1   109.5600471 388.275200
    361    373    375     1   109.5600471 388.275200
    362    361    373     1   109.8000471 387.438400
    362    361    363     1   107.5800459 329.699200
    363    361    373     1   109.8000471 387.438400
    364    370    371     1   109.5600471 388.275200
    364    370    372     1   109.5600471 388.275200
    365    364    370     1   109.8000471 387.438400
    365    364    366     1   107.5800459 329.699200
    366    364    370     1   109.8000471 387.438400
    368    367    376     1   109.7800468 425.094400
    368    367    369     1   108.4600466 328.025600
    369    367    376     1   109.7800468 425.094400
    371    370    782     1   109.7800468 425.094400
    371    370    372     1   108.4600466 328.025600
    372    370    782     1   109.7800468 425.094400
    374    373    811     1   109.7800468 425.094400
    374    373    375     1   108.4600466 328.025600
    375    373    811     1   109.7800468 425.094400
    377    378    379     1   109.8800469 414.216000
    377    378    380     1   109.8800469 414.216000
    377    381    382     1   109.8800469 414.216000
    377    381    383     1   109.8800469 414.216000
    377    384    385     1   109.8800469 414.216000
    377    384    386     1   109.8800469 414.216000
    378    390    391     1   109.8000471 387.438400
    378    390    392     1   109.8000471 387.438400
    379    378    390     1   109.5600471 388.275200
    379    378    380     1   108.4600466 328.025600
    380    378    390     1   109.5600471 388.275200
    381    393    394     1   109.8000471 387.438400
    381    393    395     1   109.8000471 387.438400
    382    381    393     1   109.5600471 388.275200
    382    381    383     1   108.4600466 328.025600
    383    381    393     1   109.5600471 388.275200
    384    387    388     1   109.8000471 387.438400
    384    387    389     1   109.8000471 387.438400
    385    384    387     1   109.5600471 388.275200
    385    384    386     1   108.4600466 328.025600
    386    384    387     1   109.5600471 388.275200
    387    396    397     1   109.5600471 388.275200
    387    396    398     1   109.5600471 388.275200
    388    387    396     1   109.8000471 387.438400
    388    387    389     1   107.5800459 329.699200
    389    387    396     1   109.8000471 387.438400
    390    402    403     1   109.5600471 388.275200
    390    402    404     1   109.5600471 388.275200
    391    390    402     1   109.8000471 387.438400
    391    390    392     1   107.5800459 329.699200
    392    390    402     1   109.8000471 387.438400
    393    399    400     1   109.5600471 388.275200
    393    399    401     1   109.5600471 388.275200
    394    393    399     1   109.8000471 387.438400
    394    393    395     1   107.5800459 329.699200
    395    393    399     1   109.8000471 387.438400
    397    396    405     1   109.7800468 425.094400
    397    396    398     1   108.4600466 328.025600
    398    396    405     1   109.7800468 425.094400
    400    399    840     1   109.7800468 425.094400
    400    399    401     1   108.4600466 328.025600
    401    399    840     1   109.7800468 425.094400
    403    402    869     1   109.7800468 425.094400
    403    402    404     1   108.4600466 328.025600
    404    402    869     1   109.7800468 425.094400
    406    407    408     1   109.8800469 414.216000
    406    407    409     1   109.8800469 414.216000
    406    410    411     1   109.8800469 414.216000
    406    410    412     1   109.8800469 414.216000
    406    413    414     1   109.8800469 414.216000
    406    413    415     1   109.8800469 414.216000
    407    419    420     1   109.8000471 387.438400
    407    419    421     1   109.8000471 387.438400
    408    407    419     1   109.5600471 388.275200
    408    407    409     1   108.4600466 328.025600
    409    407    419     1   109.5600471 388.275200
    410    422    423     1   109.8000471 387.438400
    410    422    424     1   109.8000471 387.438400
    411    410    422     1   109.5600471 388.275200
    411    410    412     1   108.4600466 328.025600
    412    410    422     1   109.5600471 388.275200
    413    416    417     1   109.8000471 387.438400
    413    416    418     1   109.8000471 387.438400
    414    413    416     1   109.5600471 388.275200
    414    413    415     1   108.4600466 328.025600
    415    413    416     1   109.5600471 388.275200
    416    425    426     1   109.5600471 388.275200
    416    425    427     1   109.5600471 388.275200
    417    416    425     1   109.8000471 387.438400
    417    416    418     1   107.5800459 329.699200
    418    416    425     1   109.8000471 387.438400
    419    431    432     1   109.5600471 388.275200
    419    431    433     1   109.5600471 388.275200
    420    419    431     1   109.8000471 387.438400
    420    419    421     1   107.5800459 329.699200
    421    419    431     1   109.8000471 387.438400
    422    428    429     1   109.5600471 388.275200
    422    428    430     1   109.5600471 388.275200
    423    422    428     1   109.8000471 387.438400
    423    422    424     1   107.5800459 329.699200
    424    422    428     1   109.8000471 387.438400
    426    425    434     1   109.7800468 425.094400
    426    425    427     1   108.4600466 328.025600
    427    425    434     1   109.7800468 425.094400
    429    428    898     1   109.7800468 425.094400
    429    428    430     1   108.4600466 328.025600
    430    428    898     1   109.7800468 425.094400
    432    431    927     1   109.7800468 425.094400
    432    431    433     1   108.4600466 328.025600
    433    431    927     1   109.7800468 425.094400
    435    436    437     1   109.8800469 414.216000
    435    436    438     1   109.8800469 414.216000
    435    439    440     1   109.8800469 414.216000
    435    439    441     1   109.8800469 414.216000
    435    442    443     1   109.8800469 414.216000
    435    442    444     1   109.8800469 414.216000
    436    448    449     1   109.8000471 387.438400
    436    448    450     1   109.8000471 387.438400
    437    436    448     1   109.5600471 388.275200
    437    436    438     1   108.4600466 328.025600
    438    436    448     1   109.5600471 388.275200
    439    451    452     1   109.8000471 387.438400
    439    451    453     1   109.8000471 387.438400
    440    439    451     1   109.5600471 388.275200
    440    439    441     1   108.4600466 328.025600
    441    439    451     1   109.5600471 388.275200
    442    445    446     1   109.8000471 387.438400
    442    445    447     1   109.8000471 387.438400
    443    442    445     1   109.5600471 388.275200
    443    442    444     1   108.4600466 328.025600
    444    442    445     1   109.5600471 388.275200
    445    454    455     1   109.5600471 388.275200
    445    454    456     1   109.5600471 388.275200
    446    445    454     1   109.8000471 387.438400
    446    445    447     1   107.5800459 329.699200
    447    445    454     1   109.8000471 387.438400
    448    460    461     1   109.5600471 388.275200
    448    460    462     1   109.5600471 388.275200
    449    448    460     1   109.8000471 387.438400
    449    448    450     1   107.5800459 329.699200
    450    448    460     1   109.8000471 387.438400
    451    457    458     1   109.5600471 388.275200
    451    457    459     1   109.5600471 388.275200
    452    451    457     1   109.8000471 387.438400
    452    451    453     1   107.5800459 329.699200
    453    451    457     1   109.8000471 387.438400
    455    454    463     1   109.7800468 425.094400
    455    454    456     1   108.4600466 328.025600
    456    454    463     1   109.7800468 425.094400
    458    457    956     1   109.7800468 425.094400
    458    457    459     1   108.4600466 328.025600
    459    457    956     1   109.7800468 425.094400
    461    460    985     1   109.7800468 425.094400
    461    460    462     1   108.4600466 328.025600
    462    460    985     1   109.7800468 425.094400
    464    465    466     1   109.8800469 414.216000
    464    465    467     1   109.8800469 414.216000
    464    468    469     1   109.8800469 414.216000
    464    468    470     1   109.8800469 414.216000
    464    471    472     1   109.8800469 414.216000
    464    471    473     1   109.8800469 414.216000
    465    477    478     1   109.8000471 387.438400
    465    477    479     1   109.8000471 387.438400
    466    465    477     1   109.5600471 388.275200
    466    465    467     1   108.4600466 328.025600
    467    465    477     1   109.5600471 388.275200
    468    480    481     1   109.8000471 387.438400
    468    480    482     1   109.8000471 387.438400
    469    468    480     1   109.5600471 388.275200
    469    468    470     1   108.4600466 328.025600
    470    468    480     1   109.5600471 388.275200
    471    474    475     1   109.8000471 387.438400
    471    474    476     1   109.8000471 387.438400
    472    471    474     1   109.5600471 388.275200
    472    471    473     1   108.4600466 328.025600
    473    471    474     1   109.5600471 388.275200
    474    483    484     1   109.5600471 388.275200
    474    483    485     1   109.5600471 388.275200
    475    474    483     1   109.8000471 387.438400
    475    474    476     1   107.5800459 329.699200
    476    474    483     1   109.8000471 387.438400
    477    489    490     1   109.5600471 388.275200
    477    489    491     1   109.5600471 388.275200
    478    477    489     1   109.8000471 387.438400
    478    477    479     1   107.5800459 329.699200
    479    477    489     1   109.8000471 387.438400
    480    486    487     1   109.5600471 388.275200
    480    486    488     1   109.5600471 388.275200
    481    480    486     1   109.8000471 387.438400
    481    480    482     1   107.5800459 329.699200
    482    480    486     1   109.8000471 387.438400
    484    483    492     1   109.7800468 425.094400
    484    483    485     1   108.4600466 328.025600
    485    483    492     1   109.7800468 425.094400
    487    486   1014     1   109.7800468 425.094400
    487    486    488     1   108.4600466 328.025600
    488    486   1014     1   109.7800468 425.094400
    490    489   1043     1   109.7800468 425.094400
    490    489    491     1   108.4600466 328.025600
    491    489   1043     1   109.7800468 425.094400
    493    494    495     1   109.8800469 414.216000
    493    494    496     1   109.8800469 414.216000
    493    497    498     1   109.8800469 414.216000
    493    497    499     1   109.8800469 414.216000
    493    500    501     1   109.8800469 414.216000
    493    500    502     1   109.8800469 414.216000
    494    506    507     1   109.8000471 387.438400
    494    506    508     1   109.8000471 387.438400
    495    494    506     1   109.5600471 388.275200
    495    494    496     1   108.4600466 328.025600
    496    494    506     1   109.5600471 388.275200
    497    509    510     1   109.8000471 387.438400
    497    509    511     1   109.8000471 387.438400
    498    497    509     1   109.5600471 388.275200
    498    497    499     1   108.4600466 328.025600
    499    497    509     1   109.5600471 388.275200
    500    503    504     1   109.8000471 387.438400
    500    503    505     1   109.8000471 387.438400
    501    500    503     1   109.5600471 388.275200
    501    500    502     1   108.4600466 328.025600
    502    500    503     1   109.5600471 388.275200
    503    512    513     1   109.5600471 388.275200
    503    512    514     1   109.5600471 388.275200
    504    503    512     1   109.8000471 387.438400
    504    503    505     1   107.5800459 329.699200
    505    503    512     1   109.8000471 387.438400
    506    518    519     1   109.5600471 388.275200
    506    518    520     1   109.5600471 388.275200
    507    506    518     1   109.8000471 387.438400
    507    506    508     1   107.5800459 329.699200
    508    506    518     1   109.8000471 387.438400
    509    515    516     1   109.5600471 388.275200
    509    515    517     1   109.5600471 388.275200
    510    509    515     1   109.8000471 387.438400
    510    509    511     1   107.5800459 329.699200
    511    509    515     1   109.8000471 387.438400
    513    512    521     1   109.7800468 425.094400
    513    512    514     1   108.4600466 328.025600
    514    512    521     1   109.7800468 425.094400
    516    515   1072     1   109.7800468 425.094400
    516    515    517     1   108.4600466 328.025600
    517    515   1072     1   109.7800468 425.094400
    519    518   1101     1   109.7800468 425.094400
    519    518    520     1   108.4600466 328.025600
    520    518   1101     1   109.7800468 425.094400
    522    523    524     1   109.8800469 414.216000
    522    523    525     1   109.8800469 414.216000
    522    526    527     1   109.8800469 414.216000
    522    526    528     1   109.8800469 414.216000
    522    529    530     1   109.8800469 414.216000
    522    529    531     1   109.8800469 414.216000
    523    535    536     1   109.8000471 387.438400
    523    535    537     1   109.8000471 387.438400
    524    523    535     1   109.5600471 388.275200
    524    523    525     1   108.4600466 328.025600
    525    523    535     1   109.5600471 388.275200
    526    538    539     1   109.8000471 387.438400
    526    538    540     1   109.8000471 387.438400
    527    526    538     1   109.5600471 388.275200
    527    526    528     1   108.4600466 328.025600
    528    526    538     1   109.5600471 388.275200
    529    532    533     1   109.8000471 387.438400
    529    532    534     1   109.8000471 387.438400
    530    529    532     1   109.5600471 388.275200
    530    529    531     1   108.4600466 328.025600
    531    529    532     1   109.5600471 388.275200
    532    541    542     1   109.5600471 388.275200
    532    541    543     1   109.5600471 388.275200
    533    532    541     1   109.8000471 387.438400
    533    532    534     1   107.5800459 329.699200
    534    532    541     1   109.8000471 387.438400
    535    547    548     1   109.5600471 388.275200
    535    547    549     1   109.5600471 388.275200
    536    535    547     1   109.8000471 387.438400
    536    535    537     1   107.5800459 329.699200
    537    535    547     1   109.8000471 387.438400
    538    544    545     1   109.5600471 388.275200
    538    544    546     1   109.5600471 388.275200
    539    538    544     1   109.8000471 387.438400
    539    538    540     1   107.5800459 329.699200
    540    538    544     1   109.8000471 387.438400
    542    541    550     1   109.7800468 425.094400
    542    541    543     1   108.4600466 328.025600
    543    541    550     1   109.7800468 425.094400
    545    544   1130     1   109.7800468 425.094400
    545    544    546     1   108.4600466 328.025600
    546    544   1130     1   109.7800468 425.094400
    548    547   1159     1   109.7800468 425.094400
    548    547    549     1   108.4600466 328.025600
    549    547   1159     1   109.7800468 425.094400
    551    552    553     1   109.8800469 414.216000
    551    552    554     1   109.8800469 414.216000
    551    555    556     1   109.8800469 414.216000
    551    555    557     1   109.8800469 414.216000
    551    558    559     1   109.8800469 414.216000
    551    558    560     1   109.8800469 414.216000
    552    564    565     1   109.8000471 387.438400
    552    564    566     1   109.8000471 387.438400
    553    552    564     1   109.5600471 388.275200
    553    552    554     1   108.4600466 328.025600
    554    552    564     1   109.5600471 388.275200
    555    567    568     1   109.8000471 387.438400
    555    567    569     1   109.8000471 387.438400
    556    555    567     1   109.5600471 388.275200
    556    555    557     1   108.4600466 328.025600
    557    555    567     1   109.5600471 388.275200
    558    561    562     1   109.8000471 387.438400
    558    561    563     1   109.8000471 387.438400
    559    558    561     1   109.5600471 388.275200
    559    558    560     1   108.4600466 328.025600
    560    558    561     1   109.5600471 388.275200
    561    570    571     1   109.5600471 388.275200
    561    570    572     1   109.5600471 388.275200
    562    561    570     1   109.8000471 387.438400
    562    561    563     1   107.5800459 329.699200
    563    561    570     1   109.8000471 387.438400
    564    576    577     1   109.5600471 388.275200
    564    576    578     1   109.5600471 388.275200
    565    564    576     1   109.8000471 387.438400
    565    564    566     1   107.5800459 329.699200
    566    564    576     1   109.8000471 387.438400
    567    573    574     1   109.5600471 388.275200
    567    573    575     1   109.5600471 388.275200
    568    567    573     1   109.8000471 387.438400
    568    567    569     1   107.5800459 329.699200
    569    567    573     1   109.8000471 387.438400
    571    570    579     1   109.7800468 425.094400
    571    570    572     1   108.4600466 328.025600
    572    570    579     1   109.7800468 425.094400
    574    573   1188     1   109.7800468 425.094400
    574    573    575     1   108.4600466 328.025600
    575    573   1188     1   109.7800468 425.094400
    577    576   1217     1   109.7800468 425.094400
    577    576    578     1   108.4600466 328.025600
    578    576   1217     1   109.7800468 425.094400
    580    581    582     1   109.8800469 414.216000
    580    581    583     1   109.8800469 414.216000
    580    584    585     1   109.8800469 414.216000
    580    584    586     1   109.8800469 414.216000
    580    587    588     1   109.8800469 414.216000
    580    587    589     1   109.8800469 414.216000
    581    593    594     1   109.8000471 387.438400
    581    593    595     1   109.8000471 387.438400
    582    581    593     1   109.5600471 388.275200
    582    581    583     1   108.4600466 328.025600
    583    581    593     1   109.5600471 388.275200
    584    596    597     1   109.8000471 387.438400
    584    596    598     1   109.8000471 387.438400
    585    584    596     1   109.5600471 388.275200
    585    584    586     1   108.4600466 328.025600
    586    584    596     1   109.5600471 388.275200
    587    590    591     1   109.8000471 387.438400
    587    590    592     1   109.8000471 387.438400
    588    587    590     1   109.5600471 388.275200
    588    587    589     1   108.4600466 328.025600
    589    587    590     1   109.5600471 388.275200
    590    599    600     1   109.5600471 388.275200
    590    599    601     1   109.5600471 388.275200
    591    590    599     1   109.8000471 387.438400
    591    590    592     1   107.5800459 329.699200
    592    590    599     1   109.8000471 387.438400
    593    605    606     1   109.5600471 388.275200
    593    605    607     1   109.5600471 388.275200
    594    593    605     1   109.8000471 387.438400
    594    593    595     1   107.5800459 329.699200
    595    593    605     1   109.8000471 387.438400
    596    602    603     1   109.5600471 388.275200
    596    602    604     1   109.5600471 388.275200
    597    596    602     1   109.8000471 387.438400
    597    596    598     1   107.5800459 329.699200
    598    596    602     1   109.8000471 387.438400
    600    599    608     1   109.7800468 425.094400
    600    599    601     1   108.4600466 328.025600
    601    599    608     1   109.7800468 425.094400
    603    602   1246     1   109.7800468 425.094400
    603    602    604     1   108.4600466 328.025600
    604    602   1246     1   109.7800468 425.094400
    606    605   1275     1   109.7800468 425.094400
    606    605    607     1   108.4600466 328.025600
    607    605   1275     1   109.7800468 425.094400
    609    610    611     1   109.8800469 414.216000
    609    610    612     1   109.8800469 414.216000
    609    613    614     1   109.8800469 414.216000
    609    613    615     1   109.8800469 414.216000
    609    616    617     1   109.8800469 414.216000
    609    616    618     1   109.8800469 414.216000
    610    622    623     1   109.8000471 387.438400
    610    622    624     1   109.8000471 387.438400
    611    610    622     1   109.5600471 388.275200
    611    610    612     1   108.4600466 328.025600
    612    610    622     1   109.5600471 388.275200
    613    625    626     1   109.8000471 387.438400
    613    625    627     1   109.8000471 387.438400
    614    613    625     1   109.5600471 388.275200
    614    613    615     1   108.4600466 328.025600
    615    613    625     1   109.5600471 388.275200
    616    619    620     1   109.8000471 387.438400
    616    619    621     1   109.8000471 387.438400
    617    616    619     1   109.5600471 388.275200
    617    616    618     1   108.4600466 328.025600
    618    616    619     1   109.5600471 388.275200
    619    628    629     1   109.5600471 388.275200
    619    628    630     1   109.5600471 388.275200
    620    619    628     1   109.8000471 387.438400
    620    619    621     1   107.5800459 329.699200
    621    619    628     1   109.8000471 387.438400
    622    634    635     1   109.5600471 388.275200
    622    634    636     1   109.5600471 388.275200
    623    622    634     1   109.8000471 387.438400
    623    622    624     1   107.5800459 329.699200
    624    622    634     1   109.8000471 387.438400
    625    631    632     1   109.5600471 388.275200
    625    631    633     1   109.5600471 388.275200
    626    625    631     1   109.8000471 387.438400
    626    625    627     1   107.5800459 329.699200
    627    625    631     1   109.8000471 387.438400
    629    628    637     1   109.7800468 425.094400
    629    628    630     1   108.4600466 328.025600
    630    628    637     1   109.7800468 425.094400
    632    631   1304     1   109.7800468 425.094400
    632    631    633     1   108.4600466 328.025600
    633    631   1304     1   109.7800468 425.094400
    635    634   1333     1   109.7800468 425.094400
    635    634    636     1   108.4600466 328.025600
    636    634   1333     1   109.7800468 425.094400
    638    639    640     1   109.8800469 414.216000
    638    639    641     1   109.8800469 414.216000
    638    642    643     1   109.8800469 414.216000
    638    642    644     1   109.8800469 414.216000
    638    645    646     1   109.8800469 414.216000
    638    645    647     1   109.8800469 414.216000
    639    651    652     1   109.8000471 387.438400
    639    651    653     1   109.8000471 387.438400
    640    639    651     1   109.5600471 388.275200
    640    639    641     1   108.4600466 328.025600
    641    639    651     1   109.5600471 388.275200
    642    654    655     1   109.8000471 387.438400
    642    654    656     1   109.8000471 387.438400
    643    642    654     1   109.5600471 388.275200
    643    642    644     1   108.4600466 328.025600
    644    642    654     1   109.5600471 388.275200
    645    648    649     1   109.8000471 387.438400
    645    648    650     1   109.8000471 387.438400
    646    645    648     1   109.5600471 388.275200
    646    645    647     1   108.4600466 328.025600
    647    645    648     1   109.5600471 388.275200
    648    657    658     1   109.5600471 388.275200
    648    657    659     1   109.5600471 388.275200
    649    648    657     1   109.8000471 387.438400
    649    648    650     1   107.5800459 329.699200
    650    648    657     1   109.8000471 387.438400
    651    663    664     1   109.5600471 388.275200
    651    663    665     1   109.5600471 388.275200
    652    651    663     1   109.8000471 387.438400
    652    651    653     1   107.5800459 329.699200
    653    651    663     1   109.8000471 387.438400
    654    660    661     1   109.5600471 388.275200
    654    660    662     1   109.5600471 388.275200
    655    654    660     1   109.8000471 387.438400
    655    654    656     1   107.5800459 329.699200
    656    654    660     1   109.8000471 387.438400
    658    657    666     1   109.7800468 425.094400
    658    657    659     1   108.4600466 328.025600
    659    657    666     1   109.7800468 425.094400
    661    660   1362     1   109.7800468 425.094400
    661    660    662     1   108.4600466 328.025600
    662    660   1362     1   109.7800468 425.094400
    664    663   1391     1   109.7800468 425.094400
    664    663    665     1   108.4600466 328.025600
    665    663   1391     1   109.7800468 425.094400
    667    668    669     1   109.8800469 414.216000
    667    668    670     1   109.8800469 414.216000
    667    671    672     1   109.8800469 414.216000
    667    671    673     1   109.8800469 414.216000
    667    674    675     1   109.8800469 414.216000
    667    674    676     1   109.8800469 414.216000
    668    680    681     1   109.8000471 387.438400
    668    680    682     1   109.8000471 387.438400
    669    668    680     1   109.5600471 388.275200
    669    668    670     1   108.4600466 328.025600
    670    668    680     1   109.5600471 388.275200
    671    683    684     1   109.8000471 387.438400
    671    683    685     1   109.8000471 387.438400
    672    671    683     1   109.5600471 388.275200
    672    671    673     1   108.4600466 328.025600
    673    671    683     1   109.5600471 388.275200
    674    677    678     1   109.8000471 387.438400
    674    677    679     1   109.8000471 387.438400
    675    674    677     1   109.5600471 388.275200
    675    674    676     1   108.4600466 328.025600
    676    674    677     1   109.5600471 388.275200
    677    686    687     1   109.5600471 388.275200
    677    686    688     1   109.5600471 388.275200
    678    677    686     1   109.8000471 387.438400
    678    677    679     1   107.5800459 329.699200
    679    677    686     1   109.8000471 387.438400
    680    692    693     1   109.5600471 388.275200
    680    692    694     1   109.5600471 388.275200
    681    680    692     1   109.8000471 387.438400
    681    680    682     1   107.5800459 329.699200
    682    680    692     1   109.8000471 387.438400
    683    689    690     1   109.5600471 388.275200
    683    689    691     1   109.5600471 388.275200
    684    683    689     1   109.8000471 387.438400
    684    683    685     1   107.5800459 329.699200
    685    683    689     1   109.8000471 387.438400
    687    686    695     1   109.7800468 425.094400
    687    686    688     1   108.4600466 328.025600
    688    686    695     1   109.7800468 425.094400
    690    689   1420     1   109.7800468 425.094400
    690    689    691     1   108.4600466 328.025600
    691    689   1420     1   109.7800468 425.094400
    693    692   1449     1   109.7800468 425.094400
    693    692    694     1   108.4600466 328.025600
    694    692   1449     1   109.7800468 425.094400
    696    697    698     1   109.8800469 414.216000
    696    697    699     1   109.8800469 414.216000
    696    700    701     1   109.8800469 414.216000
    696    700    702     1   109.8800469 414.216000
    696    703    704     1   109.8800469 414.216000
    696    703    705     1   109.8800469 414.216000
    697    709    710     1   109.8000471 387.438400
    697    709    711     1   109.8000471 387.438400
    698    697    709     1   109.5600471 388.275200
    698    697    699     1   108.4600466 328.025600
    699    697    709     1   109.5600471 388.275200
    700    712    713     1   109.8000471 387.438400
    700    712    714     1   109.8000471 387.438400
    701    700    712     1   109.5600471 388.275200
    701    700    702     1   108.4600466 328.025600
    702    700    712     1   109.5600471 388.275200
    703    706    707     1   109.8000471 387.438400
    703    706    708     1   109.8000471 387.438400
    704    703    706     1   109.5600471 388.275200
    704    703    705     1   108.4600466 328.025600
    705    703    706     1   109.5600471 388.275200
    706    715    716     1   109.5600471 388.275200
    706    715    717     1   109.5600471 388.275200
    707    706    715     1   109.8000471 387.438400
    707    706    708     1   107.5800459 329.699200
    708    706    715     1   109.8000471 387.438400
    709    721    722     1   109.5600471 388.275200
    709    721    723     1   109.5600471 388.275200
    710    709    721     1   109.8000471 387.438400
    710    709    711     1   107.5800459 329.699200
    711    709    721     1   109.8000471 387.438400
    712    718    719     1   109.5600471 388.275200
    712    718    720     1   109.5600471 388.275200
    713    712    718     1   109.8000471 387.438400
    713    712    714     1   107.5800459 329.699200
    714    712    718     1   109.8000471 387.438400
    716    715    724     1   109.7800468 425.094400
    716    715    717     1   108.4600466 328.025600
    717    715    724     1   109.7800468 425.094400
    719    718   1478     1   109.7800468 425.094400
    719    718    720     1   108.4600466 328.025600
    720    718   1478     1   109.7800468 425.094400
    722    721   1507     1   109.7800468 425.094400
    722    721    723     1   108.4600466 328.025600
    723    721   1507     1   109.7800468 425.094400
    725    726    727     1   109.8800469 414.216000
    725    726    728     1   109.8800469 414.216000
    725    729    730     1   109.8800469 414.216000
    725    729    731     1   109.8800469 414.216000
    725    732    733     1   109.8800469 414.216000
    725    732    734     1   109.8800469 414.216000
    726    738    739     1   109.8000471 387.438400
    726    738    740     1   109.8000471 387.438400
    727    726    738     1   109.5600471 388.275200
    727    726    728     1   108.4600466 328.025600
    728    726    738     1   109.5600471 388.275200
    729    741    742     1   109.8000471 387.438400
    729    741    743     1   109.8000471 387.438400
    730    729    741     1   109.5600471 388.275200
    730    729    731     1   108.4600466 328.025600
    731    729    741     1   109.5600471 388.275200
    732    735    736     1   109.8000471 387.438400
    732    735    737     1   109.8000471 387.438400
    733    732    735     1   109.5600471 388.275200
    733    732    734     1   108.4600466 328.025600
    734    732    735     1   109.5600471 388.275200
    735    744    745     1   109.5600471 388.275200
    735    744    746     1   109.5600471 388.275200
    736    735    744     1   109.8000471 387.438400
    736    735    737     1   107.5800459 329.699200
    737    735    744     1   109.8000471 387.438400
    738    750    751     1   109.5600471 388.275200
    738    750    752     1   109.5600471 388.275200
    739    738    750     1   109.8000471 387.438400
    739    738    740     1   107.5800459 329.699200
    740    738    750     1   109.8000471 387.438400
    741    747    748     1   109.5600471 388.275200
    741    747    749     1   109.5600471 388.275200
    742    741    747     1   109.8000471 387.438400
    742    741    743     1   107.5800459 329.699200
    743    741    747     1   109.8000471 387.438400
    745    744    753     1   109.7800468 425.094400
    745    744    746     1   108.4600466 328.025600
    746    744    753     1   109.7800468 425.094400
    748    747   1536     1   109.7800468 425.094400
    748    747    749     1   108.4600466 328.025600
    749    747   1536     1   109.7800468 425.094400
    751    750   1565     1   109.7800468 425.094400
    751    750    752     1   108.4600466 328.025600
    752    750   1565     1   109.7800468 425.094400
    754    755    756     1   109.8800469 414.216000
    754    755    757     1   109.8800469 414.216000
    754    758    759     1   109.8800469 414.216000
    754    758    760     1   109.8800469 414.216000
    754    761    762     1   109.8800469 414.216000
    754    761    763     1   109.8800469 414.216000
    755    767    768     1   109.8000471 387.438400
    755    767    769     1   109.8000471 387.438400
    756    755    767     1   109.5600471 388.275200
    756    755    757     1   108.4600466 328.025600
    757    755    767     1   109.5600471 388.275200
    758    770    771     1   109.8000471 387.438400
    758    770    772     1   109.8000471 387.438400
    759    758    770     1   109.5600471 388.275200
    759    758    760     1   108.4600466 328.025600
    760    758    770     1   109.5600471 388.275200
    761    764    765     1   109.8000471 387.438400
    761    764    766     1   109.8000471 387.438400
    762    761    764     1   109.5600471 388.275200
    762    761    763     1   108.4600466 328.025600
    763    761    764     1   109.5600471 388.275200
    764    773    774     1   109.5600471 388.275200
    764    773    775     1   109.5600471 388.275200
    765    764    773     1   109.8000471 387.438400
    765    764    766     1   107.5800459 329.699200
    766    764    773     1   109.8000471 387.438400
    767    779    780     1   109.5600471 388.275200
    767    779    781     1   109.5600471 388.275200
    768    767    779     1   109.8000471 387.438400
    768    767    769     1   107.5800459 329.699200
    769    767    779     1   109.8000471 387.438400
    770    776    777     1   109.5600471 388.275200
    770    776    778     1   109.5600471 388.275200
    771    770    776     1   109.8000471 387.438400
    771    770    772     1   107.5800459 329.699200
    772    770    776     1   109.8000471 387.438400
    774    773    782     1   109.7800468 425.094400
    774    773    775     1   108.4600466 328.025600
    775    773    782     1   109.7800468 425.094400
    777    776   1594     1   109.7800468 425.094400
    777    776    778     1   108.4600466 328.025600
    778    776   1594     1   109.7800468 425.094400
    780    779   1623     1   109.7800468 425.094400
    780    779    781     1   108.4600466 328.025600
    781    779   1623     1   109.7800468 425.094400
    783    784    785     1   109.8800469 414.216000
    783    784    786     1   109.8800469 414.216000
    783    787    788     1   109.8800469 414.216000
    783    787    789     1   109.8800469 414.216000
    783    790    791     1   109.8800469 414.216000
    783    790    792     1   109.8800469 414.216000
    784    796    797     1   109.8000471 387.438400
    784    796    798     1   109.8000471 387.438400
    785    784    796     1   109.5600471 388.275200
    785    784    786     1   108.4600466 328.025600
    786    784    796     1   109.5600471 388.275200
    787    799    800     1   109.8000471 387.438400
    787    799    801     1   109.8000471 387.438400
    788    787    799     1   109.5600471 388.275200
    788    787    789     1   108.4600466 328.025600
    789    787    799     1   109.5600471 388.275200
    790    793    794     1   109.8000471 387.438400
    790    793    795     1   109.8000471 387.438400
    791    790    793     1   109.5600471 388.275200
    791    790    792     1   108.4600466 328.025600
    792    790    793     1   109.5600471 388.275200
    793    802    803     1   109.5600471 388.275200
    793    802    804     1   109.5600471 388.275200
    794    793    802     1   109.8000471 387.438400
    794    793    795     1   107.5800459 329.699200
    795    793    802     1   109.8000471 387.438400
    796    808    809     1   109.5600471 388.275200
    796    808    810     1   109.5600471 388.275200
    797    796    808     1   109.8000471 387.438400
    797    796    798     1   107.5800459 329.699200
    798    796    808     1   109.8000471 387.438400
    799    805    806     1   109.5600471 388.275200
    799    805    807     1   109.5600471 388.275200
    800    799    805     1   109.8000471 387.438400
    800    799    801     1   107.5800459 329.699200
    801    799    805     1   109.8000471 387.438400
    803    802    811     1   109.7800468 425.094400
    803    802    804     1   108.4600466 328.025600
    804    802    811     1   109.7800468 425.094400
    806    805   1652     1   109.7800468 425.094400
    806    805    807     1   108.4600466 328.025600
    807    805   1652     1   109.7800468 425.094400
    809    808   1681     1   109.7800468 425.094400
    809    808    810     1   108.4600466 328.025600
    810    808   1681     1   109.7800468 425.094400
    812    813    814     1   109.8800469 414.216000
    812    813    815     1   109.8800469 414.216000
    812    816    817     1   109.8800469 414.216000
    812    816    818     1   109.8800469 414.216000
    812    819    820     1   109.8800469 414.216000
    812    819    821     1   109.8800469 414.216000
    813    825    826     1   109.8000471 387.438400
    813    825    827     1   109.8000471 387.438400
    814    813    825     1   109.5600471 388.275200
    814    813    815     1   108.4600466 328.025600
    815    813    825     1   109.5600471 388.275200
    816    828    829     1   109.8000471 387.438400
    816    828    830     1   109.8000471 387.438400
    817    816    828     1   109.5600471 388.275200
    817    816    818     1   108.4600466 328.025600
    818    816    828     1   109.5600471 388.275200
    819    822    823     1   109.8000471 387.438400
    819    822    824     1   109.8000471 387.438400
    820    819    822     1   109.5600471 388.275200
    820    819    821     1   108.4600466 328.025600
    821    819    822     1   109.5600471 388.275200
    822    831    832     1   109.5600471 388.275200
    822    831    833     1   109.5600471 388.275200
    823    822    831     1   109.8000471 387.438400
    823    822    824     1   107.5800459 329.699200
    824    822    831     1   109.8000471 387.438400
    825    837    838     1   109.5600471 388.275200
    825    837    839     1   109.5600471 388.275200
    826    825    837     1   109.8000471 387.438400
    826    825    827     1   107.5800459 329.699200
    827    825    837     1   109.8000471 387.438400
    828    834    835     1   109.5600471 388.275200
    828    834    836     1   109.5600471 388.275200
    829    828    834     1   109.8000471 387.438400
    829    828    830     1   107.5800459 329.699200
    830    828    834     1   109.8000471 387.438400
    832    831    840     1   109.7800468 425.094400
    832    831    833     1   108.4600466 328.025600
    833    831    840     1   109.7800468 425.094400
    835    834   1710     1   109.7800468 425.094400
    835    834    836     1   108.4600466 328.025600
    836    834   1710     1   109.7800468 425.094400
    838    837   1739     1   109.7800468 425.094400
    838    837    839     1   108.4600466 328.025600
    839    837   1739     1   109.7800468 425.094400
    841    842    843     1   109.8800469 414.216000
    841    842    844     1   109.8800469 414.216000
    841    845    846     1   109.8800469 414.216000
    841    845    847     1   109.8800469 414.216000
    841    848    849     1   109.8800469 414.216000
    841    848    850     1   109.8800469 414.216000
    842    854    855     1   109.8000471 387.438400
    842    854    856     1   109.8000471 387.438400
    843    842    854     1   109.5600471 388.275200
    843    842    844     1   108.4600466 328.025600
    844    842    854     1   109.5600471 388.275200
    845    857    858     1   109.8000471 387.438400
    845    857    859     1   109.8000471 387.438400
    846    845    857     1   109.5600471 388.275200
    846    845    847     1   108.4600466 328.025600
    847    845    857     1   109.5600471 388.275200
    848    851    852     1   109.8000471 387.438400
    848    851    853     1   109.8000471 387.438400
    849    848    851     1   109.5600471 388.275200
    849    848    850     1   108.4600466 328.025600
    850    848    851     1   109.5600471 388.275200
    851    860    861     1   109.5600471 388.275200
    851    860    862     1   109.5600471 388.275200
    852    851    860     1   109.8000471 387.438400
    852    851    853     1   107.5800459 329.699200
    853    851    860     1   109.8000471 387.438400
    854    866    867     1   109.5600471 388.275200
    854    866    868     1   109.5600471 388.275200
    855    854    866     1   109.8000471 387.438400
    855    854    856     1   107.5800459 329.699200
    856    854    866     1   109.8000471 387.438400
    857    863    864     1   109.5600471 388.275200
    857    863    865     1   109.5600471 388.275200
    858    857    863     1   109.8000471 387.438400
    858    857    859     1   107.5800459 329.699200
    859    857    863     1   109.8000471 387.438400
    861    860    869     1   109.7800468 425.094400
    861    860    862     1   108.4600466 328.025600
    862    860    869     1   109.7800468 425.094400
    864    863   1768     1   109.7800468 425.094400
    864    863    865     1   108.4600466 328.025600
    865    863   1768     1   109.7800468 425.094400
    867    866   1797     1   109.7800468 425.094400
    867    866    868     1   108.4600466 328.025600
    868    866   1797     1   109.7800468 425.094400
    870    871    872     1   109.8800469 414.216000
    870    871    873     1   109.8800469 414.216000
    870    874    875     1   109.8800469 414.216000
    870    874    876     1   109.8800469 414.216000
    870    877    878     1   109.8800469 414.216000
    870    877    879     1   109.8800469 414.216000
    871    883    884     1   109.8000471 387.438400
    871    883    885     1   109.8000471 387.438400
    872    871    883     1   109.5600471 388.275200
    872    871    873     1   108.4600466 328.025600
    873    871    883     1   109.5600471 388.275200
    874    886    887     1   109.8000471 387.438400
    874    886    888     1   109.8000471 387.438400
    875    874    886     1   109.5600471 388.275200
    875    874    876     1   108.4600466 328.025600
    876    874    886     1   109.5600471 388.275200
    877    880    881     1   109.8000471 387.438400
    877    880    882     1   109.8000471 387.438400
    878    877    880     1   109.5600471 388.275200
    878    877    879     1   108.4600466 328.025600
    879    877    880     1   109.5600471 388.275200
    880    889    890     1   109.5600471 388.275200
    880    889    891     1   109.5600471 388.275200
    881    880    889     1   109.8000471 387.438400
    881    880    882     1   107.5800459 329.699200
    882    880    889     1   109.8000471 387.438400
    883    895    896     1   109.5600471 388.275200
    883    895    897     1   109.5600471 388.275200
    884    883    895     1   109.8000471 387.438400
    884    883    885     1   107.5800459 329.699200
    885    883    895     1   109.8000471 387.438400
    886    892    893     1   109.5600471 388.275200
    886    892    894     1   109.5600471 388.275200
    887    886    892     1   109.8000471 387.438400
    887    886    888     1   107.5800459 329.699200
    888    886    892     1   109.8000471 387.438400
    890    889    898     1   109.7800468 425.094400
    890    889    891     1   108.4600466 328.025600
    891    889    898     1   109.7800468 425.094400
    893    892   1826     1   109.7800468 425.094400
    893    892    894     1   108.4600466 328.025600
    894    892   1826     1   109.7800468 425.094400
    896    895   1855     1   109.7800468 425.094400
    896    895    897     1   108.4600466 328.025600
    897    895   1855     1   109.7800468 425.094400
    899    900    901     1   109.8800469 414.216000
    899    900    902     1   109.8800469 414.216000
    899    903    904     1   109.8800469 414.216000
    899    903    905     1   109.8800469 414.216000
    899    906    907     1   109.8800469 414.216000
    899    906    908     1   109.8800469 414.216000
    900    912    913     1   109.8000471 387.438400
    900    912    914     1   109.8000471 387.438400
    901    900    912     1   109.5600471 388.275200
    901    900    902     1   108.4600466 328.025600
    902    900    912     1   109.5600471 388.275200
    903    915    916     1   109.8000471 387.438400
    903    915    917     1   109.8000471 387.438400
    904    903    915     1   109.5600471 388.275200
    904    903    905     1   108.4600466 328.025600
    905    903    915     1   109.5600471 388.275200
    906    909    910     1   109.8000471 387.438400
    906    909    911     1   109.8000471 387.438400
    907    906    909     1   109.5600471 388.275200
    907    906    908     1   108.4600466 328.025600
    908    906    909     1   109.5600471 388.275200
    909    918    919     1   109.5600471 388.275200
    909    918    920     1   109.5600471 388.275200
    910    909    918     1   109.8000471 387.438400
    910    909    911     1   107.5800459 329.699200
    911    909    918     1   109.8000471 387.438400
    912    924    925     1   109.5600471 388.275200
    912    924    926     1   109.5600471 388.275200
    913    912    924     1   109.8000471 387.438400
    913    912    914     1   107.5800459 329.699200
    914    912    924     1   109.8000471 387.438400
    915    921    922     1   109.5600471 388.275200
    915    921    923     1   109.5600471 388.275200
    916    915    921     1   109.8000471 387.438400
    916    915    917     1   107.5800459 329.699200
    917    915    921     1   109.8000471 387.438400
    919    918    927     1   109.7800468 425.094400
    919    918    920     1   108.4600466 328.025600
    920    918    927     1   109.7800468 425.094400
    922    921   1884     1   109.7800468 425.094400
    922    921    923     1   108.4600466 328.025600
    923    921   1884     1   109.7800468 425.094400
    925    924   1913     1   109.7800468 425.094400
    925    924    926     1   108.4600466 328.025600
    926    924   1913     1   109.7800468 425.094400
    928    929    930     1   109.8800469 414.216000
    928    929    931     1   109.8800469 414.216000
    928    932    933     1   109.8800469 414.216000
    928    932    934     1   109.8800469 414.216000
    928    935    936     1   109.8800469 414.216000
    928    935    937     1   109.8800469 414.216000
    929    941    942     1   109.8000471 387.438400
    929    941    943     1   109.8000471 387.438400
    930    929    941     1   109.5600471 388.275200
    930    929    931     1   108.4600466 328.025600
    931    929    941     1   109.5600471 388.275200
    932    944    945     1   109.8000471 387.438400
    932    944    946     1   109.8000471 387.438400
    933    932    944     1   109.5600471 388.275200
    933    932    934     1   108.4600466 328.025600
    934    932    944     1   109.5600471 388.275200
    935    938    939     1   109.8000471 387.438400
    935    938    940     1   109.8000471 387.438400
    936    935    938     1   109.5600471 388.275200
    936    935    937     1   108.4600466 328.025600
    937    935    938     1   109.5600471 388.275200
    938    947    948     1   109.5600471 388.275200
    938    947    949     1   109.5600471 388.275200
    939    938    947     1   109.8000471 387.438400
    939    938    940     1   107.5800459 329.699200
    940    938    947     1   109.8000471 387.438400
    941    953    954     1   109.5600471 388.275200
    941    953    955     1   109.5600471 388.275200
    942    941    953     1   109.8000471 387.438400
    942    941    943     1   107.5800459 329.699200
    943    941    953     1   109.8000471 387.438400
    944    950    951     1   109.5600471 388.275200
    944    950    952     1   109.5600471 388.275200
    945    944    950     1   109.8000471 387.438400
    945    944    946     1   107.5800459 329.699200
    946    944    950     1   109.8000471 387.438400
    948    947    956     1   109.7800468 425.094400
    948    947    949     1   108.4600466 328.025600
    949    947    956     1   109.7800468 425.094400
    951    950   1942     1   109.7800468 425.094400
    951    950    952     1   108.4600466 328.025600
    952    950   1942     1   109.7800468 425.094400
    954    953   1971     1   109.7800468 425.094400
    954    953    955     1   108.4600466 328.025600
    955    953   1971     1   109.7800468 425.094400
    957    958    959     1   109.8800469 414.216000
    957    958    960     1   109.8800469 414.216000
    957    961    962     1   109.8800469 414.216000
    957    961    963     1   109.8800469 414.216000
    957    964    965     1   109.8800469 414.216000
    957    964    966     1   109.8800469 414.216000
    958    970    971     1   109.8000471 387.438400
    958    970    972     1   109.8000471 387.438400
    959    958    970     1   109.5600471 388.275200
    959    958    960     1   108.4600466 328.025600
    960    958    970     1   109.5600471 388.275200
    961    973    974     1   109.8000471 387.438400
    961    973    975     1   109.8000471 387.438400
    962    961    973     1   109.5600471 388.275200
    962    961    963     1   108.4600466 328.025600
    963    961    973     1   109.5600471 388.275200
    964    967    968     1   109.8000471 387.438400
    964    967    969     1   109.8000471 387.438400
    965    964    967     1   109.5600471 388.275200
    965    964    966     1   108.4600466 328.025600
    966    964    967     1   109.5600471 388.275200
    967    976    977     1   109.5600471 388.275200
    967    976    978     1   109.5600471 388.275200
    968    967    976     1   109.8000471 387.438400
    968    967    969     1   107.5800459 329.699200
    969    967    976     1   109.8000471 387.438400
    970    982    983     1   109.5600471 388.275200
    970    982    984     1   109.5600471 388.275200
    971    970    982     1   109.8000471 387.438400
    971    970    972     1   107.5800459 329.699200
    972    970    982     1   109.8000471 387.438400
    973    979    980     1   109.5600471 388.275200
    973    979    981     1   109.5600471 388.275200
    974    973    979     1   109.8000471 387.438400
    974    973    975     1   107.5800459 329.699200
    975    973    979     1   109.8000471 387.438400
    977    976    985     1   109.7800468 425.094400
    977    976    978     1   108.4600466 328.025600
    978    976    985     1   109.7800468 425.094400
    980    979   2000     1   109.7800468 425.094400
    980    979    981     1   108.4600466 328.025600
    981    979   2000     1   109.7800468 425.094400
    983    982   2029     1   109.7800468 425.094400
    983    982    984     1   108.4600466 328.025600
    984    982   2029     1   109.7800468 425.094400
    986    987    988     1   109.8800469 414.216000
    986    987    989     1   109.8800469 414.216000
    986    990    991     1   109.8800469 414.216000
    986    990    992     1   109.8800469 414.216000
    986    993    994     1   109.8800469 414.216000
    986    993    995     1   109.8800469 414.216000
    987    999   1000     1   109.8000471 387.438400
    987    999   1001     1   109.8000471 387.438400
    988    987    999     1   109.5600471 388.275200
    988    987    989     1   108.4600466 328.025600
    989    987    999     1   109.5600471 388.275200
    990   1002   1003     1   109.8000471 387.438400
    990   1002   1004     1   109.8000471 387.438400
    991    990   1002     1   109.5600471 388.275200
    991    990    992     1   108.4600466 328.025600
    992    990   1002     1   109.5600471 388.275200
    993    996    997     1   109.8000471 387.438400
    993    996    998     1   109.8000471 387.438400
    994    993    996     1   109.5600471 388.275200
    994    993    995     1   108.4600466 328.025600
    995    993    996     1   109.5600471 388.275200
    996   1005   1006     1   109.5600471 388.275200
    996   1005   1007     1   109.5600471 388.275200
    997    996   1005     1   109.8000471 387.438400
    997    996    998     1   107.5800459 329.699200
    998    996   1005     1   109.8000471 387.438400
    999   1011   1012     1   109.5600471 388.275200
    999   1011   1013     1   109.5600471 388.275200
   1000    999   1011     1   109.8000471 387.438400
   1000    999   1001     1   107.5800459 329.699200
   1001    999   1011     1   109.8000471 387.438400
   1002   1008   1009     1   109.5600471 388.275200
   1002   1008   1010     1   109.5600471 388.275200
   1003   1002   1008     1   109.8000471 387.438400
   1003   1002   1004     1   107.5800459 329.699200
   1004   1002   1008     1   109.8000471 387.438400
   1006   1005   1014     1   109.7800468 425.094400
   1006   1005   1007     1   108.4600466 328.025600
   1007   1005   1014     1   109.7800468 425.094400
   1009   1008   2058     1   109.7800468 425.094400
   1009   1008   1010     1   108.4600466 328.025600
   1010   1008   2058     1   109.7800468 425.094400
   1012   1011   2087     1   109.7800468 425.094400
   1012   1011   1013     1   108.4600466 328.025600
   1013   1011   2087     1   109.7800468 425.094400
   1015   1016   1017     1   109.8800469 414.216000
   1015   1016   1018     1   109.8800469 414.216000
   1015   1019   1020     1   109.8800469 414.216000
   1015   1019   1021     1   109.8800469 414.216000
   1015   1022   1023     1   109.8800469 414.216000
   1015   1022   1024     1   109.8800469 414.216000
   1016   1028   1029     1   109.8000471 387.438400
   1016   1028   1030     1   109.8000471 387.438400
   1017   1016   1028     1   109.5600471 388.275200
   1017   1016   1018     1   108.4600466 328.025600
   1018   1016   1028     1   109.5600471 388.275200
   1019   1031   1032     1   109.8000471 387.438400
   1019   1031   1033     1   109.8000471 387.438400
   1020   1019   1031     1   109.5600471 388.275200
   1020   1019   1021     1   108.4600466 328.025600
   1021   1019   1031     1   109.5600471 388.275200
   1022   1025   1026     1   109.8000471 387.438400
   1022   1025   1027     1   109.8000471 387.438400
   1023   1022   1025     1   109.5600471 388.275200
   1023   1022   1024     1   108.4600466 328.025600
   1024   1022   1025     1   109.5600471 388.275200
   1025   1034   1035     1   109.5600471 388.275200
   1025   1034   1036     1   109.5600471 388.275200
   1026   1025   1034     1   109.8000471 387.438400
   1026   1025   1027     1   107.5800459 329.699200
   1027   1025   1034     1   109.8000471 387.438400
   1028   1040   1041     1   109.5600471 388.275200
   1028   1040   1042     1   109.5600471 388.275200
   1029   1028   1040     1   109.8000471 387.438400
   1029   1028   1030     1   107.5800459 329.699200
   1030   1028   1040     1   109.8000471 387.438400
   1031   1037   1038     1   109.5600471 388.275200
   1031   1037   1039     1   109.5600471 388.275200
   1032   1031   1037     1   109.8000471 387.438400
   1032   1031   1033     1   107.5800459 329.699200
   1033   1031   1037     1   109.8000471 387.438400
   1035   1034   1043     1   109.7800468 425.094400
   1035   1034   1036     1   108.4600466 328.025600
   1036   1034   1043     1   109.7800468 425.094400
   1038   1037   2116     1   109.7800468 425.094400
   1038   1037   1039     1   108.4600466 328.025600
   1039   1037   2116     1   109.7800468 425.094400
   1041   1040   2145     1   109.7800468 425.094400
   1041   1040   1042     1   108.4600466 328.025600
   1042   1040   2145     1   109.7800468 425.094400
   1044   1045   1046     1   109.8800469 414.216000
   1044   1045   1047     1   109.8800469 414.216000
   1044   1048   1049     1   109.8800469 414.216000
   1044   1048   1050     1   109.8800469 414.216000
   1044   1051   1052     1   109.8800469 414.216000
   1044   1051   1053     1   109.8800469 414.216000
   1045   1057   1058     1   109.8000471 387.438400
   1045   1057   1059     1   109.8000471 387.438400
   1046   1045   1057     1   109.5600471 388.275200
   1046   1045   1047     1   108.4600466 328.025600
   1047   1045   1057     1   109.5600471 388.275200
   1048   1060   1061     1   109.8000471 387.438400
   1048   1060   1062     1   109.8000471 387.438400
   1049   1048   1060     1   109.5600471 388.275200
   1049   1048   1050     1   108.4600466 328.025600
   1050   1048   1060     1   109.5600471 388.275200
   1051   1054   1055     1   109.8000471 387.438400
   1051   1054   1056     1   109.8000471 387.438400
   1052   1051   1054     1   109.5600471 388.275200
   1052   1051   1053     1   108.4600466 328.025600
   1053   1051   1054     1   109.5600471 388.275200
   1054   1063   1064     1   109.5600471 388.275200
   1054   1063   1065     1   109.5600471 388.275200
   1055   1054   1063     1   109.8000471 387.438400
   1055   1054   1056     1   107.5800459 329.699200
   1056   1054   1063     1   109.8000471 387.438400
   1057   1069   1070     1   109.5600471 388.275200
   1057   1069   1071     1   109.5600471 388.275200
   1058   1057   1069     1   109.8000471 387.438400
   1058   1057   1059     1   107.5800459 329.699200
   1059   1057   1069     1   109.8000471 387.438400
   1060   1066   1067     1   109.5600471 388.275200
   1060   1066   1068     1   109.5600471 388.275200
   1061   1060   1066     1   109.8000471 387.438400
   1061   1060   1062     1   107.5800459 329.699200
   1062   1060   1066     1   109.8000471 387.438400
   1064   1063   1072     1   109.7800468 425.094400
   1064   1063   1065     1   108.4600466 328.025600
   1065   1063   1072     1   109.7800468 425.094400
   1067   1066   2174     1   109.7800468 425.094400
   1067   1066   1068     1   108.4600466 328.025600
   1068   1066   2174     1   109.7800468 425.094400
   1070   1069   2203     1   109.7800468 425.094400
   1070   1069   1071     1   108.4600466 328.025600
   1071   1069   2203     1   109.7800468 425.094400
   1073   1074   1075     1   109.8800469 414.216000
   1073   1074   1076     1   109.8800469 414.216000
   1073   1077   1078     1   109.8800469 414.216000
   1073   1077   1079     1   109.8800469 414.216000
   1073   1080   1081     1   109.8800469 414.216000
   1073   1080   1082     1   109.8800469 414.216000
   1074   1086   1087     1   109.8000471 387.438400
   1074   1086   1088     1   109.8000471 387.438400
   1075   1074   1086     1   109.5600471 388.275200
   1075   1074   1076     1   108.4600466 328.025600
   1076   1074   1086     1   109.5600471 388.275200
   1077   1089   1090     1   109.8000471 387.438400
   1077   1089   1091     1   109.8000471 387.438400
   1078   1077   1089     1   109.5600471 388.275200
   1078   1077   1079     1   108.4600466 328.025600
   1079   1077   1089     1   109.5600471 388.275200
   1080   1083   1084     1   109.8000471 387.438400
   1080   1083   1085     1   109.8000471 387.438400
   1081   1080   1083     1   109.5600471 388.275200
   1081   1080   1082     1   108.4600466 328.025600
   1082   1080   1083     1   109.5600471 388.275200
   1083   1092   1093     1   109.5600471 388.275200
   1083   1092   1094     1   109.5600471 388.275200
   1084   1083   1092     1   109.8000471 387.438400
   1084   1083   1085     1   107.5800459 329.699200
   1085   1083   1092     1   109.8000471 387.438400
   1086   1098   1099     1   109.5600471 388.275200
   1086   1098   1100     1   109.5600471 388.275200
   1087   1086   1098     1   109.8000471 387.438400
   1087   1086   1088     1   107.5800459 329.699200
   1088   1086   1098     1   109.8000471 387.438400
   1089   1095   1096     1   109.5600471 388.275200
   1089   1095   1097     1   109.5600471 388.275200
   1090   1089   1095     1   109.8000471 387.438400
   1090   1089   1091     1   107.5800459 329.699200
   1091   1089   1095     1   109.8000471 387.438400
   1093   1092   1101     1   109.7800468 425.094400
   1093   1092   1094     1   108.4600466 328.025600
   1094   1092   1101     1   109.7800468 425.094400
   1096   1095   2232     1   109.7800468 425.094400
   1096   1095   1097     1   108.4600466 328.025600
   1097   1095   2232     1   109.7800468 425.094400
   1099   1098   2261     1   109.7800468 425.094400
   1099   1098   1100     1   108.4600466 328.025600
   1100   1098   2261     1   109.7800468 425.094400
   1102   1103   1104     1   109.8800469 414.216000
   1102   1103   1105     1   109.8800469 414.216000
   1102   1106   1107     1   109.8800469 414.216000
   1102   1106   1108     1   109.8800469 414.216000
   1102   1109   1110     1   109.8800469 414.216000
   1102   1109   1111     1   109.8800469 414.216000
   1103   1115   1116     1   109.8000471 387.438400
   1103   1115   1117     1   109.8000471 387.438400
   1104   1103   1115     1   109.5600471 388.275200
   1104   1103   1105     1   108.4600466 328.025600
   1105   1103   1115     1   109.5600471 388.275200
   1106   1118   1119     1   109.8000471 387.438400
   1106   1118   1120     1   109.8000471 387.438400
   1107   1106   1118     1   109.5600471 388.275200
   1107   1106   1108     1   108.4600466 328.025600
   1108   1106   1118     1   109.5600471 388.275200
   1109   1112   1113     1   109.8000471 387.438400
   1109   1112   1114     1   109.8000471 387.438400
   1110   1109   1112     1   109.5600471 388.275200
   1110   1109   1111     1   108.4600466 328.025600
   1111   1109   1112     1   109.5600471 388.275200
   1112   1121   1122     1   109.5600471 388.275200
   1112   1121   1123     1   109.5600471 388.275200
   1113   1112   1121     1   109.8000471 387.438400
   1113   1112   1114     1   107.5800459 329.699200
   1114   1112   1121     1   109.8000471 387.438400
   1115   1127   1128     1   109.5600471 388.275200
   1115   1127   1129     1   109.5600471 388.275200
   1116   1115   1127     1   109.8000471 387.438400
   1116   1115   1117     1   107.5800459 329.699200
   1117   1115   1127     1   109.8000471 387.438400
   1118   1124   1125     1   109.5600471 388.275200
   1118   1124   1126     1   109.5600471 388.275200
   1119   1118   1124     1   109.8000471 387.438400
   1119   1118   1120     1   107.5800459 329.699200
   1120   1118   1124     1   109.8000471 387.438400
   1122   1121   1130     1   109.7800468 425.094400
   1122   1121   1123     1   108.4600466 328.025600
   1123   1121   1130     1   109.7800468 425.094400
   1125   1124   2290     1   109.7800468 425.094400
   1125   1124   1126     1   108.4600466 328.025600
   1126   1124   2290     1   109.7800468 425.094400
   1128   1127   2319     1   109.7800468 425.094400
   1128   1127   1129     1   108.4600466 328.025600
   1129   1127   2319     1   109.7800468 425.094400
   1131   1132   1133     1   109.8800469 414.216000
   1131   1132   1134     1   109.8800469 414.216000
   1131   1135   1136     1   109.8800469 414.216000
   1131   1135   1137     1   109.8800469 414.216000
   1131   1138   1139     1   109.8800469 414.216000
   1131   1138   1140     1   109.8800469 414.216000
   1132   1144   1145     1   109.8000471 387.438400
   1132   1144   1146     1   109.8000471 387.438400
   1133   1132   1144     1   109.5600471 388.275200
   1133   1132   1134     1   108.4600466 328.025600
   1134   1132   1144     1   109.5600471 388.275200
   1135   1147   1148     1   109.8000471 387.438400
   1135   1147   1149     1   109.8000471 387.438400
   1136   1135   1147     1   109.5600471 388.275200
   1136   1135   1137     1   108.4600466 328.025600
   1137   1135   1147     1   109.5600471 388.275200
   1138   1141   1142     1   109.8000471 387.438400
   1138   1141   1143     1   109.8000471 387.438400
   1139   1138   1141     1   109.5600471 388.275200
   1139   1138   1140     1   108.4600466 328.025600
   1140   1138   1141     1   109.5600471 388.275200
   1141   1150   1151     1   109.5600471 388.275200
   1141   1150   1152     1   109.5600471 388.275200
   1142   1141   1150     1   109.8000471 387.438400
   1142   1141   1143     1   107.5800459 329.699200
   1143   1141   1150     1   109.8000471 387.438400
   1144   1156   1157     1   109.5600471 388.275200
   1144   1156   1158     1   109.5600471 388.275200
   1145   1144   1156     1   109.8000471 387.438400
   1145   1144   1146     1   107.5800459 329.699200
   1146   1144   1156     1   109.8000471 387.438400
   1147   1153   1154     1   109.5600471 388.275200
   1147   1153   1155     1   109.5600471 388.275200
   1148   1147   1153     1   109.8000471 387.438400
   1148   1147   1149     1   107.5800459 329.699200
   1149   1147   1153     1   109.8000471 387.438400
   1151   1150   1159     1   109.7800468 425.094400
   1151   1150   1152     1   108.4600466 328.025600
   1152   1150   1159     1   109.7800468 425.094400
   1154   1153   2348     1   109.7800468 425.094400
   1154   1153   1155     1   108.4600466 328.025600
   1155   1153   2348     1   109.7800468 425.094400
   1157   1156   2377     1   109.7800468 425.094400
   1157   1156   1158     1   108.4600466 328.025600
   1158   1156   2377     1   109.7800468 425.094400
   1160   1161   1162     1   109.8800469 414.216000
   1160   1161   1163     1   109.8800469 414.216000
   1160   1164   1165     1   109.8800469 414.216000
   1160   1164   1166     1   109.8800469 414.216000
   1160   1167   1168     1   109.8800469 414.216000
   1160   1167   1169     1   109.8800469 414.216000
   1161   1173   1174     1   109.8000471 387.438400
   1161   1173   1175     1   109.8000471 387.438400
   1162   1161   1173     1   109.5600471 388.275200
   1162   1161   1163     1   108.4600466 328.025600
   1163   1161   1173     1   109.5600471 388.275200
   1164   1176   1177     1   109.8000471 387.438400
   1164   1176   1178     1   109.8000471 387.438400
   1165   1164   1176     1   109.5600471 388.275200
   1165   1164   1166     1   108.4600466 328.025600
   1166   1164   1176     1   109.5600471 388.275200
   1167   1170   1171     1   109.8000471 387.438400
   1167   1170   1172     1   109.8000471 387.438400
   1168   1167   1170     1   109.5600471 388.275200
   1168   1167   1169     1   108.4600466 328.025600
   1169   1167   1170     1   109.5600471 388.275200
   1170   1179   1180     1   109.5600471 388.275200
   1170   1179   1181     1   109.5600471 388.275200
   1171   1170   1179     1   109.8000471 387.438400
   1171   1170   1172     1   107.5800459 329.699200
   1172   1170   1179     1   109.8000471 387.438400
   1173   1185   1186     1   109.5600471 388.275200
   1173   1185   1187     1   109.5600471 388.275200
   1174   1173   1185     1   109.8000471 387.438400
   1174   1173   1175     1   107.5800459 329.699200
   1175   1173   1185     1   109.8000471 387.438400
   1176   1182   1183     1   109.5600471 388.275200
   1176   1182   1184     1   109.5600471 388.275200
   1177   1176   1182     1   109.8000471 387.438400
   1177   1176   1178     1   107.5800459 329.699200
   1178   1176   1182     1   109.8000471 387.438400
   1180   1179   1188     1   109.7800468 425.094400
   1180   1179   1181     1   108.4600466 328.025600
   1181   1179   1188     1   109.7800468 425.094400
   1183   1182   2406     1   109.7800468 425.094400
   1183   1182   1184     1   108.4600466 328.025600
   1184   1182   2406     1   109.7800468 425.094400
   1186   1185   2435     1   109.7800468 425.094400
   1186   1185   1187     1   108.4600466 328.025600
   1187   1185   2435     1   109.7800468 425.094400
   1189   1190   1191     1   109.8800469 414.216000
   1189   1190   1192     1   109.8800469 414.216000
   1189   1193   1194     1   109.8800469 414.216000
   1189   1193   1195     1   109.8800469 414.216000
   1189   1196   1197     1   109.8800469 414.216000
   1189   1196   1198     1   109.8800469 414.216000
   1190   1202   1203     1   109.8000471 387.438400
   1190   1202   1204     1   109.8000471 387.438400
   1191   1190   1202     1   109.5600471 388.275200
   1191   1190   1192     1   108.4600466 328.025600
   1192   1190   1202     1   109.5600471 388.275200
   1193   1205   1206     1   109.8000471 387.438400
   1193   1205   1207     1   109.8000471 387.438400
   1194   1193   1205     1   109.5600471 388.275200
   1194   1193   1195     1   108.4600466 328.025600
   1195   1193   1205     1   109.5600471 388.275200
   1196   1199   1200     1   109.8000471 387.438400
   1196   1199   1201     1   109.8000471 387.438400
   1197   1196   1199     1   109.5600471 388.275200
   1197   1196   1198     1   108.4600466 328.025600
   1198   1196   1199     1   109.5600471 388.275200
   1199   1208   1209     1   109.5600471 388.275200
   1199   1208   1210     1   109.5600471 388.275200
   1200   1199   1208     1   109.8000471 387.438400
   1200   1199   1201     1   107.5800459 329.699200
   1201   1199   1208     1   109.8000471 387.438400
   1202   1214   1215     1   109.5600471 388.275200
   1202   1214   1216     1   109.5600471 388.275200
   1203   1202   1214     1   109.8000471 387.438400
   1203   1202   1204     1   107.5800459 329.699200
   1204   1202   1214     1   109.8000471 387.438400
   1205   1211   1212     1   109.5600471 388.275200
   1205   1211   1213     1   109.5600471 388.275200
   1206   1205   1211     1   109.8000471 387.438400
   1206   1205   1207     1   107.5800459 329.699200
   1207   1205   1211     1   109.8000471 387.438400
   1209   1208   1217     1   109.7800468 425.094400
   1209   1208   1210     1   108.4600466 328.025600
   1210   1208   1217     1   109.7800468 425.094400
   1212   1211   2464     1   109.7800468 425.094400
   1212   1211   1213     1   108.4600466 328.025600
   1213   1211   2464     1   109.7800468 425.094400
   1215   1214   2493     1   109.7800468 425.094400
   1215   1214   1216     1   108.4600466 328.025600
   1216   1214   2493     1   109.7800468 425.094400
   1218   1219   1220     1   109.8800469 414.216000
   1218   1219   1221     1   109.8800469 414.216000
   1218   1222   1223     1   109.8800469 414.216000
   1218   1222   1224     1   109.8800469 414.216000
   1218   1225   1226     1   109.8800469 414.216000
   1218   1225   1227     1   109.8800469 414.216000
   1219   1231   1232     1   109.8000471 387.438400
   1219   1231   1233     1   109.8000471 387.438400
   1220   1219   1231     1   109.5600471 388.275200
   1220   1219   1221     1   108.4600466 328.025600
   1221   1219   1231     1   109.5600471 388.275200
   1222   1234   1235     1   109.8000471 387.438400
   1222   1234   1236     1   109.8000471 387.438400
   1223   1222   1234     1   109.5600471 388.275200
   1223   1222   1224     1   108.4600466 328.025600
   1224   1222   1234     1   109.5600471 388.275200
   1225   1228   1229     1   109.8000471 387.438400
   1225   1228   1230     1   109.8000471 387.438400
   1226   1225   1228     1   109.5600471 388.275200
   1226   1225   1227     1   108.4600466 328.025600
   1227   1225   1228     1   109.5600471 388.275200
   1228   1237   1238     1   109.5600471 388.275200
   1228   1237   1239     1   109.5600471 388.275200
   1229   1228   1237     1   109.8000471 387.438400
   1229   1228   1230     1   107.5800459 329.699200
   1230   1228   1237     1   109.8000471 387.438400
   1231   1243   1244     1   109.5600471 388.275200
   1231   1243   1245     1   109.5600471 388.275200
   1232   1231   1243     1   109.8000471 387.438400
   1232   1231   1233     1   107.5800459 329.699200
   1233   1231   1243     1   109.8000471 387.438400
   1234   1240   1241     1   109.5600471 388.275200
   1234   1240   1242     1   109.5600471 388.275200
   1235   1234   1240     1   109.8000471 387.438400
   1235   1234   1236     1   107.5800459 329.699200
   1236   1234   1240     1   109.8000471 387.438400
   1238   1237   1246     1   109.7800468 425.094400
   1238   1237   1239     1   108.4600466 328.025600
   1239   1237   1246     1   109.7800468 425.094400
   1241   1240   2522     1   109.7800468 425.094400
   1241   1240   1242     1   108.4600466 328.025600
   1242   1240   2522     1   109.7800468 425.094400
   1244   1243   2551     1   109.7800468 425.094400
   1244   1243   1245     1   108.4600466 328.025600
   1245   1243   2551     1   109.7800468 425.094400
   1247   1248   1249     1   109.8800469 414.216000
   1247   1248   1250     1   109.8800469 414.216000
   1247   1251   1252     1   109.8800469 414.216000
   1247   1251   1253     1   109.8800469 414.216000
   1247   1254   1255     1   109.8800469 414.216000
   1247   1254   1256     1   109.8800469 414.216000
   1248   1260   1261     1   109.8000471 387.438400
   1248   1260   1262     1   109.8000471 387.438400
   1249   1248   1260     1   109.5600471 388.275200
   1249   1248   1250     1   108.4600466 328.025600
   1250   1248   1260     1   109.5600471 388.275200
   1251   1263   1264     1   109.8000471 387.438400
   1251   1263   1265     1   109.8000471 387.438400
   1252   1251   1263     1   109.5600471 388.275200
   1252   1251   1253     1   108.4600466 328.025600
   1253   1251   1263     1   109.5600471 388.275200
   1254   1257   1258     1   109.8000471 387.438400
   1254   1257   1259     1   109.8000471 387.438400
   1255   1254   1257     1   109.5600471 388.275200
   1255   1254   1256     1   108.4600466 328.025600
   1256   1254   1257     1   109.5600471 388.275200
   1257   1266   1267     1   109.5600471 388.275200
   1257   1266   1268     1   109.5600471 388.275200
   1258   1257   1266     1   109.8000471 387.438400
   1258   1257   1259     1   107.5800459 329.699200
   1259   1257   1266     1   109.8000471 387.438400
   1260   1272   1273     1   109.5600471 388.275200
   1260   1272   1274     1   109.5600471 388.275200
   1261   1260   1272     1   109.8000471 387.438400
   1261   1260   1262     1   107.5800459 329.699200
   1262   1260   1272     1   109.8000471 387.438400
   1263   1269   1270     1   109.5600471 388.275200
   1263   1269   1271     1   109.5600471 388.275200
   1264   1263   1269     1   109.8000471 387.438400
   1264   1263   1265     1   107.5800459 329.699200
   1265   1263   1269     1   109.8000471 387.438400
   1267   1266   1275     1   109.7800468 425.094400
   1267   1266   1268     1   108.4600466 328.025600
   1268   1266   1275     1   109.7800468 425.094400
   1270   1269   2580     1   109.7800468 425.094400
   1270   1269   1271     1   108.4600466 328.025600
   1271   1269   2580     1   109.7800468 425.094400
   1273   1272   2609     1   109.7800468 425.094400
   1273   1272   1274     1   108.4600466 328.025600
   1274   1272   2609     1   109.7800468 425.094400
   1276   1277   1278     1   109.8800469 414.216000
   1276   1277   1279     1   109.8800469 414.216000
   1276   1280   1281     1   109.8800469 414.216000
   1276   1280   1282     1   109.8800469 414.216000
   1276   1283   1284     1   109.8800469 414.216000
   1276   1283   1285     1   109.8800469 414.216000
   1277   1289   1290     1   109.8000471 387.438400
   1277   1289   1291     1   109.8000471 387.438400
   1278   1277   1289     1   109.5600471 388.275200
   1278   1277   1279     1   108.4600466 328.025600
   1279   1277   1289     1   109.5600471 388.275200
   1280   1292   1293     1   109.8000471 387.438400
   1280   1292   1294     1   109.8000471 387.438400
   1281   1280   1292     1   109.5600471 388.275200
   1281   1280   1282     1   108.4600466 328.025600
   1282   1280   1292     1   109.5600471 388.275200
   1283   1286   1287     1   109.8000471 387.438400
   1283   1286   1288     1   109.8000471 387.438400
   1284   1283   1286     1   109.5600471 388.275200
   1284   1283   1285     1   108.4600466 328.025600
   1285   1283   1286     1   109.5600471 388.275200
   1286   1295   1296     1   109.5600471 388.275200
   1286   1295   1297     1   109.5600471 388.275200
   1287   1286   1295     1   109.8000471 387.438400
   1287   1286   1288     1   107.5800459 329.699200
   1288   1286   1295     1   109.8000471 387.438400
   1289   1301   1302     1   109.5600471 388.275200
   1289   1301   1303     1   109.5600471 388.275200
   1290   1289   1301     1   109.8000471 387.438400
   1290   1289   1291     1   107.5800459 329.699200
   1291   1289   1301     1   109.8000471 387.438400
   1292   1298   1299     1   109.5600471 388.275200
   1292   1298   1300     1   109.5600471 388.275200
   1293   1292   1298     1   109.8000471 387.438400
   1293   1292   1294     1   107.5800459 329.699200
   1294   1292   1298     1   109.8000471 387.438400
   1296   1295   1304     1   109.7800468 425.094400
   1296   1295   1297     1   108.4600466 328.025600
   1297   1295   1304     1   109.7800468 425.094400
   1299   1298   2638     1   109.7800468 425.094400
   1299   1298   1300     1   108.4600466 328.025600
   1300   1298   2638     1   109.7800468 425.094400
   1302   1301   2667     1   109.7800468 425.094400
   1302   1301   1303     1   108.4600466 328.025600
   1303   1301   2667     1   109.7800468 425.094400
   1305   1306   1307     1   109.8800469 414.216000
   1305   1306   1308     1   109.8800469 414.216000
   1305   1309   1310     1   109.8800469 414.216000
   1305   1309   1311     1   109.8800469 414.216000
   1305   1312   1313     1   109.8800469 414.216000
   1305   1312   1314     1   109.8800469 414.216000
   1306   1318   1319     1   109.8000471 387.438400
   1306   1318   1320     1   109.8000471 387.438400
   1307   1306   1318     1   109.5600471 388.275200
   1307   1306   1308     1   108.4600466 328.025600
   1308   1306   1318     1   109.5600471 388.275200
   1309   1321   1322     1   109.8000471 387.438400
   1309   1321   1323     1   109.8000471 387.438400
   1310   1309   1321     1   109.5600471 388.275200
   1310   1309   1311     1   108.4600466 328.025600
   1311   1309   1321     1   109.5600471 388.275200
   1312   1315   1316     1   109.8000471 387.438400
   1312   1315   1317     1   109.8000471 387.438400
   1313   1312   1315     1   109.5600471 388.275200
   1313   1312   1314     1   108.4600466 328.025600
   1314   1312   1315     1   109.5600471 388.275200
   1315   1324   1325     1   109.5600471 388.275200
   1315   1324   1326     1   109.5600471 388.275200
   1316   1315   1324     1   109.8000471 387.438400
   1316   1315   1317     1   107.5800459 329.699200
   1317   1315   1324     1   109.8000471 387.438400
   1318   1330   1331     1   109.5600471 388.275200
   1318   1330   1332     1   109.5600471 388.275200
   1319   1318   1330     1   109.8000471 387.438400
   1319   1318   1320     1   107.5800459 329.699200
   1320   1318   1330     1   109.8000471 387.438400
   1321   1327   1328     1   109.5600471 388.275200
   1321   1327   1329     1   109.5600471 388.275200
   1322   1321   1327     1   109.8000471 387.438400
   1322   1321   1323     1   107.5800459 329.699200
   1323   1321   1327     1   109.8000471 387.438400
   1325   1324   1333     1   109.7800468 425.094400
   1325   1324   1326     1   108.4600466 328.025600
   1326   1324   1333     1   109.7800468 425.094400
   1328   1327   2696     1   109.7800468 425.094400
   1328   1327   1329     1   108.4600466 328.025600
   1329   1327   2696     1   109.7800468 425.094400
   1331   1330   2725     1   109.7800468 425.094400
   1331   1330   1332     1   108.4600466 328.025600
   1332   1330   2725     1   109.7800468 425.094400
   1334   1335   1336     1   109.8800469 414.216000
   1334   1335   1337     1   109.8800469 414.216000
   1334   1338   1339     1   109.8800469 414.216000
   1334   1338   1340     1   109.8800469 414.216000
   1334   1341   1342     1   109.8800469 414.216000
   1334   1341   1343     1   109.8800469 414.216000
   1335   1347   1348     1   109.8000471 387.438400
   1335   1347   1349     1   109.8000471 387.438400
   1336   1335   1347     1   109.5600471 388.275200
   1336   1335   1337     1   108.4600466 328.025600
   1337   1335   1347     1   109.5600471 388.275200
   1338   1350   1351     1   109.8000471 387.438400
   1338   1350   1352     1   109.8000471 387.438400
   1339   1338   1350     1   109.5600471 388.275200
   1339   1338   1340     1   108.4600466 328.025600
   1340   1338   1350     1   109.5600471 388.275200
   1341   1344   1345     1   109.8000471 387.438400
   1341   1344   1346     1   109.8000471 387.438400
   1342   1341   1344     1   109.5600471 388.275200
   1342   1341   1343     1   108.4600466 328.025600
   1343   1341   1344     1   109.5600471 388.275200
   1344   1353   1354     1   109.5600471 388.275200
   1344   1353   1355     1   109.5600471 388.275200
   1345   1344   1353     1   109.8000471 387.438400
   1345   1344   1346     1   107.5800459 329.699200
   1346   1344   1353     1   109.8000471 387.438400
   1347   1359   1360     1   109.5600471 388.275200
   1347   1359   1361     1   109.5600471 388.275200
   1348   1347   1359     1   109.8000471 387.438400
   1348   1347   1349     1   107.5800459 329.699200
   1349   1347   1359     1   109.8000471 387.438400
   1350   1356   1357     1   109.5600471 388.275200
   1350   1356   1358     1   109.5600471 388.275200
   1351   1350   1356     1   109.8000471 387.438400
   1351   1350   1352     1   107.5800459 329.699200
   1352   1350   1356     1   109.8000471 387.438400
   1354   1353   1362     1   109.7800468 425.094400
   1354   1353   1355     1   108.4600466 328.025600
   1355   1353   1362     1   109.7800468 425.094400
   1357   1356   2754     1   109.7800468 425.094400
   1357   1356   1358     1   108.4600466 328.025600
   1358   1356   2754     1   109.7800468 425.094400
   1360   1359   2783     1   109.7800468 425.094400
   1360   1359   1361     1   108.4600466 328.025600
   1361   1359   2783     1   109.7800468 425.094400
   1363   1364   1365     1   109.8800469 414.216000
   1363   1364   1366     1   109.8800469 414.216000
   1363   1367   1368     1   109.8800469 414.216000
   1363   1367   1369     1   109.8800469 414.216000
   1363   1370   1371     1   109.8800469 414.216000
   1363   1370   1372     1   109.8800469 414.216000
   1364   1376   1377     1   109.8000471 387.438400
   1364   1376   1378     1   109.8000471 387.438400
   1365   1364   1376     1   109.5600471 388.275200
   1365   1364   1366     1   108.4600466 328.025600
   1366   1364   1376     1   109.5600471 388.275200
   1367   1379   1380     1   109.8000471 387.438400
   1367   1379   1381     1   109.8000471 387.438400
   1368   1367   1379     1   109.5600471 388.275200
   1368   1367   1369     1   108.4600466 328.025600
   1369   1367   1379     1   109.5600471 388.275200
   1370   1373   1374     1   109.8000471 387.438400
   1370   1373   1375     1   109.8000471 387.438400
   1371   1370   1373     1   109.5600471 388.275200
   1371   1370   1372     1   108.4600466 328.025600
   1372   1370   1373     1   109.5600471 388.275200
   1373   1382   1383     1   109.5600471 388.275200
   1373   1382   1384     1   109.5600471 388.275200
   1374   1373   1382     1   109.8000471 387.438400
   1374   1373   1375     1   107.5800459 329.699200
   1375   1373   1382     1   109.8000471 387.438400
   1376   1388   1389     1   109.5600471 388.275200
   1376   1388   1390     1   109.5600471 388.275200
   1377   1376   1388     1   109.8000471 387.438400
   1377   1376   1378     1   107.5800459 329.699200
   1378   1376   1388     1   109.8000471 387.438400
   1379   1385   1386     1   109.5600471 388.275200
   1379   1385   1387     1   109.5600471 388.275200
   1380   1379   1385     1   109.8000471 387.438400
   1380   1379   1381     1   107.5800459 329.699200
   1381   1379   1385     1   109.8000471 387.438400
   1383   1382   1391     1   109.7800468 425.094400
   1383   1382   1384     1   108.4600466 328.025600
   1384   1382   1391     1   109.7800468 425.094400
   1386   1385   2812     1   109.7800468 425.094400
   1386   1385   1387     1   108.4600466 328.025600
   1387   1385   2812     1   109.7800468 425.094400
   1389   1388   2841     1   109.7800468 425.094400
   1389   1388   1390     1   108.4600466 328.025600
   1390   1388   2841     1   109.7800468 425.094400
   1392   1393   1394     1   109.8800469 414.216000
   1392   1393   1395     1   109.8800469 414.216000
   1392   1396   1397     1   109.8800469 414.216000
   1392   1396   1398     1   109.8800469 414.216000
   1392   1399   1400     1   109.8800469 414.216000
   1392   1399   1401     1   109.8800469 414.216000
   1393   1405   1406     1   109.8000471 387.438400
   1393   1405   1407     1   109.8000471 387.438400
   1394   1393   1405     1   109.5600471 388.275200
   1394   1393   1395     1   108.4600466 328.025600
   1395   1393   1405     1   109.5600471 388.275200
   1396   1408   1409     1   109.8000471 387.438400
   1396   1408   1410     1   109.8000471 387.438400
   1397   1396   1408     1   109.5600471 388.275200
   1397   1396   1398     1   108.4600466 328.025600
   1398   1396   1408     1   109.5600471 388.275200
   1399   1402   1403     1   109.8000471 387.438400
   1399   1402   1404     1   109.8000471 387.438400
   1400   1399   1402     1   109.5600471 388.275200
   1400   1399   1401     1   108.4600466 328.025600
   1401   1399   1402     1   109.5600471 388.275200
   1402   1411   1412     1   109.5600471 388.275200
   1402   1411   1413     1   109.5600471 388.275200
   1403   1402   1411     1   109.8000471 387.438400
   1403   1402   1404     1   107.5800459 329.699200
   1404   1402   1411     1   109.8000471 387.438400
   1405   1417   1418     1   109.5600471 388.275200
   1405   1417   1419     1   109.5600471 388.275200
   1406   1405   1417     1   109.8000471 387.438400
   1406   1405   1407     1   107.5800459 329.699200
   1407   1405   1417     1   109.8000471 387.438400
   1408   1414   1415     1   109.5600471 388.275200
   1408   1414   1416     1   109.5600471 388.275200
   1409   1408   1414     1   109.8000471 387.438400
   1409   1408   1410     1   107.5800459 329.699200
   1410   1408   1414     1   109.8000471 387.438400
   1412   1411   1420     1   109.7800468 425.094400
   1412   1411   1413     1   108.4600466 328.025600
   1413   1411   1420     1   109.7800468 425.094400
   1415   1414   2870     1   109.7800468 425.094400
   1415   1414   1416     1   108.4600466 328.025600
   1416   1414   2870     1   109.7800468 425.094400
   1418   1417   2899     1   109.7800468 425.094400
   1418   1417   1419     1   108.4600466 328.025600
   1419   1417   2899     1   109.7800468 425.094400
   1421   1422   1423     1   109.8800469 414.216000
   1421   1422   1424     1   109.8800469 414.216000
   1421   1425   1426     1   109.8800469 414.216000
   1421   1425   1427     1   109.8800469 414.216000
   1421   1428   1429     1   109.8800469 414.216000
   1421   1428   1430     1   109.8800469 414.216000
   1422   1434   1435     1   109.8000471 387.438400
   1422   1434   1436     1   109.8000471 387.438400
   1423   1422   1434     1   109.5600471 388.275200
   1423   1422   1424     1   108.4600466 328.025600
   1424   1422   1434     1   109.5600471 388.275200
   1425   1437   1438     1   109.8000471 387.438400
   1425   1437   1439     1   109.8000471 387.438400
   1426   1425   1437     1   109.5600471 388.275200
   1426   1425   1427     1   108.4600466 328.025600
   1427   1425   1437     1   109.5600471 388.275200
   1428   1431   1432     1   109.8000471 387.438400
   1428   1431   1433     1   109.8000471 387.438400
   1429   1428   1431     1   109.5600471 388.275200
   1429   1428   1430     1   108.4600466 328.025600
   1430   1428   1431     1   109.5600471 388.275200
   1431   1440   1441     1   109.5600471 388.275200
   1431   1440   1442     1   109.5600471 388.275200
   1432   1431   1440     1   109.8000471 387.438400
   1432   1431   1433     1   107.5800459 329.699200
   1433   1431   1440     1   109.8000471 387.438400
   1434   1446   1447     1   109.5600471 388.275200
   1434   1446   1448     1   109.5600471 388.275200
   1435   1434   1446     1   109.8000471 387.438400
   1435   1434   1436     1   107.5800459 329.699200
   1436   1434   1446     1   109.8000471 387.438400
   1437   1443   1444     1   109.5600471 388.275200
   1437   1443   1445     1   109.5600471 388.275200
   1438   1437   1443     1   109.8000471 387.438400
   1438   1437   1439     1   107.5800459 329.699200
   1439   1437   1443     1   109.8000471 387.438400
   1441   1440   1449     1   109.7800468 425.094400
   1441   1440   1442     1   108.4600466 328.025600
   1442   1440   1449     1   109.7800468 425.094400
   1444   1443   2928     1   109.7800468 425.094400
   1444   1443   1445     1   108.4600466 328.025600
   1445   1443   2928     1   109.7800468 425.094400
   1447   1446   2957     1   109.7800468 425.094400
   1447   1446   1448     1   108.4600466 328.025600
   1448   1446   2957     1   109.7800468 425.094400
   1450   1451   1452     1   109.8800469 414.216000
   1450   1451   1453     1   109.8800469 414.216000
   1450   1454   1455     1   109.8800469 414.216000
   1450   1454   1456     1   109.8800469 414.216000
   1450   1457   1458     1   109.8800469 414.216000
   1450   1457   1459     1   109.8800469 414.216000
   1451   1463   1464     1   109.8000471 387.438400
   1451   1463   1465     1   109.8000471 387.438400
   1452   1451   1463     1   109.5600471 388.275200
   1452   1451   1453     1   108.4600466 328.025600
   1453   1451   1463     1   109.5600471 388.275200
   1454   1466   1467     1   109.8000471 387.438400
   1454   1466   1468     1   109.8000471 387.438400
   1455   1454   1466     1   109.5600471 388.275200
   1455   1454   1456     1   108.4600466 328.025600
   1456   1454   1466     1   109.5600471 388.275200
   1457   1460   1461     1   109.8000471 387.438400
   1457   1460   1462     1   109.8000471 387.438400
   1458   1457   1460     1   109.5600471 388.275200
   1458   1457   1459     1   108.4600466 328.025600
   1459   1457   1460     1   109.5600471 388.275200
   1460   1469   1470     1   109.5600471 388.275200
   1460   1469   1471     1   109.5600471 388.275200
   1461   1460   1469     1   109.8000471 387.438400
   1461   1460   1462     1   107.5800459 329.699200
   1462   1460   1469     1   109.8000471 387.438400
   1463   1475   1476     1   109.5600471 388.275200
   1463   1475   1477     1   109.5600471 388.275200
   1464   1463   1475     1   109.8000471 387.438400
   1464   1463   1465     1   107.5800459 329.699200
   1465   1463   1475     1   109.8000471 387.438400
   1466   1472   1473     1   109.5600471 388.275200
   1466   1472   1474     1   109.5600471 388.275200
   1467   1466   1472     1   109.8000471 387.438400
   1467   1466   1468     1   107.5800459 329.699200
   1468   1466   1472     1   109.8000471 387.438400
   1470   1469   1478     1   109.7800468 425.094400
   1470   1469   1471     1   108.4600466 328.025600
   1471   1469   1478     1   109.7800468 425.094400
   1473   1472   2986     1   109.7800468 425.094400
   1473   1472   1474     1   108.4600466 328.025600
   1474   1472   2986     1   109.7800468 425.094400
   1476   1475   3015     1   109.7800468 425.094400
   1476   1475   1477     1   108.4600466 328.025600
   1477   1475   3015     1   109.7800468 425.094400
   1479   1480   1481     1   109.8800469 414.216000
   1479   1480   1482     1   109.8800469 414.216000
   1479   1483   1484     1   109.8800469 414.216000
   1479   1483   1485     1   109.8800469 414.216000
   1479   1486   1487     1   109.8800469 414.216000
   1479   1486   1488     1   109.8800469 414.216000
   1480   1492   1493     1   109.8000471 387.438400
   1480   1492   1494     1   109.8000471 387.438400
   1481   1480   1492     1   109.5600471 388.275200
   1481   1480   1482     1   108.4600466 328.025600
   1482   1480   1492     1   109.5600471 388.275200
   1483   1495   1496     1   109.8000471 387.438400
   1483   1495   1497     1   109.8000471 387.438400
   1484   1483   1495     1   109.5600471 388.275200
   1484   1483   1485     1   108.4600466 328.025600
   1485   1483   1495     1   109.5600471 388.275200
   1486   1489   1490     1   109.8000471 387.438400
   1486   1489   1491     1   109.8000471 387.438400
   1487   1486   1489     1   109.5600471 388.275200
   1487   1486   1488     1   108.4600466 328.025600
   1488   1486   1489     1   109.5600471 388.275200
   1489   1498   1499     1   109.5600471 388.275200
   1489   1498   1500     1   109.5600471 388.275200
   1490   1489   1498     1   109.8000471 387.438400
   1490   1489   1491     1   107.5800459 329.699200
   1491   1489   1498     1   109.8000471 387.438400
   1492   1504   1505     1   109.5600471 388.275200
   1492   1504   1506     1   109.5600471 388.275200
   1493   1492   1504     1   109.8000471 387.438400
   1493   1492   1494     1   107.5800459 329.699200
   1494   1492   1504     1   109.8000471 387.438400
   1495   1501   1502     1   109.5600471 388.275200
   1495   1501   1503     1   109.5600471 388.275200
   1496   1495   1501     1   109.8000471 387.438400
   1496   1495   1497     1   107.5800459 329.699200
   1497   1495   1501     1   109.8000471 387.438400
   1499   1498   1507     1   109.7800468 425.094400
   1499   1498   1500     1   108.4600466 328.025600
   1500   1498   1507     1   109.7800468 425.094400
   1502   1501   3044     1   109.7800468 425.094400
   1502   1501   1503     1   108.4600466 328.025600
   1503   1501   3044     1   109.7800468 425.094400
   1505   1504   3073     1   109.7800468 425.094400
   1505   1504   1506     1   108.4600466 328.025600
   1506   1504   3073     1   109.7800468 425.094400
   1508   1509   1510     1   109.8800469 414.216000
   1508   1509   1511     1   109.8800469 414.216000
   1508   1512   1513     1   109.8800469 414.216000
   1508   1512   1514     1   109.8800469 414.216000
   1508   1515   1516     1   109.8800469 414.216000
   1508   1515   1517     1   109.8800469 414.216000
   1509   1521   1522     1   109.8000471 387.438400
   1509   1521   1523     1   109.8000471 387.438400
   1510   1509   1521     1   109.5600471 388.275200
   1510   1509   1511     1   108.4600466 328.025600
   1511   1509   1521     1   109.5600471 388.275200
   1512   1524   1525     1   109.8000471 387.438400
   1512   1524   1526     1   109.8000471 387.438400
   1513   1512   1524     1   109.5600471 388.275200
   1513   1512   1514     1   108.4600466 328.025600
   1514   1512   1524     1   109.5600471 388.275200
   1515   1518   1519     1   109.8000471 387.438400
   1515   1518   1520     1   109.8000471 387.438400
   1516   1515   1518     1   109.5600471 388.275200
   1516   1515   1517     1   108.4600466 328.025600
   1517   1515   1518     1   109.5600471 388.275200
   1518   1527   1528     1   109.5600471 388.275200
   1518   1527   1529     1   109.5600471 388.275200
   1519   1518   1527     1   109.8000471 387.438400
   1519   1518   1520     1   107.5800459 329.699200
   1520   1518   1527     1   109.8000471 387.438400
   1521   1533   1534     1   109.5600471 388.275200
   1521   1533   1535     1   109.5600471 388.275200
   1522   1521   1533     1   109.8000471 387.438400
   1522   1521   1523     1   107.5800459 329.699200
   1523   1521   1533     1   109.8000471 387.438400
   1524   1530   1531     1   109.5600471 388.275200
   1524   1530   1532     1   109.5600471 388.275200
   1525   1524   1530     1   109.8000471 387.438400
   1525   1524   1526     1   107.5800459 329.699200
   1526   1524   1530     1   109.8000471 387.438400
   1528   1527   1536     1   109.7800468 425.094400
   1528   1527   1529     1   108.4600466 328.025600
   1529   1527   1536     1   109.7800468 425.094400
   1531   1530   3102     1   109.7800468 425.094400
   1531   1530   1532     1   108.4600466 328.025600
   1532   1530   3102     1   109.7800468 425.094400
   1534   1533   3131     1   109.7800468 425.094400
   1534   1533   1535     1   108.4600466 328.025600
   1535   1533   3131     1   109.7800468 425.094400
   1537   1538   1539     1   109.8800469 414.216000
   1537   1538   1540     1   109.8800469 414.216000
   1537   1541   1542     1   109.8800469 414.216000
   1537   1541   1543     1   109.8800469 414.216000
   1537   1544   1545     1   109.8800469 414.216000
   1537   1544   1546     1   109.8800469 414.216000
   1538   1550   1551     1   109.8000471 387.438400
   1538   1550   1552     1   109.8000471 387.438400
   1539   1538   1550     1   109.5600471 388.275200
   1539   1538   1540     1   108.4600466 328.025600
   1540   1538   1550     1   109.5600471 388.275200
   1541   1553   1554     1   109.8000471 387.438400
   1541   1553   1555     1   109.8000471 387.438400
   1542   1541   1553     1   109.5600471 388.275200
   1542   1541   1543     1   108.4600466 328.025600
   1543   1541   1553     1   109.5600471 388.275200
   1544   1547   1548     1   109.8000471 387.438400
   1544   1547   1549     1   109.8000471 387.438400
   1545   1544   1547     1   109.5600471 388.275200
   1545   1544   1546     1   108.4600466 328.025600
   1546   1544   1547     1   109.5600471 388.275200
   1547   1556   1557     1   109.5600471 388.275200
   1547   1556   1558     1   109.5600471 388.275200
   1548   1547   1556     1   109.8000471 387.438400
   1548   1547   1549     1   107.5800459 329.699200
   1549   1547   1556     1   109.8000471 387.438400
   1550   1562   1563     1   109.5600471 388.275200
   1550   1562   1564     1   109.5600471 388.275200
   1551   1550   1562     1   109.8000471 387.438400
   1551   1550   1552     1   107.5800459 329.699200
   1552   1550   1562     1   109.8000471 387.438400
   1553   1559   1560     1   109.5600471 388.275200
   1553   1559   1561     1   109.5600471 388.275200
   1554   1553   1559     1   109.8000471 387.438400
   1554   1553   1555     1   107.5800459 329.699200
   1555   1553   1559     1   109.8000471 387.438400
   1557   1556   1565     1   109.7800468 425.094400
   1557   1556   1558     1   108.4600466 328.025600
   1558   1556   1565     1   109.7800468 425.094400
   1560   1559   3160     1   109.7800468 425.094400
   1560   1559   1561     1   108.4600466 328.025600
   1561   1559   3160     1   109.7800468 425.094400
   1563   1562   3189     1   109.7800468 425.094400
   1563   1562   1564     1   108.4600466 328.025600
   1564   1562   3189     1   109.7800468 425.094400
   1566   1567   1568     1   109.8800469 414.216000
   1566   1567   1569     1   109.8800469 414.216000
   1566   1570   1571     1   109.8800469 414.216000
   1566   1570   1572     1   109.8800469 414.216000
   1566   1573   1574     1   109.8800469 414.216000
   1566   1573   1575     1   109.8800469 414.216000
   1567   1579   1580     1   109.8000471 387.438400
   1567   1579   1581     1   109.8000471 387.438400
   1568   1567   1579     1   109.5600471 388.275200
   1568   1567   1569     1   108.4600466 328.025600
   1569   1567   1579     1   109.5600471 388.275200
   1570   1582   1583     1   109.8000471 387.438400
   1570   1582   1584     1   109.8000471 387.438400
   1571   1570   1582     1   109.5600471 388.275200
   1571   1570   1572     1   108.4600466 328.025600
   1572   1570   1582     1   109.5600471 388.275200
   1573   1576   1577     1   109.8000471 387.438400
   1573   1576   1578     1   109.8000471 387.438400
   1574   1573   1576     1   109.5600471 388.275200
   1574   1573   1575     1   108.4600466 328.025600
   1575   1573   1576     1   109.5600471 388.275200
   1576   1585   1586     1   109.5600471 388.275200
   1576   1585   1587     1   109.5600471 388.275200
   1577   1576   1585     1   109.8000471 387.438400
   1577   1576   1578     1   107.5800459 329.699200
   1578   1576   1585     1   109.8000471 387.438400
   1579   1591   1592     1   109.5600471 388.275200
   1579   1591   1593     1   109.5600471 388.275200
   1580   1579   1591     1   109.8000471 387.438400
   1580   1579   1581     1   107.5800459 329.699200
   1581   1579   1591     1   109.8000471 387.438400
   1582   1588   1589     1   109.5600471 388.275200
   1582   1588   1590     1   109.5600471 388.275200
   1583   1582   1588     1   109.8000471 387.438400
   1583   1582   1584     1   107.5800459 329.699200
   1584   1582   1588     1   109.8000471 387.438400
   1586   1585   1594     1   109.7800468 425.094400
   1586   1585   1587     1   108.4600466 328.025600
   1587   1585   1594     1   109.7800468 425.094400
   1589   1588   3218     1   109.7800468 425.094400
   1589   1588   1590     1   108.4600466 328.025600
   1590   1588   3218     1   109.7800468 425.094400
   1592   1591   3247     1   109.7800468 425.094400
   1592   1591   1593     1   108.4600466 328.025600
   1593   1591   3247     1   109.7800468 425.094400
   1595   1596   1597     1   109.8800469 414.216000
   1595   1596   1598     1   109.8800469 414.216000
   1595   1599   1600     1   109.8800469 414.216000
   1595   1599   1601     1   109.8800469 414.216000
   1595   1602   1603     1   109.8800469 414.216000
   1595   1602   1604     1   109.8800469 414.216000
   1596   1608   1609     1   109.8000471 387.438400
   1596   1608   1610     1   109.8000471 387.438400
   1597   1596   1608     1   109.5600471 388.275200
   1597   1596   1598     1   108.4600466 328.025600
   1598   1596   1608     1   109.5600471 388.275200
   1599   1611   1612     1   109.8000471 387.438400
   1599   1611   1613     1   109.8000471 387.438400
   1600   1599   1611     1   109.5600471 388.275200
   1600   1599   1601     1   108.4600466 328.025600
   1601   1599   1611     1   109.5600471 388.275200
   1602   1605   1606     1   109.8000471 387.438400
   1602   1605   1607     1   109.8000471 387.438400
   1603   1602   1605     1   109.5600471 388.275200
   1603   1602   1604     1   108.4600466 328.025600
   1604   1602   1605     1   109.5600471 388.275200
   1605   1614   1615     1   109.5600471 388.275200
   1605   1614   1616     1   109.5600471 388.275200
   1606   1605   1614     1   109.8000471 387.438400
   1606   1605   1607     1   107.5800459 329.699200
   1607   1605   1614     1   109.8000471 387.438400
   1608   1620   1621     1   109.5600471 388.275200
   1608   1620   1622     1   109.5600471 388.275200
   1609   1608   1620     1   109.8000471 387.438400
   1609   1608   1610     1   107.5800459 329.699200
   1610   1608   1620     1   109.8000471 387.438400
   1611   1617   1618     1   109.5600471 388.275200
   1611   1617   1619     1   109.5600471 388.275200
   1612   1611   1617     1   109.8000471 387.438400
   1612   1611   1613     1   107.5800459 329.699200
   1613   1611   1617     1   109.8000471 387.438400
   1615   1614   1623     1   109.7800468 425.094400
   1615   1614   1616     1   108.4600466 328.025600
   1616   1614   1623     1   109.7800468 425.094400
   1618   1617   3276     1   109.7800468 425.094400
   1618   1617   1619     1   108.4600466 328.025600
   1619   1617   3276     1   109.7800468 425.094400
   1621   1620   3305     1   109.7800468 425.094400
   1621   1620   1622     1   108.4600466 328.025600
   1622   1620   3305     1   109.7800468 425.094400
   1624   1625   1626     1   109.8800469 414.216000
   1624   1625   1627     1   109.8800469 414.216000
   1624   1628   1629     1   109.8800469 414.216000
   1624   1628   1630     1   109.8800469 414.216000
   1624   1631   1632     1   109.8800469 414.216000
   1624   1631   1633     1   109.8800469 414.216000
   1625   1637   1638     1   109.8000471 387.438400
   1625   1637   1639     1   109.8000471 387.438400
   1626   1625   1637     1   109.5600471 388.275200
   1626   1625   1627     1   108.4600466 328.025600
   1627   1625   1637     1   109.5600471 388.275200
   1628   1640   1641     1   109.8000471 387.438400
   1628   1640   1642     1   109.8000471 387.438400
   1629   1628   1640     1   109.5600471 388.275200
   1629   1628   1630     1   108.4600466 328.025600
   1630   1628   1640     1   109.5600471 388.275200
   1631   1634   1635     1   109.8000471 387.438400
   1631   1634   1636     1   109.8000471 387.438400
   1632   1631   1634     1   109.5600471 388.275200
   1632   1631   1633     1   108.4600466 328.025600
   1633   1631   1634     1   109.5600471 388.275200
   1634   1643   1644     1   109.5600471 388.275200
   1634   1643   1645     1   109.5600471 388.275200
   1635   1634   1643     1   109.8000471 387.438400
   1635   1634   1636     1   107.5800459 329.699200
   1636   1634   1643     1   109.8000471 387.438400
   1637   1649   1650     1   109.5600471 388.275200
   1637   1649   1651     1   109.5600471 388.275200
   1638   1637   1649     1   109.8000471 387.438400
   1638   1637   1639     1   107.5800459 329.699200
   1639   1637   1649     1   109.8000471 387.438400
   1640   1646   1647     1   109.5600471 388.275200
   1640   1646   1648     1   109.5600471 388.275200
   1641   1640   1646     1   109.8000471 387.438400
   1641   1640   1642     1   107.5800459 329.699200
   1642   1640   1646     1   109.8000471 387.438400
   1644   1643   1652     1   109.7800468 425.094400
   1644   1643   1645     1   108.4600466 328.025600
   1645   1643   1652     1   109.7800468 425.094400
   1647   1646   3334     1   109.7800468 425.094400
   1647   1646   1648     1   108.4600466 328.025600
   1648   1646   3334     1   109.7800468 425.094400
   1650   1649   3363     1   109.7800468 425.094400
   1650   1649   1651     1   108.4600466 328.025600
   1651   1649   3363     1   109.7800468 425.094400
   1653   1654   1655     1   109.8800469 414.216000
   1653   1654   1656     1   109.8800469 414.216000
   1653   1657   1658     1   109.8800469 414.216000
   1653   1657   1659     1   109.8800469 414.216000
   1653   1660   1661     1   109.8800469 414.216000
   1653   1660   1662     1   109.8800469 414.216000
   1654   1666   1667     1   109.8000471 387.438400
   1654   1666   1668     1   109.8000471 387.438400
   1655   1654   1666     1   109.5600471 388.275200
   1655   1654   1656     1   108.4600466 328.025600
   1656   1654   1666     1   109.5600471 388.275200
   1657   1669   1670     1   109.8000471 387.438400
   1657   1669   1671     1   109.8000471 387.438400
   1658   1657   1669     1   109.5600471 388.275200
   1658   1657   1659     1   108.4600466 328.025600
   1659   1657   1669     1   109.5600471 388.275200
   1660   1663   1664     1   109.8000471 387.438400
   1660   1663   1665     1   109.8000471 387.438400
   1661   1660   1663     1   109.5600471 388.275200
   1661   1660   1662     1   108.4600466 328.025600
   1662   1660   1663     1   109.5600471 388.275200
   1663   1672   1673     1   109.5600471 388.275200
   1663   1672   1674     1   109.5600471 388.275200
   1664   1663   1672     1   109.8000471 387.438400
   1664   1663   1665     1   107.5800459 329.699200
   1665   1663   1672     1   109.8000471 387.438400
   1666   1678   1679     1   109.5600471 388.275200
   1666   1678   1680     1   109.5600471 388.275200
   1667   1666   1678     1   109.8000471 387.438400
   1667   1666   1668     1   107.5800459 329.699200
   1668   1666   1678     1   109.8000471 387.438400
   1669   1675   1676     1   109.5600471 388.275200
   1669   1675   1677     1   109.5600471 388.275200
   1670   1669   1675     1   109.8000471 387.438400
   1670   1669   1671     1   107.5800459 329.699200
   1671   1669   1675     1   109.8000471 387.438400
   1673   1672   1681     1   109.7800468 425.094400
   1673   1672   1674     1   108.4600466 328.025600
   1674   1672   1681     1   109.7800468 425.094400
   1676   1675   3392     1   109.7800468 425.094400
   1676   1675   1677     1   108.4600466 328.025600
   1677   1675   3392     1   109.7800468 425.094400
   1679   1678   3421     1   109.7800468 425.094400
   1679   1678   1680     1   108.4600466 328.025600
   1680   1678   3421     1   109.7800468 425.094400
   1682   1683   1684     1   109.8800469 414.216000
   1682   1683   1685     1   109.8800469 414.216000
   1682   1686   1687     1   109.8800469 414.216000
   1682   1686   1688     1   109.8800469 414.216000
   1682   1689   1690     1   109.8800469 414.216000
   1682   1689   1691     1   109.8800469 414.216000
   1683   1695   1696     1   109.8000471 387.438400
   1683   1695   1697     1   109.8000471 387.438400
   1684   1683   1695     1   109.5600471 388.275200
   1684   1683   1685     1   108.4600466 328.025600
   1685   1683   1695     1   109.5600471 388.275200
   1686   1698   1699     1   109.8000471 387.438400
   1686   1698   1700     1   109.8000471 387.438400
   1687   1686   1698     1   109.5600471 388.275200
   1687   1686   1688     1   108.4600466 328.025600
   1688   1686   1698     1   109.5600471 388.275200
   1689   1692   1693     1   109.8000471 387.438400
   1689   1692   1694     1   109.8000471 387.438400
   1690   1689   1692     1   109.5600471 388.275200
   1690   1689   1691     1   108.4600466 328.025600
   1691   1689   1692     1   109.5600471 388.275200
   1692   1701   1702     1   109.5600471 388.275200
   1692   1701   1703     1   109.5600471 388.275200
   1693   1692   1701     1   109.8000471 387.438400
   1693   1692   1694     1   107.5800459 329.699200
   1694   1692   1701     1   109.8000471 387.438400
   1695   1707   1708     1   109.5600471 388.275200
   1695   1707   1709     1   109.5600471 388.275200
   1696   1695   1707     1   109.8000471 387.438400
   1696   1695   1697     1   107.5800459 329.699200
   1697   1695   1707     1   109.8000471 387.438400
   1698   1704   1705     1   109.5600471 388.275200
   1698   1704   1706     1   109.5600471 388.275200
   1699   1698   1704     1   109.8000471 387.438400
   1699   1698   1700     1   107.5800459 329.699200
   1700   1698   1704     1   109.8000471 387.438400
   1702   1701   1710     1   109.7800468 425.094400
   1702   1701   1703     1   108.4600466 328.025600
   1703   1701   1710     1   109.7800468 425.094400
   1705   1704   3450     1   109.7800468 425.094400
   1705   1704   1706     1   108.4600466 328.025600
   1706   1704   3450     1   109.7800468 425.094400
   1708   1707   3479     1   109.7800468 425.094400
   1708   1707   1709     1   108.4600466 328.025600
   1709   1707   3479     1   109.7800468 425.094400
   1711   1712   1713     1   109.8800469 414.216000
   1711   1712   1714     1   109.8800469 414.216000
   1711   1715   1716     1   109.8800469 414.216000
   1711   1715   1717     1   109.8800469 414.216000
   1711   1718   1719     1   109.8800469 414.216000
   1711   1718   1720     1   109.8800469 414.216000
   1712   1724   1725     1   109.8000471 387.438400
   1712   1724   1726     1   109.8000471 387.438400
   1713   1712   1724     1   109.5600471 388.275200
   1713   1712   1714     1   108.4600466 328.025600
   1714   1712   1724     1   109.5600471 388.275200
   1715   1727   1728     1   109.8000471 387.438400
   1715   1727   1729     1   109.8000471 387.438400
   1716   1715   1727     1   109.5600471 388.275200
   1716   1715   1717     1   108.4600466 328.025600
   1717   1715   1727     1   109.5600471 388.275200
   1718   1721   1722     1   109.8000471 387.438400
   1718   1721   1723     1   109.8000471 387.438400
   1719   1718   1721     1   109.5600471 388.275200
   1719   1718   1720     1   108.4600466 328.025600
   1720   1718   1721     1   109.5600471 388.275200
   1721   1730   1731     1   109.5600471 388.275200
   1721   1730   1732     1   109.5600471 388.275200
   1722   1721   1730     1   109.8000471 387.438400
   1722   1721   1723     1   107.5800459 329.699200
   1723   1721   1730     1   109.8000471 387.438400
   1724   1736   1737     1   109.5600471 388.275200
   1724   1736   1738     1   109.5600471 388.275200
   1725   1724   1736     1   109.8000471 387.438400
   1725   1724   1726     1   107.5800459 329.699200
   1726   1724   1736     1   109.8000471 387.438400
   1727   1733   1734     1   109.5600471 388.275200
   1727   1733   1735     1   109.5600471 388.275200
   1728   1727   1733     1   109.8000471 387.438400
   1728   1727   1729     1   107.5800459 329.699200
   1729   1727   1733     1   109.8000471 387.438400
   1731   1730   1739     1   109.7800468 425.094400
   1731   1730   1732     1   108.4600466 328.025600
   1732   1730   1739     1   109.7800468 425.094400
   1734   1733   3508     1   109.7800468 425.094400
   1734   1733   1735     1   108.4600466 328.025600
   1735   1733   3508     1   109.7800468 425.094400
   1737   1736   3537     1   109.7800468 425.094400
   1737   1736   1738     1   108.4600466 328.025600
   1738   1736   3537     1   109.7800468 425.094400
   1740   1741   1742     1   109.8800469 414.216000
   1740   1741   1743     1   109.8800469 414.216000
   1740   1744   1745     1   109.8800469 414.216000
   1740   1744   1746     1   109.8800469 414.216000
   1740   1747   1748     1   109.8800469 414.216000
   1740   1747   1749     1   109.8800469 414.216000
   1741   1753   1754     1   109.8000471 387.438400
   1741   1753   1755     1   109.8000471 387.438400
   1742   1741   1753     1   109.5600471 388.275200
   1742   1741   1743     1   108.4600466 328.025600
   1743   1741   1753     1   109.5600471 388.275200
   1744   1756   1757     1   109.8000471 387.438400
   1744   1756   1758     1   109.8000471 387.438400
   1745   1744   1756     1   109.5600471 388.275200
   1745   1744   1746     1   108.4600466 328.025600
   1746   1744   1756     1   109.5600471 388.275200
   1747   1750   1751     1   109.8000471 387.438400
   1747   1750   1752     1   109.8000471 387.438400
   1748   1747   1750     1   109.5600471 388.275200
   1748   1747   1749     1   108.4600466 328.025600
   1749   1747   1750     1   109.5600471 388.275200
   1750   1759   1760     1   109.5600471 388.275200
   1750   1759   1761     1   109.5600471 388.275200
   1751   1750   1759     1   109.8000471 387.438400
   1751   1750   1752     1   107.5800459 329.699200
   1752   1750   1759     1   109.8000471 387.438400
   1753   1765   1766     1   109.5600471 388.275200
   1753   1765   1767     1   109.5600471 388.275200
   1754   1753   1765     1   109.8000471 387.438400
   1754   1753   1755     1   107.5800459 329.699200
   1755   1753   1765     1   109.8000471 387.438400
   1756   1762   1763     1   109.5600471 388.275200
   1756   1762   1764     1   109.5600471 388.275200
   1757   1756   1762     1   109.8000471 387.438400
   1757   1756   1758     1   107.5800459 329.699200
   1758   1756   1762     1   109.8000471 387.438400
   1760   1759   1768     1   109.7800468 425.094400
   1760   1759   1761     1   108.4600466 328.025600
   1761   1759   1768     1   109.7800468 425.094400
   1763   1762   3566     1   109.7800468 425.094400
   1763   1762   1764     1   108.4600466 328.025600
   1764   1762   3566     1   109.7800468 425.094400
   1766   1765   3595     1   109.7800468 425.094400
   1766   1765   1767     1   108.4600466 328.025600
   1767   1765   3595     1   109.7800468 425.094400
   1769   1770   1771     1   109.8800469 414.216000
   1769   1770   1772     1   109.8800469 414.216000
   1769   1773   1774     1   109.8800469 414.216000
   1769   1773   1775     1   109.8800469 414.216000
   1769   1776   1777     1   109.8800469 414.216000
   1769   1776   1778     1   109.8800469 414.216000
   1770   1782   1783     1   109.8000471 387.438400
   1770   1782   1784     1   109.8000471 387.438400
   1771   1770   1782     1   109.5600471 388.275200
   1771   1770   1772     1   108.4600466 328.025600
   1772   1770   1782     1   109.5600471 388.275200
   1773   1785   1786     1   109.8000471 387.438400
   1773   1785   1787     1   109.8000471 387.438400
   1774   1773   1785     1   109.5600471 388.275200
   1774   1773   1775     1   108.4600466 328.025600
   1775   1773   1785     1   109.5600471 388.275200
   1776   1779   1780     1   109.8000471 387.438400
   1776   1779   1781     1   109.8000471 387.438400
   1777   1776   1779     1   109.5600471 388.275200
   1777   1776   1778     1   108.4600466 328.025600
   1778   1776   1779     1   109.5600471 388.275200
   1779   1788   1789     1   109.5600471 388.275200
   1779   1788   1790     1   109.5600471 388.275200
   1780   1779   1788     1   109.8000471 387.438400
   1780   1779   1781     1   107.5800459 329.699200
   1781   1779   1788     1   109.8000471 387.438400
   1782   1794   1795     1   109.5600471 388.275200
   1782   1794   1796     1   109.5600471 388.275200
   1783   1782   1794     1   109.8000471 387.438400
   1783   1782   1784     1   107.5800459 329.699200
   1784   1782   1794     1   109.8000471 387.438400
   1785   1791   1792     1   109.5600471 388.275200
   1785   1791   1793     1   109.5600471 388.275200
   1786   1785   1791     1   109.8000471 387.438400
   1786   1785   1787     1   107.5800459 329.699200
   1787   1785   1791     1   109.8000471 387.438400
   1789   1788   1797     1   109.7800468 425.094400
   1789   1788   1790     1   108.4600466 328.025600
   1790   1788   1797     1   109.7800468 425.094400
   1792   1791   3624     1   109.7800468 425.094400
   1792   1791   1793     1   108.4600466 328.025600
   1793   1791   3624     1   109.7800468 425.094400
   1795   1794   3653     1   109.7800468 425.094400
   1795   1794   1796     1   108.4600466 328.025600
   1796   1794   3653     1   109.7800468 425.094400
   1798   1799   1800     1   109.8800469 414.216000
   1798   1799   1801     1   109.8800469 414.216000
   1798   1802   1803     1   109.8800469 414.216000
   1798   1802   1804     1   109.8800469 414.216000
   1798   1805   1806     1   109.8800469 414.216000
   1798   1805   1807     1   109.8800469 414.216000
   1799   1811   1812     1   109.8000471 387.438400
   1799   1811   1813     1   109.8000471 387.438400
   1800   1799   1811     1   109.5600471 388.275200
   1800   1799   1801     1   108.4600466 328.025600
   1801   1799   1811     1   109.5600471 388.275200
   1802   1814   1815     1   109.8000471 387.438400
   1802   1814   1816     1   109.8000471 387.438400
   1803   1802   1814     1   109.5600471 388.275200
   1803   1802   1804     1   108.4600466 328.025600
   1804   1802   1814     1   109.5600471 388.275200
   1805   1808   1809     1   109.8000471 387.438400
   1805   1808   1810     1   109.8000471 387.438400
   1806   1805   1808     1   109.5600471 388.275200
   1806   1805   1807     1   108.4600466 328.025600
   1807   1805   1808     1   109.5600471 388.275200
   1808   1817   1818     1   109.5600471 388.275200
   1808   1817   1819     1   109.5600471 388.275200
   1809   1808   1817     1   109.8000471 387.438400
   1809   1808   1810     1   107.5800459 329.699200
   1810   1808   1817     1   109.8000471 387.438400
   1811   1823   1824     1   109.5600471 388.275200
   1811   1823   1825     1   109.5600471 388.275200
   1812   1811   1823     1   109.8000471 387.438400
   1812   1811   1813     1   107.5800459 329.699200
   1813   1811   1823     1   109.8000471 387.438400
   1814   1820   1821     1   109.5600471 388.275200
   1814   1820   1822     1   109.5600471 388.275200
   1815   1814   1820     1   109.8000471 387.438400
   1815   1814   1816     1   107.5800459 329.699200
   1816   1814   1820     1   109.8000471 387.438400
   1818   1817   1826     1   109.7800468 425.094400
   1818   1817   1819     1   108.4600466 328.025600
   1819   1817   1826     1   109.7800468 425.094400
   1821   1820   3666     1   109.7800468 425.094400
   1821   1820   1822     1   108.4600466 328.025600
   1822   1820   3666     1   109.7800468 425.094400
   1824   1823   3679     1   109.7800468 425.094400
   1824   1823   1825     1   108.4600466 328.025600
   1825   1823   3679     1   109.7800468 425.094400
   1827   1828   1829     1   109.8800469 414.216000
   1827   1828   1830     1   109.8800469 414.216000
   1827   1831   1832     1   109.8800469 414.216000
   1827   1831   1833     1   109.8800469 414.216000
   1827   1834   1835     1   109.8800469 414.216000
   1827   1834   1836     1   109.8800469 414.216000
   1828   1840   1841     1   109.8000471 387.438400
   1828   1840   1842     1   109.8000471 387.438400
   1829   1828   1840     1   109.5600471 388.275200
   1829   1828   1830     1   108.4600466 328.025600
   1830   1828   1840     1   109.5600471 388.275200
   1831   1843   1844     1   109.8000471 387.438400
   1831   1843   1845     1   109.8000471 387.438400
   1832   1831   1843     1   109.5600471 388.275200
   1832   1831   1833     1   108.4600466 328.025600
   1833   1831   1843     1   109.5600471 388.275200
   1834   1837   1838     1   109.8000471 387.438400
   1834   1837   1839     1   109.8000471 387.438400
   1835   1834   1837     1   109.5600471 388.275200
   1835   1834   1836     1   108.4600466 328.025600
   1836   1834   1837     1   109.5600471 388.275200
   1837   1846   1847     1   109.5600471 388.275200
   1837   1846   1848     1   109.5600471 388.275200
   1838   1837   1846     1   109.8000471 387.438400
   1838   1837   1839     1   107.5800459 329.699200
   1839   1837   1846     1   109.8000471 387.438400
   1840   1852   1853     1   109.5600471 388.275200
   1840   1852   1854     1   109.5600471 388.275200
   1841   1840   1852     1   109.8000471 387.438400
   1841   1840   1842     1   107.5800459 329.699200
   1842   1840   1852     1   109.8000471 387.438400
   1843   1849   1850     1   109.5600471 388.275200
   1843   1849   1851     1   109.5600471 388.275200
   1844   1843   1849     1   109.8000471 387.438400
   1844   1843   1845     1   107.5800459 329.699200
   1845   1843   1849     1   109.8000471 387.438400
   1847   1846   1855     1   109.7800468 425.094400
   1847   1846   1848     1   108.4600466 328.025600
   1848   1846   1855     1   109.7800468 425.094400
   1850   1849   3692     1   109.7800468 425.094400
   1850   1849   1851     1   108.4600466 328.025600
   1851   1849   3692     1   109.7800468 425.094400
   1853   1852   3705     1   109.7800468 425.094400
   1853   1852   1854     1   108.4600466 328.025600
   1854   1852   3705     1   109.7800468 425.094400
   1856   1857   1858     1   109.8800469 414.216000
   1856   1857   1859     1   109.8800469 414.216000
   1856   1860   1861     1   109.8800469 414.216000
   1856   1860   1862     1   109.8800469 414.216000
   1856   1863   1864     1   109.8800469 414.216000
   1856   1863   1865     1   109.8800469 414.216000
   1857   1869   1870     1   109.8000471 387.438400
   1857   1869   1871     1   109.8000471 387.438400
   1858   1857   1869     1   109.5600471 388.275200
   1858   1857   1859     1   108.4600466 328.025600
   1859   1857   1869     1   109.5600471 388.275200
   1860   1872   1873     1   109.8000471 387.438400
   1860   1872   1874     1   109.8000471 387.438400
   1861   1860   1872     1   109.5600471 388.275200
   1861   1860   1862     1   108.4600466 328.025600
   1862   1860   1872     1   109.5600471 388.275200
   1863   1866   1867     1   109.8000471 387.438400
   1863   1866   1868     1   109.8000471 387.438400
   1864   1863   1866     1   109.5600471 388.275200
   1864   1863   1865     1   108.4600466 328.025600
   1865   1863   1866     1   109.5600471 388.275200
   1866   1875   1876     1   109.5600471 388.275200
   1866   1875   1877     1   109.5600471 388.275200
   1867   1866   1875     1   109.8000471 387.438400
   1867   1866   1868     1   107.5800459 329.699200
   1868   1866   1875     1   109.8000471 387.438400
   1869   1881   1882     1   109.5600471 388.275200
   1869   1881   1883     1   109.5600471 388.275200
   1870   1869   1881     1   109.8000471 387.438400
   1870   1869   1871     1   107.5800459 329.699200
   1871   1869   1881     1   109.8000471 387.438400
   1872   1878   1879     1   109.5600471 388.275200
   1872   1878   1880     1   109.5600471 388.275200
   1873   1872   1878     1   109.8000471 387.438400
   1873   1872   1874     1   107.5800459 329.699200
   1874   1872   1878     1   109.8000471 387.438400
   1876   1875   1884     1   109.7800468 425.094400
   1876   1875   1877     1   108.4600466 328.025600
   1877   1875   1884     1   109.7800468 425.094400
   1879   1878   3718     1   109.7800468 425.094400
   1879   1878   1880     1   108.4600466 328.025600
   1880   1878   3718     1   109.7800468 425.094400
   1882   1881   3731     1   109.7800468 425.094400
   1882   1881   1883     1   108.4600466 328.025600
   1883   1881   3731     1   109.7800468 425.094400
   1885   1886   1887     1   109.8800469 414.216000
   1885   1886   1888     1   109.8800469 414.216000
   1885   1889   1890     1   109.8800469 414.216000
   1885   1889   1891     1   109.8800469 414.216000
   1885   1892   1893     1   109.8800469 414.216000
   1885   1892   1894     1   109.8800469 414.216000
   1886   1898   1899     1   109.8000471 387.438400
   1886   1898   1900     1   109.8000471 387.438400
   1887   1886   1898     1   109.5600471 388.275200
   1887   1886   1888     1   108.4600466 328.025600
   1888   1886   1898     1   109.5600471 388.275200
   1889   1901   1902     1   109.8000471 387.438400
   1889   1901   1903     1   109.8000471 387.438400
   1890   1889   1901     1   109.5600471 388.275200
   1890   1889   1891     1   108.4600466 328.025600
   1891   1889   1901     1   109.5600471 388.275200
   1892   1895   1896     1   109.8000471 387.438400
   1892   1895   1897     1   109.8000471 387.438400
   1893   1892   1895     1   109.5600471 388.275200
   1893   1892   1894     1   108.4600466 328.025600
   1894   1892   1895     1   109.5600471 388.275200
   1895   1904   1905     1   109.5600471 388.275200
   1895   1904   1906     1   109.5600471 388.275200
   1896   1895   1904     1   109.8000471 387.438400
   1896   1895   1897     1   107.5800459 329.699200
   1897   1895   1904     1   109.8000471 387.438400
   1898   1910   1911     1   109.5600471 388.275200
   1898   1910   1912     1   109.5600471 388.275200
   1899   1898   1910     1   109.8000471 387.438400
   1899   1898   1900     1   107.5800459 329.699200
   1900   1898   1910     1   109.8000471 387.438400
   1901   1907   1908     1   109.5600471 388.275200
   1901   1907   1909     1   109.5600471 388.275200
   1902   1901   1907     1   109.8000471 387.438400
   1902   1901   1903     1   107.5800459 329.699200
   1903   1901   1907     1   109.8000471 387.438400
   1905   1904   1913     1   109.7800468 425.094400
   1905   1904   1906     1   108.4600466 328.025600
   1906   1904   1913     1   109.7800468 425.094400
   1908   1907   3744     1   109.7800468 425.094400
   1908   1907   1909     1   108.4600466 328.025600
   1909   1907   3744     1   109.7800468 425.094400
   1911   1910   3757     1   109.7800468 425.094400
   1911   1910   1912     1   108.4600466 328.025600
   1912   1910   3757     1   109.7800468 425.094400
   1914   1915   1916     1   109.8800469 414.216000
   1914   1915   1917     1   109.8800469 414.216000
   1914   1918   1919     1   109.8800469 414.216000
   1914   1918   1920     1   109.8800469 414.216000
   1914   1921   1922     1   109.8800469 414.216000
   1914   1921   1923     1   109.8800469 414.216000
   1915   1927   1928     1   109.8000471 387.438400
   1915   1927   1929     1   109.8000471 387.438400
   1916   1915   1927     1   109.5600471 388.275200
   1916   1915   1917     1   108.4600466 328.025600
   1917   1915   1927     1   109.5600471 388.275200
   1918   1930   1931     1   109.8000471 387.438400
   1918   1930   1932     1   109.8000471 387.438400
   1919   1918   1930     1   109.5600471 388.275200
   1919   1918   1920     1   108.4600466 328.025600
   1920   1918   1930     1   109.5600471 388.275200
   1921   1924   1925     1   109.8000471 387.438400
   1921   1924   1926     1   109.8000471 387.438400
   1922   1921   1924     1   109.5600471 388.275200
   1922   1921   1923     1   108.4600466 328.025600
   1923   1921   1924     1   109.5600471 388.275200
   1924   1933   1934     1   109.5600471 388.275200
   1924   1933   1935     1   109.5600471 388.275200
   1925   1924   1933     1   109.8000471 387.438400
   1925   1924   1926     1   107.5800459 329.699200
   1926   1924   1933     1   109.8000471 387.438400
   1927   1939   1940     1   109.5600471 388.275200
   1927   1939   1941     1   109.5600471 388.275200
   1928   1927   1939     1   109.8000471 387.438400
   1928   1927   1929     1   107.5800459 329.699200
   1929   1927   1939     1   109.8000471 387.438400
   1930   1936   1937     1   109.5600471 388.275200
   1930   1936   1938     1   109.5600471 388.275200
   1931   1930   1936     1   109.8000471 387.438400
   1931   1930   1932     1   107.5800459 329.699200
   1932   1930   1936     1   109.8000471 387.438400
   1934   1933   1942     1   109.7800468 425.094400
   1934   1933   1935     1   108.4600466 328.025600
   1935   1933   1942     1   109.7800468 425.094400
   1937   1936   3770     1   109.7800468 425.094400
   1937   1936   1938     1   108.4600466 328.025600
   1938   1936   3770     1   109.7800468 425.094400
   1940   1939   3783     1   109.7800468 425.094400
   1940   1939   1941     1   108.4600466 328.025600
   1941   1939   3783     1   109.7800468 425.094400
   1943   1944   1945     1   109.8800469 414.216000
   1943   1944   1946     1   109.8800469 414.216000
   1943   1947   1948     1   109.8800469 414.216000
   1943   1947   1949     1   109.8800469 414.216000
   1943   1950   1951     1   109.8800469 414.216000
   1943   1950   1952     1   109.8800469 414.216000
   1944   1956   1957     1   109.8000471 387.438400
   1944   1956   1958     1   109.8000471 387.438400
   1945   1944   1956     1   109.5600471 388.275200
   1945   1944   1946     1   108.4600466 328.025600
   1946   1944   1956     1   109.5600471 388.275200
   1947   1959   1960     1   109.8000471 387.438400
   1947   1959   1961     1   109.8000471 387.438400
   1948   1947   1959     1   109.5600471 388.275200
   1948   1947   1949     1   108.4600466 328.025600
   1949   1947   1959     1   109.5600471 388.275200
   1950   1953   1954     1   109.8000471 387.438400
   1950   1953   1955     1   109.8000471 387.438400
   1951   1950   1953     1   109.5600471 388.275200
   1951   1950   1952     1   108.4600466 328.025600
   1952   1950   1953     1   109.5600471 388.275200
   1953   1962   1963     1   109.5600471 388.275200
   1953   1962   1964     1   109.5600471 388.275200
   1954   1953   1962     1   109.8000471 387.438400
   1954   1953   1955     1   107.5800459 329.699200
   1955   1953   1962     1   109.8000471 387.438400
   1956   1968   1969     1   109.5600471 388.275200
   1956   1968   1970     1   109.5600471 388.275200
   1957   1956   1968     1   109.8000471 387.438400
   1957   1956   1958     1   107.5800459 329.699200
   1958   1956   1968     1   109.8000471 387.438400
   1959   1965   1966     1   109.5600471 388.275200
   1959   1965   1967     1   109.5600471 388.275200
   1960   1959   1965     1   109.8000471 387.438400
   1960   1959   1961     1   107.5800459 329.699200
   1961   1959   1965     1   109.8000471 387.438400
   1963   1962   1971     1   109.7800468 425.094400
   1963   1962   1964     1   108.4600466 328.025600
   1964   1962   1971     1   109.7800468 425.094400
   1966   1965   3796     1   109.7800468 425.094400
   1966   1965   1967     1   108.4600466 328.025600
   1967   1965   3796     1   109.7800468 425.094400
   1969   1968   3809     1   109.7800468 425.094400
   1969   1968   1970     1   108.4600466 328.025600
   1970   1968   3809     1   109.7800468 425.094400
   1972   1973   1974     1   109.8800469 414.216000
   1972   1973   1975     1   109.8800469 414.216000
   1972   1976   1977     1   109.8800469 414.216000
   1972   1976   1978     1   109.8800469 414.216000
   1972   1979   1980     1   109.8800469 414.216000
   1972   1979   1981     1   109.8800469 414.216000
   1973   1985   1986     1   109.8000471 387.438400
   1973   1985   1987     1   109.8000471 387.438400
   1974   1973   1985     1   109.5600471 388.275200
   1974   1973   1975     1   108.4600466 328.025600
   1975   1973   1985     1   109.5600471 388.275200
   1976   1988   1989     1   109.8000471 387.438400
   1976   1988   1990     1   109.8000471 387.438400
   1977   1976   1988     1   109.5600471 388.275200
   1977   1976   1978     1   108.4600466 328.025600
   1978   1976   1988     1   109.5600471 388.275200
   1979   1982   1983     1   109.8000471 387.438400
   1979   1982   1984     1   109.8000471 387.438400
   1980   1979   1982     1   109.5600471 388.275200
   1980   1979   1981     1   108.4600466 328.025600
   1981   1979   1982     1   109.5600471 388.275200
   1982   1991   1992     1   109.5600471 388.275200
   1982   1991   1993     1   109.5600471 388.275200
   1983   1982   1991     1   109.8000471 387.438400
   1983   1982   1984     1   107.5800459 329.699200
   1984   1982   1991     1   109.8000471 387.438400
   1985   1997   1998     1   109.5600471 388.275200
   1985   1997   1999     1   109.5600471 388.275200
   1986   1985   1997     1   109.8000471 387.438400
   1986   1985   1987     1   107.5800459 329.699200
   1987   1985   1997     1   109.8000471 387.438400
   1988   1994   1995     1   109.5600471 388.275200
   1988   1994   1996     1   109.5600471 388.275200
   1989   1988   1994     1   109.8000471 387.438400
   1989   1988   1990     1   107.5800459 329.699200
   1990   1988   1994     1   109.8000471 387.438400
   1992   1991   2000     1   109.7800468 425.094400
   1992   1991   1993     1   108.4600466 328.025600
   1993   1991   2000     1   109.7800468 425.094400
   1995   1994   3822     1   109.7800468 425.094400
   1995   1994   1996     1   108.4600466 328.025600
   1996   1994   3822     1   109.7800468 425.094400
   1998   1997   3835     1   109.7800468 425.094400
   1998   1997   1999     1   108.4600466 328.025600
   1999   1997   3835     1   109.7800468 425.094400
   2001   2002   2003     1   109.8800469 414.216000
   2001   2002   2004     1   109.8800469 414.216000
   2001   2005   2006     1   109.8800469 414.216000
   2001   2005   2007     1   109.8800469 414.216000
   2001   2008   2009     1   109.8800469 414.216000
   2001   2008   2010     1   109.8800469 414.216000
   2002   2014   2015     1   109.8000471 387.438400
   2002   2014   2016     1   109.8000471 387.438400
   2003   2002   2014     1   109.5600471 388.275200
   2003   2002   2004     1   108.4600466 328.025600
   2004   2002   2014     1   109.5600471 388.275200
   2005   2017   2018     1   109.8000471 387.438400
   2005   2017   2019     1   109.8000471 387.438400
   2006   2005   2017     1   109.5600471 388.275200
   2006   2005   2007     1   108.4600466 328.025600
   2007   2005   2017     1   109.5600471 388.275200
   2008   2011   2012     1   109.8000471 387.438400
   2008   2011   2013     1   109.8000471 387.438400
   2009   2008   2011     1   109.5600471 388.275200
   2009   2008   2010     1   108.4600466 328.025600
   2010   2008   2011     1   109.5600471 388.275200
   2011   2020   2021     1   109.5600471 388.275200
   2011   2020   2022     1   109.5600471 388.275200
   2012   2011   2020     1   109.8000471 387.438400
   2012   2011   2013     1   107.5800459 329.699200
   2013   2011   2020     1   109.8000471 387.438400
   2014   2026   2027     1   109.5600471 388.275200
   2014   2026   2028     1   109.5600471 388.275200
   2015   2014   2026     1   109.8000471 387.438400
   2015   2014   2016     1   107.5800459 329.699200
   2016   2014   2026     1   109.8000471 387.438400
   2017   2023   2024     1   109.5600471 388.275200
   2017   2023   2025     1   109.5600471 388.275200
   2018   2017   2023     1   109.8000471 387.438400
   2018   2017   2019     1   107.5800459 329.699200
   2019   2017   2023     1   109.8000471 387.438400
   2021   2020   2029     1   109.7800468 425.094400
   2021   2020   2022     1   108.4600466 328.025600
   2022   2020   2029     1   109.7800468 425.094400
   2024   2023   3848     1   109.7800468 425.094400
   2024   2023   2025     1   108.4600466 328.025600
   2025   2023   3848     1   109.7800468 425.094400
   2027   2026   3861     1   109.7800468 425.094400
   2027   2026   2028     1   108.4600466 328.025600
   2028   2026   3861     1   109.7800468 425.094400
   2030   2031   2032     1   109.8800469 414.216000
   2030   2031   2033     1   109.8800469 414.216000
   2030   2034   2035     1   109.8800469 414.216000
   2030   2034   2036     1   109.8800469 414.216000
   2030   2037   2038     1   109.8800469 414.216000
   2030   2037   2039     1   109.8800469 414.216000
   2031   2043   2044     1   109.8000471 387.438400
   2031   2043   2045     1   109.8000471 387.438400
   2032   2031   2043     1   109.5600471 388.275200
   2032   2031   2033     1   108.4600466 328.025600
   2033   2031   2043     1   109.5600471 388.275200
   2034   2046   2047     1   109.8000471 387.438400
   2034   2046   2048     1   109.8000471 387.438400
   2035   2034   2046     1   109.5600471 388.275200
   2035   2034   2036     1   108.4600466 328.025600
   2036   2034   2046     1   109.5600471 388.275200
   2037   2040   2041     1   109.8000471 387.438400
   2037   2040   2042     1   109.8000471 387.438400
   2038   2037   2040     1   109.5600471 388.275200
   2038   2037   2039     1   108.4600466 328.025600
   2039   2037   2040     1   109.5600471 388.275200
   2040   2049   2050     1   109.5600471 388.275200
   2040   2049   2051     1   109.5600471 388.275200
   2041   2040   2049     1   109.8000471 387.438400
   2041   2040   2042     1   107.5800459 329.699200
   2042   2040   2049     1   109.8000471 387.438400
   2043   2055   2056     1   109.5600471 388.275200
   2043   2055   2057     1   109.5600471 388.275200
   2044   2043   2055     1   109.8000471 387.438400
   2044   2043   2045     1   107.5800459 329.699200
   2045   2043   2055     1   109.8000471 387.438400
   2046   2052   2053     1   109.5600471 388.275200
   2046   2052   2054     1   109.5600471 388.275200
   2047   2046   2052     1   109.8000471 387.438400
   2047   2046   2048     1   107.5800459 329.699200
   2048   2046   2052     1   109.8000471 387.438400
   2050   2049   2058     1   109.7800468 425.094400
   2050   2049   2051     1   108.4600466 328.025600
   2051   2049   2058     1   109.7800468 425.094400
   2053   2052   3874     1   109.7800468 425.094400
   2053   2052   2054     1   108.4600466 328.025600
   2054   2052   3874     1   109.7800468 425.094400
   2056   2055   3887     1   109.7800468 425.094400
   2056   2055   2057     1   108.4600466 328.025600
   2057   2055   3887     1   109.7800468 425.094400
   2059   2060   2061     1   109.8800469 414.216000
   2059   2060   2062     1   109.8800469 414.216000
   2059   2063   2064     1   109.8800469 414.216000
   2059   2063   2065     1   109.8800469 414.216000
   2059   2066   2067     1   109.8800469 414.216000
   2059   2066   2068     1   109.8800469 414.216000
   2060   2072   2073     1   109.8000471 387.438400
   2060   2072   2074     1   109.8000471 387.438400
   2061   2060   2072     1   109.5600471 388.275200
   2061   2060   2062     1   108.4600466 328.025600
   2062   2060   2072     1   109.5600471 388.275200
   2063   2075   2076     1   109.8000471 387.438400
   2063   2075   2077     1   109.8000471 387.438400
   2064   2063   2075     1   109.5600471 388.275200
   2064   2063   2065     1   108.4600466 328.025600
   2065   2063   2075     1   109.5600471 388.275200
   2066   2069   2070     1   109.8000471 387.438400
   2066   2069   2071     1   109.8000471 387.438400
   2067   2066   2069     1   109.5600471 388.275200
   2067   2066   2068     1   108.4600466 328.025600
   2068   2066   2069     1   109.5600471 388.275200
   2069   2078   2079     1   109.5600471 388.275200
   2069   2078   2080     1   109.5600471 388.275200
   2070   2069   2078     1   109.8000471 387.438400
   2070   2069   2071     1   107.5800459 329.699200
   2071   2069   2078     1   109.8000471 387.438400
   2072   2084   2085     1   109.5600471 388.275200
   2072   2084   2086     1   109.5600471 388.275200
   2073   2072   2084     1   109.8000471 387.438400
   2073   2072   2074     1   107.5800459 329.699200
   2074   2072   2084     1   109.8000471 387.438400
   2075   2081   2082     1   109.5600471 388.275200
   2075   2081   2083     1   109.5600471 388.275200
   2076   2075   2081     1   109.8000471 387.438400
   2076   2075   2077     1   107.5800459 329.699200
   2077   2075   2081     1   109.8000471 387.438400
   2079   2078   2087     1   109.7800468 425.094400
   2079   2078   2080     1   108.4600466 328.025600
   2080   2078   2087     1   109.7800468 425.094400
   2082   2081   3900     1   109.7800468 425.094400
   2082   2081   2083     1   108.4600466 328.025600
   2083   2081   3900     1   109.7800468 425.094400
   2085   2084   3913     1   109.7800468 425.094400
   2085   2084   2086     1   108.4600466 328.025600
   2086   2084   3913     1   109.7800468 425.094400
   2088   2089   2090     1   109.8800469 414.216000
   2088   2089   2091     1   109.8800469 414.216000
   2088   2092   2093     1   109.8800469 414.216000
   2088   2092   2094     1   109.8800469 414.216000
   2088   2095   2096     1   109.8800469 414.216000
   2088   2095   2097     1   109.8800469 414.216000
   2089   2101   2102     1   109.8000471 387.438400
   2089   2101   2103     1   109.8000471 387.438400
   2090   2089   2101     1   109.5600471 388.275200
   2090   2089   2091     1   108.4600466 328.025600
   2091   2089   2101     1   109.5600471 388.275200
   2092   2104   2105     1   109.8000471 387.438400
   2092   2104   2106     1   109.8000471 387.438400
   2093   2092   2104     1   109.5600471 388.275200
   2093   2092   2094     1   108.4600466 328.025600
   2094   2092   2104     1   109.5600471 388.275200
   2095   2098   2099     1   109.8000471 387.438400
   2095   2098   2100     1   109.8000471 387.438400
   2096   2095   2098     1   109.5600471 388.275200
   2096   2095   2097     1   108.4600466 328.025600
   2097   2095   2098     1   109.5600471 388.275200
   2098   2107   2108     1   109.5600471 388.275200
   2098   2107   2109     1   109.5600471 388.275200
   2099   2098   2107     1   109.8000471 387.438400
   2099   2098   2100     1   107.5800459 329.699200
   2100   2098   2107     1   109.8000471 387.438400
   2101   2113   2114     1   109.5600471 388.275200
   2101   2113   2115     1   109.5600471 388.275200
   2102   2101   2113     1   109.8000471 387.438400
   2102   2101   2103     1   107.5800459 329.699200
   2103   2101   2113     1   109.8000471 387.438400
   2104   2110   2111     1   109.5600471 388.275200
   2104   2110   2112     1   109.5600471 388.275200
   2105   2104   2110     1   109.8000471 387.438400
   2105   2104   2106     1   107.5800459 329.699200
   2106   2104   2110     1   109.8000471 387.438400
   2108   2107   2116     1   109.7800468 425.094400
   2108   2107   2109     1   108.4600466 328.025600
   2109   2107   2116     1   109.7800468 425.094400
   2111   2110   3926     1   109.7800468 425.094400
   2111   2110   2112     1   108.4600466 328.025600
   2112   2110   3926     1   109.7800468 425.094400
   2114   2113   3939     1   109.7800468 425.094400
   2114   2113   2115     1   108.4600466 328.025600
   2115   2113   3939     1   109.7800468 425.094400
   2117   2118   2119     1   109.8800469 414.216000
   2117   2118   2120     1   109.8800469 414.216000
   2117   2121   2122     1   109.8800469 414.216000
   2117   2121   2123     1   109.8800469 414.216000
   2117   2124   2125     1   109.8800469 414.216000
   2117   2124   2126     1   109.8800469 414.216000
   2118   2130   2131     1   109.8000471 387.438400
   2118   2130   2132     1   109.8000471 387.438400
   2119   2118   2130     1   109.5600471 388.275200
   2119   2118   2120     1   108.4600466 328.025600
   2120   2118   2130     1   109.5600471 388.275200
   2121   2133   2134     1   109.8000471 387.438400
   2121   2133   2135     1   109.8000471 387.438400
   2122   2121   2133     1   109.5600471 388.275200
   2122   2121   2123     1   108.4600466 328.025600
   2123   2121   2133     1   109.5600471 388.275200
   2124   2127   2128     1   109.8000471 387.438400
   2124   2127   2129     1   109.8000471 387.438400
   2125   2124   2127     1   109.5600471 388.275200
   2125   2124   2126     1   108.4600466 328.025600
   2126   2124   2127     1   109.5600471 388.275200
   2127   2136   2137     1   109.5600471 388.275200
   2127   2136   2138     1   109.5600471 388.275200
   2128   2127   2136     1   109.8000471 387.438400
   2128   2127   2129     1   107.5800459 329.699200
   2129   2127   2136     1   109.8000471 387.438400
   2130   2142   2143     1   109.5600471 388.275200
   2130   2142   2144     1   109.5600471 388.275200
   2131   2130   2142     1   109.8000471 387.438400
   2131   2130   2132     1   107.5800459 329.699200
   2132   2130   2142     1   109.8000471 387.438400
   2133   2139   2140     1   109.5600471 388.275200
   2133   2139   2141     1   109.5600471 388.275200
   2134   2133   2139     1   109.8000471 387.438400
   2134   2133   2135     1   107.5800459 329.699200
   2135   2133   2139     1   109.8000471 387.438400
   2137   2136   2145     1   109.7800468 425.094400
   2137   2136   2138     1   108.4600466 328.025600
   2138   2136   2145     1   109.7800468 425.094400
   2140   2139   3952     1   109.7800468 425.094400
   2140   2139   2141     1   108.4600466 328.025600
   2141   2139   3952     1   109.7800468 425.094400
   2143   2142   3965     1   109.7800468 425.094400
   2143   2142   2144     1   108.4600466 328.025600
   2144   2142   3965     1   109.7800468 425.094400
   2146   2147   2148     1   109.8800469 414.216000
   2146   2147   2149     1   109.8800469 414.216000
   2146   2150   2151     1   109.8800469 414.216000
   2146   2150   2152     1   109.8800469 414.216000
   2146   2153   2154     1   109.8800469 414.216000
   2146   2153   2155     1   109.8800469 414.216000
   2147   2159   2160     1   109.8000471 387.438400
   2147   2159   2161     1   109.8000471 387.438400
   2148   2147   2159     1   109.5600471 388.275200
   2148   2147   2149     1   108.4600466 328.025600
   2149   2147   2159     1   109.5600471 388.275200
   2150   2162   2163     1   109.8000471 387.438400
   2150   2162   2164     1   109.8000471 387.438400
   2151   2150   2162     1   109.5600471 388.275200
   2151   2150   2152     1   108.4600466 328.025600
   2152   2150   2162     1   109.5600471 388.275200
   2153   2156   2157     1   109.8000471 387.438400
   2153   2156   2158     1   109.8000471 387.438400
   2154   2153   2156     1   109.5600471 388.275200
   2154   2153   2155     1   108.4600466 328.025600
   2155   2153   2156     1   109.5600471 388.275200
   2156   2165   2166     1   109.5600471 388.275200
   2156   2165   2167     1   109.5600471 388.275200
   2157   2156   2165     1   109.8000471 387.438400
   2157   2156   2158     1   107.5800459 329.699200
   2158   2156   2165     1   109.8000471 387.438400
   2159   2171   2172     1   109.5600471 388.275200
   2159   2171   2173     1   109.5600471 388.275200
   2160   2159   2171     1   109.8000471 387.438400
   2160   2159   2161     1   107.5800459 329.699200
   2161   2159   2171     1   109.8000471 387.438400
   2162   2168   2169     1   109.5600471 388.275200
   2162   2168   2170     1   109.5600471 388.275200
   2163   2162   2168     1   109.8000471 387.438400
   2163   2162   2164     1   107.5800459 329.699200
   2164   2162   2168     1   109.8000471 387.438400
   2166   2165   2174     1   109.7800468 425.094400
   2166   2165   2167     1   108.4600466 328.025600
   2167   2165   2174     1   109.7800468 425.094400
   2169   2168   3978     1   109.7800468 425.094400
   2169   2168   2170     1   108.4600466 328.025600
   2170   2168   3978     1   109.7800468 425.094400
   2172   2171   3991     1   109.7800468 425.094400
   2172   2171   2173     1   108.4600466 328.025600
   2173   2171   3991     1   109.7800468 425.094400
   2175   2176   2177     1   109.8800469 414.216000
   2175   2176   2178     1   109.8800469 414.216000
   2175   2179   2180     1   109.8800469 414.216000
   2175   2179   2181     1   109.8800469 414.216000
   2175   2182   2183     1   109.8800469 414.216000
   2175   2182   2184     1   109.8800469 414.216000
   2176   2188   2189     1   109.8000471 387.438400
   2176   2188   2190     1   109.8000471 387.438400
   2177   2176   2188     1   109.5600471 388.275200
   2177   2176   2178     1   108.4600466 328.025600
   2178   2176   2188     1   109.5600471 388.275200
   2179   2191   2192     1   109.8000471 387.438400
   2179   2191   2193     1   109.8000471 387.438400
   2180   2179   2191     1   109.5600471 388.275200
   2180   2179   2181     1   108.4600466 328.025600
   2181   2179   2191     1   109.5600471 388.275200
   2182   2185   2186     1   109.8000471 387.438400
   2182   2185   2187     1   109.8000471 387.438400
   2183   2182   2185     1   109.5600471 388.275200
   2183   2182   2184     1   108.4600466 328.025600
   2184   2182   2185     1   109.5600471 388.275200
   2185   2194   2195     1   109.5600471 388.275200
   2185   2194   2196     1   109.5600471 388.275200
   2186   2185   2194     1   109.8000471 387.438400
   2186   2185   2187     1   107.5800459 329.699200
   2187   2185   2194     1   109.8000471 387.438400
   2188   2200   2201     1   109.5600471 388.275200
   2188   2200   2202     1   109.5600471 388.275200
   2189   2188   2200     1   109.8000471 387.438400
   2189   2188   2190     1   107.5800459 329.699200
   2190   2188   2200     1   109.8000471 387.438400
   2191   2197   2198     1   109.5600471 388.275200
   2191   2197   2199     1   109.5600471 388.275200
   2192   2191   2197     1   109.8000471 387.438400
   2192   2191   2193     1   107.5800459 329.699200
   2193   2191   2197     1   109.8000471 387.438400
   2195   2194   2203     1   109.7800468 425.094400
   2195   2194   2196     1   108.4600466 328.025600
   2196   2194   2203     1   109.7800468 425.094400
   2198   2197   4004     1   109.7800468 425.094400
   2198   2197   2199     1   108.4600466 328.025600
   2199   2197   4004     1   109.7800468 425.094400
   2201   2200   4017     1   109.7800468 425.094400
   2201   2200   2202     1   108.4600466 328.025600
   2202   2200   4017     1   109.7800468 425.094400
   2204   2205   2206     1   109.8800469 414.216000
   2204   2205   2207     1   109.8800469 414.216000
   2204   2208   2209     1   109.8800469 414.216000
   2204   2208   2210     1   109.8800469 414.216000
   2204   2211   2212     1   109.8800469 414.216000
   2204   2211   2213     1   109.8800469 414.216000
   2205   2217   2218     1   109.8000471 387.438400
   2205   2217   2219     1   109.8000471 387.438400
   2206   2205   2217     1   109.5600471 388.275200
   2206   2205   2207     1   108.4600466 328.025600
   2207   2205   2217     1   109.5600471 388.275200
   2208   2220   2221     1   109.8000471 387.438400
   2208   2220   2222     1   109.8000471 387.438400
   2209   2208   2220     1   109.5600471 388.275200
   2209   2208   2210     1   108.4600466 328.025600
   2210   2208   2220     1   109.5600471 388.275200
   2211   2214   2215     1   109.8000471 387.438400
   2211   2214   2216     1   109.8000471 387.438400
   2212   2211   2214     1   109.5600471 388.275200
   2212   2211   2213     1   108.4600466 328.025600
   2213   2211   2214     1   109.5600471 388.275200
   2214   2223   2224     1   109.5600471 388.275200
   2214   2223   2225     1   109.5600471 388.275200
   2215   2214   2223     1   109.8000471 387.438400
   2215   2214   2216     1   107.5800459 329.699200
   2216   2214   2223     1   109.8000471 387.438400
   2217   2229   2230     1   109.5600471 388.275200
   2217   2229   2231     1   109.5600471 388.275200
   2218   2217   2229     1   109.8000471 387.438400
   2218   2217   2219     1   107.5800459 329.699200
   2219   2217   2229     1   109.8000471 387.438400
   2220   2226   2227     1   109.5600471 388.275200
   2220   2226   2228     1   109.5600471 388.275200
   2221   2220   2226     1   109.8000471 387.438400
   2221   2220   2222     1   107.5800459 329.699200
   2222   2220   2226     1   109.8000471 387.438400
   2224   2223   2232     1   109.7800468 425.094400
   2224   2223   2225     1   108.4600466 328.025600
   2225   2223   2232     1   109.7800468 425.094400
   2227   2226   4030     1   109.7800468 425.094400
   2227   2226   2228     1   108.4600466 328.025600
   2228   2226   4030     1   109.7800468 425.094400
   2230   2229   4043     1   109.7800468 425.094400
   2230   2229   2231     1   108.4600466 328.025600
   2231   2229   4043     1   109.7800468 425.094400
   2233   2234   2235     1   109.8800469 414.216000
   2233   2234   2236     1   109.8800469 414.216000
   2233   2237   2238     1   109.8800469 414.216000
   2233   2237   2239     1   109.8800469 414.216000
   2233   2240   2241     1   109.8800469 414.216000
   2233   2240   2242     1   109.8800469 414.216000
   2234   2246   2247     1   109.8000471 387.438400
   2234   2246   2248     1   109.8000471 387.438400
   2235   2234   2246     1   109.5600471 388.275200
   2235   2234   2236     1   108.4600466 328.025600
   2236   2234   2246     1   109.5600471 388.275200
   2237   2249   2250     1   109.8000471 387.438400
   2237   2249   2251     1   109.8000471 387.438400
   2238   2237   2249     1   109.5600471 388.275200
   2238   2237   2239     1   108.4600466 328.025600
   2239   2237   2249     1   109.5600471 388.275200
   2240   2243   2244     1   109.8000471 387.438400
   2240   2243   2245     1   109.8000471 387.438400
   2241   2240   2243     1   109.5600471 388.275200
   2241   2240   2242     1   108.4600466 328.025600
   2242   2240   2243     1   109.5600471 388.275200
   2243   2252   2253     1   109.5600471 388.275200
   2243   2252   2254     1   109.5600471 388.275200
   2244   2243   2252     1   109.8000471 387.438400
   2244   2243   2245     1   107.5800459 329.699200
   2245   2243   2252     1   109.8000471 387.438400
   2246   2258   2259     1   109.5600471 388.275200
   2246   2258   2260     1   109.5600471 388.275200
   2247   2246   2258     1   109.8000471 387.438400
   2247   2246   2248     1   107.5800459 329.699200
   2248   2246   2258     1   109.8000471 387.438400
   2249   2255   2256     1   109.5600471 388.275200
   2249   2255   2257     1   109.5600471 388.275200
   2250   2249   2255     1   109.8000471 387.438400
   2250   2249   2251     1   107.5800459 329.699200
   2251   2249   2255     1   109.8000471 387.438400
   2253   2252   2261     1   109.7800468 425.094400
   2253   2252   2254     1   108.4600466 328.025600
   2254   2252   2261     1   109.7800468 425.094400
   2256   2255   4056     1   109.7800468 425.094400
   2256   2255   2257     1   108.4600466 328.025600
   2257   2255   4056     1   109.7800468 425.094400
   2259   2258   4069     1   109.7800468 425.094400
   2259   2258   2260     1   108.4600466 328.025600
   2260   2258   4069     1   109.7800468 425.094400
   2262   2263   2264     1   109.8800469 414.216000
   2262   2263   2265     1   109.8800469 414.216000
   2262   2266   2267     1   109.8800469 414.216000
   2262   2266   2268     1   109.8800469 414.216000
   2262   2269   2270     1   109.8800469 414.216000
   2262   2269   2271     1   109.8800469 414.216000
   2263   2275   2276     1   109.8000471 387.438400
   2263   2275   2277     1   109.8000471 387.438400
   2264   2263   2275     1   109.5600471 388.275200
   2264   2263   2265     1   108.4600466 328.025600
   2265   2263   2275     1   109.5600471 388.275200
   2266   2278   2279     1   109.8000471 387.438400
   2266   2278   2280     1   109.8000471 387.438400
   2267   2266   2278     1   109.5600471 388.275200
   2267   2266   2268     1   108.4600466 328.025600
   2268   2266   2278     1   109.5600471 388.275200
   2269   2272   2273     1   109.8000471 387.438400
   2269   2272   2274     1   109.8000471 387.438400
   2270   2269   2272     1   109.5600471 388.275200
   2270   2269   2271     1   108.4600466 328.025600
   2271   2269   2272     1   109.5600471 388.275200
   2272   2281   2282     1   109.5600471 388.275200
   2272   2281   2283     1   109.5600471 388.275200
   2273   2272   2281     1   109.8000471 387.438400
   2273   2272   2274     1   107.5800459 329.699200
   2274   2272   2281     1   109.8000471 387.438400
   2275   2287   2288     1   109.5600471 388.275200
   2275   2287   2289     1   109.5600471 388.275200
   2276   2275   2287     1   109.8000471 387.438400
   2276   2275   2277     1   107.5800459 329.699200
   2277   2275   2287     1   109.8000471 387.438400
   2278   2284   2285     1   109.5600471 388.275200
   2278   2284   2286     1   109.5600471 388.275200
   2279   2278   2284     1   109.8000471 387.438400
   2279   2278   2280     1   107.5800459 329.699200
   2280   2278   2284     1   109.8000471 387.438400
   2282   2281   2290     1   109.7800468 425.094400
   2282   2281   2283     1   108.4600466 328.025600
   2283   2281   2290     1   109.7800468 425.094400
   2285   2284   4082     1   109.7800468 425.094400
   2285   2284   2286     1   108.4600466 328.025600
   2286   2284   4082     1   109.7800468 425.094400
   2288   2287   4095     1   109.7800468 425.094400
   2288   2287   2289     1   108.4600466 328.025600
   2289   2287   4095     1   109.7800468 425.094400
   2291   2292   2293     1   109.8800469 414.216000
   2291   2292   2294     1   109.8800469 414.216000
   2291   2295   2296     1   109.8800469 414.216000
   2291   2295   2297     1   109.8800469 414.216000
   2291   2298   2299     1   109.8800469 414.216000
   2291   2298   2300     1   109.8800469 414.216000
   2292   2304   2305     1   109.8000471 387.438400
   2292   2304   2306     1   109.8000471 387.438400
   2293   2292   2304     1   109.5600471 388.275200
   2293   2292   2294     1   108.4600466 328.025600
   2294   2292   2304     1   109.5600471 388.275200
   2295   2307   2308     1   109.8000471 387.438400
   2295   2307   2309     1   109.8000471 387.438400
   2296   2295   2307     1   109.5600471 388.275200
   2296   2295   2297     1   108.4600466 328.025600
   2297   2295   2307     1   109.5600471 388.275200
   2298   2301   2302     1   109.8000471 387.438400
   2298   2301   2303     1   109.8000471 387.438400
   2299   2298   2301     1   109.5600471 388.275200
   2299   2298   2300     1   108.4600466 328.025600
   2300   2298   2301     1   109.5600471 388.275200
   2301   2310   2311     1   109.5600471 388.275200
   2301   2310   2312     1   109.5600471 388.275200
   2302   2301   2310     1   109.8000471 387.438400
   2302   2301   2303     1   107.5800459 329.699200
   2303   2301   2310     1   109.8000471 387.438400
   2304   2316   2317     1   109.5600471 388.275200
   2304   2316   2318     1   109.5600471 388.275200
   2305   2304   2316     1   109.8000471 387.438400
   2305   2304   2306     1   107.5800459 329.699200
   2306   2304   2316     1   109.8000471 387.438400
   2307   2313   2314     1   109.5600471 388.275200
   2307   2313   2315     1   109.5600471 388.275200
   2308   2307   2313     1   109.8000471 387.438400
   2308   2307   2309     1   107.5800459 329.699200
   2309   2307   2313     1   109.8000471 387.438400
   2311   2310   2319     1   109.7800468 425.094400
   2311   2310   2312     1   108.4600466 328.025600
   2312   2310   2319     1   109.7800468 425.094400
   2314   2313   4108     1   109.7800468 425.094400
   2314   2313   2315     1   108.4600466 328.025600
   2315   2313   4108     1   109.7800468 425.094400
   2317   2316   4121     1   109.7800468 425.094400
   2317   2316   2318     1   108.4600466 328.025600
   2318   2316   4121     1   109.7800468 425.094400
   2320   2321   2322     1   109.8800469 414.216000
   2320   2321   2323     1   109.8800469 414.216000
   2320   2324   2325     1   109.8800469 414.216000
   2320   2324   2326     1   109.8800469 414.216000
   2320   2327   2328     1   109.8800469 414.216000
   2320   2327   2329     1   109.8800469 414.216000
   2321   2333   2334     1   109.8000471 387.438400
   2321   2333   2335     1   109.8000471 387.438400
   2322   2321   2333     1   109.5600471 388.275200
   2322   2321   2323     1   108.4600466 328.025600
   2323   2321   2333     1   109.5600471 388.275200
   2324   2336   2337     1   109.8000471 387.438400
   2324   2336   2338     1   109.8000471 387.438400
   2325   2324   2336     1   109.5600471 388.275200
   2325   2324   2326     1   108.4600466 328.025600
   2326   2324   2336     1   109.5600471 388.275200
   2327   2330   2331     1   109.8000471 387.438400
   2327   2330   2332     1   109.8000471 387.438400
   2328   2327   2330     1   109.5600471 388.275200
   2328   2327   2329     1   108.4600466 328.025600
   2329   2327   2330     1   109.5600471 388.275200
   2330   2339   2340     1   109.5600471 388.275200
   2330   2339   2341     1   109.5600471 388.275200
   2331   2330   2339     1   109.8000471 387.438400
   2331   2330   2332     1   107.5800459 329.699200
   2332   2330   2339     1   109.8000471 387.438400
   2333   2345   2346     1   109.5600471 388.275200
   2333   2345   2347     1   109.5600471 388.275200
   2334   2333   2345     1   109.8000471 387.438400
   2334   2333   2335     1   107.5800459 329.699200
   2335   2333   2345     1   109.8000471 387.438400
   2336   2342   2343     1   109.5600471 388.275200
   2336   2342   2344     1   109.5600471 388.275200
   2337   2336   2342     1   109.8000471 387.438400
   2337   2336   2338     1   107.5800459 329.699200
   2338   2336   2342     1   109.8000471 387.438400
   2340   2339   2348     1   109.7800468 425.094400
   2340   2339   2341     1   108.4600466 328.025600
   2341   2339   2348     1   109.7800468 425.094400
   2343   2342   4134     1   109.7800468 425.094400
   2343   2342   2344     1   108.4600466 328.025600
   2344   2342   4134     1   109.7800468 425.094400
   2346   2345   4147     1   109.7800468 425.094400
   2346   2345   2347     1   108.4600466 328.025600
   2347   2345   4147     1   109.7800468 425.094400
   2349   2350   2351     1   109.8800469 414.216000
   2349   2350   2352     1   109.8800469 414.216000
   2349   2353   2354     1   109.8800469 414.216000
   2349   2353   2355     1   109.8800469 414.216000
   2349   2356   2357     1   109.8800469 414.216000
   2349   2356   2358     1   109.8800469 414.216000
   2350   2362   2363     1   109.8000471 387.438400
   2350   2362   2364     1   109.8000471 387.438400
   2351   2350   2362     1   109.5600471 388.275200
   2351   2350   2352     1   108.4600466 328.025600
   2352   2350   2362     1   109.5600471 388.275200
   2353   2365   2366     1   109.8000471 387.438400
   2353   2365   2367     1   109.8000471 387.438400
   2354   2353   2365     1   109.5600471 388.275200
   2354   2353   2355     1   108.4600466 328.025600
   2355   2353   2365     1   109.5600471 388.275200
   2356   2359   2360     1   109.8000471 387.438400
   2356   2359   2361     1   109.8000471 387.438400
   2357   2356   2359     1   109.5600471 388.275200
   2357   2356   2358     1   108.4600466 328.025600
   2358   2356   2359     1   109.5600471 388.275200
   2359   2368   2369     1   109.5600471 388.275200
   2359   2368   2370     1   109.5600471 388.275200
   2360   2359   2368     1   109.8000471 387.438400
   2360   2359   2361     1   107.5800459 329.699200
   2361   2359   2368     1   109.8000471 387.438400
   2362   2374   2375     1   109.5600471 388.275200
   2362   2374   2376     1   109.5600471 388.275200
   2363   2362   2374     1   109.8000471 387.438400
   2363   2362   2364     1   107.5800459 329.699200
   2364   2362   2374     1   109.8000471 387.438400
   2365   2371   2372     1   109.5600471 388.275200
   2365   2371   2373     1   109.5600471 388.275200
   2366   2365   2371     1   109.8000471 387.438400
   2366   2365   2367     1   107.5800459 329.699200
   2367   2365   2371     1   109.8000471 387.438400
   2369   2368   2377     1   109.7800468 425.094400
   2369   2368   2370     1   108.4600466 328.025600
   2370   2368   2377     1   109.7800468 425.094400
   2372   2371   4160     1   109.7800468 425.094400
   2372   2371   2373     1   108.4600466 328.025600
   2373   2371   4160     1   109.7800468 425.094400
   2375   2374   4173     1   109.7800468 425.094400
   2375   2374   2376     1   108.4600466 328.025600
   2376   2374   4173     1   109.7800468 425.094400
   2378   2379   2380     1   109.8800469 414.216000
   2378   2379   2381     1   109.8800469 414.216000
   2378   2382   2383     1   109.8800469 414.216000
   2378   2382   2384     1   109.8800469 414.216000
   2378   2385   2386     1   109.8800469 414.216000
   2378   2385   2387     1   109.8800469 414.216000
   2379   2391   2392     1   109.8000471 387.438400
   2379   2391   2393     1   109.8000471 387.438400
   2380   2379   2391     1   109.5600471 388.275200
   2380   2379   2381     1   108.4600466 328.025600
   2381   2379   2391     1   109.5600471 388.275200
   2382   2394   2395     1   109.8000471 387.438400
   2382   2394   2396     1   109.8000471 387.438400
   2383   2382   2394     1   109.5600471 388.275200
   2383   2382   2384     1   108.4600466 328.025600
   2384   2382   2394     1   109.5600471 388.275200
   2385   2388   2389     1   109.8000471 387.438400
   2385   2388   2390     1   109.8000471 387.438400
   2386   2385   2388     1   109.5600471 388.275200
   2386   2385   2387     1   108.4600466 328.025600
   2387   2385   2388     1   109.5600471 388.275200
   2388   2397   2398     1   109.5600471 388.275200
   2388   2397   2399     1   109.5600471 388.275200
   2389   2388   2397     1   109.8000471 387.438400
   2389   2388   2390     1   107.5800459 329.699200
   2390   2388   2397     1   109.8000471 387.438400
   2391   2403   2404     1   109.5600471 388.275200
   2391   2403   2405     1   109.5600471 388.275200
   2392   2391   2403     1   109.8000471 387.438400
   2392   2391   2393     1   107.5800459 329.699200
   2393   2391   2403     1   109.8000471 387.438400
   2394   2400   2401     1   109.5600471 388.275200
   2394   2400   2402     1   109.5600471 388.275200
   2395   2394   2400     1   109.8000471 387.438400
   2395   2394   2396     1   107.5800459 329.699200
   2396   2394   2400     1   109.8000471 387.438400
   2398   2397   2406     1   109.7800468 425.094400
   2398   2397   2399     1   108.4600466 328.025600
   2399   2397   2406     1   109.7800468 425.094400
   2401   2400   4186     1   109.7800468 425.094400
   2401   2400   2402     1   108.4600466 328.025600
   2402   2400   4186     1   109.7800468 425.094400
   2404   2403   4199     1   109.7800468 425.094400
   2404   2403   2405     1   108.4600466 328.025600
   2405   2403   4199     1   109.7800468 425.094400
   2407   2408   2409     1   109.8800469 414.216000
   2407   2408   2410     1   109.8800469 414.216000
   2407   2411   2412     1   109.8800469 414.216000
   2407   2411   2413     1   109.8800469 414.216000
   2407   2414   2415     1   109.8800469 414.216000
   2407   2414   2416     1   109.8800469 414.216000
   2408   2420   2421     1   109.8000471 387.438400
   2408   2420   2422     1   109.8000471 387.438400
   2409   2408   2420     1   109.5600471 388.275200
   2409   2408   2410     1   108.4600466 328.025600
   2410   2408   2420     1   109.5600471 388.275200
   2411   2423   2424     1   109.8000471 387.438400
   2411   2423   2425     1   109.8000471 387.438400
   2412   2411   2423     1   109.5600471 388.275200
   2412   2411   2413     1   108.4600466 328.025600
   2413   2411   2423     1   109.5600471 388.275200
   2414   2417   2418     1   109.8000471 387.438400
   2414   2417   2419     1   109.8000471 387.438400
   2415   2414   2417     1   109.5600471 388.275200
   2415   2414   2416     1   108.4600466 328.025600
   2416   2414   2417     1   109.5600471 388.275200
   2417   2426   2427     1   109.5600471 388.275200
   2417   2426   2428     1   109.5600471 388.275200
   2418   2417   2426     1   109.8000471 387.438400
   2418   2417   2419     1   107.5800459 329.699200
   2419   2417   2426     1   109.8000471 387.438400
   2420   2432   2433     1   109.5600471 388.275200
   2420   2432   2434     1   109.5600471 388.275200
   2421   2420   2432     1   109.8000471 387.438400
   2421   2420   2422     1   107.5800459 329.699200
   2422   2420   2432     1   109.8000471 387.438400
   2423   2429   2430     1   109.5600471 388.275200
   2423   2429   2431     1   109.5600471 388.275200
   2424   2423   2429     1   109.8000471 387.438400
   2424   2423   2425     1   107.5800459 329.699200
   2425   2423   2429     1   109.8000471 387.438400
   2427   2426   2435     1   109.7800468 425.094400
   2427   2426   2428     1   108.4600466 328.025600
   2428   2426   2435     1   109.7800468 425.094400
   2430   2429   4212     1   109.7800468 425.094400
   2430   2429   2431     1   108.4600466 328.025600
   2431   2429   4212     1   109.7800468 425.094400
   2433   2432   4225     1   109.7800468 425.094400
   2433   2432   2434     1   108.4600466 328.025600
   2434   2432   4225     1   109.7800468 425.094400
   2436   2437   2438     1   109.8800469 414.216000
   2436   2437   2439     1   109.8800469 414.216000
   2436   2440   2441     1   109.8800469 414.216000
   2436   2440   2442     1   109.8800469 414.216000
   2436   2443   2444     1   109.8800469 414.216000
   2436   2443   2445     1   109.8800469 414.216000
   2437   2449   2450     1   109.8000471 387.438400
   2437   2449   2451     1   109.8000471 387.438400
   2438   2437   2449     1   109.5600471 388.275200
   2438   2437   2439     1   108.4600466 328.025600
   2439   2437   2449     1   109.5600471 388.275200
   2440   2452   2453     1   109.8000471 387.438400
   2440   2452   2454     1   109.8000471 387.438400
   2441   2440   2452     1   109.5600471 388.275200
   2441   2440   2442     1   108.4600466 328.025600
   2442   2440   2452     1   109.5600471 388.275200
   2443   2446   2447     1   109.8000471 387.438400
   2443   2446   2448     1   109.8000471 387.438400
   2444   2443   2446     1   109.5600471 388.275200
   2444   2443   2445     1   108.4600466 328.025600
   2445   2443   2446     1   109.5600471 388.275200
   2446   2455   2456     1   109.5600471 388.275200
   2446   2455   2457     1   109.5600471 388.275200
   2447   2446   2455     1   109.8000471 387.438400
   2447   2446   2448     1   107.5800459 329.699200
   2448   2446   2455     1   109.8000471 387.438400
   2449   2461   2462     1   109.5600471 388.275200
   2449   2461   2463     1   109.5600471 388.275200
   2450   2449   2461     1   109.8000471 387.438400
   2450   2449   2451     1   107.5800459 329.699200
   2451   2449   2461     1   109.8000471 387.438400
   2452   2458   2459     1   109.5600471 388.275200
   2452   2458   2460     1   109.5600471 388.275200
   2453   2452   2458     1   109.8000471 387.438400
   2453   2452   2454     1   107.5800459 329.699200
   2454   2452   2458     1   109.8000471 387.438400
   2456   2455   2464     1   109.7800468 425.094400
   2456   2455   2457     1   108.4600466 328.025600
   2457   2455   2464     1   109.7800468 425.094400
   2459   2458   4238     1   109.7800468 425.094400
   2459   2458   2460     1   108.4600466 328.025600
   2460   2458   4238     1   109.7800468 425.094400
   2462   2461   4251     1   109.7800468 425.094400
   2462   2461   2463     1   108.4600466 328.025600
   2463   2461   4251     1   109.7800468 425.094400
   2465   2466   2467     1   109.8800469 414.216000
   2465   2466   2468     1   109.8800469 414.216000
   2465   2469   2470     1   109.8800469 414.216000
   2465   2469   2471     1   109.8800469 414.216000
   2465   2472   2473     1   109.8800469 414.216000
   2465   2472   2474     1   109.8800469 414.216000
   2466   2478   2479     1   109.8000471 387.438400
   2466   2478   2480     1   109.8000471 387.438400
   2467   2466   2478     1   109.5600471 388.275200
   2467   2466   2468     1   108.4600466 328.025600
   2468   2466   2478     1   109.5600471 388.275200
   2469   2481   2482     1   109.8000471 387.438400
   2469   2481   2483     1   109.8000471 387.438400
   2470   2469   2481     1   109.5600471 388.275200
   2470   2469   2471     1   108.4600466 328.025600
   2471   2469   2481     1   109.5600471 388.275200
   2472   2475   2476     1   109.8000471 387.438400
   2472   2475   2477     1   109.8000471 387.438400
   2473   2472   2475     1   109.5600471 388.275200
   2473   2472   2474     1   108.4600466 328.025600
   2474   2472   2475     1   109.5600471 388.275200
   2475   2484   2485     1   109.5600471 388.275200
   2475   2484   2486     1   109.5600471 388.275200
   2476   2475   2484     1   109.8000471 387.438400
   2476   2475   2477     1   107.5800459 329.699200
   2477   2475   2484     1   109.8000471 387.438400
   2478   2490   2491     1   109.5600471 388.275200
   2478   2490   2492     1   109.5600471 388.275200
   2479   2478   2490     1   109.8000471 387.438400
   2479   2478   2480     1   107.5800459 329.699200
   2480   2478   2490     1   109.8000471 387.438400
   2481   2487   2488     1   109.5600471 388.275200
   2481   2487   2489     1   109.5600471 388.275200
   2482   2481   2487     1   109.8000471 387.438400
   2482   2481   2483     1   107.5800459 329.699200
   2483   2481   2487     1   109.8000471 387.438400
   2485   2484   2493     1   109.7800468 425.094400
   2485   2484   2486     1   108.4600466 328.025600
   2486   2484   2493     1   109.7800468 425.094400
   2488   2487   4264     1   109.7800468 425.094400
   2488   2487   2489     1   108.4600466 328.025600
   2489   2487   4264     1   109.7800468 425.094400
   2491   2490   4277     1   109.7800468 425.094400
   2491   2490   2492     1   108.4600466 328.025600
   2492   2490   4277     1   109.7800468 425.094400
   2494   2495   2496     1   109.8800469 414.216000
   2494   2495   2497     1   109.8800469 414.216000
   2494   2498   2499     1   109.8800469 414.216000
   2494   2498   2500     1   109.8800469 414.216000
   2494   2501   2502     1   109.8800469 414.216000
   2494   2501   2503     1   109.8800469 414.216000
   2495   2507   2508     1   109.8000471 387.438400
   2495   2507   2509     1   109.8000471 387.438400
   2496   2495   2507     1   109.5600471 388.275200
   2496   2495   2497     1   108.4600466 328.025600
   2497   2495   2507     1   109.5600471 388.275200
   2498   2510   2511     1   109.8000471 387.438400
   2498   2510   2512     1   109.8000471 387.438400
   2499   2498   2510     1   109.5600471 388.275200
   2499   2498   2500     1   108.4600466 328.025600
   2500   2498   2510     1   109.5600471 388.275200
   2501   2504   2505     1   109.8000471 387.438400
   2501   2504   2506     1   109.8000471 387.438400
   2502   2501   2504     1   109.5600471 388.275200
   2502   2501   2503     1   108.4600466 328.025600
   2503   2501   2504     1   109.5600471 388.275200
   2504   2513   2514     1   109.5600471 388.275200
   2504   2513   2515     1   109.5600471 388.275200
   2505   2504   2513     1   109.8000471 387.438400
   2505   2504   2506     1   107.5800459 329.699200
   2506   2504   2513     1   109.8000471 387.438400
   2507   2519   2520     1   109.5600471 388.275200
   2507   2519   2521     1   109.5600471 388.275200
   2508   2507   2519     1   109.8000471 387.438400
   2508   2507   2509     1   107.5800459 329.699200
   2509   2507   2519     1   109.8000471 387.438400
   2510   2516   2517     1   109.5600471 388.275200
   2510   2516   2518     1   109.5600471 388.275200
   2511   2510   2516     1   109.8000471 387.438400
   2511   2510   2512     1   107.5800459 329.699200
   2512   2510   2516     1   109.8000471 387.438400
   2514   2513   2522     1   109.7800468 425.094400
   2514   2513   2515     1   108.4600466 328.025600
   2515   2513   2522     1   109.7800468 425.094400
   2517   2516   4290     1   109.7800468 425.094400
   2517   2516   2518     1   108.4600466 328.025600
   2518   2516   4290     1   109.7800468 425.094400
   2520   2519   4303     1   109.7800468 425.094400
   2520   2519   2521     1   108.4600466 328.025600
   2521   2519   4303     1   109.7800468 425.094400
   2523   2524   2525     1   109.8800469 414.216000
   2523   2524   2526     1   109.8800469 414.216000
   2523   2527   2528     1   109.8800469 414.216000
   2523   2527   2529     1   109.8800469 414.216000
   2523   2530   2531     1   109.8800469 414.216000
   2523   2530   2532     1   109.8800469 414.216000
   2524   2536   2537     1   109.8000471 387.438400
   2524   2536   2538     1   109.8000471 387.438400
   2525   2524   2536     1   109.5600471 388.275200
   2525   2524   2526     1   108.4600466 328.025600
   2526   2524   2536     1   109.5600471 388.275200
   2527   2539   2540     1   109.8000471 387.438400
   2527   2539   2541     1   109.8000471 387.438400
   2528   2527   2539     1   109.5600471 388.275200
   2528   2527   2529     1   108.4600466 328.025600
   2529   2527   2539     1   109.5600471 388.275200
   2530   2533   2534     1   109.8000471 387.438400
   2530   2533   2535     1   109.8000471 387.438400
   2531   2530   2533     1   109.5600471 388.275200
   2531   2530   2532     1   108.4600466 328.025600
   2532   2530   2533     1   109.5600471 388.275200
   2533   2542   2543     1   109.5600471 388.275200
   2533   2542   2544     1   109.5600471 388.275200
   2534   2533   2542     1   109.8000471 387.438400
   2534   2533   2535     1   107.5800459 329.699200
   2535   2533   2542     1   109.8000471 387.438400
   2536   2548   2549     1   109.5600471 388.275200
   2536   2548   2550     1   109.5600471 388.275200
   2537   2536   2548     1   109.8000471 387.438400
   2537   2536   2538     1   107.5800459 329.699200
   2538   2536   2548     1   109.8000471 387.438400
   2539   2545   2546     1   109.5600471 388.275200
   2539   2545   2547     1   109.5600471 388.275200
   2540   2539   2545     1   109.8000471 387.438400
   2540   2539   2541     1   107.5800459 329.699200
   2541   2539   2545     1   109.8000471 387.438400
   2543   2542   2551     1   109.7800468 425.094400
   2543   2542   2544     1   108.4600466 328.025600
   2544   2542   2551     1   109.7800468 425.094400
   2546   2545   4316     1   109.7800468 425.094400
   2546   2545   2547     1   108.4600466 328.025600
   2547   2545   4316     1   109.7800468 425.094400
   2549   2548   4329     1   109.7800468 425.094400
   2549   2548   2550     1   108.4600466 328.025600
   2550   2548   4329     1   109.7800468 425.094400
   2552   2553   2554     1   109.8800469 414.216000
   2552   2553   2555     1   109.8800469 414.216000
   2552   2556   2557     1   109.8800469 414.216000
   2552   2556   2558     1   109.8800469 414.216000
   2552   2559   2560     1   109.8800469 414.216000
   2552   2559   2561     1   109.8800469 414.216000
   2553   2565   2566     1   109.8000471 387.438400
   2553   2565   2567     1   109.8000471 387.438400
   2554   2553   2565     1   109.5600471 388.275200
   2554   2553   2555     1   108.4600466 328.025600
   2555   2553   2565     1   109.5600471 388.275200
   2556   2568   2569     1   109.8000471 387.438400
   2556   2568   2570     1   109.8000471 387.438400
   2557   2556   2568     1   109.5600471 388.275200
   2557   2556   2558     1   108.4600466 328.025600
   2558   2556   2568     1   109.5600471 388.275200
   2559   2562   2563     1   109.8000471 387.438400
   2559   2562   2564     1   109.8000471 387.438400
   2560   2559   2562     1   109.5600471 388.275200
   2560   2559   2561     1   108.4600466 328.025600
   2561   2559   2562     1   109.5600471 388.275200
   2562   2571   2572     1   109.5600471 388.275200
   2562   2571   2573     1   109.5600471 388.275200
   2563   2562   2571     1   109.8000471 387.438400
   2563   2562   2564     1   107.5800459 329.699200
   2564   2562   2571     1   109.8000471 387.438400
   2565   2577   2578     1   109.5600471 388.275200
   2565   2577   2579     1   109.5600471 388.275200
   2566   2565   2577     1   109.8000471 387.438400
   2566   2565   2567     1   107.5800459 329.699200
   2567   2565   2577     1   109.8000471 387.438400
   2568   2574   2575     1   109.5600471 388.275200
   2568   2574   2576     1   109.5600471 388.275200
   2569   2568   2574     1   109.8000471 387.438400
   2569   2568   2570     1   107.5800459 329.699200
   2570   2568   2574     1   109.8000471 387.438400
   2572   2571   2580     1   109.7800468 425.094400
   2572   2571   2573     1   108.4600466 328.025600
   2573   2571   2580     1   109.7800468 425.094400
   2575   2574   4342     1   109.7800468 425.094400
   2575   2574   2576     1   108.4600466 328.025600
   2576   2574   4342     1   109.7800468 425.094400
   2578   2577   4355     1   109.7800468 425.094400
   2578   2577   2579     1   108.4600466 328.025600
   2579   2577   4355     1   109.7800468 425.094400
   2581   2582   2583     1   109.8800469 414.216000
   2581   2582   2584     1   109.8800469 414.216000
   2581   2585   2586     1   109.8800469 414.216000
   2581   2585   2587     1   109.8800469 414.216000
   2581   2588   2589     1   109.8800469 414.216000
   2581   2588   2590     1   109.8800469 414.216000
   2582   2594   2595     1   109.8000471 387.438400
   2582   2594   2596     1   109.8000471 387.438400
   2583   2582   2594     1   109.5600471 388.275200
   2583   2582   2584     1   108.4600466 328.025600
   2584   2582   2594     1   109.5600471 388.275200
   2585   2597   2598     1   109.8000471 387.438400
   2585   2597   2599     1   109.8000471 387.438400
   2586   2585   2597     1   109.5600471 388.275200
   2586   2585   2587     1   108.4600466 328.025600
   2587   2585   2597     1   109.5600471 388.275200
   2588   2591   2592     1   109.8000471 387.438400
   2588   2591   2593     1   109.8000471 387.438400
   2589   2588   2591     1   109.5600471 388.275200
   2589   2588   2590     1   108.4600466 328.025600
   2590   2588   2591     1   109.5600471 388.275200
   2591   2600   2601     1   109.5600471 388.275200
   2591   2600   2602     1   109.5600471 388.275200
   2592   2591   2600     1   109.8000471 387.438400
   2592   2591   2593     1   107.5800459 329.699200
   2593   2591   2600     1   109.8000471 387.438400
   2594   2606   2607     1   109.5600471 388.275200
   2594   2606   2608     1   109.5600471 388.275200
   2595   2594   2606     1   109.8000471 387.438400
   2595   2594   2596     1   107.5800459 329.699200
   2596   2594   2606     1   109.8000471 387.438400
   2597   2603   2604     1   109.5600471 388.275200
   2597   2603   2605     1   109.5600471 388.275200
   2598   2597   2603     1   109.8000471 387.438400
   2598   2597   2599     1   107.5800459 329.699200
   2599   2597   2603     1   109.8000471 387.438400
   2601   2600   2609     1   109.7800468 425.094400
   2601   2600   2602     1   108.4600466 328.025600
   2602   2600   2609     1   109.7800468 425.094400
   2604   2603   4368     1   109.7800468 425.094400
   2604   2603   2605     1   108.4600466 328.025600
   2605   2603   4368     1   109.7800468 425.094400
   2607   2606   4381     1   109.7800468 425.094400
   2607   2606   2608     1   108.4600466 328.025600
   2608   2606   4381     1   109.7800468 425.094400
   2610   2611   2612     1   109.8800469 414.216000
   2610   2611   2613     1   109.8800469 414.216000
   2610   2614   2615     1   109.8800469 414.216000
   2610   2614   2616     1   109.8800469 414.216000
   2610   2617   2618     1   109.8800469 414.216000
   2610   2617   2619     1   109.8800469 414.216000
   2611   2623   2624     1   109.8000471 387.438400
   2611   2623   2625     1   109.8000471 387.438400
   2612   2611   2623     1   109.5600471 388.275200
   2612   2611   2613     1   108.4600466 328.025600
   2613   2611   2623     1   109.5600471 388.275200
   2614   2626   2627     1   109.8000471 387.438400
   2614   2626   2628     1   109.8000471 387.438400
   2615   2614   2626     1   109.5600471 388.275200
   2615   2614   2616     1   108.4600466 328.025600
   2616   2614   2626     1   109.5600471 388.275200
   2617   2620   2621     1   109.8000471 387.438400
   2617   2620   2622     1   109.8000471 387.438400
   2618   2617   2620     1   109.5600471 388.275200
   2618   2617   2619     1   108.4600466 328.025600
   2619   2617   2620     1   109.5600471 388.275200
   2620   2629   2630     1   109.5600471 388.275200
   2620   2629   2631     1   109.5600471 388.275200
   2621   2620   2629     1   109.8000471 387.438400
   2621   2620   2622     1   107.5800459 329.699200
   2622   2620   2629     1   109.8000471 387.438400
   2623   2635   2636     1   109.5600471 388.275200
   2623   2635   2637     1   109.5600471 388.275200
   2624   2623   2635     1   109.8000471 387.438400
   2624   2623   2625     1   107.5800459 329.699200
   2625   2623   2635     1   109.8000471 387.438400
   2626   2632   2633     1   109.5600471 388.275200
   2626   2632   2634     1   109.5600471 388.275200
   2627   2626   2632     1   109.8000471 387.438400
   2627   2626   2628     1   107.5800459 329.699200
   2628   2626   2632     1   109.8000471 387.438400
   2630   2629   2638     1   109.7800468 425.094400
   2630   2629   2631     1   108.4600466 328.025600
   2631   2629   2638     1   109.7800468 425.094400
   2633   2632   4394     1   109.7800468 425.094400
   2633   2632   2634     1   108.4600466 328.025600
   2634   2632   4394     1   109.7800468 425.094400
   2636   2635   4407     1   109.7800468 425.094400
   2636   2635   2637     1   108.4600466 328.025600
   2637   2635   4407     1   109.7800468 425.094400
   2639   2640   2641     1   109.8800469 414.216000
   2639   2640   2642     1   109.8800469 414.216000
   2639   2643   2644     1   109.8800469 414.216000
   2639   2643   2645     1   109.8800469 414.216000
   2639   2646   2647     1   109.8800469 414.216000
   2639   2646   2648     1   109.8800469 414.216000
   2640   2652   2653     1   109.8000471 387.438400
   2640   2652   2654     1   109.8000471 387.438400
   2641   2640   2652     1   109.5600471 388.275200
   2641   2640   2642     1   108.4600466 328.025600
   2642   2640   2652     1   109.5600471 388.275200
   2643   2655   2656     1   109.8000471 387.438400
   2643   2655   2657     1   109.8000471 387.438400
   2644   2643   2655     1   109.5600471 388.275200
   2644   2643   2645     1   108.4600466 328.025600
   2645   2643   2655     1   109.5600471 388.275200
   2646   2649   2650     1   109.8000471 387.438400
   2646   2649   2651     1   109.8000471 387.438400
   2647   2646   2649     1   109.5600471 388.275200
   2647   2646   2648     1   108.4600466 328.025600
   2648   2646   2649     1   109.5600471 388.275200
   2649   2658   2659     1   109.5600471 388.275200
   2649   2658   2660     1   109.5600471 388.275200
   2650   2649   2658     1   109.8000471 387.438400
   2650   2649   2651     1   107.5800459 329.699200
   2651   2649   2658     1   109.8000471 387.438400
   2652   2664   2665     1   109.5600471 388.275200
   2652   2664   2666     1   109.5600471 388.275200
   2653   2652   2664     1   109.8000471 387.438400
   2653   2652   2654     1   107.5800459 329.699200
   2654   2652   2664     1   109.8000471 387.438400
   2655   2661   2662     1   109.5600471 388.275200
   2655   2661   2663     1   109.5600471 388.275200
   2656   2655   2661     1   109.8000471 387.438400
   2656   2655   2657     1   107.5800459 329.699200
   2657   2655   2661     1   109.8000471 387.438400
   2659   2658   2667     1   109.7800468 425.094400
   2659   2658   2660     1   108.4600466 328.025600
   2660   2658   2667     1   109.7800468 425.094400
   2662   2661   4420     1   109.7800468 425.094400
   2662   2661   2663     1   108.4600466 328.025600
   2663   2661   4420     1   109.7800468 425.094400
   2665   2664   4433     1   109.7800468 425.094400
   2665   2664   2666     1   108.4600466 328.025600
   2666   2664   4433     1   109.7800468 425.094400
   2668   2669   2670     1   109.8800469 414.216000
   2668   2669   2671     1   109.8800469 414.216000
   2668   2672   2673     1   109.8800469 414.216000
   2668   2672   2674     1   109.8800469 414.216000
   2668   2675   2676     1   109.8800469 414.216000
   2668   2675   2677     1   109.8800469 414.216000
   2669   2681   2682     1   109.8000471 387.438400
   2669   2681   2683     1   109.8000471 387.438400
   2670   2669   2681     1   109.5600471 388.275200
   2670   2669   2671     1   108.4600466 328.025600
   2671   2669   2681     1   109.5600471 388.275200
   2672   2684   2685     1   109.8000471 387.438400
   2672   2684   2686     1   109.8000471 387.438400
   2673   2672   2684     1   109.5600471 388.275200
   2673   2672   2674     1   108.4600466 328.025600
   2674   2672   2684     1   109.5600471 388.275200
   2675   2678   2679     1   109.8000471 387.438400
   2675   2678   2680     1   109.8000471 387.438400
   2676   2675   2678     1   109.5600471 388.275200
   2676   2675   2677     1   108.4600466 328.025600
   2677   2675   2678     1   109.5600471 388.275200
   2678   2687   2688     1   109.5600471 388.275200
   2678   2687   2689     1   109.5600471 388.275200
   2679   2678   2687     1   109.8000471 387.438400
   2679   2678   2680     1   107.5800459 329.699200
   2680   2678   2687     1   109.8000471 387.438400
   2681   2693   2694     1   109.5600471 388.275200
   2681   2693   2695     1   109.5600471 388.275200
   2682   2681   2693     1   109.8000471 387.438400
   2682   2681   2683     1   107.5800459 329.699200
   2683   2681   2693     1   109.8000471 387.438400
   2684   2690   2691     1   109.5600471 388.275200
   2684   2690   2692     1   109.5600471 388.275200
   2685   2684   2690     1   109.8000471 387.438400
   2685   2684   2686     1   107.5800459 329.699200
   2686   2684   2690     1   109.8000471 387.438400
   2688   2687   2696     1   109.7800468 425.094400
   2688   2687   2689     1   108.4600466 328.025600
   2689   2687   2696     1   109.7800468 425.094400
   2691   2690   4446     1   109.7800468 425.094400
   2691   2690   2692     1   108.4600466 328.025600
   2692   2690   4446     1   109.7800468 425.094400
   2694   2693   4459     1   109.7800468 425.094400
   2694   2693   2695     1   108.4600466 328.025600
   2695   2693   4459     1   109.7800468 425.094400
   2697   2698   2699     1   109.8800469 414.216000
   2697   2698   2700     1   109.8800469 414.216000
   2697   2701   2702     1   109.8800469 414.216000
   2697   2701   2703     1   109.8800469 414.216000
   2697   2704   2705     1   109.8800469 414.216000
   2697   2704   2706     1   109.8800469 414.216000
   2698   2710   2711     1   109.8000471 387.438400
   2698   2710   2712     1   109.8000471 387.438400
   2699   2698   2710     1   109.5600471 388.275200
   2699   2698   2700     1   108.4600466 328.025600
   2700   2698   2710     1   109.5600471 388.275200
   2701   2713   2714     1   109.8000471 387.438400
   2701   2713   2715     1   109.8000471 387.438400
   2702   2701   2713     1   109.5600471 388.275200
   2702   2701   2703     1   108.4600466 328.025600
   2703   2701   2713     1   109.5600471 388.275200
   2704   2707   2708     1   109.8000471 387.438400
   2704   2707   2709     1   109.8000471 387.438400
   2705   2704   2707     1   109.5600471 388.275200
   2705   2704   2706     1   108.4600466 328.025600
   2706   2704   2707     1   109.5600471 388.275200
   2707   2716   2717     1   109.5600471 388.275200
   2707   2716   2718     1   109.5600471 388.275200
   2708   2707   2716     1   109.8000471 387.438400
   2708   2707   2709     1   107.5800459 329.699200
   2709   2707   2716     1   109.8000471 387.438400
   2710   2722   2723     1   109.5600471 388.275200
   2710   2722   2724     1   109.5600471 388.275200
   2711   2710   2722     1   109.8000471 387.438400
   2711   2710   2712     1   107.5800459 329.699200
   2712   2710   2722     1   109.8000471 387.438400
   2713   2719   2720     1   109.5600471 388.275200
   2713   2719   2721     1   109.5600471 388.275200
   2714   2713   2719     1   109.8000471 387.438400
   2714   2713   2715     1   107.5800459 329.699200
   2715   2713   2719     1   109.8000471 387.438400
   2717   2716   2725     1   109.7800468 425.094400
   2717   2716   2718     1   108.4600466 328.025600
   2718   2716   2725     1   109.7800468 425.094400
   2720   2719   4472     1   109.7800468 425.094400
   2720   2719   2721     1   108.4600466 328.025600
   2721   2719   4472     1   109.7800468 425.094400
   2723   2722   4485     1   109.7800468 425.094400
   2723   2722   2724     1   108.4600466 328.025600
   2724   2722   4485     1   109.7800468 425.094400
   2726   2727   2728     1   109.8800469 414.216000
   2726   2727   2729     1   109.8800469 414.216000
   2726   2730   2731     1   109.8800469 414.216000
   2726   2730   2732     1   109.8800469 414.216000
   2726   2733   2734     1   109.8800469 414.216000
   2726   2733   2735     1   109.8800469 414.216000
   2727   2739   2740     1   109.8000471 387.438400
   2727   2739   2741     1   109.8000471 387.438400
   2728   2727   2739     1   109.5600471 388.275200
   2728   2727   2729     1   108.4600466 328.025600
   2729   2727   2739     1   109.5600471 388.275200
   2730   2742   2743     1   109.8000471 387.438400
   2730   2742   2744     1   109.8000471 387.438400
   2731   2730   2742     1   109.5600471 388.275200
   2731   2730   2732     1   108.4600466 328.025600
   2732   2730   2742     1   109.5600471 388.275200
   2733   2736   2737     1   109.8000471 387.438400
   2733   2736   2738     1   109.8000471 387.438400
   2734   2733   2736     1   109.5600471 388.275200
   2734   2733   2735     1   108.4600466 328.025600
   2735   2733   2736     1   109.5600471 388.275200
   2736   2745   2746     1   109.5600471 388.275200
   2736   2745   2747     1   109.5600471 388.275200
   2737   2736   2745     1   109.8000471 387.438400
   2737   2736   2738     1   107.5800459 329.699200
   2738   2736   2745     1   109.8000471 387.438400
   2739   2751   2752     1   109.5600471 388.275200
   2739   2751   2753     1   109.5600471 388.275200
   2740   2739   2751     1   109.8000471 387.438400
   2740   2739   2741     1   107.5800459 329.699200
   2741   2739   2751     1   109.8000471 387.438400
   2742   2748   2749     1   109.5600471 388.275200
   2742   2748   2750     1   109.5600471 388.275200
   2743   2742   2748     1   109.8000471 387.438400
   2743   2742   2744     1   107.5800459 329.699200
   2744   2742   2748     1   109.8000471 387.438400
   2746   2745   2754     1   109.7800468 425.094400
   2746   2745   2747     1   108.4600466 328.025600
   2747   2745   2754     1   109.7800468 425.094400
   2749   2748   4498     1   109.7800468 425.094400
   2749   2748   2750     1   108.4600466 328.025600
   2750   2748   4498     1   109.7800468 425.094400
   2752   2751   4511     1   109.7800468 425.094400
   2752   2751   2753     1   108.4600466 328.025600
   2753   2751   4511     1   109.7800468 425.094400
   2755   2756   2757     1   109.8800469 414.216000
   2755   2756   2758     1   109.8800469 414.216000
   2755   2759   2760     1   109.8800469 414.216000
   2755   2759   2761     1   109.8800469 414.216000
   2755   2762   2763     1   109.8800469 414.216000
   2755   2762   2764     1   109.8800469 414.216000
   2756   2768   2769     1   109.8000471 387.438400
   2756   2768   2770     1   109.8000471 387.438400
   2757   2756   2768     1   109.5600471 388.275200
   2757   2756   2758     1   108.4600466 328.025600
   2758   2756   2768     1   109.5600471 388.275200
   2759   2771   2772     1   109.8000471 387.438400
   2759   2771   2773     1   109.8000471 387.438400
   2760   2759   2771     1   109.5600471 388.275200
   2760   2759   2761     1   108.4600466 328.025600
   2761   2759   2771     1   109.5600471 388.275200
   2762   2765   2766     1   109.8000471 387.438400
   2762   2765   2767     1   109.8000471 387.438400
   2763   2762   2765     1   109.5600471 388.275200
   2763   2762   2764     1   108.4600466 328.025600
   2764   2762   2765     1   109.5600471 388.275200
   2765   2774   2775     1   109.5600471 388.275200
   2765   2774   2776     1   109.5600471 388.275200
   2766   2765   2774     1   109.8000471 387.438400
   2766   2765   2767     1   107.5800459 329.699200
   2767   2765   2774     1   109.8000471 387.438400
   2768   2780   2781     1   109.5600471 388.275200
   2768   2780   2782     1   109.5600471 388.275200
   2769   2768   2780     1   109.8000471 387.438400
   2769   2768   2770     1   107.5800459 329.699200
   2770   2768   2780     1   109.8000471 387.438400
   2771   2777   2778     1   109.5600471 388.275200
   2771   2777   2779     1   109.5600471 388.275200
   2772   2771   2777     1   109.8000471 387.438400
   2772   2771   2773     1   107.5800459 329.699200
   2773   2771   2777     1   109.8000471 387.438400
   2775   2774   2783     1   109.7800468 425.094400
   2775   2774   2776     1   108.4600466 328.025600
   2776   2774   2783     1   109.7800468 425.094400
   2778   2777   4524     1   109.7800468 425.094400
   2778   2777   2779     1   108.4600466 328.025600
   2779   2777   4524     1   109.7800468 425.094400
   2781   2780   4537     1   109.7800468 425.094400
   2781   2780   2782     1   108.4600466 328.025600
   2782   2780   4537     1   109.7800468 425.094400
   2784   2785   2786     1   109.8800469 414.216000
   2784   2785   2787     1   109.8800469 414.216000
   2784   2788   2789     1   109.8800469 414.216000
   2784   2788   2790     1   109.8800469 414.216000
   2784   2791   2792     1   109.8800469 414.216000
   2784   2791   2793     1   109.8800469 414.216000
   2785   2797   2798     1   109.8000471 387.438400
   2785   2797   2799     1   109.8000471 387.438400
   2786   2785   2797     1   109.5600471 388.275200
   2786   2785   2787     1   108.4600466 328.025600
   2787   2785   2797     1   109.5600471 388.275200
   2788   2800   2801     1   109.8000471 387.438400
   2788   2800   2802     1   109.8000471 387.438400
   2789   2788   2800     1   109.5600471 388.275200
   2789   2788   2790     1   108.4600466 328.025600
   2790   2788   2800     1   109.5600471 388.275200
   2791   2794   2795     1   109.8000471 387.438400
   2791   2794   2796     1   109.8000471 387.438400
   2792   2791   2794     1   109.5600471 388.275200
   2792   2791   2793     1   108.4600466 328.025600
   2793   2791   2794     1   109.5600471 388.275200
   2794   2803   2804     1   109.5600471 388.275200
   2794   2803   2805     1   109.5600471 388.275200
   2795   2794   2803     1   109.8000471 387.438400
   2795   2794   2796     1   107.5800459 329.699200
   2796   2794   2803     1   109.8000471 387.438400
   2797   2809   2810     1   109.5600471 388.275200
   2797   2809   2811     1   109.5600471 388.275200
   2798   2797   2809     1   109.8000471 387.438400
   2798   2797   2799     1   107.5800459 329.699200
   2799   2797   2809     1   109.8000471 387.438400
   2800   2806   2807     1   109.5600471 388.275200
   2800   2806   2808     1   109.5600471 388.275200
   2801   2800   2806     1   109.8000471 387.438400
   2801   2800   2802     1   107.5800459 329.699200
   2802   2800   2806     1   109.8000471 387.438400
   2804   2803   2812     1   109.7800468 425.094400
   2804   2803   2805     1   108.4600466 328.025600
   2805   2803   2812     1   109.7800468 425.094400
   2807   2806   4550     1   109.7800468 425.094400
   2807   2806   2808     1   108.4600466 328.025600
   2808   2806   4550     1   109.7800468 425.094400
   2810   2809   4563     1   109.7800468 425.094400
   2810   2809   2811     1   108.4600466 328.025600
   2811   2809   4563     1   109.7800468 425.094400
   2813   2814   2815     1   109.8800469 414.216000
   2813   2814   2816     1   109.8800469 414.216000
   2813   2817   2818     1   109.8800469 414.216000
   2813   2817   2819     1   109.8800469 414.216000
   2813   2820   2821     1   109.8800469 414.216000
   2813   2820   2822     1   109.8800469 414.216000
   2814   2826   2827     1   109.8000471 387.438400
   2814   2826   2828     1   109.8000471 387.438400
   2815   2814   2826     1   109.5600471 388.275200
   2815   2814   2816     1   108.4600466 328.025600
   2816   2814   2826     1   109.5600471 388.275200
   2817   2829   2830     1   109.8000471 387.438400
   2817   2829   2831     1   109.8000471 387.438400
   2818   2817   2829     1   109.5600471 388.275200
   2818   2817   2819     1   108.4600466 328.025600
   2819   2817   2829     1   109.5600471 388.275200
   2820   2823   2824     1   109.8000471 387.438400
   2820   2823   2825     1   109.8000471 387.438400
   2821   2820   2823     1   109.5600471 388.275200
   2821   2820   2822     1   108.4600466 328.025600
   2822   2820   2823     1   109.5600471 388.275200
   2823   2832   2833     1   109.5600471 388.275200
   2823   2832   2834     1   109.5600471 388.275200
   2824   2823   2832     1   109.8000471 387.438400
   2824   2823   2825     1   107.5800459 329.699200
   2825   2823   2832     1   109.8000471 387.438400
   2826   2838   2839     1   109.5600471 388.275200
   2826   2838   2840     1   109.5600471 388.275200
   2827   2826   2838     1   109.8000471 387.438400
   2827   2826   2828     1   107.5800459 329.699200
   2828   2826   2838     1   109.8000471 387.438400
   2829   2835   2836     1   109.5600471 388.275200
   2829   2835   2837     1   109.5600471 388.275200
   2830   2829   2835     1   109.8000471 387.438400
   2830   2829   2831     1   107.5800459 329.699200
   2831   2829   2835     1   109.8000471 387.438400
   2833   2832   2841     1   109.7800468 425.094400
   2833   2832   2834     1   108.4600466 328.025600
   2834   2832   2841     1   109.7800468 425.094400
   2836   2835   4576     1   109.7800468 425.094400
   2836   2835   2837     1   108.4600466 328.025600
   2837   2835   4576     1   109.7800468 425.094400
   2839   2838   4589     1   109.7800468 425.094400
   2839   2838   2840     1   108.4600466 328.025600
   2840   2838   4589     1   109.7800468 425.094400
   2842   2843   2844     1   109.8800469 414.216000
   2842   2843   2845     1   109.8800469 414.216000
   2842   2846   2847     1   109.8800469 414.216000
   2842   2846   2848     1   109.8800469 414.216000
   2842   2849   2850     1   109.8800469 414.216000
   2842   2849   2851     1   109.8800469 414.216000
   2843   2855   2856     1   109.8000471 387.438400
   2843   2855   2857     1   109.8000471 387.438400
   2844   2843   2855     1   109.5600471 388.275200
   2844   2843   2845     1   108.4600466 328.025600
   2845   2843   2855     1   109.5600471 388.275200
   2846   2858   2859     1   109.8000471 387.438400
   2846   2858   2860     1   109.8000471 387.438400
   2847   2846   2858     1   109.5600471 388.275200
   2847   2846   2848     1   108.4600466 328.025600
   2848   2846   2858     1   109.5600471 388.275200
   2849   2852   2853     1   109.8000471 387.438400
   2849   2852   2854     1   109.8000471 387.438400
   2850   2849   2852     1   109.5600471 388.275200
   2850   2849   2851     1   108.4600466 328.025600
   2851   2849   2852     1   109.5600471 388.275200
   2852   2861   2862     1   109.5600471 388.275200
   2852   2861   2863     1   109.5600471 388.275200
   2853   2852   2861     1   109.8000471 387.438400
   2853   2852   2854     1   107.5800459 329.699200
   2854   2852   2861     1   109.8000471 387.438400
   2855   2867   2868     1   109.5600471 388.275200
   2855   2867   2869     1   109.5600471 388.275200
   2856   2855   2867     1   109.8000471 387.438400
   2856   2855   2857     1   107.5800459 329.699200
   2857   2855   2867     1   109.8000471 387.438400
   2858   2864   2865     1   109.5600471 388.275200
   2858   2864   2866     1   109.5600471 388.275200
   2859   2858   2864     1   109.8000471 387.438400
   2859   2858   2860     1   107.5800459 329.699200
   2860   2858   2864     1   109.8000471 387.438400
   2862   2861   2870     1   109.7800468 425.094400
   2862   2861   2863     1   108.4600466 328.025600
   2863   2861   2870     1   109.7800468 425.094400
   2865   2864   4602     1   109.7800468 425.094400
   2865   2864   2866     1   108.4600466 328.025600
   2866   2864   4602     1   109.7800468 425.094400
   2868   2867   4615     1   109.7800468 425.094400
   2868   2867   2869     1   108.4600466 328.025600
   2869   2867   4615     1   109.7800468 425.094400
   2871   2872   2873     1   109.8800469 414.216000
   2871   2872   2874     1   109.8800469 414.216000
   2871   2875   2876     1   109.8800469 414.216000
   2871   2875   2877     1   109.8800469 414.216000
   2871   2878   2879     1   109.8800469 414.216000
   2871   2878   2880     1   109.8800469 414.216000
   2872   2884   2885     1   109.8000471 387.438400
   2872   2884   2886     1   109.8000471 387.438400
   2873   2872   2884     1   109.5600471 388.275200
   2873   2872   2874     1   108.4600466 328.025600
   2874   2872   2884     1   109.5600471 388.275200
   2875   2887   2888     1   109.8000471 387.438400
   2875   2887   2889     1   109.8000471 387.438400
   2876   2875   2887     1   109.5600471 388.275200
   2876   2875   2877     1   108.4600466 328.025600
   2877   2875   2887     1   109.5600471 388.275200
   2878   2881   2882     1   109.8000471 387.438400
   2878   2881   2883     1   109.8000471 387.438400
   2879   2878   2881     1   109.5600471 388.275200
   2879   2878   2880     1   108.4600466 328.025600
   2880   2878   2881     1   109.5600471 388.275200
   2881   2890   2891     1   109.5600471 388.275200
   2881   2890   2892     1   109.5600471 388.275200
   2882   2881   2890     1   109.8000471 387.438400
   2882   2881   2883     1   107.5800459 329.699200
   2883   2881   2890     1   109.8000471 387.438400
   2884   2896   2897     1   109.5600471 388.275200
   2884   2896   2898     1   109.5600471 388.275200
   2885   2884   2896     1   109.8000471 387.438400
   2885   2884   2886     1   107.5800459 329.699200
   2886   2884   2896     1   109.8000471 387.438400
   2887   2893   2894     1   109.5600471 388.275200
   2887   2893   2895     1   109.5600471 388.275200
   2888   2887   2893     1   109.8000471 387.438400
   2888   2887   2889     1   107.5800459 329.699200
   2889   2887   2893     1   109.8000471 387.438400
   2891   2890   2899     1   109.7800468 425.094400
   2891   2890   2892     1   108.4600466 328.025600
   2892   2890   2899     1   109.7800468 425.094400
   2894   2893   4628     1   109.7800468 425.094400
   2894   2893   2895     1   108.4600466 328.025600
   2895   2893   4628     1   109.7800468 425.094400
   2897   2896   4641     1   109.7800468 425.094400
   2897   2896   2898     1   108.4600466 328.025600
   2898   2896   4641     1   109.7800468 425.094400
   2900   2901   2902     1   109.8800469 414.216000
   2900   2901   2903     1   109.8800469 414.216000
   2900   2904   2905     1   109.8800469 414.216000
   2900   2904   2906     1   109.8800469 414.216000
   2900   2907   2908     1   109.8800469 414.216000
   2900   2907   2909     1   109.8800469 414.216000
   2901   2913   2914     1   109.8000471 387.438400
   2901   2913   2915     1   109.8000471 387.438400
   2902   2901   2913     1   109.5600471 388.275200
   2902   2901   2903     1   108.4600466 328.025600
   2903   2901   2913     1   109.5600471 388.275200
   2904   2916   2917     1   109.8000471 387.438400
   2904   2916   2918     1   109.8000471 387.438400
   2905   2904   2916     1   109.5600471 388.275200
   2905   2904   2906     1   108.4600466 328.025600
   2906   2904   2916     1   109.5600471 388.275200
   2907   2910   2911     1   109.8000471 387.438400
   2907   2910   2912     1   109.8000471 387.438400
   2908   2907   2910     1   109.5600471 388.275200
   2908   2907   2909     1   108.4600466 328.025600
   2909   2907   2910     1   109.5600471 388.275200
   2910   2919   2920     1   109.5600471 388.275200
   2910   2919   2921     1   109.5600471 388.275200
   2911   2910   2919     1   109.8000471 387.438400
   2911   2910   2912     1   107.5800459 329.699200
   2912   2910   2919     1   109.8000471 387.438400
   2913   2925   2926     1   109.5600471 388.275200
   2913   2925   2927     1   109.5600471 388.275200
   2914   2913   2925     1   109.8000471 387.438400
   2914   2913   2915     1   107.5800459 329.699200
   2915   2913   2925     1   109.8000471 387.438400
   2916   2922   2923     1   109.5600471 388.275200
   2916   2922   2924     1   109.5600471 388.275200
   2917   2916   2922     1   109.8000471 387.438400
   2917   2916   2918     1   107.5800459 329.699200
   2918   2916   2922     1   109.8000471 387.438400
   2920   2919   2928     1   109.7800468 425.094400
   2920   2919   2921     1   108.4600466 328.025600
   2921   2919   2928     1   109.7800468 425.094400
   2923   2922   4654     1   109.7800468 425.094400
   2923   2922   2924     1   108.4600466 328.025600
   2924   2922   4654     1   109.7800468 425.094400
   2926   2925   4667     1   109.7800468 425.094400
   2926   2925   2927     1   108.4600466 328.025600
   2927   2925   4667     1   109.7800468 425.094400
   2929   2930   2931     1   109.8800469 414.216000
   2929   2930   2932     1   109.8800469 414.216000
   2929   2933   2934     1   109.8800469 414.216000
   2929   2933   2935     1   109.8800469 414.216000
   2929   2936   2937     1   109.8800469 414.216000
   2929   2936   2938     1   109.8800469 414.216000
   2930   2942   2943     1   109.8000471 387.438400
   2930   2942   2944     1   109.8000471 387.438400
   2931   2930   2942     1   109.5600471 388.275200
   2931   2930   2932     1   108.4600466 328.025600
   2932   2930   2942     1   109.5600471 388.275200
   2933   2945   2946     1   109.8000471 387.438400
   2933   2945   2947     1   109.8000471 387.438400
   2934   2933   2945     1   109.5600471 388.275200
   2934   2933   2935     1   108.4600466 328.025600
   2935   2933   2945     1   109.5600471 388.275200
   2936   2939   2940     1   109.8000471 387.438400
   2936   2939   2941     1   109.8000471 387.438400
   2937   2936   2939     1   109.5600471 388.275200
   2937   2936   2938     1   108.4600466 328.025600
   2938   2936   2939     1   109.5600471 388.275200
   2939   2948   2949     1   109.5600471 388.275200
   2939   2948   2950     1   109.5600471 388.275200
   2940   2939   2948     1   109.8000471 387.438400
   2940   2939   2941     1   107.5800459 329.699200
   2941   2939   2948     1   109.8000471 387.438400
   2942   2954   2955     1   109.5600471 388.275200
   2942   2954   2956     1   109.5600471 388.275200
   2943   2942   2954     1   109.8000471 387.438400
   2943   2942   2944     1   107.5800459 329.699200
   2944   2942   2954     1   109.8000471 387.438400
   2945   2951   2952     1   109.5600471 388.275200
   2945   2951   2953     1   109.5600471 388.275200
   2946   2945   2951     1   109.8000471 387.438400
   2946   2945   2947     1   107.5800459 329.699200
   2947   2945   2951     1   109.8000471 387.438400
   2949   2948   2957     1   109.7800468 425.094400
   2949   2948   2950     1   108.4600466 328.025600
   2950   2948   2957     1   109.7800468 425.094400
   2952   2951   4680     1   109.7800468 425.094400
   2952   2951   2953     1   108.4600466 328.025600
   2953   2951   4680     1   109.7800468 425.094400
   2955   2954   4693     1   109.7800468 425.094400
   2955   2954   2956     1   108.4600466 328.025600
   2956   2954   4693     1   109.7800468 425.094400
   2958   2959   2960     1   109.8800469 414.216000
   2958   2959   2961     1   109.8800469 414.216000
   2958   2962   2963     1   109.8800469 414.216000
   2958   2962   2964     1   109.8800469 414.216000
   2958   2965   2966     1   109.8800469 414.216000
   2958   2965   2967     1   109.8800469 414.216000
   2959   2971   2972     1   109.8000471 387.438400
   2959   2971   2973     1   109.8000471 387.438400
   2960   2959   2971     1   109.5600471 388.275200
   2960   2959   2961     1   108.4600466 328.025600
   2961   2959   2971     1   109.5600471 388.275200
   2962   2974   2975     1   109.8000471 387.438400
   2962   2974   2976     1   109.8000471 387.438400
   2963   2962   2974     1   109.5600471 388.275200
   2963   2962   2964     1   108.4600466 328.025600
   2964   2962   2974     1   109.5600471 388.275200
   2965   2968   2969     1   109.8000471 387.438400
   2965   2968   2970     1   109.8000471 387.438400
   2966   2965   2968     1   109.5600471 388.275200
   2966   2965   2967     1   108.4600466 328.025600
   2967   2965   2968     1   109.5600471 388.275200
   2968   2977   2978     1   109.5600471 388.275200
   2968   2977   2979     1   109.5600471 388.275200
   2969   2968   2977     1   109.8000471 387.438400
   2969   2968   2970     1   107.5800459 329.699200
   2970   2968   2977     1   109.8000471 387.438400
   2971   2983   2984     1   109.5600471 388.275200
   2971   2983   2985     1   109.5600471 388.275200
   2972   2971   2983     1   109.8000471 387.438400
   2972   2971   2973     1   107.5800459 329.699200
   2973   2971   2983     1   109.8000471 387.438400
   2974   2980   2981     1   109.5600471 388.275200
   2974   2980   2982     1   109.5600471 388.275200
   2975   2974   2980     1   109.8000471 387.438400
   2975   2974   2976     1   107.5800459 329.699200
   2976   2974   2980     1   109.8000471 387.438400
   2978   2977   2986     1   109.7800468 425.094400
   2978   2977   2979     1   108.4600466 328.025600
   2979   2977   2986     1   109.7800468 425.094400
   2981   2980   4706     1   109.7800468 425.094400
   2981   2980   2982     1   108.4600466 328.025600
   2982   2980   4706     1   109.7800468 425.094400
   2984   2983   4719     1   109.7800468 425.094400
   2984   2983   2985     1   108.4600466 328.025600
   2985   2983   4719     1   109.7800468 425.094400
   2987   2988   2989     1   109.8800469 414.216000
   2987   2988   2990     1   109.8800469 414.216000
   2987   2991   2992     1   109.8800469 414.216000
   2987   2991   2993     1   109.8800469 414.216000
   2987   2994   2995     1   109.8800469 414.216000
   2987   2994   2996     1   109.8800469 414.216000
   2988   3000   3001     1   109.8000471 387.438400
   2988   3000   3002     1   109.8000471 387.438400
   2989   2988   3000     1   109.5600471 388.275200
   2989   2988   2990     1   108.4600466 328.025600
   2990   2988   3000     1   109.5600471 388.275200
   2991   3003   3004     1   109.8000471 387.438400
   2991   3003   3005     1   109.8000471 387.438400
   2992   2991   3003     1   109.5600471 388.275200
   2992   2991   2993     1   108.4600466 328.025600
   2993   2991   3003     1   109.5600471 388.275200
   2994   2997   2998     1   109.8000471 387.438400
   2994   2997   2999     1   109.8000471 387.438400
   2995   2994   2997     1   109.5600471 388.275200
   2995   2994   2996     1   108.4600466 328.025600
   2996   2994   2997     1   109.5600471 388.275200
   2997   3006   3007     1   109.5600471 388.275200
   2997   3006   3008     1   109.5600471 388.275200
   2998   2997   3006     1   109.8000471 387.438400
   2998   2997   2999     1   107.5800459 329.699200
   2999   2997   3006     1   109.8000471 387.438400
   3000   3012   3013     1   109.5600471 388.275200
   3000   3012   3014     1   109.5600471 388.275200
   3001   3000   3012     1   109.8000471 387.438400
   3001   3000   3002     1   107.5800459 329.699200
   3002   3000   3012     1   109.8000471 387.438400
   3003   3009   3010     1   109.5600471 388.275200
   3003   3009   3011     1   109.5600471 388.275200
   3004   3003   3009     1   109.8000471 387.438400
   3004   3003   3005     1   107.5800459 329.699200
   3005   3003   3009     1   109.8000471 387.438400
   3007   3006   3015     1   109.7800468 425.094400
   3007   3006   3008     1   108.4600466 328.025600
   3008   3006   3015     1   109.7800468 425.094400
   3010   3009   4732     1   109.7800468 425.094400
   3010   3009   3011     1   108.4600466 328.025600
   3011   3009   4732     1   109.7800468 425.094400
   3013   3012   4745     1   109.7800468 425.094400
   3013   3012   3014     1   108.4600466 328.025600
   3014   3012   4745     1   109.7800468 425.094400
   3016   3017   3018     1   109.8800469 414.216000
   3016   3017   3019     1   109.8800469 414.216000
   3016   3020   3021     1   109.8800469 414.216000
   3016   3020   3022     1   109.8800469 414.216000
   3016   3023   3024     1   109.8800469 414.216000
   3016   3023   3025     1   109.8800469 414.216000
   3017   3029   3030     1   109.8000471 387.438400
   3017   3029   3031     1   109.8000471 387.438400
   3018   3017   3029     1   109.5600471 388.275200
   3018   3017   3019     1   108.4600466 328.025600
   3019   3017   3029     1   109.5600471 388.275200
   3020   3032   3033     1   109.8000471 387.438400
   3020   3032   3034     1   109.8000471 387.438400
   3021   3020   3032     1   109.5600471 388.275200
   3021   3020   3022     1   108.4600466 328.025600
   3022   3020   3032     1   109.5600471 388.275200
   3023   3026   3027     1   109.8000471 387.438400
   3023   3026   3028     1   109.8000471 387.438400
   3024   3023   3026     1   109.5600471 388.275200
   3024   3023   3025     1   108.4600466 328.025600
   3025   3023   3026     1   109.5600471 388.275200
   3026   3035   3036     1   109.5600471 388.275200
   3026   3035   3037     1   109.5600471 388.275200
   3027   3026   3035     1   109.8000471 387.438400
   3027   3026   3028     1   107.5800459 329.699200
   3028   3026   3035     1   109.8000471 387.438400
   3029   3041   3042     1   109.5600471 388.275200
   3029   3041   3043     1   109.5600471 388.275200
   3030   3029   3041     1   109.8000471 387.438400
   3030   3029   3031     1   107.5800459 329.699200
   3031   3029   3041     1   109.8000471 387.438400
   3032   3038   3039     1   109.5600471 388.275200
   3032   3038   3040     1   109.5600471 388.275200
   3033   3032   3038     1   109.8000471 387.438400
   3033   3032   3034     1   107.5800459 329.699200
   3034   3032   3038     1   109.8000471 387.438400
   3036   3035   3044     1   109.7800468 425.094400
   3036   3035   3037     1   108.4600466 328.025600
   3037   3035   3044     1   109.7800468 425.094400
   3039   3038   4758     1   109.7800468 425.094400
   3039   3038   3040     1   108.4600466 328.025600
   3040   3038   4758     1   109.7800468 425.094400
   3042   3041   4771     1   109.7800468 425.094400
   3042   3041   3043     1   108.4600466 328.025600
   3043   3041   4771     1   109.7800468 425.094400
   3045   3046   3047     1   109.8800469 414.216000
   3045   3046   3048     1   109.8800469 414.216000
   3045   3049   3050     1   109.8800469 414.216000
   3045   3049   3051     1   109.8800469 414.216000
   3045   3052   3053     1   109.8800469 414.216000
   3045   3052   3054     1   109.8800469 414.216000
   3046   3058   3059     1   109.8000471 387.438400
   3046   3058   3060     1   109.8000471 387.438400
   3047   3046   3058     1   109.5600471 388.275200
   3047   3046   3048     1   108.4600466 328.025600
   3048   3046   3058     1   109.5600471 388.275200
   3049   3061   3062     1   109.8000471 387.438400
   3049   3061   3063     1   109.8000471 387.438400
   3050   3049   3061     1   109.5600471 388.275200
   3050   3049   3051     1   108.4600466 328.025600
   3051   3049   3061     1   109.5600471 388.275200
   3052   3055   3056     1   109.8000471 387.438400
   3052   3055   3057     1   109.8000471 387.438400
   3053   3052   3055     1   109.5600471 388.275200
   3053   3052   3054     1   108.4600466 328.025600
   3054   3052   3055     1   109.5600471 388.275200
   3055   3064   3065     1   109.5600471 388.275200
   3055   3064   3066     1   109.5600471 388.275200
   3056   3055   3064     1   109.8000471 387.438400
   3056   3055   3057     1   107.5800459 329.699200
   3057   3055   3064     1   109.8000471 387.438400
   3058   3070   3071     1   109.5600471 388.275200
   3058   3070   3072     1   109.5600471 388.275200
   3059   3058   3070     1   109.8000471 387.438400
   3059   3058   3060     1   107.5800459 329.699200
   3060   3058   3070     1   109.8000471 387.438400
   3061   3067   3068     1   109.5600471 388.275200
   3061   3067   3069     1   109.5600471 388.275200
   3062   3061   3067     1   109.8000471 387.438400
   3062   3061   3063     1   107.5800459 329.699200
   3063   3061   3067     1   109.8000471 387.438400
   3065   3064   3073     1   109.7800468 425.094400
   3065   3064   3066     1   108.4600466 328.025600
   3066   3064   3073     1   109.7800468 425.094400
   3068   3067   4784     1   109.7800468 425.094400
   3068   3067   3069     1   108.4600466 328.025600
   3069   3067   4784     1   109.7800468 425.094400
   3071   3070   4797     1   109.7800468 425.094400
   3071   3070   3072     1   108.4600466 328.025600
   3072   3070   4797     1   109.7800468 425.094400
   3074   3075   3076     1   109.8800469 414.216000
   3074   3075   3077     1   109.8800469 414.216000
   3074   3078   3079     1   109.8800469 414.216000
   3074   3078   3080     1   109.8800469 414.216000
   3074   3081   3082     1   109.8800469 414.216000
   3074   3081   3083     1   109.8800469 414.216000
   3075   3087   3088     1   109.8000471 387.438400
   3075   3087   3089     1   109.8000471 387.438400
   3076   3075   3087     1   109.5600471 388.275200
   3076   3075   3077     1   108.4600466 328.025600
   3077   3075   3087     1   109.5600471 388.275200
   3078   3090   3091     1   109.8000471 387.438400
   3078   3090   3092     1   109.8000471 387.438400
   3079   3078   3090     1   109.5600471 388.275200
   3079   3078   3080     1   108.4600466 328.025600
   3080   3078   3090     1   109.5600471 388.275200
   3081   3084   3085     1   109.8000471 387.438400
   3081   3084   3086     1   109.8000471 387.438400
   3082   3081   3084     1   109.5600471 388.275200
   3082   3081   3083     1   108.4600466 328.025600
   3083   3081   3084     1   109.5600471 388.275200
   3084   3093   3094     1   109.5600471 388.275200
   3084   3093   3095     1   109.5600471 388.275200
   3085   3084   3093     1   109.8000471 387.438400
   3085   3084   3086     1   107.5800459 329.699200
   3086   3084   3093     1   109.8000471 387.438400
   3087   3099   3100     1   109.5600471 388.275200
   3087   3099   3101     1   109.5600471 388.275200
   3088   3087   3099     1   109.8000471 387.438400
   3088   3087   3089     1   107.5800459 329.699200
   3089   3087   3099     1   109.8000471 387.438400
   3090   3096   3097     1   109.5600471 388.275200
   3090   3096   3098     1   109.5600471 388.275200
   3091   3090   3096     1   109.8000471 387.438400
   3091   3090   3092     1   107.5800459 329.699200
   3092   3090   3096     1   109.8000471 387.438400
   3094   3093   3102     1   109.7800468 425.094400
   3094   3093   3095     1   108.4600466 328.025600
   3095   3093   3102     1   109.7800468 425.094400
   3097   3096   4810     1   109.7800468 425.094400
   3097   3096   3098     1   108.4600466 328.025600
   3098   3096   4810     1   109.7800468 425.094400
   3100   3099   4823     1   109.7800468 425.094400
   3100   3099   3101     1   108.4600466 328.025600
   3101   3099   4823     1   109.7800468 425.094400
   3103   3104   3105     1   109.8800469 414.216000
   3103   3104   3106     1   109.8800469 414.216000
   3103   3107   3108     1   109.8800469 414.216000
   3103   3107   3109     1   109.8800469 414.216000
   3103   3110   3111     1   109.8800469 414.216000
   3103   3110   3112     1   109.8800469 414.216000
   3104   3116   3117     1   109.8000471 387.438400
   3104   3116   3118     1   109.8000471 387.438400
   3105   3104   3116     1   109.5600471 388.275200
   3105   3104   3106     1   108.4600466 328.025600
   3106   3104   3116     1   109.5600471 388.275200
   3107   3119   3120     1   109.8000471 387.438400
   3107   3119   3121     1   109.8000471 387.438400
   3108   3107   3119     1   109.5600471 388.275200
   3108   3107   3109     1   108.4600466 328.025600
   3109   3107   3119     1   109.5600471 388.275200
   3110   3113   3114     1   109.8000471 387.438400
   3110   3113   3115     1   109.8000471 387.438400
   3111   3110   3113     1   109.5600471 388.275200
   3111   3110   3112     1   108.4600466 328.025600
   3112   3110   3113     1   109.5600471 388.275200
   3113   3122   3123     1   109.5600471 388.275200
   3113   3122   3124     1   109.5600471 388.275200
   3114   3113   3122     1   109.8000471 387.438400
   3114   3113   3115     1   107.5800459 329.699200
   3115   3113   3122     1   109.8000471 387.438400
   3116   3128   3129     1   109.5600471 388.275200
   3116   3128   3130     1   109.5600471 388.275200
   3117   3116   3128     1   109.8000471 387.438400
   3117   3116   3118     1   107.5800459 329.699200
   3118   3116   3128     1   109.8000471 387.438400
   3119   3125   3126     1   109.5600471 388.275200
   3119   3125   3127     1   109.5600471 388.275200
   3120   3119   3125     1   109.8000471 387.438400
   3120   3119   3121     1   107.5800459 329.699200
   3121   3119   3125     1   109.8000471 387.438400
   3123   3122   3131     1   109.7800468 425.094400
   3123   3122   3124     1   108.4600466 328.025600
   3124   3122   3131     1   109.7800468 425.094400
   3126   3125   4836     1   109.7800468 425.094400
   3126   3125   3127     1   108.4600466 328.025600
   3127   3125   4836     1   109.7800468 425.094400
   3129   3128   4849     1   109.7800468 425.094400
   3129   3128   3130     1   108.4600466 328.025600
   3130   3128   4849     1   109.7800468 425.094400
   3132   3133   3134     1   109.8800469 414.216000
   3132   3133   3135     1   109.8800469 414.216000
   3132   3136   3137     1   109.8800469 414.216000
   3132   3136   3138     1   109.8800469 414.216000
   3132   3139   3140     1   109.8800469 414.216000
   3132   3139   3141     1   109.8800469 414.216000
   3133   3145   3146     1   109.8000471 387.438400
   3133   3145   3147     1   109.8000471 387.438400
   3134   3133   3145     1   109.5600471 388.275200
   3134   3133   3135     1   108.4600466 328.025600
   3135   3133   3145     1   109.5600471 388.275200
   3136   3148   3149     1   109.8000471 387.438400
   3136   3148   3150     1   109.8000471 387.438400
   3137   3136   3148     1   109.5600471 388.275200
   3137   3136   3138     1   108.4600466 328.025600
   3138   3136   3148     1   109.5600471 388.275200
   3139   3142   3143     1   109.8000471 387.438400
   3139   3142   3144     1   109.8000471 387.438400
   3140   3139   3142     1   109.5600471 388.275200
   3140   3139   3141     1   108.4600466 328.025600
   3141   3139   3142     1   109.5600471 388.275200
   3142   3151   3152     1   109.5600471 388.275200
   3142   3151   3153     1   109.5600471 388.275200
   3143   3142   3151     1   109.8000471 387.438400
   3143   3142   3144     1   107.5800459 329.699200
   3144   3142   3151     1   109.8000471 387.438400
   3145   3157   3158     1   109.5600471 388.275200
   3145   3157   3159     1   109.5600471 388.275200
   3146   3145   3157     1   109.8000471 387.438400
   3146   3145   3147     1   107.5800459 329.699200
   3147   3145   3157     1   109.8000471 387.438400
   3148   3154   3155     1   109.5600471 388.275200
   3148   3154   3156     1   109.5600471 388.275200
   3149   3148   3154     1   109.8000471 387.438400
   3149   3148   3150     1   107.5800459 329.699200
   3150   3148   3154     1   109.8000471 387.438400
   3152   3151   3160     1   109.7800468 425.094400
   3152   3151   3153     1   108.4600466 328.025600
   3153   3151   3160     1   109.7800468 425.094400
   3155   3154   4862     1   109.7800468 425.094400
   3155   3154   3156     1   108.4600466 328.025600
   3156   3154   4862     1   109.7800468 425.094400
   3158   3157   4875     1   109.7800468 425.094400
   3158   3157   3159     1   108.4600466 328.025600
   3159   3157   4875     1   109.7800468 425.094400
   3161   3162   3163     1   109.8800469 414.216000
   3161   3162   3164     1   109.8800469 414.216000
   3161   3165   3166     1   109.8800469 414.216000
   3161   3165   3167     1   109.8800469 414.216000
   3161   3168   3169     1   109.8800469 414.216000
   3161   3168   3170     1   109.8800469 414.216000
   3162   3174   3175     1   109.8000471 387.438400
   3162   3174   3176     1   109.8000471 387.438400
   3163   3162   3174     1   109.5600471 388.275200
   3163   3162   3164     1   108.4600466 328.025600
   3164   3162   3174     1   109.5600471 388.275200
   3165   3177   3178     1   109.8000471 387.438400
   3165   3177   3179     1   109.8000471 387.438400
   3166   3165   3177     1   109.5600471 388.275200
   3166   3165   3167     1   108.4600466 328.025600
   3167   3165   3177     1   109.5600471 388.275200
   3168   3171   3172     1   109.8000471 387.438400
   3168   3171   3173     1   109.8000471 387.438400
   3169   3168   3171     1   109.5600471 388.275200
   3169   3168   3170     1   108.4600466 328.025600
   3170   3168   3171     1   109.5600471 388.275200
   3171   3180   3181     1   109.5600471 388.275200
   3171   3180   3182     1   109.5600471 388.275200
   3172   3171   3180     1   109.8000471 387.438400
   3172   3171   3173     1   107.5800459 329.699200
   3173   3171   3180     1   109.8000471 387.438400
   3174   3186   3187     1   109.5600471 388.275200
   3174   3186   3188     1   109.5600471 388.275200
   3175   3174   3186     1   109.8000471 387.438400
   3175   3174   3176     1   107.5800459 329.699200
   3176   3174   3186     1   109.8000471 387.438400
   3177   3183   3184     1   109.5600471 388.275200
   3177   3183   3185     1   109.5600471 388.275200
   3178   3177   3183     1   109.8000471 387.438400
   3178   3177   3179     1   107.5800459 329.699200
   3179   3177   3183     1   109.8000471 387.438400
   3181   3180   3189     1   109.7800468 425.094400
   3181   3180   3182     1   108.4600466 328.025600
   3182   3180   3189     1   109.7800468 425.094400
   3184   3183   4888     1   109.7800468 425.094400
   3184   3183   3185     1   108.4600466 328.025600
   3185   3183   4888     1   109.7800468 425.094400
   3187   3186   4901     1   109.7800468 425.094400
   3187   3186   3188     1   108.4600466 328.025600
   3188   3186   4901     1   109.7800468 425.094400
   3190   3191   3192     1   109.8800469 414.216000
   3190   3191   3193     1   109.8800469 414.216000
   3190   3194   3195     1   109.8800469 414.216000
   3190   3194   3196     1   109.8800469 414.216000
   3190   3197   3198     1   109.8800469 414.216000
   3190   3197   3199     1   109.8800469 414.216000
   3191   3203   3204     1   109.8000471 387.438400
   3191   3203   3205     1   109.8000471 387.438400
   3192   3191   3203     1   109.5600471 388.275200
   3192   3191   3193     1   108.4600466 328.025600
   3193   3191   3203     1   109.5600471 388.275200
   3194   3206   3207     1   109.8000471 387.438400
   3194   3206   3208     1   109.8000471 387.438400
   3195   3194   3206     1   109.5600471 388.275200
   3195   3194   3196     1   108.4600466 328.025600
   3196   3194   3206     1   109.5600471 388.275200
   3197   3200   3201     1   109.8000471 387.438400
   3197   3200   3202     1   109.8000471 387.438400
   3198   3197   3200     1   109.5600471 388.275200
   3198   3197   3199     1   108.4600466 328.025600
   3199   3197   3200     1   109.5600471 388.275200
   3200   3209   3210     1   109.5600471 388.275200
   3200   3209   3211     1   109.5600471 388.275200
   3201   3200   3209     1   109.8000471 387.438400
   3201   3200   3202     1   107.5800459 329.699200
   3202   3200   3209     1   109.8000471 387.438400
   3203   3215   3216     1   109.5600471 388.275200
   3203   3215   3217     1   109.5600471 388.275200
   3204   3203   3215     1   109.8000471 387.438400
   3204   3203   3205     1   107.5800459 329.699200
   3205   3203   3215     1   109.8000471 387.438400
   3206   3212   3213     1   109.5600471 388.275200
   3206   3212   3214     1   109.5600471 388.275200
   3207   3206   3212     1   109.8000471 387.438400
   3207   3206   3208     1   107.5800459 329.699200
   3208   3206   3212     1   109.8000471 387.438400
   3210   3209   3218     1   109.7800468 425.094400
   3210   3209   3211     1   108.4600466 328.025600
   3211   3209   3218     1   109.7800468 425.094400
   3213   3212   4914     1   109.7800468 425.094400
   3213   3212   3214     1   108.4600466 328.025600
   3214   3212   4914     1   109.7800468 425.094400
   3216   3215   4927     1   109.7800468 425.094400
   3216   3215   3217     1   108.4600466 328.025600
   3217   3215   4927     1   109.7800468 425.094400
   3219   3220   3221     1   109.8800469 414.216000
   3219   3220   3222     1   109.8800469 414.216000
   3219   3223   3224     1   109.8800469 414.216000
   3219   3223   3225     1   109.8800469 414.216000
   3219   3226   3227     1   109.8800469 414.216000
   3219   3226   3228     1   109.8800469 414.216000
   3220   3232   3233     1   109.8000471 387.438400
   3220   3232   3234     1   109.8000471 387.438400
   3221   3220   3232     1   109.5600471 388.275200
   3221   3220   3222     1   108.4600466 328.025600
   3222   3220   3232     1   109.5600471 388.275200
   3223   3235   3236     1   109.8000471 387.438400
   3223   3235   3237     1   109.8000471 387.438400
   3224   3223   3235     1   109.5600471 388.275200
   3224   3223   3225     1   108.4600466 328.025600
   3225   3223   3235     1   109.5600471 388.275200
   3226   3229   3230     1   109.8000471 387.438400
   3226   3229   3231     1   109.8000471 387.438400
   3227   3226   3229     1   109.5600471 388.275200
   3227   3226   3228     1   108.4600466 328.025600
   3228   3226   3229     1   109.5600471 388.275200
   3229   3238   3239     1   109.5600471 388.275200
   3229   3238   3240     1   109.5600471 388.275200
   3230   3229   3238     1   109.8000471 387.438400
   3230   3229   3231     1   107.5800459 329.699200
   3231   3229   3238     1   109.8000471 387.438400
   3232   3244   3245     1   109.5600471 388.275200
   3232   3244   3246     1   109.5600471 388.275200
   3233   3232   3244     1   109.8000471 387.438400
   3233   3232   3234     1   107.5800459 329.699200
   3234   3232   3244     1   109.8000471 387.438400
   3235   3241   3242     1   109.5600471 388.275200
   3235   3241   3243     1   109.5600471 388.275200
   3236   3235   3241     1   109.8000471 387.438400
   3236   3235   3237     1   107.5800459 329.699200
   3237   3235   3241     1   109.8000471 387.438400
   3239   3238   3247     1   109.7800468 425.094400
   3239   3238   3240     1   108.4600466 328.025600
   3240   3238   3247     1   109.7800468 425.094400
   3242   3241   4940     1   109.7800468 425.094400
   3242   3241   3243     1   108.4600466 328.025600
   3243   3241   4940     1   109.7800468 425.094400
   3245   3244   4953     1   109.7800468 425.094400
   3245   3244   3246     1   108.4600466 328.025600
   3246   3244   4953     1   109.7800468 425.094400
   3248   3249   3250     1   109.8800469 414.216000
   3248   3249   3251     1   109.8800469 414.216000
   3248   3252   3253     1   109.8800469 414.216000
   3248   3252   3254     1   109.8800469 414.216000
   3248   3255   3256     1   109.8800469 414.216000
   3248   3255   3257     1   109.8800469 414.216000
   3249   3261   3262     1   109.8000471 387.438400
   3249   3261   3263     1   109.8000471 387.438400
   3250   3249   3261     1   109.5600471 388.275200
   3250   3249   3251     1   108.4600466 328.025600
   3251   3249   3261     1   109.5600471 388.275200
   3252   3264   3265     1   109.8000471 387.438400
   3252   3264   3266     1   109.8000471 387.438400
   3253   3252   3264     1   109.5600471 388.275200
   3253   3252   3254     1   108.4600466 328.025600
   3254   3252   3264     1   109.5600471 388.275200
   3255   3258   3259     1   109.8000471 387.438400
   3255   3258   3260     1   109.8000471 387.438400
   3256   3255   3258     1   109.5600471 388.275200
   3256   3255   3257     1   108.4600466 328.025600
   3257   3255   3258     1   109.5600471 388.275200
   3258   3267   3268     1   109.5600471 388.275200
   3258   3267   3269     1   109.5600471 388.275200
   3259   3258   3267     1   109.8000471 387.438400
   3259   3258   3260     1   107.5800459 329.699200
   3260   3258   3267     1   109.8000471 387.438400
   3261   3273   3274     1   109.5600471 388.275200
   3261   3273   3275     1   109.5600471 388.275200
   3262   3261   3273     1   109.8000471 387.438400
   3262   3261   3263     1   107.5800459 329.699200
   3263   3261   3273     1   109.8000471 387.438400
   3264   3270   3271     1   109.5600471 388.275200
   3264   3270   3272     1   109.5600471 388.275200
   3265   3264   3270     1   109.8000471 387.438400
   3265   3264   3266     1   107.5800459 329.699200
   3266   3264   3270     1   109.8000471 387.438400
   3268   3267   3276     1   109.7800468 425.094400
   3268   3267   3269     1   108.4600466 328.025600
   3269   3267   3276     1   109.7800468 425.094400
   3271   3270   4966     1   109.7800468 425.094400
   3271   3270   3272     1   108.4600466 328.025600
   3272   3270   4966     1   109.7800468 425.094400
   3274   3273   4979     1   109.7800468 425.094400
   3274   3273   3275     1   108.4600466 328.025600
   3275   3273   4979     1   109.7800468 425.094400
   3277   3278   3279     1   109.8800469 414.216000
   3277   3278   3280     1   109.8800469 414.216000
   3277   3281   3282     1   109.8800469 414.216000
   3277   3281   3283     1   109.8800469 414.216000
   3277   3284   3285     1   109.8800469 414.216000
   3277   3284   3286     1   109.8800469 414.216000
   3278   3290   3291     1   109.8000471 387.438400
   3278   3290   3292     1   109.8000471 387.438400
   3279   3278   3290     1   109.5600471 388.275200
   3279   3278   3280     1   108.4600466 328.025600
   3280   3278   3290     1   109.5600471 388.275200
   3281   3293   3294     1   109.8000471 387.438400
   3281   3293   3295     1   109.8000471 387.438400
   3282   3281   3293     1   109.5600471 388.275200
   3282   3281   3283     1   108.4600466 328.025600
   3283   3281   3293     1   109.5600471 388.275200
   3284   3287   3288     1   109.8000471 387.438400
   3284   3287   3289     1   109.8000471 387.438400
   3285   3284   3287     1   109.5600471 388.275200
   3285   3284   3286     1   108.4600466 328.025600
   3286   3284   3287     1   109.5600471 388.275200
   3287   3296   3297     1   109.5600471 388.275200
   3287   3296   3298     1   109.5600471 388.275200
   3288   3287   3296     1   109.8000471 387.438400
   3288   3287   3289     1   107.5800459 329.699200
   3289   3287   3296     1   109.8000471 387.438400
   3290   3302   3303     1   109.5600471 388.275200
   3290   3302   3304     1   109.5600471 388.275200
   3291   3290   3302     1   109.8000471 387.438400
   3291   3290   3292     1   107.5800459 329.699200
   3292   3290   3302     1   109.8000471 387.438400
   3293   3299   3300     1   109.5600471 388.275200
   3293   3299   3301     1   109.5600471 388.275200
   3294   3293   3299     1   109.8000471 387.438400
   3294   3293   3295     1   107.5800459 329.699200
   3295   3293   3299     1   109.8000471 387.438400
   3297   3296   3305     1   109.7800468 425.094400
   3297   3296   3298     1   108.4600466 328.025600
   3298   3296   3305     1   109.7800468 425.094400
   3300   3299   4992     1   109.7800468 425.094400
   3300   3299   3301     1   108.4600466 328.025600
   3301   3299   4992     1   109.7800468 425.094400
   3303   3302   5005     1   109.7800468 425.094400
   3303   3302   3304     1   108.4600466 328.025600
   3304   3302   5005     1   109.7800468 425.094400
   3306   3307   3308     1   109.8800469 414.216000
   3306   3307   3309     1   109.8800469 414.216000
   3306   3310   3311     1   109.8800469 414.216000
   3306   3310   3312     1   109.8800469 414.216000
   3306   3313   3314     1   109.8800469 414.216000
   3306   3313   3315     1   109.8800469 414.216000
   3307   3319   3320     1   109.8000471 387.438400
   3307   3319   3321     1   109.8000471 387.438400
   3308   3307   3319     1   109.5600471 388.275200
   3308   3307   3309     1   108.4600466 328.025600
   3309   3307   3319     1   109.5600471 388.275200
   3310   3322   3323     1   109.8000471 387.438400
   3310   3322   3324     1   109.8000471 387.438400
   3311   3310   3322     1   109.5600471 388.275200
   3311   3310   3312     1   108.4600466 328.025600
   3312   3310   3322     1   109.5600471 388.275200
   3313   3316   3317     1   109.8000471 387.438400
   3313   3316   3318     1   109.8000471 387.438400
   3314   3313   3316     1   109.5600471 388.275200
   3314   3313   3315     1   108.4600466 328.025600
   3315   3313   3316     1   109.5600471 388.275200
   3316   3325   3326     1   109.5600471 388.275200
   3316   3325   3327     1   109.5600471 388.275200
   3317   3316   3325     1   109.8000471 387.438400
   3317   3316   3318     1   107.5800459 329.699200
   3318   3316   3325     1   109.8000471 387.438400
   3319   3331   3332     1   109.5600471 388.275200
   3319   3331   3333     1   109.5600471 388.275200
   3320   3319   3331     1   109.8000471 387.438400
   3320   3319   3321     1   107.5800459 329.699200
   3321   3319   3331     1   109.8000471 387.438400
   3322   3328   3329     1   109.5600471 388.275200
   3322   3328   3330     1   109.5600471 388.275200
   3323   3322   3328     1   109.8000471 387.438400
   3323   3322   3324     1   107.5800459 329.699200
   3324   3322   3328     1   109.8000471 387.438400
   3326   3325   3334     1   109.7800468 425.094400
   3326   3325   3327     1   108.4600466 328.025600
   3327   3325   3334     1   109.7800468 425.094400
   3329   3328   5018     1   109.7800468 425.094400
   3329   3328   3330     1   108.4600466 328.025600
   3330   3328   5018     1   109.7800468 425.094400
   3332   3331   5031     1   109.7800468 425.094400
   3332   3331   3333     1   108.4600466 328.025600
   3333   3331   5031     1   109.7800468 425.094400
   3335   3336   3337     1   109.8800469 414.216000
   3335   3336   3338     1   109.8800469 414.216000
   3335   3339   3340     1   109.8800469 414.216000
   3335   3339   3341     1   109.8800469 414.216000
   3335   3342   3343     1   109.8800469 414.216000
   3335   3342   3344     1   109.8800469 414.216000
   3336   3348   3349     1   109.8000471 387.438400
   3336   3348   3350     1   109.8000471 387.438400
   3337   3336   3348     1   109.5600471 388.275200
   3337   3336   3338     1   108.4600466 328.025600
   3338   3336   3348     1   109.5600471 388.275200
   3339   3351   3352     1   109.8000471 387.438400
   3339   3351   3353     1   109.8000471 387.438400
   3340   3339   3351     1   109.5600471 388.275200
   3340   3339   3341     1   108.4600466 328.025600
   3341   3339   3351     1   109.5600471 388.275200
   3342   3345   3346     1   109.8000471 387.438400
   3342   3345   3347     1   109.8000471 387.438400
   3343   3342   3345     1   109.5600471 388.275200
   3343   3342   3344     1   108.4600466 328.025600
   3344   3342   3345     1   109.5600471 388.275200
   3345   3354   3355     1   109.5600471 388.275200
   3345   3354   3356     1   109.5600471 388.275200
   3346   3345   3354     1   109.8000471 387.438400
   3346   3345   3347     1   107.5800459 329.699200
   3347   3345   3354     1   109.8000471 387.438400
   3348   3360   3361     1   109.5600471 388.275200
   3348   3360   3362     1   109.5600471 388.275200
   3349   3348   3360     1   109.8000471 387.438400
   3349   3348   3350     1   107.5800459 329.699200
   3350   3348   3360     1   109.8000471 387.438400
   3351   3357   3358     1   109.5600471 388.275200
   3351   3357   3359     1   109.5600471 388.275200
   3352   3351   3357     1   109.8000471 387.438400
   3352   3351   3353     1   107.5800459 329.699200
   3353   3351   3357     1   109.8000471 387.438400
   3355   3354   3363     1   109.7800468 425.094400
   3355   3354   3356     1   108.4600466 328.025600
   3356   3354   3363     1   109.7800468 425.094400
   3358   3357   5044     1   109.7800468 425.094400
   3358   3357   3359     1   108.4600466 328.025600
   3359   3357   5044     1   109.7800468 425.094400
   3361   3360   5057     1   109.7800468 425.094400
   3361   3360   3362     1   108.4600466 328.025600
   3362   3360   5057     1   109.7800468 425.094400
   3364   3365   3366     1   109.8800469 414.216000
   3364   3365   3367     1   109.8800469 414.216000
   3364   3368   3369     1   109.8800469 414.216000
   3364   3368   3370     1   109.8800469 414.216000
   3364   3371   3372     1   109.8800469 414.216000
   3364   3371   3373     1   109.8800469 414.216000
   3365   3377   3378     1   109.8000471 387.438400
   3365   3377   3379     1   109.8000471 387.438400
   3366   3365   3377     1   109.5600471 388.275200
   3366   3365   3367     1   108.4600466 328.025600
   3367   3365   3377     1   109.5600471 388.275200
   3368   3380   3381     1   109.8000471 387.438400
   3368   3380   3382     1   109.8000471 387.438400
   3369   3368   3380     1   109.5600471 388.275200
   3369   3368   3370     1   108.4600466 328.025600
   3370   3368   3380     1   109.5600471 388.275200
   3371   3374   3375     1   109.8000471 387.438400
   3371   3374   3376     1   109.8000471 387.438400
   3372   3371   3374     1   109.5600471 388.275200
   3372   3371   3373     1   108.4600466 328.025600
   3373   3371   3374     1   109.5600471 388.275200
   3374   3383   3384     1   109.5600471 388.275200
   3374   3383   3385     1   109.5600471 388.275200
   3375   3374   3383     1   109.8000471 387.438400
   3375   3374   3376     1   107.5800459 329.699200
   3376   3374   3383     1   109.8000471 387.438400
   3377   3389   3390     1   109.5600471 388.275200
   3377   3389   3391     1   109.5600471 388.275200
   3378   3377   3389     1   109.8000471 387.438400
   3378   3377   3379     1   107.5800459 329.699200
   3379   3377   3389     1   109.8000471 387.438400
   3380   3386   3387     1   109.5600471 388.275200
   3380   3386   3388     1   109.5600471 388.275200
   3381   3380   3386     1   109.8000471 387.438400
   3381   3380   3382     1   107.5800459 329.699200
   3382   3380   3386     1   109.8000471 387.438400
   3384   3383   3392     1   109.7800468 425.094400
   3384   3383   3385     1   108.4600466 328.025600
   3385   3383   3392     1   109.7800468 425.094400
   3387   3386   5070     1   109.7800468 425.094400
   3387   3386   3388     1   108.4600466 328.025600
   3388   3386   5070     1   109.7800468 425.094400
   3390   3389   5083     1   109.7800468 425.094400
   3390   3389   3391     1   108.4600466 328.025600
   3391   3389   5083     1   109.7800468 425.094400
   3393   3394   3395     1   109.8800469 414.216000
   3393   3394   3396     1   109.8800469 414.216000
   3393   3397   3398     1   109.8800469 414.216000
   3393   3397   3399     1   109.8800469 414.216000
   3393   3400   3401     1   109.8800469 414.216000
   3393   3400   3402     1   109.8800469 414.216000
   3394   3406   3407     1   109.8000471 387.438400
   3394   3406   3408     1   109.8000471 387.438400
   3395   3394   3406     1   109.5600471 388.275200
   3395   3394   3396     1   108.4600466 328.025600
   3396   3394   3406     1   109.5600471 388.275200
   3397   3409   3410     1   109.8000471 387.438400
   3397   3409   3411     1   109.8000471 387.438400
   3398   3397   3409     1   109.5600471 388.275200
   3398   3397   3399     1   108.4600466 328.025600
   3399   3397   3409     1   109.5600471 388.275200
   3400   3403   3404     1   109.8000471 387.438400
   3400   3403   3405     1   109.8000471 387.438400
   3401   3400   3403     1   109.5600471 388.275200
   3401   3400   3402     1   108.4600466 328.025600
   3402   3400   3403     1   109.5600471 388.275200
   3403   3412   3413     1   109.5600471 388.275200
   3403   3412   3414     1   109.5600471 388.275200
   3404   3403   3412     1   109.8000471 387.438400
   3404   3403   3405     1   107.5800459 329.699200
   3405   3403   3412     1   109.8000471 387.438400
   3406   3418   3419     1   109.5600471 388.275200
   3406   3418   3420     1   109.5600471 388.275200
   3407   3406   3418     1   109.8000471 387.438400
   3407   3406   3408     1   107.5800459 329.699200
   3408   3406   3418     1   109.8000471 387.438400
   3409   3415   3416     1   109.5600471 388.275200
   3409   3415   3417     1   109.5600471 388.275200
   3410   3409   3415     1   109.8000471 387.438400
   3410   3409   3411     1   107.5800459 329.699200
   3411   3409   3415     1   109.8000471 387.438400
   3413   3412   3421     1   109.7800468 425.094400
   3413   3412   3414     1   108.4600466 328.025600
   3414   3412   3421     1   109.7800468 425.094400
   3416   3415   5096     1   109.7800468 425.094400
   3416   3415   3417     1   108.4600466 328.025600
   3417   3415   5096     1   109.7800468 425.094400
   3419   3418   5109     1   109.7800468 425.094400
   3419   3418   3420     1   108.4600466 328.025600
   3420   3418   5109     1   109.7800468 425.094400
   3422   3423   3424     1   109.8800469 414.216000
   3422   3423   3425     1   109.8800469 414.216000
   3422   3426   3427     1   109.8800469 414.216000
   3422   3426   3428     1   109.8800469 414.216000
   3422   3429   3430     1   109.8800469 414.216000
   3422   3429   3431     1   109.8800469 414.216000
   3423   3435   3436     1   109.8000471 387.438400
   3423   3435   3437     1   109.8000471 387.438400
   3424   3423   3435     1   109.5600471 388.275200
   3424   3423   3425     1   108.4600466 328.025600
   3425   3423   3435     1   109.5600471 388.275200
   3426   3438   3439     1   109.8000471 387.438400
   3426   3438   3440     1   109.8000471 387.438400
   3427   3426   3438     1   109.5600471 388.275200
   3427   3426   3428     1   108.4600466 328.025600
   3428   3426   3438     1   109.5600471 388.275200
   3429   3432   3433     1   109.8000471 387.438400
   3429   3432   3434     1   109.8000471 387.438400
   3430   3429   3432     1   109.5600471 388.275200
   3430   3429   3431     1   108.4600466 328.025600
   3431   3429   3432     1   109.5600471 388.275200
   3432   3441   3442     1   109.5600471 388.275200
   3432   3441   3443     1   109.5600471 388.275200
   3433   3432   3441     1   109.8000471 387.438400
   3433   3432   3434     1   107.5800459 329.699200
   3434   3432   3441     1   109.8000471 387.438400
   3435   3447   3448     1   109.5600471 388.275200
   3435   3447   3449     1   109.5600471 388.275200
   3436   3435   3447     1   109.8000471 387.438400
   3436   3435   3437     1   107.5800459 329.699200
   3437   3435   3447     1   109.8000471 387.438400
   3438   3444   3445     1   109.5600471 388.275200
   3438   3444   3446     1   109.5600471 388.275200
   3439   3438   3444     1   109.8000471 387.438400
   3439   3438   3440     1   107.5800459 329.699200
   3440   3438   3444     1   109.8000471 387.438400
   3442   3441   3450     1   109.7800468 425.094400
   3442   3441   3443     1   108.4600466 328.025600
   3443   3441   3450     1   109.7800468 425.094400
   3445   3444   5122     1   109.7800468 425.094400
   3445   3444   3446     1   108.4600466 328.025600
   3446   3444   5122     1   109.7800468 425.094400
   3448   3447   5135     1   109.7800468 425.094400
   3448   3447   3449     1   108.4600466 328.025600
   3449   3447   5135     1   109.7800468 425.094400
   3451   3452   3453     1   109.8800469 414.216000
   3451   3452   3454     1   109.8800469 414.216000
   3451   3455   3456     1   109.8800469 414.216000
   3451   3455   3457     1   109.8800469 414.216000
   3451   3458   3459     1   109.8800469 414.216000
   3451   3458   3460     1   109.8800469 414.216000
   3452   3464   3465     1   109.8000471 387.438400
   3452   3464   3466     1   109.8000471 387.438400
   3453   3452   3464     1   109.5600471 388.275200
   3453   3452   3454     1   108.4600466 328.025600
   3454   3452   3464     1   109.5600471 388.275200
   3455   3467   3468     1   109.8000471 387.438400
   3455   3467   3469     1   109.8000471 387.438400
   3456   3455   3467     1   109.5600471 388.275200
   3456   3455   3457     1   108.4600466 328.025600
   3457   3455   3467     1   109.5600471 388.275200
   3458   3461   3462     1   109.8000471 387.438400
   3458   3461   3463     1   109.8000471 387.438400
   3459   3458   3461     1   109.5600471 388.275200
   3459   3458   3460     1   108.4600466 328.025600
   3460   3458   3461     1   109.5600471 388.275200
   3461   3470   3471     1   109.5600471 388.275200
   3461   3470   3472     1   109.5600471 388.275200
   3462   3461   3470     1   109.8000471 387.438400
   3462   3461   3463     1   107.5800459 329.699200
   3463   3461   3470     1   109.8000471 387.438400
   3464   3476   3477     1   109.5600471 388.275200
   3464   3476   3478     1   109.5600471 388.275200
   3465   3464   3476     1   109.8000471 387.438400
   3465   3464   3466     1   107.5800459 329.699200
   3466   3464   3476     1   109.8000471 387.438400
   3467   3473   3474     1   109.5600471 388.275200
   3467   3473   3475     1   109.5600471 388.275200
   3468   3467   3473     1   109.8000471 387.438400
   3468   3467   3469     1   107.5800459 329.699200
   3469   3467   3473     1   109.8000471 387.438400
   3471   3470   3479     1   109.7800468 425.094400
   3471   3470   3472     1   108.4600466 328.025600
   3472   3470   3479     1   109.7800468 425.094400
   3474   3473   5148     1   109.7800468 425.094400
   3474   3473   3475     1   108.4600466 328.025600
   3475   3473   5148     1   109.7800468 425.094400
   3477   3476   5161     1   109.7800468 425.094400
   3477   3476   3478     1   108.4600466 328.025600
   3478   3476   5161     1   109.7800468 425.094400
   3480   3481   3482     1   109.8800469 414.216000
   3480   3481   3483     1   109.8800469 414.216000
   3480   3484   3485     1   109.8800469 414.216000
   3480   3484   3486     1   109.8800469 414.216000
   3480   3487   3488     1   109.8800469 414.216000
   3480   3487   3489     1   109.8800469 414.216000
   3481   3493   3494     1   109.8000471 387.438400
   3481   3493   3495     1   109.8000471 387.438400
   3482   3481   3493     1   109.5600471 388.275200
   3482   3481   3483     1   108.4600466 328.025600
   3483   3481   3493     1   109.5600471 388.275200
   3484   3496   3497     1   109.8000471 387.438400
   3484   3496   3498     1   109.8000471 387.438400
   3485   3484   3496     1   109.5600471 388.275200
   3485   3484   3486     1   108.4600466 328.025600
   3486   3484   3496     1   109.5600471 388.275200
   3487   3490   3491     1   109.8000471 387.438400
   3487   3490   3492     1   109.8000471 387.438400
   3488   3487   3490     1   109.5600471 388.275200
   3488   3487   3489     1   108.4600466 328.025600
   3489   3487   3490     1   109.5600471 388.275200
   3490   3499   3500     1   109.5600471 388.275200
   3490   3499   3501     1   109.5600471 388.275200
   3491   3490   3499     1   109.8000471 387.438400
   3491   3490   3492     1   107.5800459 329.699200
   3492   3490   3499     1   109.8000471 387.438400
   3493   3505   3506     1   109.5600471 388.275200
   3493   3505   3507     1   109.5600471 388.275200
   3494   3493   3505     1   109.8000471 387.438400
   3494   3493   3495     1   107.5800459 329.699200
   3495   3493   3505     1   109.8000471 387.438400
   3496   3502   3503     1   109.5600471 388.275200
   3496   3502   3504     1   109.5600471 388.275200
   3497   3496   3502     1   109.8000471 387.438400
   3497   3496   3498     1   107.5800459 329.699200
   3498   3496   3502     1   109.8000471 387.438400
   3500   3499   3508     1   109.7800468 425.094400
   3500   3499   3501     1   108.4600466 328.025600
   3501   3499   3508     1   109.7800468 425.094400
   3503   3502   5174     1   109.7800468 425.094400
   3503   3502   3504     1   108.4600466 328.025600
   3504   3502   5174     1   109.7800468 425.094400
   3506   3505   5187     1   109.7800468 425.094400
   3506   3505   3507     1   108.4600466 328.025600
   3507   3505   5187     1   109.7800468 425.094400
   3509   3510   3511     1   109.8800469 414.216000
   3509   3510   3512     1   109.8800469 414.216000
   3509   3513   3514     1   109.8800469 414.216000
   3509   3513   3515     1   109.8800469 414.216000
   3509   3516   3517     1   109.8800469 414.216000
   3509   3516   3518     1   109.8800469 414.216000
   3510   3522   3523     1   109.8000471 387.438400
   3510   3522   3524     1   109.8000471 387.438400
   3511   3510   3522     1   109.5600471 388.275200
   3511   3510   3512     1   108.4600466 328.025600
   3512   3510   3522     1   109.5600471 388.275200
   3513   3525   3526     1   109.8000471 387.438400
   3513   3525   3527     1   109.8000471 387.438400
   3514   3513   3525     1   109.5600471 388.275200
   3514   3513   3515     1   108.4600466 328.025600
   3515   3513   3525     1   109.5600471 388.275200
   3516   3519   3520     1   109.8000471 387.438400
   3516   3519   3521     1   109.8000471 387.438400
   3517   3516   3519     1   109.5600471 388.275200
   3517   3516   3518     1   108.4600466 328.025600
   3518   3516   3519     1   109.5600471 388.275200
   3519   3528   3529     1   109.5600471 388.275200
   3519   3528   3530     1   109.5600471 388.275200
   3520   3519   3528     1   109.8000471 387.438400
   3520   3519   3521     1   107.5800459 329.699200
   3521   3519   3528     1   109.8000471 387.438400
   3522   3534   3535     1   109.5600471 388.275200
   3522   3534   3536     1   109.5600471 388.275200
   3523   3522   3534     1   109.8000471 387.438400
   3523   3522   3524     1   107.5800459 329.699200
   3524   3522   3534     1   109.8000471 387.438400
   3525   3531   3532     1   109.5600471 388.275200
   3525   3531   3533     1   109.5600471 388.275200
   3526   3525   3531     1   109.8000471 387.438400
   3526   3525   3527     1   107.5800459 329.699200
   3527   3525   3531     1   109.8000471 387.438400
   3529   3528   3537     1   109.7800468 425.094400
   3529   3528   3530     1   108.4600466 328.025600
   3530   3528   3537     1   109.7800468 425.094400
   3532   3531   5200     1   109.7800468 425.094400
   3532   3531   3533     1   108.4600466 328.025600
   3533   3531   5200     1   109.7800468 425.094400
   3535   3534   5213     1   109.7800468 425.094400
   3535   3534   3536     1   108.4600466 328.025600
   3536   3534   5213     1   109.7800468 425.094400
   3538   3539   3540     1   109.8800469 414.216000
   3538   3539   3541     1   109.8800469 414.216000
   3538   3542   3543     1   109.8800469 414.216000
   3538   3542   3544     1   109.8800469 414.216000
   3538   3545   3546     1   109.8800469 414.216000
   3538   3545   3547     1   109.8800469 414.216000
   3539   3551   3552     1   109.8000471 387.438400
   3539   3551   3553     1   109.8000471 387.438400
   3540   3539   3551     1   109.5600471 388.275200
   3540   3539   3541     1   108.4600466 328.025600
   3541   3539   3551     1   109.5600471 388.275200
   3542   3554   3555     1   109.8000471 387.438400
   3542   3554   3556     1   109.8000471 387.438400
   3543   3542   3554     1   109.5600471 388.275200
   3543   3542   3544     1   108.4600466 328.025600
   3544   3542   3554     1   109.5600471 388.275200
   3545   3548   3549     1   109.8000471 387.438400
   3545   3548   3550     1   109.8000471 387.438400
   3546   3545   3548     1   109.5600471 388.275200
   3546   3545   3547     1   108.4600466 328.025600
   3547   3545   3548     1   109.5600471 388.275200
   3548   3557   3558     1   109.5600471 388.275200
   3548   3557   3559     1   109.5600471 388.275200
   3549   3548   3557     1   109.8000471 387.438400
   3549   3548   3550     1   107.5800459 329.699200
   3550   3548   3557     1   109.8000471 387.438400
   3551   3563   3564     1   109.5600471 388.275200
   3551   3563   3565     1   109.5600471 388.275200
   3552   3551   3563     1   109.8000471 387.438400
   3552   3551   3553     1   107.5800459 329.699200
   3553   3551   3563     1   109.8000471 387.438400
   3554   3560   3561     1   109.5600471 388.275200
   3554   3560   3562     1   109.5600471 388.275200
   3555   3554   3560     1   109.8000471 387.438400
   3555   3554   3556     1   107.5800459 329.699200
   3556   3554   3560     1   109.8000471 387.438400
   3558   3557   3566     1   109.7800468 425.094400
   3558   3557   3559     1   108.4600466 328.025600
   3559   3557   3566     1   109.7800468 425.094400
   3561   3560   5226     1   109.7800468 425.094400
   3561   3560   3562     1   108.4600466 328.025600
   3562   3560   5226     1   109.7800468 425.094400
   3564   3563   5239     1   109.7800468 425.094400
   3564   3563   3565     1   108.4600466 328.025600
   3565   3563   5239     1   109.7800468 425.094400
   3567   3568   3569     1   109.8800469 414.216000
   3567   3568   3570     1   109.8800469 414.216000
   3567   3571   3572     1   109.8800469 414.216000
   3567   3571   3573     1   109.8800469 414.216000
   3567   3574   3575     1   109.8800469 414.216000
   3567   3574   3576     1   109.8800469 414.216000
   3568   3580   3581     1   109.8000471 387.438400
   3568   3580   3582     1   109.8000471 387.438400
   3569   3568   3580     1   109.5600471 388.275200
   3569   3568   3570     1   108.4600466 328.025600
   3570   3568   3580     1   109.5600471 388.275200
   3571   3583   3584     1   109.8000471 387.438400
   3571   3583   3585     1   109.8000471 387.438400
   3572   3571   3583     1   109.5600471 388.275200
   3572   3571   3573     1   108.4600466 328.025600
   3573   3571   3583     1   109.5600471 388.275200
   3574   3577   3578     1   109.8000471 387.438400
   3574   3577   3579     1   109.8000471 387.438400
   3575   3574   3577     1   109.5600471 388.275200
   3575   3574   3576     1   108.4600466 328.025600
   3576   3574   3577     1   109.5600471 388.275200
   3577   3586   3587     1   109.5600471 388.275200
   3577   3586   3588     1   109.5600471 388.275200
   3578   3577   3586     1   109.8000471 387.438400
   3578   3577   3579     1   107.5800459 329.699200
   3579   3577   3586     1   109.8000471 387.438400
   3580   3592   3593     1   109.5600471 388.275200
   3580   3592   3594     1   109.5600471 388.275200
   3581   3580   3592     1   109.8000471 387.438400
   3581   3580   3582     1   107.5800459 329.699200
   3582   3580   3592     1   109.8000471 387.438400
   3583   3589   3590     1   109.5600471 388.275200
   3583   3589   3591     1   109.5600471 388.275200
   3584   3583   3589     1   109.8000471 387.438400
   3584   3583   3585     1   107.5800459 329.699200
   3585   3583   3589     1   109.8000471 387.438400
   3587   3586   3595     1   109.7800468 425.094400
   3587   3586   3588     1   108.4600466 328.025600
   3588   3586   3595     1   109.7800468 425.094400
   3590   3589   5252     1   109.7800468 425.094400
   3590   3589   3591     1   108.4600466 328.025600
   3591   3589   5252     1   109.7800468 425.094400
   3593   3592   5265     1   109.7800468 425.094400
   3593   3592   3594     1   108.4600466 328.025600
   3594   3592   5265     1   109.7800468 425.094400
   3596   3597   3598     1   109.8800469 414.216000
   3596   3597   3599     1   109.8800469 414.216000
   3596   3600   3601     1   109.8800469 414.216000
   3596   3600   3602     1   109.8800469 414.216000
   3596   3603   3604     1   109.8800469 414.216000
   3596   3603   3605     1   109.8800469 414.216000
   3597   3609   3610     1   109.8000471 387.438400
   3597   3609   3611     1   109.8000471 387.438400
   3598   3597   3609     1   109.5600471 388.275200
   3598   3597   3599     1   108.4600466 328.025600
   3599   3597   3609     1   109.5600471 388.275200
   3600   3612   3613     1   109.8000471 387.438400
   3600   3612   3614     1   109.8000471 387.438400
   3601   3600   3612     1   109.5600471 388.275200
   3601   3600   3602     1   108.4600466 328.025600
   3602   3600   3612     1   109.5600471 388.275200
   3603   3606   3607     1   109.8000471 387.438400
   3603   3606   3608     1   109.8000471 387.438400
   3604   3603   3606     1   109.5600471 388.275200
   3604   3603   3605     1   108.4600466 328.025600
   3605   3603   3606     1   109.5600471 388.275200
   3606   3615   3616     1   109.5600471 388.275200
   3606   3615   3617     1   109.5600471 388.275200
   3607   3606   3615     1   109.8000471 387.438400
   3607   3606   3608     1   107.5800459 329.699200
   3608   3606   3615     1   109.8000471 387.438400
   3609   3621   3622     1   109.5600471 388.275200
   3609   3621   3623     1   109.5600471 388.275200
   3610   3609   3621     1   109.8000471 387.438400
   3610   3609   3611     1   107.5800459 329.699200
   3611   3609   3621     1   109.8000471 387.438400
   3612   3618   3619     1   109.5600471 388.275200
   3612   3618   3620     1   109.5600471 388.275200
   3613   3612   3618     1   109.8000471 387.438400
   3613   3612   3614     1   107.5800459 329.699200
   3614   3612   3618     1   109.8000471 387.438400
   3616   3615   3624     1   109.7800468 425.094400
   3616   3615   3617     1   108.4600466 328.025600
   3617   3615   3624     1   109.7800468 425.094400
   3619   3618   5278     1   109.7800468 425.094400
   3619   3618   3620     1   108.4600466 328.025600
   3620   3618   5278     1   109.7800468 425.094400
   3622   3621   5291     1   109.7800468 425.094400
   3622   3621   3623     1   108.4600466 328.025600
   3623   3621   5291     1   109.7800468 425.094400
   3625   3626   3627     1   109.8800469 414.216000
   3625   3626   3628     1   109.8800469 414.216000
   3625   3629   3630     1   109.8800469 414.216000
   3625   3629   3631     1   109.8800469 414.216000
   3625   3632   3633     1   109.8800469 414.216000
   3625   3632   3634     1   109.8800469 414.216000
   3626   3638   3639     1   109.8000471 387.438400
   3626   3638   3640     1   109.8000471 387.438400
   3627   3626   3638     1   109.5600471 388.275200
   3627   3626   3628     1   108.4600466 328.025600
   3628   3626   3638     1   109.5600471 388.275200
   3629   3641   3642     1   109.8000471 387.438400
   3629   3641   3643     1   109.8000471 387.438400
   3630   3629   3641     1   109.5600471 388.275200
   3630   3629   3631     1   108.4600466 328.025600
   3631   3629   3641     1   109.5600471 388.275200
   3632   3635   3636     1   109.8000471 387.438400
   3632   3635   3637     1   109.8000471 387.438400
   3633   3632   3635     1   109.5600471 388.275200
   3633   3632   3634     1   108.4600466 328.025600
   3634   3632   3635     1   109.5600471 388.275200
   3635   3644   3645     1   109.5600471 388.275200
   3635   3644   3646     1   109.5600471 388.275200
   3636   3635   3644     1   109.8000471 387.438400
   3636   3635   3637     1   107.5800459 329.699200
   3637   3635   3644     1   109.8000471 387.438400
   3638   3650   3651     1   109.5600471 388.275200
   3638   3650   3652     1   109.5600471 388.275200
   3639   3638   3650     1   109.8000471 387.438400
   3639   3638   3640     1   107.5800459 329.699200
   3640   3638   3650     1   109.8000471 387.438400
   3641   3647   3648     1   109.5600471 388.275200
   3641   3647   3649     1   109.5600471 388.275200
   3642   3641   3647     1   109.8000471 387.438400
   3642   3641   3643     1   107.5800459 329.699200
   3643   3641   3647     1   109.8000471 387.438400
   3645   3644   3653     1   109.7800468 425.094400
   3645   3644   3646     1   108.4600466 328.025600
   3646   3644   3653     1   109.7800468 425.094400
   3648   3647   5304     1   109.7800468 425.094400
   3648   3647   3649     1   108.4600466 328.025600
   3649   3647   5304     1   109.7800468 425.094400
   3651   3650   5317     1   109.7800468 425.094400
   3651   3650   3652     1   108.4600466 328.025600
   3652   3650   5317     1   109.7800468 425.094400
   3654   3657   3658     1   109.8000471 387.438400
   3654   3657   3659     1   109.8000471 387.438400
   3654   3663   3664     1   109.2900470 396.643200
   3654   3663   3665     1   109.2900470 396.643200
   3655   3654   3657     1   109.5600471 388.275200
   3655   3654   3663     1   109.8800469 414.216000
   3655   3654   3656     1   108.4600466 328.025600
   3656   3654   3657     1   109.5600471 388.275200
   3656   3654   3663     1   109.8800469 414.216000
   3657   3660   3661     1   109.5600471 388.275200
   3657   3660   3662     1   109.5600471 388.275200
   3658   3657   3660     1   109.8000471 387.438400
   3658   3657   3659     1   107.5800459 329.699200
   3659   3657   3660     1   109.8000471 387.438400
   3661   3660   3666     1   109.7800468 425.094400
   3661   3660   3662     1   108.4600466 328.025600
   3662   3660   3666     1   109.7800468 425.094400
   3664   3663   3665     1   106.4000456 346.435200
   3667   3670   3671     1   109.8000471 387.438400
   3667   3670   3672     1   109.8000471 387.438400
   3667   3676   3677     1   109.2900470 396.643200
   3667   3676   3678     1   109.2900470 396.643200
   3668   3667   3670     1   109.5600471 388.275200
   3668   3667   3676     1   109.8800469 414.216000
   3668   3667   3669     1   108.4600466 328.025600
   3669   3667   3670     1   109.5600471 388.275200
   3669   3667   3676     1   109.8800469 414.216000
   3670   3673   3674     1   109.5600471 388.275200
   3670   3673   3675     1   109.5600471 388.275200
   3671   3670   3673     1   109.8000471 387.438400
   3671   3670   3672     1   107.5800459 329.699200
   3672   3670   3673     1   109.8000471 387.438400
   3674   3673   3679     1   109.7800468 425.094400
   3674   3673   3675     1   108.4600466 328.025600
   3675   3673   3679     1   109.7800468 425.094400
   3677   3676   3678     1   106.4000456 346.435200
   3680   3683   3684     1   109.8000471 387.438400
   3680   3683   3685     1   109.8000471 387.438400
   3680   3689   3690     1   109.2900470 396.643200
   3680   3689   3691     1   109.2900470 396.643200
   3681   3680   3683     1   109.5600471 388.275200
   3681   3680   3689     1   109.8800469 414.216000
   3681   3680   3682     1   108.4600466 328.025600
   3682   3680   3683     1   109.5600471 388.275200
   3682   3680   3689     1   109.8800469 414.216000
   3683   3686   3687     1   109.5600471 388.275200
   3683   3686   3688     1   109.5600471 388.275200
   3684   3683   3686     1   109.8000471 387.438400
   3684   3683   3685     1   107.5800459 329.699200
   3685   3683   3686     1   109.8000471 387.438400
   3687   3686   3692     1   109.7800468 425.094400
   3687   3686   3688     1   108.4600466 328.025600
   3688   3686   3692     1   109.7800468 425.094400
   3690   3689   3691     1   106.4000456 346.435200
   3693   3696   3697     1   109.8000471 387.438400
   3693   3696   3698     1   109.8000471 387.438400
   3693   3702   3703     1   109.2900470 396.643200
   3693   3702   3704     1   109.2900470 396.643200
   3694   3693   3696     1   109.5600471 388.275200
   3694   3693   3702     1   109.8800469 414.216000
   3694   3693   3695     1   108.4600466 328.025600
   3695   3693   3696     1   109.5600471 388.275200
   3695   3693   3702     1   109.8800469 414.216000
   3696   3699   3700     1   109.5600471 388.275200
   3696   3699   3701     1   109.5600471 388.275200
   3697   3696   3699     1   109.8000471 387.438400
   3697   3696   3698     1   107.5800459 329.699200
   3698   3696   3699     1   109.8000471 387.438400
   3700   3699   3705     1   109.7800468 425.094400
   3700   3699   3701     1   108.4600466 328.025600
   3701   3699   3705     1   109.7800468 425.094400
   3703   3702   3704     1   106.4000456 346.435200
   3706   3709   3710     1   109.8000471 387.438400
   3706   3709   3711     1   109.8000471 387.438400
   3706   3715   3716     1   109.2900470 396.643200
   3706   3715   3717     1   109.2900470 396.643200
   3707   3706   3709     1   109.5600471 388.275200
   3707   3706   3715     1   109.8800469 414.216000
   3707   3706   3708     1   108.4600466 328.025600
   3708   3706   3709     1   109.5600471 388.275200
   3708   3706   3715     1   109.8800469 414.216000
   3709   3712   3713     1   109.5600471 388.275200
   3709   3712   3714     1   109.5600471 388.275200
   3710   3709   3712     1   109.8000471 387.438400
   3710   3709   3711     1   107.5800459 329.699200
   3711   3709   3712     1   109.8000471 387.438400
   3713   3712   3718     1   109.7800468 425.094400
   3713   3712   3714     1   108.4600466 328.025600
   3714   3712   3718     1   109.7800468 425.094400
   3716   3715   3717     1   106.4000456 346.435200
   3719   3722   3723     1   109.8000471 387.438400
   3719   3722   3724     1   109.8000471 387.438400
   3719   3728   3729     1   109.2900470 396.643200
   3719   3728   3730     1   109.2900470 396.643200
   3720   3719   3722     1   109.5600471 388.275200
   3720   3719   3728     1   109.8800469 414.216000
   3720   3719   3721     1   108.4600466 328.025600
   3721   3719   3722     1   109.5600471 388.275200
   3721   3719   3728     1   109.8800469 414.216000
   3722   3725   3726     1   109.5600471 388.275200
   3722   3725   3727     1   109.5600471 388.275200
   3723   3722   3725     1   109.8000471 387.438400
   3723   3722   3724     1   107.5800459 329.699200
   3724   3722   3725     1   109.8000471 387.438400
   3726   3725   3731     1   109.7800468 425.094400
   3726   3725   3727     1   108.4600466 328.025600
   3727   3725   3731     1   109.7800468 425.094400
   3729   3728   3730     1   106.4000456 346.435200
   3732   3735   3736     1   109.8000471 387.438400
   3732   3735   3737     1   109.8000471 387.438400
   3732   3741   3742     1   109.2900470 396.643200
   3732   3741   3743     1   109.2900470 396.643200
   3733   3732   3735     1   109.5600471 388.275200
   3733   3732   3741     1   109.8800469 414.216000
   3733   3732   3734     1   108.4600466 328.025600
   3734   3732   3735     1   109.5600471 388.275200
   3734   3732   3741     1   109.8800469 414.216000
   3735   3738   3739     1   109.5600471 388.275200
   3735   3738   3740     1   109.5600471 388.275200
   3736   3735   3738     1   109.8000471 387.438400
   3736   3735   3737     1   107.5800459 329.699200
   3737   3735   3738     1   109.8000471 387.438400
   3739   3738   3744     1   109.7800468 425.094400
   3739   3738   3740     1   108.4600466 328.025600
   3740   3738   3744     1   109.7800468 425.094400
   3742   3741   3743     1   106.4000456 346.435200
   3745   3748   3749     1   109.8000471 387.438400
   3745   3748   3750     1   109.8000471 387.438400
   3745   3754   3755     1   109.2900470 396.643200
   3745   3754   3756     1   109.2900470 396.643200
   3746   3745   3748     1   109.5600471 388.275200
   3746   3745   3754     1   109.8800469 414.216000
   3746   3745   3747     1   108.4600466 328.025600
   3747   3745   3748     1   109.5600471 388.275200
   3747   3745   3754     1   109.8800469 414.216000
   3748   3751   3752     1   109.5600471 388.275200
   3748   3751   3753     1   109.5600471 388.275200
   3749   3748   3751     1   109.8000471 387.438400
   3749   3748   3750     1   107.5800459 329.699200
   3750   3748   3751     1   109.8000471 387.438400
   3752   3751   3757     1   109.7800468 425.094400
   3752   3751   3753     1   108.4600466 328.025600
   3753   3751   3757     1   109.7800468 425.094400
   3755   3754   3756     1   106.4000456 346.435200
   3758   3761   3762     1   109.8000471 387.438400
   3758   3761   3763     1   109.8000471 387.438400
   3758   3767   3768     1   109.2900470 396.643200
   3758   3767   3769     1   109.2900470 396.643200
   3759   3758   3761     1   109.5600471 388.275200
   3759   3758   3767     1   109.8800469 414.216000
   3759   3758   3760     1   108.4600466 328.025600
   3760   3758   3761     1   109.5600471 388.275200
   3760   3758   3767     1   109.8800469 414.216000
   3761   3764   3765     1   109.5600471 388.275200
   3761   3764   3766     1   109.5600471 388.275200
   3762   3761   3764     1   109.8000471 387.438400
   3762   3761   3763     1   107.5800459 329.699200
   3763   3761   3764     1   109.8000471 387.438400
   3765   3764   3770     1   109.7800468 425.094400
   3765   3764   3766     1   108.4600466 328.025600
   3766   3764   3770     1   109.7800468 425.094400
   3768   3767   3769     1   106.4000456 346.435200
   3771   3774   3775     1   109.8000471 387.438400
   3771   3774   3776     1   109.8000471 387.438400
   3771   3780   3781     1   109.2900470 396.643200
   3771   3780   3782     1   109.2900470 396.643200
   3772   3771   3774     1   109.5600471 388.275200
   3772   3771   3780     1   109.8800469 414.216000
   3772   3771   3773     1   108.4600466 328.025600
   3773   3771   3774     1   109.5600471 388.275200
   3773   3771   3780     1   109.8800469 414.216000
   3774   3777   3778     1   109.5600471 388.275200
   3774   3777   3779     1   109.5600471 388.275200
   3775   3774   3777     1   109.8000471 387.438400
   3775   3774   3776     1   107.5800459 329.699200
   3776   3774   3777     1   109.8000471 387.438400
   3778   3777   3783     1   109.7800468 425.094400
   3778   3777   3779     1   108.4600466 328.025600
   3779   3777   3783     1   109.7800468 425.094400
   3781   3780   3782     1   106.4000456 346.435200
   3784   3787   3788     1   109.8000471 387.438400
   3784   3787   3789     1   109.8000471 387.438400
   3784   3793   3794     1   109.2900470 396.643200
   3784   3793   3795     1   109.2900470 396.643200
   3785   3784   3787     1   109.5600471 388.275200
   3785   3784   3793     1   109.8800469 414.216000
   3785   3784   3786     1   108.4600466 328.025600
   3786   3784   3787     1   109.5600471 388.275200
   3786   3784   3793     1   109.8800469 414.216000
   3787   3790   3791     1   109.5600471 388.275200
   3787   3790   3792     1   109.5600471 388.275200
   3788   3787   3790     1   109.8000471 387.438400
   3788   3787   3789     1   107.5800459 329.699200
   3789   3787   3790     1   109.8000471 387.438400
   3791   3790   3796     1   109.7800468 425.094400
   3791   3790   3792     1   108.4600466 328.025600
   3792   3790   3796     1   109.7800468 425.094400
   3794   3793   3795     1   106.4000456 346.435200
   3797   3800   3801     1   109.8000471 387.438400
   3797   3800   3802     1   109.8000471 387.438400
   3797   3806   3807     1   109.2900470 396.643200
   3797   3806   3808     1   109.2900470 396.643200
   3798   3797   3800     1   109.5600471 388.275200
   3798   3797   3806     1   109.8800469 414.216000
   3798   3797   3799     1   108.4600466 328.025600
   3799   3797   3800     1   109.5600471 388.275200
   3799   3797   3806     1   109.8800469 414.216000
   3800   3803   3804     1   109.5600471 388.275200
   3800   3803   3805     1   109.5600471 388.275200
   3801   3800   3803     1   109.8000471 387.438400
   3801   3800   3802     1   107.5800459 329.699200
   3802   3800   3803     1   109.8000471 387.438400
   3804   3803   3809     1   109.7800468 425.094400
   3804   3803   3805     1   108.4600466 328.025600
   3805   3803   3809     1   109.7800468 425.094400
   3807   3806   3808     1   106.4000456 346.435200
   3810   3813   3814     1   109.8000471 387.438400
   3810   3813   3815     1   109.8000471 387.438400
   3810   3819   3820     1   109.2900470 396.643200
   3810   3819   3821     1   109.2900470 396.643200
   3811   3810   3813     1   109.5600471 388.275200
   3811   3810   3819     1   109.8800469 414.216000
   3811   3810   3812     1   108.4600466 328.025600
   3812   3810   3813     1   109.5600471 388.275200
   3812   3810   3819     1   109.8800469 414.216000
   3813   3816   3817     1   109.5600471 388.275200
   3813   3816   3818     1   109.5600471 388.275200
   3814   3813   3816     1   109.8000471 387.438400
   3814   3813   3815     1   107.5800459 329.699200
   3815   3813   3816     1   109.8000471 387.438400
   3817   3816   3822     1   109.7800468 425.094400
   3817   3816   3818     1   108.4600466 328.025600
   3818   3816   3822     1   109.7800468 425.094400
   3820   3819   3821     1   106.4000456 346.435200
   3823   3826   3827     1   109.8000471 387.438400
   3823   3826   3828     1   109.8000471 387.438400
   3823   3832   3833     1   109.2900470 396.643200
   3823   3832   3834     1   109.2900470 396.643200
   3824   3823   3826     1   109.5600471 388.275200
   3824   3823   3832     1   109.8800469 414.216000
   3824   3823   3825     1   108.4600466 328.025600
   3825   3823   3826     1   109.5600471 388.275200
   3825   3823   3832     1   109.8800469 414.216000
   3826   3829   3830     1   109.5600471 388.275200
   3826   3829   3831     1   109.5600471 388.275200
   3827   3826   3829     1   109.8000471 387.438400
   3827   3826   3828     1   107.5800459 329.699200
   3828   3826   3829     1   109.8000471 387.438400
   3830   3829   3835     1   109.7800468 425.094400
   3830   3829   3831     1   108.4600466 328.025600
   3831   3829   3835     1   109.7800468 425.094400
   3833   3832   3834     1   106.4000456 346.435200
   3836   3839   3840     1   109.8000471 387.438400
   3836   3839   3841     1   109.8000471 387.438400
   3836   3845   3846     1   109.2900470 396.643200
   3836   3845   3847     1   109.2900470 396.643200
   3837   3836   3839     1   109.5600471 388.275200
   3837   3836   3845     1   109.8800469 414.216000
   3837   3836   3838     1   108.4600466 328.025600
   3838   3836   3839     1   109.5600471 388.275200
   3838   3836   3845     1   109.8800469 414.216000
   3839   3842   3843     1   109.5600471 388.275200
   3839   3842   3844     1   109.5600471 388.275200
   3840   3839   3842     1   109.8000471 387.438400
   3840   3839   3841     1   107.5800459 329.699200
   3841   3839   3842     1   109.8000471 387.438400
   3843   3842   3848     1   109.7800468 425.094400
   3843   3842   3844     1   108.4600466 328.025600
   3844   3842   3848     1   109.7800468 425.094400
   3846   3845   3847     1   106.4000456 346.435200
   3849   3852   3853     1   109.8000471 387.438400
   3849   3852   3854     1   109.8000471 387.438400
   3849   3858   3859     1   109.2900470 396.643200
   3849   3858   3860     1   109.2900470 396.643200
   3850   3849   3852     1   109.5600471 388.275200
   3850   3849   3858     1   109.8800469 414.216000
   3850   3849   3851     1   108.4600466 328.025600
   3851   3849   3852     1   109.5600471 388.275200
   3851   3849   3858     1   109.8800469 414.216000
   3852   3855   3856     1   109.5600471 388.275200
   3852   3855   3857     1   109.5600471 388.275200
   3853   3852   3855     1   109.8000471 387.438400
   3853   3852   3854     1   107.5800459 329.699200
   3854   3852   3855     1   109.8000471 387.438400
   3856   3855   3861     1   109.7800468 425.094400
   3856   3855   3857     1   108.4600466 328.025600
   3857   3855   3861     1   109.7800468 425.094400
   3859   3858   3860     1   106.4000456 346.435200
   3862   3865   3866     1   109.8000471 387.438400
   3862   3865   3867     1   109.8000471 387.438400
   3862   3871   3872     1   109.2900470 396.643200
   3862   3871   3873     1   109.2900470 396.643200
   3863   3862   3865     1   109.5600471 388.275200
   3863   3862   3871     1   109.8800469 414.216000
   3863   3862   3864     1   108.4600466 328.025600
   3864   3862   3865     1   109.5600471 388.275200
   3864   3862   3871     1   109.8800469 414.216000
   3865   3868   3869     1   109.5600471 388.275200
   3865   3868   3870     1   109.5600471 388.275200
   3866   3865   3868     1   109.8000471 387.438400
   3866   3865   3867     1   107.5800459 329.699200
   3867   3865   3868     1   109.8000471 387.438400
   3869   3868   3874     1   109.7800468 425.094400
   3869   3868   3870     1   108.4600466 328.025600
   3870   3868   3874     1   109.7800468 425.094400
   3872   3871   3873     1   106.4000456 346.435200
   3875   3878   3879     1   109.8000471 387.438400
   3875   3878   3880     1   109.8000471 387.438400
   3875   3884   3885     1   109.2900470 396.643200
   3875   3884   3886     1   109.2900470 396.643200
   3876   3875   3878     1   109.5600471 388.275200
   3876   3875   3884     1   109.8800469 414.216000
   3876   3875   3877     1   108.4600466 328.025600
   3877   3875   3878     1   109.5600471 388.275200
   3877   3875   3884     1   109.8800469 414.216000
   3878   3881   3882     1   109.5600471 388.275200
   3878   3881   3883     1   109.5600471 388.275200
   3879   3878   3881     1   109.8000471 387.438400
   3879   3878   3880     1   107.5800459 329.699200
   3880   3878   3881     1   109.8000471 387.438400
   3882   3881   3887     1   109.7800468 425.094400
   3882   3881   3883     1   108.4600466 328.025600
   3883   3881   3887     1   109.7800468 425.094400
   3885   3884   3886     1   106.4000456 346.435200
   3888   3891   3892     1   109.8000471 387.438400
   3888   3891   3893     1   109.8000471 387.438400
   3888   3897   3898     1   109.2900470 396.643200
   3888   3897   3899     1   109.2900470 396.643200
   3889   3888   3891     1   109.5600471 388.275200
   3889   3888   3897     1   109.8800469 414.216000
   3889   3888   3890     1   108.4600466 328.025600
   3890   3888   3891     1   109.5600471 388.275200
   3890   3888   3897     1   109.8800469 414.216000
   3891   3894   3895     1   109.5600471 388.275200
   3891   3894   3896     1   109.5600471 388.275200
   3892   3891   3894     1   109.8000471 387.438400
   3892   3891   3893     1   107.5800459 329.699200
   3893   3891   3894     1   109.8000471 387.438400
   3895   3894   3900     1   109.7800468 425.094400
   3895   3894   3896     1   108.4600466 328.025600
   3896   3894   3900     1   109.7800468 425.094400
   3898   3897   3899     1   106.4000456 346.435200
   3901   3904   3905     1   109.8000471 387.438400
   3901   3904   3906     1   109.8000471 387.438400
   3901   3910   3911     1   109.2900470 396.643200
   3901   3910   3912     1   109.2900470 396.643200
   3902   3901   3904     1   109.5600471 388.275200
   3902   3901   3910     1   109.8800469 414.216000
   3902   3901   3903     1   108.4600466 328.025600
   3903   3901   3904     1   109.5600471 388.275200
   3903   3901   3910     1   109.8800469 414.216000
   3904   3907   3908     1   109.5600471 388.275200
   3904   3907   3909     1   109.5600471 388.275200
   3905   3904   3907     1   109.8000471 387.438400
   3905   3904   3906     1   107.5800459 329.699200
   3906   3904   3907     1   109.8000471 387.438400
   3908   3907   3913     1   109.7800468 425.094400
   3908   3907   3909     1   108.4600466 328.025600
   3909   3907   3913     1   109.7800468 425.094400
   3911   3910   3912     1   106.4000456 346.435200
   3914   3917   3918     1   109.8000471 387.438400
   3914   3917   3919     1   109.8000471 387.438400
   3914   3923   3924     1   109.2900470 396.643200
   3914   3923   3925     1   109.2900470 396.643200
   3915   3914   3917     1   109.5600471 388.275200
   3915   3914   3923     1   109.8800469 414.216000
   3915   3914   3916     1   108.4600466 328.025600
   3916   3914   3917     1   109.5600471 388.275200
   3916   3914   3923     1   109.8800469 414.216000
   3917   3920   3921     1   109.5600471 388.275200
   3917   3920   3922     1   109.5600471 388.275200
   3918   3917   3920     1   109.8000471 387.438400
   3918   3917   3919     1   107.5800459 329.699200
   3919   3917   3920     1   109.8000471 387.438400
   3921   3920   3926     1   109.7800468 425.094400
   3921   3920   3922     1   108.4600466 328.025600
   3922   3920   3926     1   109.7800468 425.094400
   3924   3923   3925     1   106.4000456 346.435200
   3927   3930   3931     1   109.8000471 387.438400
   3927   3930   3932     1   109.8000471 387.438400
   3927   3936   3937     1   109.2900470 396.643200
   3927   3936   3938     1   109.2900470 396.643200
   3928   3927   3930     1   109.5600471 388.275200
   3928   3927   3936     1   109.8800469 414.216000
   3928   3927   3929     1   108.4600466 328.025600
   3929   3927   3930     1   109.5600471 388.275200
   3929   3927   3936     1   109.8800469 414.216000
   3930   3933   3934     1   109.5600471 388.275200
   3930   3933   3935     1   109.5600471 388.275200
   3931   3930   3933     1   109.8000471 387.438400
   3931   3930   3932     1   107.5800459 329.699200
   3932   3930   3933     1   109.8000471 387.438400
   3934   3933   3939     1   109.7800468 425.094400
   3934   3933   3935     1   108.4600466 328.025600
   3935   3933   3939     1   109.7800468 425.094400
   3937   3936   3938     1   106.4000456 346.435200
   3940   3943   3944     1   109.8000471 387.438400
   3940   3943   3945     1   109.8000471 387.438400
   3940   3949   3950     1   109.2900470 396.643200
   3940   3949   3951     1   109.2900470 396.643200
   3941   3940   3943     1   109.5600471 388.275200
   3941   3940   3949     1   109.8800469 414.216000
   3941   3940   3942     1   108.4600466 328.025600
   3942   3940   3943     1   109.5600471 388.275200
   3942   3940   3949     1   109.8800469 414.216000
   3943   3946   3947     1   109.5600471 388.275200
   3943   3946   3948     1   109.5600471 388.275200
   3944   3943   3946     1   109.8000471 387.438400
   3944   3943   3945     1   107.5800459 329.699200
   3945   3943   3946     1   109.8000471 387.438400
   3947   3946   3952     1   109.7800468 425.094400
   3947   3946   3948     1   108.4600466 328.025600
   3948   3946   3952     1   109.7800468 425.094400
   3950   3949   3951     1   106.4000456 346.435200
   3953   3956   3957     1   109.8000471 387.438400
   3953   3956   3958     1   109.8000471 387.438400
   3953   3962   3963     1   109.2900470 396.643200
   3953   3962   3964     1   109.2900470 396.643200
   3954   3953   3956     1   109.5600471 388.275200
   3954   3953   3962     1   109.8800469 414.216000
   3954   3953   3955     1   108.4600466 328.025600
   3955   3953   3956     1   109.5600471 388.275200
   3955   3953   3962     1   109.8800469 414.216000
   3956   3959   3960     1   109.5600471 388.275200
   3956   3959   3961     1   109.5600471 388.275200
   3957   3956   3959     1   109.8000471 387.438400
   3957   3956   3958     1   107.5800459 329.699200
   3958   3956   3959     1   109.8000471 387.438400
   3960   3959   3965     1   109.7800468 425.094400
   3960   3959   3961     1   108.4600466 328.025600
   3961   3959   3965     1   109.7800468 425.094400
   3963   3962   3964     1   106.4000456 346.435200
   3966   3969   3970     1   109.8000471 387.438400
   3966   3969   3971     1   109.8000471 387.438400
   3966   3975   3976     1   109.2900470 396.643200
   3966   3975   3977     1   109.2900470 396.643200
   3967   3966   3969     1   109.5600471 388.275200
   3967   3966   3975     1   109.8800469 414.216000
   3967   3966   3968     1   108.4600466 328.025600
   3968   3966   3969     1   109.5600471 388.275200
   3968   3966   3975     1   109.8800469 414.216000
   3969   3972   3973     1   109.5600471 388.275200
   3969   3972   3974     1   109.5600471 388.275200
   3970   3969   3972     1   109.8000471 387.438400
   3970   3969   3971     1   107.5800459 329.699200
   3971   3969   3972     1   109.8000471 387.438400
   3973   3972   3978     1   109.7800468 425.094400
   3973   3972   3974     1   108.4600466 328.025600
   3974   3972   3978     1   109.7800468 425.094400
   3976   3975   3977     1   106.4000456 346.435200
   3979   3982   3983     1   109.8000471 387.438400
   3979   3982   3984     1   109.8000471 387.438400
   3979   3988   3989     1   109.2900470 396.643200
   3979   3988   3990     1   109.2900470 396.643200
   3980   3979   3982     1   109.5600471 388.275200
   3980   3979   3988     1   109.8800469 414.216000
   3980   3979   3981     1   108.4600466 328.025600
   3981   3979   3982     1   109.5600471 388.275200
   3981   3979   3988     1   109.8800469 414.216000
   3982   3985   3986     1   109.5600471 388.275200
   3982   3985   3987     1   109.5600471 388.275200
   3983   3982   3985     1   109.8000471 387.438400
   3983   3982   3984     1   107.5800459 329.699200
   3984   3982   3985     1   109.8000471 387.438400
   3986   3985   3991     1   109.7800468 425.094400
   3986   3985   3987     1   108.4600466 328.025600
   3987   3985   3991     1   109.7800468 425.094400
   3989   3988   3990     1   106.4000456 346.435200
   3992   3995   3996     1   109.8000471 387.438400
   3992   3995   3997     1   109.8000471 387.438400
   3992   4001   4002     1   109.2900470 396.643200
   3992   4001   4003     1   109.2900470 396.643200
   3993   3992   3995     1   109.5600471 388.275200
   3993   3992   4001     1   109.8800469 414.216000
   3993   3992   3994     1   108.4600466 328.025600
   3994   3992   3995     1   109.5600471 388.275200
   3994   3992   4001     1   109.8800469 414.216000
   3995   3998   3999     1   109.5600471 388.275200
   3995   3998   4000     1   109.5600471 388.275200
   3996   3995   3998     1   109.8000471 387.438400
   3996   3995   3997     1   107.5800459 329.699200
   3997   3995   3998     1   109.8000471 387.438400
   3999   3998   4004     1   109.7800468 425.094400
   3999   3998   4000     1   108.4600466 328.025600
   4000   3998   4004     1   109.7800468 425.094400
   4002   4001   4003     1   106.4000456 346.435200
   4005   4008   4009     1   109.8000471 387.438400
   4005   4008   4010     1   109.8000471 387.438400
   4005   4014   4015     1   109.2900470 396.643200
   4005   4014   4016     1   109.2900470 396.643200
   4006   4005   4008     1   109.5600471 388.275200
   4006   4005   4014     1   109.8800469 414.216000
   4006   4005   4007     1   108.4600466 328.025600
   4007   4005   4008     1   109.5600471 388.275200
   4007   4005   4014     1   109.8800469 414.216000
   4008   4011   4012     1   109.5600471 388.275200
   4008   4011   4013     1   109.5600471 388.275200
   4009   4008   4011     1   109.8000471 387.438400
   4009   4008   4010     1   107.5800459 329.699200
   4010   4008   4011     1   109.8000471 387.438400
   4012   4011   4017     1   109.7800468 425.094400
   4012   4011   4013     1   108.4600466 328.025600
   4013   4011   4017     1   109.7800468 425.094400
   4015   4014   4016     1   106.4000456 346.435200
   4018   4021   4022     1   109.8000471 387.438400
   4018   4021   4023     1   109.8000471 387.438400
   4018   4027   4028     1   109.2900470 396.643200
   4018   4027   4029     1   109.2900470 396.643200
   4019   4018   4021     1   109.5600471 388.275200
   4019   4018   4027     1   109.8800469 414.216000
   4019   4018   4020     1   108.4600466 328.025600
   4020   4018   4021     1   109.5600471 388.275200
   4020   4018   4027     1   109.8800469 414.216000
   4021   4024   4025     1   109.5600471 388.275200
   4021   4024   4026     1   109.5600471 388.275200
   4022   4021   4024     1   109.8000471 387.438400
   4022   4021   4023     1   107.5800459 329.699200
   4023   4021   4024     1   109.8000471 387.438400
   4025   4024   4030     1   109.7800468 425.094400
   4025   4024   4026     1   108.4600466 328.025600
   4026   4024   4030     1   109.7800468 425.094400
   4028   4027   4029     1   106.4000456 346.435200
   4031   4034   4035     1   109.8000471 387.438400
   4031   4034   4036     1   109.8000471 387.438400
   4031   4040   4041     1   109.2900470 396.643200
   4031   4040   4042     1   109.2900470 396.643200
   4032   4031   4034     1   109.5600471 388.275200
   4032   4031   4040     1   109.8800469 414.216000
   4032   4031   4033     1   108.4600466 328.025600
   4033   4031   4034     1   109.5600471 388.275200
   4033   4031   4040     1   109.8800469 414.216000
   4034   4037   4038     1   109.5600471 388.275200
   4034   4037   4039     1   109.5600471 388.275200
   4035   4034   4037     1   109.8000471 387.438400
   4035   4034   4036     1   107.5800459 329.699200
   4036   4034   4037     1   109.8000471 387.438400
   4038   4037   4043     1   109.7800468 425.094400
   4038   4037   4039     1   108.4600466 328.025600
   4039   4037   4043     1   109.7800468 425.094400
   4041   4040   4042     1   106.4000456 346.435200
   4044   4047   4048     1   109.8000471 387.438400
   4044   4047   4049     1   109.8000471 387.438400
   4044   4053   4054     1   109.2900470 396.643200
   4044   4053   4055     1   109.2900470 396.643200
   4045   4044   4047     1   109.5600471 388.275200
   4045   4044   4053     1   109.8800469 414.216000
   4045   4044   4046     1   108.4600466 328.025600
   4046   4044   4047     1   109.5600471 388.275200
   4046   4044   4053     1   109.8800469 414.216000
   4047   4050   4051     1   109.5600471 388.275200
   4047   4050   4052     1   109.5600471 388.275200
   4048   4047   4050     1   109.8000471 387.438400
   4048   4047   4049     1   107.5800459 329.699200
   4049   4047   4050     1   109.8000471 387.438400
   4051   4050   4056     1   109.7800468 425.094400
   4051   4050   4052     1   108.4600466 328.025600
   4052   4050   4056     1   109.7800468 425.094400
   4054   4053   4055     1   106.4000456 346.435200
   4057   4060   4061     1   109.8000471 387.438400
   4057   4060   4062     1   109.8000471 387.438400
   4057   4066   4067     1   109.2900470 396.643200
   4057   4066   4068     1   109.2900470 396.643200
   4058   4057   4060     1   109.5600471 388.275200
   4058   4057   4066     1   109.8800469 414.216000
   4058   4057   4059     1   108.4600466 328.025600
   4059   4057   4060     1   109.5600471 388.275200
   4059   4057   4066     1   109.8800469 414.216000
   4060   4063   4064     1   109.5600471 388.275200
   4060   4063   4065     1   109.5600471 388.275200
   4061   4060   4063     1   109.8000471 387.438400
   4061   4060   4062     1   107.5800459 329.699200
   4062   4060   4063     1   109.8000471 387.438400
   4064   4063   4069     1   109.7800468 425.094400
   4064   4063   4065     1   108.4600466 328.025600
   4065   4063   4069     1   109.7800468 425.094400
   4067   4066   4068     1   106.4000456 346.435200
   4070   4073   4074     1   109.8000471 387.438400
   4070   4073   4075     1   109.8000471 387.438400
   4070   4079   4080     1   109.2900470 396.643200
   4070   4079   4081     1   109.2900470 396.643200
   4071   4070   4073     1   109.5600471 388.275200
   4071   4070   4079     1   109.8800469 414.216000
   4071   4070   4072     1   108.4600466 328.025600
   4072   4070   4073     1   109.5600471 388.275200
   4072   4070   4079     1   109.8800469 414.216000
   4073   4076   4077     1   109.5600471 388.275200
   4073   4076   4078     1   109.5600471 388.275200
   4074   4073   4076     1   109.8000471 387.438400
   4074   4073   4075     1   107.5800459 329.699200
   4075   4073   4076     1   109.8000471 387.438400
   4077   4076   4082     1   109.7800468 425.094400
   4077   4076   4078     1   108.4600466 328.025600
   4078   4076   4082     1   109.7800468 425.094400
   4080   4079   4081     1   106.4000456 346.435200
   4083   4086   4087     1   109.8000471 387.438400
   4083   4086   4088     1   109.8000471 387.438400
   4083   4092   4093     1   109.2900470 396.643200
   4083   4092   4094     1   109.2900470 396.643200
   4084   4083   4086     1   109.5600471 388.275200
   4084   4083   4092     1   109.8800469 414.216000
   4084   4083   4085     1   108.4600466 328.025600
   4085   4083   4086     1   109.5600471 388.275200
   4085   4083   4092     1   109.8800469 414.216000
   4086   4089   4090     1   109.5600471 388.275200
   4086   4089   4091     1   109.5600471 388.275200
   4087   4086   4089     1   109.8000471 387.438400
   4087   4086   4088     1   107.5800459 329.699200
   4088   4086   4089     1   109.8000471 387.438400
   4090   4089   4095     1   109.7800468 425.094400
   4090   4089   4091     1   108.4600466 328.025600
   4091   4089   4095     1   109.7800468 425.094400
   4093   4092   4094     1   106.4000456 346.435200
   4096   4099   4100     1   109.8000471 387.438400
   4096   4099   4101     1   109.8000471 387.438400
   4096   4105   4106     1   109.2900470 396.643200
   4096   4105   4107     1   109.2900470 396.643200
   4097   4096   4099     1   109.5600471 388.275200
   4097   4096   4105     1   109.8800469 414.216000
   4097   4096   4098     1   108.4600466 328.025600
   4098   4096   4099     1   109.5600471 388.275200
   4098   4096   4105     1   109.8800469 414.216000
   4099   4102   4103     1   109.5600471 388.275200
   4099   4102   4104     1   109.5600471 388.275200
   4100   4099   4102     1   109.8000471 387.438400
   4100   4099   4101     1   107.5800459 329.699200
   4101   4099   4102     1   109.8000471 387.438400
   4103   4102   4108     1   109.7800468 425.094400
   4103   4102   4104     1   108.4600466 328.025600
   4104   4102   4108     1   109.7800468 425.094400
   4106   4105   4107     1   106.4000456 346.435200
   4109   4112   4113     1   109.8000471 387.438400
   4109   4112   4114     1   109.8000471 387.438400
   4109   4118   4119     1   109.2900470 396.643200
   4109   4118   4120     1   109.2900470 396.643200
   4110   4109   4112     1   109.5600471 388.275200
   4110   4109   4118     1   109.8800469 414.216000
   4110   4109   4111     1   108.4600466 328.025600
   4111   4109   4112     1   109.5600471 388.275200
   4111   4109   4118     1   109.8800469 414.216000
   4112   4115   4116     1   109.5600471 388.275200
   4112   4115   4117     1   109.5600471 388.275200
   4113   4112   4115     1   109.8000471 387.438400
   4113   4112   4114     1   107.5800459 329.699200
   4114   4112   4115     1   109.8000471 387.438400
   4116   4115   4121     1   109.7800468 425.094400
   4116   4115   4117     1   108.4600466 328.025600
   4117   4115   4121     1   109.7800468 425.094400
   4119   4118   4120     1   106.4000456 346.435200
   4122   4125   4126     1   109.8000471 387.438400
   4122   4125   4127     1   109.8000471 387.438400
   4122   4131   4132     1   109.2900470 396.643200
   4122   4131   4133     1   109.2900470 396.643200
   4123   4122   4125     1   109.5600471 388.275200
   4123   4122   4131     1   109.8800469 414.216000
   4123   4122   4124     1   108.4600466 328.025600
   4124   4122   4125     1   109.5600471 388.275200
   4124   4122   4131     1   109.8800469 414.216000
   4125   4128   4129     1   109.5600471 388.275200
   4125   4128   4130     1   109.5600471 388.275200
   4126   4125   4128     1   109.8000471 387.438400
   4126   4125   4127     1   107.5800459 329.699200
   4127   4125   4128     1   109.8000471 387.438400
   4129   4128   4134     1   109.7800468 425.094400
   4129   4128   4130     1   108.4600466 328.025600
   4130   4128   4134     1   109.7800468 425.094400
   4132   4131   4133     1   106.4000456 346.435200
   4135   4138   4139     1   109.8000471 387.438400
   4135   4138   4140     1   109.8000471 387.438400
   4135   4144   4145     1   109.2900470 396.643200
   4135   4144   4146     1   109.2900470 396.643200
   4136   4135   4138     1   109.5600471 388.275200
   4136   4135   4144     1   109.8800469 414.216000
   4136   4135   4137     1   108.4600466 328.025600
   4137   4135   4138     1   109.5600471 388.275200
   4137   4135   4144     1   109.8800469 414.216000
   4138   4141   4142     1   109.5600471 388.275200
   4138   4141   4143     1   109.5600471 388.275200
   4139   4138   4141     1   109.8000471 387.438400
   4139   4138   4140     1   107.5800459 329.699200
   4140   4138   4141     1   109.8000471 387.438400
   4142   4141   4147     1   109.7800468 425.094400
   4142   4141   4143     1   108.4600466 328.025600
   4143   4141   4147     1   109.7800468 425.094400
   4145   4144   4146     1   106.4000456 346.435200
   4148   4151   4152     1   109.8000471 387.438400
   4148   4151   4153     1   109.8000471 387.438400
   4148   4157   4158     1   109.2900470 396.643200
   4148   4157   4159     1   109.2900470 396.643200
   4149   4148   4151     1   109.5600471 388.275200
   4149   4148   4157     1   109.8800469 414.216000
   4149   4148   4150     1   108.4600466 328.025600
   4150   4148   4151     1   109.5600471 388.275200
   4150   4148   4157     1   109.8800469 414.216000
   4151   4154   4155     1   109.5600471 388.275200
   4151   4154   4156     1   109.5600471 388.275200
   4152   4151   4154     1   109.8000471 387.438400
   4152   4151   4153     1   107.5800459 329.699200
   4153   4151   4154     1   109.8000471 387.438400
   4155   4154   4160     1   109.7800468 425.094400
   4155   4154   4156     1   108.4600466 328.025600
   4156   4154   4160     1   109.7800468 425.094400
   4158   4157   4159     1   106.4000456 346.435200
   4161   4164   4165     1   109.8000471 387.438400
   4161   4164   4166     1   109.8000471 387.438400
   4161   4170   4171     1   109.2900470 396.643200
   4161   4170   4172     1   109.2900470 396.643200
   4162   4161   4164     1   109.5600471 388.275200
   4162   4161   4170     1   109.8800469 414.216000
   4162   4161   4163     1   108.4600466 328.025600
   4163   4161   4164     1   109.5600471 388.275200
   4163   4161   4170     1   109.8800469 414.216000
   4164   4167   4168     1   109.5600471 388.275200
   4164   4167   4169     1   109.5600471 388.275200
   4165   4164   4167     1   109.8000471 387.438400
   4165   4164   4166     1   107.5800459 329.699200
   4166   4164   4167     1   109.8000471 387.438400
   4168   4167   4173     1   109.7800468 425.094400
   4168   4167   4169     1   108.4600466 328.025600
   4169   4167   4173     1   109.7800468 425.094400
   4171   4170   4172     1   106.4000456 346.435200
   4174   4177   4178     1   109.8000471 387.438400
   4174   4177   4179     1   109.8000471 387.438400
   4174   4183   4184     1   109.2900470 396.643200
   4174   4183   4185     1   109.2900470 396.643200
   4175   4174   4177     1   109.5600471 388.275200
   4175   4174   4183     1   109.8800469 414.216000
   4175   4174   4176     1   108.4600466 328.025600
   4176   4174   4177     1   109.5600471 388.275200
   4176   4174   4183     1   109.8800469 414.216000
   4177   4180   4181     1   109.5600471 388.275200
   4177   4180   4182     1   109.5600471 388.275200
   4178   4177   4180     1   109.8000471 387.438400
   4178   4177   4179     1   107.5800459 329.699200
   4179   4177   4180     1   109.8000471 387.438400
   4181   4180   4186     1   109.7800468 425.094400
   4181   4180   4182     1   108.4600466 328.025600
   4182   4180   4186     1   109.7800468 425.094400
   4184   4183   4185     1   106.4000456 346.435200
   4187   4190   4191     1   109.8000471 387.438400
   4187   4190   4192     1   109.8000471 387.438400
   4187   4196   4197     1   109.2900470 396.643200
   4187   4196   4198     1   109.2900470 396.643200
   4188   4187   4190     1   109.5600471 388.275200
   4188   4187   4196     1   109.8800469 414.216000
   4188   4187   4189     1   108.4600466 328.025600
   4189   4187   4190     1   109.5600471 388.275200
   4189   4187   4196     1   109.8800469 414.216000
   4190   4193   4194     1   109.5600471 388.275200
   4190   4193   4195     1   109.5600471 388.275200
   4191   4190   4193     1   109.8000471 387.438400
   4191   4190   4192     1   107.5800459 329.699200
   4192   4190   4193     1   109.8000471 387.438400
   4194   4193   4199     1   109.7800468 425.094400
   4194   4193   4195     1   108.4600466 328.025600
   4195   4193   4199     1   109.7800468 425.094400
   4197   4196   4198     1   106.4000456 346.435200
   4200   4203   4204     1   109.8000471 387.438400
   4200   4203   4205     1   109.8000471 387.438400
   4200   4209   4210     1   109.2900470 396.643200
   4200   4209   4211     1   109.2900470 396.643200
   4201   4200   4203     1   109.5600471 388.275200
   4201   4200   4209     1   109.8800469 414.216000
   4201   4200   4202     1   108.4600466 328.025600
   4202   4200   4203     1   109.5600471 388.275200
   4202   4200   4209     1   109.8800469 414.216000
   4203   4206   4207     1   109.5600471 388.275200
   4203   4206   4208     1   109.5600471 388.275200
   4204   4203   4206     1   109.8000471 387.438400
   4204   4203   4205     1   107.5800459 329.699200
   4205   4203   4206     1   109.8000471 387.438400
   4207   4206   4212     1   109.7800468 425.094400
   4207   4206   4208     1   108.4600466 328.025600
   4208   4206   4212     1   109.7800468 425.094400
   4210   4209   4211     1   106.4000456 346.435200
   4213   4216   4217     1   109.8000471 387.438400
   4213   4216   4218     1   109.8000471 387.438400
   4213   4222   4223     1   109.2900470 396.643200
   4213   4222   4224     1   109.2900470 396.643200
   4214   4213   4216     1   109.5600471 388.275200
   4214   4213   4222     1   109.8800469 414.216000
   4214   4213   4215     1   108.4600466 328.025600
   4215   4213   4216     1   109.5600471 388.275200
   4215   4213   4222     1   109.8800469 414.216000
   4216   4219   4220     1   109.5600471 388.275200
   4216   4219   4221     1   109.5600471 388.275200
   4217   4216   4219     1   109.8000471 387.438400
   4217   4216   4218     1   107.5800459 329.699200
   4218   4216   4219     1   109.8000471 387.438400
   4220   4219   4225     1   109.7800468 425.094400
   4220   4219   4221     1   108.4600466 328.025600
   4221   4219   4225     1   109.7800468 425.094400
   4223   4222   4224     1   106.4000456 346.435200
   4226   4229   4230     1   109.8000471 387.438400
   4226   4229   4231     1   109.8000471 387.438400
   4226   4235   4236     1   109.2900470 396.643200
   4226   4235   4237     1   109.2900470 396.643200
   4227   4226   4229     1   109.5600471 388.275200
   4227   4226   4235     1   109.8800469 414.216000
   4227   4226   4228     1   108.4600466 328.025600
   4228   4226   4229     1   109.5600471 388.275200
   4228   4226   4235     1   109.8800469 414.216000
   4229   4232   4233     1   109.5600471 388.275200
   4229   4232   4234     1   109.5600471 388.275200
   4230   4229   4232     1   109.8000471 387.438400
   4230   4229   4231     1   107.5800459 329.699200
   4231   4229   4232     1   109.8000471 387.438400
   4233   4232   4238     1   109.7800468 425.094400
   4233   4232   4234     1   108.4600466 328.025600
   4234   4232   4238     1   109.7800468 425.094400
   4236   4235   4237     1   106.4000456 346.435200
   4239   4242   4243     1   109.8000471 387.438400
   4239   4242   4244     1   109.8000471 387.438400
   4239   4248   4249     1   109.2900470 396.643200
   4239   4248   4250     1   109.2900470 396.643200
   4240   4239   4242     1   109.5600471 388.275200
   4240   4239   4248     1   109.8800469 414.216000
   4240   4239   4241     1   108.4600466 328.025600
   4241   4239   4242     1   109.5600471 388.275200
   4241   4239   4248     1   109.8800469 414.216000
   4242   4245   4246     1   109.5600471 388.275200
   4242   4245   4247     1   109.5600471 388.275200
   4243   4242   4245     1   109.8000471 387.438400
   4243   4242   4244     1   107.5800459 329.699200
   4244   4242   4245     1   109.8000471 387.438400
   4246   4245   4251     1   109.7800468 425.094400
   4246   4245   4247     1   108.4600466 328.025600
   4247   4245   4251     1   109.7800468 425.094400
   4249   4248   4250     1   106.4000456 346.435200
   4252   4255   4256     1   109.8000471 387.438400
   4252   4255   4257     1   109.8000471 387.438400
   4252   4261   4262     1   109.2900470 396.643200
   4252   4261   4263     1   109.2900470 396.643200
   4253   4252   4255     1   109.5600471 388.275200
   4253   4252   4261     1   109.8800469 414.216000
   4253   4252   4254     1   108.4600466 328.025600
   4254   4252   4255     1   109.5600471 388.275200
   4254   4252   4261     1   109.8800469 414.216000
   4255   4258   4259     1   109.5600471 388.275200
   4255   4258   4260     1   109.5600471 388.275200
   4256   4255   4258     1   109.8000471 387.438400
   4256   4255   4257     1   107.5800459 329.699200
   4257   4255   4258     1   109.8000471 387.438400
   4259   4258   4264     1   109.7800468 425.094400
   4259   4258   4260     1   108.4600466 328.025600
   4260   4258   4264     1   109.7800468 425.094400
   4262   4261   4263     1   106.4000456 346.435200
   4265   4268   4269     1   109.8000471 387.438400
   4265   4268   4270     1   109.8000471 387.438400
   4265   4274   4275     1   109.2900470 396.643200
   4265   4274   4276     1   109.2900470 396.643200
   4266   4265   4268     1   109.5600471 388.275200
   4266   4265   4274     1   109.8800469 414.216000
   4266   4265   4267     1   108.4600466 328.025600
   4267   4265   4268     1   109.5600471 388.275200
   4267   4265   4274     1   109.8800469 414.216000
   4268   4271   4272     1   109.5600471 388.275200
   4268   4271   4273     1   109.5600471 388.275200
   4269   4268   4271     1   109.8000471 387.438400
   4269   4268   4270     1   107.5800459 329.699200
   4270   4268   4271     1   109.8000471 387.438400
   4272   4271   4277     1   109.7800468 425.094400
   4272   4271   4273     1   108.4600466 328.025600
   4273   4271   4277     1   109.7800468 425.094400
   4275   4274   4276     1   106.4000456 346.435200
   4278   4281   4282     1   109.8000471 387.438400
   4278   4281   4283     1   109.8000471 387.438400
   4278   4287   4288     1   109.2900470 396.643200
   4278   4287   4289     1   109.2900470 396.643200
   4279   4278   4281     1   109.5600471 388.275200
   4279   4278   4287     1   109.8800469 414.216000
   4279   4278   4280     1   108.4600466 328.025600
   4280   4278   4281     1   109.5600471 388.275200
   4280   4278   4287     1   109.8800469 414.216000
   4281   4284   4285     1   109.5600471 388.275200
   4281   4284   4286     1   109.5600471 388.275200
   4282   4281   4284     1   109.8000471 387.438400
   4282   4281   4283     1   107.5800459 329.699200
   4283   4281   4284     1   109.8000471 387.438400
   4285   4284   4290     1   109.7800468 425.094400
   4285   4284   4286     1   108.4600466 328.025600
   4286   4284   4290     1   109.7800468 425.094400
   4288   4287   4289     1   106.4000456 346.435200
   4291   4294   4295     1   109.8000471 387.438400
   4291   4294   4296     1   109.8000471 387.438400
   4291   4300   4301     1   109.2900470 396.643200
   4291   4300   4302     1   109.2900470 396.643200
   4292   4291   4294     1   109.5600471 388.275200
   4292   4291   4300     1   109.8800469 414.216000
   4292   4291   4293     1   108.4600466 328.025600
   4293   4291   4294     1   109.5600471 388.275200
   4293   4291   4300     1   109.8800469 414.216000
   4294   4297   4298     1   109.5600471 388.275200
   4294   4297   4299     1   109.5600471 388.275200
   4295   4294   4297     1   109.8000471 387.438400
   4295   4294   4296     1   107.5800459 329.699200
   4296   4294   4297     1   109.8000471 387.438400
   4298   4297   4303     1   109.7800468 425.094400
   4298   4297   4299     1   108.4600466 328.025600
   4299   4297   4303     1   109.7800468 425.094400
   4301   4300   4302     1   106.4000456 346.435200
   4304   4307   4308     1   109.8000471 387.438400
   4304   4307   4309     1   109.8000471 387.438400
   4304   4313   4314     1   109.2900470 396.643200
   4304   4313   4315     1   109.2900470 396.643200
   4305   4304   4307     1   109.5600471 388.275200
   4305   4304   4313     1   109.8800469 414.216000
   4305   4304   4306     1   108.4600466 328.025600
   4306   4304   4307     1   109.5600471 388.275200
   4306   4304   4313     1   109.8800469 414.216000
   4307   4310   4311     1   109.5600471 388.275200
   4307   4310   4312     1   109.5600471 388.275200
   4308   4307   4310     1   109.8000471 387.438400
   4308   4307   4309     1   107.5800459 329.699200
   4309   4307   4310     1   109.8000471 387.438400
   4311   4310   4316     1   109.7800468 425.094400
   4311   4310   4312     1   108.4600466 328.025600
   4312   4310   4316     1   109.7800468 425.094400
   4314   4313   4315     1   106.4000456 346.435200
   4317   4320   4321     1   109.8000471 387.438400
   4317   4320   4322     1   109.8000471 387.438400
   4317   4326   4327     1   109.2900470 396.643200
   4317   4326   4328     1   109.2900470 396.643200
   4318   4317   4320     1   109.5600471 388.275200
   4318   4317   4326     1   109.8800469 414.216000
   4318   4317   4319     1   108.4600466 328.025600
   4319   4317   4320     1   109.5600471 388.275200
   4319   4317   4326     1   109.8800469 414.216000
   4320   4323   4324     1   109.5600471 388.275200
   4320   4323   4325     1   109.5600471 388.275200
   4321   4320   4323     1   109.8000471 387.438400
   4321   4320   4322     1   107.5800459 329.699200
   4322   4320   4323     1   109.8000471 387.438400
   4324   4323   4329     1   109.7800468 425.094400
   4324   4323   4325     1   108.4600466 328.025600
   4325   4323   4329     1   109.7800468 425.094400
   4327   4326   4328     1   106.4000456 346.435200
   4330   4333   4334     1   109.8000471 387.438400
   4330   4333   4335     1   109.8000471 387.438400
   4330   4339   4340     1   109.2900470 396.643200
   4330   4339   4341     1   109.2900470 396.643200
   4331   4330   4333     1   109.5600471 388.275200
   4331   4330   4339     1   109.8800469 414.216000
   4331   4330   4332     1   108.4600466 328.025600
   4332   4330   4333     1   109.5600471 388.275200
   4332   4330   4339     1   109.8800469 414.216000
   4333   4336   4337     1   109.5600471 388.275200
   4333   4336   4338     1   109.5600471 388.275200
   4334   4333   4336     1   109.8000471 387.438400
   4334   4333   4335     1   107.5800459 329.699200
   4335   4333   4336     1   109.8000471 387.438400
   4337   4336   4342     1   109.7800468 425.094400
   4337   4336   4338     1   108.4600466 328.025600
   4338   4336   4342     1   109.7800468 425.094400
   4340   4339   4341     1   106.4000456 346.435200
   4343   4346   4347     1   109.8000471 387.438400
   4343   4346   4348     1   109.8000471 387.438400
   4343   4352   4353     1   109.2900470 396.643200
   4343   4352   4354     1   109.2900470 396.643200
   4344   4343   4346     1   109.5600471 388.275200
   4344   4343   4352     1   109.8800469 414.216000
   4344   4343   4345     1   108.4600466 328.025600
   4345   4343   4346     1   109.5600471 388.275200
   4345   4343   4352     1   109.8800469 414.216000
   4346   4349   4350     1   109.5600471 388.275200
   4346   4349   4351     1   109.5600471 388.275200
   4347   4346   4349     1   109.8000471 387.438400
   4347   4346   4348     1   107.5800459 329.699200
   4348   4346   4349     1   109.8000471 387.438400
   4350   4349   4355     1   109.7800468 425.094400
   4350   4349   4351     1   108.4600466 328.025600
   4351   4349   4355     1   109.7800468 425.094400
   4353   4352   4354     1   106.4000456 346.435200
   4356   4359   4360     1   109.8000471 387.438400
   4356   4359   4361     1   109.8000471 387.438400
   4356   4365   4366     1   109.2900470 396.643200
   4356   4365   4367     1   109.2900470 396.643200
   4357   4356   4359     1   109.5600471 388.275200
   4357   4356   4365     1   109.8800469 414.216000
   4357   4356   4358     1   108.4600466 328.025600
   4358   4356   4359     1   109.5600471 388.275200
   4358   4356   4365     1   109.8800469 414.216000
   4359   4362   4363     1   109.5600471 388.275200
   4359   4362   4364     1   109.5600471 388.275200
   4360   4359   4362     1   109.8000471 387.438400
   4360   4359   4361     1   107.5800459 329.699200
   4361   4359   4362     1   109.8000471 387.438400
   4363   4362   4368     1   109.7800468 425.094400
   4363   4362   4364     1   108.4600466 328.025600
   4364   4362   4368     1   109.7800468 425.094400
   4366   4365   4367     1   106.4000456 346.435200
   4369   4372   4373     1   109.8000471 387.438400
   4369   4372   4374     1   109.8000471 387.438400
   4369   4378   4379     1   109.2900470 396.643200
   4369   4378   4380     1   109.2900470 396.643200
   4370   4369   4372     1   109.5600471 388.275200
   4370   4369   4378     1   109.8800469 414.216000
   4370   4369   4371     1   108.4600466 328.025600
   4371   4369   4372     1   109.5600471 388.275200
   4371   4369   4378     1   109.8800469 414.216000
   4372   4375   4376     1   109.5600471 388.275200
   4372   4375   4377     1   109.5600471 388.275200
   4373   4372   4375     1   109.8000471 387.438400
   4373   4372   4374     1   107.5800459 329.699200
   4374   4372   4375     1   109.8000471 387.438400
   4376   4375   4381     1   109.7800468 425.094400
   4376   4375   4377     1   108.4600466 328.025600
   4377   4375   4381     1   109.7800468 425.094400
   4379   4378   4380     1   106.4000456 346.435200
   4382   4385   4386     1   109.8000471 387.438400
   4382   4385   4387     1   109.8000471 387.438400
   4382   4391   4392     1   109.2900470 396.643200
   4382   4391   4393     1   109.2900470 396.643200
   4383   4382   4385     1   109.5600471 388.275200
   4383   4382   4391     1   109.8800469 414.216000
   4383   4382   4384     1   108.4600466 328.025600
   4384   4382   4385     1   109.5600471 388.275200
   4384   4382   4391     1   109.8800469 414.216000
   4385   4388   4389     1   109.5600471 388.275200
   4385   4388   4390     1   109.5600471 388.275200
   4386   4385   4388     1   109.8000471 387.438400
   4386   4385   4387     1   107.5800459 329.699200
   4387   4385   4388     1   109.8000471 387.438400
   4389   4388   4394     1   109.7800468 425.094400
   4389   4388   4390     1   108.4600466 328.025600
   4390   4388   4394     1   109.7800468 425.094400
   4392   4391   4393     1   106.4000456 346.435200
   4395   4398   4399     1   109.8000471 387.438400
   4395   4398   4400     1   109.8000471 387.438400
   4395   4404   4405     1   109.2900470 396.643200
   4395   4404   4406     1   109.2900470 396.643200
   4396   4395   4398     1   109.5600471 388.275200
   4396   4395   4404     1   109.8800469 414.216000
   4396   4395   4397     1   108.4600466 328.025600
   4397   4395   4398     1   109.5600471 388.275200
   4397   4395   4404     1   109.8800469 414.216000
   4398   4401   4402     1   109.5600471 388.275200
   4398   4401   4403     1   109.5600471 388.275200
   4399   4398   4401     1   109.8000471 387.438400
   4399   4398   4400     1   107.5800459 329.699200
   4400   4398   4401     1   109.8000471 387.438400
   4402   4401   4407     1   109.7800468 425.094400
   4402   4401   4403     1   108.4600466 328.025600
   4403   4401   4407     1   109.7800468 425.094400
   4405   4404   4406     1   106.4000456 346.435200
   4408   4411   4412     1   109.8000471 387.438400
   4408   4411   4413     1   109.8000471 387.438400
   4408   4417   4418     1   109.2900470 396.643200
   4408   4417   4419     1   109.2900470 396.643200
   4409   4408   4411     1   109.5600471 388.275200
   4409   4408   4417     1   109.8800469 414.216000
   4409   4408   4410     1   108.4600466 328.025600
   4410   4408   4411     1   109.5600471 388.275200
   4410   4408   4417     1   109.8800469 414.216000
   4411   4414   4415     1   109.5600471 388.275200
   4411   4414   4416     1   109.5600471 388.275200
   4412   4411   4414     1   109.8000471 387.438400
   4412   4411   4413     1   107.5800459 329.699200
   4413   4411   4414     1   109.8000471 387.438400
   4415   4414   4420     1   109.7800468 425.094400
   4415   4414   4416     1   108.4600466 328.025600
   4416   4414   4420     1   109.7800468 425.094400
   4418   4417   4419     1   106.4000456 346.435200
   4421   4424   4425     1   109.8000471 387.438400
   4421   4424   4426     1   109.8000471 387.438400
   4421   4430   4431     1   109.2900470 396.643200
   4421   4430   4432     1   109.2900470 396.643200
   4422   4421   4424     1   109.5600471 388.275200
   4422   4421   4430     1   109.8800469 414.216000
   4422   4421   4423     1   108.4600466 328.025600
   4423   4421   4424     1   109.5600471 388.275200
   4423   4421   4430     1   109.8800469 414.216000
   4424   4427   4428     1   109.5600471 388.275200
   4424   4427   4429     1   109.5600471 388.275200
   4425   4424   4427     1   109.8000471 387.438400
   4425   4424   4426     1   107.5800459 329.699200
   4426   4424   4427     1   109.8000471 387.438400
   4428   4427   4433     1   109.7800468 425.094400
   4428   4427   4429     1   108.4600466 328.025600
   4429   4427   4433     1   109.7800468 425.094400
   4431   4430   4432     1   106.4000456 346.435200
   4434   4437   4438     1   109.8000471 387.438400
   4434   4437   4439     1   109.8000471 387.438400
   4434   4443   4444     1   109.2900470 396.643200
   4434   4443   4445     1   109.2900470 396.643200
   4435   4434   4437     1   109.5600471 388.275200
   4435   4434   4443     1   109.8800469 414.216000
   4435   4434   4436     1   108.4600466 328.025600
   4436   4434   4437     1   109.5600471 388.275200
   4436   4434   4443     1   109.8800469 414.216000
   4437   4440   4441     1   109.5600471 388.275200
   4437   4440   4442     1   109.5600471 388.275200
   4438   4437   4440     1   109.8000471 387.438400
   4438   4437   4439     1   107.5800459 329.699200
   4439   4437   4440     1   109.8000471 387.438400
   4441   4440   4446     1   109.7800468 425.094400
   4441   4440   4442     1   108.4600466 328.025600
   4442   4440   4446     1   109.7800468 425.094400
   4444   4443   4445     1   106.4000456 346.435200
   4447   4450   4451     1   109.8000471 387.438400
   4447   4450   4452     1   109.8000471 387.438400
   4447   4456   4457     1   109.2900470 396.643200
   4447   4456   4458     1   109.2900470 396.643200
   4448   4447   4450     1   109.5600471 388.275200
   4448   4447   4456     1   109.8800469 414.216000
   4448   4447   4449     1   108.4600466 328.025600
   4449   4447   4450     1   109.5600471 388.275200
   4449   4447   4456     1   109.8800469 414.216000
   4450   4453   4454     1   109.5600471 388.275200
   4450   4453   4455     1   109.5600471 388.275200
   4451   4450   4453     1   109.8000471 387.438400
   4451   4450   4452     1   107.5800459 329.699200
   4452   4450   4453     1   109.8000471 387.438400
   4454   4453   4459     1   109.7800468 425.094400
   4454   4453   4455     1   108.4600466 328.025600
   4455   4453   4459     1   109.7800468 425.094400
   4457   4456   4458     1   106.4000456 346.435200
   4460   4463   4464     1   109.8000471 387.438400
   4460   4463   4465     1   109.8000471 387.438400
   4460   4469   4470     1   109.2900470 396.643200
   4460   4469   4471     1   109.2900470 396.643200
   4461   4460   4463     1   109.5600471 388.275200
   4461   4460   4469     1   109.8800469 414.216000
   4461   4460   4462     1   108.4600466 328.025600
   4462   4460   4463     1   109.5600471 388.275200
   4462   4460   4469     1   109.8800469 414.216000
   4463   4466   4467     1   109.5600471 388.275200
   4463   4466   4468     1   109.5600471 388.275200
   4464   4463   4466     1   109.8000471 387.438400
   4464   4463   4465     1   107.5800459 329.699200
   4465   4463   4466     1   109.8000471 387.438400
   4467   4466   4472     1   109.7800468 425.094400
   4467   4466   4468     1   108.4600466 328.025600
   4468   4466   4472     1   109.7800468 425.094400
   4470   4469   4471     1   106.4000456 346.435200
   4473   4476   4477     1   109.8000471 387.438400
   4473   4476   4478     1   109.8000471 387.438400
   4473   4482   4483     1   109.2900470 396.643200
   4473   4482   4484     1   109.2900470 396.643200
   4474   4473   4476     1   109.5600471 388.275200
   4474   4473   4482     1   109.8800469 414.216000
   4474   4473   4475     1   108.4600466 328.025600
   4475   4473   4476     1   109.5600471 388.275200
   4475   4473   4482     1   109.8800469 414.216000
   4476   4479   4480     1   109.5600471 388.275200
   4476   4479   4481     1   109.5600471 388.275200
   4477   4476   4479     1   109.8000471 387.438400
   4477   4476   4478     1   107.5800459 329.699200
   4478   4476   4479     1   109.8000471 387.438400
   4480   4479   4485     1   109.7800468 425.094400
   4480   4479   4481     1   108.4600466 328.025600
   4481   4479   4485     1   109.7800468 425.094400
   4483   4482   4484     1   106.4000456 346.435200
   4486   4489   4490     1   109.8000471 387.438400
   4486   4489   4491     1   109.8000471 387.438400
   4486   4495   4496     1   109.2900470 396.643200
   4486   4495   4497     1   109.2900470 396.643200
   4487   4486   4489     1   109.5600471 388.275200
   4487   4486   4495     1   109.8800469 414.216000
   4487   4486   4488     1   108.4600466 328.025600
   4488   4486   4489     1   109.5600471 388.275200
   4488   4486   4495     1   109.8800469 414.216000
   4489   4492   4493     1   109.5600471 388.275200
   4489   4492   4494     1   109.5600471 388.275200
   4490   4489   4492     1   109.8000471 387.438400
   4490   4489   4491     1   107.5800459 329.699200
   4491   4489   4492     1   109.8000471 387.438400
   4493   4492   4498     1   109.7800468 425.094400
   4493   4492   4494     1   108.4600466 328.025600
   4494   4492   4498     1   109.7800468 425.094400
   4496   4495   4497     1   106.4000456 346.435200
   4499   4502   4503     1   109.8000471 387.438400
   4499   4502   4504     1   109.8000471 387.438400
   4499   4508   4509     1   109.2900470 396.643200
   4499   4508   4510     1   109.2900470 396.643200
   4500   4499   4502     1   109.5600471 388.275200
   4500   4499   4508     1   109.8800469 414.216000
   4500   4499   4501     1   108.4600466 328.025600
   4501   4499   4502     1   109.5600471 388.275200
   4501   4499   4508     1   109.8800469 414.216000
   4502   4505   4506     1   109.5600471 388.275200
   4502   4505   4507     1   109.5600471 388.275200
   4503   4502   4505     1   109.8000471 387.438400
   4503   4502   4504     1   107.5800459 329.699200
   4504   4502   4505     1   109.8000471 387.438400
   4506   4505   4511     1   109.7800468 425.094400
   4506   4505   4507     1   108.4600466 328.025600
   4507   4505   4511     1   109.7800468 425.094400
   4509   4508   4510     1   106.4000456 346.435200
   4512   4515   4516     1   109.8000471 387.438400
   4512   4515   4517     1   109.8000471 387.438400
   4512   4521   4522     1   109.2900470 396.643200
   4512   4521   4523     1   109.2900470 396.643200
   4513   4512   4515     1   109.5600471 388.275200
   4513   4512   4521     1   109.8800469 414.216000
   4513   4512   4514     1   108.4600466 328.025600
   4514   4512   4515     1   109.5600471 388.275200
   4514   4512   4521     1   109.8800469 414.216000
   4515   4518   4519     1   109.5600471 388.275200
   4515   4518   4520     1   109.5600471 388.275200
   4516   4515   4518     1   109.8000471 387.438400
   4516   4515   4517     1   107.5800459 329.699200
   4517   4515   4518     1   109.8000471 387.438400
   4519   4518   4524     1   109.7800468 425.094400
   4519   4518   4520     1   108.4600466 328.025600
   4520   4518   4524     1   109.7800468 425.094400
   4522   4521   4523     1   106.4000456 346.435200
   4525   4528   4529     1   109.8000471 387.438400
   4525   4528   4530     1   109.8000471 387.438400
   4525   4534   4535     1   109.2900470 396.643200
   4525   4534   4536     1   109.2900470 396.643200
   4526   4525   4528     1   109.5600471 388.275200
   4526   4525   4534     1   109.8800469 414.216000
   4526   4525   4527     1   108.4600466 328.025600
   4527   4525   4528     1   109.5600471 388.275200
   4527   4525   4534     1   109.8800469 414.216000
   4528   4531   4532     1   109.5600471 388.275200
   4528   4531   4533     1   109.5600471 388.275200
   4529   4528   4531     1   109.8000471 387.438400
   4529   4528   4530     1   107.5800459 329.699200
   4530   4528   4531     1   109.8000471 387.438400
   4532   4531   4537     1   109.7800468 425.094400
   4532   4531   4533     1   108.4600466 328.025600
   4533   4531   4537     1   109.7800468 425.094400
   4535   4534   4536     1   106.4000456 346.435200
   4538   4541   4542     1   109.8000471 387.438400
   4538   4541   4543     1   109.8000471 387.438400
   4538   4547   4548     1   109.2900470 396.643200
   4538   4547   4549     1   109.2900470 396.643200
   4539   4538   4541     1   109.5600471 388.275200
   4539   4538   4547     1   109.8800469 414.216000
   4539   4538   4540     1   108.4600466 328.025600
   4540   4538   4541     1   109.5600471 388.275200
   4540   4538   4547     1   109.8800469 414.216000
   4541   4544   4545     1   109.5600471 388.275200
   4541   4544   4546     1   109.5600471 388.275200
   4542   4541   4544     1   109.8000471 387.438400
   4542   4541   4543     1   107.5800459 329.699200
   4543   4541   4544     1   109.8000471 387.438400
   4545   4544   4550     1   109.7800468 425.094400
   4545   4544   4546     1   108.4600466 328.025600
   4546   4544   4550     1   109.7800468 425.094400
   4548   4547   4549     1   106.4000456 346.435200
   4551   4554   4555     1   109.8000471 387.438400
   4551   4554   4556     1   109.8000471 387.438400
   4551   4560   4561     1   109.2900470 396.643200
   4551   4560   4562     1   109.2900470 396.643200
   4552   4551   4554     1   109.5600471 388.275200
   4552   4551   4560     1   109.8800469 414.216000
   4552   4551   4553     1   108.4600466 328.025600
   4553   4551   4554     1   109.5600471 388.275200
   4553   4551   4560     1   109.8800469 414.216000
   4554   4557   4558     1   109.5600471 388.275200
   4554   4557   4559     1   109.5600471 388.275200
   4555   4554   4557     1   109.8000471 387.438400
   4555   4554   4556     1   107.5800459 329.699200
   4556   4554   4557     1   109.8000471 387.438400
   4558   4557   4563     1   109.7800468 425.094400
   4558   4557   4559     1   108.4600466 328.025600
   4559   4557   4563     1   109.7800468 425.094400
   4561   4560   4562     1   106.4000456 346.435200
   4564   4567   4568     1   109.8000471 387.438400
   4564   4567   4569     1   109.8000471 387.438400
   4564   4573   4574     1   109.2900470 396.643200
   4564   4573   4575     1   109.2900470 396.643200
   4565   4564   4567     1   109.5600471 388.275200
   4565   4564   4573     1   109.8800469 414.216000
   4565   4564   4566     1   108.4600466 328.025600
   4566   4564   4567     1   109.5600471 388.275200
   4566   4564   4573     1   109.8800469 414.216000
   4567   4570   4571     1   109.5600471 388.275200
   4567   4570   4572     1   109.5600471 388.275200
   4568   4567   4570     1   109.8000471 387.438400
   4568   4567   4569     1   107.5800459 329.699200
   4569   4567   4570     1   109.8000471 387.438400
   4571   4570   4576     1   109.7800468 425.094400
   4571   4570   4572     1   108.4600466 328.025600
   4572   4570   4576     1   109.7800468 425.094400
   4574   4573   4575     1   106.4000456 346.435200
   4577   4580   4581     1   109.8000471 387.438400
   4577   4580   4582     1   109.8000471 387.438400
   4577   4586   4587     1   109.2900470 396.643200
   4577   4586   4588     1   109.2900470 396.643200
   4578   4577   4580     1   109.5600471 388.275200
   4578   4577   4586     1   109.8800469 414.216000
   4578   4577   4579     1   108.4600466 328.025600
   4579   4577   4580     1   109.5600471 388.275200
   4579   4577   4586     1   109.8800469 414.216000
   4580   4583   4584     1   109.5600471 388.275200
   4580   4583   4585     1   109.5600471 388.275200
   4581   4580   4583     1   109.8000471 387.438400
   4581   4580   4582     1   107.5800459 329.699200
   4582   4580   4583     1   109.8000471 387.438400
   4584   4583   4589     1   109.7800468 425.094400
   4584   4583   4585     1   108.4600466 328.025600
   4585   4583   4589     1   109.7800468 425.094400
   4587   4586   4588     1   106.4000456 346.435200
   4590   4593   4594     1   109.8000471 387.438400
   4590   4593   4595     1   109.8000471 387.438400
   4590   4599   4600     1   109.2900470 396.643200
   4590   4599   4601     1   109.2900470 396.643200
   4591   4590   4593     1   109.5600471 388.275200
   4591   4590   4599     1   109.8800469 414.216000
   4591   4590   4592     1   108.4600466 328.025600
   4592   4590   4593     1   109.5600471 388.275200
   4592   4590   4599     1   109.8800469 414.216000
   4593   4596   4597     1   109.5600471 388.275200
   4593   4596   4598     1   109.5600471 388.275200
   4594   4593   4596     1   109.8000471 387.438400
   4594   4593   4595     1   107.5800459 329.699200
   4595   4593   4596     1   109.8000471 387.438400
   4597   4596   4602     1   109.7800468 425.094400
   4597   4596   4598     1   108.4600466 328.025600
   4598   4596   4602     1   109.7800468 425.094400
   4600   4599   4601     1   106.4000456 346.435200
   4603   4606   4607     1   109.8000471 387.438400
   4603   4606   4608     1   109.8000471 387.438400
   4603   4612   4613     1   109.2900470 396.643200
   4603   4612   4614     1   109.2900470 396.643200
   4604   4603   4606     1   109.5600471 388.275200
   4604   4603   4612     1   109.8800469 414.216000
   4604   4603   4605     1   108.4600466 328.025600
   4605   4603   4606     1   109.5600471 388.275200
   4605   4603   4612     1   109.8800469 414.216000
   4606   4609   4610     1   109.5600471 388.275200
   4606   4609   4611     1   109.5600471 388.275200
   4607   4606   4609     1   109.8000471 387.438400
   4607   4606   4608     1   107.5800459 329.699200
   4608   4606   4609     1   109.8000471 387.438400
   4610   4609   4615     1   109.7800468 425.094400
   4610   4609   4611     1   108.4600466 328.025600
   4611   4609   4615     1   109.7800468 425.094400
   4613   4612   4614     1   106.4000456 346.435200
   4616   4619   4620     1   109.8000471 387.438400
   4616   4619   4621     1   109.8000471 387.438400
   4616   4625   4626     1   109.2900470 396.643200
   4616   4625   4627     1   109.2900470 396.643200
   4617   4616   4619     1   109.5600471 388.275200
   4617   4616   4625     1   109.8800469 414.216000
   4617   4616   4618     1   108.4600466 328.025600
   4618   4616   4619     1   109.5600471 388.275200
   4618   4616   4625     1   109.8800469 414.216000
   4619   4622   4623     1   109.5600471 388.275200
   4619   4622   4624     1   109.5600471 388.275200
   4620   4619   4622     1   109.8000471 387.438400
   4620   4619   4621     1   107.5800459 329.699200
   4621   4619   4622     1   109.8000471 387.438400
   4623   4622   4628     1   109.7800468 425.094400
   4623   4622   4624     1   108.4600466 328.025600
   4624   4622   4628     1   109.7800468 425.094400
   4626   4625   4627     1   106.4000456 346.435200
   4629   4632   4633     1   109.8000471 387.438400
   4629   4632   4634     1   109.8000471 387.438400
   4629   4638   4639     1   109.2900470 396.643200
   4629   4638   4640     1   109.2900470 396.643200
   4630   4629   4632     1   109.5600471 388.275200
   4630   4629   4638     1   109.8800469 414.216000
   4630   4629   4631     1   108.4600466 328.025600
   4631   4629   4632     1   109.5600471 388.275200
   4631   4629   4638     1   109.8800469 414.216000
   4632   4635   4636     1   109.5600471 388.275200
   4632   4635   4637     1   109.5600471 388.275200
   4633   4632   4635     1   109.8000471 387.438400
   4633   4632   4634     1   107.5800459 329.699200
   4634   4632   4635     1   109.8000471 387.438400
   4636   4635   4641     1   109.7800468 425.094400
   4636   4635   4637     1   108.4600466 328.025600
   4637   4635   4641     1   109.7800468 425.094400
   4639   4638   4640     1   106.4000456 346.435200
   4642   4645   4646     1   109.8000471 387.438400
   4642   4645   4647     1   109.8000471 387.438400
   4642   4651   4652     1   109.2900470 396.643200
   4642   4651   4653     1   109.2900470 396.643200
   4643   4642   4645     1   109.5600471 388.275200
   4643   4642   4651     1   109.8800469 414.216000
   4643   4642   4644     1   108.4600466 328.025600
   4644   4642   4645     1   109.5600471 388.275200
   4644   4642   4651     1   109.8800469 414.216000
   4645   4648   4649     1   109.5600471 388.275200
   4645   4648   4650     1   109.5600471 388.275200
   4646   4645   4648     1   109.8000471 387.438400
   4646   4645   4647     1   107.5800459 329.699200
   4647   4645   4648     1   109.8000471 387.438400
   4649   4648   4654     1   109.7800468 425.094400
   4649   4648   4650     1   108.4600466 328.025600
   4650   4648   4654     1   109.7800468 425.094400
   4652   4651   4653     1   106.4000456 346.435200
   4655   4658   4659     1   109.8000471 387.438400
   4655   4658   4660     1   109.8000471 387.438400
   4655   4664   4665     1   109.2900470 396.643200
   4655   4664   4666     1   109.2900470 396.643200
   4656   4655   4658     1   109.5600471 388.275200
   4656   4655   4664     1   109.8800469 414.216000
   4656   4655   4657     1   108.4600466 328.025600
   4657   4655   4658     1   109.5600471 388.275200
   4657   4655   4664     1   109.8800469 414.216000
   4658   4661   4662     1   109.5600471 388.275200
   4658   4661   4663     1   109.5600471 388.275200
   4659   4658   4661     1   109.8000471 387.438400
   4659   4658   4660     1   107.5800459 329.699200
   4660   4658   4661     1   109.8000471 387.438400
   4662   4661   4667     1   109.7800468 425.094400
   4662   4661   4663     1   108.4600466 328.025600
   4663   4661   4667     1   109.7800468 425.094400
   4665   4664   4666     1   106.4000456 346.435200
   4668   4671   4672     1   109.8000471 387.438400
   4668   4671   4673     1   109.8000471 387.438400
   4668   4677   4678     1   109.2900470 396.643200
   4668   4677   4679     1   109.2900470 396.643200
   4669   4668   4671     1   109.5600471 388.275200
   4669   4668   4677     1   109.8800469 414.216000
   4669   4668   4670     1   108.4600466 328.025600
   4670   4668   4671     1   109.5600471 388.275200
   4670   4668   4677     1   109.8800469 414.216000
   4671   4674   4675     1   109.5600471 388.275200
   4671   4674   4676     1   109.5600471 388.275200
   4672   4671   4674     1   109.8000471 387.438400
   4672   4671   4673     1   107.5800459 329.699200
   4673   4671   4674     1   109.8000471 387.438400
   4675   4674   4680     1   109.7800468 425.094400
   4675   4674   4676     1   108.4600466 328.025600
   4676   4674   4680     1   109.7800468 425.094400
   4678   4677   4679     1   106.4000456 346.435200
   4681   4684   4685     1   109.8000471 387.438400
   4681   4684   4686     1   109.8000471 387.438400
   4681   4690   4691     1   109.2900470 396.643200
   4681   4690   4692     1   109.2900470 396.643200
   4682   4681   4684     1   109.5600471 388.275200
   4682   4681   4690     1   109.8800469 414.216000
   4682   4681   4683     1   108.4600466 328.025600
   4683   4681   4684     1   109.5600471 388.275200
   4683   4681   4690     1   109.8800469 414.216000
   4684   4687   4688     1   109.5600471 388.275200
   4684   4687   4689     1   109.5600471 388.275200
   4685   4684   4687     1   109.8000471 387.438400
   4685   4684   4686     1   107.5800459 329.699200
   4686   4684   4687     1   109.8000471 387.438400
   4688   4687   4693     1   109.7800468 425.094400
   4688   4687   4689     1   108.4600466 328.025600
   4689   4687   4693     1   109.7800468 425.094400
   4691   4690   4692     1   106.4000456 346.435200
   4694   4697   4698     1   109.8000471 387.438400
   4694   4697   4699     1   109.8000471 387.438400
   4694   4703   4704     1   109.2900470 396.643200
   4694   4703   4705     1   109.2900470 396.643200
   4695   4694   4697     1   109.5600471 388.275200
   4695   4694   4703     1   109.8800469 414.216000
   4695   4694   4696     1   108.4600466 328.025600
   4696   4694   4697     1   109.5600471 388.275200
   4696   4694   4703     1   109.8800469 414.216000
   4697   4700   4701     1   109.5600471 388.275200
   4697   4700   4702     1   109.5600471 388.275200
   4698   4697   4700     1   109.8000471 387.438400
   4698   4697   4699     1   107.5800459 329.699200
   4699   4697   4700     1   109.8000471 387.438400
   4701   4700   4706     1   109.7800468 425.094400
   4701   4700   4702     1   108.4600466 328.025600
   4702   4700   4706     1   109.7800468 425.094400
   4704   4703   4705     1   106.4000456 346.435200
   4707   4710   4711     1   109.8000471 387.438400
   4707   4710   4712     1   109.8000471 387.438400
   4707   4716   4717     1   109.2900470 396.643200
   4707   4716   4718     1   109.2900470 396.643200
   4708   4707   4710     1   109.5600471 388.275200
   4708   4707   4716     1   109.8800469 414.216000
   4708   4707   4709     1   108.4600466 328.025600
   4709   4707   4710     1   109.5600471 388.275200
   4709   4707   4716     1   109.8800469 414.216000
   4710   4713   4714     1   109.5600471 388.275200
   4710   4713   4715     1   109.5600471 388.275200
   4711   4710   4713     1   109.8000471 387.438400
   4711   4710   4712     1   107.5800459 329.699200
   4712   4710   4713     1   109.8000471 387.438400
   4714   4713   4719     1   109.7800468 425.094400
   4714   4713   4715     1   108.4600466 328.025600
   4715   4713   4719     1   109.7800468 425.094400
   4717   4716   4718     1   106.4000456 346.435200
   4720   4723   4724     1   109.8000471 387.438400
   4720   4723   4725     1   109.8000471 387.438400
   4720   4729   4730     1   109.2900470 396.643200
   4720   4729   4731     1   109.2900470 396.643200
   4721   4720   4723     1   109.5600471 388.275200
   4721   4720   4729     1   109.8800469 414.216000
   4721   4720   4722     1   108.4600466 328.025600
   4722   4720   4723     1   109.5600471 388.275200
   4722   4720   4729     1   109.8800469 414.216000
   4723   4726   4727     1   109.5600471 388.275200
   4723   4726   4728     1   109.5600471 388.275200
   4724   4723   4726     1   109.8000471 387.438400
   4724   4723   4725     1   107.5800459 329.699200
   4725   4723   4726     1   109.8000471 387.438400
   4727   4726   4732     1   109.7800468 425.094400
   4727   4726   4728     1   108.4600466 328.025600
   4728   4726   4732     1   109.7800468 425.094400
   4730   4729   4731     1   106.4000456 346.435200
   4733   4736   4737     1   109.8000471 387.438400
   4733   4736   4738     1   109.8000471 387.438400
   4733   4742   4743     1   109.2900470 396.643200
   4733   4742   4744     1   109.2900470 396.643200
   4734   4733   4736     1   109.5600471 388.275200
   4734   4733   4742     1   109.8800469 414.216000
   4734   4733   4735     1   108.4600466 328.025600
   4735   4733   4736     1   109.5600471 388.275200
   4735   4733   4742     1   109.8800469 414.216000
   4736   4739   4740     1   109.5600471 388.275200
   4736   4739   4741     1   109.5600471 388.275200
   4737   4736   4739     1   109.8000471 387.438400
   4737   4736   4738     1   107.5800459 329.699200
   4738   4736   4739     1   109.8000471 387.438400
   4740   4739   4745     1   109.7800468 425.094400
   4740   4739   4741     1   108.4600466 328.025600
   4741   4739   4745     1   109.7800468 425.094400
   4743   4742   4744     1   106.4000456 346.435200
   4746   4749   4750     1   109.8000471 387.438400
   4746   4749   4751     1   109.8000471 387.438400
   4746   4755   4756     1   109.2900470 396.643200
   4746   4755   4757     1   109.2900470 396.643200
   4747   4746   4749     1   109.5600471 388.275200
   4747   4746   4755     1   109.8800469 414.216000
   4747   4746   4748     1   108.4600466 328.025600
   4748   4746   4749     1   109.5600471 388.275200
   4748   4746   4755     1   109.8800469 414.216000
   4749   4752   4753     1   109.5600471 388.275200
   4749   4752   4754     1   109.5600471 388.275200
   4750   4749   4752     1   109.8000471 387.438400
   4750   4749   4751     1   107.5800459 329.699200
   4751   4749   4752     1   109.8000471 387.438400
   4753   4752   4758     1   109.7800468 425.094400
   4753   4752   4754     1   108.4600466 328.025600
   4754   4752   4758     1   109.7800468 425.094400
   4756   4755   4757     1   106.4000456 346.435200
   4759   4762   4763     1   109.8000471 387.438400
   4759   4762   4764     1   109.8000471 387.438400
   4759   4768   4769     1   109.2900470 396.643200
   4759   4768   4770     1   109.2900470 396.643200
   4760   4759   4762     1   109.5600471 388.275200
   4760   4759   4768     1   109.8800469 414.216000
   4760   4759   4761     1   108.4600466 328.025600
   4761   4759   4762     1   109.5600471 388.275200
   4761   4759   4768     1   109.8800469 414.216000
   4762   4765   4766     1   109.5600471 388.275200
   4762   4765   4767     1   109.5600471 388.275200
   4763   4762   4765     1   109.8000471 387.438400
   4763   4762   4764     1   107.5800459 329.699200
   4764   4762   4765     1   109.8000471 387.438400
   4766   4765   4771     1   109.7800468 425.094400
   4766   4765   4767     1   108.4600466 328.025600
   4767   4765   4771     1   109.7800468 425.094400
   4769   4768   4770     1   106.4000456 346.435200
   4772   4775   4776     1   109.8000471 387.438400
   4772   4775   4777     1   109.8000471 387.438400
   4772   4781   4782     1   109.2900470 396.643200
   4772   4781   4783     1   109.2900470 396.643200
   4773   4772   4775     1   109.5600471 388.275200
   4773   4772   4781     1   109.8800469 414.216000
   4773   4772   4774     1   108.4600466 328.025600
   4774   4772   4775     1   109.5600471 388.275200
   4774   4772   4781     1   109.8800469 414.216000
   4775   4778   4779     1   109.5600471 388.275200
   4775   4778   4780     1   109.5600471 388.275200
   4776   4775   4778     1   109.8000471 387.438400
   4776   4775   4777     1   107.5800459 329.699200
   4777   4775   4778     1   109.8000471 387.438400
   4779   4778   4784     1   109.7800468 425.094400
   4779   4778   4780     1   108.4600466 328.025600
   4780   4778   4784     1   109.7800468 425.094400
   4782   4781   4783     1   106.4000456 346.435200
   4785   4788   4789     1   109.8000471 387.438400
   4785   4788   4790     1   109.8000471 387.438400
   4785   4794   4795     1   109.2900470 396.643200
   4785   4794   4796     1   109.2900470 396.643200
   4786   4785   4788     1   109.5600471 388.275200
   4786   4785   4794     1   109.8800469 414.216000
   4786   4785   4787     1   108.4600466 328.025600
   4787   4785   4788     1   109.5600471 388.275200
   4787   4785   4794     1   109.8800469 414.216000
   4788   4791   4792     1   109.5600471 388.275200
   4788   4791   4793     1   109.5600471 388.275200
   4789   4788   4791     1   109.8000471 387.438400
   4789   4788   4790     1   107.5800459 329.699200
   4790   4788   4791     1   109.8000471 387.438400
   4792   4791   4797     1   109.7800468 425.094400
   4792   4791   4793     1   108.4600466 328.025600
   4793   4791   4797     1   109.7800468 425.094400
   4795   4794   4796     1   106.4000456 346.435200
   4798   4801   4802     1   109.8000471 387.438400
   4798   4801   4803     1   109.8000471 387.438400
   4798   4807   4808     1   109.2900470 396.643200
   4798   4807   4809     1   109.2900470 396.643200
   4799   4798   4801     1   109.5600471 388.275200
   4799   4798   4807     1   109.8800469 414.216000
   4799   4798   4800     1   108.4600466 328.025600
   4800   4798   4801     1   109.5600471 388.275200
   4800   4798   4807     1   109.8800469 414.216000
   4801   4804   4805     1   109.5600471 388.275200
   4801   4804   4806     1   109.5600471 388.275200
   4802   4801   4804     1   109.8000471 387.438400
   4802   4801   4803     1   107.5800459 329.699200
   4803   4801   4804     1   109.8000471 387.438400
   4805   4804   4810     1   109.7800468 425.094400
   4805   4804   4806     1   108.4600466 328.025600
   4806   4804   4810     1   109.7800468 425.094400
   4808   4807   4809     1   106.4000456 346.435200
   4811   4814   4815     1   109.8000471 387.438400
   4811   4814   4816     1   109.8000471 387.438400
   4811   4820   4821     1   109.2900470 396.643200
   4811   4820   4822     1   109.2900470 396.643200
   4812   4811   4814     1   109.5600471 388.275200
   4812   4811   4820     1   109.8800469 414.216000
   4812   4811   4813     1   108.4600466 328.025600
   4813   4811   4814     1   109.5600471 388.275200
   4813   4811   4820     1   109.8800469 414.216000
   4814   4817   4818     1   109.5600471 388.275200
   4814   4817   4819     1   109.5600471 388.275200
   4815   4814   4817     1   109.8000471 387.438400
   4815   4814   4816     1   107.5800459 329.699200
   4816   4814   4817     1   109.8000471 387.438400
   4818   4817   4823     1   109.7800468 425.094400
   4818   4817   4819     1   108.4600466 328.025600
   4819   4817   4823     1   109.7800468 425.094400
   4821   4820   4822     1   106.4000456 346.435200
   4824   4827   4828     1   109.8000471 387.438400
   4824   4827   4829     1   109.8000471 387.438400
   4824   4833   4834     1   109.2900470 396.643200
   4824   4833   4835     1   109.2900470 396.643200
   4825   4824   4827     1   109.5600471 388.275200
   4825   4824   4833     1   109.8800469 414.216000
   4825   4824   4826     1   108.4600466 328.025600
   4826   4824   4827     1   109.5600471 388.275200
   4826   4824   4833     1   109.8800469 414.216000
   4827   4830   4831     1   109.5600471 388.275200
   4827   4830   4832     1   109.5600471 388.275200
   4828   4827   4830     1   109.8000471 387.438400
   4828   4827   4829     1   107.5800459 329.699200
   4829   4827   4830     1   109.8000471 387.438400
   4831   4830   4836     1   109.7800468 425.094400
   4831   4830   4832     1   108.4600466 328.025600
   4832   4830   4836     1   109.7800468 425.094400
   4834   4833   4835     1   106.4000456 346.435200
   4837   4840   4841     1   109.8000471 387.438400
   4837   4840   4842     1   109.8000471 387.438400
   4837   4846   4847     1   109.2900470 396.643200
   4837   4846   4848     1   109.2900470 396.643200
   4838   4837   4840     1   109.5600471 388.275200
   4838   4837   4846     1   109.8800469 414.216000
   4838   4837   4839     1   108.4600466 328.025600
   4839   4837   4840     1   109.5600471 388.275200
   4839   4837   4846     1   109.8800469 414.216000
   4840   4843   4844     1   109.5600471 388.275200
   4840   4843   4845     1   109.5600471 388.275200
   4841   4840   4843     1   109.8000471 387.438400
   4841   4840   4842     1   107.5800459 329.699200
   4842   4840   4843     1   109.8000471 387.438400
   4844   4843   4849     1   109.7800468 425.094400
   4844   4843   4845     1   108.4600466 328.025600
   4845   4843   4849     1   109.7800468 425.094400
   4847   4846   4848     1   106.4000456 346.435200
   4850   4853   4854     1   109.8000471 387.438400
   4850   4853   4855     1   109.8000471 387.438400
   4850   4859   4860     1   109.2900470 396.643200
   4850   4859   4861     1   109.2900470 396.643200
   4851   4850   4853     1   109.5600471 388.275200
   4851   4850   4859     1   109.8800469 414.216000
   4851   4850   4852     1   108.4600466 328.025600
   4852   4850   4853     1   109.5600471 388.275200
   4852   4850   4859     1   109.8800469 414.216000
   4853   4856   4857     1   109.5600471 388.275200
   4853   4856   4858     1   109.5600471 388.275200
   4854   4853   4856     1   109.8000471 387.438400
   4854   4853   4855     1   107.5800459 329.699200
   4855   4853   4856     1   109.8000471 387.438400
   4857   4856   4862     1   109.7800468 425.094400
   4857   4856   4858     1   108.4600466 328.025600
   4858   4856   4862     1   109.7800468 425.094400
   4860   4859   4861     1   106.4000456 346.435200
   4863   4866   4867     1   109.8000471 387.438400
   4863   4866   4868     1   109.8000471 387.438400
   4863   4872   4873     1   109.2900470 396.643200
   4863   4872   4874     1   109.2900470 396.643200
   4864   4863   4866     1   109.5600471 388.275200
   4864   4863   4872     1   109.8800469 414.216000
   4864   4863   4865     1   108.4600466 328.025600
   4865   4863   4866     1   109.5600471 388.275200
   4865   4863   4872     1   109.8800469 414.216000
   4866   4869   4870     1   109.5600471 388.275200
   4866   4869   4871     1   109.5600471 388.275200
   4867   4866   4869     1   109.8000471 387.438400
   4867   4866   4868     1   107.5800459 329.699200
   4868   4866   4869     1   109.8000471 387.438400
   4870   4869   4875     1   109.7800468 425.094400
   4870   4869   4871     1   108.4600466 328.025600
   4871   4869   4875     1   109.7800468 425.094400
   4873   4872   4874     1   106.4000456 346.435200
   4876   4879   4880     1   109.8000471 387.438400
   4876   4879   4881     1   109.8000471 387.438400
   4876   4885   4886     1   109.2900470 396.643200
   4876   4885   4887     1   109.2900470 396.643200
   4877   4876   4879     1   109.5600471 388.275200
   4877   4876   4885     1   109.8800469 414.216000
   4877   4876   4878     1   108.4600466 328.025600
   4878   4876   4879     1   109.5600471 388.275200
   4878   4876   4885     1   109.8800469 414.216000
   4879   4882   4883     1   109.5600471 388.275200
   4879   4882   4884     1   109.5600471 388.275200
   4880   4879   4882     1   109.8000471 387.438400
   4880   4879   4881     1   107.5800459 329.699200
   4881   4879   4882     1   109.8000471 387.438400
   4883   4882   4888     1   109.7800468 425.094400
   4883   4882   4884     1   108.4600466 328.025600
   4884   4882   4888     1   109.7800468 425.094400
   4886   4885   4887     1   106.4000456 346.435200
   4889   4892   4893     1   109.8000471 387.438400
   4889   4892   4894     1   109.8000471 387.438400
   4889   4898   4899     1   109.2900470 396.643200
   4889   4898   4900     1   109.2900470 396.643200
   4890   4889   4892     1   109.5600471 388.275200
   4890   4889   4898     1   109.8800469 414.216000
   4890   4889   4891     1   108.4600466 328.025600
   4891   4889   4892     1   109.5600471 388.275200
   4891   4889   4898     1   109.8800469 414.216000
   4892   4895   4896     1   109.5600471 388.275200
   4892   4895   4897     1   109.5600471 388.275200
   4893   4892   4895     1   109.8000471 387.438400
   4893   4892   4894     1   107.5800459 329.699200
   4894   4892   4895     1   109.8000471 387.438400
   4896   4895   4901     1   109.7800468 425.094400
   4896   4895   4897     1   108.4600466 328.025600
   4897   4895   4901     1   109.7800468 425.094400
   4899   4898   4900     1   106.4000456 346.435200
   4902   4905   4906     1   109.8000471 387.438400
   4902   4905   4907     1   109.8000471 387.438400
   4902   4911   4912     1   109.2900470 396.643200
   4902   4911   4913     1   109.2900470 396.643200
   4903   4902   4905     1   109.5600471 388.275200
   4903   4902   4911     1   109.8800469 414.216000
   4903   4902   4904     1   108.4600466 328.025600
   4904   4902   4905     1   109.5600471 388.275200
   4904   4902   4911     1   109.8800469 414.216000
   4905   4908   4909     1   109.5600471 388.275200
   4905   4908   4910     1   109.5600471 388.275200
   4906   4905   4908     1   109.8000471 387.438400
   4906   4905   4907     1   107.5800459 329.699200
   4907   4905   4908     1   109.8000471 387.438400
   4909   4908   4914     1   109.7800468 425.094400
   4909   4908   4910     1   108.4600466 328.025600
   4910   4908   4914     1   109.7800468 425.094400
   4912   4911   4913     1   106.4000456 346.435200
   4915   4918   4919     1   109.8000471 387.438400
   4915   4918   4920     1   109.8000471 387.438400
   4915   4924   4925     1   109.2900470 396.643200
   4915   4924   4926     1   109.2900470 396.643200
   4916   4915   4918     1   109.5600471 388.275200
   4916   4915   4924     1   109.8800469 414.216000
   4916   4915   4917     1   108.4600466 328.025600
   4917   4915   4918     1   109.5600471 388.275200
   4917   4915   4924     1   109.8800469 414.216000
   4918   4921   4922     1   109.5600471 388.275200
   4918   4921   4923     1   109.5600471 388.275200
   4919   4918   4921     1   109.8000471 387.438400
   4919   4918   4920     1   107.5800459 329.699200
   4920   4918   4921     1   109.8000471 387.438400
   4922   4921   4927     1   109.7800468 425.094400
   4922   4921   4923     1   108.4600466 328.025600
   4923   4921   4927     1   109.7800468 425.094400
   4925   4924   4926     1   106.4000456 346.435200
   4928   4931   4932     1   109.8000471 387.438400
   4928   4931   4933     1   109.8000471 387.438400
   4928   4937   4938     1   109.2900470 396.643200
   4928   4937   4939     1   109.2900470 396.643200
   4929   4928   4931     1   109.5600471 388.275200
   4929   4928   4937     1   109.8800469 414.216000
   4929   4928   4930     1   108.4600466 328.025600
   4930   4928   4931     1   109.5600471 388.275200
   4930   4928   4937     1   109.8800469 414.216000
   4931   4934   4935     1   109.5600471 388.275200
   4931   4934   4936     1   109.5600471 388.275200
   4932   4931   4934     1   109.8000471 387.438400
   4932   4931   4933     1   107.5800459 329.699200
   4933   4931   4934     1   109.8000471 387.438400
   4935   4934   4940     1   109.7800468 425.094400
   4935   4934   4936     1   108.4600466 328.025600
   4936   4934   4940     1   109.7800468 425.094400
   4938   4937   4939     1   106.4000456 346.435200
   4941   4944   4945     1   109.8000471 387.438400
   4941   4944   4946     1   109.8000471 387.438400
   4941   4950   4951     1   109.2900470 396.643200
   4941   4950   4952     1   109.2900470 396.643200
   4942   4941   4944     1   109.5600471 388.275200
   4942   4941   4950     1   109.8800469 414.216000
   4942   4941   4943     1   108.4600466 328.025600
   4943   4941   4944     1   109.5600471 388.275200
   4943   4941   4950     1   109.8800469 414.216000
   4944   4947   4948     1   109.5600471 388.275200
   4944   4947   4949     1   109.5600471 388.275200
   4945   4944   4947     1   109.8000471 387.438400
   4945   4944   4946     1   107.5800459 329.699200
   4946   4944   4947     1   109.8000471 387.438400
   4948   4947   4953     1   109.7800468 425.094400
   4948   4947   4949     1   108.4600466 328.025600
   4949   4947   4953     1   109.7800468 425.094400
   4951   4950   4952     1   106.4000456 346.435200
   4954   4957   4958     1   109.8000471 387.438400
   4954   4957   4959     1   109.8000471 387.438400
   4954   4963   4964     1   109.2900470 396.643200
   4954   4963   4965     1   109.2900470 396.643200
   4955   4954   4957     1   109.5600471 388.275200
   4955   4954   4963     1   109.8800469 414.216000
   4955   4954   4956     1   108.4600466 328.025600
   4956   4954   4957     1   109.5600471 388.275200
   4956   4954   4963     1   109.8800469 414.216000
   4957   4960   4961     1   109.5600471 388.275200
   4957   4960   4962     1   109.5600471 388.275200
   4958   4957   4960     1   109.8000471 387.438400
   4958   4957   4959     1   107.5800459 329.699200
   4959   4957   4960     1   109.8000471 387.438400
   4961   4960   4966     1   109.7800468 425.094400
   4961   4960   4962     1   108.4600466 328.025600
   4962   4960   4966     1   109.7800468 425.094400
   4964   4963   4965     1   106.4000456 346.435200
   4967   4970   4971     1   109.8000471 387.438400
   4967   4970   4972     1   109.8000471 387.438400
   4967   4976   4977     1   109.2900470 396.643200
   4967   4976   4978     1   109.2900470 396.643200
   4968   4967   4970     1   109.5600471 388.275200
   4968   4967   4976     1   109.8800469 414.216000
   4968   4967   4969     1   108.4600466 328.025600
   4969   4967   4970     1   109.5600471 388.275200
   4969   4967   4976     1   109.8800469 414.216000
   4970   4973   4974     1   109.5600471 388.275200
   4970   4973   4975     1   109.5600471 388.275200
   4971   4970   4973     1   109.8000471 387.438400
   4971   4970   4972     1   107.5800459 329.699200
   4972   4970   4973     1   109.8000471 387.438400
   4974   4973   4979     1   109.7800468 425.094400
   4974   4973   4975     1   108.4600466 328.025600
   4975   4973   4979     1   109.7800468 425.094400
   4977   4976   4978     1   106.4000456 346.435200
   4980   4983   4984     1   109.8000471 387.438400
   4980   4983   4985     1   109.8000471 387.438400
   4980   4989   4990     1   109.2900470 396.643200
   4980   4989   4991     1   109.2900470 396.643200
   4981   4980   4983     1   109.5600471 388.275200
   4981   4980   4989     1   109.8800469 414.216000
   4981   4980   4982     1   108.4600466 328.025600
   4982   4980   4983     1   109.5600471 388.275200
   4982   4980   4989     1   109.8800469 414.216000
   4983   4986   4987     1   109.5600471 388.275200
   4983   4986   4988     1   109.5600471 388.275200
   4984   4983   4986     1   109.8000471 387.438400
   4984   4983   4985     1   107.5800459 329.699200
   4985   4983   4986     1   109.8000471 387.438400
   4987   4986   4992     1   109.7800468 425.094400
   4987   4986   4988     1   108.4600466 328.025600
   4988   4986   4992     1   109.7800468 425.094400
   4990   4989   4991     1   106.4000456 346.435200
   4993   4996   4997     1   109.8000471 387.438400
   4993   4996   4998     1   109.8000471 387.438400
   4993   5002   5003     1   109.2900470 396.643200
   4993   5002   5004     1   109.2900470 396.643200
   4994   4993   4996     1   109.5600471 388.275200
   4994   4993   5002     1   109.8800469 414.216000
   4994   4993   4995     1   108.4600466 328.025600
   4995   4993   4996     1   109.5600471 388.275200
   4995   4993   5002     1   109.8800469 414.216000
   4996   4999   5000     1   109.5600471 388.275200
   4996   4999   5001     1   109.5600471 388.275200
   4997   4996   4999     1   109.8000471 387.438400
   4997   4996   4998     1   107.5800459 329.699200
   4998   4996   4999     1   109.8000471 387.438400
   5000   4999   5005     1   109.7800468 425.094400
   5000   4999   5001     1   108.4600466 328.025600
   5001   4999   5005     1   109.7800468 425.094400
   5003   5002   5004     1   106.4000456 346.435200
   5006   5009   5010     1   109.8000471 387.438400
   5006   5009   5011     1   109.8000471 387.438400
   5006   5015   5016     1   109.2900470 396.643200
   5006   5015   5017     1   109.2900470 396.643200
   5007   5006   5009     1   109.5600471 388.275200
   5007   5006   5015     1   109.8800469 414.216000
   5007   5006   5008     1   108.4600466 328.025600
   5008   5006   5009     1   109.5600471 388.275200
   5008   5006   5015     1   109.8800469 414.216000
   5009   5012   5013     1   109.5600471 388.275200
   5009   5012   5014     1   109.5600471 388.275200
   5010   5009   5012     1   109.8000471 387.438400
   5010   5009   5011     1   107.5800459 329.699200
   5011   5009   5012     1   109.8000471 387.438400
   5013   5012   5018     1   109.7800468 425.094400
   5013   5012   5014     1   108.4600466 328.025600
   5014   5012   5018     1   109.7800468 425.094400
   5016   5015   5017     1   106.4000456 346.435200
   5019   5022   5023     1   109.8000471 387.438400
   5019   5022   5024     1   109.8000471 387.438400
   5019   5028   5029     1   109.2900470 396.643200
   5019   5028   5030     1   109.2900470 396.643200
   5020   5019   5022     1   109.5600471 388.275200
   5020   5019   5028     1   109.8800469 414.216000
   5020   5019   5021     1   108.4600466 328.025600
   5021   5019   5022     1   109.5600471 388.275200
   5021   5019   5028     1   109.8800469 414.216000
   5022   5025   5026     1   109.5600471 388.275200
   5022   5025   5027     1   109.5600471 388.275200
   5023   5022   5025     1   109.8000471 387.438400
   5023   5022   5024     1   107.5800459 329.699200
   5024   5022   5025     1   109.8000471 387.438400
   5026   5025   5031     1   109.7800468 425.094400
   5026   5025   5027     1   108.4600466 328.025600
   5027   5025   5031     1   109.7800468 425.094400
   5029   5028   5030     1   106.4000456 346.435200
   5032   5035   5036     1   109.8000471 387.438400
   5032   5035   5037     1   109.8000471 387.438400
   5032   5041   5042     1   109.2900470 396.643200
   5032   5041   5043     1   109.2900470 396.643200
   5033   5032   5035     1   109.5600471 388.275200
   5033   5032   5041     1   109.8800469 414.216000
   5033   5032   5034     1   108.4600466 328.025600
   5034   5032   5035     1   109.5600471 388.275200
   5034   5032   5041     1   109.8800469 414.216000
   5035   5038   5039     1   109.5600471 388.275200
   5035   5038   5040     1   109.5600471 388.275200
   5036   5035   5038     1   109.8000471 387.438400
   5036   5035   5037     1   107.5800459 329.699200
   5037   5035   5038     1   109.8000471 387.438400
   5039   5038   5044     1   109.7800468 425.094400
   5039   5038   5040     1   108.4600466 328.025600
   5040   5038   5044     1   109.7800468 425.094400
   5042   5041   5043     1   106.4000456 346.435200
   5045   5048   5049     1   109.8000471 387.438400
   5045   5048   5050     1   109.8000471 387.438400
   5045   5054   5055     1   109.2900470 396.643200
   5045   5054   5056     1   109.2900470 396.643200
   5046   5045   5048     1   109.5600471 388.275200
   5046   5045   5054     1   109.8800469 414.216000
   5046   5045   5047     1   108.4600466 328.025600
   5047   5045   5048     1   109.5600471 388.275200
   5047   5045   5054     1   109.8800469 414.216000
   5048   5051   5052     1   109.5600471 388.275200
   5048   5051   5053     1   109.5600471 388.275200
   5049   5048   5051     1   109.8000471 387.438400
   5049   5048   5050     1   107.5800459 329.699200
   5050   5048   5051     1   109.8000471 387.438400
   5052   5051   5057     1   109.7800468 425.094400
   5052   5051   5053     1   108.4600466 328.025600
   5053   5051   5057     1   109.7800468 425.094400
   5055   5054   5056     1   106.4000456 346.435200
   5058   5061   5062     1   109.8000471 387.438400
   5058   5061   5063     1   109.8000471 387.438400
   5058   5067   5068     1   109.2900470 396.643200
   5058   5067   5069     1   109.2900470 396.643200
   5059   5058   5061     1   109.5600471 388.275200
   5059   5058   5067     1   109.8800469 414.216000
   5059   5058   5060     1   108.4600466 328.025600
   5060   5058   5061     1   109.5600471 388.275200
   5060   5058   5067     1   109.8800469 414.216000
   5061   5064   5065     1   109.5600471 388.275200
   5061   5064   5066     1   109.5600471 388.275200
   5062   5061   5064     1   109.8000471 387.438400
   5062   5061   5063     1   107.5800459 329.699200
   5063   5061   5064     1   109.8000471 387.438400
   5065   5064   5070     1   109.7800468 425.094400
   5065   5064   5066     1   108.4600466 328.025600
   5066   5064   5070     1   109.7800468 425.094400
   5068   5067   5069     1   106.4000456 346.435200
   5071   5074   5075     1   109.8000471 387.438400
   5071   5074   5076     1   109.8000471 387.438400
   5071   5080   5081     1   109.2900470 396.643200
   5071   5080   5082     1   109.2900470 396.643200
   5072   5071   5074     1   109.5600471 388.275200
   5072   5071   5080     1   109.8800469 414.216000
   5072   5071   5073     1   108.4600466 328.025600
   5073   5071   5074     1   109.5600471 388.275200
   5073   5071   5080     1   109.8800469 414.216000
   5074   5077   5078     1   109.5600471 388.275200
   5074   5077   5079     1   109.5600471 388.275200
   5075   5074   5077     1   109.8000471 387.438400
   5075   5074   5076     1   107.5800459 329.699200
   5076   5074   5077     1   109.8000471 387.438400
   5078   5077   5083     1   109.7800468 425.094400
   5078   5077   5079     1   108.4600466 328.025600
   5079   5077   5083     1   109.7800468 425.094400
   5081   5080   5082     1   106.4000456 346.435200
   5084   5087   5088     1   109.8000471 387.438400
   5084   5087   5089     1   109.8000471 387.438400
   5084   5093   5094     1   109.2900470 396.643200
   5084   5093   5095     1   109.2900470 396.643200
   5085   5084   5087     1   109.5600471 388.275200
   5085   5084   5093     1   109.8800469 414.216000
   5085   5084   5086     1   108.4600466 328.025600
   5086   5084   5087     1   109.5600471 388.275200
   5086   5084   5093     1   109.8800469 414.216000
   5087   5090   5091     1   109.5600471 388.275200
   5087   5090   5092     1   109.5600471 388.275200
   5088   5087   5090     1   109.8000471 387.438400
   5088   5087   5089     1   107.5800459 329.699200
   5089   5087   5090     1   109.8000471 387.438400
   5091   5090   5096     1   109.7800468 425.094400
   5091   5090   5092     1   108.4600466 328.025600
   5092   5090   5096     1   109.7800468 425.094400
   5094   5093   5095     1   106.4000456 346.435200
   5097   5100   5101     1   109.8000471 387.438400
   5097   5100   5102     1   109.8000471 387.438400
   5097   5106   5107     1   109.2900470 396.643200
   5097   5106   5108     1   109.2900470 396.643200
   5098   5097   5100     1   109.5600471 388.275200
   5098   5097   5106     1   109.8800469 414.216000
   5098   5097   5099     1   108.4600466 328.025600
   5099   5097   5100     1   109.5600471 388.275200
   5099   5097   5106     1   109.8800469 414.216000
   5100   5103   5104     1   109.5600471 388.275200
   5100   5103   5105     1   109.5600471 388.275200
   5101   5100   5103     1   109.8000471 387.438400
   5101   5100   5102     1   107.5800459 329.699200
   5102   5100   5103     1   109.8000471 387.438400
   5104   5103   5109     1   109.7800468 425.094400
   5104   5103   5105     1   108.4600466 328.025600
   5105   5103   5109     1   109.7800468 425.094400
   5107   5106   5108     1   106.4000456 346.435200
   5110   5113   5114     1   109.8000471 387.438400
   5110   5113   5115     1   109.8000471 387.438400
   5110   5119   5120     1   109.2900470 396.643200
   5110   5119   5121     1   109.2900470 396.643200
   5111   5110   5113     1   109.5600471 388.275200
   5111   5110   5119     1   109.8800469 414.216000
   5111   5110   5112     1   108.4600466 328.025600
   5112   5110   5113     1   109.5600471 388.275200
   5112   5110   5119     1   109.8800469 414.216000
   5113   5116   5117     1   109.5600471 388.275200
   5113   5116   5118     1   109.5600471 388.275200
   5114   5113   5116     1   109.8000471 387.438400
   5114   5113   5115     1   107.5800459 329.699200
   5115   5113   5116     1   109.8000471 387.438400
   5117   5116   5122     1   109.7800468 425.094400
   5117   5116   5118     1   108.4600466 328.025600
   5118   5116   5122     1   109.7800468 425.094400
   5120   5119   5121     1   106.4000456 346.435200
   5123   5126   5127     1   109.8000471 387.438400
   5123   5126   5128     1   109.8000471 387.438400
   5123   5132   5133     1   109.2900470 396.643200
   5123   5132   5134     1   109.2900470 396.643200
   5124   5123   5126     1   109.5600471 388.275200
   5124   5123   5132     1   109.8800469 414.216000
   5124   5123   5125     1   108.4600466 328.025600
   5125   5123   5126     1   109.5600471 388.275200
   5125   5123   5132     1   109.8800469 414.216000
   5126   5129   5130     1   109.5600471 388.275200
   5126   5129   5131     1   109.5600471 388.275200
   5127   5126   5129     1   109.8000471 387.438400
   5127   5126   5128     1   107.5800459 329.699200
   5128   5126   5129     1   109.8000471 387.438400
   5130   5129   5135     1   109.7800468 425.094400
   5130   5129   5131     1   108.4600466 328.025600
   5131   5129   5135     1   109.7800468 425.094400
   5133   5132   5134     1   106.4000456 346.435200
   5136   5139   5140     1   109.8000471 387.438400
   5136   5139   5141     1   109.8000471 387.438400
   5136   5145   5146     1   109.2900470 396.643200
   5136   5145   5147     1   109.2900470 396.643200
   5137   5136   5139     1   109.5600471 388.275200
   5137   5136   5145     1   109.8800469 414.216000
   5137   5136   5138     1   108.4600466 328.025600
   5138   5136   5139     1   109.5600471 388.275200
   5138   5136   5145     1   109.8800469 414.216000
   5139   5142   5143     1   109.5600471 388.275200
   5139   5142   5144     1   109.5600471 388.275200
   5140   5139   5142     1   109.8000471 387.438400
   5140   5139   5141     1   107.5800459 329.699200
   5141   5139   5142     1   109.8000471 387.438400
   5143   5142   5148     1   109.7800468 425.094400
   5143   5142   5144     1   108.4600466 328.025600
   5144   5142   5148     1   109.7800468 425.094400
   5146   5145   5147     1   106.4000456 346.435200
   5149   5152   5153     1   109.8000471 387.438400
   5149   5152   5154     1   109.8000471 387.438400
   5149   5158   5159     1   109.2900470 396.643200
   5149   5158   5160     1   109.2900470 396.643200
   5150   5149   5152     1   109.5600471 388.275200
   5150   5149   5158     1   109.8800469 414.216000
   5150   5149   5151     1   108.4600466 328.025600
   5151   5149   5152     1   109.5600471 388.275200
   5151   5149   5158     1   109.8800469 414.216000
   5152   5155   5156     1   109.5600471 388.275200
   5152   5155   5157     1   109.5600471 388.275200
   5153   5152   5155     1   109.8000471 387.438400
   5153   5152   5154     1   107.5800459 329.699200
   5154   5152   5155     1   109.8000471 387.438400
   5156   5155   5161     1   109.7800468 425.094400
   5156   5155   5157     1   108.4600466 328.025600
   5157   5155   5161     1   109.7800468 425.094400
   5159   5158   5160     1   106.4000456 346.435200
   5162   5165   5166     1   109.8000471 387.438400
   5162   5165   5167     1   109.8000471 387.438400
   5162   5171   5172     1   109.2900470 396.643200
   5162   5171   5173     1   109.2900470 396.643200
   5163   5162   5165     1   109.5600471 388.275200
   5163   5162   5171     1   109.8800469 414.216000
   5163   5162   5164     1   108.4600466 328.025600
   5164   5162   5165     1   109.5600471 388.275200
   5164   5162   5171     1   109.8800469 414.216000
   5165   5168   5169     1   109.5600471 388.275200
   5165   5168   5170     1   109.5600471 388.275200
   5166   5165   5168     1   109.8000471 387.438400
   5166   5165   5167     1   107.5800459 329.699200
   5167   5165   5168     1   109.8000471 387.438400
   5169   5168   5174     1   109.7800468 425.094400
   5169   5168   5170     1   108.4600466 328.025600
   5170   5168   5174     1   109.7800468 425.094400
   5172   5171   5173     1   106.4000456 346.435200
   5175   5178   5179     1   109.8000471 387.438400
   5175   5178   5180     1   109.8000471 387.438400
   5175   5184   5185     1   109.2900470 396.643200
   5175   5184   5186     1   109.2900470 396.643200
   5176   5175   5178     1   109.5600471 388.275200
   5176   5175   5184     1   109.8800469 414.216000
   5176   5175   5177     1   108.4600466 328.025600
   5177   5175   5178     1   109.5600471 388.275200
   5177   5175   5184     1   109.8800469 414.216000
   5178   5181   5182     1   109.5600471 388.275200
   5178   5181   5183     1   109.5600471 388.275200
   5179   5178   5181     1   109.8000471 387.438400
   5179   5178   5180     1   107.5800459 329.699200
   5180   5178   5181     1   109.8000471 387.438400
   5182   5181   5187     1   109.7800468 425.094400
   5182   5181   5183     1   108.4600466 328.025600
   5183   5181   5187     1   109.7800468 425.094400
   5185   5184   5186     1   106.4000456 346.435200
   5188   5191   5192     1   109.8000471 387.438400
   5188   5191   5193     1   109.8000471 387.438400
   5188   5197   5198     1   109.2900470 396.643200
   5188   5197   5199     1   109.2900470 396.643200
   5189   5188   5191     1   109.5600471 388.275200
   5189   5188   5197     1   109.8800469 414.216000
   5189   5188   5190     1   108.4600466 328.025600
   5190   5188   5191     1   109.5600471 388.275200
   5190   5188   5197     1   109.8800469 414.216000
   5191   5194   5195     1   109.5600471 388.275200
   5191   5194   5196     1   109.5600471 388.275200
   5192   5191   5194     1   109.8000471 387.438400
   5192   5191   5193     1   107.5800459 329.699200
   5193   5191   5194     1   109.8000471 387.438400
   5195   5194   5200     1   109.7800468 425.094400
   5195   5194   5196     1   108.4600466 328.025600
   5196   5194   5200     1   109.7800468 425.094400
   5198   5197   5199     1   106.4000456 346.435200
   5201   5204   5205     1   109.8000471 387.438400
   5201   5204   5206     1   109.8000471 387.438400
   5201   5210   5211     1   109.2900470 396.643200
   5201   5210   5212     1   109.2900470 396.643200
   5202   5201   5204     1   109.5600471 388.275200
   5202   5201   5210     1   109.8800469 414.216000
   5202   5201   5203     1   108.4600466 328.025600
   5203   5201   5204     1   109.5600471 388.275200
   5203   5201   5210     1   109.8800469 414.216000
   5204   5207   5208     1   109.5600471 388.275200
   5204   5207   5209     1   109.5600471 388.275200
   5205   5204   5207     1   109.8000471 387.438400
   5205   5204   5206     1   107.5800459 329.699200
   5206   5204   5207     1   109.8000471 387.438400
   5208   5207   5213     1   109.7800468 425.094400
   5208   5207   5209     1   108.4600466 328.025600
   5209   5207   5213     1   109.7800468 425.094400
   5211   5210   5212     1   106.4000456 346.435200
   5214   5217   5218     1   109.8000471 387.438400
   5214   5217   5219     1   109.8000471 387.438400
   5214   5223   5224     1   109.2900470 396.643200
   5214   5223   5225     1   109.2900470 396.643200
   5215   5214   5217     1   109.5600471 388.275200
   5215   5214   5223     1   109.8800469 414.216000
   5215   5214   5216     1   108.4600466 328.025600
   5216   5214   5217     1   109.5600471 388.275200
   5216   5214   5223     1   109.8800469 414.216000
   5217   5220   5221     1   109.5600471 388.275200
   5217   5220   5222     1   109.5600471 388.275200
   5218   5217   5220     1   109.8000471 387.438400
   5218   5217   5219     1   107.5800459 329.699200
   5219   5217   5220     1   109.8000471 387.438400
   5221   5220   5226     1   109.7800468 425.094400
   5221   5220   5222     1   108.4600466 328.025600
   5222   5220   5226     1   109.7800468 425.094400
   5224   5223   5225     1   106.4000456 346.435200
   5227   5230   5231     1   109.8000471 387.438400
   5227   5230   5232     1   109.8000471 387.438400
   5227   5236   5237     1   109.2900470 396.643200
   5227   5236   5238     1   109.2900470 396.643200
   5228   5227   5230     1   109.5600471 388.275200
   5228   5227   5236     1   109.8800469 414.216000
   5228   5227   5229     1   108.4600466 328.025600
   5229   5227   5230     1   109.5600471 388.275200
   5229   5227   5236     1   109.8800469 414.216000
   5230   5233   5234     1   109.5600471 388.275200
   5230   5233   5235     1   109.5600471 388.275200
   5231   5230   5233     1   109.8000471 387.438400
   5231   5230   5232     1   107.5800459 329.699200
   5232   5230   5233     1   109.8000471 387.438400
   5234   5233   5239     1   109.7800468 425.094400
   5234   5233   5235     1   108.4600466 328.025600
   5235   5233   5239     1   109.7800468 425.094400
   5237   5236   5238     1   106.4000456 346.435200
   5240   5243   5244     1   109.8000471 387.438400
   5240   5243   5245     1   109.8000471 387.438400
   5240   5249   5250     1   109.2900470 396.643200
   5240   5249   5251     1   109.2900470 396.643200
   5241   5240   5243     1   109.5600471 388.275200
   5241   5240   5249     1   109.8800469 414.216000
   5241   5240   5242     1   108.4600466 328.025600
   5242   5240   5243     1   109.5600471 388.275200
   5242   5240   5249     1   109.8800469 414.216000
   5243   5246   5247     1   109.5600471 388.275200
   5243   5246   5248     1   109.5600471 388.275200
   5244   5243   5246     1   109.8000471 387.438400
   5244   5243   5245     1   107.5800459 329.699200
   5245   5243   5246     1   109.8000471 387.438400
   5247   5246   5252     1   109.7800468 425.094400
   5247   5246   5248     1   108.4600466 328.025600
   5248   5246   5252     1   109.7800468 425.094400
   5250   5249   5251     1   106.4000456 346.435200
   5253   5256   5257     1   109.8000471 387.438400
   5253   5256   5258     1   109.8000471 387.438400
   5253   5262   5263     1   109.2900470 396.643200
   5253   5262   5264     1   109.2900470 396.643200
   5254   5253   5256     1   109.5600471 388.275200
   5254   5253   5262     1   109.8800469 414.216000
   5254   5253   5255     1   108.4600466 328.025600
   5255   5253   5256     1   109.5600471 388.275200
   5255   5253   5262     1   109.8800469 414.216000
   5256   5259   5260     1   109.5600471 388.275200
   5256   5259   5261     1   109.5600471 388.275200
   5257   5256   5259     1   109.8000471 387.438400
   5257   5256   5258     1   107.5800459 329.699200
   5258   5256   5259     1   109.8000471 387.438400
   5260   5259   5265     1   109.7800468 425.094400
   5260   5259   5261     1   108.4600466 328.025600
   5261   5259   5265     1   109.7800468 425.094400
   5263   5262   5264     1   106.4000456 346.435200
   5266   5269   5270     1   109.8000471 387.438400
   5266   5269   5271     1   109.8000471 387.438400
   5266   5275   5276     1   109.2900470 396.643200
   5266   5275   5277     1   109.2900470 396.643200
   5267   5266   5269     1   109.5600471 388.275200
   5267   5266   5275     1   109.8800469 414.216000
   5267   5266   5268     1   108.4600466 328.025600
   5268   5266   5269     1   109.5600471 388.275200
   5268   5266   5275     1   109.8800469 414.216000
   5269   5272   5273     1   109.5600471 388.275200
   5269   5272   5274     1   109.5600471 388.275200
   5270   5269   5272     1   109.8000471 387.438400
   5270   5269   5271     1   107.5800459 329.699200
   5271   5269   5272     1   109.8000471 387.438400
   5273   5272   5278     1   109.7800468 425.094400
   5273   5272   5274     1   108.4600466 328.025600
   5274   5272   5278     1   109.7800468 425.094400
   5276   5275   5277     1   106.4000456 346.435200
   5279   5282   5283     1   109.8000471 387.438400
   5279   5282   5284     1   109.8000471 387.438400
   5279   5288   5289     1   109.2900470 396.643200
   5279   5288   5290     1   109.2900470 396.643200
   5280   5279   5282     1   109.5600471 388.275200
   5280   5279   5288     1   109.8800469 414.216000
   5280   5279   5281     1   108.4600466 328.025600
   5281   5279   5282     1   109.5600471 388.275200
   5281   5279   5288     1   109.8800469 414.216000
   5282   5285   5286     1   109.5600471 388.275200
   5282   5285   5287     1   109.5600471 388.275200
   5283   5282   5285     1   109.8000471 387.438400
   5283   5282   5284     1   107.5800459 329.699200
   5284   5282   5285     1   109.8000471 387.438400
   5286   5285   5291     1   109.7800468 425.094400
   5286   5285   5287     1   108.4600466 328.025600
   5287   5285   5291     1   109.7800468 425.094400
   5289   5288   5290     1   106.4000456 346.435200
   5292   5295   5296     1   109.8000471 387.438400
   5292   5295   5297     1   109.8000471 387.438400
   5292   5301   5302     1   109.2900470 396.643200
   5292   5301   5303     1   109.2900470 396.643200
   5293   5292   5295     1   109.5600471 388.275200
   5293   5292   5301     1   109.8800469 414.216000
   5293   5292   5294     1   108.4600466 328.025600
   5294   5292   5295     1   109.5600471 388.275200
   5294   5292   5301     1   109.8800469 414.216000
   5295   5298   5299     1   109.5600471 388.275200
   5295   5298   5300     1   109.5600471 388.275200
   5296   5295   5298     1   109.8000471 387.438400
   5296   5295   5297     1   107.5800459 329.699200
   5297   5295   5298     1   109.8000471 387.438400
   5299   5298   5304     1   109.7800468 425.094400
   5299   5298   5300     1   108.4600466 328.025600
   5300   5298   5304     1   109.7800468 425.094400
   5302   5301   5303     1   106.4000456 346.435200
   5305   5308   5309     1   109.8000471 387.438400
   5305   5308   5310     1   109.8000471 387.438400
   5305   5314   5315     1   109.2900470 396.643200
   5305   5314   5316     1   109.2900470 396.643200
   5306   5305   5308     1   109.5600471 388.275200
   5306   5305   5314     1   109.8800469 414.216000
   5306   5305   5307     1   108.4600466 328.025600
   5307   5305   5308     1   109.5600471 388.275200
   5307   5305   5314     1   109.8800469 414.216000
   5308   5311   5312     1   109.5600471 388.275200
   5308   5311   5313     1   109.5600471 388.275200
   5309   5308   5311     1   109.8000471 387.438400
   5309   5308   5310     1   107.5800459 329.699200
   5310   5308   5311     1   109.8000471 387.438400
   5312   5311   5317     1   109.7800468 425.094400
   5312   5311   5313     1   108.4600466 328.025600
   5313   5311   5317     1   109.7800468 425.094400
   5315   5314   5316     1   106.4000456 346.435200

[ dihedrals ]
;    ai     aj     ak     al funct         c0         c1         c2         c3         c4         c5
      1      2      8     14     1  0.0000000  0.6508444  3
      1      5     11     17     1  0.0000000  0.6508444  3
      2      1      5     11     1  180.0000771  0.4184000  2
      2      1      5     11     1  0.0000000  1.6024720  3
      2      8     14     20     1  0.0000000  0.6508444  3
      5      1      2      8     1  180.0000771  0.4184000  2
      5      1      2      8     1  0.0000000  1.6024720  3
      5     11     17     21     1  0.0000000  0.6508444  3
      8     14     20     28     1  180.0000771  2.0083200  2
      8     14     20     28     1  0.0000000  1.2552000  3
      8     14     20     31     1  180.0000771  2.0083200  2
      8     14     20     31     1  0.0000000  1.2552000  3
     11     17     21     22     1  180.0000771  2.0083200  2
     11     17     21     22     1  0.0000000  1.2552000  3
     11     17     21     25     1  180.0000771  2.0083200  2
     11     17     21     25     1  0.0000000  1.2552000  3
     14     20     28     40     1  180.0000771  2.0083200  2
     14     20     28     40     1  0.0000000  1.2552000  3
     14     20     31     43     1  180.0000771  2.0083200  2
     14     20     31     43     1  0.0000000  1.2552000  3
     17     21     22     34     1  180.0000771  2.0083200  2
     17     21     22     34     1  0.0000000  1.2552000  3
     17     21     25     37     1  180.0000771  2.0083200  2
     17     21     25     37     1  0.0000000  1.2552000  3
     20     28     40     49     1  0.0000000  0.6508444  3
     20     31     43     46     1  0.0000000  0.6508444  3
     21     22     34     55     1  0.0000000  0.6508444  3
     21     25     37     52     1  0.0000000  0.6508444  3
     22     21     25     37     1  180.0000771  2.0083200  2
     22     21     25     37     1  0.0000000  1.2552000  3
     22     34     55    173     1  0.0000000  0.6508444  3
     25     21     22     34     1  180.0000771  2.0083200  2
     25     21     22     34     1  0.0000000  1.2552000  3
     25     37     52    144     1  0.0000000  0.6508444  3
     28     20     31     43     1  180.0000771  2.0083200  2
     28     20     31     43     1  0.0000000  1.2552000  3
     28     40     49    115     1  0.0000000  0.6508444  3
     31     20     28     40     1  180.0000771  2.0083200  2
     31     20     28     40     1  0.0000000  1.2552000  3
     31     43     46     86     1  0.0000000  0.6508444  3
     34     55    173    164     1  180.0000771  0.4184000  2
     34     55    173    164     1  0.0000000  1.6024720  3
     37     52    144    135     1  180.0000771  0.4184000  2
     37     52    144    135     1  0.0000000  1.6024720  3
     40     49    115    106     1  180.0000771  0.4184000  2
     40     49    115    106     1  0.0000000  1.6024720  3
     43     46     86     77     1  180.0000771  0.4184000  2
     43     46     86     77     1  0.0000000  1.6024720  3
     46     86     77     68     1  180.0000771  0.4184000  2
     46     86     77     68     1  0.0000000  1.6024720  3
     49    115    106     97     1  180.0000771  0.4184000  2
     49    115    106     97     1  0.0000000  1.6024720  3
     52    144    135    126     1  180.0000771  0.4184000  2
     52    144    135    126     1  0.0000000  1.6024720  3
     55    173    164    155     1  180.0000771  0.4184000  2
     55    173    164    155     1  0.0000000  1.6024720  3
     58     59     71     83     1  0.0000000  0.6508444  3
     58     62     74     80     1  0.0000000  0.6508444  3
     58     65     68     77     1  0.0000000  0.6508444  3
     59     58     62     74     1  180.0000771  2.0083200  2
     59     58     62     74     1  0.0000000  1.2552000  3
     59     58     65     68     1  180.0000771  2.0083200  2
     59     58     65     68     1  0.0000000  1.2552000  3
     59     71     83    231     1  0.0000000  0.6508444  3
     62     58     59     71     1  180.0000771  2.0083200  2
     62     58     59     71     1  0.0000000  1.2552000  3
     62     58     65     68     1  180.0000771  2.0083200  2
     62     58     65     68     1  0.0000000  1.2552000  3
     62     74     80    202     1  0.0000000  0.6508444  3
     65     58     59     71     1  180.0000771  2.0083200  2
     65     58     59     71     1  0.0000000  1.2552000  3
     65     58     62     74     1  180.0000771  2.0083200  2
     65     58     62     74     1  0.0000000  1.2552000  3
     65     68     77     86     1  0.0000000  0.6508444  3
     71     83    231    222     1  180.0000771  0.4184000  2
     71     83    231    222     1  0.0000000  1.6024720  3
     74     80    202    193     1  180.0000771  0.4184000  2
     74     80    202    193     1  0.0000000  1.6024720  3
     80    202    193    184     1  180.0000771  0.4184000  2
     80    202    193    184     1  0.0000000  1.6024720  3
     83    231    222    213     1  180.0000771  0.4184000  2
     83    231    222    213     1  0.0000000  1.6024720  3
     87     88    100    112     1  0.0000000  0.6508444  3
     87     91    103    109     1  0.0000000  0.6508444  3
     87     94     97    106     1  0.0000000  0.6508444  3
     88     87     91    103     1  180.0000771  2.0083200  2
     88     87     91    103     1  0.0000000  1.2552000  3
     88     87     94     97     1  180.0000771  2.0083200  2
     88     87     94     97     1  0.0000000  1.2552000  3
     88    100    112    289     1  0.0000000  0.6508444  3
     91     87     88    100     1  180.0000771  2.0083200  2
     91     87     88    100     1  0.0000000  1.2552000  3
     91     87     94     97     1  180.0000771  2.0083200  2
     91     87     94     97     1  0.0000000  1.2552000  3
     91    103    109    260     1  0.0000000  0.6508444  3
     94     87     88    100     1  180.0000771  2.0083200  2
     94     87     88    100     1  0.0000000  1.2552000  3
     94     87     91    103     1  180.0000771  2.0083200  2
     94     87     91    103     1  0.0000000  1.2552000  3
     94     97    106    115     1  0.0000000  0.6508444  3
    100    112    289    280     1  180.0000771  0.4184000  2
    100    112    289    280     1  0.0000000  1.6024720  3
    103    109    260    251     1  180.0000771  0.4184000  2
    103    109    260    251     1  0.0000000  1.6024720  3
    109    260    251    242     1  180.0000771  0.4184000  2
    109    260    251    242     1  0.0000000  1.6024720  3
    112    289    280    271     1  180.0000771  0.4184000  2
    112    289    280    271     1  0.0000000  1.6024720  3
    116    117    129    141     1  0.0000000  0.6508444  3
    116    120    132    138     1  0.0000000  0.6508444  3
    116    123    126    135     1  0.0000000  0.6508444  3
    117    116    120    132     1  180.0000771  2.0083200  2
    117    116    120    132     1  0.0000000  1.2552000  3
    117    116    123    126     1  180.0000771  2.0083200  2
    117    116    123    126     1  0.0000000  1.2552000  3
    117    129    141    347     1  0.0000000  0.6508444  3
    120    116    117    129     1  180.0000771  2.0083200  2
    120    116    117    129     1  0.0000000  1.2552000  3
    120    116    123    126     1  180.0000771  2.0083200  2
    120    116    123    126     1  0.0000000  1.2552000  3
    120    132    138    318     1  0.0000000  0.6508444  3
    123    116    117    129     1  180.0000771  2.0083200  2
    123    116    117    129     1  0.0000000  1.2552000  3
    123    116    120    132     1  180.0000771  2.0083200  2
    123    116    120    132     1  0.0000000  1.2552000  3
    123    126    135    144     1  0.0000000  0.6508444  3
    129    141    347    338     1  180.0000771  0.4184000  2
    129    141    347    338     1  0.0000000  1.6024720  3
    132    138    318    309     1  180.0000771  0.4184000  2
    132    138    318    309     1  0.0000000  1.6024720  3
    138    318    309    300     1  180.0000771  0.4184000  2
    138    318    309    300     1  0.0000000  1.6024720  3
    141    347    338    329     1  180.0000771  0.4184000  2
    141    347    338    329     1  0.0000000  1.6024720  3
    145    146    158    170     1  0.0000000  0.6508444  3
    145    149    161    167     1  0.0000000  0.6508444  3
    145    152    155    164     1  0.0000000  0.6508444  3
    146    145    149    161     1  180.0000771  2.0083200  2
    146    145    149    161     1  0.0000000  1.2552000  3
    146    145    152    155     1  180.0000771  2.0083200  2
    146    145    152    155     1  0.0000000  1.2552000  3
    146    158    170    405     1  0.0000000  0.6508444  3
    149    145    146    158     1  180.0000771  2.0083200  2
    149    145    146    158     1  0.0000000  1.2552000  3
    149    145    152    155     1  180.0000771  2.0083200  2
    149    145    152    155     1  0.0000000  1.2552000  3
    149    161    167    376     1  0.0000000  0.6508444  3
    152    145    146    158     1  180.0000771  2.0083200  2
    152    145    146    158     1  0.0000000  1.2552000  3
    152    145    149    161     1  180.0000771  2.0083200  2
    152    145    149    161     1  0.0000000  1.2552000  3
    152    155    164    173     1  0.0000000  0.6508444  3
    158    170    405    396     1  180.0000771  0.4184000  2
    158    170    405    396     1  0.0000000  1.6024720  3
    161    167    376    367     1  180.0000771  0.4184000  2
    161    167    376    367     1  0.0000000  1.6024720  3
    167    376    367    358     1  180.0000771  0.4184000  2
    167    376    367    358     1  0.0000000  1.6024720  3
    170    405    396    387     1  180.0000771  0.4184000  2
    170    405    396    387     1  0.0000000  1.6024720  3
    174    175    187    199     1  0.0000000  0.6508444  3
    174    178    190    196     1  0.0000000  0.6508444  3
    174    181    184    193     1  0.0000000  0.6508444  3
    175    174    178    190     1  180.0000771  2.0083200  2
    175    174    178    190     1  0.0000000  1.2552000  3
    175    174    181    184     1  180.0000771  2.0083200  2
    175    174    181    184     1  0.0000000  1.2552000  3
    175    187    199    463     1  0.0000000  0.6508444  3
    178    174    175    187     1  180.0000771  2.0083200  2
    178    174    175    187     1  0.0000000  1.2552000  3
    178    174    181    184     1  180.0000771  2.0083200  2
    178    174    181    184     1  0.0000000  1.2552000  3
    178    190    196    434     1  0.0000000  0.6508444  3
    181    174    175    187     1  180.0000771  2.0083200  2
    181    174    175    187     1  0.0000000  1.2552000  3
    181    174    178    190     1  180.0000771  2.0083200  2
    181    174    178    190     1  0.0000000  1.2552000  3
    181    184    193    202     1  0.0000000  0.6508444  3
    187    199    463    454     1  180.0000771  0.4184000  2
    187    199    463    454     1  0.0000000  1.6024720  3
    190    196    434    425     1  180.0000771  0.4184000  2
    190    196    434    425     1  0.0000000  1.6024720  3
    196    434    425    416     1  180.0000771  0.4184000  2
    196    434    425    416     1  0.0000000  1.6024720  3
    199    463    454    445     1  180.0000771  0.4184000  2
    199    463    454    445     1  0.0000000  1.6024720  3
    203    204    216    228     1  0.0000000  0.6508444  3
    203    207    219    225     1  0.0000000  0.6508444  3
    203    210    213    222     1  0.0000000  0.6508444  3
    204    203    207    219     1  180.0000771  2.0083200  2
    204    203    207    219     1  0.0000000  1.2552000  3
    204    203    210    213     1  180.0000771  2.0083200  2
    204    203    210    213     1  0.0000000  1.2552000  3
    204    216    228    521     1  0.0000000  0.6508444  3
    207    203    204    216     1  180.0000771  2.0083200  2
    207    203    204    216     1  0.0000000  1.2552000  3
    207    203    210    213     1  180.0000771  2.0083200  2
    207    203    210    213     1  0.0000000  1.2552000  3
    207    219    225    492     1  0.0000000  0.6508444  3
    210    203    204    216     1  180.0000771  2.0083200  2
    210    203    204    216     1  0.0000000  1.2552000  3
    210    203    207    219     1  180.0000771  2.0083200  2
    210    203    207    219     1  0.0000000  1.2552000  3
    210    213    222    231     1  0.0000000  0.6508444  3
    216    228    521    512     1  180.0000771  0.4184000  2
    216    228    521    512     1  0.0000000  1.6024720  3
    219    225    492    483     1  180.0000771  0.4184000  2
    219    225    492    483     1  0.0000000  1.6024720  3
    225    492    483    474     1  180.0000771  0.4184000  2
    225    492    483    474     1  0.0000000  1.6024720  3
    228    521    512    503     1  180.0000771  0.4184000  2
    228    521    512    503     1  0.0000000  1.6024720  3
    232    233    245    257     1  0.0000000  0.6508444  3
    232    236    248    254     1  0.0000000  0.6508444  3
    232    239    242    251     1  0.0000000  0.6508444  3
    233    232    236    248     1  180.0000771  2.0083200  2
    233    232    236    248     1  0.0000000  1.2552000  3
    233    232    239    242     1  180.0000771  2.0083200  2
    233    232    239    242     1  0.0000000  1.2552000  3
    233    245    257    579     1  0.0000000  0.6508444  3
    236    232    233    245     1  180.0000771  2.0083200  2
    236    232    233    245     1  0.0000000  1.2552000  3
    236    232    239    242     1  180.0000771  2.0083200  2
    236    232    239    242     1  0.0000000  1.2552000  3
    236    248    254    550     1  0.0000000  0.6508444  3
    239    232    233    245     1  180.0000771  2.0083200  2
    239    232    233    245     1  0.0000000  1.2552000  3
    239    232    236    248     1  180.0000771  2.0083200  2
    239    232    236    248     1  0.0000000  1.2552000  3
    239    242    251    260     1  0.0000000  0.6508444  3
    245    257    579    570     1  180.0000771  0.4184000  2
    245    257    579    570     1  0.0000000  1.6024720  3
    248    254    550    541     1  180.0000771  0.4184000  2
    248    254    550    541     1  0.0000000  1.6024720  3
    254    550    541    532     1  180.0000771  0.4184000  2
    254    550    541    532     1  0.0000000  1.6024720  3
    257    579    570    561     1  180.0000771  0.4184000  2
    257    579    570    561     1  0.0000000  1.6024720  3
    261    262    274    286     1  0.0000000  0.6508444  3
    261    265    277    283     1  0.0000000  0.6508444  3
    261    268    271    280     1  0.0000000  0.6508444  3
    262    261    265    277     1  180.0000771  2.0083200  2
    262    261    265    277     1  0.0000000  1.2552000  3
    262    261    268    271     1  180.0000771  2.0083200  2
    262    261    268    271     1  0.0000000  1.2552000  3
    262    274    286    637     1  0.0000000  0.6508444  3
    265    261    262    274     1  180.0000771  2.0083200  2
    265    261    262    274     1  0.0000000  1.2552000  3
    265    261    268    271     1  180.0000771  2.0083200  2
    265    261    268    271     1  0.0000000  1.2552000  3
    265    277    283    608     1  0.0000000  0.6508444  3
    268    261    262    274     1  180.0000771  2.0083200  2
    268    261    262    274     1  0.0000000  1.2552000  3
    268    261    265    277     1  180.0000771  2.0083200  2
    268    261    265    277     1  0.0000000  1.2552000  3
    268    271    280    289     1  0.0000000  0.6508444  3
    274    286    637    628     1  180.0000771  0.4184000  2
    274    286    637    628     1  0.0000000  1.6024720  3
    277    283    608    599     1  180.0000771  0.4184000  2
    277    283    608    599     1  0.0000000  1.6024720  3
    283    608    599    590     1  180.0000771  0.4184000  2
    283    608    599    590     1  0.0000000  1.6024720  3
    286    637    628    619     1  180.0000771  0.4184000  2
    286    637    628    619     1  0.0000000  1.6024720  3
    290    291    303    315     1  0.0000000  0.6508444  3
    290    294    306    312     1  0.0000000  0.6508444  3
    290    297    300    309     1  0.0000000  0.6508444  3
    291    290    294    306     1  180.0000771  2.0083200  2
    291    290    294    306     1  0.0000000  1.2552000  3
    291    290    297    300     1  180.0000771  2.0083200  2
    291    290    297    300     1  0.0000000  1.2552000  3
    291    303    315    695     1  0.0000000  0.6508444  3
    294    290    291    303     1  180.0000771  2.0083200  2
    294    290    291    303     1  0.0000000  1.2552000  3
    294    290    297    300     1  180.0000771  2.0083200  2
    294    290    297    300     1  0.0000000  1.2552000  3
    294    306    312    666     1  0.0000000  0.6508444  3
    297    290    291    303     1  180.0000771  2.0083200  2
    297    290    291    303     1  0.0000000  1.2552000  3
    297    290    294    306     1  180.0000771  2.0083200  2
    297    290    294    306     1  0.0000000  1.2552000  3
    297    300    309    318     1  0.0000000  0.6508444  3
    303    315    695    686     1  180.0000771  0.4184000  2
    303    315    695    686     1  0.0000000  1.6024720  3
    306    312    666    657     1  180.0000771  0.4184000  2
    306    312    666    657     1  0.0000000  1.6024720  3
    312    666    657    648     1  180.0000771  0.4184000  2
    312    666    657    648     1  0.0000000  1.6024720  3
    315    695    686    677     1  180.0000771  0.4184000  2
    315    695    686    677     1  0.0000000  1.6024720  3
    319    320    332    344     1  0.0000000  0.6508444  3
    319    323    335    341     1  0.0000000  0.6508444  3
    319    326    329    338     1  0.0000000  0.6508444  3
    320    319    323    335     1  180.0000771  2.0083200  2
    320    319    323    335     1  0.0000000  1.2552000  3
    320    319    326    329     1  180.0000771  2.0083200  2
    320    319    326    329     1  0.0000000  1.2552000  3
    320    332    344    753     1  0.0000000  0.6508444  3
    323    319    320    332     1  180.0000771  2.0083200  2
    323    319    320    332     1  0.0000000  1.2552000  3
    323    319    326    329     1  180.0000771  2.0083200  2
    323    319    326    329     1  0.0000000  1.2552000  3
    323    335    341    724     1  0.0000000  0.6508444  3
    326    319    320    332     1  180.0000771  2.0083200  2
    326    319    320    332     1  0.0000000  1.2552000  3
    326    319    323    335     1  180.0000771  2.0083200  2
    326    319    323    335     1  0.0000000  1.2552000  3
    326    329    338    347     1  0.0000000  0.6508444  3
    332    344    753    744     1  180.0000771  0.4184000  2
    332    344    753    744     1  0.0000000  1.6024720  3
    335    341    724    715     1  180.0000771  0.4184000  2
    335    341    724    715     1  0.0000000  1.6024720  3
    341    724    715    706     1  180.0000771  0.4184000  2
    341    724    715    706     1  0.0000000  1.6024720  3
    344    753    744    735     1  180.0000771  0.4184000  2
    344    753    744    735     1  0.0000000  1.6024720  3
    348    349    361    373     1  0.0000000  0.6508444  3
    348    352    364    370     1  0.0000000  0.6508444  3
    348    355    358    367     1  0.0000000  0.6508444  3
    349    348    352    364     1  180.0000771  2.0083200  2
    349    348    352    364     1  0.0000000  1.2552000  3
    349    348    355    358     1  180.0000771  2.0083200  2
    349    348    355    358     1  0.0000000  1.2552000  3
    349    361    373    811     1  0.0000000  0.6508444  3
    352    348    349    361     1  180.0000771  2.0083200  2
    352    348    349    361     1  0.0000000  1.2552000  3
    352    348    355    358     1  180.0000771  2.0083200  2
    352    348    355    358     1  0.0000000  1.2552000  3
    352    364    370    782     1  0.0000000  0.6508444  3
    355    348    349    361     1  180.0000771  2.0083200  2
    355    348    349    361     1  0.0000000  1.2552000  3
    355    348    352    364     1  180.0000771  2.0083200  2
    355    348    352    364     1  0.0000000  1.2552000  3
    355    358    367    376     1  0.0000000  0.6508444  3
    361    373    811    802     1  180.0000771  0.4184000  2
    361    373    811    802     1  0.0000000  1.6024720  3
    364    370    782    773     1  180.0000771  0.4184000  2
    364    370    782    773     1  0.0000000  1.6024720  3
    370    782    773    764     1  180.0000771  0.4184000  2
    370    782    773    764     1  0.0000000  1.6024720  3
    373    811    802    793     1  180.0000771  0.4184000  2
    373    811    802    793     1  0.0000000  1.6024720  3
    377    378    390    402     1  0.0000000  0.6508444  3
    377    381    393    399     1  0.0000000  0.6508444  3
    377    384    387    396     1  0.0000000  0.6508444  3
    378    377    381    393     1  180.0000771  2.0083200  2
    378    377    381    393     1  0.0000000  1.2552000  3
    378    377    384    387     1  180.0000771  2.0083200  2
    378    377    384    387     1  0.0000000  1.2552000  3
    378    390    402    869     1  0.0000000  0.6508444  3
    381    377    378    390     1  180.0000771  2.0083200  2
    381    377    378    390     1  0.0000000  1.2552000  3
    381    377    384    387     1  180.0000771  2.0083200  2
    381    377    384    387     1  0.0000000  1.2552000  3
    381    393    399    840     1  0.0000000  0.6508444  3
    384    377    378    390     1  180.0000771  2.0083200  2
    384    377    378    390     1  0.0000000  1.2552000  3
    384    377    381    393     1  180.0000771  2.0083200  2
    384    377    381    393     1  0.0000000  1.2552000  3
    384    387    396    405     1  0.0000000  0.6508444  3
    390    402    869    860     1  180.0000771  0.4184000  2
    390    402    869    860     1  0.0000000  1.6024720  3
    393    399    840    831     1  180.0000771  0.4184000  2
    393    399    840    831     1  0.0000000  1.6024720  3
    399    840    831    822     1  180.0000771  0.4184000  2
    399    840    831    822     1  0.0000000  1.6024720  3
    402    869    860    851     1  180.0000771  0.4184000  2
    402    869    860    851     1  0.0000000  1.6024720  3
    406    407    419    431     1  0.0000000  0.6508444  3
    406    410    422    428     1  0.0000000  0.6508444  3
    406    413    416    425     1  0.0000000  0.6508444  3
    407    406    410    422     1  180.0000771  2.0083200  2
    407    406    410    422     1  0.0000000  1.2552000  3
    407    406    413    416     1  180.0000771  2.0083200  2
    407    406    413    416     1  0.0000000  1.2552000  3
    407    419    431    927     1  0.0000000  0.6508444  3
    410    406    407    419     1  180.0000771  2.0083200  2
    410    406    407    419     1  0.0000000  1.2552000  3
    410    406    413    416     1  180.0000771  2.0083200  2
    410    406    413    416     1  0.0000000  1.2552000  3
    410    422    428    898     1  0.0000000  0.6508444  3
    413    406    407    419     1  180.0000771  2.0083200  2
    413    406    407    419     1  0.0000000  1.2552000  3
    413    406    410    422     1  180.0000771  2.0083200  2
    413    406    410    422     1  0.0000000  1.2552000  3
    413    416    425    434     1  0.0000000  0.6508444  3
    419    431    927    918     1  180.0000771  0.4184000  2
    419    431    927    918     1  0.0000000  1.6024720  3
    422    428    898    889     1  180.0000771  0.4184000  2
    422    428    898    889     1  0.0000000  1.6024720  3
    428    898    889    880     1  180.0000771  0.4184000  2
    428    898    889    880     1  0.0000000  1.6024720  3
    431    927    918    909     1  180.0000771  0.4184000  2
    431    927    918    909     1  0.0000000  1.6024720  3
    435    436    448    460     1  0.0000000  0.6508444  3
    435    439    451    457     1  0.0000000  0.6508444  3
    435    442    445    454     1  0.0000000  0.6508444  3
    436    435    439    451     1  180.0000771  2.0083200  2
    436    435    439    451     1  0.0000000  1.2552000  3
    436    435    442    445     1  180.0000771  2.0083200  2
    436    435    442    445     1  0.0000000  1.2552000  3
    436    448    460    985     1  0.0000000  0.6508444  3
    439    435    436    448     1  180.0000771  2.0083200  2
    439    435    436    448     1  0.0000000  1.2552000  3
    439    435    442    445     1  180.0000771  2.0083200  2
    439    435    442    445     1  0.0000000  1.2552000  3
    439    451    457    956     1  0.0000000  0.6508444  3
    442    435    436    448     1  180.0000771  2.0083200  2
    442    435    436    448     1  0.0000000  1.2552000  3
    442    435    439    451     1  180.0000771  2.0083200  2
    442    435    439    451     1  0.0000000  1.2552000  3
    442    445    454    463     1  0.0000000  0.6508444  3
    448    460    985    976     1  180.0000771  0.4184000  2
    448    460    985    976     1  0.0000000  1.6024720  3
    451    457    956    947     1  180.0000771  0.4184000  2
    451    457    956    947     1  0.0000000  1.6024720  3
    457    956    947    938     1  180.0000771  0.4184000  2
    457    956    947    938     1  0.0000000  1.6024720  3
    460    985    976    967     1  180.0000771  0.4184000  2
    460    985    976    967     1  0.0000000  1.6024720  3
    464    465    477    489     1  0.0000000  0.6508444  3
    464    468    480    486     1  0.0000000  0.6508444  3
    464    471    474    483     1  0.0000000  0.6508444  3
    465    464    468    480     1  180.0000771  2.0083200  2
    465    464    468    480     1  0.0000000  1.2552000  3
    465    464    471    474     1  180.0000771  2.0083200  2
    465    464    471    474     1  0.0000000  1.2552000  3
    465    477    489   1043     1  0.0000000  0.6508444  3
    468    464    465    477     1  180.0000771  2.0083200  2
    468    464    465    477     1  0.0000000  1.2552000  3
    468    464    471    474     1  180.0000771  2.0083200  2
    468    464    471    474     1  0.0000000  1.2552000  3
    468    480    486   1014     1  0.0000000  0.6508444  3
    471    464    465    477     1  180.0000771  2.0083200  2
    471    464    465    477     1  0.0000000  1.2552000  3
    471    464    468    480     1  180.0000771  2.0083200  2
    471    464    468    480     1  0.0000000  1.2552000  3
    471    474    483    492     1  0.0000000  0.6508444  3
    477    489   1043   1034     1  180.0000771  0.4184000  2
    477    489   1043   1034     1  0.0000000  1.6024720  3
    480    486   1014   1005     1  180.0000771  0.4184000  2
    480    486   1014   1005     1  0.0000000  1.6024720  3
    486   1014   1005    996     1  180.0000771  0.4184000  2
    486   1014   1005    996     1  0.0000000  1.6024720  3
    489   1043   1034   1025     1  180.0000771  0.4184000  2
    489   1043   1034   1025     1  0.0000000  1.6024720  3
    493    494    506    518     1  0.0000000  0.6508444  3
    493    497    509    515     1  0.0000000  0.6508444  3
    493    500    503    512     1  0.0000000  0.6508444  3
    494    493    497    509     1  180.0000771  2.0083200  2
    494    493    497    509     1  0.0000000  1.2552000  3
    494    493    500    503     1  180.0000771  2.0083200  2
    494    493    500    503     1  0.0000000  1.2552000  3
    494    506    518   1101     1  0.0000000  0.6508444  3
    497    493    494    506     1  180.0000771  2.0083200  2
    497    493    494    506     1  0.0000000  1.2552000  3
    497    493    500    503     1  180.0000771  2.0083200  2
    497    493    500    503     1  0.0000000  1.2552000  3
    497    509    515   1072     1  0.0000000  0.6508444  3
    500    493    494    506     1  180.0000771  2.0083200  2
    500    493    494    506     1  0.0000000  1.2552000  3
    500    493    497    509     1  180.0000771  2.0083200  2
    500    493    497    509     1  0.0000000  1.2552000  3
    500    503    512    521     1  0.0000000  0.6508444  3
    506    518   1101   1092     1  180.0000771  0.4184000  2
    506    518   1101   1092     1  0.0000000  1.6024720  3
    509    515   1072   1063     1  180.0000771  0.4184000  2
    509    515   1072   1063     1  0.0000000  1.6024720  3
    515   1072   1063   1054     1  180.0000771  0.4184000  2
    515   1072   1063   1054     1  0.0000000  1.6024720  3
    518   1101   1092   1083     1  180.0000771  0.4184000  2
    518   1101   1092   1083     1  0.0000000  1.6024720  3
    522    523    535    547     1  0.0000000  0.6508444  3
    522    526    538    544     1  0.0000000  0.6508444  3
    522    529    532    541     1  0.0000000  0.6508444  3
    523    522    526    538     1  180.0000771  2.0083200  2
    523    522    526    538     1  0.0000000  1.2552000  3
    523    522    529    532     1  180.0000771  2.0083200  2
    523    522    529    532     1  0.0000000  1.2552000  3
    523    535    547   1159     1  0.0000000  0.6508444  3
    526    522    523    535     1  180.0000771  2.0083200  2
    526    522    523    535     1  0.0000000  1.2552000  3
    526    522    529    532     1  180.0000771  2.0083200  2
    526    522    529    532     1  0.0000000  1.2552000  3
    526    538    544   1130     1  0.0000000  0.6508444  3
    529    522    523    535     1  180.0000771  2.0083200  2
    529    522    523    535     1  0.0000000  1.2552000  3
    529    522    526    538     1  180.0000771  2.0083200  2
    529    522    526    538     1  0.0000000  1.2552000  3
    529    532    541    550     1  0.0000000  0.6508444  3
    535    547   1159   1150     1  180.0000771  0.4184000  2
    535    547   1159   1150     1  0.0000000  1.6024720  3
    538    544   1130   1121     1  180.0000771  0.4184000  2
    538    544   1130   1121     1  0.0000000  1.6024720  3
    544   1130   1121   1112     1  180.0000771  0.4184000  2
    544   1130   1121   1112     1  0.0000000  1.6024720  3
    547   1159   1150   1141     1  180.0000771  0.4184000  2
    547   1159   1150   1141     1  0.0000000  1.6024720  3
    551    552    564    576     1  0.0000000  0.6508444  3
    551    555    567    573     1  0.0000000  0.6508444  3
    551    558    561    570     1  0.0000000  0.6508444  3
    552    551    555    567     1  180.0000771  2.0083200  2
    552    551    555    567     1  0.0000000  1.2552000  3
    552    551    558    561     1  180.0000771  2.0083200  2
    552    551    558    561     1  0.0000000  1.2552000  3
    552    564    576   1217     1  0.0000000  0.6508444  3
    555    551    552    564     1  180.0000771  2.0083200  2
    555    551    552    564     1  0.0000000  1.2552000  3
    555    551    558    561     1  180.0000771  2.0083200  2
    555    551    558    561     1  0.0000000  1.2552000  3
    555    567    573   1188     1  0.0000000  0.6508444  3
    558    551    552    564     1  180.0000771  2.0083200  2
    558    551    552    564     1  0.0000000  1.2552000  3
    558    551    555    567     1  180.0000771  2.0083200  2
    558    551    555    567     1  0.0000000  1.2552000  3
    558    561    570    579     1  0.0000000  0.6508444  3
    564    576   1217   1208     1  180.0000771  0.4184000  2
    564    576   1217   1208     1  0.0000000  1.6024720  3
    567    573   1188   1179     1  180.0000771  0.4184000  2
    567    573   1188   1179     1  0.0000000  1.6024720  3
    573   1188   1179   1170     1  180.0000771  0.4184000  2
    573   1188   1179   1170     1  0.0000000  1.6024720  3
    576   1217   1208   1199     1  180.0000771  0.4184000  2
    576   1217   1208   1199     1  0.0000000  1.6024720  3
    580    581    593    605     1  0.0000000  0.6508444  3
    580    584    596    602     1  0.0000000  0.6508444  3
    580    587    590    599     1  0.0000000  0.6508444  3
    581    580    584    596     1  180.0000771  2.0083200  2
    581    580    584    596     1  0.0000000  1.2552000  3
    581    580    587    590     1  180.0000771  2.0083200  2
    581    580    587    590     1  0.0000000  1.2552000  3
    581    593    605   1275     1  0.0000000  0.6508444  3
    584    580    581    593     1  180.0000771  2.0083200  2
    584    580    581    593     1  0.0000000  1.2552000  3
    584    580    587    590     1  180.0000771  2.0083200  2
    584    580    587    590     1  0.0000000  1.2552000  3
    584    596    602   1246     1  0.0000000  0.6508444  3
    587    580    581    593     1  180.0000771  2.0083200  2
    587    580    581    593     1  0.0000000  1.2552000  3
    587    580    584    596     1  180.0000771  2.0083200  2
    587    580    584    596     1  0.0000000  1.2552000  3
    587    590    599    608     1  0.0000000  0.6508444  3
    593    605   1275   1266     1  180.0000771  0.4184000  2
    593    605   1275   1266     1  0.0000000  1.6024720  3
    596    602   1246   1237     1  180.0000771  0.4184000  2
    596    602   1246   1237     1  0.0000000  1.6024720  3
    602   1246   1237   1228     1  180.0000771  0.4184000  2
    602   1246   1237   1228     1  0.0000000  1.6024720  3
    605   1275   1266   1257     1  180.0000771  0.4184000  2
    605   1275   1266   1257     1  0.0000000  1.6024720  3
    609    610    622    634     1  0.0000000  0.6508444  3
    609    613    625    631     1  0.0000000  0.6508444  3
    609    616    619    628     1  0.0000000  0.6508444  3
    610    609    613    625     1  180.0000771  2.0083200  2
    610    609    613    625     1  0.0000000  1.2552000  3
    610    609    616    619     1  180.0000771  2.0083200  2
    610    609    616    619     1  0.0000000  1.2552000  3
    610    622    634   1333     1  0.0000000  0.6508444  3
    613    609    610    622     1  180.0000771  2.0083200  2
    613    609    610    622     1  0.0000000  1.2552000  3
    613    609    616    619     1  180.0000771  2.0083200  2
    613    609    616    619     1  0.0000000  1.2552000  3
    613    625    631   1304     1  0.0000000  0.6508444  3
    616    609    610    622     1  180.0000771  2.0083200  2
    616    609    610    622     1  0.0000000  1.2552000  3
    616    609    613    625     1  180.0000771  2.0083200  2
    616    609    613    625     1  0.0000000  1.2552000  3
    616    619    628    637     1  0.0000000  0.6508444  3
    622    634   1333   1324     1  180.0000771  0.4184000  2
    622    634   1333   1324     1  0.0000000  1.6024720  3
    625    631   1304   1295     1  180.0000771  0.4184000  2
    625    631   1304   1295     1  0.0000000  1.6024720  3
    631   1304   1295   1286     1  180.0000771  0.4184000  2
    631   1304   1295   1286     1  0.0000000  1.6024720  3
    634   1333   1324   1315     1  180.0000771  0.4184000  2
    634   1333   1324   1315     1  0.0000000  1.6024720  3
    638    639    651    663     1  0.0000000  0.6508444  3
    638    642    654    660     1  0.0000000  0.6508444  3
    638    645    648    657     1  0.0000000  0.6508444  3
    639    638    642    654     1  180.0000771  2.0083200  2
    639    638    642    654     1  0.0000000  1.2552000  3
    639    638    645    648     1  180.0000771  2.0083200  2
    639    638    645    648     1  0.0000000  1.2552000  3
    639    651    663   1391     1  0.0000000  0.6508444  3
    642    638    639    651     1  180.0000771  2.0083200  2
    642    638    639    651     1  0.0000000  1.2552000  3
    642    638    645    648     1  180.0000771  2.0083200  2
    642    638    645    648     1  0.0000000  1.2552000  3
    642    654    660   1362     1  0.0000000  0.6508444  3
    645    638    639    651     1  180.0000771  2.0083200  2
    645    638    639    651     1  0.0000000  1.2552000  3
    645    638    642    654     1  180.0000771  2.0083200  2
    645    638    642    654     1  0.0000000  1.2552000  3
    645    648    657    666     1  0.0000000  0.6508444  3
    651    663   1391   1382     1  180.0000771  0.4184000  2
    651    663   1391   1382     1  0.0000000  1.6024720  3
    654    660   1362   1353     1  180.0000771  0.4184000  2
    654    660   1362   1353     1  0.0000000  1.6024720  3
    660   1362   1353   1344     1  180.0000771  0.4184000  2
    660   1362   1353   1344     1  0.0000000  1.6024720  3
    663   1391   1382   1373     1  180.0000771  0.4184000  2
    663   1391   1382   1373     1  0.0000000  1.6024720  3
    667    668    680    692     1  0.0000000  0.6508444  3
    667    671    683    689     1  0.0000000  0.6508444  3
    667    674    677    686     1  0.0000000  0.6508444  3
    668    667    671    683     1  180.0000771  2.0083200  2
    668    667    671    683     1  0.0000000  1.2552000  3
    668    667    674    677     1  180.0000771  2.0083200  2
    668    667    674    677     1  0.0000000  1.2552000  3
    668    680    692   1449     1  0.0000000  0.6508444  3
    671    667    668    680     1  180.0000771  2.0083200  2
    671    667    668    680     1  0.0000000  1.2552000  3
    671    667    674    677     1  180.0000771  2.0083200  2
    671    667    674    677     1  0.0000000  1.2552000  3
    671    683    689   1420     1  0.0000000  0.6508444  3
    674    667    668    680     1  180.0000771  2.0083200  2
    674    667    668    680     1  0.0000000  1.2552000  3
    674    667    671    683     1  180.0000771  2.0083200  2
    674    667    671    683     1  0.0000000  1.2552000  3
    674    677    686    695     1  0.0000000  0.6508444  3
    680    692   1449   1440     1  180.0000771  0.4184000  2
    680    692   1449   1440     1  0.0000000  1.6024720  3
    683    689   1420   1411     1  180.0000771  0.4184000  2
    683    689   1420   1411     1  0.0000000  1.6024720  3
    689   1420   1411   1402     1  180.0000771  0.4184000  2
    689   1420   1411   1402     1  0.0000000  1.6024720  3
    692   1449   1440   1431     1  180.0000771  0.4184000  2
    692   1449   1440   1431     1  0.0000000  1.6024720  3
    696    697    709    721     1  0.0000000  0.6508444  3
    696    700    712    718     1  0.0000000  0.6508444  3
    696    703    706    715     1  0.0000000  0.6508444  3
    697    696    700    712     1  180.0000771  2.0083200  2
    697    696    700    712     1  0.0000000  1.2552000  3
    697    696    703    706     1  180.0000771  2.0083200  2
    697    696    703    706     1  0.0000000  1.2552000  3
    697    709    721   1507     1  0.0000000  0.6508444  3
    700    696    697    709     1  180.0000771  2.0083200  2
    700    696    697    709     1  0.0000000  1.2552000  3
    700    696    703    706     1  180.0000771  2.0083200  2
    700    696    703    706     1  0.0000000  1.2552000  3
    700    712    718   1478     1  0.0000000  0.6508444  3
    703    696    697    709     1  180.0000771  2.0083200  2
    703    696    697    709     1  0.0000000  1.2552000  3
    703    696    700    712     1  180.0000771  2.0083200  2
    703    696    700    712     1  0.0000000  1.2552000  3
    703    706    715    724     1  0.0000000  0.6508444  3
    709    721   1507   1498     1  180.0000771  0.4184000  2
    709    721   1507   1498     1  0.0000000  1.6024720  3
    712    718   1478   1469     1  180.0000771  0.4184000  2
    712    718   1478   1469     1  0.0000000  1.6024720  3
    718   1478   1469   1460     1  180.0000771  0.4184000  2
    718   1478   1469   1460     1  0.0000000  1.6024720  3
    721   1507   1498   1489     1  180.0000771  0.4184000  2
    721   1507   1498   1489     1  0.0000000  1.6024720  3
    725    726    738    750     1  0.0000000  0.6508444  3
    725    729    741    747     1  0.0000000  0.6508444  3
    725    732    735    744     1  0.0000000  0.6508444  3
    726    725    729    741     1  180.0000771  2.0083200  2
    726    725    729    741     1  0.0000000  1.2552000  3
    726    725    732    735     1  180.0000771  2.0083200  2
    726    725    732    735     1  0.0000000  1.2552000  3
    726    738    750   1565     1  0.0000000  0.6508444  3
    729    725    726    738     1  180.0000771  2.0083200  2
    729    725    726    738     1  0.0000000  1.2552000  3
    729    725    732    735     1  180.0000771  2.0083200  2
    729    725    732    735     1  0.0000000  1.2552000  3
    729    741    747   1536     1  0.0000000  0.6508444  3
    732    725    726    738     1  180.0000771  2.0083200  2
    732    725    726    738     1  0.0000000  1.2552000  3
    732    725    729    741     1  180.0000771  2.0083200  2
    732    725    729    741     1  0.0000000  1.2552000  3
    732    735    744    753     1  0.0000000  0.6508444  3
    738    750   1565   1556     1  180.0000771  0.4184000  2
    738    750   1565   1556     1  0.0000000  1.6024720  3
    741    747   1536   1527     1  180.0000771  0.4184000  2
    741    747   1536   1527     1  0.0000000  1.6024720  3
    747   1536   1527   1518     1  180.0000771  0.4184000  2
    747   1536   1527   1518     1  0.0000000  1.6024720  3
    750   1565   1556   1547     1  180.0000771  0.4184000  2
    750   1565   1556   1547     1  0.0000000  1.6024720  3
    754    755    767    779     1  0.0000000  0.6508444  3
    754    758    770    776     1  0.0000000  0.6508444  3
    754    761    764    773     1  0.0000000  0.6508444  3
    755    754    758    770     1  180.0000771  2.0083200  2
    755    754    758    770     1  0.0000000  1.2552000  3
    755    754    761    764     1  180.0000771  2.0083200  2
    755    754    761    764     1  0.0000000  1.2552000  3
    755    767    779   1623     1  0.0000000  0.6508444  3
    758    754    755    767     1  180.0000771  2.0083200  2
    758    754    755    767     1  0.0000000  1.2552000  3
    758    754    761    764     1  180.0000771  2.0083200  2
    758    754    761    764     1  0.0000000  1.2552000  3
    758    770    776   1594     1  0.0000000  0.6508444  3
    761    754    755    767     1  180.0000771  2.0083200  2
    761    754    755    767     1  0.0000000  1.2552000  3
    761    754    758    770     1  180.0000771  2.0083200  2
    761    754    758    770     1  0.0000000  1.2552000  3
    761    764    773    782     1  0.0000000  0.6508444  3
    767    779   1623   1614     1  180.0000771  0.4184000  2
    767    779   1623   1614     1  0.0000000  1.6024720  3
    770    776   1594   1585     1  180.0000771  0.4184000  2
    770    776   1594   1585     1  0.0000000  1.6024720  3
    776   1594   1585   1576     1  180.0000771  0.4184000  2
    776   1594   1585   1576     1  0.0000000  1.6024720  3
    779   1623   1614   1605     1  180.0000771  0.4184000  2
    779   1623   1614   1605     1  0.0000000  1.6024720  3
    783    784    796    808     1  0.0000000  0.6508444  3
    783    787    799    805     1  0.0000000  0.6508444  3
    783    790    793    802     1  0.0000000  0.6508444  3
    784    783    787    799     1  180.0000771  2.0083200  2
    784    783    787    799     1  0.0000000  1.2552000  3
    784    783    790    793     1  180.0000771  2.0083200  2
    784    783    790    793     1  0.0000000  1.2552000  3
    784    796    808   1681     1  0.0000000  0.6508444  3
    787    783    784    796     1  180.0000771  2.0083200  2
    787    783    784    796     1  0.0000000  1.2552000  3
    787    783    790    793     1  180.0000771  2.0083200  2
    787    783    790    793     1  0.0000000  1.2552000  3
    787    799    805   1652     1  0.0000000  0.6508444  3
    790    783    784    796     1  180.0000771  2.0083200  2
    790    783    784    796     1  0.0000000  1.2552000  3
    790    783    787    799     1  180.0000771  2.0083200  2
    790    783    787    799     1  0.0000000  1.2552000  3
    790    793    802    811     1  0.0000000  0.6508444  3
    796    808   1681   1672     1  180.0000771  0.4184000  2
    796    808   1681   1672     1  0.0000000  1.6024720  3
    799    805   1652   1643     1  180.0000771  0.4184000  2
    799    805   1652   1643     1  0.0000000  1.6024720  3
    805   1652   1643   1634     1  180.0000771  0.4184000  2
    805   1652   1643   1634     1  0.0000000  1.6024720  3
    808   1681   1672   1663     1  180.0000771  0.4184000  2
    808   1681   1672   1663     1  0.0000000  1.6024720  3
    812    813    825    837     1  0.0000000  0.6508444  3
    812    816    828    834     1  0.0000000  0.6508444  3
    812    819    822    831     1  0.0000000  0.6508444  3
    813    812    816    828     1  180.0000771  2.0083200  2
    813    812    816    828     1  0.0000000  1.2552000  3
    813    812    819    822     1  180.0000771  2.0083200  2
    813    812    819    822     1  0.0000000  1.2552000  3
    813    825    837   1739     1  0.0000000  0.6508444  3
    816    812    813    825     1  180.0000771  2.0083200  2
    816    812    813    825     1  0.0000000  1.2552000  3
    816    812    819    822     1  180.0000771  2.0083200  2
    816    812    819    822     1  0.0000000  1.2552000  3
    816    828    834   1710     1  0.0000000  0.6508444  3
    819    812    813    825     1  180.0000771  2.0083200  2
    819    812    813    825     1  0.0000000  1.2552000  3
    819    812    816    828     1  180.0000771  2.0083200  2
    819    812    816    828     1  0.0000000  1.2552000  3
    819    822    831    840     1  0.0000000  0.6508444  3
    825    837   1739   1730     1  180.0000771  0.4184000  2
    825    837   1739   1730     1  0.0000000  1.6024720  3
    828    834   1710   1701     1  180.0000771  0.4184000  2
    828    834   1710   1701     1  0.0000000  1.6024720  3
    834   1710   1701   1692     1  180.0000771  0.4184000  2
    834   1710   1701   1692     1  0.0000000  1.6024720  3
    837   1739   1730   1721     1  180.0000771  0.4184000  2
    837   1739   1730   1721     1  0.0000000  1.6024720  3
    841    842    854    866     1  0.0000000  0.6508444  3
    841    845    857    863     1  0.0000000  0.6508444  3
    841    848    851    860     1  0.0000000  0.6508444  3
    842    841    845    857     1  180.0000771  2.0083200  2
    842    841    845    857     1  0.0000000  1.2552000  3
    842    841    848    851     1  180.0000771  2.0083200  2
    842    841    848    851     1  0.0000000  1.2552000  3
    842    854    866   1797     1  0.0000000  0.6508444  3
    845    841    842    854     1  180.0000771  2.0083200  2
    845    841    842    854     1  0.0000000  1.2552000  3
    845    841    848    851     1  180.0000771  2.0083200  2
    845    841    848    851     1  0.0000000  1.2552000  3
    845    857    863   1768     1  0.0000000  0.6508444  3
    848    841    842    854     1  180.0000771  2.0083200  2
    848    841    842    854     1  0.0000000  1.2552000  3
    848    841    845    857     1  180.0000771  2.0083200  2
    848    841    845    857     1  0.0000000  1.2552000  3
    848    851    860    869     1  0.0000000  0.6508444  3
    854    866   1797   1788     1  180.0000771  0.4184000  2
    854    866   1797   1788     1  0.0000000  1.6024720  3
    857    863   1768   1759     1  180.0000771  0.4184000  2
    857    863   1768   1759     1  0.0000000  1.6024720  3
    863   1768   1759   1750     1  180.0000771  0.4184000  2
    863   1768   1759   1750     1  0.0000000  1.6024720  3
    866   1797   1788   1779     1  180.0000771  0.4184000  2
    866   1797   1788   1779     1  0.0000000  1.6024720  3
    870    871    883    895     1  0.0000000  0.6508444  3
    870    874    886    892     1  0.0000000  0.6508444  3
    870    877    880    889     1  0.0000000  0.6508444  3
    871    870    874    886     1  180.0000771  2.0083200  2
    871    870    874    886     1  0.0000000  1.2552000  3
    871    870    877    880     1  180.0000771  2.0083200  2
    871    870    877    880     1  0.0000000  1.2552000  3
    871    883    895   1855     1  0.0000000  0.6508444  3
    874    870    871    883     1  180.0000771  2.0083200  2
    874    870    871    883     1  0.0000000  1.2552000  3
    874    870    877    880     1  180.0000771  2.0083200  2
    874    870    877    880     1  0.0000000  1.2552000  3
    874    886    892   1826     1  0.0000000  0.6508444  3
    877    870    871    883     1  180.0000771  2.0083200  2
    877    870    871    883     1  0.0000000  1.2552000  3
    877    870    874    886     1  180.0000771  2.0083200  2
    877    870    874    886     1  0.0000000  1.2552000  3
    877    880    889    898     1  0.0000000  0.6508444  3
    883    895   1855   1846     1  180.0000771  0.4184000  2
    883    895   1855   1846     1  0.0000000  1.6024720  3
    886    892   1826   1817     1  180.0000771  0.4184000  2
    886    892   1826   1817     1  0.0000000  1.6024720  3
    892   1826   1817   1808     1  180.0000771  0.4184000  2
    892   1826   1817   1808     1  0.0000000  1.6024720  3
    895   1855   1846   1837     1  180.0000771  0.4184000  2
    895   1855   1846   1837     1  0.0000000  1.6024720  3
    899    900    912    924     1  0.0000000  0.6508444  3
    899    903    915    921     1  0.0000000  0.6508444  3
    899    906    909    918     1  0.0000000  0.6508444  3
    900    899    903    915     1  180.0000771  2.0083200  2
    900    899    903    915     1  0.0000000  1.2552000  3
    900    899    906    909     1  180.0000771  2.0083200  2
    900    899    906    909     1  0.0000000  1.2552000  3
    900    912    924   1913     1  0.0000000  0.6508444  3
    903    899    900    912     1  180.0000771  2.0083200  2
    903    899    900    912     1  0.0000000  1.2552000  3
    903    899    906    909     1  180.0000771  2.0083200  2
    903    899    906    909     1  0.0000000  1.2552000  3
    903    915    921   1884     1  0.0000000  0.6508444  3
    906    899    900    912     1  180.0000771  2.0083200  2
    906    899    900    912     1  0.0000000  1.2552000  3
    906    899    903    915     1  180.0000771  2.0083200  2
    906    899    903    915     1  0.0000000  1.2552000  3
    906    909    918    927     1  0.0000000  0.6508444  3
    912    924   1913   1904     1  180.0000771  0.4184000  2
    912    924   1913   1904     1  0.0000000  1.6024720  3
    915    921   1884   1875     1  180.0000771  0.4184000  2
    915    921   1884   1875     1  0.0000000  1.6024720  3
    921   1884   1875   1866     1  180.0000771  0.4184000  2
    921   1884   1875   1866     1  0.0000000  1.6024720  3
    924   1913   1904   1895     1  180.0000771  0.4184000  2
    924   1913   1904   1895     1  0.0000000  1.6024720  3
    928    929    941    953     1  0.0000000  0.6508444  3
    928    932    944    950     1  0.0000000  0.6508444  3
    928    935    938    947     1  0.0000000  0.6508444  3
    929    928    932    944     1  180.0000771  2.0083200  2
    929    928    932    944     1  0.0000000  1.2552000  3
    929    928    935    938     1  180.0000771  2.0083200  2
    929    928    935    938     1  0.0000000  1.2552000  3
    929    941    953   1971     1  0.0000000  0.6508444  3
    932    928    929    941     1  180.0000771  2.0083200  2
    932    928    929    941     1  0.0000000  1.2552000  3
    932    928    935    938     1  180.0000771  2.0083200  2
    932    928    935    938     1  0.0000000  1.2552000  3
    932    944    950   1942     1  0.0000000  0.6508444  3
    935    928    929    941     1  180.0000771  2.0083200  2
    935    928    929    941     1  0.0000000  1.2552000  3
    935    928    932    944     1  180.0000771  2.0083200  2
    935    928    932    944     1  0.0000000  1.2552000  3
    935    938    947    956     1  0.0000000  0.6508444  3
    941    953   1971   1962     1  180.0000771  0.4184000  2
    941    953   1971   1962     1  0.0000000  1.6024720  3
    944    950   1942   1933     1  180.0000771  0.4184000  2
    944    950   1942   1933     1  0.0000000  1.6024720  3
    950   1942   1933   1924     1  180.0000771  0.4184000  2
    950   1942   1933   1924     1  0.0000000  1.6024720  3
    953   1971   1962   1953     1  180.0000771  0.4184000  2
    953   1971   1962   1953     1  0.0000000  1.6024720  3
    957    958    970    982     1  0.0000000  0.6508444  3
    957    961    973    979     1  0.0000000  0.6508444  3
    957    964    967    976     1  0.0000000  0.6508444  3
    958    957    961    973     1  180.0000771  2.0083200  2
    958    957    961    973     1  0.0000000  1.2552000  3
    958    957    964    967     1  180.0000771  2.0083200  2
    958    957    964    967     1  0.0000000  1.2552000  3
    958    970    982   2029     1  0.0000000  0.6508444  3
    961    957    958    970     1  180.0000771  2.0083200  2
    961    957    958    970     1  0.0000000  1.2552000  3
    961    957    964    967     1  180.0000771  2.0083200  2
    961    957    964    967     1  0.0000000  1.2552000  3
    961    973    979   2000     1  0.0000000  0.6508444  3
    964    957    958    970     1  180.0000771  2.0083200  2
    964    957    958    970     1  0.0000000  1.2552000  3
    964    957    961    973     1  180.0000771  2.0083200  2
    964    957    961    973     1  0.0000000  1.2552000  3
    964    967    976    985     1  0.0000000  0.6508444  3
    970    982   2029   2020     1  180.0000771  0.4184000  2
    970    982   2029   2020     1  0.0000000  1.6024720  3
    973    979   2000   1991     1  180.0000771  0.4184000  2
    973    979   2000   1991     1  0.0000000  1.6024720  3
    979   2000   1991   1982     1  180.0000771  0.4184000  2
    979   2000   1991   1982     1  0.0000000  1.6024720  3
    982   2029   2020   2011     1  180.0000771  0.4184000  2
    982   2029   2020   2011     1  0.0000000  1.6024720  3
    986    987    999   1011     1  0.0000000  0.6508444  3
    986    990   1002   1008     1  0.0000000  0.6508444  3
    986    993    996   1005     1  0.0000000  0.6508444  3
    987    986    990   1002     1  180.0000771  2.0083200  2
    987    986    990   1002     1  0.0000000  1.2552000  3
    987    986    993    996     1  180.0000771  2.0083200  2
    987    986    993    996     1  0.0000000  1.2552000  3
    987    999   1011   2087     1  0.0000000  0.6508444  3
    990    986    987    999     1  180.0000771  2.0083200  2
    990    986    987    999     1  0.0000000  1.2552000  3
    990    986    993    996     1  180.0000771  2.0083200  2
    990    986    993    996     1  0.0000000  1.2552000  3
    990   1002   1008   2058     1  0.0000000  0.6508444  3
    993    986    987    999     1  180.0000771  2.0083200  2
    993    986    987    999     1  0.0000000  1.2552000  3
    993    986    990   1002     1  180.0000771  2.0083200  2
    993    986    990   1002     1  0.0000000  1.2552000  3
    993    996   1005   1014     1  0.0000000  0.6508444  3
    999   1011   2087   2078     1  180.0000771  0.4184000  2
    999   1011   2087   2078     1  0.0000000  1.6024720  3
   1002   1008   2058   2049     1  180.0000771  0.4184000  2
   1002   1008   2058   2049     1  0.0000000  1.6024720  3
   1008   2058   2049   2040     1  180.0000771  0.4184000  2
   1008   2058   2049   2040     1  0.0000000  1.6024720  3
   1011   2087   2078   2069     1  180.0000771  0.4184000  2
   1011   2087   2078   2069     1  0.0000000  1.6024720  3
   1015   1016   1028   1040     1  0.0000000  0.6508444  3
   1015   1019   1031   1037     1  0.0000000  0.6508444  3
   1015   1022   1025   1034     1  0.0000000  0.6508444  3
   1016   1015   1019   1031     1  180.0000771  2.0083200  2
   1016   1015   1019   1031     1  0.0000000  1.2552000  3
   1016   1015   1022   1025     1  180.0000771  2.0083200  2
   1016   1015   1022   1025     1  0.0000000  1.2552000  3
   1016   1028   1040   2145     1  0.0000000  0.6508444  3
   1019   1015   1016   1028     1  180.0000771  2.0083200  2
   1019   1015   1016   1028     1  0.0000000  1.2552000  3
   1019   1015   1022   1025     1  180.0000771  2.0083200  2
   1019   1015   1022   1025     1  0.0000000  1.2552000  3
   1019   1031   1037   2116     1  0.0000000  0.6508444  3
   1022   1015   1016   1028     1  180.0000771  2.0083200  2
   1022   1015   1016   1028     1  0.0000000  1.2552000  3
   1022   1015   1019   1031     1  180.0000771  2.0083200  2
   1022   1015   1019   1031     1  0.0000000  1.2552000  3
   1022   1025   1034   1043     1  0.0000000  0.6508444  3
   1028   1040   2145   2136     1  180.0000771  0.4184000  2
   1028   1040   2145   2136     1  0.0000000  1.6024720  3
   1031   1037   2116   2107     1  180.0000771  0.4184000  2
   1031   1037   2116   2107     1  0.0000000  1.6024720  3
   1037   2116   2107   2098     1  180.0000771  0.4184000  2
   1037   2116   2107   2098     1  0.0000000  1.6024720  3
   1040   2145   2136   2127     1  180.0000771  0.4184000  2
   1040   2145   2136   2127     1  0.0000000  1.6024720  3
   1044   1045   1057   1069     1  0.0000000  0.6508444  3
   1044   1048   1060   1066     1  0.0000000  0.6508444  3
   1044   1051   1054   1063     1  0.0000000  0.6508444  3
   1045   1044   1048   1060     1  180.0000771  2.0083200  2
   1045   1044   1048   1060     1  0.0000000  1.2552000  3
   1045   1044   1051   1054     1  180.0000771  2.0083200  2
   1045   1044   1051   1054     1  0.0000000  1.2552000  3
   1045   1057   1069   2203     1  0.0000000  0.6508444  3
   1048   1044   1045   1057     1  180.0000771  2.0083200  2
   1048   1044   1045   1057     1  0.0000000  1.2552000  3
   1048   1044   1051   1054     1  180.0000771  2.0083200  2
   1048   1044   1051   1054     1  0.0000000  1.2552000  3
   1048   1060   1066   2174     1  0.0000000  0.6508444  3
   1051   1044   1045   1057     1  180.0000771  2.0083200  2
   1051   1044   1045   1057     1  0.0000000  1.2552000  3
   1051   1044   1048   1060     1  180.0000771  2.0083200  2
   1051   1044   1048   1060     1  0.0000000  1.2552000  3
   1051   1054   1063   1072     1  0.0000000  0.6508444  3
   1057   1069   2203   2194     1  180.0000771  0.4184000  2
   1057   1069   2203   2194     1  0.0000000  1.6024720  3
   1060   1066   2174   2165     1  180.0000771  0.4184000  2
   1060   1066   2174   2165     1  0.0000000  1.6024720  3
   1066   2174   2165   2156     1  180.0000771  0.4184000  2
   1066   2174   2165   2156     1  0.0000000  1.6024720  3
   1069   2203   2194   2185     1  180.0000771  0.4184000  2
   1069   2203   2194   2185     1  0.0000000  1.6024720  3
   1073   1074   1086   1098     1  0.0000000  0.6508444  3
   1073   1077   1089   1095     1  0.0000000  0.6508444  3
   1073   1080   1083   1092     1  0.0000000  0.6508444  3
   1074   1073   1077   1089     1  180.0000771  2.0083200  2
   1074   1073   1077   1089     1  0.0000000  1.2552000  3
   1074   1073   1080   1083     1  180.0000771  2.0083200  2
   1074   1073   1080   1083     1  0.0000000  1.2552000  3
   1074   1086   1098   2261     1  0.0000000  0.6508444  3
   1077   1073   1074   1086     1  180.0000771  2.0083200  2
   1077   1073   1074   1086     1  0.0000000  1.2552000  3
   1077   1073   1080   1083     1  180.0000771  2.0083200  2
   1077   1073   1080   1083     1  0.0000000  1.2552000  3
   1077   1089   1095   2232     1  0.0000000  0.6508444  3
   1080   1073   1074   1086     1  180.0000771  2.0083200  2
   1080   1073   1074   1086     1  0.0000000  1.2552000  3
   1080   1073   1077   1089     1  180.0000771  2.0083200  2
   1080   1073   1077   1089     1  0.0000000  1.2552000  3
   1080   1083   1092   1101     1  0.0000000  0.6508444  3
   1086   1098   2261   2252     1  180.0000771  0.4184000  2
   1086   1098   2261   2252     1  0.0000000  1.6024720  3
   1089   1095   2232   2223     1  180.0000771  0.4184000  2
   1089   1095   2232   2223     1  0.0000000  1.6024720  3
   1095   2232   2223   2214     1  180.0000771  0.4184000  2
   1095   2232   2223   2214     1  0.0000000  1.6024720  3
   1098   2261   2252   2243     1  180.0000771  0.4184000  2
   1098   2261   2252   2243     1  0.0000000  1.6024720  3
   1102   1103   1115   1127     1  0.0000000  0.6508444  3
   1102   1106   1118   1124     1  0.0000000  0.6508444  3
   1102   1109   1112   1121     1  0.0000000  0.6508444  3
   1103   1102   1106   1118     1  180.0000771  2.0083200  2
   1103   1102   1106   1118     1  0.0000000  1.2552000  3
   1103   1102   1109   1112     1  180.0000771  2.0083200  2
   1103   1102   1109   1112     1  0.0000000  1.2552000  3
   1103   1115   1127   2319     1  0.0000000  0.6508444  3
   1106   1102   1103   1115     1  180.0000771  2.0083200  2
   1106   1102   1103   1115     1  0.0000000  1.2552000  3
   1106   1102   1109   1112     1  180.0000771  2.0083200  2
   1106   1102   1109   1112     1  0.0000000  1.2552000  3
   1106   1118   1124   2290     1  0.0000000  0.6508444  3
   1109   1102   1103   1115     1  180.0000771  2.0083200  2
   1109   1102   1103   1115     1  0.0000000  1.2552000  3
   1109   1102   1106   1118     1  180.0000771  2.0083200  2
   1109   1102   1106   1118     1  0.0000000  1.2552000  3
   1109   1112   1121   1130     1  0.0000000  0.6508444  3
   1115   1127   2319   2310     1  180.0000771  0.4184000  2
   1115   1127   2319   2310     1  0.0000000  1.6024720  3
   1118   1124   2290   2281     1  180.0000771  0.4184000  2
   1118   1124   2290   2281     1  0.0000000  1.6024720  3
   1124   2290   2281   2272     1  180.0000771  0.4184000  2
   1124   2290   2281   2272     1  0.0000000  1.6024720  3
   1127   2319   2310   2301     1  180.0000771  0.4184000  2
   1127   2319   2310   2301     1  0.0000000  1.6024720  3
   1131   1132   1144   1156     1  0.0000000  0.6508444  3
   1131   1135   1147   1153     1  0.0000000  0.6508444  3
   1131   1138   1141   1150     1  0.0000000  0.6508444  3
   1132   1131   1135   1147     1  180.0000771  2.0083200  2
   1132   1131   1135   1147     1  0.0000000  1.2552000  3
   1132   1131   1138   1141     1  180.0000771  2.0083200  2
   1132   1131   1138   1141     1  0.0000000  1.2552000  3
   1132   1144   1156   2377     1  0.0000000  0.6508444  3
   1135   1131   1132   1144     1  180.0000771  2.0083200  2
   1135   1131   1132   1144     1  0.0000000  1.2552000  3
   1135   1131   1138   1141     1  180.0000771  2.0083200  2
   1135   1131   1138   1141     1  0.0000000  1.2552000  3
   1135   1147   1153   2348     1  0.0000000  0.6508444  3
   1138   1131   1132   1144     1  180.0000771  2.0083200  2
   1138   1131   1132   1144     1  0.0000000  1.2552000  3
   1138   1131   1135   1147     1  180.0000771  2.0083200  2
   1138   1131   1135   1147     1  0.0000000  1.2552000  3
   1138   1141   1150   1159     1  0.0000000  0.6508444  3
   1144   1156   2377   2368     1  180.0000771  0.4184000  2
   1144   1156   2377   2368     1  0.0000000  1.6024720  3
   1147   1153   2348   2339     1  180.0000771  0.4184000  2
   1147   1153   2348   2339     1  0.0000000  1.6024720  3
   1153   2348   2339   2330     1  180.0000771  0.4184000  2
   1153   2348   2339   2330     1  0.0000000  1.6024720  3
   1156   2377   2368   2359     1  180.0000771  0.4184000  2
   1156   2377   2368   2359     1  0.0000000  1.6024720  3
   1160   1161   1173   1185     1  0.0000000  0.6508444  3
   1160   1164   1176   1182     1  0.0000000  0.6508444  3
   1160   1167   1170   1179     1  0.0000000  0.6508444  3
   1161   1160   1164   1176     1  180.0000771  2.0083200  2
   1161   1160   1164   1176     1  0.0000000  1.2552000  3
   1161   1160   1167   1170     1  180.0000771  2.0083200  2
   1161   1160   1167   1170     1  0.0000000  1.2552000  3
   1161   1173   1185   2435     1  0.0000000  0.6508444  3
   1164   1160   1161   1173     1  180.0000771  2.0083200  2
   1164   1160   1161   1173     1  0.0000000  1.2552000  3
   1164   1160   1167   1170     1  180.0000771  2.0083200  2
   1164   1160   1167   1170     1  0.0000000  1.2552000  3
   1164   1176   1182   2406     1  0.0000000  0.6508444  3
   1167   1160   1161   1173     1  180.0000771  2.0083200  2
   1167   1160   1161   1173     1  0.0000000  1.2552000  3
   1167   1160   1164   1176     1  180.0000771  2.0083200  2
   1167   1160   1164   1176     1  0.0000000  1.2552000  3
   1167   1170   1179   1188     1  0.0000000  0.6508444  3
   1173   1185   2435   2426     1  180.0000771  0.4184000  2
   1173   1185   2435   2426     1  0.0000000  1.6024720  3
   1176   1182   2406   2397     1  180.0000771  0.4184000  2
   1176   1182   2406   2397     1  0.0000000  1.6024720  3
   1182   2406   2397   2388     1  180.0000771  0.4184000  2
   1182   2406   2397   2388     1  0.0000000  1.6024720  3
   1185   2435   2426   2417     1  180.0000771  0.4184000  2
   1185   2435   2426   2417     1  0.0000000  1.6024720  3
   1189   1190   1202   1214     1  0.0000000  0.6508444  3
   1189   1193   1205   1211     1  0.0000000  0.6508444  3
   1189   1196   1199   1208     1  0.0000000  0.6508444  3
   1190   1189   1193   1205     1  180.0000771  2.0083200  2
   1190   1189   1193   1205     1  0.0000000  1.2552000  3
   1190   1189   1196   1199     1  180.0000771  2.0083200  2
   1190   1189   1196   1199     1  0.0000000  1.2552000  3
   1190   1202   1214   2493     1  0.0000000  0.6508444  3
   1193   1189   1190   1202     1  180.0000771  2.0083200  2
   1193   1189   1190   1202     1  0.0000000  1.2552000  3
   1193   1189   1196   1199     1  180.0000771  2.0083200  2
   1193   1189   1196   1199     1  0.0000000  1.2552000  3
   1193   1205   1211   2464     1  0.0000000  0.6508444  3
   1196   1189   1190   1202     1  180.0000771  2.0083200  2
   1196   1189   1190   1202     1  0.0000000  1.2552000  3
   1196   1189   1193   1205     1  180.0000771  2.0083200  2
   1196   1189   1193   1205     1  0.0000000  1.2552000  3
   1196   1199   1208   1217     1  0.0000000  0.6508444  3
   1202   1214   2493   2484     1  180.0000771  0.4184000  2
   1202   1214   2493   2484     1  0.0000000  1.6024720  3
   1205   1211   2464   2455     1  180.0000771  0.4184000  2
   1205   1211   2464   2455     1  0.0000000  1.6024720  3
   1211   2464   2455   2446     1  180.0000771  0.4184000  2
   1211   2464   2455   2446     1  0.0000000  1.6024720  3
   1214   2493   2484   2475     1  180.0000771  0.4184000  2
   1214   2493   2484   2475     1  0.0000000  1.6024720  3
   1218   1219   1231   1243     1  0.0000000  0.6508444  3
   1218   1222   1234   1240     1  0.0000000  0.6508444  3
   1218   1225   1228   1237     1  0.0000000  0.6508444  3
   1219   1218   1222   1234     1  180.0000771  2.0083200  2
   1219   1218   1222   1234     1  0.0000000  1.2552000  3
   1219   1218   1225   1228     1  180.0000771  2.0083200  2
   1219   1218   1225   1228     1  0.0000000  1.2552000  3
   1219   1231   1243   2551     1  0.0000000  0.6508444  3
   1222   1218   1219   1231     1  180.0000771  2.0083200  2
   1222   1218   1219   1231     1  0.0000000  1.2552000  3
   1222   1218   1225   1228     1  180.0000771  2.0083200  2
   1222   1218   1225   1228     1  0.0000000  1.2552000  3
   1222   1234   1240   2522     1  0.0000000  0.6508444  3
   1225   1218   1219   1231     1  180.0000771  2.0083200  2
   1225   1218   1219   1231     1  0.0000000  1.2552000  3
   1225   1218   1222   1234     1  180.0000771  2.0083200  2
   1225   1218   1222   1234     1  0.0000000  1.2552000  3
   1225   1228   1237   1246     1  0.0000000  0.6508444  3
   1231   1243   2551   2542     1  180.0000771  0.4184000  2
   1231   1243   2551   2542     1  0.0000000  1.6024720  3
   1234   1240   2522   2513     1  180.0000771  0.4184000  2
   1234   1240   2522   2513     1  0.0000000  1.6024720  3
   1240   2522   2513   2504     1  180.0000771  0.4184000  2
   1240   2522   2513   2504     1  0.0000000  1.6024720  3
   1243   2551   2542   2533     1  180.0000771  0.4184000  2
   1243   2551   2542   2533     1  0.0000000  1.6024720  3
   1247   1248   1260   1272     1  0.0000000  0.6508444  3
   1247   1251   1263   1269     1  0.0000000  0.6508444  3
   1247   1254   1257   1266     1  0.0000000  0.6508444  3
   1248   1247   1251   1263     1  180.0000771  2.0083200  2
   1248   1247   1251   1263     1  0.0000000  1.2552000  3
   1248   1247   1254   1257     1  180.0000771  2.0083200  2
   1248   1247   1254   1257     1  0.0000000  1.2552000  3
   1248   1260   1272   2609     1  0.0000000  0.6508444  3
   1251   1247   1248   1260     1  180.0000771  2.0083200  2
   1251   1247   1248   1260     1  0.0000000  1.2552000  3
   1251   1247   1254   1257     1  180.0000771  2.0083200  2
   1251   1247   1254   1257     1  0.0000000  1.2552000  3
   1251   1263   1269   2580     1  0.0000000  0.6508444  3
   1254   1247   1248   1260     1  180.0000771  2.0083200  2
   1254   1247   1248   1260     1  0.0000000  1.2552000  3
   1254   1247   1251   1263     1  180.0000771  2.0083200  2
   1254   1247   1251   1263     1  0.0000000  1.2552000  3
   1254   1257   1266   1275     1  0.0000000  0.6508444  3
   1260   1272   2609   2600     1  180.0000771  0.4184000  2
   1260   1272   2609   2600     1  0.0000000  1.6024720  3
   1263   1269   2580   2571     1  180.0000771  0.4184000  2
   1263   1269   2580   2571     1  0.0000000  1.6024720  3
   1269   2580   2571   2562     1  180.0000771  0.4184000  2
   1269   2580   2571   2562     1  0.0000000  1.6024720  3
   1272   2609   2600   2591     1  180.0000771  0.4184000  2
   1272   2609   2600   2591     1  0.0000000  1.6024720  3
   1276   1277   1289   1301     1  0.0000000  0.6508444  3
   1276   1280   1292   1298     1  0.0000000  0.6508444  3
   1276   1283   1286   1295     1  0.0000000  0.6508444  3
   1277   1276   1280   1292     1  180.0000771  2.0083200  2
   1277   1276   1280   1292     1  0.0000000  1.2552000  3
   1277   1276   1283   1286     1  180.0000771  2.0083200  2
   1277   1276   1283   1286     1  0.0000000  1.2552000  3
   1277   1289   1301   2667     1  0.0000000  0.6508444  3
   1280   1276   1277   1289     1  180.0000771  2.0083200  2
   1280   1276   1277   1289     1  0.0000000  1.2552000  3
   1280   1276   1283   1286     1  180.0000771  2.0083200  2
   1280   1276   1283   1286     1  0.0000000  1.2552000  3
   1280   1292   1298   2638     1  0.0000000  0.6508444  3
   1283   1276   1277   1289     1  180.0000771  2.0083200  2
   1283   1276   1277   1289     1  0.0000000  1.2552000  3
   1283   1276   1280   1292     1  180.0000771  2.0083200  2
   1283   1276   1280   1292     1  0.0000000  1.2552000  3
   1283   1286   1295   1304     1  0.0000000  0.6508444  3
   1289   1301   2667   2658     1  180.0000771  0.4184000  2
   1289   1301   2667   2658     1  0.0000000  1.6024720  3
   1292   1298   2638   2629     1  180.0000771  0.4184000  2
   1292   1298   2638   2629     1  0.0000000  1.6024720  3
   1298   2638   2629   2620     1  180.0000771  0.4184000  2
   1298   2638   2629   2620     1  0.0000000  1.6024720  3
   1301   2667   2658   2649     1  180.0000771  0.4184000  2
   1301   2667   2658   2649     1  0.0000000  1.6024720  3
   1305   1306   1318   1330     1  0.0000000  0.6508444  3
   1305   1309   1321   1327     1  0.0000000  0.6508444  3
   1305   1312   1315   1324     1  0.0000000  0.6508444  3
   1306   1305   1309   1321     1  180.0000771  2.0083200  2
   1306   1305   1309   1321     1  0.0000000  1.2552000  3
   1306   1305   1312   1315     1  180.0000771  2.0083200  2
   1306   1305   1312   1315     1  0.0000000  1.2552000  3
   1306   1318   1330   2725     1  0.0000000  0.6508444  3
   1309   1305   1306   1318     1  180.0000771  2.0083200  2
   1309   1305   1306   1318     1  0.0000000  1.2552000  3
   1309   1305   1312   1315     1  180.0000771  2.0083200  2
   1309   1305   1312   1315     1  0.0000000  1.2552000  3
   1309   1321   1327   2696     1  0.0000000  0.6508444  3
   1312   1305   1306   1318     1  180.0000771  2.0083200  2
   1312   1305   1306   1318     1  0.0000000  1.2552000  3
   1312   1305   1309   1321     1  180.0000771  2.0083200  2
   1312   1305   1309   1321     1  0.0000000  1.2552000  3
   1312   1315   1324   1333     1  0.0000000  0.6508444  3
   1318   1330   2725   2716     1  180.0000771  0.4184000  2
   1318   1330   2725   2716     1  0.0000000  1.6024720  3
   1321   1327   2696   2687     1  180.0000771  0.4184000  2
   1321   1327   2696   2687     1  0.0000000  1.6024720  3
   1327   2696   2687   2678     1  180.0000771  0.4184000  2
   1327   2696   2687   2678     1  0.0000000  1.6024720  3
   1330   2725   2716   2707     1  180.0000771  0.4184000  2
   1330   2725   2716   2707     1  0.0000000  1.6024720  3
   1334   1335   1347   1359     1  0.0000000  0.6508444  3
   1334   1338   1350   1356     1  0.0000000  0.6508444  3
   1334   1341   1344   1353     1  0.0000000  0.6508444  3
   1335   1334   1338   1350     1  180.0000771  2.0083200  2
   1335   1334   1338   1350     1  0.0000000  1.2552000  3
   1335   1334   1341   1344     1  180.0000771  2.0083200  2
   1335   1334   1341   1344     1  0.0000000  1.2552000  3
   1335   1347   1359   2783     1  0.0000000  0.6508444  3
   1338   1334   1335   1347     1  180.0000771  2.0083200  2
   1338   1334   1335   1347     1  0.0000000  1.2552000  3
   1338   1334   1341   1344     1  180.0000771  2.0083200  2
   1338   1334   1341   1344     1  0.0000000  1.2552000  3
   1338   1350   1356   2754     1  0.0000000  0.6508444  3
   1341   1334   1335   1347     1  180.0000771  2.0083200  2
   1341   1334   1335   1347     1  0.0000000  1.2552000  3
   1341   1334   1338   1350     1  180.0000771  2.0083200  2
   1341   1334   1338   1350     1  0.0000000  1.2552000  3
   1341   1344   1353   1362     1  0.0000000  0.6508444  3
   1347   1359   2783   2774     1  180.0000771  0.4184000  2
   1347   1359   2783   2774     1  0.0000000  1.6024720  3
   1350   1356   2754   2745     1  180.0000771  0.4184000  2
   1350   1356   2754   2745     1  0.0000000  1.6024720  3
   1356   2754   2745   2736     1  180.0000771  0.4184000  2
   1356   2754   2745   2736     1  0.0000000  1.6024720  3
   1359   2783   2774   2765     1  180.0000771  0.4184000  2
   1359   2783   2774   2765     1  0.0000000  1.6024720  3
   1363   1364   1376   1388     1  0.0000000  0.6508444  3
   1363   1367   1379   1385     1  0.0000000  0.6508444  3
   1363   1370   1373   1382     1  0.0000000  0.6508444  3
   1364   1363   1367   1379     1  180.0000771  2.0083200  2
   1364   1363   1367   1379     1  0.0000000  1.2552000  3
   1364   1363   1370   1373     1  180.0000771  2.0083200  2
   1364   1363   1370   1373     1  0.0000000  1.2552000  3
   1364   1376   1388   2841     1  0.0000000  0.6508444  3
   1367   1363   1364   1376     1  180.0000771  2.0083200  2
   1367   1363   1364   1376     1  0.0000000  1.2552000  3
   1367   1363   1370   1373     1  180.0000771  2.0083200  2
   1367   1363   1370   1373     1  0.0000000  1.2552000  3
   1367   1379   1385   2812     1  0.0000000  0.6508444  3
   1370   1363   1364   1376     1  180.0000771  2.0083200  2
   1370   1363   1364   1376     1  0.0000000  1.2552000  3
   1370   1363   1367   1379     1  180.0000771  2.0083200  2
   1370   1363   1367   1379     1  0.0000000  1.2552000  3
   1370   1373   1382   1391     1  0.0000000  0.6508444  3
   1376   1388   2841   2832     1  180.0000771  0.4184000  2
   1376   1388   2841   2832     1  0.0000000  1.6024720  3
   1379   1385   2812   2803     1  180.0000771  0.4184000  2
   1379   1385   2812   2803     1  0.0000000  1.6024720  3
   1385   2812   2803   2794     1  180.0000771  0.4184000  2
   1385   2812   2803   2794     1  0.0000000  1.6024720  3
   1388   2841   2832   2823     1  180.0000771  0.4184000  2
   1388   2841   2832   2823     1  0.0000000  1.6024720  3
   1392   1393   1405   1417     1  0.0000000  0.6508444  3
   1392   1396   1408   1414     1  0.0000000  0.6508444  3
   1392   1399   1402   1411     1  0.0000000  0.6508444  3
   1393   1392   1396   1408     1  180.0000771  2.0083200  2
   1393   1392   1396   1408     1  0.0000000  1.2552000  3
   1393   1392   1399   1402     1  180.0000771  2.0083200  2
   1393   1392   1399   1402     1  0.0000000  1.2552000  3
   1393   1405   1417   2899     1  0.0000000  0.6508444  3
   1396   1392   1393   1405     1  180.0000771  2.0083200  2
   1396   1392   1393   1405     1  0.0000000  1.2552000  3
   1396   1392   1399   1402     1  180.0000771  2.0083200  2
   1396   1392   1399   1402     1  0.0000000  1.2552000  3
   1396   1408   1414   2870     1  0.0000000  0.6508444  3
   1399   1392   1393   1405     1  180.0000771  2.0083200  2
   1399   1392   1393   1405     1  0.0000000  1.2552000  3
   1399   1392   1396   1408     1  180.0000771  2.0083200  2
   1399   1392   1396   1408     1  0.0000000  1.2552000  3
   1399   1402   1411   1420     1  0.0000000  0.6508444  3
   1405   1417   2899   2890     1  180.0000771  0.4184000  2
   1405   1417   2899   2890     1  0.0000000  1.6024720  3
   1408   1414   2870   2861     1  180.0000771  0.4184000  2
   1408   1414   2870   2861     1  0.0000000  1.6024720  3
   1414   2870   2861   2852     1  180.0000771  0.4184000  2
   1414   2870   2861   2852     1  0.0000000  1.6024720  3
   1417   2899   2890   2881     1  180.0000771  0.4184000  2
   1417   2899   2890   2881     1  0.0000000  1.6024720  3
   1421   1422   1434   1446     1  0.0000000  0.6508444  3
   1421   1425   1437   1443     1  0.0000000  0.6508444  3
   1421   1428   1431   1440     1  0.0000000  0.6508444  3
   1422   1421   1425   1437     1  180.0000771  2.0083200  2
   1422   1421   1425   1437     1  0.0000000  1.2552000  3
   1422   1421   1428   1431     1  180.0000771  2.0083200  2
   1422   1421   1428   1431     1  0.0000000  1.2552000  3
   1422   1434   1446   2957     1  0.0000000  0.6508444  3
   1425   1421   1422   1434     1  180.0000771  2.0083200  2
   1425   1421   1422   1434     1  0.0000000  1.2552000  3
   1425   1421   1428   1431     1  180.0000771  2.0083200  2
   1425   1421   1428   1431     1  0.0000000  1.2552000  3
   1425   1437   1443   2928     1  0.0000000  0.6508444  3
   1428   1421   1422   1434     1  180.0000771  2.0083200  2
   1428   1421   1422   1434     1  0.0000000  1.2552000  3
   1428   1421   1425   1437     1  180.0000771  2.0083200  2
   1428   1421   1425   1437     1  0.0000000  1.2552000  3
   1428   1431   1440   1449     1  0.0000000  0.6508444  3
   1434   1446   2957   2948     1  180.0000771  0.4184000  2
   1434   1446   2957   2948     1  0.0000000  1.6024720  3
   1437   1443   2928   2919     1  180.0000771  0.4184000  2
   1437   1443   2928   2919     1  0.0000000  1.6024720  3
   1443   2928   2919   2910     1  180.0000771  0.4184000  2
   1443   2928   2919   2910     1  0.0000000  1.6024720  3
   1446   2957   2948   2939     1  180.0000771  0.4184000  2
   1446   2957   2948   2939     1  0.0000000  1.6024720  3
   1450   1451   1463   1475     1  0.0000000  0.6508444  3
   1450   1454   1466   1472     1  0.0000000  0.6508444  3
   1450   1457   1460   1469     1  0.0000000  0.6508444  3
   1451   1450   1454   1466     1  180.0000771  2.0083200  2
   1451   1450   1454   1466     1  0.0000000  1.2552000  3
   1451   1450   1457   1460     1  180.0000771  2.0083200  2
   1451   1450   1457   1460     1  0.0000000  1.2552000  3
   1451   1463   1475   3015     1  0.0000000  0.6508444  3
   1454   1450   1451   1463     1  180.0000771  2.0083200  2
   1454   1450   1451   1463     1  0.0000000  1.2552000  3
   1454   1450   1457   1460     1  180.0000771  2.0083200  2
   1454   1450   1457   1460     1  0.0000000  1.2552000  3
   1454   1466   1472   2986     1  0.0000000  0.6508444  3
   1457   1450   1451   1463     1  180.0000771  2.0083200  2
   1457   1450   1451   1463     1  0.0000000  1.2552000  3
   1457   1450   1454   1466     1  180.0000771  2.0083200  2
   1457   1450   1454   1466     1  0.0000000  1.2552000  3
   1457   1460   1469   1478     1  0.0000000  0.6508444  3
   1463   1475   3015   3006     1  180.0000771  0.4184000  2
   1463   1475   3015   3006     1  0.0000000  1.6024720  3
   1466   1472   2986   2977     1  180.0000771  0.4184000  2
   1466   1472   2986   2977     1  0.0000000  1.6024720  3
   1472   2986   2977   2968     1  180.0000771  0.4184000  2
   1472   2986   2977   2968     1  0.0000000  1.6024720  3
   1475   3015   3006   2997     1  180.0000771  0.4184000  2
   1475   3015   3006   2997     1  0.0000000  1.6024720  3
   1479   1480   1492   1504     1  0.0000000  0.6508444  3
   1479   1483   1495   1501     1  0.0000000  0.6508444  3
   1479   1486   1489   1498     1  0.0000000  0.6508444  3
   1480   1479   1483   1495     1  180.0000771  2.0083200  2
   1480   1479   1483   1495     1  0.0000000  1.2552000  3
   1480   1479   1486   1489     1  180.0000771  2.0083200  2
   1480   1479   1486   1489     1  0.0000000  1.2552000  3
   1480   1492   1504   3073     1  0.0000000  0.6508444  3
   1483   1479   1480   1492     1  180.0000771  2.0083200  2
   1483   1479   1480   1492     1  0.0000000  1.2552000  3
   1483   1479   1486   1489     1  180.0000771  2.0083200  2
   1483   1479   1486   1489     1  0.0000000  1.2552000  3
   1483   1495   1501   3044     1  0.0000000  0.6508444  3
   1486   1479   1480   1492     1  180.0000771  2.0083200  2
   1486   1479   1480   1492     1  0.0000000  1.2552000  3
   1486   1479   1483   1495     1  180.0000771  2.0083200  2
   1486   1479   1483   1495     1  0.0000000  1.2552000  3
   1486   1489   1498   1507     1  0.0000000  0.6508444  3
   1492   1504   3073   3064     1  180.0000771  0.4184000  2
   1492   1504   3073   3064     1  0.0000000  1.6024720  3
   1495   1501   3044   3035     1  180.0000771  0.4184000  2
   1495   1501   3044   3035     1  0.0000000  1.6024720  3
   1501   3044   3035   3026     1  180.0000771  0.4184000  2
   1501   3044   3035   3026     1  0.0000000  1.6024720  3
   1504   3073   3064   3055     1  180.0000771  0.4184000  2
   1504   3073   3064   3055     1  0.0000000  1.6024720  3
   1508   1509   1521   1533     1  0.0000000  0.6508444  3
   1508   1512   1524   1530     1  0.0000000  0.6508444  3
   1508   1515   1518   1527     1  0.0000000  0.6508444  3
   1509   1508   1512   1524     1  180.0000771  2.0083200  2
   1509   1508   1512   1524     1  0.0000000  1.2552000  3
   1509   1508   1515   1518     1  180.0000771  2.0083200  2
   1509   1508   1515   1518     1  0.0000000  1.2552000  3
   1509   1521   1533   3131     1  0.0000000  0.6508444  3
   1512   1508   1509   1521     1  180.0000771  2.0083200  2
   1512   1508   1509   1521     1  0.0000000  1.2552000  3
   1512   1508   1515   1518     1  180.0000771  2.0083200  2
   1512   1508   1515   1518     1  0.0000000  1.2552000  3
   1512   1524   1530   3102     1  0.0000000  0.6508444  3
   1515   1508   1509   1521     1  180.0000771  2.0083200  2
   1515   1508   1509   1521     1  0.0000000  1.2552000  3
   1515   1508   1512   1524     1  180.0000771  2.0083200  2
   1515   1508   1512   1524     1  0.0000000  1.2552000  3
   1515   1518   1527   1536     1  0.0000000  0.6508444  3
   1521   1533   3131   3122     1  180.0000771  0.4184000  2
   1521   1533   3131   3122     1  0.0000000  1.6024720  3
   1524   1530   3102   3093     1  180.0000771  0.4184000  2
   1524   1530   3102   3093     1  0.0000000  1.6024720  3
   1530   3102   3093   3084     1  180.0000771  0.4184000  2
   1530   3102   3093   3084     1  0.0000000  1.6024720  3
   1533   3131   3122   3113     1  180.0000771  0.4184000  2
   1533   3131   3122   3113     1  0.0000000  1.6024720  3
   1537   1538   1550   1562     1  0.0000000  0.6508444  3
   1537   1541   1553   1559     1  0.0000000  0.6508444  3
   1537   1544   1547   1556     1  0.0000000  0.6508444  3
   1538   1537   1541   1553     1  180.0000771  2.0083200  2
   1538   1537   1541   1553     1  0.0000000  1.2552000  3
   1538   1537   1544   1547     1  180.0000771  2.0083200  2
   1538   1537   1544   1547     1  0.0000000  1.2552000  3
   1538   1550   1562   3189     1  0.0000000  0.6508444  3
   1541   1537   1538   1550     1  180.0000771  2.0083200  2
   1541   1537   1538   1550     1  0.0000000  1.2552000  3
   1541   1537   1544   1547     1  180.0000771  2.0083200  2
   1541   1537   1544   1547     1  0.0000000  1.2552000  3
   1541   1553   1559   3160     1  0.0000000  0.6508444  3
   1544   1537   1538   1550     1  180.0000771  2.0083200  2
   1544   1537   1538   1550     1  0.0000000  1.2552000  3
   1544   1537   1541   1553     1  180.0000771  2.0083200  2
   1544   1537   1541   1553     1  0.0000000  1.2552000  3
   1544   1547   1556   1565     1  0.0000000  0.6508444  3
   1550   1562   3189   3180     1  180.0000771  0.4184000  2
   1550   1562   3189   3180     1  0.0000000  1.6024720  3
   1553   1559   3160   3151     1  180.0000771  0.4184000  2
   1553   1559   3160   3151     1  0.0000000  1.6024720  3
   1559   3160   3151   3142     1  180.0000771  0.4184000  2
   1559   3160   3151   3142     1  0.0000000  1.6024720  3
   1562   3189   3180   3171     1  180.0000771  0.4184000  2
   1562   3189   3180   3171     1  0.0000000  1.6024720  3
   1566   1567   1579   1591     1  0.0000000  0.6508444  3
   1566   1570   1582   1588     1  0.0000000  0.6508444  3
   1566   1573   1576   1585     1  0.0000000  0.6508444  3
   1567   1566   1570   1582     1  180.0000771  2.0083200  2
   1567   1566   1570   1582     1  0.0000000  1.2552000  3
   1567   1566   1573   1576     1  180.0000771  2.0083200  2
   1567   1566   1573   1576     1  0.0000000  1.2552000  3
   1567   1579   1591   3247     1  0.0000000  0.6508444  3
   1570   1566   1567   1579     1  180.0000771  2.0083200  2
   1570   1566   1567   1579     1  0.0000000  1.2552000  3
   1570   1566   1573   1576     1  180.0000771  2.0083200  2
   1570   1566   1573   1576     1  0.0000000  1.2552000  3
   1570   1582   1588   3218     1  0.0000000  0.6508444  3
   1573   1566   1567   1579     1  180.0000771  2.0083200  2
   1573   1566   1567   1579     1  0.0000000  1.2552000  3
   1573   1566   1570   1582     1  180.0000771  2.0083200  2
   1573   1566   1570   1582     1  0.0000000  1.2552000  3
   1573   1576   1585   1594     1  0.0000000  0.6508444  3
   1579   1591   3247   3238     1  180.0000771  0.4184000  2
   1579   1591   3247   3238     1  0.0000000  1.6024720  3
   1582   1588   3218   3209     1  180.0000771  0.4184000  2
   1582   1588   3218   3209     1  0.0000000  1.6024720  3
   1588   3218   3209   3200     1  180.0000771  0.4184000  2
   1588   3218   3209   3200     1  0.0000000  1.6024720  3
   1591   3247   3238   3229     1  180.0000771  0.4184000  2
   1591   3247   3238   3229     1  0.0000000  1.6024720  3
   1595   1596   1608   1620     1  0.0000000  0.6508444  3
   1595   1599   1611   1617     1  0.0000000  0.6508444  3
   1595   1602   1605   1614     1  0.0000000  0.6508444  3
   1596   1595   1599   1611     1  180.0000771  2.0083200  2
   1596   1595   1599   1611     1  0.0000000  1.2552000  3
   1596   1595   1602   1605     1  180.0000771  2.0083200  2
   1596   1595   1602   1605     1  0.0000000  1.2552000  3
   1596   1608   1620   3305     1  0.0000000  0.6508444  3
   1599   1595   1596   1608     1  180.0000771  2.0083200  2
   1599   1595   1596   1608     1  0.0000000  1.2552000  3
   1599   1595   1602   1605     1  180.0000771  2.0083200  2
   1599   1595   1602   1605     1  0.0000000  1.2552000  3
   1599   1611   1617   3276     1  0.0000000  0.6508444  3
   1602   1595   1596   1608     1  180.0000771  2.0083200  2
   1602   1595   1596   1608     1  0.0000000  1.2552000  3
   1602   1595   1599   1611     1  180.0000771  2.0083200  2
   1602   1595   1599   1611     1  0.0000000  1.2552000  3
   1602   1605   1614   1623     1  0.0000000  0.6508444  3
   1608   1620   3305   3296     1  180.0000771  0.4184000  2
   1608   1620   3305   3296     1  0.0000000  1.6024720  3
   1611   1617   3276   3267     1  180.0000771  0.4184000  2
   1611   1617   3276   3267     1  0.0000000  1.6024720  3
   1617   3276   3267   3258     1  180.0000771  0.4184000  2
   1617   3276   3267   3258     1  0.0000000  1.6024720  3
   1620   3305   3296   3287     1  180.0000771  0.4184000  2
   1620   3305   3296   3287     1  0.0000000  1.6024720  3
   1624   1625   1637   1649     1  0.0000000  0.6508444  3
   1624   1628   1640   1646     1  0.0000000  0.6508444  3
   1624   1631   1634   1643     1  0.0000000  0.6508444  3
   1625   1624   1628   1640     1  180.0000771  2.0083200  2
   1625   1624   1628   1640     1  0.0000000  1.2552000  3
   1625   1624   1631   1634     1  180.0000771  2.0083200  2
   1625   1624   1631   1634     1  0.0000000  1.2552000  3
   1625   1637   1649   3363     1  0.0000000  0.6508444  3
   1628   1624   1625   1637     1  180.0000771  2.0083200  2
   1628   1624   1625   1637     1  0.0000000  1.2552000  3
   1628   1624   1631   1634     1  180.0000771  2.0083200  2
   1628   1624   1631   1634     1  0.0000000  1.2552000  3
   1628   1640   1646   3334     1  0.0000000  0.6508444  3
   1631   1624   1625   1637     1  180.0000771  2.0083200  2
   1631   1624   1625   1637     1  0.0000000  1.2552000  3
   1631   1624   1628   1640     1  180.0000771  2.0083200  2
   1631   1624   1628   1640     1  0.0000000  1.2552000  3
   1631   1634   1643   1652     1  0.0000000  0.6508444  3
   1637   1649   3363   3354     1  180.0000771  0.4184000  2
   1637   1649   3363   3354     1  0.0000000  1.6024720  3
   1640   1646   3334   3325     1  180.0000771  0.4184000  2
   1640   1646   3334   3325     1  0.0000000  1.6024720  3
   1646   3334   3325   3316     1  180.0000771  0.4184000  2
   1646   3334   3325   3316     1  0.0000000  1.6024720  3
   1649   3363   3354   3345     1  180.0000771  0.4184000  2
   1649   3363   3354   3345     1  0.0000000  1.6024720  3
   1653   1654   1666   1678     1  0.0000000  0.6508444  3
   1653   1657   1669   1675     1  0.0000000  0.6508444  3
   1653   1660   1663   1672     1  0.0000000  0.6508444  3
   1654   1653   1657   1669     1  180.0000771  2.0083200  2
   1654   1653   1657   1669     1  0.0000000  1.2552000  3
   1654   1653   1660   1663     1  180.0000771  2.0083200  2
   1654   1653   1660   1663     1  0.0000000  1.2552000  3
   1654   1666   1678   3421     1  0.0000000  0.6508444  3
   1657   1653   1654   1666     1  180.0000771  2.0083200  2
   1657   1653   1654   1666     1  0.0000000  1.2552000  3
   1657   1653   1660   1663     1  180.0000771  2.0083200  2
   1657   1653   1660   1663     1  0.0000000  1.2552000  3
   1657   1669   1675   3392     1  0.0000000  0.6508444  3
   1660   1653   1654   1666     1  180.0000771  2.0083200  2
   1660   1653   1654   1666     1  0.0000000  1.2552000  3
   1660   1653   1657   1669     1  180.0000771  2.0083200  2
   1660   1653   1657   1669     1  0.0000000  1.2552000  3
   1660   1663   1672   1681     1  0.0000000  0.6508444  3
   1666   1678   3421   3412     1  180.0000771  0.4184000  2
   1666   1678   3421   3412     1  0.0000000  1.6024720  3
   1669   1675   3392   3383     1  180.0000771  0.4184000  2
   1669   1675   3392   3383     1  0.0000000  1.6024720  3
   1675   3392   3383   3374     1  180.0000771  0.4184000  2
   1675   3392   3383   3374     1  0.0000000  1.6024720  3
   1678   3421   3412   3403     1  180.0000771  0.4184000  2
   1678   3421   3412   3403     1  0.0000000  1.6024720  3
   1682   1683   1695   1707     1  0.0000000  0.6508444  3
   1682   1686   1698   1704     1  0.0000000  0.6508444  3
   1682   1689   1692   1701     1  0.0000000  0.6508444  3
   1683   1682   1686   1698     1  180.0000771  2.0083200  2
   1683   1682   1686   1698     1  0.0000000  1.2552000  3
   1683   1682   1689   1692     1  180.0000771  2.0083200  2
   1683   1682   1689   1692     1  0.0000000  1.2552000  3
   1683   1695   1707   3479     1  0.0000000  0.6508444  3
   1686   1682   1683   1695     1  180.0000771  2.0083200  2
   1686   1682   1683   1695     1  0.0000000  1.2552000  3
   1686   1682   1689   1692     1  180.0000771  2.0083200  2
   1686   1682   1689   1692     1  0.0000000  1.2552000  3
   1686   1698   1704   3450     1  0.0000000  0.6508444  3
   1689   1682   1683   1695     1  180.0000771  2.0083200  2
   1689   1682   1683   1695     1  0.0000000  1.2552000  3
   1689   1682   1686   1698     1  180.0000771  2.0083200  2
   1689   1682   1686   1698     1  0.0000000  1.2552000  3
   1689   1692   1701   1710     1  0.0000000  0.6508444  3
   1695   1707   3479   3470     1  180.0000771  0.4184000  2
   1695   1707   3479   3470     1  0.0000000  1.6024720  3
   1698   1704   3450   3441     1  180.0000771  0.4184000  2
   1698   1704   3450   3441     1  0.0000000  1.6024720  3
   1704   3450   3441   3432     1  180.0000771  0.4184000  2
   1704   3450   3441   3432     1  0.0000000  1.6024720  3
   1707   3479   3470   3461     1  180.0000771  0.4184000  2
   1707   3479   3470   3461     1  0.0000000  1.6024720  3
   1711   1712   1724   1736     1  0.0000000  0.6508444  3
   1711   1715   1727   1733     1  0.0000000  0.6508444  3
   1711   1718   1721   1730     1  0.0000000  0.6508444  3
   1712   1711   1715   1727     1  180.0000771  2.0083200  2
   1712   1711   1715   1727     1  0.0000000  1.2552000  3
   1712   1711   1718   1721     1  180.0000771  2.0083200  2
   1712   1711   1718   1721     1  0.0000000  1.2552000  3
   1712   1724   1736   3537     1  0.0000000  0.6508444  3
   1715   1711   1712   1724     1  180.0000771  2.0083200  2
   1715   1711   1712   1724     1  0.0000000  1.2552000  3
   1715   1711   1718   1721     1  180.0000771  2.0083200  2
   1715   1711   1718   1721     1  0.0000000  1.2552000  3
   1715   1727   1733   3508     1  0.0000000  0.6508444  3
   1718   1711   1712   1724     1  180.0000771  2.0083200  2
   1718   1711   1712   1724     1  0.0000000  1.2552000  3
   1718   1711   1715   1727     1  180.0000771  2.0083200  2
   1718   1711   1715   1727     1  0.0000000  1.2552000  3
   1718   1721   1730   1739     1  0.0000000  0.6508444  3
   1724   1736   3537   3528     1  180.0000771  0.4184000  2
   1724   1736   3537   3528     1  0.0000000  1.6024720  3
   1727   1733   3508   3499     1  180.0000771  0.4184000  2
   1727   1733   3508   3499     1  0.0000000  1.6024720  3
   1733   3508   3499   3490     1  180.0000771  0.4184000  2
   1733   3508   3499   3490     1  0.0000000  1.6024720  3
   1736   3537   3528   3519     1  180.0000771  0.4184000  2
   1736   3537   3528   3519     1  0.0000000  1.6024720  3
   1740   1741   1753   1765     1  0.0000000  0.6508444  3
   1740   1744   1756   1762     1  0.0000000  0.6508444  3
   1740   1747   1750   1759     1  0.0000000  0.6508444  3
   1741   1740   1744   1756     1  180.0000771  2.0083200  2
   1741   1740   1744   1756     1  0.0000000  1.2552000  3
   1741   1740   1747   1750     1  180.0000771  2.0083200  2
   1741   1740   1747   1750     1  0.0000000  1.2552000  3
   1741   1753   1765   3595     1  0.0000000  0.6508444  3
   1744   1740   1741   1753     1  180.0000771  2.0083200  2
   1744   1740   1741   1753     1  0.0000000  1.2552000  3
   1744   1740   1747   1750     1  180.0000771  2.0083200  2
   1744   1740   1747   1750     1  0.0000000  1.2552000  3
   1744   1756   1762   3566     1  0.0000000  0.6508444  3
   1747   1740   1741   1753     1  180.0000771  2.0083200  2
   1747   1740   1741   1753     1  0.0000000  1.2552000  3
   1747   1740   1744   1756     1  180.0000771  2.0083200  2
   1747   1740   1744   1756     1  0.0000000  1.2552000  3
   1747   1750   1759   1768     1  0.0000000  0.6508444  3
   1753   1765   3595   3586     1  180.0000771  0.4184000  2
   1753   1765   3595   3586     1  0.0000000  1.6024720  3
   1756   1762   3566   3557     1  180.0000771  0.4184000  2
   1756   1762   3566   3557     1  0.0000000  1.6024720  3
   1762   3566   3557   3548     1  180.0000771  0.4184000  2
   1762   3566   3557   3548     1  0.0000000  1.6024720  3
   1765   3595   3586   3577     1  180.0000771  0.4184000  2
   1765   3595   3586   3577     1  0.0000000  1.6024720  3
   1769   1770   1782   1794     1  0.0000000  0.6508444  3
   1769   1773   1785   1791     1  0.0000000  0.6508444  3
   1769   1776   1779   1788     1  0.0000000  0.6508444  3
   1770   1769   1773   1785     1  180.0000771  2.0083200  2
   1770   1769   1773   1785     1  0.0000000  1.2552000  3
   1770   1769   1776   1779     1  180.0000771  2.0083200  2
   1770   1769   1776   1779     1  0.0000000  1.2552000  3
   1770   1782   1794   3653     1  0.0000000  0.6508444  3
   1773   1769   1770   1782     1  180.0000771  2.0083200  2
   1773   1769   1770   1782     1  0.0000000  1.2552000  3
   1773   1769   1776   1779     1  180.0000771  2.0083200  2
   1773   1769   1776   1779     1  0.0000000  1.2552000  3
   1773   1785   1791   3624     1  0.0000000  0.6508444  3
   1776   1769   1770   1782     1  180.0000771  2.0083200  2
   1776   1769   1770   1782     1  0.0000000  1.2552000  3
   1776   1769   1773   1785     1  180.0000771  2.0083200  2
   1776   1769   1773   1785     1  0.0000000  1.2552000  3
   1776   1779   1788   1797     1  0.0000000  0.6508444  3
   1782   1794   3653   3644     1  180.0000771  0.4184000  2
   1782   1794   3653   3644     1  0.0000000  1.6024720  3
   1785   1791   3624   3615     1  180.0000771  0.4184000  2
   1785   1791   3624   3615     1  0.0000000  1.6024720  3
   1791   3624   3615   3606     1  180.0000771  0.4184000  2
   1791   3624   3615   3606     1  0.0000000  1.6024720  3
   1794   3653   3644   3635     1  180.0000771  0.4184000  2
   1794   3653   3644   3635     1  0.0000000  1.6024720  3
   1798   1799   1811   1823     1  0.0000000  0.6508444  3
   1798   1802   1814   1820     1  0.0000000  0.6508444  3
   1798   1805   1808   1817     1  0.0000000  0.6508444  3
   1799   1798   1802   1814     1  180.0000771  2.0083200  2
   1799   1798   1802   1814     1  0.0000000  1.2552000  3
   1799   1798   1805   1808     1  180.0000771  2.0083200  2
   1799   1798   1805   1808     1  0.0000000  1.2552000  3
   1799   1811   1823   3679     1  0.0000000  0.6508444  3
   1802   1798   1799   1811     1  180.0000771  2.0083200  2
   1802   1798   1799   1811     1  0.0000000  1.2552000  3
   1802   1798   1805   1808     1  180.0000771  2.0083200  2
   1802   1798   1805   1808     1  0.0000000  1.2552000  3
   1802   1814   1820   3666     1  0.0000000  0.6508444  3
   1805   1798   1799   1811     1  180.0000771  2.0083200  2
   1805   1798   1799   1811     1  0.0000000  1.2552000  3
   1805   1798   1802   1814     1  180.0000771  2.0083200  2
   1805   1798   1802   1814     1  0.0000000  1.2552000  3
   1805   1808   1817   1826     1  0.0000000  0.6508444  3
   1811   1823   3679   3673     1  180.0000771  0.4184000  2
   1811   1823   3679   3673     1  0.0000000  1.6024720  3
   1814   1820   3666   3660     1  180.0000771  0.4184000  2
   1814   1820   3666   3660     1  0.0000000  1.6024720  3
   1820   3666   3660   3657     1  180.0000771  0.4184000  2
   1820   3666   3660   3657     1  0.0000000  1.6024720  3
   1823   3679   3673   3670     1  180.0000771  0.4184000  2
   1823   3679   3673   3670     1  0.0000000  1.6024720  3
   1827   1828   1840   1852     1  0.0000000  0.6508444  3
   1827   1831   1843   1849     1  0.0000000  0.6508444  3
   1827   1834   1837   1846     1  0.0000000  0.6508444  3
   1828   1827   1831   1843     1  180.0000771  2.0083200  2
   1828   1827   1831   1843     1  0.0000000  1.2552000  3
   1828   1827   1834   1837     1  180.0000771  2.0083200  2
   1828   1827   1834   1837     1  0.0000000  1.2552000  3
   1828   1840   1852   3705     1  0.0000000  0.6508444  3
   1831   1827   1828   1840     1  180.0000771  2.0083200  2
   1831   1827   1828   1840     1  0.0000000  1.2552000  3
   1831   1827   1834   1837     1  180.0000771  2.0083200  2
   1831   1827   1834   1837     1  0.0000000  1.2552000  3
   1831   1843   1849   3692     1  0.0000000  0.6508444  3
   1834   1827   1828   1840     1  180.0000771  2.0083200  2
   1834   1827   1828   1840     1  0.0000000  1.2552000  3
   1834   1827   1831   1843     1  180.0000771  2.0083200  2
   1834   1827   1831   1843     1  0.0000000  1.2552000  3
   1834   1837   1846   1855     1  0.0000000  0.6508444  3
   1840   1852   3705   3699     1  180.0000771  0.4184000  2
   1840   1852   3705   3699     1  0.0000000  1.6024720  3
   1843   1849   3692   3686     1  180.0000771  0.4184000  2
   1843   1849   3692   3686     1  0.0000000  1.6024720  3
   1849   3692   3686   3683     1  180.0000771  0.4184000  2
   1849   3692   3686   3683     1  0.0000000  1.6024720  3
   1852   3705   3699   3696     1  180.0000771  0.4184000  2
   1852   3705   3699   3696     1  0.0000000  1.6024720  3
   1856   1857   1869   1881     1  0.0000000  0.6508444  3
   1856   1860   1872   1878     1  0.0000000  0.6508444  3
   1856   1863   1866   1875     1  0.0000000  0.6508444  3
   1857   1856   1860   1872     1  180.0000771  2.0083200  2
   1857   1856   1860   1872     1  0.0000000  1.2552000  3
   1857   1856   1863   1866     1  180.0000771  2.0083200  2
   1857   1856   1863   1866     1  0.0000000  1.2552000  3
   1857   1869   1881   3731     1  0.0000000  0.6508444  3
   1860   1856   1857   1869     1  180.0000771  2.0083200  2
   1860   1856   1857   1869     1  0.0000000  1.2552000  3
   1860   1856   1863   1866     1  180.0000771  2.0083200  2
   1860   1856   1863   1866     1  0.0000000  1.2552000  3
   1860   1872   1878   3718     1  0.0000000  0.6508444  3
   1863   1856   1857   1869     1  180.0000771  2.0083200  2
   1863   1856   1857   1869     1  0.0000000  1.2552000  3
   1863   1856   1860   1872     1  180.0000771  2.0083200  2
   1863   1856   1860   1872     1  0.0000000  1.2552000  3
   1863   1866   1875   1884     1  0.0000000  0.6508444  3
   1869   1881   3731   3725     1  180.0000771  0.4184000  2
   1869   1881   3731   3725     1  0.0000000  1.6024720  3
   1872   1878   3718   3712     1  180.0000771  0.4184000  2
   1872   1878   3718   3712     1  0.0000000  1.6024720  3
   1878   3718   3712   3709     1  180.0000771  0.4184000  2
   1878   3718   3712   3709     1  0.0000000  1.6024720  3
   1881   3731   3725   3722     1  180.0000771  0.4184000  2
   1881   3731   3725   3722     1  0.0000000  1.6024720  3
   1885   1886   1898   1910     1  0.0000000  0.6508444  3
   1885   1889   1901   1907     1  0.0000000  0.6508444  3
   1885   1892   1895   1904     1  0.0000000  0.6508444  3
   1886   1885   1889   1901     1  180.0000771  2.0083200  2
   1886   1885   1889   1901     1  0.0000000  1.2552000  3
   1886   1885   1892   1895     1  180.0000771  2.0083200  2
   1886   1885   1892   1895     1  0.0000000  1.2552000  3
   1886   1898   1910   3757     1  0.0000000  0.6508444  3
   1889   1885   1886   1898     1  180.0000771  2.0083200  2
   1889   1885   1886   1898     1  0.0000000  1.2552000  3
   1889   1885   1892   1895     1  180.0000771  2.0083200  2
   1889   1885   1892   1895     1  0.0000000  1.2552000  3
   1889   1901   1907   3744     1  0.0000000  0.6508444  3
   1892   1885   1886   1898     1  180.0000771  2.0083200  2
   1892   1885   1886   1898     1  0.0000000  1.2552000  3
   1892   1885   1889   1901     1  180.0000771  2.0083200  2
   1892   1885   1889   1901     1  0.0000000  1.2552000  3
   1892   1895   1904   1913     1  0.0000000  0.6508444  3
   1898   1910   3757   3751     1  180.0000771  0.4184000  2
   1898   1910   3757   3751     1  0.0000000  1.6024720  3
   1901   1907   3744   3738     1  180.0000771  0.4184000  2
   1901   1907   3744   3738     1  0.0000000  1.6024720  3
   1907   3744   3738   3735     1  180.0000771  0.4184000  2
   1907   3744   3738   3735     1  0.0000000  1.6024720  3
   1910   3757   3751   3748     1  180.0000771  0.4184000  2
   1910   3757   3751   3748     1  0.0000000  1.6024720  3
   1914   1915   1927   1939     1  0.0000000  0.6508444  3
   1914   1918   1930   1936     1  0.0000000  0.6508444  3
   1914   1921   1924   1933     1  0.0000000  0.6508444  3
   1915   1914   1918   1930     1  180.0000771  2.0083200  2
   1915   1914   1918   1930     1  0.0000000  1.2552000  3
   1915   1914   1921   1924     1  180.0000771  2.0083200  2
   1915   1914   1921   1924     1  0.0000000  1.2552000  3
   1915   1927   1939   3783     1  0.0000000  0.6508444  3
   1918   1914   1915   1927     1  180.0000771  2.0083200  2
   1918   1914   1915   1927     1  0.0000000  1.2552000  3
   1918   1914   1921   1924     1  180.0000771  2.0083200  2
   1918   1914   1921   1924     1  0.0000000  1.2552000  3
   1918   1930   1936   3770     1  0.0000000  0.6508444  3
   1921   1914   1915   1927     1  180.0000771  2.0083200  2
   1921   1914   1915   1927     1  0.0000000  1.2552000  3
   1921   1914   1918   1930     1  180.0000771  2.0083200  2
   1921   1914   1918   1930     1  0.0000000  1.2552000  3
   1921   1924   1933   1942     1  0.0000000  0.6508444  3
   1927   1939   3783   3777     1  180.0000771  0.4184000  2
   1927   1939   3783   3777     1  0.0000000  1.6024720  3
   1930   1936   3770   3764     1  180.0000771  0.4184000  2
   1930   1936   3770   3764     1  0.0000000  1.6024720  3
   1936   3770   3764   3761     1  180.0000771  0.4184000  2
   1936   3770   3764   3761     1  0.0000000  1.6024720  3
   1939   3783   3777   3774     1  180.0000771  0.4184000  2
   1939   3783   3777   3774     1  0.0000000  1.6024720  3
   1943   1944   1956   1968     1  0.0000000  0.6508444  3
   1943   1947   1959   1965     1  0.0000000  0.6508444  3
   1943   1950   1953   1962     1  0.0000000  0.6508444  3
   1944   1943   1947   1959     1  180.0000771  2.0083200  2
   1944   1943   1947   1959     1  0.0000000  1.2552000  3
   1944   1943   1950   1953     1  180.0000771  2.0083200  2
   1944   1943   1950   1953     1  0.0000000  1.2552000  3
   1944   1956   1968   3809     1  0.0000000  0.6508444  3
   1947   1943   1944   1956     1  180.0000771  2.0083200  2
   1947   1943   1944   1956     1  0.0000000  1.2552000  3
   1947   1943   1950   1953     1  180.0000771  2.0083200  2
   1947   1943   1950   1953     1  0.0000000  1.2552000  3
   1947   1959   1965   3796     1  0.0000000  0.6508444  3
   1950   1943   1944   1956     1  180.0000771  2.0083200  2
   1950   1943   1944   1956     1  0.0000000  1.2552000  3
   1950   1943   1947   1959     1  180.0000771  2.0083200  2
   1950   1943   1947   1959     1  0.0000000  1.2552000  3
   1950   1953   1962   1971     1  0.0000000  0.6508444  3
   1956   1968   3809   3803     1  180.0000771  0.4184000  2
   1956   1968   3809   3803     1  0.0000000  1.6024720  3
   1959   1965   3796   3790     1  180.0000771  0.4184000  2
   1959   1965   3796   3790     1  0.0000000  1.6024720  3
   1965   3796   3790   3787     1  180.0000771  0.4184000  2
   1965   3796   3790   3787     1  0.0000000  1.6024720  3
   1968   3809   3803   3800     1  180.0000771  0.4184000  2
   1968   3809   3803   3800     1  0.0000000  1.6024720  3
   1972   1973   1985   1997     1  0.0000000  0.6508444  3
   1972   1976   1988   1994     1  0.0000000  0.6508444  3
   1972   1979   1982   1991     1  0.0000000  0.6508444  3
   1973   1972   1976   1988     1  180.0000771  2.0083200  2
   1973   1972   1976   1988     1  0.0000000  1.2552000  3
   1973   1972   1979   1982     1  180.0000771  2.0083200  2
   1973   1972   1979   1982     1  0.0000000  1.2552000  3
   1973   1985   1997   3835     1  0.0000000  0.6508444  3
   1976   1972   1973   1985     1  180.0000771  2.0083200  2
   1976   1972   1973   1985     1  0.0000000  1.2552000  3
   1976   1972   1979   1982     1  180.0000771  2.0083200  2
   1976   1972   1979   1982     1  0.0000000  1.2552000  3
   1976   1988   1994   3822     1  0.0000000  0.6508444  3
   1979   1972   1973   1985     1  180.0000771  2.0083200  2
   1979   1972   1973   1985     1  0.0000000  1.2552000  3
   1979   1972   1976   1988     1  180.0000771  2.0083200  2
   1979   1972   1976   1988     1  0.0000000  1.2552000  3
   1979   1982   1991   2000     1  0.0000000  0.6508444  3
   1985   1997   3835   3829     1  180.0000771  0.4184000  2
   1985   1997   3835   3829     1  0.0000000  1.6024720  3
   1988   1994   3822   3816     1  180.0000771  0.4184000  2
   1988   1994   3822   3816     1  0.0000000  1.6024720  3
   1994   3822   3816   3813     1  180.0000771  0.4184000  2
   1994   3822   3816   3813     1  0.0000000  1.6024720  3
   1997   3835   3829   3826     1  180.0000771  0.4184000  2
   1997   3835   3829   3826     1  0.0000000  1.6024720  3
   2001   2002   2014   2026     1  0.0000000  0.6508444  3
   2001   2005   2017   2023     1  0.0000000  0.6508444  3
   2001   2008   2011   2020     1  0.0000000  0.6508444  3
   2002   2001   2005   2017     1  180.0000771  2.0083200  2
   2002   2001   2005   2017     1  0.0000000  1.2552000  3
   2002   2001   2008   2011     1  180.0000771  2.0083200  2
   2002   2001   2008   2011     1  0.0000000  1.2552000  3
   2002   2014   2026   3861     1  0.0000000  0.6508444  3
   2005   2001   2002   2014     1  180.0000771  2.0083200  2
   2005   2001   2002   2014     1  0.0000000  1.2552000  3
   2005   2001   2008   2011     1  180.0000771  2.0083200  2
   2005   2001   2008   2011     1  0.0000000  1.2552000  3
   2005   2017   2023   3848     1  0.0000000  0.6508444  3
   2008   2001   2002   2014     1  180.0000771  2.0083200  2
   2008   2001   2002   2014     1  0.0000000  1.2552000  3
   2008   2001   2005   2017     1  180.0000771  2.0083200  2
   2008   2001   2005   2017     1  0.0000000  1.2552000  3
   2008   2011   2020   2029     1  0.0000000  0.6508444  3
   2014   2026   3861   3855     1  180.0000771  0.4184000  2
   2014   2026   3861   3855     1  0.0000000  1.6024720  3
   2017   2023   3848   3842     1  180.0000771  0.4184000  2
   2017   2023   3848   3842     1  0.0000000  1.6024720  3
   2023   3848   3842   3839     1  180.0000771  0.4184000  2
   2023   3848   3842   3839     1  0.0000000  1.6024720  3
   2026   3861   3855   3852     1  180.0000771  0.4184000  2
   2026   3861   3855   3852     1  0.0000000  1.6024720  3
   2030   2031   2043   2055     1  0.0000000  0.6508444  3
   2030   2034   2046   2052     1  0.0000000  0.6508444  3
   2030   2037   2040   2049     1  0.0000000  0.6508444  3
   2031   2030   2034   2046     1  180.0000771  2.0083200  2
   2031   2030   2034   2046     1  0.0000000  1.2552000  3
   2031   2030   2037   2040     1  180.0000771  2.0083200  2
   2031   2030   2037   2040     1  0.0000000  1.2552000  3
   2031   2043   2055   3887     1  0.0000000  0.6508444  3
   2034   2030   2031   2043     1  180.0000771  2.0083200  2
   2034   2030   2031   2043     1  0.0000000  1.2552000  3
   2034   2030   2037   2040     1  180.0000771  2.0083200  2
   2034   2030   2037   2040     1  0.0000000  1.2552000  3
   2034   2046   2052   3874     1  0.0000000  0.6508444  3
   2037   2030   2031   2043     1  180.0000771  2.0083200  2
   2037   2030   2031   2043     1  0.0000000  1.2552000  3
   2037   2030   2034   2046     1  180.0000771  2.0083200  2
   2037   2030   2034   2046     1  0.0000000  1.2552000  3
   2037   2040   2049   2058     1  0.0000000  0.6508444  3
   2043   2055   3887   3881     1  180.0000771  0.4184000  2
   2043   2055   3887   3881     1  0.0000000  1.6024720  3
   2046   2052   3874   3868     1  180.0000771  0.4184000  2
   2046   2052   3874   3868     1  0.0000000  1.6024720  3
   2052   3874   3868   3865     1  180.0000771  0.4184000  2
   2052   3874   3868   3865     1  0.0000000  1.6024720  3
   2055   3887   3881   3878     1  180.0000771  0.4184000  2
   2055   3887   3881   3878     1  0.0000000  1.6024720  3
   2059   2060   2072   2084     1  0.0000000  0.6508444  3
   2059   2063   2075   2081     1  0.0000000  0.6508444  3
   2059   2066   2069   2078     1  0.0000000  0.6508444  3
   2060   2059   2063   2075     1  180.0000771  2.0083200  2
   2060   2059   2063   2075     1  0.0000000  1.2552000  3
   2060   2059   2066   2069     1  180.0000771  2.0083200  2
   2060   2059   2066   2069     1  0.0000000  1.2552000  3
   2060   2072   2084   3913     1  0.0000000  0.6508444  3
   2063   2059   2060   2072     1  180.0000771  2.0083200  2
   2063   2059   2060   2072     1  0.0000000  1.2552000  3
   2063   2059   2066   2069     1  180.0000771  2.0083200  2
   2063   2059   2066   2069     1  0.0000000  1.2552000  3
   2063   2075   2081   3900     1  0.0000000  0.6508444  3
   2066   2059   2060   2072     1  180.0000771  2.0083200  2
   2066   2059   2060   2072     1  0.0000000  1.2552000  3
   2066   2059   2063   2075     1  180.0000771  2.0083200  2
   2066   2059   2063   2075     1  0.0000000  1.2552000  3
   2066   2069   2078   2087     1  0.0000000  0.6508444  3
   2072   2084   3913   3907     1  180.0000771  0.4184000  2
   2072   2084   3913   3907     1  0.0000000  1.6024720  3
   2075   2081   3900   3894     1  180.0000771  0.4184000  2
   2075   2081   3900   3894     1  0.0000000  1.6024720  3
   2081   3900   3894   3891     1  180.0000771  0.4184000  2
   2081   3900   3894   3891     1  0.0000000  1.6024720  3
   2084   3913   3907   3904     1  180.0000771  0.4184000  2
   2084   3913   3907   3904     1  0.0000000  1.6024720  3
   2088   2089   2101   2113     1  0.0000000  0.6508444  3
   2088   2092   2104   2110     1  0.0000000  0.6508444  3
   2088   2095   2098   2107     1  0.0000000  0.6508444  3
   2089   2088   2092   2104     1  180.0000771  2.0083200  2
   2089   2088   2092   2104     1  0.0000000  1.2552000  3
   2089   2088   2095   2098     1  180.0000771  2.0083200  2
   2089   2088   2095   2098     1  0.0000000  1.2552000  3
   2089   2101   2113   3939     1  0.0000000  0.6508444  3
   2092   2088   2089   2101     1  180.0000771  2.0083200  2
   2092   2088   2089   2101     1  0.0000000  1.2552000  3
   2092   2088   2095   2098     1  180.0000771  2.0083200  2
   2092   2088   2095   2098     1  0.0000000  1.2552000  3
   2092   2104   2110   3926     1  0.0000000  0.6508444  3
   2095   2088   2089   2101     1  180.0000771  2.0083200  2
   2095   2088   2089   2101     1  0.0000000  1.2552000  3
   2095   2088   2092   2104     1  180.0000771  2.0083200  2
   2095   2088   2092   2104     1  0.0000000  1.2552000  3
   2095   2098   2107   2116     1  0.0000000  0.6508444  3
   2101   2113   3939   3933     1  180.0000771  0.4184000  2
   2101   2113   3939   3933     1  0.0000000  1.6024720  3
   2104   2110   3926   3920     1  180.0000771  0.4184000  2
   2104   2110   3926   3920     1  0.0000000  1.6024720  3
   2110   3926   3920   3917     1  180.0000771  0.4184000  2
   2110   3926   3920   3917     1  0.0000000  1.6024720  3
   2113   3939   3933   3930     1  180.0000771  0.4184000  2
   2113   3939   3933   3930     1  0.0000000  1.6024720  3
   2117   2118   2130   2142     1  0.0000000  0.6508444  3
   2117   2121   2133   2139     1  0.0000000  0.6508444  3
   2117   2124   2127   2136     1  0.0000000  0.6508444  3
   2118   2117   2121   2133     1  180.0000771  2.0083200  2
   2118   2117   2121   2133     1  0.0000000  1.2552000  3
   2118   2117   2124   2127     1  180.0000771  2.0083200  2
   2118   2117   2124   2127     1  0.0000000  1.2552000  3
   2118   2130   2142   3965     1  0.0000000  0.6508444  3
   2121   2117   2118   2130     1  180.0000771  2.0083200  2
   2121   2117   2118   2130     1  0.0000000  1.2552000  3
   2121   2117   2124   2127     1  180.0000771  2.0083200  2
   2121   2117   2124   2127     1  0.0000000  1.2552000  3
   2121   2133   2139   3952     1  0.0000000  0.6508444  3
   2124   2117   2118   2130     1  180.0000771  2.0083200  2
   2124   2117   2118   2130     1  0.0000000  1.2552000  3
   2124   2117   2121   2133     1  180.0000771  2.0083200  2
   2124   2117   2121   2133     1  0.0000000  1.2552000  3
   2124   2127   2136   2145     1  0.0000000  0.6508444  3
   2130   2142   3965   3959     1  180.0000771  0.4184000  2
   2130   2142   3965   3959     1  0.0000000  1.6024720  3
   2133   2139   3952   3946     1  180.0000771  0.4184000  2
   2133   2139   3952   3946     1  0.0000000  1.6024720  3
   2139   3952   3946   3943     1  180.0000771  0.4184000  2
   2139   3952   3946   3943     1  0.0000000  1.6024720  3
   2142   3965   3959   3956     1  180.0000771  0.4184000  2
   2142   3965   3959   3956     1  0.0000000  1.6024720  3
   2146   2147   2159   2171     1  0.0000000  0.6508444  3
   2146   2150   2162   2168     1  0.0000000  0.6508444  3
   2146   2153   2156   2165     1  0.0000000  0.6508444  3
   2147   2146   2150   2162     1  180.0000771  2.0083200  2
   2147   2146   2150   2162     1  0.0000000  1.2552000  3
   2147   2146   2153   2156     1  180.0000771  2.0083200  2
   2147   2146   2153   2156     1  0.0000000  1.2552000  3
   2147   2159   2171   3991     1  0.0000000  0.6508444  3
   2150   2146   2147   2159     1  180.0000771  2.0083200  2
   2150   2146   2147   2159     1  0.0000000  1.2552000  3
   2150   2146   2153   2156     1  180.0000771  2.0083200  2
   2150   2146   2153   2156     1  0.0000000  1.2552000  3
   2150   2162   2168   3978     1  0.0000000  0.6508444  3
   2153   2146   2147   2159     1  180.0000771  2.0083200  2
   2153   2146   2147   2159     1  0.0000000  1.2552000  3
   2153   2146   2150   2162     1  180.0000771  2.0083200  2
   2153   2146   2150   2162     1  0.0000000  1.2552000  3
   2153   2156   2165   2174     1  0.0000000  0.6508444  3
   2159   2171   3991   3985     1  180.0000771  0.4184000  2
   2159   2171   3991   3985     1  0.0000000  1.6024720  3
   2162   2168   3978   3972     1  180.0000771  0.4184000  2
   2162   2168   3978   3972     1  0.0000000  1.6024720  3
   2168   3978   3972   3969     1  180.0000771  0.4184000  2
   2168   3978   3972   3969     1  0.0000000  1.6024720  3
   2171   3991   3985   3982     1  180.0000771  0.4184000  2
   2171   3991   3985   3982     1  0.0000000  1.6024720  3
   2175   2176   2188   2200     1  0.0000000  0.6508444  3
   2175   2179   2191   2197     1  0.0000000  0.6508444  3
   2175   2182   2185   2194     1  0.0000000  0.6508444  3
   2176   2175   2179   2191     1  180.0000771  2.0083200  2
   2176   2175   2179   2191     1  0.0000000  1.2552000  3
   2176   2175   2182   2185     1  180.0000771  2.0083200  2
   2176   2175   2182   2185     1  0.0000000  1.2552000  3
   2176   2188   2200   4017     1  0.0000000  0.6508444  3
   2179   2175   2176   2188     1  180.0000771  2.0083200  2
   2179   2175   2176   2188     1  0.0000000  1.2552000  3
   2179   2175   2182   2185     1  180.0000771  2.0083200  2
   2179   2175   2182   2185     1  0.0000000  1.2552000  3
   2179   2191   2197   4004     1  0.0000000  0.6508444  3
   2182   2175   2176   2188     1  180.0000771  2.0083200  2
   2182   2175   2176   2188     1  0.0000000  1.2552000  3
   2182   2175   2179   2191     1  180.0000771  2.0083200  2
   2182   2175   2179   2191     1  0.0000000  1.2552000  3
   2182   2185   2194   2203     1  0.0000000  0.6508444  3
   2188   2200   4017   4011     1  180.0000771  0.4184000  2
   2188   2200   4017   4011     1  0.0000000  1.6024720  3
   2191   2197   4004   3998     1  180.0000771  0.4184000  2
   2191   2197   4004   3998     1  0.0000000  1.6024720  3
   2197   4004   3998   3995     1  180.0000771  0.4184000  2
   2197   4004   3998   3995     1  0.0000000  1.6024720  3
   2200   4017   4011   4008     1  180.0000771  0.4184000  2
   2200   4017   4011   4008     1  0.0000000  1.6024720  3
   2204   2205   2217   2229     1  0.0000000  0.6508444  3
   2204   2208   2220   2226     1  0.0000000  0.6508444  3
   2204   2211   2214   2223     1  0.0000000  0.6508444  3
   2205   2204   2208   2220     1  180.0000771  2.0083200  2
   2205   2204   2208   2220     1  0.0000000  1.2552000  3
   2205   2204   2211   2214     1  180.0000771  2.0083200  2
   2205   2204   2211   2214     1  0.0000000  1.2552000  3
   2205   2217   2229   4043     1  0.0000000  0.6508444  3
   2208   2204   2205   2217     1  180.0000771  2.0083200  2
   2208   2204   2205   2217     1  0.0000000  1.2552000  3
   2208   2204   2211   2214     1  180.0000771  2.0083200  2
   2208   2204   2211   2214     1  0.0000000  1.2552000  3
   2208   2220   2226   4030     1  0.0000000  0.6508444  3
   2211   2204   2205   2217     1  180.0000771  2.0083200  2
   2211   2204   2205   2217     1  0.0000000  1.2552000  3
   2211   2204   2208   2220     1  180.0000771  2.0083200  2
   2211   2204   2208   2220     1  0.0000000  1.2552000  3
   2211   2214   2223   2232     1  0.0000000  0.6508444  3
   2217   2229   4043   4037     1  180.0000771  0.4184000  2
   2217   2229   4043   4037     1  0.0000000  1.6024720  3
   2220   2226   4030   4024     1  180.0000771  0.4184000  2
   2220   2226   4030   4024     1  0.0000000  1.6024720  3
   2226   4030   4024   4021     1  180.0000771  0.4184000  2
   2226   4030   4024   4021     1  0.0000000  1.6024720  3
   2229   4043   4037   4034     1  180.0000771  0.4184000  2
   2229   4043   4037   4034     1  0.0000000  1.6024720  3
   2233   2234   2246   2258     1  0.0000000  0.6508444  3
   2233   2237   2249   2255     1  0.0000000  0.6508444  3
   2233   2240   2243   2252     1  0.0000000  0.6508444  3
   2234   2233   2237   2249     1  180.0000771  2.0083200  2
   2234   2233   2237   2249     1  0.0000000  1.2552000  3
   2234   2233   2240   2243     1  180.0000771  2.0083200  2
   2234   2233   2240   2243     1  0.0000000  1.2552000  3
   2234   2246   2258   4069     1  0.0000000  0.6508444  3
   2237   2233   2234   2246     1  180.0000771  2.0083200  2
   2237   2233   2234   2246     1  0.0000000  1.2552000  3
   2237   2233   2240   2243     1  180.0000771  2.0083200  2
   2237   2233   2240   2243     1  0.0000000  1.2552000  3
   2237   2249   2255   4056     1  0.0000000  0.6508444  3
   2240   2233   2234   2246     1  180.0000771  2.0083200  2
   2240   2233   2234   2246     1  0.0000000  1.2552000  3
   2240   2233   2237   2249     1  180.0000771  2.0083200  2
   2240   2233   2237   2249     1  0.0000000  1.2552000  3
   2240   2243   2252   2261     1  0.0000000  0.6508444  3
   2246   2258   4069   4063     1  180.0000771  0.4184000  2
   2246   2258   4069   4063     1  0.0000000  1.6024720  3
   2249   2255   4056   4050     1  180.0000771  0.4184000  2
   2249   2255   4056   4050     1  0.0000000  1.6024720  3
   2255   4056   4050   4047     1  180.0000771  0.4184000  2
   2255   4056   4050   4047     1  0.0000000  1.6024720  3
   2258   4069   4063   4060     1  180.0000771  0.4184000  2
   2258   4069   4063   4060     1  0.0000000  1.6024720  3
   2262   2263   2275   2287     1  0.0000000  0.6508444  3
   2262   2266   2278   2284     1  0.0000000  0.6508444  3
   2262   2269   2272   2281     1  0.0000000  0.6508444  3
   2263   2262   2266   2278     1  180.0000771  2.0083200  2
   2263   2262   2266   2278     1  0.0000000  1.2552000  3
   2263   2262   2269   2272     1  180.0000771  2.0083200  2
   2263   2262   2269   2272     1  0.0000000  1.2552000  3
   2263   2275   2287   4095     1  0.0000000  0.6508444  3
   2266   2262   2263   2275     1  180.0000771  2.0083200  2
   2266   2262   2263   2275     1  0.0000000  1.2552000  3
   2266   2262   2269   2272     1  180.0000771  2.0083200  2
   2266   2262   2269   2272     1  0.0000000  1.2552000  3
   2266   2278   2284   4082     1  0.0000000  0.6508444  3
   2269   2262   2263   2275     1  180.0000771  2.0083200  2
   2269   2262   2263   2275     1  0.0000000  1.2552000  3
   2269   2262   2266   2278     1  180.0000771  2.0083200  2
   2269   2262   2266   2278     1  0.0000000  1.2552000  3
   2269   2272   2281   2290     1  0.0000000  0.6508444  3
   2275   2287   4095   4089     1  180.0000771  0.4184000  2
   2275   2287   4095   4089     1  0.0000000  1.6024720  3
   2278   2284   4082   4076     1  180.0000771  0.4184000  2
   2278   2284   4082   4076     1  0.0000000  1.6024720  3
   2284   4082   4076   4073     1  180.0000771  0.4184000  2
   2284   4082   4076   4073     1  0.0000000  1.6024720  3
   2287   4095   4089   4086     1  180.0000771  0.4184000  2
   2287   4095   4089   4086     1  0.0000000  1.6024720  3
   2291   2292   2304   2316     1  0.0000000  0.6508444  3
   2291   2295   2307   2313     1  0.0000000  0.6508444  3
   2291   2298   2301   2310     1  0.0000000  0.6508444  3
   2292   2291   2295   2307     1  180.0000771  2.0083200  2
   2292   2291   2295   2307     1  0.0000000  1.2552000  3
   2292   2291   2298   2301     1  180.0000771  2.0083200  2
   2292   2291   2298   2301     1  0.0000000  1.2552000  3
   2292   2304   2316   4121     1  0.0000000  0.6508444  3
   2295   2291   2292   2304     1  180.0000771  2.0083200  2
   2295   2291   2292   2304     1  0.0000000  1.2552000  3
   2295   2291   2298   2301     1  180.0000771  2.0083200  2
   2295   2291   2298   2301     1  0.0000000  1.2552000  3
   2295   2307   2313   4108     1  0.0000000  0.6508444  3
   2298   2291   2292   2304     1  180.0000771  2.0083200  2
   2298   2291   2292   2304     1  0.0000000  1.2552000  3
   2298   2291   2295   2307     1  180.0000771  2.0083200  2
   2298   2291   2295   2307     1  0.0000000  1.2552000  3
   2298   2301   2310   2319     1  0.0000000  0.6508444  3
   2304   2316   4121   4115     1  180.0000771  0.4184000  2
   2304   2316   4121   4115     1  0.0000000  1.6024720  3
   2307   2313   4108   4102     1  180.0000771  0.4184000  2
   2307   2313   4108   4102     1  0.0000000  1.6024720  3
   2313   4108   4102   4099     1  180.0000771  0.4184000  2
   2313   4108   4102   4099     1  0.0000000  1.6024720  3
   2316   4121   4115   4112     1  180.0000771  0.4184000  2
   2316   4121   4115   4112     1  0.0000000  1.6024720  3
   2320   2321   2333   2345     1  0.0000000  0.6508444  3
   2320   2324   2336   2342     1  0.0000000  0.6508444  3
   2320   2327   2330   2339     1  0.0000000  0.6508444  3
   2321   2320   2324   2336     1  180.0000771  2.0083200  2
   2321   2320   2324   2336     1  0.0000000  1.2552000  3
   2321   2320   2327   2330     1  180.0000771  2.0083200  2
   2321   2320   2327   2330     1  0.0000000  1.2552000  3
   2321   2333   2345   4147     1  0.0000000  0.6508444  3
   2324   2320   2321   2333     1  180.0000771  2.0083200  2
   2324   2320   2321   2333     1  0.0000000  1.2552000  3
   2324   2320   2327   2330     1  180.0000771  2.0083200  2
   2324   2320   2327   2330     1  0.0000000  1.2552000  3
   2324   2336   2342   4134     1  0.0000000  0.6508444  3
   2327   2320   2321   2333     1  180.0000771  2.0083200  2
   2327   2320   2321   2333     1  0.0000000  1.2552000  3
   2327   2320   2324   2336     1  180.0000771  2.0083200  2
   2327   2320   2324   2336     1  0.0000000  1.2552000  3
   2327   2330   2339   2348     1  0.0000000  0.6508444  3
   2333   2345   4147   4141     1  180.0000771  0.4184000  2
   2333   2345   4147   4141     1  0.0000000  1.6024720  3
   2336   2342   4134   4128     1  180.0000771  0.4184000  2
   2336   2342   4134   4128     1  0.0000000  1.6024720  3
   2342   4134   4128   4125     1  180.0000771  0.4184000  2
   2342   4134   4128   4125     1  0.0000000  1.6024720  3
   2345   4147   4141   4138     1  180.0000771  0.4184000  2
   2345   4147   4141   4138     1  0.0000000  1.6024720  3
   2349   2350   2362   2374     1  0.0000000  0.6508444  3
   2349   2353   2365   2371     1  0.0000000  0.6508444  3
   2349   2356   2359   2368     1  0.0000000  0.6508444  3
   2350   2349   2353   2365     1  180.0000771  2.0083200  2
   2350   2349   2353   2365     1  0.0000000  1.2552000  3
   2350   2349   2356   2359     1  180.0000771  2.0083200  2
   2350   2349   2356   2359     1  0.0000000  1.2552000  3
   2350   2362   2374   4173     1  0.0000000  0.6508444  3
   2353   2349   2350   2362     1  180.0000771  2.0083200  2
   2353   2349   2350   2362     1  0.0000000  1.2552000  3
   2353   2349   2356   2359     1  180.0000771  2.0083200  2
   2353   2349   2356   2359     1  0.0000000  1.2552000  3
   2353   2365   2371   4160     1  0.0000000  0.6508444  3
   2356   2349   2350   2362     1  180.0000771  2.0083200  2
   2356   2349   2350   2362     1  0.0000000  1.2552000  3
   2356   2349   2353   2365     1  180.0000771  2.0083200  2
   2356   2349   2353   2365     1  0.0000000  1.2552000  3
   2356   2359   2368   2377     1  0.0000000  0.6508444  3
   2362   2374   4173   4167     1  180.0000771  0.4184000  2
   2362   2374   4173   4167     1  0.0000000  1.6024720  3
   2365   2371   4160   4154     1  180.0000771  0.4184000  2
   2365   2371   4160   4154     1  0.0000000  1.6024720  3
   2371   4160   4154   4151     1  180.0000771  0.4184000  2
   2371   4160   4154   4151     1  0.0000000  1.6024720  3
   2374   4173   4167   4164     1  180.0000771  0.4184000  2
   2374   4173   4167   4164     1  0.0000000  1.6024720  3
   2378   2379   2391   2403     1  0.0000000  0.6508444  3
   2378   2382   2394   2400     1  0.0000000  0.6508444  3
   2378   2385   2388   2397     1  0.0000000  0.6508444  3
   2379   2378   2382   2394     1  180.0000771  2.0083200  2
   2379   2378   2382   2394     1  0.0000000  1.2552000  3
   2379   2378   2385   2388     1  180.0000771  2.0083200  2
   2379   2378   2385   2388     1  0.0000000  1.2552000  3
   2379   2391   2403   4199     1  0.0000000  0.6508444  3
   2382   2378   2379   2391     1  180.0000771  2.0083200  2
   2382   2378   2379   2391     1  0.0000000  1.2552000  3
   2382   2378   2385   2388     1  180.0000771  2.0083200  2
   2382   2378   2385   2388     1  0.0000000  1.2552000  3
   2382   2394   2400   4186     1  0.0000000  0.6508444  3
   2385   2378   2379   2391     1  180.0000771  2.0083200  2
   2385   2378   2379   2391     1  0.0000000  1.2552000  3
   2385   2378   2382   2394     1  180.0000771  2.0083200  2
   2385   2378   2382   2394     1  0.0000000  1.2552000  3
   2385   2388   2397   2406     1  0.0000000  0.6508444  3
   2391   2403   4199   4193     1  180.0000771  0.4184000  2
   2391   2403   4199   4193     1  0.0000000  1.6024720  3
   2394   2400   4186   4180     1  180.0000771  0.4184000  2
   2394   2400   4186   4180     1  0.0000000  1.6024720  3
   2400   4186   4180   4177     1  180.0000771  0.4184000  2
   2400   4186   4180   4177     1  0.0000000  1.6024720  3
   2403   4199   4193   4190     1  180.0000771  0.4184000  2
   2403   4199   4193   4190     1  0.0000000  1.6024720  3
   2407   2408   2420   2432     1  0.0000000  0.6508444  3
   2407   2411   2423   2429     1  0.0000000  0.6508444  3
   2407   2414   2417   2426     1  0.0000000  0.6508444  3
   2408   2407   2411   2423     1  180.0000771  2.0083200  2
   2408   2407   2411   2423     1  0.0000000  1.2552000  3
   2408   2407   2414   2417     1  180.0000771  2.0083200  2
   2408   2407   2414   2417     1  0.0000000  1.2552000  3
   2408   2420   2432   4225     1  0.0000000  0.6508444  3
   2411   2407   2408   2420     1  180.0000771  2.0083200  2
   2411   2407   2408   2420     1  0.0000000  1.2552000  3
   2411   2407   2414   2417     1  180.0000771  2.0083200  2
   2411   2407   2414   2417     1  0.0000000  1.2552000  3
   2411   2423   2429   4212     1  0.0000000  0.6508444  3
   2414   2407   2408   2420     1  180.0000771  2.0083200  2
   2414   2407   2408   2420     1  0.0000000  1.2552000  3
   2414   2407   2411   2423     1  180.0000771  2.0083200  2
   2414   2407   2411   2423     1  0.0000000  1.2552000  3
   2414   2417   2426   2435     1  0.0000000  0.6508444  3
   2420   2432   4225   4219     1  180.0000771  0.4184000  2
   2420   2432   4225   4219     1  0.0000000  1.6024720  3
   2423   2429   4212   4206     1  180.0000771  0.4184000  2
   2423   2429   4212   4206     1  0.0000000  1.6024720  3
   2429   4212   4206   4203     1  180.0000771  0.4184000  2
   2429   4212   4206   4203     1  0.0000000  1.6024720  3
   2432   4225   4219   4216     1  180.0000771  0.4184000  2
   2432   4225   4219   4216     1  0.0000000  1.6024720  3
   2436   2437   2449   2461     1  0.0000000  0.6508444  3
   2436   2440   2452   2458     1  0.0000000  0.6508444  3
   2436   2443   2446   2455     1  0.0000000  0.6508444  3
   2437   2436   2440   2452     1  180.0000771  2.0083200  2
   2437   2436   2440   2452     1  0.0000000  1.2552000  3
   2437   2436   2443   2446     1  180.0000771  2.0083200  2
   2437   2436   2443   2446     1  0.0000000  1.2552000  3
   2437   2449   2461   4251     1  0.0000000  0.6508444  3
   2440   2436   2437   2449     1  180.0000771  2.0083200  2
   2440   2436   2437   2449     1  0.0000000  1.2552000  3
   2440   2436   2443   2446     1  180.0000771  2.0083200  2
   2440   2436   2443   2446     1  0.0000000  1.2552000  3
   2440   2452   2458   4238     1  0.0000000  0.6508444  3
   2443   2436   2437   2449     1  180.0000771  2.0083200  2
   2443   2436   2437   2449     1  0.0000000  1.2552000  3
   2443   2436   2440   2452     1  180.0000771  2.0083200  2
   2443   2436   2440   2452     1  0.0000000  1.2552000  3
   2443   2446   2455   2464     1  0.0000000  0.6508444  3
   2449   2461   4251   4245     1  180.0000771  0.4184000  2
   2449   2461   4251   4245     1  0.0000000  1.6024720  3
   2452   2458   4238   4232     1  180.0000771  0.4184000  2
   2452   2458   4238   4232     1  0.0000000  1.6024720  3
   2458   4238   4232   4229     1  180.0000771  0.4184000  2
   2458   4238   4232   4229     1  0.0000000  1.6024720  3
   2461   4251   4245   4242     1  180.0000771  0.4184000  2
   2461   4251   4245   4242     1  0.0000000  1.6024720  3
   2465   2466   2478   2490     1  0.0000000  0.6508444  3
   2465   2469   2481   2487     1  0.0000000  0.6508444  3
   2465   2472   2475   2484     1  0.0000000  0.6508444  3
   2466   2465   2469   2481     1  180.0000771  2.0083200  2
   2466   2465   2469   2481     1  0.0000000  1.2552000  3
   2466   2465   2472   2475     1  180.0000771  2.0083200  2
   2466   2465   2472   2475     1  0.0000000  1.2552000  3
   2466   2478   2490   4277     1  0.0000000  0.6508444  3
   2469   2465   2466   2478     1  180.0000771  2.0083200  2
   2469   2465   2466   2478     1  0.0000000  1.2552000  3
   2469   2465   2472   2475     1  180.0000771  2.0083200  2
   2469   2465   2472   2475     1  0.0000000  1.2552000  3
   2469   2481   2487   4264     1  0.0000000  0.6508444  3
   2472   2465   2466   2478     1  180.0000771  2.0083200  2
   2472   2465   2466   2478     1  0.0000000  1.2552000  3
   2472   2465   2469   2481     1  180.0000771  2.0083200  2
   2472   2465   2469   2481     1  0.0000000  1.2552000  3
   2472   2475   2484   2493     1  0.0000000  0.6508444  3
   2478   2490   4277   4271     1  180.0000771  0.4184000  2
   2478   2490   4277   4271     1  0.0000000  1.6024720  3
   2481   2487   4264   4258     1  180.0000771  0.4184000  2
   2481   2487   4264   4258     1  0.0000000  1.6024720  3
   2487   4264   4258   4255     1  180.0000771  0.4184000  2
   2487   4264   4258   4255     1  0.0000000  1.6024720  3
   2490   4277   4271   4268     1  180.0000771  0.4184000  2
   2490   4277   4271   4268     1  0.0000000  1.6024720  3
   2494   2495   2507   2519     1  0.0000000  0.6508444  3
   2494   2498   2510   2516     1  0.0000000  0.6508444  3
   2494   2501   2504   2513     1  0.0000000  0.6508444  3
   2495   2494   2498   2510     1  180.0000771  2.0083200  2
   2495   2494   2498   2510     1  0.0000000  1.2552000  3
   2495   2494   2501   2504     1  180.0000771  2.0083200  2
   2495   2494   2501   2504     1  0.0000000  1.2552000  3
   2495   2507   2519   4303     1  0.0000000  0.6508444  3
   2498   2494   2495   2507     1  180.0000771  2.0083200  2
   2498   2494   2495   2507     1  0.0000000  1.2552000  3
   2498   2494   2501   2504     1  180.0000771  2.0083200  2
   2498   2494   2501   2504     1  0.0000000  1.2552000  3
   2498   2510   2516   4290     1  0.0000000  0.6508444  3
   2501   2494   2495   2507     1  180.0000771  2.0083200  2
   2501   2494   2495   2507     1  0.0000000  1.2552000  3
   2501   2494   2498   2510     1  180.0000771  2.0083200  2
   2501   2494   2498   2510     1  0.0000000  1.2552000  3
   2501   2504   2513   2522     1  0.0000000  0.6508444  3
   2507   2519   4303   4297     1  180.0000771  0.4184000  2
   2507   2519   4303   4297     1  0.0000000  1.6024720  3
   2510   2516   4290   4284     1  180.0000771  0.4184000  2
   2510   2516   4290   4284     1  0.0000000  1.6024720  3
   2516   4290   4284   4281     1  180.0000771  0.4184000  2
   2516   4290   4284   4281     1  0.0000000  1.6024720  3
   2519   4303   4297   4294     1  180.0000771  0.4184000  2
   2519   4303   4297   4294     1  0.0000000  1.6024720  3
   2523   2524   2536   2548     1  0.0000000  0.6508444  3
   2523   2527   2539   2545     1  0.0000000  0.6508444  3
   2523   2530   2533   2542     1  0.0000000  0.6508444  3
   2524   2523   2527   2539     1  180.0000771  2.0083200  2
   2524   2523   2527   2539     1  0.0000000  1.2552000  3
   2524   2523   2530   2533     1  180.0000771  2.0083200  2
   2524   2523   2530   2533     1  0.0000000  1.2552000  3
   2524   2536   2548   4329     1  0.0000000  0.6508444  3
   2527   2523   2524   2536     1  180.0000771  2.0083200  2
   2527   2523   2524   2536     1  0.0000000  1.2552000  3
   2527   2523   2530   2533     1  180.0000771  2.0083200  2
   2527   2523   2530   2533     1  0.0000000  1.2552000  3
   2527   2539   2545   4316     1  0.0000000  0.6508444  3
   2530   2523   2524   2536     1  180.0000771  2.0083200  2
   2530   2523   2524   2536     1  0.0000000  1.2552000  3
   2530   2523   2527   2539     1  180.0000771  2.0083200  2
   2530   2523   2527   2539     1  0.0000000  1.2552000  3
   2530   2533   2542   2551     1  0.0000000  0.6508444  3
   2536   2548   4329   4323     1  180.0000771  0.4184000  2
   2536   2548   4329   4323     1  0.0000000  1.6024720  3
   2539   2545   4316   4310     1  180.0000771  0.4184000  2
   2539   2545   4316   4310     1  0.0000000  1.6024720  3
   2545   4316   4310   4307     1  180.0000771  0.4184000  2
   2545   4316   4310   4307     1  0.0000000  1.6024720  3
   2548   4329   4323   4320     1  180.0000771  0.4184000  2
   2548   4329   4323   4320     1  0.0000000  1.6024720  3
   2552   2553   2565   2577     1  0.0000000  0.6508444  3
   2552   2556   2568   2574     1  0.0000000  0.6508444  3
   2552   2559   2562   2571     1  0.0000000  0.6508444  3
   2553   2552   2556   2568     1  180.0000771  2.0083200  2
   2553   2552   2556   2568     1  0.0000000  1.2552000  3
   2553   2552   2559   2562     1  180.0000771  2.0083200  2
   2553   2552   2559   2562     1  0.0000000  1.2552000  3
   2553   2565   2577   4355     1  0.0000000  0.6508444  3
   2556   2552   2553   2565     1  180.0000771  2.0083200  2
   2556   2552   2553   2565     1  0.0000000  1.2552000  3
   2556   2552   2559   2562     1  180.0000771  2.0083200  2
   2556   2552   2559   2562     1  0.0000000  1.2552000  3
   2556   2568   2574   4342     1  0.0000000  0.6508444  3
   2559   2552   2553   2565     1  180.0000771  2.0083200  2
   2559   2552   2553   2565     1  0.0000000  1.2552000  3
   2559   2552   2556   2568     1  180.0000771  2.0083200  2
   2559   2552   2556   2568     1  0.0000000  1.2552000  3
   2559   2562   2571   2580     1  0.0000000  0.6508444  3
   2565   2577   4355   4349     1  180.0000771  0.4184000  2
   2565   2577   4355   4349     1  0.0000000  1.6024720  3
   2568   2574   4342   4336     1  180.0000771  0.4184000  2
   2568   2574   4342   4336     1  0.0000000  1.6024720  3
   2574   4342   4336   4333     1  180.0000771  0.4184000  2
   2574   4342   4336   4333     1  0.0000000  1.6024720  3
   2577   4355   4349   4346     1  180.0000771  0.4184000  2
   2577   4355   4349   4346     1  0.0000000  1.6024720  3
   2581   2582   2594   2606     1  0.0000000  0.6508444  3
   2581   2585   2597   2603     1  0.0000000  0.6508444  3
   2581   2588   2591   2600     1  0.0000000  0.6508444  3
   2582   2581   2585   2597     1  180.0000771  2.0083200  2
   2582   2581   2585   2597     1  0.0000000  1.2552000  3
   2582   2581   2588   2591     1  180.0000771  2.0083200  2
   2582   2581   2588   2591     1  0.0000000  1.2552000  3
   2582   2594   2606   4381     1  0.0000000  0.6508444  3
   2585   2581   2582   2594     1  180.0000771  2.0083200  2
   2585   2581   2582   2594     1  0.0000000  1.2552000  3
   2585   2581   2588   2591     1  180.0000771  2.0083200  2
   2585   2581   2588   2591     1  0.0000000  1.2552000  3
   2585   2597   2603   4368     1  0.0000000  0.6508444  3
   2588   2581   2582   2594     1  180.0000771  2.0083200  2
   2588   2581   2582   2594     1  0.0000000  1.2552000  3
   2588   2581   2585   2597     1  180.0000771  2.0083200  2
   2588   2581   2585   2597     1  0.0000000  1.2552000  3
   2588   2591   2600   2609     1  0.0000000  0.6508444  3
   2594   2606   4381   4375     1  180.0000771  0.4184000  2
   2594   2606   4381   4375     1  0.0000000  1.6024720  3
   2597   2603   4368   4362     1  180.0000771  0.4184000  2
   2597   2603   4368   4362     1  0.0000000  1.6024720  3
   2603   4368   4362   4359     1  180.0000771  0.4184000  2
   2603   4368   4362   4359     1  0.0000000  1.6024720  3
   2606   4381   4375   4372     1  180.0000771  0.4184000  2
   2606   4381   4375   4372     1  0.0000000  1.6024720  3
   2610   2611   2623   2635     1  0.0000000  0.6508444  3
   2610   2614   2626   2632     1  0.0000000  0.6508444  3
   2610   2617   2620   2629     1  0.0000000  0.6508444  3
   2611   2610   2614   2626     1  180.0000771  2.0083200  2
   2611   2610   2614   2626     1  0.0000000  1.2552000  3
   2611   2610   2617   2620     1  180.0000771  2.0083200  2
   2611   2610   2617   2620     1  0.0000000  1.2552000  3
   2611   2623   2635   4407     1  0.0000000  0.6508444  3
   2614   2610   2611   2623     1  180.0000771  2.0083200  2
   2614   2610   2611   2623     1  0.0000000  1.2552000  3
   2614   2610   2617   2620     1  180.0000771  2.0083200  2
   2614   2610   2617   2620     1  0.0000000  1.2552000  3
   2614   2626   2632   4394     1  0.0000000  0.6508444  3
   2617   2610   2611   2623     1  180.0000771  2.0083200  2
   2617   2610   2611   2623     1  0.0000000  1.2552000  3
   2617   2610   2614   2626     1  180.0000771  2.0083200  2
   2617   2610   2614   2626     1  0.0000000  1.2552000  3
   2617   2620   2629   2638     1  0.0000000  0.6508444  3
   2623   2635   4407   4401     1  180.0000771  0.4184000  2
   2623   2635   4407   4401     1  0.0000000  1.6024720  3
   2626   2632   4394   4388     1  180.0000771  0.4184000  2
   2626   2632   4394   4388     1  0.0000000  1.6024720  3
   2632   4394   4388   4385     1  180.0000771  0.4184000  2
   2632   4394   4388   4385     1  0.0000000  1.6024720  3
   2635   4407   4401   4398     1  180.0000771  0.4184000  2
   2635   4407   4401   4398     1  0.0000000  1.6024720  3
   2639   2640   2652   2664     1  0.0000000  0.6508444  3
   2639   2643   2655   2661     1  0.0000000  0.6508444  3
   2639   2646   2649   2658     1  0.0000000  0.6508444  3
   2640   2639   2643   2655     1  180.0000771  2.0083200  2
   2640   2639   2643   2655     1  0.0000000  1.2552000  3
   2640   2639   2646   2649     1  180.0000771  2.0083200  2
   2640   2639   2646   2649     1  0.0000000  1.2552000  3
   2640   2652   2664   4433     1  0.0000000  0.6508444  3
   2643   2639   2640   2652     1  180.0000771  2.0083200  2
   2643   2639   2640   2652     1  0.0000000  1.2552000  3
   2643   2639   2646   2649     1  180.0000771  2.0083200  2
   2643   2639   2646   2649     1  0.0000000  1.2552000  3
   2643   2655   2661   4420     1  0.0000000  0.6508444  3
   2646   2639   2640   2652     1  180.0000771  2.0083200  2
   2646   2639   2640   2652     1  0.0000000  1.2552000  3
   2646   2639   2643   2655     1  180.0000771  2.0083200  2
   2646   2639   2643   2655     1  0.0000000  1.2552000  3
   2646   2649   2658   2667     1  0.0000000  0.6508444  3
   2652   2664   4433   4427     1  180.0000771  0.4184000  2
   2652   2664   4433   4427     1  0.0000000  1.6024720  3
   2655   2661   4420   4414     1  180.0000771  0.4184000  2
   2655   2661   4420   4414     1  0.0000000  1.6024720  3
   2661   4420   4414   4411     1  180.0000771  0.4184000  2
   2661   4420   4414   4411     1  0.0000000  1.6024720  3
   2664   4433   4427   4424     1  180.0000771  0.4184000  2
   2664   4433   4427   4424     1  0.0000000  1.6024720  3
   2668   2669   2681   2693     1  0.0000000  0.6508444  3
   2668   2672   2684   2690     1  0.0000000  0.6508444  3
   2668   2675   2678   2687     1  0.0000000  0.6508444  3
   2669   2668   2672   2684     1  180.0000771  2.0083200  2
   2669   2668   2672   2684     1  0.0000000  1.2552000  3
   2669   2668   2675   2678     1  180.0000771  2.0083200  2
   2669   2668   2675   2678     1  0.0000000  1.2552000  3
   2669   2681   2693   4459     1  0.0000000  0.6508444  3
   2672   2668   2669   2681     1  180.0000771  2.0083200  2
   2672   2668   2669   2681     1  0.0000000  1.2552000  3
   2672   2668   2675   2678     1  180.0000771  2.0083200  2
   2672   2668   2675   2678     1  0.0000000  1.2552000  3
   2672   2684   2690   4446     1  0.0000000  0.6508444  3
   2675   2668   2669   2681     1  180.0000771  2.0083200  2
   2675   2668   2669   2681     1  0.0000000  1.2552000  3
   2675   2668   2672   2684     1  180.0000771  2.0083200  2
   2675   2668   2672   2684     1  0.0000000  1.2552000  3
   2675   2678   2687   2696     1  0.0000000  0.6508444  3
   2681   2693   4459   4453     1  180.0000771  0.4184000  2
   2681   2693   4459   4453     1  0.0000000  1.6024720  3
   2684   2690   4446   4440     1  180.0000771  0.4184000  2
   2684   2690   4446   4440     1  0.0000000  1.6024720  3
   2690   4446   4440   4437     1  180.0000771  0.4184000  2
   2690   4446   4440   4437     1  0.0000000  1.6024720  3
   2693   4459   4453   4450     1  180.0000771  0.4184000  2
   2693   4459   4453   4450     1  0.0000000  1.6024720  3
   2697   2698   2710   2722     1  0.0000000  0.6508444  3
   2697   2701   2713   2719     1  0.0000000  0.6508444  3
   2697   2704   2707   2716     1  0.0000000  0.6508444  3
   2698   2697   2701   2713     1  180.0000771  2.0083200  2
   2698   2697   2701   2713     1  0.0000000  1.2552000  3
   2698   2697   2704   2707     1  180.0000771  2.0083200  2
   2698   2697   2704   2707     1  0.0000000  1.2552000  3
   2698   2710   2722   4485     1  0.0000000  0.6508444  3
   2701   2697   2698   2710     1  180.0000771  2.0083200  2
   2701   2697   2698   2710     1  0.0000000  1.2552000  3
   2701   2697   2704   2707     1  180.0000771  2.0083200  2
   2701   2697   2704   2707     1  0.0000000  1.2552000  3
   2701   2713   2719   4472     1  0.0000000  0.6508444  3
   2704   2697   2698   2710     1  180.0000771  2.0083200  2
   2704   2697   2698   2710     1  0.0000000  1.2552000  3
   2704   2697   2701   2713     1  180.0000771  2.0083200  2
   2704   2697   2701   2713     1  0.0000000  1.2552000  3
   2704   2707   2716   2725     1  0.0000000  0.6508444  3
   2710   2722   4485   4479     1  180.0000771  0.4184000  2
   2710   2722   4485   4479     1  0.0000000  1.6024720  3
   2713   2719   4472   4466     1  180.0000771  0.4184000  2
   2713   2719   4472   4466     1  0.0000000  1.6024720  3
   2719   4472   4466   4463     1  180.0000771  0.4184000  2
   2719   4472   4466   4463     1  0.0000000  1.6024720  3
   2722   4485   4479   4476     1  180.0000771  0.4184000  2
   2722   4485   4479   4476     1  0.0000000  1.6024720  3
   2726   2727   2739   2751     1  0.0000000  0.6508444  3
   2726   2730   2742   2748     1  0.0000000  0.6508444  3
   2726   2733   2736   2745     1  0.0000000  0.6508444  3
   2727   2726   2730   2742     1  180.0000771  2.0083200  2
   2727   2726   2730   2742     1  0.0000000  1.2552000  3
   2727   2726   2733   2736     1  180.0000771  2.0083200  2
   2727   2726   2733   2736     1  0.0000000  1.2552000  3
   2727   2739   2751   4511     1  0.0000000  0.6508444  3
   2730   2726   2727   2739     1  180.0000771  2.0083200  2
   2730   2726   2727   2739     1  0.0000000  1.2552000  3
   2730   2726   2733   2736     1  180.0000771  2.0083200  2
   2730   2726   2733   2736     1  0.0000000  1.2552000  3
   2730   2742   2748   4498     1  0.0000000  0.6508444  3
   2733   2726   2727   2739     1  180.0000771  2.0083200  2
   2733   2726   2727   2739     1  0.0000000  1.2552000  3
   2733   2726   2730   2742     1  180.0000771  2.0083200  2
   2733   2726   2730   2742     1  0.0000000  1.2552000  3
   2733   2736   2745   2754     1  0.0000000  0.6508444  3
   2739   2751   4511   4505     1  180.0000771  0.4184000  2
   2739   2751   4511   4505     1  0.0000000  1.6024720  3
   2742   2748   4498   4492     1  180.0000771  0.4184000  2
   2742   2748   4498   4492     1  0.0000000  1.6024720  3
   2748   4498   4492   4489     1  180.0000771  0.4184000  2
   2748   4498   4492   4489     1  0.0000000  1.6024720  3
   2751   4511   4505   4502     1  180.0000771  0.4184000  2
   2751   4511   4505   4502     1  0.0000000  1.6024720  3
   2755   2756   2768   2780     1  0.0000000  0.6508444  3
   2755   2759   2771   2777     1  0.0000000  0.6508444  3
   2755   2762   2765   2774     1  0.0000000  0.6508444  3
   2756   2755   2759   2771     1  180.0000771  2.0083200  2
   2756   2755   2759   2771     1  0.0000000  1.2552000  3
   2756   2755   2762   2765     1  180.0000771  2.0083200  2
   2756   2755   2762   2765     1  0.0000000  1.2552000  3
   2756   2768   2780   4537     1  0.0000000  0.6508444  3
   2759   2755   2756   2768     1  180.0000771  2.0083200  2
   2759   2755   2756   2768     1  0.0000000  1.2552000  3
   2759   2755   2762   2765     1  180.0000771  2.0083200  2
   2759   2755   2762   2765     1  0.0000000  1.2552000  3
   2759   2771   2777   4524     1  0.0000000  0.6508444  3
   2762   2755   2756   2768     1  180.0000771  2.0083200  2
   2762   2755   2756   2768     1  0.0000000  1.2552000  3
   2762   2755   2759   2771     1  180.0000771  2.0083200  2
   2762   2755   2759   2771     1  0.0000000  1.2552000  3
   2762   2765   2774   2783     1  0.0000000  0.6508444  3
   2768   2780   4537   4531     1  180.0000771  0.4184000  2
   2768   2780   4537   4531     1  0.0000000  1.6024720  3
   2771   2777   4524   4518     1  180.0000771  0.4184000  2
   2771   2777   4524   4518     1  0.0000000  1.6024720  3
   2777   4524   4518   4515     1  180.0000771  0.4184000  2
   2777   4524   4518   4515     1  0.0000000  1.6024720  3
   2780   4537   4531   4528     1  180.0000771  0.4184000  2
   2780   4537   4531   4528     1  0.0000000  1.6024720  3
   2784   2785   2797   2809     1  0.0000000  0.6508444  3
   2784   2788   2800   2806     1  0.0000000  0.6508444  3
   2784   2791   2794   2803     1  0.0000000  0.6508444  3
   2785   2784   2788   2800     1  180.0000771  2.0083200  2
   2785   2784   2788   2800     1  0.0000000  1.2552000  3
   2785   2784   2791   2794     1  180.0000771  2.0083200  2
   2785   2784   2791   2794     1  0.0000000  1.2552000  3
   2785   2797   2809   4563     1  0.0000000  0.6508444  3
   2788   2784   2785   2797     1  180.0000771  2.0083200  2
   2788   2784   2785   2797     1  0.0000000  1.2552000  3
   2788   2784   2791   2794     1  180.0000771  2.0083200  2
   2788   2784   2791   2794     1  0.0000000  1.2552000  3
   2788   2800   2806   4550     1  0.0000000  0.6508444  3
   2791   2784   2785   2797     1  180.0000771  2.0083200  2
   2791   2784   2785   2797     1  0.0000000  1.2552000  3
   2791   2784   2788   2800     1  180.0000771  2.0083200  2
   2791   2784   2788   2800     1  0.0000000  1.2552000  3
   2791   2794   2803   2812     1  0.0000000  0.6508444  3
   2797   2809   4563   4557     1  180.0000771  0.4184000  2
   2797   2809   4563   4557     1  0.0000000  1.6024720  3
   2800   2806   4550   4544     1  180.0000771  0.4184000  2
   2800   2806   4550   4544     1  0.0000000  1.6024720  3
   2806   4550   4544   4541     1  180.0000771  0.4184000  2
   2806   4550   4544   4541     1  0.0000000  1.6024720  3
   2809   4563   4557   4554     1  180.0000771  0.4184000  2
   2809   4563   4557   4554     1  0.0000000  1.6024720  3
   2813   2814   2826   2838     1  0.0000000  0.6508444  3
   2813   2817   2829   2835     1  0.0000000  0.6508444  3
   2813   2820   2823   2832     1  0.0000000  0.6508444  3
   2814   2813   2817   2829     1  180.0000771  2.0083200  2
   2814   2813   2817   2829     1  0.0000000  1.2552000  3
   2814   2813   2820   2823     1  180.0000771  2.0083200  2
   2814   2813   2820   2823     1  0.0000000  1.2552000  3
   2814   2826   2838   4589     1  0.0000000  0.6508444  3
   2817   2813   2814   2826     1  180.0000771  2.0083200  2
   2817   2813   2814   2826     1  0.0000000  1.2552000  3
   2817   2813   2820   2823     1  180.0000771  2.0083200  2
   2817   2813   2820   2823     1  0.0000000  1.2552000  3
   2817   2829   2835   4576     1  0.0000000  0.6508444  3
   2820   2813   2814   2826     1  180.0000771  2.0083200  2
   2820   2813   2814   2826     1  0.0000000  1.2552000  3
   2820   2813   2817   2829     1  180.0000771  2.0083200  2
   2820   2813   2817   2829     1  0.0000000  1.2552000  3
   2820   2823   2832   2841     1  0.0000000  0.6508444  3
   2826   2838   4589   4583     1  180.0000771  0.4184000  2
   2826   2838   4589   4583     1  0.0000000  1.6024720  3
   2829   2835   4576   4570     1  180.0000771  0.4184000  2
   2829   2835   4576   4570     1  0.0000000  1.6024720  3
   2835   4576   4570   4567     1  180.0000771  0.4184000  2
   2835   4576   4570   4567     1  0.0000000  1.6024720  3
   2838   4589   4583   4580     1  180.0000771  0.4184000  2
   2838   4589   4583   4580     1  0.0000000  1.6024720  3
   2842   2843   2855   2867     1  0.0000000  0.6508444  3
   2842   2846   2858   2864     1  0.0000000  0.6508444  3
   2842   2849   2852   2861     1  0.0000000  0.6508444  3
   2843   2842   2846   2858     1  180.0000771  2.0083200  2
   2843   2842   2846   2858     1  0.0000000  1.2552000  3
   2843   2842   2849   2852     1  180.0000771  2.0083200  2
   2843   2842   2849   2852     1  0.0000000  1.2552000  3
   2843   2855   2867   4615     1  0.0000000  0.6508444  3
   2846   2842   2843   2855     1  180.0000771  2.0083200  2
   2846   2842   2843   2855     1  0.0000000  1.2552000  3
   2846   2842   2849   2852     1  180.0000771  2.0083200  2
   2846   2842   2849   2852     1  0.0000000  1.2552000  3
   2846   2858   2864   4602     1  0.0000000  0.6508444  3
   2849   2842   2843   2855     1  180.0000771  2.0083200  2
   2849   2842   2843   2855     1  0.0000000  1.2552000  3
   2849   2842   2846   2858     1  180.0000771  2.0083200  2
   2849   2842   2846   2858     1  0.0000000  1.2552000  3
   2849   2852   2861   2870     1  0.0000000  0.6508444  3
   2855   2867   4615   4609     1  180.0000771  0.4184000  2
   2855   2867   4615   4609     1  0.0000000  1.6024720  3
   2858   2864   4602   4596     1  180.0000771  0.4184000  2
   2858   2864   4602   4596     1  0.0000000  1.6024720  3
   2864   4602   4596   4593     1  180.0000771  0.4184000  2
   2864   4602   4596   4593     1  0.0000000  1.6024720  3
   2867   4615   4609   4606     1  180.0000771  0.4184000  2
   2867   4615   4609   4606     1  0.0000000  1.6024720  3
   2871   2872   2884   2896     1  0.0000000  0.6508444  3
   2871   2875   2887   2893     1  0.0000000  0.6508444  3
   2871   2878   2881   2890     1  0.0000000  0.6508444  3
   2872   2871   2875   2887     1  180.0000771  2.0083200  2
   2872   2871   2875   2887     1  0.0000000  1.2552000  3
   2872   2871   2878   2881     1  180.0000771  2.0083200  2
   2872   2871   2878   2881     1  0.0000000  1.2552000  3
   2872   2884   2896   4641     1  0.0000000  0.6508444  3
   2875   2871   2872   2884     1  180.0000771  2.0083200  2
   2875   2871   2872   2884     1  0.0000000  1.2552000  3
   2875   2871   2878   2881     1  180.0000771  2.0083200  2
   2875   2871   2878   2881     1  0.0000000  1.2552000  3
   2875   2887   2893   4628     1  0.0000000  0.6508444  3
   2878   2871   2872   2884     1  180.0000771  2.0083200  2
   2878   2871   2872   2884     1  0.0000000  1.2552000  3
   2878   2871   2875   2887     1  180.0000771  2.0083200  2
   2878   2871   2875   2887     1  0.0000000  1.2552000  3
   2878   2881   2890   2899     1  0.0000000  0.6508444  3
   2884   2896   4641   4635     1  180.0000771  0.4184000  2
   2884   2896   4641   4635     1  0.0000000  1.6024720  3
   2887   2893   4628   4622     1  180.0000771  0.4184000  2
   2887   2893   4628   4622     1  0.0000000  1.6024720  3
   2893   4628   4622   4619     1  180.0000771  0.4184000  2
   2893   4628   4622   4619     1  0.0000000  1.6024720  3
   2896   4641   4635   4632     1  180.0000771  0.4184000  2
   2896   4641   4635   4632     1  0.0000000  1.6024720  3
   2900   2901   2913   2925     1  0.0000000  0.6508444  3
   2900   2904   2916   2922     1  0.0000000  0.6508444  3
   2900   2907   2910   2919     1  0.0000000  0.6508444  3
   2901   2900   2904   2916     1  180.0000771  2.0083200  2
   2901   2900   2904   2916     1  0.0000000  1.2552000  3
   2901   2900   2907   2910     1  180.0000771  2.0083200  2
   2901   2900   2907   2910     1  0.0000000  1.2552000  3
   2901   2913   2925   4667     1  0.0000000  0.6508444  3
   2904   2900   2901   2913     1  180.0000771  2.0083200  2
   2904   2900   2901   2913     1  0.0000000  1.2552000  3
   2904   2900   2907   2910     1  180.0000771  2.0083200  2
   2904   2900   2907   2910     1  0.0000000  1.2552000  3
   2904   2916   2922   4654     1  0.0000000  0.6508444  3
   2907   2900   2901   2913     1  180.0000771  2.0083200  2
   2907   2900   2901   2913     1  0.0000000  1.2552000  3
   2907   2900   2904   2916     1  180.0000771  2.0083200  2
   2907   2900   2904   2916     1  0.0000000  1.2552000  3
   2907   2910   2919   2928     1  0.0000000  0.6508444  3
   2913   2925   4667   4661     1  180.0000771  0.4184000  2
   2913   2925   4667   4661     1  0.0000000  1.6024720  3
   2916   2922   4654   4648     1  180.0000771  0.4184000  2
   2916   2922   4654   4648     1  0.0000000  1.6024720  3
   2922   4654   4648   4645     1  180.0000771  0.4184000  2
   2922   4654   4648   4645     1  0.0000000  1.6024720  3
   2925   4667   4661   4658     1  180.0000771  0.4184000  2
   2925   4667   4661   4658     1  0.0000000  1.6024720  3
   2929   2930   2942   2954     1  0.0000000  0.6508444  3
   2929   2933   2945   2951     1  0.0000000  0.6508444  3
   2929   2936   2939   2948     1  0.0000000  0.6508444  3
   2930   2929   2933   2945     1  180.0000771  2.0083200  2
   2930   2929   2933   2945     1  0.0000000  1.2552000  3
   2930   2929   2936   2939     1  180.0000771  2.0083200  2
   2930   2929   2936   2939     1  0.0000000  1.2552000  3
   2930   2942   2954   4693     1  0.0000000  0.6508444  3
   2933   2929   2930   2942     1  180.0000771  2.0083200  2
   2933   2929   2930   2942     1  0.0000000  1.2552000  3
   2933   2929   2936   2939     1  180.0000771  2.0083200  2
   2933   2929   2936   2939     1  0.0000000  1.2552000  3
   2933   2945   2951   4680     1  0.0000000  0.6508444  3
   2936   2929   2930   2942     1  180.0000771  2.0083200  2
   2936   2929   2930   2942     1  0.0000000  1.2552000  3
   2936   2929   2933   2945     1  180.0000771  2.0083200  2
   2936   2929   2933   2945     1  0.0000000  1.2552000  3
   2936   2939   2948   2957     1  0.0000000  0.6508444  3
   2942   2954   4693   4687     1  180.0000771  0.4184000  2
   2942   2954   4693   4687     1  0.0000000  1.6024720  3
   2945   2951   4680   4674     1  180.0000771  0.4184000  2
   2945   2951   4680   4674     1  0.0000000  1.6024720  3
   2951   4680   4674   4671     1  180.0000771  0.4184000  2
   2951   4680   4674   4671     1  0.0000000  1.6024720  3
   2954   4693   4687   4684     1  180.0000771  0.4184000  2
   2954   4693   4687   4684     1  0.0000000  1.6024720  3
   2958   2959   2971   2983     1  0.0000000  0.6508444  3
   2958   2962   2974   2980     1  0.0000000  0.6508444  3
   2958   2965   2968   2977     1  0.0000000  0.6508444  3
   2959   2958   2962   2974     1  180.0000771  2.0083200  2
   2959   2958   2962   2974     1  0.0000000  1.2552000  3
   2959   2958   2965   2968     1  180.0000771  2.0083200  2
   2959   2958   2965   2968     1  0.0000000  1.2552000  3
   2959   2971   2983   4719     1  0.0000000  0.6508444  3
   2962   2958   2959   2971     1  180.0000771  2.0083200  2
   2962   2958   2959   2971     1  0.0000000  1.2552000  3
   2962   2958   2965   2968     1  180.0000771  2.0083200  2
   2962   2958   2965   2968     1  0.0000000  1.2552000  3
   2962   2974   2980   4706     1  0.0000000  0.6508444  3
   2965   2958   2959   2971     1  180.0000771  2.0083200  2
   2965   2958   2959   2971     1  0.0000000  1.2552000  3
   2965   2958   2962   2974     1  180.0000771  2.0083200  2
   2965   2958   2962   2974     1  0.0000000  1.2552000  3
   2965   2968   2977   2986     1  0.0000000  0.6508444  3
   2971   2983   4719   4713     1  180.0000771  0.4184000  2
   2971   2983   4719   4713     1  0.0000000  1.6024720  3
   2974   2980   4706   4700     1  180.0000771  0.4184000  2
   2974   2980   4706   4700     1  0.0000000  1.6024720  3
   2980   4706   4700   4697     1  180.0000771  0.4184000  2
   2980   4706   4700   4697     1  0.0000000  1.6024720  3
   2983   4719   4713   4710     1  180.0000771  0.4184000  2
   2983   4719   4713   4710     1  0.0000000  1.6024720  3
   2987   2988   3000   3012     1  0.0000000  0.6508444  3
   2987   2991   3003   3009     1  0.0000000  0.6508444  3
   2987   2994   2997   3006     1  0.0000000  0.6508444  3
   2988   2987   2991   3003     1  180.0000771  2.0083200  2
   2988   2987   2991   3003     1  0.0000000  1.2552000  3
   2988   2987   2994   2997     1  180.0000771  2.0083200  2
   2988   2987   2994   2997     1  0.0000000  1.2552000  3
   2988   3000   3012   4745     1  0.0000000  0.6508444  3
   2991   2987   2988   3000     1  180.0000771  2.0083200  2
   2991   2987   2988   3000     1  0.0000000  1.2552000  3
   2991   2987   2994   2997     1  180.0000771  2.0083200  2
   2991   2987   2994   2997     1  0.0000000  1.2552000  3
   2991   3003   3009   4732     1  0.0000000  0.6508444  3
   2994   2987   2988   3000     1  180.0000771  2.0083200  2
   2994   2987   2988   3000     1  0.0000000  1.2552000  3
   2994   2987   2991   3003     1  180.0000771  2.0083200  2
   2994   2987   2991   3003     1  0.0000000  1.2552000  3
   2994   2997   3006   3015     1  0.0000000  0.6508444  3
   3000   3012   4745   4739     1  180.0000771  0.4184000  2
   3000   3012   4745   4739     1  0.0000000  1.6024720  3
   3003   3009   4732   4726     1  180.0000771  0.4184000  2
   3003   3009   4732   4726     1  0.0000000  1.6024720  3
   3009   4732   4726   4723     1  180.0000771  0.4184000  2
   3009   4732   4726   4723     1  0.0000000  1.6024720  3
   3012   4745   4739   4736     1  180.0000771  0.4184000  2
   3012   4745   4739   4736     1  0.0000000  1.6024720  3
   3016   3017   3029   3041     1  0.0000000  0.6508444  3
   3016   3020   3032   3038     1  0.0000000  0.6508444  3
   3016   3023   3026   3035     1  0.0000000  0.6508444  3
   3017   3016   3020   3032     1  180.0000771  2.0083200  2
   3017   3016   3020   3032     1  0.0000000  1.2552000  3
   3017   3016   3023   3026     1  180.0000771  2.0083200  2
   3017   3016   3023   3026     1  0.0000000  1.2552000  3
   3017   3029   3041   4771     1  0.0000000  0.6508444  3
   3020   3016   3017   3029     1  180.0000771  2.0083200  2
   3020   3016   3017   3029     1  0.0000000  1.2552000  3
   3020   3016   3023   3026     1  180.0000771  2.0083200  2
   3020   3016   3023   3026     1  0.0000000  1.2552000  3
   3020   3032   3038   4758     1  0.0000000  0.6508444  3
   3023   3016   3017   3029     1  180.0000771  2.0083200  2
   3023   3016   3017   3029     1  0.0000000  1.2552000  3
   3023   3016   3020   3032     1  180.0000771  2.0083200  2
   3023   3016   3020   3032     1  0.0000000  1.2552000  3
   3023   3026   3035   3044     1  0.0000000  0.6508444  3
   3029   3041   4771   4765     1  180.0000771  0.4184000  2
   3029   3041   4771   4765     1  0.0000000  1.6024720  3
   3032   3038   4758   4752     1  180.0000771  0.4184000  2
   3032   3038   4758   4752     1  0.0000000  1.6024720  3
   3038   4758   4752   4749     1  180.0000771  0.4184000  2
   3038   4758   4752   4749     1  0.0000000  1.6024720  3
   3041   4771   4765   4762     1  180.0000771  0.4184000  2
   3041   4771   4765   4762     1  0.0000000  1.6024720  3
   3045   3046   3058   3070     1  0.0000000  0.6508444  3
   3045   3049   3061   3067     1  0.0000000  0.6508444  3
   3045   3052   3055   3064     1  0.0000000  0.6508444  3
   3046   3045   3049   3061     1  180.0000771  2.0083200  2
   3046   3045   3049   3061     1  0.0000000  1.2552000  3
   3046   3045   3052   3055     1  180.0000771  2.0083200  2
   3046   3045   3052   3055     1  0.0000000  1.2552000  3
   3046   3058   3070   4797     1  0.0000000  0.6508444  3
   3049   3045   3046   3058     1  180.0000771  2.0083200  2
   3049   3045   3046   3058     1  0.0000000  1.2552000  3
   3049   3045   3052   3055     1  180.0000771  2.0083200  2
   3049   3045   3052   3055     1  0.0000000  1.2552000  3
   3049   3061   3067   4784     1  0.0000000  0.6508444  3
   3052   3045   3046   3058     1  180.0000771  2.0083200  2
   3052   3045   3046   3058     1  0.0000000  1.2552000  3
   3052   3045   3049   3061     1  180.0000771  2.0083200  2
   3052   3045   3049   3061     1  0.0000000  1.2552000  3
   3052   3055   3064   3073     1  0.0000000  0.6508444  3
   3058   3070   4797   4791     1  180.0000771  0.4184000  2
   3058   3070   4797   4791     1  0.0000000  1.6024720  3
   3061   3067   4784   4778     1  180.0000771  0.4184000  2
   3061   3067   4784   4778     1  0.0000000  1.6024720  3
   3067   4784   4778   4775     1  180.0000771  0.4184000  2
   3067   4784   4778   4775     1  0.0000000  1.6024720  3
   3070   4797   4791   4788     1  180.0000771  0.4184000  2
   3070   4797   4791   4788     1  0.0000000  1.6024720  3
   3074   3075   3087   3099     1  0.0000000  0.6508444  3
   3074   3078   3090   3096     1  0.0000000  0.6508444  3
   3074   3081   3084   3093     1  0.0000000  0.6508444  3
   3075   3074   3078   3090     1  180.0000771  2.0083200  2
   3075   3074   3078   3090     1  0.0000000  1.2552000  3
   3075   3074   3081   3084     1  180.0000771  2.0083200  2
   3075   3074   3081   3084     1  0.0000000  1.2552000  3
   3075   3087   3099   4823     1  0.0000000  0.6508444  3
   3078   3074   3075   3087     1  180.0000771  2.0083200  2
   3078   3074   3075   3087     1  0.0000000  1.2552000  3
   3078   3074   3081   3084     1  180.0000771  2.0083200  2
   3078   3074   3081   3084     1  0.0000000  1.2552000  3
   3078   3090   3096   4810     1  0.0000000  0.6508444  3
   3081   3074   3075   3087     1  180.0000771  2.0083200  2
   3081   3074   3075   3087     1  0.0000000  1.2552000  3
   3081   3074   3078   3090     1  180.0000771  2.0083200  2
   3081   3074   3078   3090     1  0.0000000  1.2552000  3
   3081   3084   3093   3102     1  0.0000000  0.6508444  3
   3087   3099   4823   4817     1  180.0000771  0.4184000  2
   3087   3099   4823   4817     1  0.0000000  1.6024720  3
   3090   3096   4810   4804     1  180.0000771  0.4184000  2
   3090   3096   4810   4804     1  0.0000000  1.6024720  3
   3096   4810   4804   4801     1  180.0000771  0.4184000  2
   3096   4810   4804   4801     1  0.0000000  1.6024720  3
   3099   4823   4817   4814     1  180.0000771  0.4184000  2
   3099   4823   4817   4814     1  0.0000000  1.6024720  3
   3103   3104   3116   3128     1  0.0000000  0.6508444  3
   3103   3107   3119   3125     1  0.0000000  0.6508444  3
   3103   3110   3113   3122     1  0.0000000  0.6508444  3
   3104   3103   3107   3119     1  180.0000771  2.0083200  2
   3104   3103   3107   3119     1  0.0000000  1.2552000  3
   3104   3103   3110   3113     1  180.0000771  2.0083200  2
   3104   3103   3110   3113     1  0.0000000  1.2552000  3
   3104   3116   3128   4849     1  0.0000000  0.6508444  3
   3107   3103   3104   3116     1  180.0000771  2.0083200  2
   3107   3103   3104   3116     1  0.0000000  1.2552000  3
   3107   3103   3110   3113     1  180.0000771  2.0083200  2
   3107   3103   3110   3113     1  0.0000000  1.2552000  3
   3107   3119   3125   4836     1  0.0000000  0.6508444  3
   3110   3103   3104   3116     1  180.0000771  2.0083200  2
   3110   3103   3104   3116     1  0.0000000  1.2552000  3
   3110   3103   3107   3119     1  180.0000771  2.0083200  2
   3110   3103   3107   3119     1  0.0000000  1.2552000  3
   3110   3113   3122   3131     1  0.0000000  0.6508444  3
   3116   3128   4849   4843     1  180.0000771  0.4184000  2
   3116   3128   4849   4843     1  0.0000000  1.6024720  3
   3119   3125   4836   4830     1  180.0000771  0.4184000  2
   3119   3125   4836   4830     1  0.0000000  1.6024720  3
   3125   4836   4830   4827     1  180.0000771  0.4184000  2
   3125   4836   4830   4827     1  0.0000000  1.6024720  3
   3128   4849   4843   4840     1  180.0000771  0.4184000  2
   3128   4849   4843   4840     1  0.0000000  1.6024720  3
   3132   3133   3145   3157     1  0.0000000  0.6508444  3
   3132   3136   3148   3154     1  0.0000000  0.6508444  3
   3132   3139   3142   3151     1  0.0000000  0.6508444  3
   3133   3132   3136   3148     1  180.0000771  2.0083200  2
   3133   3132   3136   3148     1  0.0000000  1.2552000  3
   3133   3132   3139   3142     1  180.0000771  2.0083200  2
   3133   3132   3139   3142     1  0.0000000  1.2552000  3
   3133   3145   3157   4875     1  0.0000000  0.6508444  3
   3136   3132   3133   3145     1  180.0000771  2.0083200  2
   3136   3132   3133   3145     1  0.0000000  1.2552000  3
   3136   3132   3139   3142     1  180.0000771  2.0083200  2
   3136   3132   3139   3142     1  0.0000000  1.2552000  3
   3136   3148   3154   4862     1  0.0000000  0.6508444  3
   3139   3132   3133   3145     1  180.0000771  2.0083200  2
   3139   3132   3133   3145     1  0.0000000  1.2552000  3
   3139   3132   3136   3148     1  180.0000771  2.0083200  2
   3139   3132   3136   3148     1  0.0000000  1.2552000  3
   3139   3142   3151   3160     1  0.0000000  0.6508444  3
   3145   3157   4875   4869     1  180.0000771  0.4184000  2
   3145   3157   4875   4869     1  0.0000000  1.6024720  3
   3148   3154   4862   4856     1  180.0000771  0.4184000  2
   3148   3154   4862   4856     1  0.0000000  1.6024720  3
   3154   4862   4856   4853     1  180.0000771  0.4184000  2
   3154   4862   4856   4853     1  0.0000000  1.6024720  3
   3157   4875   4869   4866     1  180.0000771  0.4184000  2
   3157   4875   4869   4866     1  0.0000000  1.6024720  3
   3161   3162   3174   3186     1  0.0000000  0.6508444  3
   3161   3165   3177   3183     1  0.0000000  0.6508444  3
   3161   3168   3171   3180     1  0.0000000  0.6508444  3
   3162   3161   3165   3177     1  180.0000771  2.0083200  2
   3162   3161   3165   3177     1  0.0000000  1.2552000  3
   3162   3161   3168   3171     1  180.0000771  2.0083200  2
   3162   3161   3168   3171     1  0.0000000  1.2552000  3
   3162   3174   3186   4901     1  0.0000000  0.6508444  3
   3165   3161   3162   3174     1  180.0000771  2.0083200  2
   3165   3161   3162   3174     1  0.0000000  1.2552000  3
   3165   3161   3168   3171     1  180.0000771  2.0083200  2
   3165   3161   3168   3171     1  0.0000000  1.2552000  3
   3165   3177   3183   4888     1  0.0000000  0.6508444  3
   3168   3161   3162   3174     1  180.0000771  2.0083200  2
   3168   3161   3162   3174     1  0.0000000  1.2552000  3
   3168   3161   3165   3177     1  180.0000771  2.0083200  2
   3168   3161   3165   3177     1  0.0000000  1.2552000  3
   3168   3171   3180   3189     1  0.0000000  0.6508444  3
   3174   3186   4901   4895     1  180.0000771  0.4184000  2
   3174   3186   4901   4895     1  0.0000000  1.6024720  3
   3177   3183   4888   4882     1  180.0000771  0.4184000  2
   3177   3183   4888   4882     1  0.0000000  1.6024720  3
   3183   4888   4882   4879     1  180.0000771  0.4184000  2
   3183   4888   4882   4879     1  0.0000000  1.6024720  3
   3186   4901   4895   4892     1  180.0000771  0.4184000  2
   3186   4901   4895   4892     1  0.0000000  1.6024720  3
   3190   3191   3203   3215     1  0.0000000  0.6508444  3
   3190   3194   3206   3212     1  0.0000000  0.6508444  3
   3190   3197   3200   3209     1  0.0000000  0.6508444  3
   3191   3190   3194   3206     1  180.0000771  2.0083200  2
   3191   3190   3194   3206     1  0.0000000  1.2552000  3
   3191   3190   3197   3200     1  180.0000771  2.0083200  2
   3191   3190   3197   3200     1  0.0000000  1.2552000  3
   3191   3203   3215   4927     1  0.0000000  0.6508444  3
   3194   3190   3191   3203     1  180.0000771  2.0083200  2
   3194   3190   3191   3203     1  0.0000000  1.2552000  3
   3194   3190   3197   3200     1  180.0000771  2.0083200  2
   3194   3190   3197   3200     1  0.0000000  1.2552000  3
   3194   3206   3212   4914     1  0.0000000  0.6508444  3
   3197   3190   3191   3203     1  180.0000771  2.0083200  2
   3197   3190   3191   3203     1  0.0000000  1.2552000  3
   3197   3190   3194   3206     1  180.0000771  2.0083200  2
   3197   3190   3194   3206     1  0.0000000  1.2552000  3
   3197   3200   3209   3218     1  0.0000000  0.6508444  3
   3203   3215   4927   4921     1  180.0000771  0.4184000  2
   3203   3215   4927   4921     1  0.0000000  1.6024720  3
   3206   3212   4914   4908     1  180.0000771  0.4184000  2
   3206   3212   4914   4908     1  0.0000000  1.6024720  3
   3212   4914   4908   4905     1  180.0000771  0.4184000  2
   3212   4914   4908   4905     1  0.0000000  1.6024720  3
   3215   4927   4921   4918     1  180.0000771  0.4184000  2
   3215   4927   4921   4918     1  0.0000000  1.6024720  3
   3219   3220   3232   3244     1  0.0000000  0.6508444  3
   3219   3223   3235   3241     1  0.0000000  0.6508444  3
   3219   3226   3229   3238     1  0.0000000  0.6508444  3
   3220   3219   3223   3235     1  180.0000771  2.0083200  2
   3220   3219   3223   3235     1  0.0000000  1.2552000  3
   3220   3219   3226   3229     1  180.0000771  2.0083200  2
   3220   3219   3226   3229     1  0.0000000  1.2552000  3
   3220   3232   3244   4953     1  0.0000000  0.6508444  3
   3223   3219   3220   3232     1  180.0000771  2.0083200  2
   3223   3219   3220   3232     1  0.0000000  1.2552000  3
   3223   3219   3226   3229     1  180.0000771  2.0083200  2
   3223   3219   3226   3229     1  0.0000000  1.2552000  3
   3223   3235   3241   4940     1  0.0000000  0.6508444  3
   3226   3219   3220   3232     1  180.0000771  2.0083200  2
   3226   3219   3220   3232     1  0.0000000  1.2552000  3
   3226   3219   3223   3235     1  180.0000771  2.0083200  2
   3226   3219   3223   3235     1  0.0000000  1.2552000  3
   3226   3229   3238   3247     1  0.0000000  0.6508444  3
   3232   3244   4953   4947     1  180.0000771  0.4184000  2
   3232   3244   4953   4947     1  0.0000000  1.6024720  3
   3235   3241   4940   4934     1  180.0000771  0.4184000  2
   3235   3241   4940   4934     1  0.0000000  1.6024720  3
   3241   4940   4934   4931     1  180.0000771  0.4184000  2
   3241   4940   4934   4931     1  0.0000000  1.6024720  3
   3244   4953   4947   4944     1  180.0000771  0.4184000  2
   3244   4953   4947   4944     1  0.0000000  1.6024720  3
   3248   3249   3261   3273     1  0.0000000  0.6508444  3
   3248   3252   3264   3270     1  0.0000000  0.6508444  3
   3248   3255   3258   3267     1  0.0000000  0.6508444  3
   3249   3248   3252   3264     1  180.0000771  2.0083200  2
   3249   3248   3252   3264     1  0.0000000  1.2552000  3
   3249   3248   3255   3258     1  180.0000771  2.0083200  2
   3249   3248   3255   3258     1  0.0000000  1.2552000  3
   3249   3261   3273   4979     1  0.0000000  0.6508444  3
   3252   3248   3249   3261     1  180.0000771  2.0083200  2
   3252   3248   3249   3261     1  0.0000000  1.2552000  3
   3252   3248   3255   3258     1  180.0000771  2.0083200  2
   3252   3248   3255   3258     1  0.0000000  1.2552000  3
   3252   3264   3270   4966     1  0.0000000  0.6508444  3
   3255   3248   3249   3261     1  180.0000771  2.0083200  2
   3255   3248   3249   3261     1  0.0000000  1.2552000  3
   3255   3248   3252   3264     1  180.0000771  2.0083200  2
   3255   3248   3252   3264     1  0.0000000  1.2552000  3
   3255   3258   3267   3276     1  0.0000000  0.6508444  3
   3261   3273   4979   4973     1  180.0000771  0.4184000  2
   3261   3273   4979   4973     1  0.0000000  1.6024720  3
   3264   3270   4966   4960     1  180.0000771  0.4184000  2
   3264   3270   4966   4960     1  0.0000000  1.6024720  3
   3270   4966   4960   4957     1  180.0000771  0.4184000  2
   3270   4966   4960   4957     1  0.0000000  1.6024720  3
   3273   4979   4973   4970     1  180.0000771  0.4184000  2
   3273   4979   4973   4970     1  0.0000000  1.6024720  3
   3277   3278   3290   3302     1  0.0000000  0.6508444  3
   3277   3281   3293   3299     1  0.0000000  0.6508444  3
   3277   3284   3287   3296     1  0.0000000  0.6508444  3
   3278   3277   3281   3293     1  180.0000771  2.0083200  2
   3278   3277   3281   3293     1  0.0000000  1.2552000  3
   3278   3277   3284   3287     1  180.0000771  2.0083200  2
   3278   3277   3284   3287     1  0.0000000  1.2552000  3
   3278   3290   3302   5005     1  0.0000000  0.6508444  3
   3281   3277   3278   3290     1  180.0000771  2.0083200  2
   3281   3277   3278   3290     1  0.0000000  1.2552000  3
   3281   3277   3284   3287     1  180.0000771  2.0083200  2
   3281   3277   3284   3287     1  0.0000000  1.2552000  3
   3281   3293   3299   4992     1  0.0000000  0.6508444  3
   3284   3277   3278   3290     1  180.0000771  2.0083200  2
   3284   3277   3278   3290     1  0.0000000  1.2552000  3
   3284   3277   3281   3293     1  180.0000771  2.0083200  2
   3284   3277   3281   3293     1  0.0000000  1.2552000  3
   3284   3287   3296   3305     1  0.0000000  0.6508444  3
   3290   3302   5005   4999     1  180.0000771  0.4184000  2
   3290   3302   5005   4999     1  0.0000000  1.6024720  3
   3293   3299   4992   4986     1  180.0000771  0.4184000  2
   3293   3299   4992   4986     1  0.0000000  1.6024720  3
   3299   4992   4986   4983     1  180.0000771  0.4184000  2
   3299   4992   4986   4983     1  0.0000000  1.6024720  3
   3302   5005   4999   4996     1  180.0000771  0.4184000  2
   3302   5005   4999   4996     1  0.0000000  1.6024720  3
   3306   3307   3319   3331     1  0.0000000  0.6508444  3
   3306   3310   3322   3328     1  0.0000000  0.6508444  3
   3306   3313   3316   3325     1  0.0000000  0.6508444  3
   3307   3306   3310   3322     1  180.0000771  2.0083200  2
   3307   3306   3310   3322     1  0.0000000  1.2552000  3
   3307   3306   3313   3316     1  180.0000771  2.0083200  2
   3307   3306   3313   3316     1  0.0000000  1.2552000  3
   3307   3319   3331   5031     1  0.0000000  0.6508444  3
   3310   3306   3307   3319     1  180.0000771  2.0083200  2
   3310   3306   3307   3319     1  0.0000000  1.2552000  3
   3310   3306   3313   3316     1  180.0000771  2.0083200  2
   3310   3306   3313   3316     1  0.0000000  1.2552000  3
   3310   3322   3328   5018     1  0.0000000  0.6508444  3
   3313   3306   3307   3319     1  180.0000771  2.0083200  2
   3313   3306   3307   3319     1  0.0000000  1.2552000  3
   3313   3306   3310   3322     1  180.0000771  2.0083200  2
   3313   3306   3310   3322     1  0.0000000  1.2552000  3
   3313   3316   3325   3334     1  0.0000000  0.6508444  3
   3319   3331   5031   5025     1  180.0000771  0.4184000  2
   3319   3331   5031   5025     1  0.0000000  1.6024720  3
   3322   3328   5018   5012     1  180.0000771  0.4184000  2
   3322   3328   5018   5012     1  0.0000000  1.6024720  3
   3328   5018   5012   5009     1  180.0000771  0.4184000  2
   3328   5018   5012   5009     1  0.0000000  1.6024720  3
   3331   5031   5025   5022     1  180.0000771  0.4184000  2
   3331   5031   5025   5022     1  0.0000000  1.6024720  3
   3335   3336   3348   3360     1  0.0000000  0.6508444  3
   3335   3339   3351   3357     1  0.0000000  0.6508444  3
   3335   3342   3345   3354     1  0.0000000  0.6508444  3
   3336   3335   3339   3351     1  180.0000771  2.0083200  2
   3336   3335   3339   3351     1  0.0000000  1.2552000  3
   3336   3335   3342   3345     1  180.0000771  2.0083200  2
   3336   3335   3342   3345     1  0.0000000  1.2552000  3
   3336   3348   3360   5057     1  0.0000000  0.6508444  3
   3339   3335   3336   3348     1  180.0000771  2.0083200  2
   3339   3335   3336   3348     1  0.0000000  1.2552000  3
   3339   3335   3342   3345     1  180.0000771  2.0083200  2
   3339   3335   3342   3345     1  0.0000000  1.2552000  3
   3339   3351   3357   5044     1  0.0000000  0.6508444  3
   3342   3335   3336   3348     1  180.0000771  2.0083200  2
   3342   3335   3336   3348     1  0.0000000  1.2552000  3
   3342   3335   3339   3351     1  180.0000771  2.0083200  2
   3342   3335   3339   3351     1  0.0000000  1.2552000  3
   3342   3345   3354   3363     1  0.0000000  0.6508444  3
   3348   3360   5057   5051     1  180.0000771  0.4184000  2
   3348   3360   5057   5051     1  0.0000000  1.6024720  3
   3351   3357   5044   5038     1  180.0000771  0.4184000  2
   3351   3357   5044   5038     1  0.0000000  1.6024720  3
   3357   5044   5038   5035     1  180.0000771  0.4184000  2
   3357   5044   5038   5035     1  0.0000000  1.6024720  3
   3360   5057   5051   5048     1  180.0000771  0.4184000  2
   3360   5057   5051   5048     1  0.0000000  1.6024720  3
   3364   3365   3377   3389     1  0.0000000  0.6508444  3
   3364   3368   3380   3386     1  0.0000000  0.6508444  3
   3364   3371   3374   3383     1  0.0000000  0.6508444  3
   3365   3364   3368   3380     1  180.0000771  2.0083200  2
   3365   3364   3368   3380     1  0.0000000  1.2552000  3
   3365   3364   3371   3374     1  180.0000771  2.0083200  2
   3365   3364   3371   3374     1  0.0000000  1.2552000  3
   3365   3377   3389   5083     1  0.0000000  0.6508444  3
   3368   3364   3365   3377     1  180.0000771  2.0083200  2
   3368   3364   3365   3377     1  0.0000000  1.2552000  3
   3368   3364   3371   3374     1  180.0000771  2.0083200  2
   3368   3364   3371   3374     1  0.0000000  1.2552000  3
   3368   3380   3386   5070     1  0.0000000  0.6508444  3
   3371   3364   3365   3377     1  180.0000771  2.0083200  2
   3371   3364   3365   3377     1  0.0000000  1.2552000  3
   3371   3364   3368   3380     1  180.0000771  2.0083200  2
   3371   3364   3368   3380     1  0.0000000  1.2552000  3
   3371   3374   3383   3392     1  0.0000000  0.6508444  3
   3377   3389   5083   5077     1  180.0000771  0.4184000  2
   3377   3389   5083   5077     1  0.0000000  1.6024720  3
   3380   3386   5070   5064     1  180.0000771  0.4184000  2
   3380   3386   5070   5064     1  0.0000000  1.6024720  3
   3386   5070   5064   5061     1  180.0000771  0.4184000  2
   3386   5070   5064   5061     1  0.0000000  1.6024720  3
   3389   5083   5077   5074     1  180.0000771  0.4184000  2
   3389   5083   5077   5074     1  0.0000000  1.6024720  3
   3393   3394   3406   3418     1  0.0000000  0.6508444  3
   3393   3397   3409   3415     1  0.0000000  0.6508444  3
   3393   3400   3403   3412     1  0.0000000  0.6508444  3
   3394   3393   3397   3409     1  180.0000771  2.0083200  2
   3394   3393   3397   3409     1  0.0000000  1.2552000  3
   3394   3393   3400   3403     1  180.0000771  2.0083200  2
   3394   3393   3400   3403     1  0.0000000  1.2552000  3
   3394   3406   3418   5109     1  0.0000000  0.6508444  3
   3397   3393   3394   3406     1  180.0000771  2.0083200  2
   3397   3393   3394   3406     1  0.0000000  1.2552000  3
   3397   3393   3400   3403     1  180.0000771  2.0083200  2
   3397   3393   3400   3403     1  0.0000000  1.2552000  3
   3397   3409   3415   5096     1  0.0000000  0.6508444  3
   3400   3393   3394   3406     1  180.0000771  2.0083200  2
   3400   3393   3394   3406     1  0.0000000  1.2552000  3
   3400   3393   3397   3409     1  180.0000771  2.0083200  2
   3400   3393   3397   3409     1  0.0000000  1.2552000  3
   3400   3403   3412   3421     1  0.0000000  0.6508444  3
   3406   3418   5109   5103     1  180.0000771  0.4184000  2
   3406   3418   5109   5103     1  0.0000000  1.6024720  3
   3409   3415   5096   5090     1  180.0000771  0.4184000  2
   3409   3415   5096   5090     1  0.0000000  1.6024720  3
   3415   5096   5090   5087     1  180.0000771  0.4184000  2
   3415   5096   5090   5087     1  0.0000000  1.6024720  3
   3418   5109   5103   5100     1  180.0000771  0.4184000  2
   3418   5109   5103   5100     1  0.0000000  1.6024720  3
   3422   3423   3435   3447     1  0.0000000  0.6508444  3
   3422   3426   3438   3444     1  0.0000000  0.6508444  3
   3422   3429   3432   3441     1  0.0000000  0.6508444  3
   3423   3422   3426   3438     1  180.0000771  2.0083200  2
   3423   3422   3426   3438     1  0.0000000  1.2552000  3
   3423   3422   3429   3432     1  180.0000771  2.0083200  2
   3423   3422   3429   3432     1  0.0000000  1.2552000  3
   3423   3435   3447   5135     1  0.0000000  0.6508444  3
   3426   3422   3423   3435     1  180.0000771  2.0083200  2
   3426   3422   3423   3435     1  0.0000000  1.2552000  3
   3426   3422   3429   3432     1  180.0000771  2.0083200  2
   3426   3422   3429   3432     1  0.0000000  1.2552000  3
   3426   3438   3444   5122     1  0.0000000  0.6508444  3
   3429   3422   3423   3435     1  180.0000771  2.0083200  2
   3429   3422   3423   3435     1  0.0000000  1.2552000  3
   3429   3422   3426   3438     1  180.0000771  2.0083200  2
   3429   3422   3426   3438     1  0.0000000  1.2552000  3
   3429   3432   3441   3450     1  0.0000000  0.6508444  3
   3435   3447   5135   5129     1  180.0000771  0.4184000  2
   3435   3447   5135   5129     1  0.0000000  1.6024720  3
   3438   3444   5122   5116     1  180.0000771  0.4184000  2
   3438   3444   5122   5116     1  0.0000000  1.6024720  3
   3444   5122   5116   5113     1  180.0000771  0.4184000  2
   3444   5122   5116   5113     1  0.0000000  1.6024720  3
   3447   5135   5129   5126     1  180.0000771  0.4184000  2
   3447   5135   5129   5126     1  0.0000000  1.6024720  3
   3451   3452   3464   3476     1  0.0000000  0.6508444  3
   3451   3455   3467   3473     1  0.0000000  0.6508444  3
   3451   3458   3461   3470     1  0.0000000  0.6508444  3
   3452   3451   3455   3467     1  180.0000771  2.0083200  2
   3452   3451   3455   3467     1  0.0000000  1.2552000  3
   3452   3451   3458   3461     1  180.0000771  2.0083200  2
   3452   3451   3458   3461     1  0.0000000  1.2552000  3
   3452   3464   3476   5161     1  0.0000000  0.6508444  3
   3455   3451   3452   3464     1  180.0000771  2.0083200  2
   3455   3451   3452   3464     1  0.0000000  1.2552000  3
   3455   3451   3458   3461     1  180.0000771  2.0083200  2
   3455   3451   3458   3461     1  0.0000000  1.2552000  3
   3455   3467   3473   5148     1  0.0000000  0.6508444  3
   3458   3451   3452   3464     1  180.0000771  2.0083200  2
   3458   3451   3452   3464     1  0.0000000  1.2552000  3
   3458   3451   3455   3467     1  180.0000771  2.0083200  2
   3458   3451   3455   3467     1  0.0000000  1.2552000  3
   3458   3461   3470   3479     1  0.0000000  0.6508444  3
   3464   3476   5161   5155     1  180.0000771  0.4184000  2
   3464   3476   5161   5155     1  0.0000000  1.6024720  3
   3467   3473   5148   5142     1  180.0000771  0.4184000  2
   3467   3473   5148   5142     1  0.0000000  1.6024720  3
   3473   5148   5142   5139     1  180.0000771  0.4184000  2
   3473   5148   5142   5139     1  0.0000000  1.6024720  3
   3476   5161   5155   5152     1  180.0000771  0.4184000  2
   3476   5161   5155   5152     1  0.0000000  1.6024720  3
   3480   3481   3493   3505     1  0.0000000  0.6508444  3
   3480   3484   3496   3502     1  0.0000000  0.6508444  3
   3480   3487   3490   3499     1  0.0000000  0.6508444  3
   3481   3480   3484   3496     1  180.0000771  2.0083200  2
   3481   3480   3484   3496     1  0.0000000  1.2552000  3
   3481   3480   3487   3490     1  180.0000771  2.0083200  2
   3481   3480   3487   3490     1  0.0000000  1.2552000  3
   3481   3493   3505   5187     1  0.0000000  0.6508444  3
   3484   3480   3481   3493     1  180.0000771  2.0083200  2
   3484   3480   3481   3493     1  0.0000000  1.2552000  3
   3484   3480   3487   3490     1  180.0000771  2.0083200  2
   3484   3480   3487   3490     1  0.0000000  1.2552000  3
   3484   3496   3502   5174     1  0.0000000  0.6508444  3
   3487   3480   3481   3493     1  180.0000771  2.0083200  2
   3487   3480   3481   3493     1  0.0000000  1.2552000  3
   3487   3480   3484   3496     1  180.0000771  2.0083200  2
   3487   3480   3484   3496     1  0.0000000  1.2552000  3
   3487   3490   3499   3508     1  0.0000000  0.6508444  3
   3493   3505   5187   5181     1  180.0000771  0.4184000  2
   3493   3505   5187   5181     1  0.0000000  1.6024720  3
   3496   3502   5174   5168     1  180.0000771  0.4184000  2
   3496   3502   5174   5168     1  0.0000000  1.6024720  3
   3502   5174   5168   5165     1  180.0000771  0.4184000  2
   3502   5174   5168   5165     1  0.0000000  1.6024720  3
   3505   5187   5181   5178     1  180.0000771  0.4184000  2
   3505   5187   5181   5178     1  0.0000000  1.6024720  3
   3509   3510   3522   3534     1  0.0000000  0.6508444  3
   3509   3513   3525   3531     1  0.0000000  0.6508444  3
   3509   3516   3519   3528     1  0.0000000  0.6508444  3
   3510   3509   3513   3525     1  180.0000771  2.0083200  2
   3510   3509   3513   3525     1  0.0000000  1.2552000  3
   3510   3509   3516   3519     1  180.0000771  2.0083200  2
   3510   3509   3516   3519     1  0.0000000  1.2552000  3
   3510   3522   3534   5213     1  0.0000000  0.6508444  3
   3513   3509   3510   3522     1  180.0000771  2.0083200  2
   3513   3509   3510   3522     1  0.0000000  1.2552000  3
   3513   3509   3516   3519     1  180.0000771  2.0083200  2
   3513   3509   3516   3519     1  0.0000000  1.2552000  3
   3513   3525   3531   5200     1  0.0000000  0.6508444  3
   3516   3509   3510   3522     1  180.0000771  2.0083200  2
   3516   3509   3510   3522     1  0.0000000  1.2552000  3
   3516   3509   3513   3525     1  180.0000771  2.0083200  2
   3516   3509   3513   3525     1  0.0000000  1.2552000  3
   3516   3519   3528   3537     1  0.0000000  0.6508444  3
   3522   3534   5213   5207     1  180.0000771  0.4184000  2
   3522   3534   5213   5207     1  0.0000000  1.6024720  3
   3525   3531   5200   5194     1  180.0000771  0.4184000  2
   3525   3531   5200   5194     1  0.0000000  1.6024720  3
   3531   5200   5194   5191     1  180.0000771  0.4184000  2
   3531   5200   5194   5191     1  0.0000000  1.6024720  3
   3534   5213   5207   5204     1  180.0000771  0.4184000  2
   3534   5213   5207   5204     1  0.0000000  1.6024720  3
   3538   3539   3551   3563     1  0.0000000  0.6508444  3
   3538   3542   3554   3560     1  0.0000000  0.6508444  3
   3538   3545   3548   3557     1  0.0000000  0.6508444  3
   3539   3538   3542   3554     1  180.0000771  2.0083200  2
   3539   3538   3542   3554     1  0.0000000  1.2552000  3
   3539   3538   3545   3548     1  180.0000771  2.0083200  2
   3539   3538   3545   3548     1  0.0000000  1.2552000  3
   3539   3551   3563   5239     1  0.0000000  0.6508444  3
   3542   3538   3539   3551     1  180.0000771  2.0083200  2
   3542   3538   3539   3551     1  0.0000000  1.2552000  3
   3542   3538   3545   3548     1  180.0000771  2.0083200  2
   3542   3538   3545   3548     1  0.0000000  1.2552000  3
   3542   3554   3560   5226     1  0.0000000  0.6508444  3
   3545   3538   3539   3551     1  180.0000771  2.0083200  2
   3545   3538   3539   3551     1  0.0000000  1.2552000  3
   3545   3538   3542   3554     1  180.0000771  2.0083200  2
   3545   3538   3542   3554     1  0.0000000  1.2552000  3
   3545   3548   3557   3566     1  0.0000000  0.6508444  3
   3551   3563   5239   5233     1  180.0000771  0.4184000  2
   3551   3563   5239   5233     1  0.0000000  1.6024720  3
   3554   3560   5226   5220     1  180.0000771  0.4184000  2
   3554   3560   5226   5220     1  0.0000000  1.6024720  3
   3560   5226   5220   5217     1  180.0000771  0.4184000  2
   3560   5226   5220   5217     1  0.0000000  1.6024720  3
   3563   5239   5233   5230     1  180.0000771  0.4184000  2
   3563   5239   5233   5230     1  0.0000000  1.6024720  3
   3567   3568   3580   3592     1  0.0000000  0.6508444  3
   3567   3571   3583   3589     1  0.0000000  0.6508444  3
   3567   3574   3577   3586     1  0.0000000  0.6508444  3
   3568   3567   3571   3583     1  180.0000771  2.0083200  2
   3568   3567   3571   3583     1  0.0000000  1.2552000  3
   3568   3567   3574   3577     1  180.0000771  2.0083200  2
   3568   3567   3574   3577     1  0.0000000  1.2552000  3
   3568   3580   3592   5265     1  0.0000000  0.6508444  3
   3571   3567   3568   3580     1  180.0000771  2.0083200  2
   3571   3567   3568   3580     1  0.0000000  1.2552000  3
   3571   3567   3574   3577     1  180.0000771  2.0083200  2
   3571   3567   3574   3577     1  0.0000000  1.2552000  3
   3571   3583   3589   5252     1  0.0000000  0.6508444  3
   3574   3567   3568   3580     1  180.0000771  2.0083200  2
   3574   3567   3568   3580     1  0.0000000  1.2552000  3
   3574   3567   3571   3583     1  180.0000771  2.0083200  2
   3574   3567   3571   3583     1  0.0000000  1.2552000  3
   3574   3577   3586   3595     1  0.0000000  0.6508444  3
   3580   3592   5265   5259     1  180.0000771  0.4184000  2
   3580   3592   5265   5259     1  0.0000000  1.6024720  3
   3583   3589   5252   5246     1  180.0000771  0.4184000  2
   3583   3589   5252   5246     1  0.0000000  1.6024720  3
   3589   5252   5246   5243     1  180.0000771  0.4184000  2
   3589   5252   5246   5243     1  0.0000000  1.6024720  3
   3592   5265   5259   5256     1  180.0000771  0.4184000  2
   3592   5265   5259   5256     1  0.0000000  1.6024720  3
   3596   3597   3609   3621     1  0.0000000  0.6508444  3
   3596   3600   3612   3618     1  0.0000000  0.6508444  3
   3596   3603   3606   3615     1  0.0000000  0.6508444  3
   3597   3596   3600   3612     1  180.0000771  2.0083200  2
   3597   3596   3600   3612     1  0.0000000  1.2552000  3
   3597   3596   3603   3606     1  180.0000771  2.0083200  2
   3597   3596   3603   3606     1  0.0000000  1.2552000  3
   3597   3609   3621   5291     1  0.0000000  0.6508444  3
   3600   3596   3597   3609     1  180.0000771  2.0083200  2
   3600   3596   3597   3609     1  0.0000000  1.2552000  3
   3600   3596   3603   3606     1  180.0000771  2.0083200  2
   3600   3596   3603   3606     1  0.0000000  1.2552000  3
   3600   3612   3618   5278     1  0.0000000  0.6508444  3
   3603   3596   3597   3609     1  180.0000771  2.0083200  2
   3603   3596   3597   3609     1  0.0000000  1.2552000  3
   3603   3596   3600   3612     1  180.0000771  2.0083200  2
   3603   3596   3600   3612     1  0.0000000  1.2552000  3
   3603   3606   3615   3624     1  0.0000000  0.6508444  3
   3609   3621   5291   5285     1  180.0000771  0.4184000  2
   3609   3621   5291   5285     1  0.0000000  1.6024720  3
   3612   3618   5278   5272     1  180.0000771  0.4184000  2
   3612   3618   5278   5272     1  0.0000000  1.6024720  3
   3618   5278   5272   5269     1  180.0000771  0.4184000  2
   3618   5278   5272   5269     1  0.0000000  1.6024720  3
   3621   5291   5285   5282     1  180.0000771  0.4184000  2
   3621   5291   5285   5282     1  0.0000000  1.6024720  3
   3625   3626   3638   3650     1  0.0000000  0.6508444  3
   3625   3629   3641   3647     1  0.0000000  0.6508444  3
   3625   3632   3635   3644     1  0.0000000  0.6508444  3
   3626   3625   3629   3641     1  180.0000771  2.0083200  2
   3626   3625   3629   3641     1  0.0000000  1.2552000  3
   3626   3625   3632   3635     1  180.0000771  2.0083200  2
   3626   3625   3632   3635     1  0.0000000  1.2552000  3
   3626   3638   3650   5317     1  0.0000000  0.6508444  3
   3629   3625   3626   3638     1  180.0000771  2.0083200  2
   3629   3625   3626   3638     1  0.0000000  1.2552000  3
   3629   3625   3632   3635     1  180.0000771  2.0083200  2
   3629   3625   3632   3635     1  0.0000000  1.2552000  3
   3629   3641   3647   5304     1  0.0000000  0.6508444  3
   3632   3625   3626   3638     1  180.0000771  2.0083200  2
   3632   3625   3626   3638     1  0.0000000  1.2552000  3
   3632   3625   3629   3641     1  180.0000771  2.0083200  2
   3632   3625   3629   3641     1  0.0000000  1.2552000  3
   3632   3635   3644   3653     1  0.0000000  0.6508444  3
   3638   3650   5317   5311     1  180.0000771  0.4184000  2
   3638   3650   5317   5311     1  0.0000000  1.6024720  3
   3641   3647   5304   5298     1  180.0000771  0.4184000  2
   3641   3647   5304   5298     1  0.0000000  1.6024720  3
   3647   5304   5298   5295     1  180.0000771  0.4184000  2
   3647   5304   5298   5295     1  0.0000000  1.6024720  3
   3650   5317   5311   5308     1  180.0000771  0.4184000  2
   3650   5317   5311   5308     1  0.0000000  1.6024720  3
   3654   3657   3660   3666     1  0.0000000  0.6508444  3
   3660   3657   3654   3663     1  0.0000000  0.6508444  3
   3667   3670   3673   3679     1  0.0000000  0.6508444  3
   3673   3670   3667   3676     1  0.0000000  0.6508444  3
   3680   3683   3686   3692     1  0.0000000  0.6508444  3
   3686   3683   3680   3689     1  0.0000000  0.6508444  3
   3693   3696   3699   3705     1  0.0000000  0.6508444  3
   3699   3696   3693   3702     1  0.0000000  0.6508444  3
   3706   3709   3712   3718     1  0.0000000  0.6508444  3
   3712   3709   3706   3715     1  0.0000000  0.6508444  3
   3719   3722   3725   3731     1  0.0000000  0.6508444  3
   3725   3722   3719   3728     1  0.0000000  0.6508444  3
   3732   3735   3738   3744     1  0.0000000  0.6508444  3
   3738   3735   3732   3741     1  0.0000000  0.6508444  3
   3745   3748   3751   3757     1  0.0000000  0.6508444  3
   3751   3748   3745   3754     1  0.0000000  0.6508444  3
   3758   3761   3764   3770     1  0.0000000  0.6508444  3
   3764   3761   3758   3767     1  0.0000000  0.6508444  3
   3771   3774   3777   3783     1  0.0000000  0.6508444  3
   3777   3774   3771   3780     1  0.0000000  0.6508444  3
   3784   3787   3790   3796     1  0.0000000  0.6508444  3
   3790   3787   3784   3793     1  0.0000000  0.6508444  3
   3797   3800   3803   3809     1  0.0000000  0.6508444  3
   3803   3800   3797   3806     1  0.0000000  0.6508444  3
   3810   3813   3816   3822     1  0.0000000  0.6508444  3
   3816   3813   3810   3819     1  0.0000000  0.6508444  3
   3823   3826   3829   3835     1  0.0000000  0.6508444  3
   3829   3826   3823   3832     1  0.0000000  0.6508444  3
   3836   3839   3842   3848     1  0.0000000  0.6508444  3
   3842   3839   3836   3845     1  0.0000000  0.6508444  3
   3849   3852   3855   3861     1  0.0000000  0.6508444  3
   3855   3852   3849   3858     1  0.0000000  0.6508444  3
   3862   3865   3868   3874     1  0.0000000  0.6508444  3
   3868   3865   3862   3871     1  0.0000000  0.6508444  3
   3875   3878   3881   3887     1  0.0000000  0.6508444  3
   3881   3878   3875   3884     1  0.0000000  0.6508444  3
   3888   3891   3894   3900     1  0.0000000  0.6508444  3
   3894   3891   3888   3897     1  0.0000000  0.6508444  3
   3901   3904   3907   3913     1  0.0000000  0.6508444  3
   3907   3904   3901   3910     1  0.0000000  0.6508444  3
   3914   3917   3920   3926     1  0.0000000  0.6508444  3
   3920   3917   3914   3923     1  0.0000000  0.6508444  3
   3927   3930   3933   3939     1  0.0000000  0.6508444  3
   3933   3930   3927   3936     1  0.0000000  0.6508444  3
   3940   3943   3946   3952     1  0.0000000  0.6508444  3
   3946   3943   3940   3949     1  0.0000000  0.6508444  3
   3953   3956   3959   3965     1  0.0000000  0.6508444  3
   3959   3956   3953   3962     1  0.0000000  0.6508444  3
   3966   3969   3972   3978     1  0.0000000  0.6508444  3
   3972   3969   3966   3975     1  0.0000000  0.6508444  3
   3979   3982   3985   3991     1  0.0000000  0.6508444  3
   3985   3982   3979   3988     1  0.0000000  0.6508444  3
   3992   3995   3998   4004     1  0.0000000  0.6508444  3
   3998   3995   3992   4001     1  0.0000000  0.6508444  3
   4005   4008   4011   4017     1  0.0000000  0.6508444  3
   4011   4008   4005   4014     1  0.0000000  0.6508444  3
   4018   4021   4024   4030     1  0.0000000  0.6508444  3
   4024   4021   4018   4027     1  0.0000000  0.6508444  3
   4031   4034   4037   4043     1  0.0000000  0.6508444  3
   4037   4034   4031   4040     1  0.0000000  0.6508444  3
   4044   4047   4050   4056     1  0.0000000  0.6508444  3
   4050   4047   4044   4053     1  0.0000000  0.6508444  3
   4057   4060   4063   4069     1  0.0000000  0.6508444  3
   4063   4060   4057   4066     1  0.0000000  0.6508444  3
   4070   4073   4076   4082     1  0.0000000  0.6508444  3
   4076   4073   4070   4079     1  0.0000000  0.6508444  3
   4083   4086   4089   4095     1  0.0000000  0.6508444  3
   4089   4086   4083   4092     1  0.0000000  0.6508444  3
   4096   4099   4102   4108     1  0.0000000  0.6508444  3
   4102   4099   4096   4105     1  0.0000000  0.6508444  3
   4109   4112   4115   4121     1  0.0000000  0.6508444  3
   4115   4112   4109   4118     1  0.0000000  0.6508444  3
   4122   4125   4128   4134     1  0.0000000  0.6508444  3
   4128   4125   4122   4131     1  0.0000000  0.6508444  3
   4135   4138   4141   4147     1  0.0000000  0.6508444  3
   4141   4138   4135   4144     1  0.0000000  0.6508444  3
   4148   4151   4154   4160     1  0.0000000  0.6508444  3
   4154   4151   4148   4157     1  0.0000000  0.6508444  3
   4161   4164   4167   4173     1  0.0000000  0.6508444  3
   4167   4164   4161   4170     1  0.0000000  0.6508444  3
   4174   4177   4180   4186     1  0.0000000  0.6508444  3
   4180   4177   4174   4183     1  0.0000000  0.6508444  3
   4187   4190   4193   4199     1  0.0000000  0.6508444  3
   4193   4190   4187   4196     1  0.0000000  0.6508444  3
   4200   4203   4206   4212     1  0.0000000  0.6508444  3
   4206   4203   4200   4209     1  0.0000000  0.6508444  3
   4213   4216   4219   4225     1  0.0000000  0.6508444  3
   4219   4216   4213   4222     1  0.0000000  0.6508444  3
   4226   4229   4232   4238     1  0.0000000  0.6508444  3
   4232   4229   4226   4235     1  0.0000000  0.6508444  3
   4239   4242   4245   4251     1  0.0000000  0.6508444  3
   4245   4242   4239   4248     1  0.0000000  0.6508444  3
   4252   4255   4258   4264     1  0.0000000  0.6508444  3
   4258   4255   4252   4261     1  0.0000000  0.6508444  3
   4265   4268   4271   4277     1  0.0000000  0.6508444  3
   4271   4268   4265   4274     1  0.0000000  0.6508444  3
   4278   4281   4284   4290     1  0.0000000  0.6508444  3
   4284   4281   4278   4287     1  0.0000000  0.6508444  3
   4291   4294   4297   4303     1  0.0000000  0.6508444  3
   4297   4294   4291   4300     1  0.0000000  0.6508444  3
   4304   4307   4310   4316     1  0.0000000  0.6508444  3
   4310   4307   4304   4313     1  0.0000000  0.6508444  3
   4317   4320   4323   4329     1  0.0000000  0.6508444  3
   4323   4320   4317   4326     1  0.0000000  0.6508444  3
   4330   4333   4336   4342     1  0.0000000  0.6508444  3
   4336   4333   4330   4339     1  0.0000000  0.6508444  3
   4343   4346   4349   4355     1  0.0000000  0.6508444  3
   4349   4346   4343   4352     1  0.0000000  0.6508444  3
   4356   4359   4362   4368     1  0.0000000  0.6508444  3
   4362   4359   4356   4365     1  0.0000000  0.6508444  3
   4369   4372   4375   4381     1  0.0000000  0.6508444  3
   4375   4372   4369   4378     1  0.0000000  0.6508444  3
   4382   4385   4388   4394     1  0.0000000  0.6508444  3
   4388   4385   4382   4391     1  0.0000000  0.6508444  3
   4395   4398   4401   4407     1  0.0000000  0.6508444  3
   4401   4398   4395   4404     1  0.0000000  0.6508444  3
   4408   4411   4414   4420     1  0.0000000  0.6508444  3
   4414   4411   4408   4417     1  0.0000000  0.6508444  3
   4421   4424   4427   4433     1  0.0000000  0.6508444  3
   4427   4424   4421   4430     1  0.0000000  0.6508444  3
   4434   4437   4440   4446     1  0.0000000  0.6508444  3
   4440   4437   4434   4443     1  0.0000000  0.6508444  3
   4447   4450   4453   4459     1  0.0000000  0.6508444  3
   4453   4450   4447   4456     1  0.0000000  0.6508444  3
   4460   4463   4466   4472     1  0.0000000  0.6508444  3
   4466   4463   4460   4469     1  0.0000000  0.6508444  3
   4473   4476   4479   4485     1  0.0000000  0.6508444  3
   4479   4476   4473   4482     1  0.0000000  0.6508444  3
   4486   4489   4492   4498     1  0.0000000  0.6508444  3
   4492   4489   4486   4495     1  0.0000000  0.6508444  3
   4499   4502   4505   4511     1  0.0000000  0.6508444  3
   4505   4502   4499   4508     1  0.0000000  0.6508444  3
   4512   4515   4518   4524     1  0.0000000  0.6508444  3
   4518   4515   4512   4521     1  0.0000000  0.6508444  3
   4525   4528   4531   4537     1  0.0000000  0.6508444  3
   4531   4528   4525   4534     1  0.0000000  0.6508444  3
   4538   4541   4544   4550     1  0.0000000  0.6508444  3
   4544   4541   4538   4547     1  0.0000000  0.6508444  3
   4551   4554   4557   4563     1  0.0000000  0.6508444  3
   4557   4554   4551   4560     1  0.0000000  0.6508444  3
   4564   4567   4570   4576     1  0.0000000  0.6508444  3
   4570   4567   4564   4573     1  0.0000000  0.6508444  3
   4577   4580   4583   4589     1  0.0000000  0.6508444  3
   4583   4580   4577   4586     1  0.0000000  0.6508444  3
   4590   4593   4596   4602     1  0.0000000  0.6508444  3
   4596   4593   4590   4599     1  0.0000000  0.6508444  3
   4603   4606   4609   4615     1  0.0000000  0.6508444  3
   4609   4606   4603   4612     1  0.0000000  0.6508444  3
   4616   4619   4622   4628     1  0.0000000  0.6508444  3
   4622   4619   4616   4625     1  0.0000000  0.6508444  3
   4629   4632   4635   4641     1  0.0000000  0.6508444  3
   4635   4632   4629   4638     1  0.0000000  0.6508444  3
   4642   4645   4648   4654     1  0.0000000  0.6508444  3
   4648   4645   4642   4651     1  0.0000000  0.6508444  3
   4655   4658   4661   4667     1  0.0000000  0.6508444  3
   4661   4658   4655   4664     1  0.0000000  0.6508444  3
   4668   4671   4674   4680     1  0.0000000  0.6508444  3
   4674   4671   4668   4677     1  0.0000000  0.6508444  3
   4681   4684   4687   4693     1  0.0000000  0.6508444  3
   4687   4684   4681   4690     1  0.0000000  0.6508444  3
   4694   4697   4700   4706     1  0.0000000  0.6508444  3
   4700   4697   4694   4703     1  0.0000000  0.6508444  3
   4707   4710   4713   4719     1  0.0000000  0.6508444  3
   4713   4710   4707   4716     1  0.0000000  0.6508444  3
   4720   4723   4726   4732     1  0.0000000  0.6508444  3
   4726   4723   4720   4729     1  0.0000000  0.6508444  3
   4733   4736   4739   4745     1  0.0000000  0.6508444  3
   4739   4736   4733   4742     1  0.0000000  0.6508444  3
   4746   4749   4752   4758     1  0.0000000  0.6508444  3
   4752   4749   4746   4755     1  0.0000000  0.6508444  3
   4759   4762   4765   4771     1  0.0000000  0.6508444  3
   4765   4762   4759   4768     1  0.0000000  0.6508444  3
   4772   4775   4778   4784     1  0.0000000  0.6508444  3
   4778   4775   4772   4781     1  0.0000000  0.6508444  3
   4785   4788   4791   4797     1  0.0000000  0.6508444  3
   4791   4788   4785   4794     1  0.0000000  0.6508444  3
   4798   4801   4804   4810     1  0.0000000  0.6508444  3
   4804   4801   4798   4807     1  0.0000000  0.6508444  3
   4811   4814   4817   4823     1  0.0000000  0.6508444  3
   4817   4814   4811   4820     1  0.0000000  0.6508444  3
   4824   4827   4830   4836     1  0.0000000  0.6508444  3
   4830   4827   4824   4833     1  0.0000000  0.6508444  3
   4837   4840   4843   4849     1  0.0000000  0.6508444  3
   4843   4840   4837   4846     1  0.0000000  0.6508444  3
   4850   4853   4856   4862     1  0.0000000  0.6508444  3
   4856   4853   4850   4859     1  0.0000000  0.6508444  3
   4863   4866   4869   4875     1  0.0000000  0.6508444  3
   4869   4866   4863   4872     1  0.0000000  0.6508444  3
   4876   4879   4882   4888     1  0.0000000  0.6508444  3
   4882   4879   4876   4885     1  0.0000000  0.6508444  3
   4889   4892   4895   4901     1  0.0000000  0.6508444  3
   4895   4892   4889   4898     1  0.0000000  0.6508444  3
   4902   4905   4908   4914     1  0.0000000  0.6508444  3
   4908   4905   4902   4911     1  0.0000000  0.6508444  3
   4915   4918   4921   4927     1  0.0000000  0.6508444  3
   4921   4918   4915   4924     1  0.0000000  0.6508444  3
   4928   4931   4934   4940     1  0.0000000  0.6508444  3
   4934   4931   4928   4937     1  0.0000000  0.6508444  3
   4941   4944   4947   4953     1  0.0000000  0.6508444  3
   4947   4944   4941   4950     1  0.0000000  0.6508444  3
   4954   4957   4960   4966     1  0.0000000  0.6508444  3
   4960   4957   4954   4963     1  0.0000000  0.6508444  3
   4967   4970   4973   4979     1  0.0000000  0.6508444  3
   4973   4970   4967   4976     1  0.0000000  0.6508444  3
   4980   4983   4986   4992     1  0.0000000  0.6508444  3
   4986   4983   4980   4989     1  0.0000000  0.6508444  3
   4993   4996   4999   5005     1  0.0000000  0.6508444  3
   4999   4996   4993   5002     1  0.0000000  0.6508444  3
   5006   5009   5012   5018     1  0.0000000  0.6508444  3
   5012   5009   5006   5015     1  0.0000000  0.6508444  3
   5019   5022   5025   5031     1  0.0000000  0.6508444  3
   5025   5022   5019   5028     1  0.0000000  0.6508444  3
   5032   5035   5038   5044     1  0.0000000  0.6508444  3
   5038   5035   5032   5041     1  0.0000000  0.6508444  3
   5045   5048   5051   5057     1  0.0000000  0.6508444  3
   5051   5048   5045   5054     1  0.0000000  0.6508444  3
   5058   5061   5064   5070     1  0.0000000  0.6508444  3
   5064   5061   5058   5067     1  0.0000000  0.6508444  3
   5071   5074   5077   5083     1  0.0000000  0.6508444  3
   5077   5074   5071   5080     1  0.0000000  0.6508444  3
   5084   5087   5090   5096     1  0.0000000  0.6508444  3
   5090   5087   5084   5093     1  0.0000000  0.6508444  3
   5097   5100   5103   5109     1  0.0000000  0.6508444  3
   5103   5100   5097   5106     1  0.0000000  0.6508444  3
   5110   5113   5116   5122     1  0.0000000  0.6508444  3
   5116   5113   5110   5119     1  0.0000000  0.6508444  3
   5123   5126   5129   5135     1  0.0000000  0.6508444  3
   5129   5126   5123   5132     1  0.0000000  0.6508444  3
   5136   5139   5142   5148     1  0.0000000  0.6508444  3
   5142   5139   5136   5145     1  0.0000000  0.6508444  3
   5149   5152   5155   5161     1  0.0000000  0.6508444  3
   5155   5152   5149   5158     1  0.0000000  0.6508444  3
   5162   5165   5168   5174     1  0.0000000  0.6508444  3
   5168   5165   5162   5171     1  0.0000000  0.6508444  3
   5175   5178   5181   5187     1  0.0000000  0.6508444  3
   5181   5178   5175   5184     1  0.0000000  0.6508444  3
   5188   5191   5194   5200     1  0.0000000  0.6508444  3
   5194   5191   5188   5197     1  0.0000000  0.6508444  3
   5201   5204   5207   5213     1  0.0000000  0.6508444  3
   5207   5204   5201   5210     1  0.0000000  0.6508444  3
   5214   5217   5220   5226     1  0.0000000  0.6508444  3
   5220   5217   5214   5223     1  0.0000000  0.6508444  3
   5227   5230   5233   5239     1  0.0000000  0.6508444  3
   5233   5230   5227   5236     1  0.0000000  0.6508444  3
   5240   5243   5246   5252     1  0.0000000  0.6508444  3
   5246   5243   5240   5249     1  0.0000000  0.6508444  3
   5253   5256   5259   5265     1  0.0000000  0.6508444  3
   5259   5256   5253   5262     1  0.0000000  0.6508444  3
   5266   5269   5272   5278     1  0.0000000  0.6508444  3
   5272   5269   5266   5275     1  0.0000000  0.6508444  3
   5279   5282   5285   5291     1  0.0000000  0.6508444  3
   5285   5282   5279   5288     1  0.0000000  0.6508444  3
   5292   5295   5298   5304     1  0.0000000  0.6508444  3
   5298   5295   5292   5301     1  0.0000000  0.6508444  3
   5305   5308   5311   5317     1  0.0000000  0.6508444  3
   5311   5308   5305   5314     1  0.0000000  0.6508444  3
      1      2      8      9     1  0.0000000  1.0460000  1
      1      2      8      9     1  0.0000000  0.0000000  3
      1      2      8     10     1  0.0000000  1.0460000  1
      1      2      8     10     1  0.0000000  0.0000000  3
      1      5     11     12     1  0.0000000  1.0460000  1
      1      5     11     12     1  0.0000000  0.0000000  3
      1      5     11     13     1  0.0000000  1.0460000  1
      1      5     11     13     1  0.0000000  0.0000000  3
      2      1      5      6     1  0.0000000  1.6038667  3
      2      1      5      7     1  0.0000000  1.6038667  3
      2      8     14     15     1  0.0000000  0.6508444  3
      2      8     14     16     1  0.0000000  0.6508444  3
      5      1      2      3     1  0.0000000  1.6038667  3
      3      2      8     14     1  0.0000000  0.6508444  3
      3      2      8      9     1  0.0000000  0.6508444  3
      3      2      8     10     1  0.0000000  0.6508444  3
      5      1      2      4     1  0.0000000  1.6038667  3
      4      2      8     14     1  0.0000000  0.6508444  3
      4      2      8      9     1  0.0000000  0.6508444  3
      4      2      8     10     1  0.0000000  0.6508444  3
      5     11     17     18     1  0.0000000  0.6508444  3
      5     11     17     19     1  0.0000000  0.6508444  3
      6      5     11     17     1  0.0000000  0.6508444  3
      6      5     11     12     1  0.0000000  0.6508444  3
      6      5     11     13     1  0.0000000  0.6508444  3
      7      5     11     17     1  0.0000000  0.6508444  3
      7      5     11     12     1  0.0000000  0.6508444  3
      7      5     11     13     1  0.0000000  0.6508444  3
      9      8     14     20     1  0.0000000  0.6508444  3
      9      8     14     15     1  0.0000000  0.6508444  3
      9      8     14     16     1  0.0000000  0.6508444  3
     10      8     14     20     1  0.0000000  0.6508444  3
     10      8     14     15     1  0.0000000  0.6508444  3
     10      8     14     16     1  0.0000000  0.6508444  3
     12     11     17     21     1  0.0000000  0.6508444  3
     12     11     17     18     1  0.0000000  0.6508444  3
     12     11     17     19     1  0.0000000  0.6508444  3
     13     11     17     21     1  0.0000000  0.6508444  3
     13     11     17     18     1  0.0000000  0.6508444  3
     13     11     17     19     1  0.0000000  0.6508444  3
     14     20     28     29     1  0.0000000  1.2552000  3
     14     20     28     30     1  0.0000000  1.2552000  3
     14     20     31     32     1  0.0000000  1.2552000  3
     14     20     31     33     1  0.0000000  1.2552000  3
     15     14     20     28     1  0.0000000  1.2552000  3
     15     14     20     31     1  0.0000000  1.2552000  3
     16     14     20     28     1  0.0000000  1.2552000  3
     16     14     20     31     1  0.0000000  1.2552000  3
     17     21     22     23     1  0.0000000  1.2552000  3
     17     21     22     24     1  0.0000000  1.2552000  3
     17     21     25     26     1  0.0000000  1.2552000  3
     17     21     25     27     1  0.0000000  1.2552000  3
     18     17     21     22     1  0.0000000  1.2552000  3
     18     17     21     25     1  0.0000000  1.2552000  3
     19     17     21     22     1  0.0000000  1.2552000  3
     19     17     21     25     1  0.0000000  1.2552000  3
     20     28     40     41     1  0.0000000  0.6508444  3
     20     28     40     42     1  0.0000000  0.6508444  3
     20     31     43     44     1  0.0000000  0.6508444  3
     20     31     43     45     1  0.0000000  0.6508444  3
     21     22     34     35     1  0.0000000  0.6508444  3
     21     22     34     36     1  0.0000000  0.6508444  3
     21     25     37     38     1  0.0000000  0.6508444  3
     21     25     37     39     1  0.0000000  0.6508444  3
     22     21     25     26     1  0.0000000  1.2552000  3
     22     21     25     27     1  0.0000000  1.2552000  3
     22     34     55     56     1  0.0000000  0.6508444  3
     22     34     55     57     1  0.0000000  0.6508444  3
     23     22     21     25     1  0.0000000  1.2552000  3
     23     22     34     55     1  0.0000000  0.6508444  3
     23     22     34     35     1  0.0000000  0.6508444  3
     23     22     34     36     1  0.0000000  0.6508444  3
     24     22     21     25     1  0.0000000  1.2552000  3
     24     22     34     55     1  0.0000000  0.6508444  3
     24     22     34     35     1  0.0000000  0.6508444  3
     24     22     34     36     1  0.0000000  0.6508444  3
     25     37     52     53     1  0.0000000  0.6508444  3
     25     37     52     54     1  0.0000000  0.6508444  3
     26     25     37     52     1  0.0000000  0.6508444  3
     26     25     37     38     1  0.0000000  0.6508444  3
     26     25     37     39     1  0.0000000  0.6508444  3
     27     25     37     52     1  0.0000000  0.6508444  3
     27     25     37     38     1  0.0000000  0.6508444  3
     27     25     37     39     1  0.0000000  0.6508444  3
     28     20     31     32     1  0.0000000  1.2552000  3
     28     20     31     33     1  0.0000000  1.2552000  3
     28     40     49     50     1  0.0000000  0.6508444  3
     28     40     49     51     1  0.0000000  0.6508444  3
     29     28     20     31     1  0.0000000  1.2552000  3
     29     28     40     49     1  0.0000000  0.6508444  3
     29     28     40     41     1  0.0000000  0.6508444  3
     29     28     40     42     1  0.0000000  0.6508444  3
     30     28     20     31     1  0.0000000  1.2552000  3
     30     28     40     49     1  0.0000000  0.6508444  3
     30     28     40     41     1  0.0000000  0.6508444  3
     30     28     40     42     1  0.0000000  0.6508444  3
     31     43     46     47     1  0.0000000  0.6508444  3
     31     43     46     48     1  0.0000000  0.6508444  3
     32     31     43     46     1  0.0000000  0.6508444  3
     32     31     43     44     1  0.0000000  0.6508444  3
     32     31     43     45     1  0.0000000  0.6508444  3
     33     31     43     46     1  0.0000000  0.6508444  3
     33     31     43     44     1  0.0000000  0.6508444  3
     33     31     43     45     1  0.0000000  0.6508444  3
     35     34     55    173     1  0.0000000  1.0460000  1
     35     34     55    173     1  0.0000000  0.0000000  3
     35     34     55     56     1  0.0000000  0.6508444  3
     35     34     55     57     1  0.0000000  0.6508444  3
     36     34     55    173     1  0.0000000  1.0460000  1
     36     34     55    173     1  0.0000000  0.0000000  3
     36     34     55     56     1  0.0000000  0.6508444  3
     36     34     55     57     1  0.0000000  0.6508444  3
     38     37     52    144     1  0.0000000  1.0460000  1
     38     37     52    144     1  0.0000000  0.0000000  3
     38     37     52     53     1  0.0000000  0.6508444  3
     38     37     52     54     1  0.0000000  0.6508444  3
     39     37     52    144     1  0.0000000  1.0460000  1
     39     37     52    144     1  0.0000000  0.0000000  3
     39     37     52     53     1  0.0000000  0.6508444  3
     39     37     52     54     1  0.0000000  0.6508444  3
     41     40     49    115     1  0.0000000  1.0460000  1
     41     40     49    115     1  0.0000000  0.0000000  3
     41     40     49     50     1  0.0000000  0.6508444  3
     41     40     49     51     1  0.0000000  0.6508444  3
     42     40     49    115     1  0.0000000  1.0460000  1
     42     40     49    115     1  0.0000000  0.0000000  3
     42     40     49     50     1  0.0000000  0.6508444  3
     42     40     49     51     1  0.0000000  0.6508444  3
     44     43     46     86     1  0.0000000  1.0460000  1
     44     43     46     86     1  0.0000000  0.0000000  3
     44     43     46     47     1  0.0000000  0.6508444  3
     44     43     46     48     1  0.0000000  0.6508444  3
     45     43     46     86     1  0.0000000  1.0460000  1
     45     43     46     86     1  0.0000000  0.0000000  3
     45     43     46     47     1  0.0000000  0.6508444  3
     45     43     46     48     1  0.0000000  0.6508444  3
     46     86     77     78     1  0.0000000  1.6038667  3
     46     86     77     79     1  0.0000000  1.6038667  3
     47     46     86     77     1  0.0000000  1.6038667  3
     48     46     86     77     1  0.0000000  1.6038667  3
     49    115    106    107     1  0.0000000  1.6038667  3
     49    115    106    108     1  0.0000000  1.6038667  3
     50     49    115    106     1  0.0000000  1.6038667  3
     51     49    115    106     1  0.0000000  1.6038667  3
     52    144    135    136     1  0.0000000  1.6038667  3
     52    144    135    137     1  0.0000000  1.6038667  3
     53     52    144    135     1  0.0000000  1.6038667  3
     54     52    144    135     1  0.0000000  1.6038667  3
     55    173    164    165     1  0.0000000  1.6038667  3
     55    173    164    166     1  0.0000000  1.6038667  3
     56     55    173    164     1  0.0000000  1.6038667  3
     57     55    173    164     1  0.0000000  1.6038667  3
     58     59     71     72     1  0.0000000  0.6508444  3
     58     59     71     73     1  0.0000000  0.6508444  3
     58     62     74     75     1  0.0000000  0.6508444  3
     58     62     74     76     1  0.0000000  0.6508444  3
     58     65     68     69     1  0.0000000  0.6508444  3
     58     65     68     70     1  0.0000000  0.6508444  3
     59     58     62     63     1  0.0000000  1.2552000  3
     59     58     62     64     1  0.0000000  1.2552000  3
     59     58     65     66     1  0.0000000  1.2552000  3
     59     58     65     67     1  0.0000000  1.2552000  3
     59     71     83     84     1  0.0000000  0.6508444  3
     59     71     83     85     1  0.0000000  0.6508444  3
     60     59     58     62     1  0.0000000  1.2552000  3
     60     59     58     65     1  0.0000000  1.2552000  3
     60     59     71     83     1  0.0000000  0.6508444  3
     60     59     71     72     1  0.0000000  0.6508444  3
     60     59     71     73     1  0.0000000  0.6508444  3
     61     59     58     62     1  0.0000000  1.2552000  3
     61     59     58     65     1  0.0000000  1.2552000  3
     61     59     71     83     1  0.0000000  0.6508444  3
     61     59     71     72     1  0.0000000  0.6508444  3
     61     59     71     73     1  0.0000000  0.6508444  3
     62     58     65     66     1  0.0000000  1.2552000  3
     62     58     65     67     1  0.0000000  1.2552000  3
     62     74     80     81     1  0.0000000  0.6508444  3
     62     74     80     82     1  0.0000000  0.6508444  3
     63     62     58     65     1  0.0000000  1.2552000  3
     63     62     74     80     1  0.0000000  0.6508444  3
     63     62     74     75     1  0.0000000  0.6508444  3
     63     62     74     76     1  0.0000000  0.6508444  3
     64     62     58     65     1  0.0000000  1.2552000  3
     64     62     74     80     1  0.0000000  0.6508444  3
     64     62     74     75     1  0.0000000  0.6508444  3
     64     62     74     76     1  0.0000000  0.6508444  3
     65     68     77     78     1  0.0000000  0.6508444  3
     65     68     77     79     1  0.0000000  0.6508444  3
     66     65     68     77     1  0.0000000  0.6508444  3
     66     65     68     69     1  0.0000000  0.6508444  3
     66     65     68     70     1  0.0000000  0.6508444  3
     67     65     68     77     1  0.0000000  0.6508444  3
     67     65     68     69     1  0.0000000  0.6508444  3
     67     65     68     70     1  0.0000000  0.6508444  3
     69     68     77     86     1  0.0000000  1.0460000  1
     69     68     77     86     1  0.0000000  0.0000000  3
     69     68     77     78     1  0.0000000  0.6508444  3
     69     68     77     79     1  0.0000000  0.6508444  3
     70     68     77     86     1  0.0000000  1.0460000  1
     70     68     77     86     1  0.0000000  0.0000000  3
     70     68     77     78     1  0.0000000  0.6508444  3
     70     68     77     79     1  0.0000000  0.6508444  3
     72     71     83    231     1  0.0000000  1.0460000  1
     72     71     83    231     1  0.0000000  0.0000000  3
     72     71     83     84     1  0.0000000  0.6508444  3
     72     71     83     85     1  0.0000000  0.6508444  3
     73     71     83    231     1  0.0000000  1.0460000  1
     73     71     83    231     1  0.0000000  0.0000000  3
     73     71     83     84     1  0.0000000  0.6508444  3
     73     71     83     85     1  0.0000000  0.6508444  3
     75     74     80    202     1  0.0000000  1.0460000  1
     75     74     80    202     1  0.0000000  0.0000000  3
     75     74     80     81     1  0.0000000  0.6508444  3
     75     74     80     82     1  0.0000000  0.6508444  3
     76     74     80    202     1  0.0000000  1.0460000  1
     76     74     80    202     1  0.0000000  0.0000000  3
     76     74     80     81     1  0.0000000  0.6508444  3
     76     74     80     82     1  0.0000000  0.6508444  3
     80    202    193    194     1  0.0000000  1.6038667  3
     80    202    193    195     1  0.0000000  1.6038667  3
     81     80    202    193     1  0.0000000  1.6038667  3
     82     80    202    193     1  0.0000000  1.6038667  3
     83    231    222    223     1  0.0000000  1.6038667  3
     83    231    222    224     1  0.0000000  1.6038667  3
     84     83    231    222     1  0.0000000  1.6038667  3
     85     83    231    222     1  0.0000000  1.6038667  3
     87     88    100    101     1  0.0000000  0.6508444  3
     87     88    100    102     1  0.0000000  0.6508444  3
     87     91    103    104     1  0.0000000  0.6508444  3
     87     91    103    105     1  0.0000000  0.6508444  3
     87     94     97     98     1  0.0000000  0.6508444  3
     87     94     97     99     1  0.0000000  0.6508444  3
     88     87     91     92     1  0.0000000  1.2552000  3
     88     87     91     93     1  0.0000000  1.2552000  3
     88     87     94     95     1  0.0000000  1.2552000  3
     88     87     94     96     1  0.0000000  1.2552000  3
     88    100    112    113     1  0.0000000  0.6508444  3
     88    100    112    114     1  0.0000000  0.6508444  3
     89     88     87     91     1  0.0000000  1.2552000  3
     89     88     87     94     1  0.0000000  1.2552000  3
     89     88    100    112     1  0.0000000  0.6508444  3
     89     88    100    101     1  0.0000000  0.6508444  3
     89     88    100    102     1  0.0000000  0.6508444  3
     90     88     87     91     1  0.0000000  1.2552000  3
     90     88     87     94     1  0.0000000  1.2552000  3
     90     88    100    112     1  0.0000000  0.6508444  3
     90     88    100    101     1  0.0000000  0.6508444  3
     90     88    100    102     1  0.0000000  0.6508444  3
     91     87     94     95     1  0.0000000  1.2552000  3
     91     87     94     96     1  0.0000000  1.2552000  3
     91    103    109    110     1  0.0000000  0.6508444  3
     91    103    109    111     1  0.0000000  0.6508444  3
     92     91     87     94     1  0.0000000  1.2552000  3
     92     91    103    109     1  0.0000000  0.6508444  3
     92     91    103    104     1  0.0000000  0.6508444  3
     92     91    103    105     1  0.0000000  0.6508444  3
     93     91     87     94     1  0.0000000  1.2552000  3
     93     91    103    109     1  0.0000000  0.6508444  3
     93     91    103    104     1  0.0000000  0.6508444  3
     93     91    103    105     1  0.0000000  0.6508444  3
     94     97    106    107     1  0.0000000  0.6508444  3
     94     97    106    108     1  0.0000000  0.6508444  3
     95     94     97    106     1  0.0000000  0.6508444  3
     95     94     97     98     1  0.0000000  0.6508444  3
     95     94     97     99     1  0.0000000  0.6508444  3
     96     94     97    106     1  0.0000000  0.6508444  3
     96     94     97     98     1  0.0000000  0.6508444  3
     96     94     97     99     1  0.0000000  0.6508444  3
     98     97    106    115     1  0.0000000  1.0460000  1
     98     97    106    115     1  0.0000000  0.0000000  3
     98     97    106    107     1  0.0000000  0.6508444  3
     98     97    106    108     1  0.0000000  0.6508444  3
     99     97    106    115     1  0.0000000  1.0460000  1
     99     97    106    115     1  0.0000000  0.0000000  3
     99     97    106    107     1  0.0000000  0.6508444  3
     99     97    106    108     1  0.0000000  0.6508444  3
    101    100    112    289     1  0.0000000  1.0460000  1
    101    100    112    289     1  0.0000000  0.0000000  3
    101    100    112    113     1  0.0000000  0.6508444  3
    101    100    112    114     1  0.0000000  0.6508444  3
    102    100    112    289     1  0.0000000  1.0460000  1
    102    100    112    289     1  0.0000000  0.0000000  3
    102    100    112    113     1  0.0000000  0.6508444  3
    102    100    112    114     1  0.0000000  0.6508444  3
    104    103    109    260     1  0.0000000  1.0460000  1
    104    103    109    260     1  0.0000000  0.0000000  3
    104    103    109    110     1  0.0000000  0.6508444  3
    104    103    109    111     1  0.0000000  0.6508444  3
    105    103    109    260     1  0.0000000  1.0460000  1
    105    103    109    260     1  0.0000000  0.0000000  3
    105    103    109    110     1  0.0000000  0.6508444  3
    105    103    109    111     1  0.0000000  0.6508444  3
    109    260    251    252     1  0.0000000  1.6038667  3
    109    260    251    253     1  0.0000000  1.6038667  3
    110    109    260    251     1  0.0000000  1.6038667  3
    111    109    260    251     1  0.0000000  1.6038667  3
    112    289    280    281     1  0.0000000  1.6038667  3
    112    289    280    282     1  0.0000000  1.6038667  3
    113    112    289    280     1  0.0000000  1.6038667  3
    114    112    289    280     1  0.0000000  1.6038667  3
    116    117    129    130     1  0.0000000  0.6508444  3
    116    117    129    131     1  0.0000000  0.6508444  3
    116    120    132    133     1  0.0000000  0.6508444  3
    116    120    132    134     1  0.0000000  0.6508444  3
    116    123    126    127     1  0.0000000  0.6508444  3
    116    123    126    128     1  0.0000000  0.6508444  3
    117    116    120    121     1  0.0000000  1.2552000  3
    117    116    120    122     1  0.0000000  1.2552000  3
    117    116    123    124     1  0.0000000  1.2552000  3
    117    116    123    125     1  0.0000000  1.2552000  3
    117    129    141    142     1  0.0000000  0.6508444  3
    117    129    141    143     1  0.0000000  0.6508444  3
    118    117    116    120     1  0.0000000  1.2552000  3
    118    117    116    123     1  0.0000000  1.2552000  3
    118    117    129    141     1  0.0000000  0.6508444  3
    118    117    129    130     1  0.0000000  0.6508444  3
    118    117    129    131     1  0.0000000  0.6508444  3
    119    117    116    120     1  0.0000000  1.2552000  3
    119    117    116    123     1  0.0000000  1.2552000  3
    119    117    129    141     1  0.0000000  0.6508444  3
    119    117    129    130     1  0.0000000  0.6508444  3
    119    117    129    131     1  0.0000000  0.6508444  3
    120    116    123    124     1  0.0000000  1.2552000  3
    120    116    123    125     1  0.0000000  1.2552000  3
    120    132    138    139     1  0.0000000  0.6508444  3
    120    132    138    140     1  0.0000000  0.6508444  3
    121    120    116    123     1  0.0000000  1.2552000  3
    121    120    132    138     1  0.0000000  0.6508444  3
    121    120    132    133     1  0.0000000  0.6508444  3
    121    120    132    134     1  0.0000000  0.6508444  3
    122    120    116    123     1  0.0000000  1.2552000  3
    122    120    132    138     1  0.0000000  0.6508444  3
    122    120    132    133     1  0.0000000  0.6508444  3
    122    120    132    134     1  0.0000000  0.6508444  3
    123    126    135    136     1  0.0000000  0.6508444  3
    123    126    135    137     1  0.0000000  0.6508444  3
    124    123    126    135     1  0.0000000  0.6508444  3
    124    123    126    127     1  0.0000000  0.6508444  3
    124    123    126    128     1  0.0000000  0.6508444  3
    125    123    126    135     1  0.0000000  0.6508444  3
    125    123    126    127     1  0.0000000  0.6508444  3
    125    123    126    128     1  0.0000000  0.6508444  3
    127    126    135    144     1  0.0000000  1.0460000  1
    127    126    135    144     1  0.0000000  0.0000000  3
    127    126    135    136     1  0.0000000  0.6508444  3
    127    126    135    137     1  0.0000000  0.6508444  3
    128    126    135    144     1  0.0000000  1.0460000  1
    128    126    135    144     1  0.0000000  0.0000000  3
    128    126    135    136     1  0.0000000  0.6508444  3
    128    126    135    137     1  0.0000000  0.6508444  3
    130    129    141    347     1  0.0000000  1.0460000  1
    130    129    141    347     1  0.0000000  0.0000000  3
    130    129    141    142     1  0.0000000  0.6508444  3
    130    129    141    143     1  0.0000000  0.6508444  3
    131    129    141    347     1  0.0000000  1.0460000  1
    131    129    141    347     1  0.0000000  0.0000000  3
    131    129    141    142     1  0.0000000  0.6508444  3
    131    129    141    143     1  0.0000000  0.6508444  3
    133    132    138    318     1  0.0000000  1.0460000  1
    133    132    138    318     1  0.0000000  0.0000000  3
    133    132    138    139     1  0.0000000  0.6508444  3
    133    132    138    140     1  0.0000000  0.6508444  3
    134    132    138    318     1  0.0000000  1.0460000  1
    134    132    138    318     1  0.0000000  0.0000000  3
    134    132    138    139     1  0.0000000  0.6508444  3
    134    132    138    140     1  0.0000000  0.6508444  3
    138    318    309    310     1  0.0000000  1.6038667  3
    138    318    309    311     1  0.0000000  1.6038667  3
    139    138    318    309     1  0.0000000  1.6038667  3
    140    138    318    309     1  0.0000000  1.6038667  3
    141    347    338    339     1  0.0000000  1.6038667  3
    141    347    338    340     1  0.0000000  1.6038667  3
    142    141    347    338     1  0.0000000  1.6038667  3
    143    141    347    338     1  0.0000000  1.6038667  3
    145    146    158    159     1  0.0000000  0.6508444  3
    145    146    158    160     1  0.0000000  0.6508444  3
    145    149    161    162     1  0.0000000  0.6508444  3
    145    149    161    163     1  0.0000000  0.6508444  3
    145    152    155    156     1  0.0000000  0.6508444  3
    145    152    155    157     1  0.0000000  0.6508444  3
    146    145    149    150     1  0.0000000  1.2552000  3
    146    145    149    151     1  0.0000000  1.2552000  3
    146    145    152    153     1  0.0000000  1.2552000  3
    146    145    152    154     1  0.0000000  1.2552000  3
    146    158    170    171     1  0.0000000  0.6508444  3
    146    158    170    172     1  0.0000000  0.6508444  3
    147    146    145    149     1  0.0000000  1.2552000  3
    147    146    145    152     1  0.0000000  1.2552000  3
    147    146    158    170     1  0.0000000  0.6508444  3
    147    146    158    159     1  0.0000000  0.6508444  3
    147    146    158    160     1  0.0000000  0.6508444  3
    148    146    145    149     1  0.0000000  1.2552000  3
    148    146    145    152     1  0.0000000  1.2552000  3
    148    146    158    170     1  0.0000000  0.6508444  3
    148    146    158    159     1  0.0000000  0.6508444  3
    148    146    158    160     1  0.0000000  0.6508444  3
    149    145    152    153     1  0.0000000  1.2552000  3
    149    145    152    154     1  0.0000000  1.2552000  3
    149    161    167    168     1  0.0000000  0.6508444  3
    149    161    167    169     1  0.0000000  0.6508444  3
    150    149    145    152     1  0.0000000  1.2552000  3
    150    149    161    167     1  0.0000000  0.6508444  3
    150    149    161    162     1  0.0000000  0.6508444  3
    150    149    161    163     1  0.0000000  0.6508444  3
    151    149    145    152     1  0.0000000  1.2552000  3
    151    149    161    167     1  0.0000000  0.6508444  3
    151    149    161    162     1  0.0000000  0.6508444  3
    151    149    161    163     1  0.0000000  0.6508444  3
    152    155    164    165     1  0.0000000  0.6508444  3
    152    155    164    166     1  0.0000000  0.6508444  3
    153    152    155    164     1  0.0000000  0.6508444  3
    153    152    155    156     1  0.0000000  0.6508444  3
    153    152    155    157     1  0.0000000  0.6508444  3
    154    152    155    164     1  0.0000000  0.6508444  3
    154    152    155    156     1  0.0000000  0.6508444  3
    154    152    155    157     1  0.0000000  0.6508444  3
    156    155    164    173     1  0.0000000  1.0460000  1
    156    155    164    173     1  0.0000000  0.0000000  3
    156    155    164    165     1  0.0000000  0.6508444  3
    156    155    164    166     1  0.0000000  0.6508444  3
    157    155    164    173     1  0.0000000  1.0460000  1
    157    155    164    173     1  0.0000000  0.0000000  3
    157    155    164    165     1  0.0000000  0.6508444  3
    157    155    164    166     1  0.0000000  0.6508444  3
    159    158    170    405     1  0.0000000  1.0460000  1
    159    158    170    405     1  0.0000000  0.0000000  3
    159    158    170    171     1  0.0000000  0.6508444  3
    159    158    170    172     1  0.0000000  0.6508444  3
    160    158    170    405     1  0.0000000  1.0460000  1
    160    158    170    405     1  0.0000000  0.0000000  3
    160    158    170    171     1  0.0000000  0.6508444  3
    160    158    170    172     1  0.0000000  0.6508444  3
    162    161    167    376     1  0.0000000  1.0460000  1
    162    161    167    376     1  0.0000000  0.0000000  3
    162    161    167    168     1  0.0000000  0.6508444  3
    162    161    167    169     1  0.0000000  0.6508444  3
    163    161    167    376     1  0.0000000  1.0460000  1
    163    161    167    376     1  0.0000000  0.0000000  3
    163    161    167    168     1  0.0000000  0.6508444  3
    163    161    167    169     1  0.0000000  0.6508444  3
    167    376    367    368     1  0.0000000  1.6038667  3
    167    376    367    369     1  0.0000000  1.6038667  3
    168    167    376    367     1  0.0000000  1.6038667  3
    169    167    376    367     1  0.0000000  1.6038667  3
    170    405    396    397     1  0.0000000  1.6038667  3
    170    405    396    398     1  0.0000000  1.6038667  3
    171    170    405    396     1  0.0000000  1.6038667  3
    172    170    405    396     1  0.0000000  1.6038667  3
    174    175    187    188     1  0.0000000  0.6508444  3
    174    175    187    189     1  0.0000000  0.6508444  3
    174    178    190    191     1  0.0000000  0.6508444  3
    174    178    190    192     1  0.0000000  0.6508444  3
    174    181    184    185     1  0.0000000  0.6508444  3
    174    181    184    186     1  0.0000000  0.6508444  3
    175    174    178    179     1  0.0000000  1.2552000  3
    175    174    178    180     1  0.0000000  1.2552000  3
    175    174    181    182     1  0.0000000  1.2552000  3
    175    174    181    183     1  0.0000000  1.2552000  3
    175    187    199    200     1  0.0000000  0.6508444  3
    175    187    199    201     1  0.0000000  0.6508444  3
    176    175    174    178     1  0.0000000  1.2552000  3
    176    175    174    181     1  0.0000000  1.2552000  3
    176    175    187    199     1  0.0000000  0.6508444  3
    176    175    187    188     1  0.0000000  0.6508444  3
    176    175    187    189     1  0.0000000  0.6508444  3
    177    175    174    178     1  0.0000000  1.2552000  3
    177    175    174    181     1  0.0000000  1.2552000  3
    177    175    187    199     1  0.0000000  0.6508444  3
    177    175    187    188     1  0.0000000  0.6508444  3
    177    175    187    189     1  0.0000000  0.6508444  3
    178    174    181    182     1  0.0000000  1.2552000  3
    178    174    181    183     1  0.0000000  1.2552000  3
    178    190    196    197     1  0.0000000  0.6508444  3
    178    190    196    198     1  0.0000000  0.6508444  3
    179    178    174    181     1  0.0000000  1.2552000  3
    179    178    190    196     1  0.0000000  0.6508444  3
    179    178    190    191     1  0.0000000  0.6508444  3
    179    178    190    192     1  0.0000000  0.6508444  3
    180    178    174    181     1  0.0000000  1.2552000  3
    180    178    190    196     1  0.0000000  0.6508444  3
    180    178    190    191     1  0.0000000  0.6508444  3
    180    178    190    192     1  0.0000000  0.6508444  3
    181    184    193    194     1  0.0000000  0.6508444  3
    181    184    193    195     1  0.0000000  0.6508444  3
    182    181    184    193     1  0.0000000  0.6508444  3
    182    181    184    185     1  0.0000000  0.6508444  3
    182    181    184    186     1  0.0000000  0.6508444  3
    183    181    184    193     1  0.0000000  0.6508444  3
    183    181    184    185     1  0.0000000  0.6508444  3
    183    181    184    186     1  0.0000000  0.6508444  3
    185    184    193    202     1  0.0000000  1.0460000  1
    185    184    193    202     1  0.0000000  0.0000000  3
    185    184    193    194     1  0.0000000  0.6508444  3
    185    184    193    195     1  0.0000000  0.6508444  3
    186    184    193    202     1  0.0000000  1.0460000  1
    186    184    193    202     1  0.0000000  0.0000000  3
    186    184    193    194     1  0.0000000  0.6508444  3
    186    184    193    195     1  0.0000000  0.6508444  3
    188    187    199    463     1  0.0000000  1.0460000  1
    188    187    199    463     1  0.0000000  0.0000000  3
    188    187    199    200     1  0.0000000  0.6508444  3
    188    187    199    201     1  0.0000000  0.6508444  3
    189    187    199    463     1  0.0000000  1.0460000  1
    189    187    199    463     1  0.0000000  0.0000000  3
    189    187    199    200     1  0.0000000  0.6508444  3
    189    187    199    201     1  0.0000000  0.6508444  3
    191    190    196    434     1  0.0000000  1.0460000  1
    191    190    196    434     1  0.0000000  0.0000000  3
    191    190    196    197     1  0.0000000  0.6508444  3
    191    190    196    198     1  0.0000000  0.6508444  3
    192    190    196    434     1  0.0000000  1.0460000  1
    192    190    196    434     1  0.0000000  0.0000000  3
    192    190    196    197     1  0.0000000  0.6508444  3
    192    190    196    198     1  0.0000000  0.6508444  3
    196    434    425    426     1  0.0000000  1.6038667  3
    196    434    425    427     1  0.0000000  1.6038667  3
    197    196    434    425     1  0.0000000  1.6038667  3
    198    196    434    425     1  0.0000000  1.6038667  3
    199    463    454    455     1  0.0000000  1.6038667  3
    199    463    454    456     1  0.0000000  1.6038667  3
    200    199    463    454     1  0.0000000  1.6038667  3
    201    199    463    454     1  0.0000000  1.6038667  3
    203    204    216    217     1  0.0000000  0.6508444  3
    203    204    216    218     1  0.0000000  0.6508444  3
    203    207    219    220     1  0.0000000  0.6508444  3
    203    207    219    221     1  0.0000000  0.6508444  3
    203    210    213    214     1  0.0000000  0.6508444  3
    203    210    213    215     1  0.0000000  0.6508444  3
    204    203    207    208     1  0.0000000  1.2552000  3
    204    203    207    209     1  0.0000000  1.2552000  3
    204    203    210    211     1  0.0000000  1.2552000  3
    204    203    210    212     1  0.0000000  1.2552000  3
    204    216    228    229     1  0.0000000  0.6508444  3
    204    216    228    230     1  0.0000000  0.6508444  3
    205    204    203    207     1  0.0000000  1.2552000  3
    205    204    203    210     1  0.0000000  1.2552000  3
    205    204    216    228     1  0.0000000  0.6508444  3
    205    204    216    217     1  0.0000000  0.6508444  3
    205    204    216    218     1  0.0000000  0.6508444  3
    206    204    203    207     1  0.0000000  1.2552000  3
    206    204    203    210     1  0.0000000  1.2552000  3
    206    204    216    228     1  0.0000000  0.6508444  3
    206    204    216    217     1  0.0000000  0.6508444  3
    206    204    216    218     1  0.0000000  0.6508444  3
    207    203    210    211     1  0.0000000  1.2552000  3
    207    203    210    212     1  0.0000000  1.2552000  3
    207    219    225    226     1  0.0000000  0.6508444  3
    207    219    225    227     1  0.0000000  0.6508444  3
    208    207    203    210     1  0.0000000  1.2552000  3
    208    207    219    225     1  0.0000000  0.6508444  3
    208    207    219    220     1  0.0000000  0.6508444  3
    208    207    219    221     1  0.0000000  0.6508444  3
    209    207    203    210     1  0.0000000  1.2552000  3
    209    207    219    225     1  0.0000000  0.6508444  3
    209    207    219    220     1  0.0000000  0.6508444  3
    209    207    219    221     1  0.0000000  0.6508444  3
    210    213    222    223     1  0.0000000  0.6508444  3
    210    213    222    224     1  0.0000000  0.6508444  3
    211    210    213    222     1  0.0000000  0.6508444  3
    211    210    213    214     1  0.0000000  0.6508444  3
    211    210    213    215     1  0.0000000  0.6508444  3
    212    210    213    222     1  0.0000000  0.6508444  3
    212    210    213    214     1  0.0000000  0.6508444  3
    212    210    213    215     1  0.0000000  0.6508444  3
    214    213    222    231     1  0.0000000  1.0460000  1
    214    213    222    231     1  0.0000000  0.0000000  3
    214    213    222    223     1  0.0000000  0.6508444  3
    214    213    222    224     1  0.0000000  0.6508444  3
    215    213    222    231     1  0.0000000  1.0460000  1
    215    213    222    231     1  0.0000000  0.0000000  3
    215    213    222    223     1  0.0000000  0.6508444  3
    215    213    222    224     1  0.0000000  0.6508444  3
    217    216    228    521     1  0.0000000  1.0460000  1
    217    216    228    521     1  0.0000000  0.0000000  3
    217    216    228    229     1  0.0000000  0.6508444  3
    217    216    228    230     1  0.0000000  0.6508444  3
    218    216    228    521     1  0.0000000  1.0460000  1
    218    216    228    521     1  0.0000000  0.0000000  3
    218    216    228    229     1  0.0000000  0.6508444  3
    218    216    228    230     1  0.0000000  0.6508444  3
    220    219    225    492     1  0.0000000  1.0460000  1
    220    219    225    492     1  0.0000000  0.0000000  3
    220    219    225    226     1  0.0000000  0.6508444  3
    220    219    225    227     1  0.0000000  0.6508444  3
    221    219    225    492     1  0.0000000  1.0460000  1
    221    219    225    492     1  0.0000000  0.0000000  3
    221    219    225    226     1  0.0000000  0.6508444  3
    221    219    225    227     1  0.0000000  0.6508444  3
    225    492    483    484     1  0.0000000  1.6038667  3
    225    492    483    485     1  0.0000000  1.6038667  3
    226    225    492    483     1  0.0000000  1.6038667  3
    227    225    492    483     1  0.0000000  1.6038667  3
    228    521    512    513     1  0.0000000  1.6038667  3
    228    521    512    514     1  0.0000000  1.6038667  3
    229    228    521    512     1  0.0000000  1.6038667  3
    230    228    521    512     1  0.0000000  1.6038667  3
    232    233    245    246     1  0.0000000  0.6508444  3
    232    233    245    247     1  0.0000000  0.6508444  3
    232    236    248    249     1  0.0000000  0.6508444  3
    232    236    248    250     1  0.0000000  0.6508444  3
    232    239    242    243     1  0.0000000  0.6508444  3
    232    239    242    244     1  0.0000000  0.6508444  3
    233    232    236    237     1  0.0000000  1.2552000  3
    233    232    236    238     1  0.0000000  1.2552000  3
    233    232    239    240     1  0.0000000  1.2552000  3
    233    232    239    241     1  0.0000000  1.2552000  3
    233    245    257    258     1  0.0000000  0.6508444  3
    233    245    257    259     1  0.0000000  0.6508444  3
    234    233    232    236     1  0.0000000  1.2552000  3
    234    233    232    239     1  0.0000000  1.2552000  3
    234    233    245    257     1  0.0000000  0.6508444  3
    234    233    245    246     1  0.0000000  0.6508444  3
    234    233    245    247     1  0.0000000  0.6508444  3
    235    233    232    236     1  0.0000000  1.2552000  3
    235    233    232    239     1  0.0000000  1.2552000  3
    235    233    245    257     1  0.0000000  0.6508444  3
    235    233    245    246     1  0.0000000  0.6508444  3
    235    233    245    247     1  0.0000000  0.6508444  3
    236    232    239    240     1  0.0000000  1.2552000  3
    236    232    239    241     1  0.0000000  1.2552000  3
    236    248    254    255     1  0.0000000  0.6508444  3
    236    248    254    256     1  0.0000000  0.6508444  3
    237    236    232    239     1  0.0000000  1.2552000  3
    237    236    248    254     1  0.0000000  0.6508444  3
    237    236    248    249     1  0.0000000  0.6508444  3
    237    236    248    250     1  0.0000000  0.6508444  3
    238    236    232    239     1  0.0000000  1.2552000  3
    238    236    248    254     1  0.0000000  0.6508444  3
    238    236    248    249     1  0.0000000  0.6508444  3
    238    236    248    250     1  0.0000000  0.6508444  3
    239    242    251    252     1  0.0000000  0.6508444  3
    239    242    251    253     1  0.0000000  0.6508444  3
    240    239    242    251     1  0.0000000  0.6508444  3
    240    239    242    243     1  0.0000000  0.6508444  3
    240    239    242    244     1  0.0000000  0.6508444  3
    241    239    242    251     1  0.0000000  0.6508444  3
    241    239    242    243     1  0.0000000  0.6508444  3
    241    239    242    244     1  0.0000000  0.6508444  3
    243    242    251    260     1  0.0000000  1.0460000  1
    243    242    251    260     1  0.0000000  0.0000000  3
    243    242    251    252     1  0.0000000  0.6508444  3
    243    242    251    253     1  0.0000000  0.6508444  3
    244    242    251    260     1  0.0000000  1.0460000  1
    244    242    251    260     1  0.0000000  0.0000000  3
    244    242    251    252     1  0.0000000  0.6508444  3
    244    242    251    253     1  0.0000000  0.6508444  3
    246    245    257    579     1  0.0000000  1.0460000  1
    246    245    257    579     1  0.0000000  0.0000000  3
    246    245    257    258     1  0.0000000  0.6508444  3
    246    245    257    259     1  0.0000000  0.6508444  3
    247    245    257    579     1  0.0000000  1.0460000  1
    247    245    257    579     1  0.0000000  0.0000000  3
    247    245    257    258     1  0.0000000  0.6508444  3
    247    245    257    259     1  0.0000000  0.6508444  3
    249    248    254    550     1  0.0000000  1.0460000  1
    249    248    254    550     1  0.0000000  0.0000000  3
    249    248    254    255     1  0.0000000  0.6508444  3
    249    248    254    256     1  0.0000000  0.6508444  3
    250    248    254    550     1  0.0000000  1.0460000  1
    250    248    254    550     1  0.0000000  0.0000000  3
    250    248    254    255     1  0.0000000  0.6508444  3
    250    248    254    256     1  0.0000000  0.6508444  3
    254    550    541    542     1  0.0000000  1.6038667  3
    254    550    541    543     1  0.0000000  1.6038667  3
    255    254    550    541     1  0.0000000  1.6038667  3
    256    254    550    541     1  0.0000000  1.6038667  3
    257    579    570    571     1  0.0000000  1.6038667  3
    257    579    570    572     1  0.0000000  1.6038667  3
    258    257    579    570     1  0.0000000  1.6038667  3
    259    257    579    570     1  0.0000000  1.6038667  3
    261    262    274    275     1  0.0000000  0.6508444  3
    261    262    274    276     1  0.0000000  0.6508444  3
    261    265    277    278     1  0.0000000  0.6508444  3
    261    265    277    279     1  0.0000000  0.6508444  3
    261    268    271    272     1  0.0000000  0.6508444  3
    261    268    271    273     1  0.0000000  0.6508444  3
    262    261    265    266     1  0.0000000  1.2552000  3
    262    261    265    267     1  0.0000000  1.2552000  3
    262    261    268    269     1  0.0000000  1.2552000  3
    262    261    268    270     1  0.0000000  1.2552000  3
    262    274    286    287     1  0.0000000  0.6508444  3
    262    274    286    288     1  0.0000000  0.6508444  3
    263    262    261    265     1  0.0000000  1.2552000  3
    263    262    261    268     1  0.0000000  1.2552000  3
    263    262    274    286     1  0.0000000  0.6508444  3
    263    262    274    275     1  0.0000000  0.6508444  3
    263    262    274    276     1  0.0000000  0.6508444  3
    264    262    261    265     1  0.0000000  1.2552000  3
    264    262    261    268     1  0.0000000  1.2552000  3
    264    262    274    286     1  0.0000000  0.6508444  3
    264    262    274    275     1  0.0000000  0.6508444  3
    264    262    274    276     1  0.0000000  0.6508444  3
    265    261    268    269     1  0.0000000  1.2552000  3
    265    261    268    270     1  0.0000000  1.2552000  3
    265    277    283    284     1  0.0000000  0.6508444  3
    265    277    283    285     1  0.0000000  0.6508444  3
    266    265    261    268     1  0.0000000  1.2552000  3
    266    265    277    283     1  0.0000000  0.6508444  3
    266    265    277    278     1  0.0000000  0.6508444  3
    266    265    277    279     1  0.0000000  0.6508444  3
    267    265    261    268     1  0.0000000  1.2552000  3
    267    265    277    283     1  0.0000000  0.6508444  3
    267    265    277    278     1  0.0000000  0.6508444  3
    267    265    277    279     1  0.0000000  0.6508444  3
    268    271    280    281     1  0.0000000  0.6508444  3
    268    271    280    282     1  0.0000000  0.6508444  3
    269    268    271    280     1  0.0000000  0.6508444  3
    269    268    271    272     1  0.0000000  0.6508444  3
    269    268    271    273     1  0.0000000  0.6508444  3
    270    268    271    280     1  0.0000000  0.6508444  3
    270    268    271    272     1  0.0000000  0.6508444  3
    270    268    271    273     1  0.0000000  0.6508444  3
    272    271    280    289     1  0.0000000  1.0460000  1
    272    271    280    289     1  0.0000000  0.0000000  3
    272    271    280    281     1  0.0000000  0.6508444  3
    272    271    280    282     1  0.0000000  0.6508444  3
    273    271    280    289     1  0.0000000  1.0460000  1
    273    271    280    289     1  0.0000000  0.0000000  3
    273    271    280    281     1  0.0000000  0.6508444  3
    273    271    280    282     1  0.0000000  0.6508444  3
    275    274    286    637     1  0.0000000  1.0460000  1
    275    274    286    637     1  0.0000000  0.0000000  3
    275    274    286    287     1  0.0000000  0.6508444  3
    275    274    286    288     1  0.0000000  0.6508444  3
    276    274    286    637     1  0.0000000  1.0460000  1
    276    274    286    637     1  0.0000000  0.0000000  3
    276    274    286    287     1  0.0000000  0.6508444  3
    276    274    286    288     1  0.0000000  0.6508444  3
    278    277    283    608     1  0.0000000  1.0460000  1
    278    277    283    608     1  0.0000000  0.0000000  3
    278    277    283    284     1  0.0000000  0.6508444  3
    278    277    283    285     1  0.0000000  0.6508444  3
    279    277    283    608     1  0.0000000  1.0460000  1
    279    277    283    608     1  0.0000000  0.0000000  3
    279    277    283    284     1  0.0000000  0.6508444  3
    279    277    283    285     1  0.0000000  0.6508444  3
    283    608    599    600     1  0.0000000  1.6038667  3
    283    608    599    601     1  0.0000000  1.6038667  3
    284    283    608    599     1  0.0000000  1.6038667  3
    285    283    608    599     1  0.0000000  1.6038667  3
    286    637    628    629     1  0.0000000  1.6038667  3
    286    637    628    630     1  0.0000000  1.6038667  3
    287    286    637    628     1  0.0000000  1.6038667  3
    288    286    637    628     1  0.0000000  1.6038667  3
    290    291    303    304     1  0.0000000  0.6508444  3
    290    291    303    305     1  0.0000000  0.6508444  3
    290    294    306    307     1  0.0000000  0.6508444  3
    290    294    306    308     1  0.0000000  0.6508444  3
    290    297    300    301     1  0.0000000  0.6508444  3
    290    297    300    302     1  0.0000000  0.6508444  3
    291    290    294    295     1  0.0000000  1.2552000  3
    291    290    294    296     1  0.0000000  1.2552000  3
    291    290    297    298     1  0.0000000  1.2552000  3
    291    290    297    299     1  0.0000000  1.2552000  3
    291    303    315    316     1  0.0000000  0.6508444  3
    291    303    315    317     1  0.0000000  0.6508444  3
    292    291    290    294     1  0.0000000  1.2552000  3
    292    291    290    297     1  0.0000000  1.2552000  3
    292    291    303    315     1  0.0000000  0.6508444  3
    292    291    303    304     1  0.0000000  0.6508444  3
    292    291    303    305     1  0.0000000  0.6508444  3
    293    291    290    294     1  0.0000000  1.2552000  3
    293    291    290    297     1  0.0000000  1.2552000  3
    293    291    303    315     1  0.0000000  0.6508444  3
    293    291    303    304     1  0.0000000  0.6508444  3
    293    291    303    305     1  0.0000000  0.6508444  3
    294    290    297    298     1  0.0000000  1.2552000  3
    294    290    297    299     1  0.0000000  1.2552000  3
    294    306    312    313     1  0.0000000  0.6508444  3
    294    306    312    314     1  0.0000000  0.6508444  3
    295    294    290    297     1  0.0000000  1.2552000  3
    295    294    306    312     1  0.0000000  0.6508444  3
    295    294    306    307     1  0.0000000  0.6508444  3
    295    294    306    308     1  0.0000000  0.6508444  3
    296    294    290    297     1  0.0000000  1.2552000  3
    296    294    306    312     1  0.0000000  0.6508444  3
    296    294    306    307     1  0.0000000  0.6508444  3
    296    294    306    308     1  0.0000000  0.6508444  3
    297    300    309    310     1  0.0000000  0.6508444  3
    297    300    309    311     1  0.0000000  0.6508444  3
    298    297    300    309     1  0.0000000  0.6508444  3
    298    297    300    301     1  0.0000000  0.6508444  3
    298    297    300    302     1  0.0000000  0.6508444  3
    299    297    300    309     1  0.0000000  0.6508444  3
    299    297    300    301     1  0.0000000  0.6508444  3
    299    297    300    302     1  0.0000000  0.6508444  3
    301    300    309    318     1  0.0000000  1.0460000  1
    301    300    309    318     1  0.0000000  0.0000000  3
    301    300    309    310     1  0.0000000  0.6508444  3
    301    300    309    311     1  0.0000000  0.6508444  3
    302    300    309    318     1  0.0000000  1.0460000  1
    302    300    309    318     1  0.0000000  0.0000000  3
    302    300    309    310     1  0.0000000  0.6508444  3
    302    300    309    311     1  0.0000000  0.6508444  3
    304    303    315    695     1  0.0000000  1.0460000  1
    304    303    315    695     1  0.0000000  0.0000000  3
    304    303    315    316     1  0.0000000  0.6508444  3
    304    303    315    317     1  0.0000000  0.6508444  3
    305    303    315    695     1  0.0000000  1.0460000  1
    305    303    315    695     1  0.0000000  0.0000000  3
    305    303    315    316     1  0.0000000  0.6508444  3
    305    303    315    317     1  0.0000000  0.6508444  3
    307    306    312    666     1  0.0000000  1.0460000  1
    307    306    312    666     1  0.0000000  0.0000000  3
    307    306    312    313     1  0.0000000  0.6508444  3
    307    306    312    314     1  0.0000000  0.6508444  3
    308    306    312    666     1  0.0000000  1.0460000  1
    308    306    312    666     1  0.0000000  0.0000000  3
    308    306    312    313     1  0.0000000  0.6508444  3
    308    306    312    314     1  0.0000000  0.6508444  3
    312    666    657    658     1  0.0000000  1.6038667  3
    312    666    657    659     1  0.0000000  1.6038667  3
    313    312    666    657     1  0.0000000  1.6038667  3
    314    312    666    657     1  0.0000000  1.6038667  3
    315    695    686    687     1  0.0000000  1.6038667  3
    315    695    686    688     1  0.0000000  1.6038667  3
    316    315    695    686     1  0.0000000  1.6038667  3
    317    315    695    686     1  0.0000000  1.6038667  3
    319    320    332    333     1  0.0000000  0.6508444  3
    319    320    332    334     1  0.0000000  0.6508444  3
    319    323    335    336     1  0.0000000  0.6508444  3
    319    323    335    337     1  0.0000000  0.6508444  3
    319    326    329    330     1  0.0000000  0.6508444  3
    319    326    329    331     1  0.0000000  0.6508444  3
    320    319    323    324     1  0.0000000  1.2552000  3
    320    319    323    325     1  0.0000000  1.2552000  3
    320    319    326    327     1  0.0000000  1.2552000  3
    320    319    326    328     1  0.0000000  1.2552000  3
    320    332    344    345     1  0.0000000  0.6508444  3
    320    332    344    346     1  0.0000000  0.6508444  3
    321    320    319    323     1  0.0000000  1.2552000  3
    321    320    319    326     1  0.0000000  1.2552000  3
    321    320    332    344     1  0.0000000  0.6508444  3
    321    320    332    333     1  0.0000000  0.6508444  3
    321    320    332    334     1  0.0000000  0.6508444  3
    322    320    319    323     1  0.0000000  1.2552000  3
    322    320    319    326     1  0.0000000  1.2552000  3
    322    320    332    344     1  0.0000000  0.6508444  3
    322    320    332    333     1  0.0000000  0.6508444  3
    322    320    332    334     1  0.0000000  0.6508444  3
    323    319    326    327     1  0.0000000  1.2552000  3
    323    319    326    328     1  0.0000000  1.2552000  3
    323    335    341    342     1  0.0000000  0.6508444  3
    323    335    341    343     1  0.0000000  0.6508444  3
    324    323    319    326     1  0.0000000  1.2552000  3
    324    323    335    341     1  0.0000000  0.6508444  3
    324    323    335    336     1  0.0000000  0.6508444  3
    324    323    335    337     1  0.0000000  0.6508444  3
    325    323    319    326     1  0.0000000  1.2552000  3
    325    323    335    341     1  0.0000000  0.6508444  3
    325    323    335    336     1  0.0000000  0.6508444  3
    325    323    335    337     1  0.0000000  0.6508444  3
    326    329    338    339     1  0.0000000  0.6508444  3
    326    329    338    340     1  0.0000000  0.6508444  3
    327    326    329    338     1  0.0000000  0.6508444  3
    327    326    329    330     1  0.0000000  0.6508444  3
    327    326    329    331     1  0.0000000  0.6508444  3
    328    326    329    338     1  0.0000000  0.6508444  3
    328    326    329    330     1  0.0000000  0.6508444  3
    328    326    329    331     1  0.0000000  0.6508444  3
    330    329    338    347     1  0.0000000  1.0460000  1
    330    329    338    347     1  0.0000000  0.0000000  3
    330    329    338    339     1  0.0000000  0.6508444  3
    330    329    338    340     1  0.0000000  0.6508444  3
    331    329    338    347     1  0.0000000  1.0460000  1
    331    329    338    347     1  0.0000000  0.0000000  3
    331    329    338    339     1  0.0000000  0.6508444  3
    331    329    338    340     1  0.0000000  0.6508444  3
    333    332    344    753     1  0.0000000  1.0460000  1
    333    332    344    753     1  0.0000000  0.0000000  3
    333    332    344    345     1  0.0000000  0.6508444  3
    333    332    344    346     1  0.0000000  0.6508444  3
    334    332    344    753     1  0.0000000  1.0460000  1
    334    332    344    753     1  0.0000000  0.0000000  3
    334    332    344    345     1  0.0000000  0.6508444  3
    334    332    344    346     1  0.0000000  0.6508444  3
    336    335    341    724     1  0.0000000  1.0460000  1
    336    335    341    724     1  0.0000000  0.0000000  3
    336    335    341    342     1  0.0000000  0.6508444  3
    336    335    341    343     1  0.0000000  0.6508444  3
    337    335    341    724     1  0.0000000  1.0460000  1
    337    335    341    724     1  0.0000000  0.0000000  3
    337    335    341    342     1  0.0000000  0.6508444  3
    337    335    341    343     1  0.0000000  0.6508444  3
    341    724    715    716     1  0.0000000  1.6038667  3
    341    724    715    717     1  0.0000000  1.6038667  3
    342    341    724    715     1  0.0000000  1.6038667  3
    343    341    724    715     1  0.0000000  1.6038667  3
    344    753    744    745     1  0.0000000  1.6038667  3
    344    753    744    746     1  0.0000000  1.6038667  3
    345    344    753    744     1  0.0000000  1.6038667  3
    346    344    753    744     1  0.0000000  1.6038667  3
    348    349    361    362     1  0.0000000  0.6508444  3
    348    349    361    363     1  0.0000000  0.6508444  3
    348    352    364    365     1  0.0000000  0.6508444  3
    348    352    364    366     1  0.0000000  0.6508444  3
    348    355    358    359     1  0.0000000  0.6508444  3
    348    355    358    360     1  0.0000000  0.6508444  3
    349    348    352    353     1  0.0000000  1.2552000  3
    349    348    352    354     1  0.0000000  1.2552000  3
    349    348    355    356     1  0.0000000  1.2552000  3
    349    348    355    357     1  0.0000000  1.2552000  3
    349    361    373    374     1  0.0000000  0.6508444  3
    349    361    373    375     1  0.0000000  0.6508444  3
    350    349    348    352     1  0.0000000  1.2552000  3
    350    349    348    355     1  0.0000000  1.2552000  3
    350    349    361    373     1  0.0000000  0.6508444  3
    350    349    361    362     1  0.0000000  0.6508444  3
    350    349    361    363     1  0.0000000  0.6508444  3
    351    349    348    352     1  0.0000000  1.2552000  3
    351    349    348    355     1  0.0000000  1.2552000  3
    351    349    361    373     1  0.0000000  0.6508444  3
    351    349    361    362     1  0.0000000  0.6508444  3
    351    349    361    363     1  0.0000000  0.6508444  3
    352    348    355    356     1  0.0000000  1.2552000  3
    352    348    355    357     1  0.0000000  1.2552000  3
    352    364    370    371     1  0.0000000  0.6508444  3
    352    364    370    372     1  0.0000000  0.6508444  3
    353    352    348    355     1  0.0000000  1.2552000  3
    353    352    364    370     1  0.0000000  0.6508444  3
    353    352    364    365     1  0.0000000  0.6508444  3
    353    352    364    366     1  0.0000000  0.6508444  3
    354    352    348    355     1  0.0000000  1.2552000  3
    354    352    364    370     1  0.0000000  0.6508444  3
    354    352    364    365     1  0.0000000  0.6508444  3
    354    352    364    366     1  0.0000000  0.6508444  3
    355    358    367    368     1  0.0000000  0.6508444  3
    355    358    367    369     1  0.0000000  0.6508444  3
    356    355    358    367     1  0.0000000  0.6508444  3
    356    355    358    359     1  0.0000000  0.6508444  3
    356    355    358    360     1  0.0000000  0.6508444  3
    357    355    358    367     1  0.0000000  0.6508444  3
    357    355    358    359     1  0.0000000  0.6508444  3
    357    355    358    360     1  0.0000000  0.6508444  3
    359    358    367    376     1  0.0000000  1.0460000  1
    359    358    367    376     1  0.0000000  0.0000000  3
    359    358    367    368     1  0.0000000  0.6508444  3
    359    358    367    369     1  0.0000000  0.6508444  3
    360    358    367    376     1  0.0000000  1.0460000  1
    360    358    367    376     1  0.0000000  0.0000000  3
    360    358    367    368     1  0.0000000  0.6508444  3
    360    358    367    369     1  0.0000000  0.6508444  3
    362    361    373    811     1  0.0000000  1.0460000  1
    362    361    373    811     1  0.0000000  0.0000000  3
    362    361    373    374     1  0.0000000  0.6508444  3
    362    361    373    375     1  0.0000000  0.6508444  3
    363    361    373    811     1  0.0000000  1.0460000  1
    363    361    373    811     1  0.0000000  0.0000000  3
    363    361    373    374     1  0.0000000  0.6508444  3
    363    361    373    375     1  0.0000000  0.6508444  3
    365    364    370    782     1  0.0000000  1.0460000  1
    365    364    370    782     1  0.0000000  0.0000000  3
    365    364    370    371     1  0.0000000  0.6508444  3
    365    364    370    372     1  0.0000000  0.6508444  3
    366    364    370    782     1  0.0000000  1.0460000  1
    366    364    370    782     1  0.0000000  0.0000000  3
    366    364    370    371     1  0.0000000  0.6508444  3
    366    364    370    372     1  0.0000000  0.6508444  3
    370    782    773    774     1  0.0000000  1.6038667  3
    370    782    773    775     1  0.0000000  1.6038667  3
    371    370    782    773     1  0.0000000  1.6038667  3
    372    370    782    773     1  0.0000000  1.6038667  3
    373    811    802    803     1  0.0000000  1.6038667  3
    373    811    802    804     1  0.0000000  1.6038667  3
    374    373    811    802     1  0.0000000  1.6038667  3
    375    373    811    802     1  0.0000000  1.6038667  3
    377    378    390    391     1  0.0000000  0.6508444  3
    377    378    390    392     1  0.0000000  0.6508444  3
    377    381    393    394     1  0.0000000  0.6508444  3
    377    381    393    395     1  0.0000000  0.6508444  3
    377    384    387    388     1  0.0000000  0.6508444  3
    377    384    387    389     1  0.0000000  0.6508444  3
    378    377    381    382     1  0.0000000  1.2552000  3
    378    377    381    383     1  0.0000000  1.2552000  3
    378    377    384    385     1  0.0000000  1.2552000  3
    378    377    384    386     1  0.0000000  1.2552000  3
    378    390    402    403     1  0.0000000  0.6508444  3
    378    390    402    404     1  0.0000000  0.6508444  3
    379    378    377    381     1  0.0000000  1.2552000  3
    379    378    377    384     1  0.0000000  1.2552000  3
    379    378    390    402     1  0.0000000  0.6508444  3
    379    378    390    391     1  0.0000000  0.6508444  3
    379    378    390    392     1  0.0000000  0.6508444  3
    380    378    377    381     1  0.0000000  1.2552000  3
    380    378    377    384     1  0.0000000  1.2552000  3
    380    378    390    402     1  0.0000000  0.6508444  3
    380    378    390    391     1  0.0000000  0.6508444  3
    380    378    390    392     1  0.0000000  0.6508444  3
    381    377    384    385     1  0.0000000  1.2552000  3
    381    377    384    386     1  0.0000000  1.2552000  3
    381    393    399    400     1  0.0000000  0.6508444  3
    381    393    399    401     1  0.0000000  0.6508444  3
    382    381    377    384     1  0.0000000  1.2552000  3
    382    381    393    399     1  0.0000000  0.6508444  3
    382    381    393    394     1  0.0000000  0.6508444  3
    382    381    393    395     1  0.0000000  0.6508444  3
    383    381    377    384     1  0.0000000  1.2552000  3
    383    381    393    399     1  0.0000000  0.6508444  3
    383    381    393    394     1  0.0000000  0.6508444  3
    383    381    393    395     1  0.0000000  0.6508444  3
    384    387    396    397     1  0.0000000  0.6508444  3
    384    387    396    398     1  0.0000000  0.6508444  3
    385    384    387    396     1  0.0000000  0.6508444  3
    385    384    387    388     1  0.0000000  0.6508444  3
    385    384    387    389     1  0.0000000  0.6508444  3
    386    384    387    396     1  0.0000000  0.6508444  3
    386    384    387    388     1  0.0000000  0.6508444  3
    386    384    387    389     1  0.0000000  0.6508444  3
    388    387    396    405     1  0.0000000  1.0460000  1
    388    387    396    405     1  0.0000000  0.0000000  3
    388    387    396    397     1  0.0000000  0.6508444  3
    388    387    396    398     1  0.0000000  0.6508444  3
    389    387    396    405     1  0.0000000  1.0460000  1
    389    387    396    405     1  0.0000000  0.0000000  3
    389    387    396    397     1  0.0000000  0.6508444  3
    389    387    396    398     1  0.0000000  0.6508444  3
    391    390    402    869     1  0.0000000  1.0460000  1
    391    390    402    869     1  0.0000000  0.0000000  3
    391    390    402    403     1  0.0000000  0.6508444  3
    391    390    402    404     1  0.0000000  0.6508444  3
    392    390    402    869     1  0.0000000  1.0460000  1
    392    390    402    869     1  0.0000000  0.0000000  3
    392    390    402    403     1  0.0000000  0.6508444  3
    392    390    402    404     1  0.0000000  0.6508444  3
    394    393    399    840     1  0.0000000  1.0460000  1
    394    393    399    840     1  0.0000000  0.0000000  3
    394    393    399    400     1  0.0000000  0.6508444  3
    394    393    399    401     1  0.0000000  0.6508444  3
    395    393    399    840     1  0.0000000  1.0460000  1
    395    393    399    840     1  0.0000000  0.0000000  3
    395    393    399    400     1  0.0000000  0.6508444  3
    395    393    399    401     1  0.0000000  0.6508444  3
    399    840    831    832     1  0.0000000  1.6038667  3
    399    840    831    833     1  0.0000000  1.6038667  3
    400    399    840    831     1  0.0000000  1.6038667  3
    401    399    840    831     1  0.0000000  1.6038667  3
    402    869    860    861     1  0.0000000  1.6038667  3
    402    869    860    862     1  0.0000000  1.6038667  3
    403    402    869    860     1  0.0000000  1.6038667  3
    404    402    869    860     1  0.0000000  1.6038667  3
    406    407    419    420     1  0.0000000  0.6508444  3
    406    407    419    421     1  0.0000000  0.6508444  3
    406    410    422    423     1  0.0000000  0.6508444  3
    406    410    422    424     1  0.0000000  0.6508444  3
    406    413    416    417     1  0.0000000  0.6508444  3
    406    413    416    418     1  0.0000000  0.6508444  3
    407    406    410    411     1  0.0000000  1.2552000  3
    407    406    410    412     1  0.0000000  1.2552000  3
    407    406    413    414     1  0.0000000  1.2552000  3
    407    406    413    415     1  0.0000000  1.2552000  3
    407    419    431    432     1  0.0000000  0.6508444  3
    407    419    431    433     1  0.0000000  0.6508444  3
    408    407    406    410     1  0.0000000  1.2552000  3
    408    407    406    413     1  0.0000000  1.2552000  3
    408    407    419    431     1  0.0000000  0.6508444  3
    408    407    419    420     1  0.0000000  0.6508444  3
    408    407    419    421     1  0.0000000  0.6508444  3
    409    407    406    410     1  0.0000000  1.2552000  3
    409    407    406    413     1  0.0000000  1.2552000  3
    409    407    419    431     1  0.0000000  0.6508444  3
    409    407    419    420     1  0.0000000  0.6508444  3
    409    407    419    421     1  0.0000000  0.6508444  3
    410    406    413    414     1  0.0000000  1.2552000  3
    410    406    413    415     1  0.0000000  1.2552000  3
    410    422    428    429     1  0.0000000  0.6508444  3
    410    422    428    430     1  0.0000000  0.6508444  3
    411    410    406    413     1  0.0000000  1.2552000  3
    411    410    422    428     1  0.0000000  0.6508444  3
    411    410    422    423     1  0.0000000  0.6508444  3
    411    410    422    424     1  0.0000000  0.6508444  3
    412    410    406    413     1  0.0000000  1.2552000  3
    412    410    422    428     1  0.0000000  0.6508444  3
    412    410    422    423     1  0.0000000  0.6508444  3
    412    410    422    424     1  0.0000000  0.6508444  3
    413    416    425    426     1  0.0000000  0.6508444  3
    413    416    425    427     1  0.0000000  0.6508444  3
    414    413    416    425     1  0.0000000  0.6508444  3
    414    413    416    417     1  0.0000000  0.6508444  3
    414    413    416    418     1  0.0000000  0.6508444  3
    415    413    416    425     1  0.0000000  0.6508444  3
    415    413    416    417     1  0.0000000  0.6508444  3
    415    413    416    418     1  0.0000000  0.6508444  3
    417    416    425    434     1  0.0000000  1.0460000  1
    417    416    425    434     1  0.0000000  0.0000000  3
    417    416    425    426     1  0.0000000  0.6508444  3
    417    416    425    427     1  0.0000000  0.6508444  3
    418    416    425    434     1  0.0000000  1.0460000  1
    418    416    425    434     1  0.0000000  0.0000000  3
    418    416    425    426     1  0.0000000  0.6508444  3
    418    416    425    427     1  0.0000000  0.6508444  3
    420    419    431    927     1  0.0000000  1.0460000  1
    420    419    431    927     1  0.0000000  0.0000000  3
    420    419    431    432     1  0.0000000  0.6508444  3
    420    419    431    433     1  0.0000000  0.6508444  3
    421    419    431    927     1  0.0000000  1.0460000  1
    421    419    431    927     1  0.0000000  0.0000000  3
    421    419    431    432     1  0.0000000  0.6508444  3
    421    419    431    433     1  0.0000000  0.6508444  3
    423    422    428    898     1  0.0000000  1.0460000  1
    423    422    428    898     1  0.0000000  0.0000000  3
    423    422    428    429     1  0.0000000  0.6508444  3
    423    422    428    430     1  0.0000000  0.6508444  3
    424    422    428    898     1  0.0000000  1.0460000  1
    424    422    428    898     1  0.0000000  0.0000000  3
    424    422    428    429     1  0.0000000  0.6508444  3
    424    422    428    430     1  0.0000000  0.6508444  3
    428    898    889    890     1  0.0000000  1.6038667  3
    428    898    889    891     1  0.0000000  1.6038667  3
    429    428    898    889     1  0.0000000  1.6038667  3
    430    428    898    889     1  0.0000000  1.6038667  3
    431    927    918    919     1  0.0000000  1.6038667  3
    431    927    918    920     1  0.0000000  1.6038667  3
    432    431    927    918     1  0.0000000  1.6038667  3
    433    431    927    918     1  0.0000000  1.6038667  3
    435    436    448    449     1  0.0000000  0.6508444  3
    435    436    448    450     1  0.0000000  0.6508444  3
    435    439    451    452     1  0.0000000  0.6508444  3
    435    439    451    453     1  0.0000000  0.6508444  3
    435    442    445    446     1  0.0000000  0.6508444  3
    435    442    445    447     1  0.0000000  0.6508444  3
    436    435    439    440     1  0.0000000  1.2552000  3
    436    435    439    441     1  0.0000000  1.2552000  3
    436    435    442    443     1  0.0000000  1.2552000  3
    436    435    442    444     1  0.0000000  1.2552000  3
    436    448    460    461     1  0.0000000  0.6508444  3
    436    448    460    462     1  0.0000000  0.6508444  3
    437    436    435    439     1  0.0000000  1.2552000  3
    437    436    435    442     1  0.0000000  1.2552000  3
    437    436    448    460     1  0.0000000  0.6508444  3
    437    436    448    449     1  0.0000000  0.6508444  3
    437    436    448    450     1  0.0000000  0.6508444  3
    438    436    435    439     1  0.0000000  1.2552000  3
    438    436    435    442     1  0.0000000  1.2552000  3
    438    436    448    460     1  0.0000000  0.6508444  3
    438    436    448    449     1  0.0000000  0.6508444  3
    438    436    448    450     1  0.0000000  0.6508444  3
    439    435    442    443     1  0.0000000  1.2552000  3
    439    435    442    444     1  0.0000000  1.2552000  3
    439    451    457    458     1  0.0000000  0.6508444  3
    439    451    457    459     1  0.0000000  0.6508444  3
    440    439    435    442     1  0.0000000  1.2552000  3
    440    439    451    457     1  0.0000000  0.6508444  3
    440    439    451    452     1  0.0000000  0.6508444  3
    440    439    451    453     1  0.0000000  0.6508444  3
    441    439    435    442     1  0.0000000  1.2552000  3
    441    439    451    457     1  0.0000000  0.6508444  3
    441    439    451    452     1  0.0000000  0.6508444  3
    441    439    451    453     1  0.0000000  0.6508444  3
    442    445    454    455     1  0.0000000  0.6508444  3
    442    445    454    456     1  0.0000000  0.6508444  3
    443    442    445    454     1  0.0000000  0.6508444  3
    443    442    445    446     1  0.0000000  0.6508444  3
    443    442    445    447     1  0.0000000  0.6508444  3
    444    442    445    454     1  0.0000000  0.6508444  3
    444    442    445    446     1  0.0000000  0.6508444  3
    444    442    445    447     1  0.0000000  0.6508444  3
    446    445    454    463     1  0.0000000  1.0460000  1
    446    445    454    463     1  0.0000000  0.0000000  3
    446    445    454    455     1  0.0000000  0.6508444  3
    446    445    454    456     1  0.0000000  0.6508444  3
    447    445    454    463     1  0.0000000  1.0460000  1
    447    445    454    463     1  0.0000000  0.0000000  3
    447    445    454    455     1  0.0000000  0.6508444  3
    447    445    454    456     1  0.0000000  0.6508444  3
    449    448    460    985     1  0.0000000  1.0460000  1
    449    448    460    985     1  0.0000000  0.0000000  3
    449    448    460    461     1  0.0000000  0.6508444  3
    449    448    460    462     1  0.0000000  0.6508444  3
    450    448    460    985     1  0.0000000  1.0460000  1
    450    448    460    985     1  0.0000000  0.0000000  3
    450    448    460    461     1  0.0000000  0.6508444  3
    450    448    460    462     1  0.0000000  0.6508444  3
    452    451    457    956     1  0.0000000  1.0460000  1
    452    451    457    956     1  0.0000000  0.0000000  3
    452    451    457    458     1  0.0000000  0.6508444  3
    452    451    457    459     1  0.0000000  0.6508444  3
    453    451    457    956     1  0.0000000  1.0460000  1
    453    451    457    956     1  0.0000000  0.0000000  3
    453    451    457    458     1  0.0000000  0.6508444  3
    453    451    457    459     1  0.0000000  0.6508444  3
    457    956    947    948     1  0.0000000  1.6038667  3
    457    956    947    949     1  0.0000000  1.6038667  3
    458    457    956    947     1  0.0000000  1.6038667  3
    459    457    956    947     1  0.0000000  1.6038667  3
    460    985    976    977     1  0.0000000  1.6038667  3
    460    985    976    978     1  0.0000000  1.6038667  3
    461    460    985    976     1  0.0000000  1.6038667  3
    462    460    985    976     1  0.0000000  1.6038667  3
    464    465    477    478     1  0.0000000  0.6508444  3
    464    465    477    479     1  0.0000000  0.6508444  3
    464    468    480    481     1  0.0000000  0.6508444  3
    464    468    480    482     1  0.0000000  0.6508444  3
    464    471    474    475     1  0.0000000  0.6508444  3
    464    471    474    476     1  0.0000000  0.6508444  3
    465    464    468    469     1  0.0000000  1.2552000  3
    465    464    468    470     1  0.0000000  1.2552000  3
    465    464    471    472     1  0.0000000  1.2552000  3
    465    464    471    473     1  0.0000000  1.2552000  3
    465    477    489    490     1  0.0000000  0.6508444  3
    465    477    489    491     1  0.0000000  0.6508444  3
    466    465    464    468     1  0.0000000  1.2552000  3
    466    465    464    471     1  0.0000000  1.2552000  3
    466    465    477    489     1  0.0000000  0.6508444  3
    466    465    477    478     1  0.0000000  0.6508444  3
    466    465    477    479     1  0.0000000  0.6508444  3
    467    465    464    468     1  0.0000000  1.2552000  3
    467    465    464    471     1  0.0000000  1.2552000  3
    467    465    477    489     1  0.0000000  0.6508444  3
    467    465    477    478     1  0.0000000  0.6508444  3
    467    465    477    479     1  0.0000000  0.6508444  3
    468    464    471    472     1  0.0000000  1.2552000  3
    468    464    471    473     1  0.0000000  1.2552000  3
    468    480    486    487     1  0.0000000  0.6508444  3
    468    480    486    488     1  0.0000000  0.6508444  3
    469    468    464    471     1  0.0000000  1.2552000  3
    469    468    480    486     1  0.0000000  0.6508444  3
    469    468    480    481     1  0.0000000  0.6508444  3
    469    468    480    482     1  0.0000000  0.6508444  3
    470    468    464    471     1  0.0000000  1.2552000  3
    470    468    480    486     1  0.0000000  0.6508444  3
    470    468    480    481     1  0.0000000  0.6508444  3
    470    468    480    482     1  0.0000000  0.6508444  3
    471    474    483    484     1  0.0000000  0.6508444  3
    471    474    483    485     1  0.0000000  0.6508444  3
    472    471    474    483     1  0.0000000  0.6508444  3
    472    471    474    475     1  0.0000000  0.6508444  3
    472    471    474    476     1  0.0000000  0.6508444  3
    473    471    474    483     1  0.0000000  0.6508444  3
    473    471    474    475     1  0.0000000  0.6508444  3
    473    471    474    476     1  0.0000000  0.6508444  3
    475    474    483    492     1  0.0000000  1.0460000  1
    475    474    483    492     1  0.0000000  0.0000000  3
    475    474    483    484     1  0.0000000  0.6508444  3
    475    474    483    485     1  0.0000000  0.6508444  3
    476    474    483    492     1  0.0000000  1.0460000  1
    476    474    483    492     1  0.0000000  0.0000000  3
    476    474    483    484     1  0.0000000  0.6508444  3
    476    474    483    485     1  0.0000000  0.6508444  3
    478    477    489   1043     1  0.0000000  1.0460000  1
    478    477    489   1043     1  0.0000000  0.0000000  3
    478    477    489    490     1  0.0000000  0.6508444  3
    478    477    489    491     1  0.0000000  0.6508444  3
    479    477    489   1043     1  0.0000000  1.0460000  1
    479    477    489   1043     1  0.0000000  0.0000000  3
    479    477    489    490     1  0.0000000  0.6508444  3
    479    477    489    491     1  0.0000000  0.6508444  3
    481    480    486   1014     1  0.0000000  1.0460000  1
    481    480    486   1014     1  0.0000000  0.0000000  3
    481    480    486    487     1  0.0000000  0.6508444  3
    481    480    486    488     1  0.0000000  0.6508444  3
    482    480    486   1014     1  0.0000000  1.0460000  1
    482    480    486   1014     1  0.0000000  0.0000000  3
    482    480    486    487     1  0.0000000  0.6508444  3
    482    480    486    488     1  0.0000000  0.6508444  3
    486   1014   1005   1006     1  0.0000000  1.6038667  3
    486   1014   1005   1007     1  0.0000000  1.6038667  3
    487    486   1014   1005     1  0.0000000  1.6038667  3
    488    486   1014   1005     1  0.0000000  1.6038667  3
    489   1043   1034   1035     1  0.0000000  1.6038667  3
    489   1043   1034   1036     1  0.0000000  1.6038667  3
    490    489   1043   1034     1  0.0000000  1.6038667  3
    491    489   1043   1034     1  0.0000000  1.6038667  3
    493    494    506    507     1  0.0000000  0.6508444  3
    493    494    506    508     1  0.0000000  0.6508444  3
    493    497    509    510     1  0.0000000  0.6508444  3
    493    497    509    511     1  0.0000000  0.6508444  3
    493    500    503    504     1  0.0000000  0.6508444  3
    493    500    503    505     1  0.0000000  0.6508444  3
    494    493    497    498     1  0.0000000  1.2552000  3
    494    493    497    499     1  0.0000000  1.2552000  3
    494    493    500    501     1  0.0000000  1.2552000  3
    494    493    500    502     1  0.0000000  1.2552000  3
    494    506    518    519     1  0.0000000  0.6508444  3
    494    506    518    520     1  0.0000000  0.6508444  3
    495    494    493    497     1  0.0000000  1.2552000  3
    495    494    493    500     1  0.0000000  1.2552000  3
    495    494    506    518     1  0.0000000  0.6508444  3
    495    494    506    507     1  0.0000000  0.6508444  3
    495    494    506    508     1  0.0000000  0.6508444  3
    496    494    493    497     1  0.0000000  1.2552000  3
    496    494    493    500     1  0.0000000  1.2552000  3
    496    494    506    518     1  0.0000000  0.6508444  3
    496    494    506    507     1  0.0000000  0.6508444  3
    496    494    506    508     1  0.0000000  0.6508444  3
    497    493    500    501     1  0.0000000  1.2552000  3
    497    493    500    502     1  0.0000000  1.2552000  3
    497    509    515    516     1  0.0000000  0.6508444  3
    497    509    515    517     1  0.0000000  0.6508444  3
    498    497    493    500     1  0.0000000  1.2552000  3
    498    497    509    515     1  0.0000000  0.6508444  3
    498    497    509    510     1  0.0000000  0.6508444  3
    498    497    509    511     1  0.0000000  0.6508444  3
    499    497    493    500     1  0.0000000  1.2552000  3
    499    497    509    515     1  0.0000000  0.6508444  3
    499    497    509    510     1  0.0000000  0.6508444  3
    499    497    509    511     1  0.0000000  0.6508444  3
    500    503    512    513     1  0.0000000  0.6508444  3
    500    503    512    514     1  0.0000000  0.6508444  3
    501    500    503    512     1  0.0000000  0.6508444  3
    501    500    503    504     1  0.0000000  0.6508444  3
    501    500    503    505     1  0.0000000  0.6508444  3
    502    500    503    512     1  0.0000000  0.6508444  3
    502    500    503    504     1  0.0000000  0.6508444  3
    502    500    503    505     1  0.0000000  0.6508444  3
    504    503    512    521     1  0.0000000  1.0460000  1
    504    503    512    521     1  0.0000000  0.0000000  3
    504    503    512    513     1  0.0000000  0.6508444  3
    504    503    512    514     1  0.0000000  0.6508444  3
    505    503    512    521     1  0.0000000  1.0460000  1
    505    503    512    521     1  0.0000000  0.0000000  3
    505    503    512    513     1  0.0000000  0.6508444  3
    505    503    512    514     1  0.0000000  0.6508444  3
    507    506    518   1101     1  0.0000000  1.0460000  1
    507    506    518   1101     1  0.0000000  0.0000000  3
    507    506    518    519     1  0.0000000  0.6508444  3
    507    506    518    520     1  0.0000000  0.6508444  3
    508    506    518   1101     1  0.0000000  1.0460000  1
    508    506    518   1101     1  0.0000000  0.0000000  3
    508    506    518    519     1  0.0000000  0.6508444  3
    508    506    518    520     1  0.0000000  0.6508444  3
    510    509    515   1072     1  0.0000000  1.0460000  1
    510    509    515   1072     1  0.0000000  0.0000000  3
    510    509    515    516     1  0.0000000  0.6508444  3
    510    509    515    517     1  0.0000000  0.6508444  3
    511    509    515   1072     1  0.0000000  1.0460000  1
    511    509    515   1072     1  0.0000000  0.0000000  3
    511    509    515    516     1  0.0000000  0.6508444  3
    511    509    515    517     1  0.0000000  0.6508444  3
    515   1072   1063   1064     1  0.0000000  1.6038667  3
    515   1072   1063   1065     1  0.0000000  1.6038667  3
    516    515   1072   1063     1  0.0000000  1.6038667  3
    517    515   1072   1063     1  0.0000000  1.6038667  3
    518   1101   1092   1093     1  0.0000000  1.6038667  3
    518   1101   1092   1094     1  0.0000000  1.6038667  3
    519    518   1101   1092     1  0.0000000  1.6038667  3
    520    518   1101   1092     1  0.0000000  1.6038667  3
    522    523    535    536     1  0.0000000  0.6508444  3
    522    523    535    537     1  0.0000000  0.6508444  3
    522    526    538    539     1  0.0000000  0.6508444  3
    522    526    538    540     1  0.0000000  0.6508444  3
    522    529    532    533     1  0.0000000  0.6508444  3
    522    529    532    534     1  0.0000000  0.6508444  3
    523    522    526    527     1  0.0000000  1.2552000  3
    523    522    526    528     1  0.0000000  1.2552000  3
    523    522    529    530     1  0.0000000  1.2552000  3
    523    522    529    531     1  0.0000000  1.2552000  3
    523    535    547    548     1  0.0000000  0.6508444  3
    523    535    547    549     1  0.0000000  0.6508444  3
    524    523    522    526     1  0.0000000  1.2552000  3
    524    523    522    529     1  0.0000000  1.2552000  3
    524    523    535    547     1  0.0000000  0.6508444  3
    524    523    535    536     1  0.0000000  0.6508444  3
    524    523    535    537     1  0.0000000  0.6508444  3
    525    523    522    526     1  0.0000000  1.2552000  3
    525    523    522    529     1  0.0000000  1.2552000  3
    525    523    535    547     1  0.0000000  0.6508444  3
    525    523    535    536     1  0.0000000  0.6508444  3
    525    523    535    537     1  0.0000000  0.6508444  3
    526    522    529    530     1  0.0000000  1.2552000  3
    526    522    529    531     1  0.0000000  1.2552000  3
    526    538    544    545     1  0.0000000  0.6508444  3
    526    538    544    546     1  0.0000000  0.6508444  3
    527    526    522    529     1  0.0000000  1.2552000  3
    527    526    538    544     1  0.0000000  0.6508444  3
    527    526    538    539     1  0.0000000  0.6508444  3
    527    526    538    540     1  0.0000000  0.6508444  3
    528    526    522    529     1  0.0000000  1.2552000  3
    528    526    538    544     1  0.0000000  0.6508444  3
    528    526    538    539     1  0.0000000  0.6508444  3
    528    526    538    540     1  0.0000000  0.6508444  3
    529    532    541    542     1  0.0000000  0.6508444  3
    529    532    541    543     1  0.0000000  0.6508444  3
    530    529    532    541     1  0.0000000  0.6508444  3
    530    529    532    533     1  0.0000000  0.6508444  3
    530    529    532    534     1  0.0000000  0.6508444  3
    531    529    532    541     1  0.0000000  0.6508444  3
    531    529    532    533     1  0.0000000  0.6508444  3
    531    529    532    534     1  0.0000000  0.6508444  3
    533    532    541    550     1  0.0000000  1.0460000  1
    533    532    541    550     1  0.0000000  0.0000000  3
    533    532    541    542     1  0.0000000  0.6508444  3
    533    532    541    543     1  0.0000000  0.6508444  3
    534    532    541    550     1  0.0000000  1.0460000  1
    534    532    541    550     1  0.0000000  0.0000000  3
    534    532    541    542     1  0.0000000  0.6508444  3
    534    532    541    543     1  0.0000000  0.6508444  3
    536    535    547   1159     1  0.0000000  1.0460000  1
    536    535    547   1159     1  0.0000000  0.0000000  3
    536    535    547    548     1  0.0000000  0.6508444  3
    536    535    547    549     1  0.0000000  0.6508444  3
    537    535    547   1159     1  0.0000000  1.0460000  1
    537    535    547   1159     1  0.0000000  0.0000000  3
    537    535    547    548     1  0.0000000  0.6508444  3
    537    535    547    549     1  0.0000000  0.6508444  3
    539    538    544   1130     1  0.0000000  1.0460000  1
    539    538    544   1130     1  0.0000000  0.0000000  3
    539    538    544    545     1  0.0000000  0.6508444  3
    539    538    544    546     1  0.0000000  0.6508444  3
    540    538    544   1130     1  0.0000000  1.0460000  1
    540    538    544   1130     1  0.0000000  0.0000000  3
    540    538    544    545     1  0.0000000  0.6508444  3
    540    538    544    546     1  0.0000000  0.6508444  3
    544   1130   1121   1122     1  0.0000000  1.6038667  3
    544   1130   1121   1123     1  0.0000000  1.6038667  3
    545    544   1130   1121     1  0.0000000  1.6038667  3
    546    544   1130   1121     1  0.0000000  1.6038667  3
    547   1159   1150   1151     1  0.0000000  1.6038667  3
    547   1159   1150   1152     1  0.0000000  1.6038667  3
    548    547   1159   1150     1  0.0000000  1.6038667  3
    549    547   1159   1150     1  0.0000000  1.6038667  3
    551    552    564    565     1  0.0000000  0.6508444  3
    551    552    564    566     1  0.0000000  0.6508444  3
    551    555    567    568     1  0.0000000  0.6508444  3
    551    555    567    569     1  0.0000000  0.6508444  3
    551    558    561    562     1  0.0000000  0.6508444  3
    551    558    561    563     1  0.0000000  0.6508444  3
    552    551    555    556     1  0.0000000  1.2552000  3
    552    551    555    557     1  0.0000000  1.2552000  3
    552    551    558    559     1  0.0000000  1.2552000  3
    552    551    558    560     1  0.0000000  1.2552000  3
    552    564    576    577     1  0.0000000  0.6508444  3
    552    564    576    578     1  0.0000000  0.6508444  3
    553    552    551    555     1  0.0000000  1.2552000  3
    553    552    551    558     1  0.0000000  1.2552000  3
    553    552    564    576     1  0.0000000  0.6508444  3
    553    552    564    565     1  0.0000000  0.6508444  3
    553    552    564    566     1  0.0000000  0.6508444  3
    554    552    551    555     1  0.0000000  1.2552000  3
    554    552    551    558     1  0.0000000  1.2552000  3
    554    552    564    576     1  0.0000000  0.6508444  3
    554    552    564    565     1  0.0000000  0.6508444  3
    554    552    564    566     1  0.0000000  0.6508444  3
    555    551    558    559     1  0.0000000  1.2552000  3
    555    551    558    560     1  0.0000000  1.2552000  3
    555    567    573    574     1  0.0000000  0.6508444  3
    555    567    573    575     1  0.0000000  0.6508444  3
    556    555    551    558     1  0.0000000  1.2552000  3
    556    555    567    573     1  0.0000000  0.6508444  3
    556    555    567    568     1  0.0000000  0.6508444  3
    556    555    567    569     1  0.0000000  0.6508444  3
    557    555    551    558     1  0.0000000  1.2552000  3
    557    555    567    573     1  0.0000000  0.6508444  3
    557    555    567    568     1  0.0000000  0.6508444  3
    557    555    567    569     1  0.0000000  0.6508444  3
    558    561    570    571     1  0.0000000  0.6508444  3
    558    561    570    572     1  0.0000000  0.6508444  3
    559    558    561    570     1  0.0000000  0.6508444  3
    559    558    561    562     1  0.0000000  0.6508444  3
    559    558    561    563     1  0.0000000  0.6508444  3
    560    558    561    570     1  0.0000000  0.6508444  3
    560    558    561    562     1  0.0000000  0.6508444  3
    560    558    561    563     1  0.0000000  0.6508444  3
    562    561    570    579     1  0.0000000  1.0460000  1
    562    561    570    579     1  0.0000000  0.0000000  3
    562    561    570    571     1  0.0000000  0.6508444  3
    562    561    570    572     1  0.0000000  0.6508444  3
    563    561    570    579     1  0.0000000  1.0460000  1
    563    561    570    579     1  0.0000000  0.0000000  3
    563    561    570    571     1  0.0000000  0.6508444  3
    563    561    570    572     1  0.0000000  0.6508444  3
    565    564    576   1217     1  0.0000000  1.0460000  1
    565    564    576   1217     1  0.0000000  0.0000000  3
    565    564    576    577     1  0.0000000  0.6508444  3
    565    564    576    578     1  0.0000000  0.6508444  3
    566    564    576   1217     1  0.0000000  1.0460000  1
    566    564    576   1217     1  0.0000000  0.0000000  3
    566    564    576    577     1  0.0000000  0.6508444  3
    566    564    576    578     1  0.0000000  0.6508444  3
    568    567    573   1188     1  0.0000000  1.0460000  1
    568    567    573   1188     1  0.0000000  0.0000000  3
    568    567    573    574     1  0.0000000  0.6508444  3
    568    567    573    575     1  0.0000000  0.6508444  3
    569    567    573   1188     1  0.0000000  1.0460000  1
    569    567    573   1188     1  0.0000000  0.0000000  3
    569    567    573    574     1  0.0000000  0.6508444  3
    569    567    573    575     1  0.0000000  0.6508444  3
    573   1188   1179   1180     1  0.0000000  1.6038667  3
    573   1188   1179   1181     1  0.0000000  1.6038667  3
    574    573   1188   1179     1  0.0000000  1.6038667  3
    575    573   1188   1179     1  0.0000000  1.6038667  3
    576   1217   1208   1209     1  0.0000000  1.6038667  3
    576   1217   1208   1210     1  0.0000000  1.6038667  3
    577    576   1217   1208     1  0.0000000  1.6038667  3
    578    576   1217   1208     1  0.0000000  1.6038667  3
    580    581    593    594     1  0.0000000  0.6508444  3
    580    581    593    595     1  0.0000000  0.6508444  3
    580    584    596    597     1  0.0000000  0.6508444  3
    580    584    596    598     1  0.0000000  0.6508444  3
    580    587    590    591     1  0.0000000  0.6508444  3
    580    587    590    592     1  0.0000000  0.6508444  3
    581    580    584    585     1  0.0000000  1.2552000  3
    581    580    584    586     1  0.0000000  1.2552000  3
    581    580    587    588     1  0.0000000  1.2552000  3
    581    580    587    589     1  0.0000000  1.2552000  3
    581    593    605    606     1  0.0000000  0.6508444  3
    581    593    605    607     1  0.0000000  0.6508444  3
    582    581    580    584     1  0.0000000  1.2552000  3
    582    581    580    587     1  0.0000000  1.2552000  3
    582    581    593    605     1  0.0000000  0.6508444  3
    582    581    593    594     1  0.0000000  0.6508444  3
    582    581    593    595     1  0.0000000  0.6508444  3
    583    581    580    584     1  0.0000000  1.2552000  3
    583    581    580    587     1  0.0000000  1.2552000  3
    583    581    593    605     1  0.0000000  0.6508444  3
    583    581    593    594     1  0.0000000  0.6508444  3
    583    581    593    595     1  0.0000000  0.6508444  3
    584    580    587    588     1  0.0000000  1.2552000  3
    584    580    587    589     1  0.0000000  1.2552000  3
    584    596    602    603     1  0.0000000  0.6508444  3
    584    596    602    604     1  0.0000000  0.6508444  3
    585    584    580    587     1  0.0000000  1.2552000  3
    585    584    596    602     1  0.0000000  0.6508444  3
    585    584    596    597     1  0.0000000  0.6508444  3
    585    584    596    598     1  0.0000000  0.6508444  3
    586    584    580    587     1  0.0000000  1.2552000  3
    586    584    596    602     1  0.0000000  0.6508444  3
    586    584    596    597     1  0.0000000  0.6508444  3
    586    584    596    598     1  0.0000000  0.6508444  3
    587    590    599    600     1  0.0000000  0.6508444  3
    587    590    599    601     1  0.0000000  0.6508444  3
    588    587    590    599     1  0.0000000  0.6508444  3
    588    587    590    591     1  0.0000000  0.6508444  3
    588    587    590    592     1  0.0000000  0.6508444  3
    589    587    590    599     1  0.0000000  0.6508444  3
    589    587    590    591     1  0.0000000  0.6508444  3
    589    587    590    592     1  0.0000000  0.6508444  3
    591    590    599    608     1  0.0000000  1.0460000  1
    591    590    599    608     1  0.0000000  0.0000000  3
    591    590    599    600     1  0.0000000  0.6508444  3
    591    590    599    601     1  0.0000000  0.6508444  3
    592    590    599    608     1  0.0000000  1.0460000  1
    592    590    599    608     1  0.0000000  0.0000000  3
    592    590    599    600     1  0.0000000  0.6508444  3
    592    590    599    601     1  0.0000000  0.6508444  3
    594    593    605   1275     1  0.0000000  1.0460000  1
    594    593    605   1275     1  0.0000000  0.0000000  3
    594    593    605    606     1  0.0000000  0.6508444  3
    594    593    605    607     1  0.0000000  0.6508444  3
    595    593    605   1275     1  0.0000000  1.0460000  1
    595    593    605   1275     1  0.0000000  0.0000000  3
    595    593    605    606     1  0.0000000  0.6508444  3
    595    593    605    607     1  0.0000000  0.6508444  3
    597    596    602   1246     1  0.0000000  1.0460000  1
    597    596    602   1246     1  0.0000000  0.0000000  3
    597    596    602    603     1  0.0000000  0.6508444  3
    597    596    602    604     1  0.0000000  0.6508444  3
    598    596    602   1246     1  0.0000000  1.0460000  1
    598    596    602   1246     1  0.0000000  0.0000000  3
    598    596    602    603     1  0.0000000  0.6508444  3
    598    596    602    604     1  0.0000000  0.6508444  3
    602   1246   1237   1238     1  0.0000000  1.6038667  3
    602   1246   1237   1239     1  0.0000000  1.6038667  3
    603    602   1246   1237     1  0.0000000  1.6038667  3
    604    602   1246   1237     1  0.0000000  1.6038667  3
    605   1275   1266   1267     1  0.0000000  1.6038667  3
    605   1275   1266   1268     1  0.0000000  1.6038667  3
    606    605   1275   1266     1  0.0000000  1.6038667  3
    607    605   1275   1266     1  0.0000000  1.6038667  3
    609    610    622    623     1  0.0000000  0.6508444  3
    609    610    622    624     1  0.0000000  0.6508444  3
    609    613    625    626     1  0.0000000  0.6508444  3
    609    613    625    627     1  0.0000000  0.6508444  3
    609    616    619    620     1  0.0000000  0.6508444  3
    609    616    619    621     1  0.0000000  0.6508444  3
    610    609    613    614     1  0.0000000  1.2552000  3
    610    609    613    615     1  0.0000000  1.2552000  3
    610    609    616    617     1  0.0000000  1.2552000  3
    610    609    616    618     1  0.0000000  1.2552000  3
    610    622    634    635     1  0.0000000  0.6508444  3
    610    622    634    636     1  0.0000000  0.6508444  3
    611    610    609    613     1  0.0000000  1.2552000  3
    611    610    609    616     1  0.0000000  1.2552000  3
    611    610    622    634     1  0.0000000  0.6508444  3
    611    610    622    623     1  0.0000000  0.6508444  3
    611    610    622    624     1  0.0000000  0.6508444  3
    612    610    609    613     1  0.0000000  1.2552000  3
    612    610    609    616     1  0.0000000  1.2552000  3
    612    610    622    634     1  0.0000000  0.6508444  3
    612    610    622    623     1  0.0000000  0.6508444  3
    612    610    622    624     1  0.0000000  0.6508444  3
    613    609    616    617     1  0.0000000  1.2552000  3
    613    609    616    618     1  0.0000000  1.2552000  3
    613    625    631    632     1  0.0000000  0.6508444  3
    613    625    631    633     1  0.0000000  0.6508444  3
    614    613    609    616     1  0.0000000  1.2552000  3
    614    613    625    631     1  0.0000000  0.6508444  3
    614    613    625    626     1  0.0000000  0.6508444  3
    614    613    625    627     1  0.0000000  0.6508444  3
    615    613    609    616     1  0.0000000  1.2552000  3
    615    613    625    631     1  0.0000000  0.6508444  3
    615    613    625    626     1  0.0000000  0.6508444  3
    615    613    625    627     1  0.0000000  0.6508444  3
    616    619    628    629     1  0.0000000  0.6508444  3
    616    619    628    630     1  0.0000000  0.6508444  3
    617    616    619    628     1  0.0000000  0.6508444  3
    617    616    619    620     1  0.0000000  0.6508444  3
    617    616    619    621     1  0.0000000  0.6508444  3
    618    616    619    628     1  0.0000000  0.6508444  3
    618    616    619    620     1  0.0000000  0.6508444  3
    618    616    619    621     1  0.0000000  0.6508444  3
    620    619    628    637     1  0.0000000  1.0460000  1
    620    619    628    637     1  0.0000000  0.0000000  3
    620    619    628    629     1  0.0000000  0.6508444  3
    620    619    628    630     1  0.0000000  0.6508444  3
    621    619    628    637     1  0.0000000  1.0460000  1
    621    619    628    637     1  0.0000000  0.0000000  3
    621    619    628    629     1  0.0000000  0.6508444  3
    621    619    628    630     1  0.0000000  0.6508444  3
    623    622    634   1333     1  0.0000000  1.0460000  1
    623    622    634   1333     1  0.0000000  0.0000000  3
    623    622    634    635     1  0.0000000  0.6508444  3
    623    622    634    636     1  0.0000000  0.6508444  3
    624    622    634   1333     1  0.0000000  1.0460000  1
    624    622    634   1333     1  0.0000000  0.0000000  3
    624    622    634    635     1  0.0000000  0.6508444  3
    624    622    634    636     1  0.0000000  0.6508444  3
    626    625    631   1304     1  0.0000000  1.0460000  1
    626    625    631   1304     1  0.0000000  0.0000000  3
    626    625    631    632     1  0.0000000  0.6508444  3
    626    625    631    633     1  0.0000000  0.6508444  3
    627    625    631   1304     1  0.0000000  1.0460000  1
    627    625    631   1304     1  0.0000000  0.0000000  3
    627    625    631    632     1  0.0000000  0.6508444  3
    627    625    631    633     1  0.0000000  0.6508444  3
    631   1304   1295   1296     1  0.0000000  1.6038667  3
    631   1304   1295   1297     1  0.0000000  1.6038667  3
    632    631   1304   1295     1  0.0000000  1.6038667  3
    633    631   1304   1295     1  0.0000000  1.6038667  3
    634   1333   1324   1325     1  0.0000000  1.6038667  3
    634   1333   1324   1326     1  0.0000000  1.6038667  3
    635    634   1333   1324     1  0.0000000  1.6038667  3
    636    634   1333   1324     1  0.0000000  1.6038667  3
    638    639    651    652     1  0.0000000  0.6508444  3
    638    639    651    653     1  0.0000000  0.6508444  3
    638    642    654    655     1  0.0000000  0.6508444  3
    638    642    654    656     1  0.0000000  0.6508444  3
    638    645    648    649     1  0.0000000  0.6508444  3
    638    645    648    650     1  0.0000000  0.6508444  3
    639    638    642    643     1  0.0000000  1.2552000  3
    639    638    642    644     1  0.0000000  1.2552000  3
    639    638    645    646     1  0.0000000  1.2552000  3
    639    638    645    647     1  0.0000000  1.2552000  3
    639    651    663    664     1  0.0000000  0.6508444  3
    639    651    663    665     1  0.0000000  0.6508444  3
    640    639    638    642     1  0.0000000  1.2552000  3
    640    639    638    645     1  0.0000000  1.2552000  3
    640    639    651    663     1  0.0000000  0.6508444  3
    640    639    651    652     1  0.0000000  0.6508444  3
    640    639    651    653     1  0.0000000  0.6508444  3
    641    639    638    642     1  0.0000000  1.2552000  3
    641    639    638    645     1  0.0000000  1.2552000  3
    641    639    651    663     1  0.0000000  0.6508444  3
    641    639    651    652     1  0.0000000  0.6508444  3
    641    639    651    653     1  0.0000000  0.6508444  3
    642    638    645    646     1  0.0000000  1.2552000  3
    642    638    645    647     1  0.0000000  1.2552000  3
    642    654    660    661     1  0.0000000  0.6508444  3
    642    654    660    662     1  0.0000000  0.6508444  3
    643    642    638    645     1  0.0000000  1.2552000  3
    643    642    654    660     1  0.0000000  0.6508444  3
    643    642    654    655     1  0.0000000  0.6508444  3
    643    642    654    656     1  0.0000000  0.6508444  3
    644    642    638    645     1  0.0000000  1.2552000  3
    644    642    654    660     1  0.0000000  0.6508444  3
    644    642    654    655     1  0.0000000  0.6508444  3
    644    642    654    656     1  0.0000000  0.6508444  3
    645    648    657    658     1  0.0000000  0.6508444  3
    645    648    657    659     1  0.0000000  0.6508444  3
    646    645    648    657     1  0.0000000  0.6508444  3
    646    645    648    649     1  0.0000000  0.6508444  3
    646    645    648    650     1  0.0000000  0.6508444  3
    647    645    648    657     1  0.0000000  0.6508444  3
    647    645    648    649     1  0.0000000  0.6508444  3
    647    645    648    650     1  0.0000000  0.6508444  3
    649    648    657    666     1  0.0000000  1.0460000  1
    649    648    657    666     1  0.0000000  0.0000000  3
    649    648    657    658     1  0.0000000  0.6508444  3
    649    648    657    659     1  0.0000000  0.6508444  3
    650    648    657    666     1  0.0000000  1.0460000  1
    650    648    657    666     1  0.0000000  0.0000000  3
    650    648    657    658     1  0.0000000  0.6508444  3
    650    648    657    659     1  0.0000000  0.6508444  3
    652    651    663   1391     1  0.0000000  1.0460000  1
    652    651    663   1391     1  0.0000000  0.0000000  3
    652    651    663    664     1  0.0000000  0.6508444  3
    652    651    663    665     1  0.0000000  0.6508444  3
    653    651    663   1391     1  0.0000000  1.0460000  1
    653    651    663   1391     1  0.0000000  0.0000000  3
    653    651    663    664     1  0.0000000  0.6508444  3
    653    651    663    665     1  0.0000000  0.6508444  3
    655    654    660   1362     1  0.0000000  1.0460000  1
    655    654    660   1362     1  0.0000000  0.0000000  3
    655    654    660    661     1  0.0000000  0.6508444  3
    655    654    660    662     1  0.0000000  0.6508444  3
    656    654    660   1362     1  0.0000000  1.0460000  1
    656    654    660   1362     1  0.0000000  0.0000000  3
    656    654    660    661     1  0.0000000  0.6508444  3
    656    654    660    662     1  0.0000000  0.6508444  3
    660   1362   1353   1354     1  0.0000000  1.6038667  3
    660   1362   1353   1355     1  0.0000000  1.6038667  3
    661    660   1362   1353     1  0.0000000  1.6038667  3
    662    660   1362   1353     1  0.0000000  1.6038667  3
    663   1391   1382   1383     1  0.0000000  1.6038667  3
    663   1391   1382   1384     1  0.0000000  1.6038667  3
    664    663   1391   1382     1  0.0000000  1.6038667  3
    665    663   1391   1382     1  0.0000000  1.6038667  3
    667    668    680    681     1  0.0000000  0.6508444  3
    667    668    680    682     1  0.0000000  0.6508444  3
    667    671    683    684     1  0.0000000  0.6508444  3
    667    671    683    685     1  0.0000000  0.6508444  3
    667    674    677    678     1  0.0000000  0.6508444  3
    667    674    677    679     1  0.0000000  0.6508444  3
    668    667    671    672     1  0.0000000  1.2552000  3
    668    667    671    673     1  0.0000000  1.2552000  3
    668    667    674    675     1  0.0000000  1.2552000  3
    668    667    674    676     1  0.0000000  1.2552000  3
    668    680    692    693     1  0.0000000  0.6508444  3
    668    680    692    694     1  0.0000000  0.6508444  3
    669    668    667    671     1  0.0000000  1.2552000  3
    669    668    667    674     1  0.0000000  1.2552000  3
    669    668    680    692     1  0.0000000  0.6508444  3
    669    668    680    681     1  0.0000000  0.6508444  3
    669    668    680    682     1  0.0000000  0.6508444  3
    670    668    667    671     1  0.0000000  1.2552000  3
    670    668    667    674     1  0.0000000  1.2552000  3
    670    668    680    692     1  0.0000000  0.6508444  3
    670    668    680    681     1  0.0000000  0.6508444  3
    670    668    680    682     1  0.0000000  0.6508444  3
    671    667    674    675     1  0.0000000  1.2552000  3
    671    667    674    676     1  0.0000000  1.2552000  3
    671    683    689    690     1  0.0000000  0.6508444  3
    671    683    689    691     1  0.0000000  0.6508444  3
    672    671    667    674     1  0.0000000  1.2552000  3
    672    671    683    689     1  0.0000000  0.6508444  3
    672    671    683    684     1  0.0000000  0.6508444  3
    672    671    683    685     1  0.0000000  0.6508444  3
    673    671    667    674     1  0.0000000  1.2552000  3
    673    671    683    689     1  0.0000000  0.6508444  3
    673    671    683    684     1  0.0000000  0.6508444  3
    673    671    683    685     1  0.0000000  0.6508444  3
    674    677    686    687     1  0.0000000  0.6508444  3
    674    677    686    688     1  0.0000000  0.6508444  3
    675    674    677    686     1  0.0000000  0.6508444  3
    675    674    677    678     1  0.0000000  0.6508444  3
    675    674    677    679     1  0.0000000  0.6508444  3
    676    674    677    686     1  0.0000000  0.6508444  3
    676    674    677    678     1  0.0000000  0.6508444  3
    676    674    677    679     1  0.0000000  0.6508444  3
    678    677    686    695     1  0.0000000  1.0460000  1
    678    677    686    695     1  0.0000000  0.0000000  3
    678    677    686    687     1  0.0000000  0.6508444  3
    678    677    686    688     1  0.0000000  0.6508444  3
    679    677    686    695     1  0.0000000  1.0460000  1
    679    677    686    695     1  0.0000000  0.0000000  3
    679    677    686    687     1  0.0000000  0.6508444  3
    679    677    686    688     1  0.0000000  0.6508444  3
    681    680    692   1449     1  0.0000000  1.0460000  1
    681    680    692   1449     1  0.0000000  0.0000000  3
    681    680    692    693     1  0.0000000  0.6508444  3
    681    680    692    694     1  0.0000000  0.6508444  3
    682    680    692   1449     1  0.0000000  1.0460000  1
    682    680    692   1449     1  0.0000000  0.0000000  3
    682    680    692    693     1  0.0000000  0.6508444  3
    682    680    692    694     1  0.0000000  0.6508444  3
    684    683    689   1420     1  0.0000000  1.0460000  1
    684    683    689   1420     1  0.0000000  0.0000000  3
    684    683    689    690     1  0.0000000  0.6508444  3
    684    683    689    691     1  0.0000000  0.6508444  3
    685    683    689   1420     1  0.0000000  1.0460000  1
    685    683    689   1420     1  0.0000000  0.0000000  3
    685    683    689    690     1  0.0000000  0.6508444  3
    685    683    689    691     1  0.0000000  0.6508444  3
    689   1420   1411   1412     1  0.0000000  1.6038667  3
    689   1420   1411   1413     1  0.0000000  1.6038667  3
    690    689   1420   1411     1  0.0000000  1.6038667  3
    691    689   1420   1411     1  0.0000000  1.6038667  3
    692   1449   1440   1441     1  0.0000000  1.6038667  3
    692   1449   1440   1442     1  0.0000000  1.6038667  3
    693    692   1449   1440     1  0.0000000  1.6038667  3
    694    692   1449   1440     1  0.0000000  1.6038667  3
    696    697    709    710     1  0.0000000  0.6508444  3
    696    697    709    711     1  0.0000000  0.6508444  3
    696    700    712    713     1  0.0000000  0.6508444  3
    696    700    712    714     1  0.0000000  0.6508444  3
    696    703    706    707     1  0.0000000  0.6508444  3
    696    703    706    708     1  0.0000000  0.6508444  3
    697    696    700    701     1  0.0000000  1.2552000  3
    697    696    700    702     1  0.0000000  1.2552000  3
    697    696    703    704     1  0.0000000  1.2552000  3
    697    696    703    705     1  0.0000000  1.2552000  3
    697    709    721    722     1  0.0000000  0.6508444  3
    697    709    721    723     1  0.0000000  0.6508444  3
    698    697    696    700     1  0.0000000  1.2552000  3
    698    697    696    703     1  0.0000000  1.2552000  3
    698    697    709    721     1  0.0000000  0.6508444  3
    698    697    709    710     1  0.0000000  0.6508444  3
    698    697    709    711     1  0.0000000  0.6508444  3
    699    697    696    700     1  0.0000000  1.2552000  3
    699    697    696    703     1  0.0000000  1.2552000  3
    699    697    709    721     1  0.0000000  0.6508444  3
    699    697    709    710     1  0.0000000  0.6508444  3
    699    697    709    711     1  0.0000000  0.6508444  3
    700    696    703    704     1  0.0000000  1.2552000  3
    700    696    703    705     1  0.0000000  1.2552000  3
    700    712    718    719     1  0.0000000  0.6508444  3
    700    712    718    720     1  0.0000000  0.6508444  3
    701    700    696    703     1  0.0000000  1.2552000  3
    701    700    712    718     1  0.0000000  0.6508444  3
    701    700    712    713     1  0.0000000  0.6508444  3
    701    700    712    714     1  0.0000000  0.6508444  3
    702    700    696    703     1  0.0000000  1.2552000  3
    702    700    712    718     1  0.0000000  0.6508444  3
    702    700    712    713     1  0.0000000  0.6508444  3
    702    700    712    714     1  0.0000000  0.6508444  3
    703    706    715    716     1  0.0000000  0.6508444  3
    703    706    715    717     1  0.0000000  0.6508444  3
    704    703    706    715     1  0.0000000  0.6508444  3
    704    703    706    707     1  0.0000000  0.6508444  3
    704    703    706    708     1  0.0000000  0.6508444  3
    705    703    706    715     1  0.0000000  0.6508444  3
    705    703    706    707     1  0.0000000  0.6508444  3
    705    703    706    708     1  0.0000000  0.6508444  3
    707    706    715    724     1  0.0000000  1.0460000  1
    707    706    715    724     1  0.0000000  0.0000000  3
    707    706    715    716     1  0.0000000  0.6508444  3
    707    706    715    717     1  0.0000000  0.6508444  3
    708    706    715    724     1  0.0000000  1.0460000  1
    708    706    715    724     1  0.0000000  0.0000000  3
    708    706    715    716     1  0.0000000  0.6508444  3
    708    706    715    717     1  0.0000000  0.6508444  3
    710    709    721   1507     1  0.0000000  1.0460000  1
    710    709    721   1507     1  0.0000000  0.0000000  3
    710    709    721    722     1  0.0000000  0.6508444  3
    710    709    721    723     1  0.0000000  0.6508444  3
    711    709    721   1507     1  0.0000000  1.0460000  1
    711    709    721   1507     1  0.0000000  0.0000000  3
    711    709    721    722     1  0.0000000  0.6508444  3
    711    709    721    723     1  0.0000000  0.6508444  3
    713    712    718   1478     1  0.0000000  1.0460000  1
    713    712    718   1478     1  0.0000000  0.0000000  3
    713    712    718    719     1  0.0000000  0.6508444  3
    713    712    718    720     1  0.0000000  0.6508444  3
    714    712    718   1478     1  0.0000000  1.0460000  1
    714    712    718   1478     1  0.0000000  0.0000000  3
    714    712    718    719     1  0.0000000  0.6508444  3
    714    712    718    720     1  0.0000000  0.6508444  3
    718   1478   1469   1470     1  0.0000000  1.6038667  3
    718   1478   1469   1471     1  0.0000000  1.6038667  3
    719    718   1478   1469     1  0.0000000  1.6038667  3
    720    718   1478   1469     1  0.0000000  1.6038667  3
    721   1507   1498   1499     1  0.0000000  1.6038667  3
    721   1507   1498   1500     1  0.0000000  1.6038667  3
    722    721   1507   1498     1  0.0000000  1.6038667  3
    723    721   1507   1498     1  0.0000000  1.6038667  3
    725    726    738    739     1  0.0000000  0.6508444  3
    725    726    738    740     1  0.0000000  0.6508444  3
    725    729    741    742     1  0.0000000  0.6508444  3
    725    729    741    743     1  0.0000000  0.6508444  3
    725    732    735    736     1  0.0000000  0.6508444  3
    725    732    735    737     1  0.0000000  0.6508444  3
    726    725    729    730     1  0.0000000  1.2552000  3
    726    725    729    731     1  0.0000000  1.2552000  3
    726    725    732    733     1  0.0000000  1.2552000  3
    726    725    732    734     1  0.0000000  1.2552000  3
    726    738    750    751     1  0.0000000  0.6508444  3
    726    738    750    752     1  0.0000000  0.6508444  3
    727    726    725    729     1  0.0000000  1.2552000  3
    727    726    725    732     1  0.0000000  1.2552000  3
    727    726    738    750     1  0.0000000  0.6508444  3
    727    726    738    739     1  0.0000000  0.6508444  3
    727    726    738    740     1  0.0000000  0.6508444  3
    728    726    725    729     1  0.0000000  1.2552000  3
    728    726    725    732     1  0.0000000  1.2552000  3
    728    726    738    750     1  0.0000000  0.6508444  3
    728    726    738    739     1  0.0000000  0.6508444  3
    728    726    738    740     1  0.0000000  0.6508444  3
    729    725    732    733     1  0.0000000  1.2552000  3
    729    725    732    734     1  0.0000000  1.2552000  3
    729    741    747    748     1  0.0000000  0.6508444  3
    729    741    747    749     1  0.0000000  0.6508444  3
    730    729    725    732     1  0.0000000  1.2552000  3
    730    729    741    747     1  0.0000000  0.6508444  3
    730    729    741    742     1  0.0000000  0.6508444  3
    730    729    741    743     1  0.0000000  0.6508444  3
    731    729    725    732     1  0.0000000  1.2552000  3
    731    729    741    747     1  0.0000000  0.6508444  3
    731    729    741    742     1  0.0000000  0.6508444  3
    731    729    741    743     1  0.0000000  0.6508444  3
    732    735    744    745     1  0.0000000  0.6508444  3
    732    735    744    746     1  0.0000000  0.6508444  3
    733    732    735    744     1  0.0000000  0.6508444  3
    733    732    735    736     1  0.0000000  0.6508444  3
    733    732    735    737     1  0.0000000  0.6508444  3
    734    732    735    744     1  0.0000000  0.6508444  3
    734    732    735    736     1  0.0000000  0.6508444  3
    734    732    735    737     1  0.0000000  0.6508444  3
    736    735    744    753     1  0.0000000  1.0460000  1
    736    735    744    753     1  0.0000000  0.0000000  3
    736    735    744    745     1  0.0000000  0.6508444  3
    736    735    744    746     1  0.0000000  0.6508444  3
    737    735    744    753     1  0.0000000  1.0460000  1
    737    735    744    753     1  0.0000000  0.0000000  3
    737    735    744    745     1  0.0000000  0.6508444  3
    737    735    744    746     1  0.0000000  0.6508444  3
    739    738    750   1565     1  0.0000000  1.0460000  1
    739    738    750   1565     1  0.0000000  0.0000000  3
    739    738    750    751     1  0.0000000  0.6508444  3
    739    738    750    752     1  0.0000000  0.6508444  3
    740    738    750   1565     1  0.0000000  1.0460000  1
    740    738    750   1565     1  0.0000000  0.0000000  3
    740    738    750    751     1  0.0000000  0.6508444  3
    740    738    750    752     1  0.0000000  0.6508444  3
    742    741    747   1536     1  0.0000000  1.0460000  1
    742    741    747   1536     1  0.0000000  0.0000000  3
    742    741    747    748     1  0.0000000  0.6508444  3
    742    741    747    749     1  0.0000000  0.6508444  3
    743    741    747   1536     1  0.0000000  1.0460000  1
    743    741    747   1536     1  0.0000000  0.0000000  3
    743    741    747    748     1  0.0000000  0.6508444  3
    743    741    747    749     1  0.0000000  0.6508444  3
    747   1536   1527   1528     1  0.0000000  1.6038667  3
    747   1536   1527   1529     1  0.0000000  1.6038667  3
    748    747   1536   1527     1  0.0000000  1.6038667  3
    749    747   1536   1527     1  0.0000000  1.6038667  3
    750   1565   1556   1557     1  0.0000000  1.6038667  3
    750   1565   1556   1558     1  0.0000000  1.6038667  3
    751    750   1565   1556     1  0.0000000  1.6038667  3
    752    750   1565   1556     1  0.0000000  1.6038667  3
    754    755    767    768     1  0.0000000  0.6508444  3
    754    755    767    769     1  0.0000000  0.6508444  3
    754    758    770    771     1  0.0000000  0.6508444  3
    754    758    770    772     1  0.0000000  0.6508444  3
    754    761    764    765     1  0.0000000  0.6508444  3
    754    761    764    766     1  0.0000000  0.6508444  3
    755    754    758    759     1  0.0000000  1.2552000  3
    755    754    758    760     1  0.0000000  1.2552000  3
    755    754    761    762     1  0.0000000  1.2552000  3
    755    754    761    763     1  0.0000000  1.2552000  3
    755    767    779    780     1  0.0000000  0.6508444  3
    755    767    779    781     1  0.0000000  0.6508444  3
    756    755    754    758     1  0.0000000  1.2552000  3
    756    755    754    761     1  0.0000000  1.2552000  3
    756    755    767    779     1  0.0000000  0.6508444  3
    756    755    767    768     1  0.0000000  0.6508444  3
    756    755    767    769     1  0.0000000  0.6508444  3
    757    755    754    758     1  0.0000000  1.2552000  3
    757    755    754    761     1  0.0000000  1.2552000  3
    757    755    767    779     1  0.0000000  0.6508444  3
    757    755    767    768     1  0.0000000  0.6508444  3
    757    755    767    769     1  0.0000000  0.6508444  3
    758    754    761    762     1  0.0000000  1.2552000  3
    758    754    761    763     1  0.0000000  1.2552000  3
    758    770    776    777     1  0.0000000  0.6508444  3
    758    770    776    778     1  0.0000000  0.6508444  3
    759    758    754    761     1  0.0000000  1.2552000  3
    759    758    770    776     1  0.0000000  0.6508444  3
    759    758    770    771     1  0.0000000  0.6508444  3
    759    758    770    772     1  0.0000000  0.6508444  3
    760    758    754    761     1  0.0000000  1.2552000  3
    760    758    770    776     1  0.0000000  0.6508444  3
    760    758    770    771     1  0.0000000  0.6508444  3
    760    758    770    772     1  0.0000000  0.6508444  3
    761    764    773    774     1  0.0000000  0.6508444  3
    761    764    773    775     1  0.0000000  0.6508444  3
    762    761    764    773     1  0.0000000  0.6508444  3
    762    761    764    765     1  0.0000000  0.6508444  3
    762    761    764    766     1  0.0000000  0.6508444  3
    763    761    764    773     1  0.0000000  0.6508444  3
    763    761    764    765     1  0.0000000  0.6508444  3
    763    761    764    766     1  0.0000000  0.6508444  3
    765    764    773    782     1  0.0000000  1.0460000  1
    765    764    773    782     1  0.0000000  0.0000000  3
    765    764    773    774     1  0.0000000  0.6508444  3
    765    764    773    775     1  0.0000000  0.6508444  3
    766    764    773    782     1  0.0000000  1.0460000  1
    766    764    773    782     1  0.0000000  0.0000000  3
    766    764    773    774     1  0.0000000  0.6508444  3
    766    764    773    775     1  0.0000000  0.6508444  3
    768    767    779   1623     1  0.0000000  1.0460000  1
    768    767    779   1623     1  0.0000000  0.0000000  3
    768    767    779    780     1  0.0000000  0.6508444  3
    768    767    779    781     1  0.0000000  0.6508444  3
    769    767    779   1623     1  0.0000000  1.0460000  1
    769    767    779   1623     1  0.0000000  0.0000000  3
    769    767    779    780     1  0.0000000  0.6508444  3
    769    767    779    781     1  0.0000000  0.6508444  3
    771    770    776   1594     1  0.0000000  1.0460000  1
    771    770    776   1594     1  0.0000000  0.0000000  3
    771    770    776    777     1  0.0000000  0.6508444  3
    771    770    776    778     1  0.0000000  0.6508444  3
    772    770    776   1594     1  0.0000000  1.0460000  1
    772    770    776   1594     1  0.0000000  0.0000000  3
    772    770    776    777     1  0.0000000  0.6508444  3
    772    770    776    778     1  0.0000000  0.6508444  3
    776   1594   1585   1586     1  0.0000000  1.6038667  3
    776   1594   1585   1587     1  0.0000000  1.6038667  3
    777    776   1594   1585     1  0.0000000  1.6038667  3
    778    776   1594   1585     1  0.0000000  1.6038667  3
    779   1623   1614   1615     1  0.0000000  1.6038667  3
    779   1623   1614   1616     1  0.0000000  1.6038667  3
    780    779   1623   1614     1  0.0000000  1.6038667  3
    781    779   1623   1614     1  0.0000000  1.6038667  3
    783    784    796    797     1  0.0000000  0.6508444  3
    783    784    796    798     1  0.0000000  0.6508444  3
    783    787    799    800     1  0.0000000  0.6508444  3
    783    787    799    801     1  0.0000000  0.6508444  3
    783    790    793    794     1  0.0000000  0.6508444  3
    783    790    793    795     1  0.0000000  0.6508444  3
    784    783    787    788     1  0.0000000  1.2552000  3
    784    783    787    789     1  0.0000000  1.2552000  3
    784    783    790    791     1  0.0000000  1.2552000  3
    784    783    790    792     1  0.0000000  1.2552000  3
    784    796    808    809     1  0.0000000  0.6508444  3
    784    796    808    810     1  0.0000000  0.6508444  3
    785    784    783    787     1  0.0000000  1.2552000  3
    785    784    783    790     1  0.0000000  1.2552000  3
    785    784    796    808     1  0.0000000  0.6508444  3
    785    784    796    797     1  0.0000000  0.6508444  3
    785    784    796    798     1  0.0000000  0.6508444  3
    786    784    783    787     1  0.0000000  1.2552000  3
    786    784    783    790     1  0.0000000  1.2552000  3
    786    784    796    808     1  0.0000000  0.6508444  3
    786    784    796    797     1  0.0000000  0.6508444  3
    786    784    796    798     1  0.0000000  0.6508444  3
    787    783    790    791     1  0.0000000  1.2552000  3
    787    783    790    792     1  0.0000000  1.2552000  3
    787    799    805    806     1  0.0000000  0.6508444  3
    787    799    805    807     1  0.0000000  0.6508444  3
    788    787    783    790     1  0.0000000  1.2552000  3
    788    787    799    805     1  0.0000000  0.6508444  3
    788    787    799    800     1  0.0000000  0.6508444  3
    788    787    799    801     1  0.0000000  0.6508444  3
    789    787    783    790     1  0.0000000  1.2552000  3
    789    787    799    805     1  0.0000000  0.6508444  3
    789    787    799    800     1  0.0000000  0.6508444  3
    789    787    799    801     1  0.0000000  0.6508444  3
    790    793    802    803     1  0.0000000  0.6508444  3
    790    793    802    804     1  0.0000000  0.6508444  3
    791    790    793    802     1  0.0000000  0.6508444  3
    791    790    793    794     1  0.0000000  0.6508444  3
    791    790    793    795     1  0.0000000  0.6508444  3
    792    790    793    802     1  0.0000000  0.6508444  3
    792    790    793    794     1  0.0000000  0.6508444  3
    792    790    793    795     1  0.0000000  0.6508444  3
    794    793    802    811     1  0.0000000  1.0460000  1
    794    793    802    811     1  0.0000000  0.0000000  3
    794    793    802    803     1  0.0000000  0.6508444  3
    794    793    802    804     1  0.0000000  0.6508444  3
    795    793    802    811     1  0.0000000  1.0460000  1
    795    793    802    811     1  0.0000000  0.0000000  3
    795    793    802    803     1  0.0000000  0.6508444  3
    795    793    802    804     1  0.0000000  0.6508444  3
    797    796    808   1681     1  0.0000000  1.0460000  1
    797    796    808   1681     1  0.0000000  0.0000000  3
    797    796    808    809     1  0.0000000  0.6508444  3
    797    796    808    810     1  0.0000000  0.6508444  3
    798    796    808   1681     1  0.0000000  1.0460000  1
    798    796    808   1681     1  0.0000000  0.0000000  3
    798    796    808    809     1  0.0000000  0.6508444  3
    798    796    808    810     1  0.0000000  0.6508444  3
    800    799    805   1652     1  0.0000000  1.0460000  1
    800    799    805   1652     1  0.0000000  0.0000000  3
    800    799    805    806     1  0.0000000  0.6508444  3
    800    799    805    807     1  0.0000000  0.6508444  3
    801    799    805   1652     1  0.0000000  1.0460000  1
    801    799    805   1652     1  0.0000000  0.0000000  3
    801    799    805    806     1  0.0000000  0.6508444  3
    801    799    805    807     1  0.0000000  0.6508444  3
    805   1652   1643   1644     1  0.0000000  1.6038667  3
    805   1652   1643   1645     1  0.0000000  1.6038667  3
    806    805   1652   1643     1  0.0000000  1.6038667  3
    807    805   1652   1643     1  0.0000000  1.6038667  3
    808   1681   1672   1673     1  0.0000000  1.6038667  3
    808   1681   1672   1674     1  0.0000000  1.6038667  3
    809    808   1681   1672     1  0.0000000  1.6038667  3
    810    808   1681   1672     1  0.0000000  1.6038667  3
    812    813    825    826     1  0.0000000  0.6508444  3
    812    813    825    827     1  0.0000000  0.6508444  3
    812    816    828    829     1  0.0000000  0.6508444  3
    812    816    828    830     1  0.0000000  0.6508444  3
    812    819    822    823     1  0.0000000  0.6508444  3
    812    819    822    824     1  0.0000000  0.6508444  3
    813    812    816    817     1  0.0000000  1.2552000  3
    813    812    816    818     1  0.0000000  1.2552000  3
    813    812    819    820     1  0.0000000  1.2552000  3
    813    812    819    821     1  0.0000000  1.2552000  3
    813    825    837    838     1  0.0000000  0.6508444  3
    813    825    837    839     1  0.0000000  0.6508444  3
    814    813    812    816     1  0.0000000  1.2552000  3
    814    813    812    819     1  0.0000000  1.2552000  3
    814    813    825    837     1  0.0000000  0.6508444  3
    814    813    825    826     1  0.0000000  0.6508444  3
    814    813    825    827     1  0.0000000  0.6508444  3
    815    813    812    816     1  0.0000000  1.2552000  3
    815    813    812    819     1  0.0000000  1.2552000  3
    815    813    825    837     1  0.0000000  0.6508444  3
    815    813    825    826     1  0.0000000  0.6508444  3
    815    813    825    827     1  0.0000000  0.6508444  3
    816    812    819    820     1  0.0000000  1.2552000  3
    816    812    819    821     1  0.0000000  1.2552000  3
    816    828    834    835     1  0.0000000  0.6508444  3
    816    828    834    836     1  0.0000000  0.6508444  3
    817    816    812    819     1  0.0000000  1.2552000  3
    817    816    828    834     1  0.0000000  0.6508444  3
    817    816    828    829     1  0.0000000  0.6508444  3
    817    816    828    830     1  0.0000000  0.6508444  3
    818    816    812    819     1  0.0000000  1.2552000  3
    818    816    828    834     1  0.0000000  0.6508444  3
    818    816    828    829     1  0.0000000  0.6508444  3
    818    816    828    830     1  0.0000000  0.6508444  3
    819    822    831    832     1  0.0000000  0.6508444  3
    819    822    831    833     1  0.0000000  0.6508444  3
    820    819    822    831     1  0.0000000  0.6508444  3
    820    819    822    823     1  0.0000000  0.6508444  3
    820    819    822    824     1  0.0000000  0.6508444  3
    821    819    822    831     1  0.0000000  0.6508444  3
    821    819    822    823     1  0.0000000  0.6508444  3
    821    819    822    824     1  0.0000000  0.6508444  3
    823    822    831    840     1  0.0000000  1.0460000  1
    823    822    831    840     1  0.0000000  0.0000000  3
    823    822    831    832     1  0.0000000  0.6508444  3
    823    822    831    833     1  0.0000000  0.6508444  3
    824    822    831    840     1  0.0000000  1.0460000  1
    824    822    831    840     1  0.0000000  0.0000000  3
    824    822    831    832     1  0.0000000  0.6508444  3
    824    822    831    833     1  0.0000000  0.6508444  3
    826    825    837   1739     1  0.0000000  1.0460000  1
    826    825    837   1739     1  0.0000000  0.0000000  3
    826    825    837    838     1  0.0000000  0.6508444  3
    826    825    837    839     1  0.0000000  0.6508444  3
    827    825    837   1739     1  0.0000000  1.0460000  1
    827    825    837   1739     1  0.0000000  0.0000000  3
    827    825    837    838     1  0.0000000  0.6508444  3
    827    825    837    839     1  0.0000000  0.6508444  3
    829    828    834   1710     1  0.0000000  1.0460000  1
    829    828    834   1710     1  0.0000000  0.0000000  3
    829    828    834    835     1  0.0000000  0.6508444  3
    829    828    834    836     1  0.0000000  0.6508444  3
    830    828    834   1710     1  0.0000000  1.0460000  1
    830    828    834   1710     1  0.0000000  0.0000000  3
    830    828    834    835     1  0.0000000  0.6508444  3
    830    828    834    836     1  0.0000000  0.6508444  3
    834   1710   1701   1702     1  0.0000000  1.6038667  3
    834   1710   1701   1703     1  0.0000000  1.6038667  3
    835    834   1710   1701     1  0.0000000  1.6038667  3
    836    834   1710   1701     1  0.0000000  1.6038667  3
    837   1739   1730   1731     1  0.0000000  1.6038667  3
    837   1739   1730   1732     1  0.0000000  1.6038667  3
    838    837   1739   1730     1  0.0000000  1.6038667  3
    839    837   1739   1730     1  0.0000000  1.6038667  3
    841    842    854    855     1  0.0000000  0.6508444  3
    841    842    854    856     1  0.0000000  0.6508444  3
    841    845    857    858     1  0.0000000  0.6508444  3
    841    845    857    859     1  0.0000000  0.6508444  3
    841    848    851    852     1  0.0000000  0.6508444  3
    841    848    851    853     1  0.0000000  0.6508444  3
    842    841    845    846     1  0.0000000  1.2552000  3
    842    841    845    847     1  0.0000000  1.2552000  3
    842    841    848    849     1  0.0000000  1.2552000  3
    842    841    848    850     1  0.0000000  1.2552000  3
    842    854    866    867     1  0.0000000  0.6508444  3
    842    854    866    868     1  0.0000000  0.6508444  3
    843    842    841    845     1  0.0000000  1.2552000  3
    843    842    841    848     1  0.0000000  1.2552000  3
    843    842    854    866     1  0.0000000  0.6508444  3
    843    842    854    855     1  0.0000000  0.6508444  3
    843    842    854    856     1  0.0000000  0.6508444  3
    844    842    841    845     1  0.0000000  1.2552000  3
    844    842    841    848     1  0.0000000  1.2552000  3
    844    842    854    866     1  0.0000000  0.6508444  3
    844    842    854    855     1  0.0000000  0.6508444  3
    844    842    854    856     1  0.0000000  0.6508444  3
    845    841    848    849     1  0.0000000  1.2552000  3
    845    841    848    850     1  0.0000000  1.2552000  3
    845    857    863    864     1  0.0000000  0.6508444  3
    845    857    863    865     1  0.0000000  0.6508444  3
    846    845    841    848     1  0.0000000  1.2552000  3
    846    845    857    863     1  0.0000000  0.6508444  3
    846    845    857    858     1  0.0000000  0.6508444  3
    846    845    857    859     1  0.0000000  0.6508444  3
    847    845    841    848     1  0.0000000  1.2552000  3
    847    845    857    863     1  0.0000000  0.6508444  3
    847    845    857    858     1  0.0000000  0.6508444  3
    847    845    857    859     1  0.0000000  0.6508444  3
    848    851    860    861     1  0.0000000  0.6508444  3
    848    851    860    862     1  0.0000000  0.6508444  3
    849    848    851    860     1  0.0000000  0.6508444  3
    849    848    851    852     1  0.0000000  0.6508444  3
    849    848    851    853     1  0.0000000  0.6508444  3
    850    848    851    860     1  0.0000000  0.6508444  3
    850    848    851    852     1  0.0000000  0.6508444  3
    850    848    851    853     1  0.0000000  0.6508444  3
    852    851    860    869     1  0.0000000  1.0460000  1
    852    851    860    869     1  0.0000000  0.0000000  3
    852    851    860    861     1  0.0000000  0.6508444  3
    852    851    860    862     1  0.0000000  0.6508444  3
    853    851    860    869     1  0.0000000  1.0460000  1
    853    851    860    869     1  0.0000000  0.0000000  3
    853    851    860    861     1  0.0000000  0.6508444  3
    853    851    860    862     1  0.0000000  0.6508444  3
    855    854    866   1797     1  0.0000000  1.0460000  1
    855    854    866   1797     1  0.0000000  0.0000000  3
    855    854    866    867     1  0.0000000  0.6508444  3
    855    854    866    868     1  0.0000000  0.6508444  3
    856    854    866   1797     1  0.0000000  1.0460000  1
    856    854    866   1797     1  0.0000000  0.0000000  3
    856    854    866    867     1  0.0000000  0.6508444  3
    856    854    866    868     1  0.0000000  0.6508444  3
    858    857    863   1768     1  0.0000000  1.0460000  1
    858    857    863   1768     1  0.0000000  0.0000000  3
    858    857    863    864     1  0.0000000  0.6508444  3
    858    857    863    865     1  0.0000000  0.6508444  3
    859    857    863   1768     1  0.0000000  1.0460000  1
    859    857    863   1768     1  0.0000000  0.0000000  3
    859    857    863    864     1  0.0000000  0.6508444  3
    859    857    863    865     1  0.0000000  0.6508444  3
    863   1768   1759   1760     1  0.0000000  1.6038667  3
    863   1768   1759   1761     1  0.0000000  1.6038667  3
    864    863   1768   1759     1  0.0000000  1.6038667  3
    865    863   1768   1759     1  0.0000000  1.6038667  3
    866   1797   1788   1789     1  0.0000000  1.6038667  3
    866   1797   1788   1790     1  0.0000000  1.6038667  3
    867    866   1797   1788     1  0.0000000  1.6038667  3
    868    866   1797   1788     1  0.0000000  1.6038667  3
    870    871    883    884     1  0.0000000  0.6508444  3
    870    871    883    885     1  0.0000000  0.6508444  3
    870    874    886    887     1  0.0000000  0.6508444  3
    870    874    886    888     1  0.0000000  0.6508444  3
    870    877    880    881     1  0.0000000  0.6508444  3
    870    877    880    882     1  0.0000000  0.6508444  3
    871    870    874    875     1  0.0000000  1.2552000  3
    871    870    874    876     1  0.0000000  1.2552000  3
    871    870    877    878     1  0.0000000  1.2552000  3
    871    870    877    879     1  0.0000000  1.2552000  3
    871    883    895    896     1  0.0000000  0.6508444  3
    871    883    895    897     1  0.0000000  0.6508444  3
    872    871    870    874     1  0.0000000  1.2552000  3
    872    871    870    877     1  0.0000000  1.2552000  3
    872    871    883    895     1  0.0000000  0.6508444  3
    872    871    883    884     1  0.0000000  0.6508444  3
    872    871    883    885     1  0.0000000  0.6508444  3
    873    871    870    874     1  0.0000000  1.2552000  3
    873    871    870    877     1  0.0000000  1.2552000  3
    873    871    883    895     1  0.0000000  0.6508444  3
    873    871    883    884     1  0.0000000  0.6508444  3
    873    871    883    885     1  0.0000000  0.6508444  3
    874    870    877    878     1  0.0000000  1.2552000  3
    874    870    877    879     1  0.0000000  1.2552000  3
    874    886    892    893     1  0.0000000  0.6508444  3
    874    886    892    894     1  0.0000000  0.6508444  3
    875    874    870    877     1  0.0000000  1.2552000  3
    875    874    886    892     1  0.0000000  0.6508444  3
    875    874    886    887     1  0.0000000  0.6508444  3
    875    874    886    888     1  0.0000000  0.6508444  3
    876    874    870    877     1  0.0000000  1.2552000  3
    876    874    886    892     1  0.0000000  0.6508444  3
    876    874    886    887     1  0.0000000  0.6508444  3
    876    874    886    888     1  0.0000000  0.6508444  3
    877    880    889    890     1  0.0000000  0.6508444  3
    877    880    889    891     1  0.0000000  0.6508444  3
    878    877    880    889     1  0.0000000  0.6508444  3
    878    877    880    881     1  0.0000000  0.6508444  3
    878    877    880    882     1  0.0000000  0.6508444  3
    879    877    880    889     1  0.0000000  0.6508444  3
    879    877    880    881     1  0.0000000  0.6508444  3
    879    877    880    882     1  0.0000000  0.6508444  3
    881    880    889    898     1  0.0000000  1.0460000  1
    881    880    889    898     1  0.0000000  0.0000000  3
    881    880    889    890     1  0.0000000  0.6508444  3
    881    880    889    891     1  0.0000000  0.6508444  3
    882    880    889    898     1  0.0000000  1.0460000  1
    882    880    889    898     1  0.0000000  0.0000000  3
    882    880    889    890     1  0.0000000  0.6508444  3
    882    880    889    891     1  0.0000000  0.6508444  3
    884    883    895   1855     1  0.0000000  1.0460000  1
    884    883    895   1855     1  0.0000000  0.0000000  3
    884    883    895    896     1  0.0000000  0.6508444  3
    884    883    895    897     1  0.0000000  0.6508444  3
    885    883    895   1855     1  0.0000000  1.0460000  1
    885    883    895   1855     1  0.0000000  0.0000000  3
    885    883    895    896     1  0.0000000  0.6508444  3
    885    883    895    897     1  0.0000000  0.6508444  3
    887    886    892   1826     1  0.0000000  1.0460000  1
    887    886    892   1826     1  0.0000000  0.0000000  3
    887    886    892    893     1  0.0000000  0.6508444  3
    887    886    892    894     1  0.0000000  0.6508444  3
    888    886    892   1826     1  0.0000000  1.0460000  1
    888    886    892   1826     1  0.0000000  0.0000000  3
    888    886    892    893     1  0.0000000  0.6508444  3
    888    886    892    894     1  0.0000000  0.6508444  3
    892   1826   1817   1818     1  0.0000000  1.6038667  3
    892   1826   1817   1819     1  0.0000000  1.6038667  3
    893    892   1826   1817     1  0.0000000  1.6038667  3
    894    892   1826   1817     1  0.0000000  1.6038667  3
    895   1855   1846   1847     1  0.0000000  1.6038667  3
    895   1855   1846   1848     1  0.0000000  1.6038667  3
    896    895   1855   1846     1  0.0000000  1.6038667  3
    897    895   1855   1846     1  0.0000000  1.6038667  3
    899    900    912    913     1  0.0000000  0.6508444  3
    899    900    912    914     1  0.0000000  0.6508444  3
    899    903    915    916     1  0.0000000  0.6508444  3
    899    903    915    917     1  0.0000000  0.6508444  3
    899    906    909    910     1  0.0000000  0.6508444  3
    899    906    909    911     1  0.0000000  0.6508444  3
    900    899    903    904     1  0.0000000  1.2552000  3
    900    899    903    905     1  0.0000000  1.2552000  3
    900    899    906    907     1  0.0000000  1.2552000  3
    900    899    906    908     1  0.0000000  1.2552000  3
    900    912    924    925     1  0.0000000  0.6508444  3
    900    912    924    926     1  0.0000000  0.6508444  3
    901    900    899    903     1  0.0000000  1.2552000  3
    901    900    899    906     1  0.0000000  1.2552000  3
    901    900    912    924     1  0.0000000  0.6508444  3
    901    900    912    913     1  0.0000000  0.6508444  3
    901    900    912    914     1  0.0000000  0.6508444  3
    902    900    899    903     1  0.0000000  1.2552000  3
    902    900    899    906     1  0.0000000  1.2552000  3
    902    900    912    924     1  0.0000000  0.6508444  3
    902    900    912    913     1  0.0000000  0.6508444  3
    902    900    912    914     1  0.0000000  0.6508444  3
    903    899    906    907     1  0.0000000  1.2552000  3
    903    899    906    908     1  0.0000000  1.2552000  3
    903    915    921    922     1  0.0000000  0.6508444  3
    903    915    921    923     1  0.0000000  0.6508444  3
    904    903    899    906     1  0.0000000  1.2552000  3
    904    903    915    921     1  0.0000000  0.6508444  3
    904    903    915    916     1  0.0000000  0.6508444  3
    904    903    915    917     1  0.0000000  0.6508444  3
    905    903    899    906     1  0.0000000  1.2552000  3
    905    903    915    921     1  0.0000000  0.6508444  3
    905    903    915    916     1  0.0000000  0.6508444  3
    905    903    915    917     1  0.0000000  0.6508444  3
    906    909    918    919     1  0.0000000  0.6508444  3
    906    909    918    920     1  0.0000000  0.6508444  3
    907    906    909    918     1  0.0000000  0.6508444  3
    907    906    909    910     1  0.0000000  0.6508444  3
    907    906    909    911     1  0.0000000  0.6508444  3
    908    906    909    918     1  0.0000000  0.6508444  3
    908    906    909    910     1  0.0000000  0.6508444  3
    908    906    909    911     1  0.0000000  0.6508444  3
    910    909    918    927     1  0.0000000  1.0460000  1
    910    909    918    927     1  0.0000000  0.0000000  3
    910    909    918    919     1  0.0000000  0.6508444  3
    910    909    918    920     1  0.0000000  0.6508444  3
    911    909    918    927     1  0.0000000  1.0460000  1
    911    909    918    927     1  0.0000000  0.0000000  3
    911    909    918    919     1  0.0000000  0.6508444  3
    911    909    918    920     1  0.0000000  0.6508444  3
    913    912    924   1913     1  0.0000000  1.0460000  1
    913    912    924   1913     1  0.0000000  0.0000000  3
    913    912    924    925     1  0.0000000  0.6508444  3
    913    912    924    926     1  0.0000000  0.6508444  3
    914    912    924   1913     1  0.0000000  1.0460000  1
    914    912    924   1913     1  0.0000000  0.0000000  3
    914    912    924    925     1  0.0000000  0.6508444  3
    914    912    924    926     1  0.0000000  0.6508444  3
    916    915    921   1884     1  0.0000000  1.0460000  1
    916    915    921   1884     1  0.0000000  0.0000000  3
    916    915    921    922     1  0.0000000  0.6508444  3
    916    915    921    923     1  0.0000000  0.6508444  3
    917    915    921   1884     1  0.0000000  1.0460000  1
    917    915    921   1884     1  0.0000000  0.0000000  3
    917    915    921    922     1  0.0000000  0.6508444  3
    917    915    921    923     1  0.0000000  0.6508444  3
    921   1884   1875   1876     1  0.0000000  1.6038667  3
    921   1884   1875   1877     1  0.0000000  1.6038667  3
    922    921   1884   1875     1  0.0000000  1.6038667  3
    923    921   1884   1875     1  0.0000000  1.6038667  3
    924   1913   1904   1905     1  0.0000000  1.6038667  3
    924   1913   1904   1906     1  0.0000000  1.6038667  3
    925    924   1913   1904     1  0.0000000  1.6038667  3
    926    924   1913   1904     1  0.0000000  1.6038667  3
    928    929    941    942     1  0.0000000  0.6508444  3
    928    929    941    943     1  0.0000000  0.6508444  3
    928    932    944    945     1  0.0000000  0.6508444  3
    928    932    944    946     1  0.0000000  0.6508444  3
    928    935    938    939     1  0.0000000  0.6508444  3
    928    935    938    940     1  0.0000000  0.6508444  3
    929    928    932    933     1  0.0000000  1.2552000  3
    929    928    932    934     1  0.0000000  1.2552000  3
    929    928    935    936     1  0.0000000  1.2552000  3
    929    928    935    937     1  0.0000000  1.2552000  3
    929    941    953    954     1  0.0000000  0.6508444  3
    929    941    953    955     1  0.0000000  0.6508444  3
    930    929    928    932     1  0.0000000  1.2552000  3
    930    929    928    935     1  0.0000000  1.2552000  3
    930    929    941    953     1  0.0000000  0.6508444  3
    930    929    941    942     1  0.0000000  0.6508444  3
    930    929    941    943     1  0.0000000  0.6508444  3
    931    929    928    932     1  0.0000000  1.2552000  3
    931    929    928    935     1  0.0000000  1.2552000  3
    931    929    941    953     1  0.0000000  0.6508444  3
    931    929    941    942     1  0.0000000  0.6508444  3
    931    929    941    943     1  0.0000000  0.6508444  3
    932    928    935    936     1  0.0000000  1.2552000  3
    932    928    935    937     1  0.0000000  1.2552000  3
    932    944    950    951     1  0.0000000  0.6508444  3
    932    944    950    952     1  0.0000000  0.6508444  3
    933    932    928    935     1  0.0000000  1.2552000  3
    933    932    944    950     1  0.0000000  0.6508444  3
    933    932    944    945     1  0.0000000  0.6508444  3
    933    932    944    946     1  0.0000000  0.6508444  3
    934    932    928    935     1  0.0000000  1.2552000  3
    934    932    944    950     1  0.0000000  0.6508444  3
    934    932    944    945     1  0.0000000  0.6508444  3
    934    932    944    946     1  0.0000000  0.6508444  3
    935    938    947    948     1  0.0000000  0.6508444  3
    935    938    947    949     1  0.0000000  0.6508444  3
    936    935    938    947     1  0.0000000  0.6508444  3
    936    935    938    939     1  0.0000000  0.6508444  3
    936    935    938    940     1  0.0000000  0.6508444  3
    937    935    938    947     1  0.0000000  0.6508444  3
    937    935    938    939     1  0.0000000  0.6508444  3
    937    935    938    940     1  0.0000000  0.6508444  3
    939    938    947    956     1  0.0000000  1.0460000  1
    939    938    947    956     1  0.0000000  0.0000000  3
    939    938    947    948     1  0.0000000  0.6508444  3
    939    938    947    949     1  0.0000000  0.6508444  3
    940    938    947    956     1  0.0000000  1.0460000  1
    940    938    947    956     1  0.0000000  0.0000000  3
    940    938    947    948     1  0.0000000  0.6508444  3
    940    938    947    949     1  0.0000000  0.6508444  3
    942    941    953   1971     1  0.0000000  1.0460000  1
    942    941    953   1971     1  0.0000000  0.0000000  3
    942    941    953    954     1  0.0000000  0.6508444  3
    942    941    953    955     1  0.0000000  0.6508444  3
    943    941    953   1971     1  0.0000000  1.0460000  1
    943    941    953   1971     1  0.0000000  0.0000000  3
    943    941    953    954     1  0.0000000  0.6508444  3
    943    941    953    955     1  0.0000000  0.6508444  3
    945    944    950   1942     1  0.0000000  1.0460000  1
    945    944    950   1942     1  0.0000000  0.0000000  3
    945    944    950    951     1  0.0000000  0.6508444  3
    945    944    950    952     1  0.0000000  0.6508444  3
    946    944    950   1942     1  0.0000000  1.0460000  1
    946    944    950   1942     1  0.0000000  0.0000000  3
    946    944    950    951     1  0.0000000  0.6508444  3
    946    944    950    952     1  0.0000000  0.6508444  3
    950   1942   1933   1934     1  0.0000000  1.6038667  3
    950   1942   1933   1935     1  0.0000000  1.6038667  3
    951    950   1942   1933     1  0.0000000  1.6038667  3
    952    950   1942   1933     1  0.0000000  1.6038667  3
    953   1971   1962   1963     1  0.0000000  1.6038667  3
    953   1971   1962   1964     1  0.0000000  1.6038667  3
    954    953   1971   1962     1  0.0000000  1.6038667  3
    955    953   1971   1962     1  0.0000000  1.6038667  3
    957    958    970    971     1  0.0000000  0.6508444  3
    957    958    970    972     1  0.0000000  0.6508444  3
    957    961    973    974     1  0.0000000  0.6508444  3
    957    961    973    975     1  0.0000000  0.6508444  3
    957    964    967    968     1  0.0000000  0.6508444  3
    957    964    967    969     1  0.0000000  0.6508444  3
    958    957    961    962     1  0.0000000  1.2552000  3
    958    957    961    963     1  0.0000000  1.2552000  3
    958    957    964    965     1  0.0000000  1.2552000  3
    958    957    964    966     1  0.0000000  1.2552000  3
    958    970    982    983     1  0.0000000  0.6508444  3
    958    970    982    984     1  0.0000000  0.6508444  3
    959    958    957    961     1  0.0000000  1.2552000  3
    959    958    957    964     1  0.0000000  1.2552000  3
    959    958    970    982     1  0.0000000  0.6508444  3
    959    958    970    971     1  0.0000000  0.6508444  3
    959    958    970    972     1  0.0000000  0.6508444  3
    960    958    957    961     1  0.0000000  1.2552000  3
    960    958    957    964     1  0.0000000  1.2552000  3
    960    958    970    982     1  0.0000000  0.6508444  3
    960    958    970    971     1  0.0000000  0.6508444  3
    960    958    970    972     1  0.0000000  0.6508444  3
    961    957    964    965     1  0.0000000  1.2552000  3
    961    957    964    966     1  0.0000000  1.2552000  3
    961    973    979    980     1  0.0000000  0.6508444  3
    961    973    979    981     1  0.0000000  0.6508444  3
    962    961    957    964     1  0.0000000  1.2552000  3
    962    961    973    979     1  0.0000000  0.6508444  3
    962    961    973    974     1  0.0000000  0.6508444  3
    962    961    973    975     1  0.0000000  0.6508444  3
    963    961    957    964     1  0.0000000  1.2552000  3
    963    961    973    979     1  0.0000000  0.6508444  3
    963    961    973    974     1  0.0000000  0.6508444  3
    963    961    973    975     1  0.0000000  0.6508444  3
    964    967    976    977     1  0.0000000  0.6508444  3
    964    967    976    978     1  0.0000000  0.6508444  3
    965    964    967    976     1  0.0000000  0.6508444  3
    965    964    967    968     1  0.0000000  0.6508444  3
    965    964    967    969     1  0.0000000  0.6508444  3
    966    964    967    976     1  0.0000000  0.6508444  3
    966    964    967    968     1  0.0000000  0.6508444  3
    966    964    967    969     1  0.0000000  0.6508444  3
    968    967    976    985     1  0.0000000  1.0460000  1
    968    967    976    985     1  0.0000000  0.0000000  3
    968    967    976    977     1  0.0000000  0.6508444  3
    968    967    976    978     1  0.0000000  0.6508444  3
    969    967    976    985     1  0.0000000  1.0460000  1
    969    967    976    985     1  0.0000000  0.0000000  3
    969    967    976    977     1  0.0000000  0.6508444  3
    969    967    976    978     1  0.0000000  0.6508444  3
    971    970    982   2029     1  0.0000000  1.0460000  1
    971    970    982   2029     1  0.0000000  0.0000000  3
    971    970    982    983     1  0.0000000  0.6508444  3
    971    970    982    984     1  0.0000000  0.6508444  3
    972    970    982   2029     1  0.0000000  1.0460000  1
    972    970    982   2029     1  0.0000000  0.0000000  3
    972    970    982    983     1  0.0000000  0.6508444  3
    972    970    982    984     1  0.0000000  0.6508444  3
    974    973    979   2000     1  0.0000000  1.0460000  1
    974    973    979   2000     1  0.0000000  0.0000000  3
    974    973    979    980     1  0.0000000  0.6508444  3
    974    973    979    981     1  0.0000000  0.6508444  3
    975    973    979   2000     1  0.0000000  1.0460000  1
    975    973    979   2000     1  0.0000000  0.0000000  3
    975    973    979    980     1  0.0000000  0.6508444  3
    975    973    979    981     1  0.0000000  0.6508444  3
    979   2000   1991   1992     1  0.0000000  1.6038667  3
    979   2000   1991   1993     1  0.0000000  1.6038667  3
    980    979   2000   1991     1  0.0000000  1.6038667  3
    981    979   2000   1991     1  0.0000000  1.6038667  3
    982   2029   2020   2021     1  0.0000000  1.6038667  3
    982   2029   2020   2022     1  0.0000000  1.6038667  3
    983    982   2029   2020     1  0.0000000  1.6038667  3
    984    982   2029   2020     1  0.0000000  1.6038667  3
    986    987    999   1000     1  0.0000000  0.6508444  3
    986    987    999   1001     1  0.0000000  0.6508444  3
    986    990   1002   1003     1  0.0000000  0.6508444  3
    986    990   1002   1004     1  0.0000000  0.6508444  3
    986    993    996    997     1  0.0000000  0.6508444  3
    986    993    996    998     1  0.0000000  0.6508444  3
    987    986    990    991     1  0.0000000  1.2552000  3
    987    986    990    992     1  0.0000000  1.2552000  3
    987    986    993    994     1  0.0000000  1.2552000  3
    987    986    993    995     1  0.0000000  1.2552000  3
    987    999   1011   1012     1  0.0000000  0.6508444  3
    987    999   1011   1013     1  0.0000000  0.6508444  3
    988    987    986    990     1  0.0000000  1.2552000  3
    988    987    986    993     1  0.0000000  1.2552000  3
    988    987    999   1011     1  0.0000000  0.6508444  3
    988    987    999   1000     1  0.0000000  0.6508444  3
    988    987    999   1001     1  0.0000000  0.6508444  3
    989    987    986    990     1  0.0000000  1.2552000  3
    989    987    986    993     1  0.0000000  1.2552000  3
    989    987    999   1011     1  0.0000000  0.6508444  3
    989    987    999   1000     1  0.0000000  0.6508444  3
    989    987    999   1001     1  0.0000000  0.6508444  3
    990    986    993    994     1  0.0000000  1.2552000  3
    990    986    993    995     1  0.0000000  1.2552000  3
    990   1002   1008   1009     1  0.0000000  0.6508444  3
    990   1002   1008   1010     1  0.0000000  0.6508444  3
    991    990    986    993     1  0.0000000  1.2552000  3
    991    990   1002   1008     1  0.0000000  0.6508444  3
    991    990   1002   1003     1  0.0000000  0.6508444  3
    991    990   1002   1004     1  0.0000000  0.6508444  3
    992    990    986    993     1  0.0000000  1.2552000  3
    992    990   1002   1008     1  0.0000000  0.6508444  3
    992    990   1002   1003     1  0.0000000  0.6508444  3
    992    990   1002   1004     1  0.0000000  0.6508444  3
    993    996   1005   1006     1  0.0000000  0.6508444  3
    993    996   1005   1007     1  0.0000000  0.6508444  3
    994    993    996   1005     1  0.0000000  0.6508444  3
    994    993    996    997     1  0.0000000  0.6508444  3
    994    993    996    998     1  0.0000000  0.6508444  3
    995    993    996   1005     1  0.0000000  0.6508444  3
    995    993    996    997     1  0.0000000  0.6508444  3
    995    993    996    998     1  0.0000000  0.6508444  3
    997    996   1005   1014     1  0.0000000  1.0460000  1
    997    996   1005   1014     1  0.0000000  0.0000000  3
    997    996   1005   1006     1  0.0000000  0.6508444  3
    997    996   1005   1007     1  0.0000000  0.6508444  3
    998    996   1005   1014     1  0.0000000  1.0460000  1
    998    996   1005   1014     1  0.0000000  0.0000000  3
    998    996   1005   1006     1  0.0000000  0.6508444  3
    998    996   1005   1007     1  0.0000000  0.6508444  3
   1000    999   1011   2087     1  0.0000000  1.0460000  1
   1000    999   1011   2087     1  0.0000000  0.0000000  3
   1000    999   1011   1012     1  0.0000000  0.6508444  3
   1000    999   1011   1013     1  0.0000000  0.6508444  3
   1001    999   1011   2087     1  0.0000000  1.0460000  1
   1001    999   1011   2087     1  0.0000000  0.0000000  3
   1001    999   1011   1012     1  0.0000000  0.6508444  3
   1001    999   1011   1013     1  0.0000000  0.6508444  3
   1003   1002   1008   2058     1  0.0000000  1.0460000  1
   1003   1002   1008   2058     1  0.0000000  0.0000000  3
   1003   1002   1008   1009     1  0.0000000  0.6508444  3
   1003   1002   1008   1010     1  0.0000000  0.6508444  3
   1004   1002   1008   2058     1  0.0000000  1.0460000  1
   1004   1002   1008   2058     1  0.0000000  0.0000000  3
   1004   1002   1008   1009     1  0.0000000  0.6508444  3
   1004   1002   1008   1010     1  0.0000000  0.6508444  3
   1008   2058   2049   2050     1  0.0000000  1.6038667  3
   1008   2058   2049   2051     1  0.0000000  1.6038667  3
   1009   1008   2058   2049     1  0.0000000  1.6038667  3
   1010   1008   2058   2049     1  0.0000000  1.6038667  3
   1011   2087   2078   2079     1  0.0000000  1.6038667  3
   1011   2087   2078   2080     1  0.0000000  1.6038667  3
   1012   1011   2087   2078     1  0.0000000  1.6038667  3
   1013   1011   2087   2078     1  0.0000000  1.6038667  3
   1015   1016   1028   1029     1  0.0000000  0.6508444  3
   1015   1016   1028   1030     1  0.0000000  0.6508444  3
   1015   1019   1031   1032     1  0.0000000  0.6508444  3
   1015   1019   1031   1033     1  0.0000000  0.6508444  3
   1015   1022   1025   1026     1  0.0000000  0.6508444  3
   1015   1022   1025   1027     1  0.0000000  0.6508444  3
   1016   1015   1019   1020     1  0.0000000  1.2552000  3
   1016   1015   1019   1021     1  0.0000000  1.2552000  3
   1016   1015   1022   1023     1  0.0000000  1.2552000  3
   1016   1015   1022   1024     1  0.0000000  1.2552000  3
   1016   1028   1040   1041     1  0.0000000  0.6508444  3
   1016   1028   1040   1042     1  0.0000000  0.6508444  3
   1017   1016   1015   1019     1  0.0000000  1.2552000  3
   1017   1016   1015   1022     1  0.0000000  1.2552000  3
   1017   1016   1028   1040     1  0.0000000  0.6508444  3
   1017   1016   1028   1029     1  0.0000000  0.6508444  3
   1017   1016   1028   1030     1  0.0000000  0.6508444  3
   1018   1016   1015   1019     1  0.0000000  1.2552000  3
   1018   1016   1015   1022     1  0.0000000  1.2552000  3
   1018   1016   1028   1040     1  0.0000000  0.6508444  3
   1018   1016   1028   1029     1  0.0000000  0.6508444  3
   1018   1016   1028   1030     1  0.0000000  0.6508444  3
   1019   1015   1022   1023     1  0.0000000  1.2552000  3
   1019   1015   1022   1024     1  0.0000000  1.2552000  3
   1019   1031   1037   1038     1  0.0000000  0.6508444  3
   1019   1031   1037   1039     1  0.0000000  0.6508444  3
   1020   1019   1015   1022     1  0.0000000  1.2552000  3
   1020   1019   1031   1037     1  0.0000000  0.6508444  3
   1020   1019   1031   1032     1  0.0000000  0.6508444  3
   1020   1019   1031   1033     1  0.0000000  0.6508444  3
   1021   1019   1015   1022     1  0.0000000  1.2552000  3
   1021   1019   1031   1037     1  0.0000000  0.6508444  3
   1021   1019   1031   1032     1  0.0000000  0.6508444  3
   1021   1019   1031   1033     1  0.0000000  0.6508444  3
   1022   1025   1034   1035     1  0.0000000  0.6508444  3
   1022   1025   1034   1036     1  0.0000000  0.6508444  3
   1023   1022   1025   1034     1  0.0000000  0.6508444  3
   1023   1022   1025   1026     1  0.0000000  0.6508444  3
   1023   1022   1025   1027     1  0.0000000  0.6508444  3
   1024   1022   1025   1034     1  0.0000000  0.6508444  3
   1024   1022   1025   1026     1  0.0000000  0.6508444  3
   1024   1022   1025   1027     1  0.0000000  0.6508444  3
   1026   1025   1034   1043     1  0.0000000  1.0460000  1
   1026   1025   1034   1043     1  0.0000000  0.0000000  3
   1026   1025   1034   1035     1  0.0000000  0.6508444  3
   1026   1025   1034   1036     1  0.0000000  0.6508444  3
   1027   1025   1034   1043     1  0.0000000  1.0460000  1
   1027   1025   1034   1043     1  0.0000000  0.0000000  3
   1027   1025   1034   1035     1  0.0000000  0.6508444  3
   1027   1025   1034   1036     1  0.0000000  0.6508444  3
   1029   1028   1040   2145     1  0.0000000  1.0460000  1
   1029   1028   1040   2145     1  0.0000000  0.0000000  3
   1029   1028   1040   1041     1  0.0000000  0.6508444  3
   1029   1028   1040   1042     1  0.0000000  0.6508444  3
   1030   1028   1040   2145     1  0.0000000  1.0460000  1
   1030   1028   1040   2145     1  0.0000000  0.0000000  3
   1030   1028   1040   1041     1  0.0000000  0.6508444  3
   1030   1028   1040   1042     1  0.0000000  0.6508444  3
   1032   1031   1037   2116     1  0.0000000  1.0460000  1
   1032   1031   1037   2116     1  0.0000000  0.0000000  3
   1032   1031   1037   1038     1  0.0000000  0.6508444  3
   1032   1031   1037   1039     1  0.0000000  0.6508444  3
   1033   1031   1037   2116     1  0.0000000  1.0460000  1
   1033   1031   1037   2116     1  0.0000000  0.0000000  3
   1033   1031   1037   1038     1  0.0000000  0.6508444  3
   1033   1031   1037   1039     1  0.0000000  0.6508444  3
   1037   2116   2107   2108     1  0.0000000  1.6038667  3
   1037   2116   2107   2109     1  0.0000000  1.6038667  3
   1038   1037   2116   2107     1  0.0000000  1.6038667  3
   1039   1037   2116   2107     1  0.0000000  1.6038667  3
   1040   2145   2136   2137     1  0.0000000  1.6038667  3
   1040   2145   2136   2138     1  0.0000000  1.6038667  3
   1041   1040   2145   2136     1  0.0000000  1.6038667  3
   1042   1040   2145   2136     1  0.0000000  1.6038667  3
   1044   1045   1057   1058     1  0.0000000  0.6508444  3
   1044   1045   1057   1059     1  0.0000000  0.6508444  3
   1044   1048   1060   1061     1  0.0000000  0.6508444  3
   1044   1048   1060   1062     1  0.0000000  0.6508444  3
   1044   1051   1054   1055     1  0.0000000  0.6508444  3
   1044   1051   1054   1056     1  0.0000000  0.6508444  3
   1045   1044   1048   1049     1  0.0000000  1.2552000  3
   1045   1044   1048   1050     1  0.0000000  1.2552000  3
   1045   1044   1051   1052     1  0.0000000  1.2552000  3
   1045   1044   1051   1053     1  0.0000000  1.2552000  3
   1045   1057   1069   1070     1  0.0000000  0.6508444  3
   1045   1057   1069   1071     1  0.0000000  0.6508444  3
   1046   1045   1044   1048     1  0.0000000  1.2552000  3
   1046   1045   1044   1051     1  0.0000000  1.2552000  3
   1046   1045   1057   1069     1  0.0000000  0.6508444  3
   1046   1045   1057   1058     1  0.0000000  0.6508444  3
   1046   1045   1057   1059     1  0.0000000  0.6508444  3
   1047   1045   1044   1048     1  0.0000000  1.2552000  3
   1047   1045   1044   1051     1  0.0000000  1.2552000  3
   1047   1045   1057   1069     1  0.0000000  0.6508444  3
   1047   1045   1057   1058     1  0.0000000  0.6508444  3
   1047   1045   1057   1059     1  0.0000000  0.6508444  3
   1048   1044   1051   1052     1  0.0000000  1.2552000  3
   1048   1044   1051   1053     1  0.0000000  1.2552000  3
   1048   1060   1066   1067     1  0.0000000  0.6508444  3
   1048   1060   1066   1068     1  0.0000000  0.6508444  3
   1049   1048   1044   1051     1  0.0000000  1.2552000  3
   1049   1048   1060   1066     1  0.0000000  0.6508444  3
   1049   1048   1060   1061     1  0.0000000  0.6508444  3
   1049   1048   1060   1062     1  0.0000000  0.6508444  3
   1050   1048   1044   1051     1  0.0000000  1.2552000  3
   1050   1048   1060   1066     1  0.0000000  0.6508444  3
   1050   1048   1060   1061     1  0.0000000  0.6508444  3
   1050   1048   1060   1062     1  0.0000000  0.6508444  3
   1051   1054   1063   1064     1  0.0000000  0.6508444  3
   1051   1054   1063   1065     1  0.0000000  0.6508444  3
   1052   1051   1054   1063     1  0.0000000  0.6508444  3
   1052   1051   1054   1055     1  0.0000000  0.6508444  3
   1052   1051   1054   1056     1  0.0000000  0.6508444  3
   1053   1051   1054   1063     1  0.0000000  0.6508444  3
   1053   1051   1054   1055     1  0.0000000  0.6508444  3
   1053   1051   1054   1056     1  0.0000000  0.6508444  3
   1055   1054   1063   1072     1  0.0000000  1.0460000  1
   1055   1054   1063   1072     1  0.0000000  0.0000000  3
   1055   1054   1063   1064     1  0.0000000  0.6508444  3
   1055   1054   1063   1065     1  0.0000000  0.6508444  3
   1056   1054   1063   1072     1  0.0000000  1.0460000  1
   1056   1054   1063   1072     1  0.0000000  0.0000000  3
   1056   1054   1063   1064     1  0.0000000  0.6508444  3
   1056   1054   1063   1065     1  0.0000000  0.6508444  3
   1058   1057   1069   2203     1  0.0000000  1.0460000  1
   1058   1057   1069   2203     1  0.0000000  0.0000000  3
   1058   1057   1069   1070     1  0.0000000  0.6508444  3
   1058   1057   1069   1071     1  0.0000000  0.6508444  3
   1059   1057   1069   2203     1  0.0000000  1.0460000  1
   1059   1057   1069   2203     1  0.0000000  0.0000000  3
   1059   1057   1069   1070     1  0.0000000  0.6508444  3
   1059   1057   1069   1071     1  0.0000000  0.6508444  3
   1061   1060   1066   2174     1  0.0000000  1.0460000  1
   1061   1060   1066   2174     1  0.0000000  0.0000000  3
   1061   1060   1066   1067     1  0.0000000  0.6508444  3
   1061   1060   1066   1068     1  0.0000000  0.6508444  3
   1062   1060   1066   2174     1  0.0000000  1.0460000  1
   1062   1060   1066   2174     1  0.0000000  0.0000000  3
   1062   1060   1066   1067     1  0.0000000  0.6508444  3
   1062   1060   1066   1068     1  0.0000000  0.6508444  3
   1066   2174   2165   2166     1  0.0000000  1.6038667  3
   1066   2174   2165   2167     1  0.0000000  1.6038667  3
   1067   1066   2174   2165     1  0.0000000  1.6038667  3
   1068   1066   2174   2165     1  0.0000000  1.6038667  3
   1069   2203   2194   2195     1  0.0000000  1.6038667  3
   1069   2203   2194   2196     1  0.0000000  1.6038667  3
   1070   1069   2203   2194     1  0.0000000  1.6038667  3
   1071   1069   2203   2194     1  0.0000000  1.6038667  3
   1073   1074   1086   1087     1  0.0000000  0.6508444  3
   1073   1074   1086   1088     1  0.0000000  0.6508444  3
   1073   1077   1089   1090     1  0.0000000  0.6508444  3
   1073   1077   1089   1091     1  0.0000000  0.6508444  3
   1073   1080   1083   1084     1  0.0000000  0.6508444  3
   1073   1080   1083   1085     1  0.0000000  0.6508444  3
   1074   1073   1077   1078     1  0.0000000  1.2552000  3
   1074   1073   1077   1079     1  0.0000000  1.2552000  3
   1074   1073   1080   1081     1  0.0000000  1.2552000  3
   1074   1073   1080   1082     1  0.0000000  1.2552000  3
   1074   1086   1098   1099     1  0.0000000  0.6508444  3
   1074   1086   1098   1100     1  0.0000000  0.6508444  3
   1075   1074   1073   1077     1  0.0000000  1.2552000  3
   1075   1074   1073   1080     1  0.0000000  1.2552000  3
   1075   1074   1086   1098     1  0.0000000  0.6508444  3
   1075   1074   1086   1087     1  0.0000000  0.6508444  3
   1075   1074   1086   1088     1  0.0000000  0.6508444  3
   1076   1074   1073   1077     1  0.0000000  1.2552000  3
   1076   1074   1073   1080     1  0.0000000  1.2552000  3
   1076   1074   1086   1098     1  0.0000000  0.6508444  3
   1076   1074   1086   1087     1  0.0000000  0.6508444  3
   1076   1074   1086   1088     1  0.0000000  0.6508444  3
   1077   1073   1080   1081     1  0.0000000  1.2552000  3
   1077   1073   1080   1082     1  0.0000000  1.2552000  3
   1077   1089   1095   1096     1  0.0000000  0.6508444  3
   1077   1089   1095   1097     1  0.0000000  0.6508444  3
   1078   1077   1073   1080     1  0.0000000  1.2552000  3
   1078   1077   1089   1095     1  0.0000000  0.6508444  3
   1078   1077   1089   1090     1  0.0000000  0.6508444  3
   1078   1077   1089   1091     1  0.0000000  0.6508444  3
   1079   1077   1073   1080     1  0.0000000  1.2552000  3
   1079   1077   1089   1095     1  0.0000000  0.6508444  3
   1079   1077   1089   1090     1  0.0000000  0.6508444  3
   1079   1077   1089   1091     1  0.0000000  0.6508444  3
   1080   1083   1092   1093     1  0.0000000  0.6508444  3
   1080   1083   1092   1094     1  0.0000000  0.6508444  3
   1081   1080   1083   1092     1  0.0000000  0.6508444  3
   1081   1080   1083   1084     1  0.0000000  0.6508444  3
   1081   1080   1083   1085     1  0.0000000  0.6508444  3
   1082   1080   1083   1092     1  0.0000000  0.6508444  3
   1082   1080   1083   1084     1  0.0000000  0.6508444  3
   1082   1080   1083   1085     1  0.0000000  0.6508444  3
   1084   1083   1092   1101     1  0.0000000  1.0460000  1
   1084   1083   1092   1101     1  0.0000000  0.0000000  3
   1084   1083   1092   1093     1  0.0000000  0.6508444  3
   1084   1083   1092   1094     1  0.0000000  0.6508444  3
   1085   1083   1092   1101     1  0.0000000  1.0460000  1
   1085   1083   1092   1101     1  0.0000000  0.0000000  3
   1085   1083   1092   1093     1  0.0000000  0.6508444  3
   1085   1083   1092   1094     1  0.0000000  0.6508444  3
   1087   1086   1098   2261     1  0.0000000  1.0460000  1
   1087   1086   1098   2261     1  0.0000000  0.0000000  3
   1087   1086   1098   1099     1  0.0000000  0.6508444  3
   1087   1086   1098   1100     1  0.0000000  0.6508444  3
   1088   1086   1098   2261     1  0.0000000  1.0460000  1
   1088   1086   1098   2261     1  0.0000000  0.0000000  3
   1088   1086   1098   1099     1  0.0000000  0.6508444  3
   1088   1086   1098   1100     1  0.0000000  0.6508444  3
   1090   1089   1095   2232     1  0.0000000  1.0460000  1
   1090   1089   1095   2232     1  0.0000000  0.0000000  3
   1090   1089   1095   1096     1  0.0000000  0.6508444  3
   1090   1089   1095   1097     1  0.0000000  0.6508444  3
   1091   1089   1095   2232     1  0.0000000  1.0460000  1
   1091   1089   1095   2232     1  0.0000000  0.0000000  3
   1091   1089   1095   1096     1  0.0000000  0.6508444  3
   1091   1089   1095   1097     1  0.0000000  0.6508444  3
   1095   2232   2223   2224     1  0.0000000  1.6038667  3
   1095   2232   2223   2225     1  0.0000000  1.6038667  3
   1096   1095   2232   2223     1  0.0000000  1.6038667  3
   1097   1095   2232   2223     1  0.0000000  1.6038667  3
   1098   2261   2252   2253     1  0.0000000  1.6038667  3
   1098   2261   2252   2254     1  0.0000000  1.6038667  3
   1099   1098   2261   2252     1  0.0000000  1.6038667  3
   1100   1098   2261   2252     1  0.0000000  1.6038667  3
   1102   1103   1115   1116     1  0.0000000  0.6508444  3
   1102   1103   1115   1117     1  0.0000000  0.6508444  3
   1102   1106   1118   1119     1  0.0000000  0.6508444  3
   1102   1106   1118   1120     1  0.0000000  0.6508444  3
   1102   1109   1112   1113     1  0.0000000  0.6508444  3
   1102   1109   1112   1114     1  0.0000000  0.6508444  3
   1103   1102   1106   1107     1  0.0000000  1.2552000  3
   1103   1102   1106   1108     1  0.0000000  1.2552000  3
   1103   1102   1109   1110     1  0.0000000  1.2552000  3
   1103   1102   1109   1111     1  0.0000000  1.2552000  3
   1103   1115   1127   1128     1  0.0000000  0.6508444  3
   1103   1115   1127   1129     1  0.0000000  0.6508444  3
   1104   1103   1102   1106     1  0.0000000  1.2552000  3
   1104   1103   1102   1109     1  0.0000000  1.2552000  3
   1104   1103   1115   1127     1  0.0000000  0.6508444  3
   1104   1103   1115   1116     1  0.0000000  0.6508444  3
   1104   1103   1115   1117     1  0.0000000  0.6508444  3
   1105   1103   1102   1106     1  0.0000000  1.2552000  3
   1105   1103   1102   1109     1  0.0000000  1.2552000  3
   1105   1103   1115   1127     1  0.0000000  0.6508444  3
   1105   1103   1115   1116     1  0.0000000  0.6508444  3
   1105   1103   1115   1117     1  0.0000000  0.6508444  3
   1106   1102   1109   1110     1  0.0000000  1.2552000  3
   1106   1102   1109   1111     1  0.0000000  1.2552000  3
   1106   1118   1124   1125     1  0.0000000  0.6508444  3
   1106   1118   1124   1126     1  0.0000000  0.6508444  3
   1107   1106   1102   1109     1  0.0000000  1.2552000  3
   1107   1106   1118   1124     1  0.0000000  0.6508444  3
   1107   1106   1118   1119     1  0.0000000  0.6508444  3
   1107   1106   1118   1120     1  0.0000000  0.6508444  3
   1108   1106   1102   1109     1  0.0000000  1.2552000  3
   1108   1106   1118   1124     1  0.0000000  0.6508444  3
   1108   1106   1118   1119     1  0.0000000  0.6508444  3
   1108   1106   1118   1120     1  0.0000000  0.6508444  3
   1109   1112   1121   1122     1  0.0000000  0.6508444  3
   1109   1112   1121   1123     1  0.0000000  0.6508444  3
   1110   1109   1112   1121     1  0.0000000  0.6508444  3
   1110   1109   1112   1113     1  0.0000000  0.6508444  3
   1110   1109   1112   1114     1  0.0000000  0.6508444  3
   1111   1109   1112   1121     1  0.0000000  0.6508444  3
   1111   1109   1112   1113     1  0.0000000  0.6508444  3
   1111   1109   1112   1114     1  0.0000000  0.6508444  3
   1113   1112   1121   1130     1  0.0000000  1.0460000  1
   1113   1112   1121   1130     1  0.0000000  0.0000000  3
   1113   1112   1121   1122     1  0.0000000  0.6508444  3
   1113   1112   1121   1123     1  0.0000000  0.6508444  3
   1114   1112   1121   1130     1  0.0000000  1.0460000  1
   1114   1112   1121   1130     1  0.0000000  0.0000000  3
   1114   1112   1121   1122     1  0.0000000  0.6508444  3
   1114   1112   1121   1123     1  0.0000000  0.6508444  3
   1116   1115   1127   2319     1  0.0000000  1.0460000  1
   1116   1115   1127   2319     1  0.0000000  0.0000000  3
   1116   1115   1127   1128     1  0.0000000  0.6508444  3
   1116   1115   1127   1129     1  0.0000000  0.6508444  3
   1117   1115   1127   2319     1  0.0000000  1.0460000  1
   1117   1115   1127   2319     1  0.0000000  0.0000000  3
   1117   1115   1127   1128     1  0.0000000  0.6508444  3
   1117   1115   1127   1129     1  0.0000000  0.6508444  3
   1119   1118   1124   2290     1  0.0000000  1.0460000  1
   1119   1118   1124   2290     1  0.0000000  0.0000000  3
   1119   1118   1124   1125     1  0.0000000  0.6508444  3
   1119   1118   1124   1126     1  0.0000000  0.6508444  3
   1120   1118   1124   2290     1  0.0000000  1.0460000  1
   1120   1118   1124   2290     1  0.0000000  0.0000000  3
   1120   1118   1124   1125     1  0.0000000  0.6508444  3
   1120   1118   1124   1126     1  0.0000000  0.6508444  3
   1124   2290   2281   2282     1  0.0000000  1.6038667  3
   1124   2290   2281   2283     1  0.0000000  1.6038667  3
   1125   1124   2290   2281     1  0.0000000  1.6038667  3
   1126   1124   2290   2281     1  0.0000000  1.6038667  3
   1127   2319   2310   2311     1  0.0000000  1.6038667  3
   1127   2319   2310   2312     1  0.0000000  1.6038667  3
   1128   1127   2319   2310     1  0.0000000  1.6038667  3
   1129   1127   2319   2310     1  0.0000000  1.6038667  3
   1131   1132   1144   1145     1  0.0000000  0.6508444  3
   1131   1132   1144   1146     1  0.0000000  0.6508444  3
   1131   1135   1147   1148     1  0.0000000  0.6508444  3
   1131   1135   1147   1149     1  0.0000000  0.6508444  3
   1131   1138   1141   1142     1  0.0000000  0.6508444  3
   1131   1138   1141   1143     1  0.0000000  0.6508444  3
   1132   1131   1135   1136     1  0.0000000  1.2552000  3
   1132   1131   1135   1137     1  0.0000000  1.2552000  3
   1132   1131   1138   1139     1  0.0000000  1.2552000  3
   1132   1131   1138   1140     1  0.0000000  1.2552000  3
   1132   1144   1156   1157     1  0.0000000  0.6508444  3
   1132   1144   1156   1158     1  0.0000000  0.6508444  3
   1133   1132   1131   1135     1  0.0000000  1.2552000  3
   1133   1132   1131   1138     1  0.0000000  1.2552000  3
   1133   1132   1144   1156     1  0.0000000  0.6508444  3
   1133   1132   1144   1145     1  0.0000000  0.6508444  3
   1133   1132   1144   1146     1  0.0000000  0.6508444  3
   1134   1132   1131   1135     1  0.0000000  1.2552000  3
   1134   1132   1131   1138     1  0.0000000  1.2552000  3
   1134   1132   1144   1156     1  0.0000000  0.6508444  3
   1134   1132   1144   1145     1  0.0000000  0.6508444  3
   1134   1132   1144   1146     1  0.0000000  0.6508444  3
   1135   1131   1138   1139     1  0.0000000  1.2552000  3
   1135   1131   1138   1140     1  0.0000000  1.2552000  3
   1135   1147   1153   1154     1  0.0000000  0.6508444  3
   1135   1147   1153   1155     1  0.0000000  0.6508444  3
   1136   1135   1131   1138     1  0.0000000  1.2552000  3
   1136   1135   1147   1153     1  0.0000000  0.6508444  3
   1136   1135   1147   1148     1  0.0000000  0.6508444  3
   1136   1135   1147   1149     1  0.0000000  0.6508444  3
   1137   1135   1131   1138     1  0.0000000  1.2552000  3
   1137   1135   1147   1153     1  0.0000000  0.6508444  3
   1137   1135   1147   1148     1  0.0000000  0.6508444  3
   1137   1135   1147   1149     1  0.0000000  0.6508444  3
   1138   1141   1150   1151     1  0.0000000  0.6508444  3
   1138   1141   1150   1152     1  0.0000000  0.6508444  3
   1139   1138   1141   1150     1  0.0000000  0.6508444  3
   1139   1138   1141   1142     1  0.0000000  0.6508444  3
   1139   1138   1141   1143     1  0.0000000  0.6508444  3
   1140   1138   1141   1150     1  0.0000000  0.6508444  3
   1140   1138   1141   1142     1  0.0000000  0.6508444  3
   1140   1138   1141   1143     1  0.0000000  0.6508444  3
   1142   1141   1150   1159     1  0.0000000  1.0460000  1
   1142   1141   1150   1159     1  0.0000000  0.0000000  3
   1142   1141   1150   1151     1  0.0000000  0.6508444  3
   1142   1141   1150   1152     1  0.0000000  0.6508444  3
   1143   1141   1150   1159     1  0.0000000  1.0460000  1
   1143   1141   1150   1159     1  0.0000000  0.0000000  3
   1143   1141   1150   1151     1  0.0000000  0.6508444  3
   1143   1141   1150   1152     1  0.0000000  0.6508444  3
   1145   1144   1156   2377     1  0.0000000  1.0460000  1
   1145   1144   1156   2377     1  0.0000000  0.0000000  3
   1145   1144   1156   1157     1  0.0000000  0.6508444  3
   1145   1144   1156   1158     1  0.0000000  0.6508444  3
   1146   1144   1156   2377     1  0.0000000  1.0460000  1
   1146   1144   1156   2377     1  0.0000000  0.0000000  3
   1146   1144   1156   1157     1  0.0000000  0.6508444  3
   1146   1144   1156   1158     1  0.0000000  0.6508444  3
   1148   1147   1153   2348     1  0.0000000  1.0460000  1
   1148   1147   1153   2348     1  0.0000000  0.0000000  3
   1148   1147   1153   1154     1  0.0000000  0.6508444  3
   1148   1147   1153   1155     1  0.0000000  0.6508444  3
   1149   1147   1153   2348     1  0.0000000  1.0460000  1
   1149   1147   1153   2348     1  0.0000000  0.0000000  3
   1149   1147   1153   1154     1  0.0000000  0.6508444  3
   1149   1147   1153   1155     1  0.0000000  0.6508444  3
   1153   2348   2339   2340     1  0.0000000  1.6038667  3
   1153   2348   2339   2341     1  0.0000000  1.6038667  3
   1154   1153   2348   2339     1  0.0000000  1.6038667  3
   1155   1153   2348   2339     1  0.0000000  1.6038667  3
   1156   2377   2368   2369     1  0.0000000  1.6038667  3
   1156   2377   2368   2370     1  0.0000000  1.6038667  3
   1157   1156   2377   2368     1  0.0000000  1.6038667  3
   1158   1156   2377   2368     1  0.0000000  1.6038667  3
   1160   1161   1173   1174     1  0.0000000  0.6508444  3
   1160   1161   1173   1175     1  0.0000000  0.6508444  3
   1160   1164   1176   1177     1  0.0000000  0.6508444  3
   1160   1164   1176   1178     1  0.0000000  0.6508444  3
   1160   1167   1170   1171     1  0.0000000  0.6508444  3
   1160   1167   1170   1172     1  0.0000000  0.6508444  3
   1161   1160   1164   1165     1  0.0000000  1.2552000  3
   1161   1160   1164   1166     1  0.0000000  1.2552000  3
   1161   1160   1167   1168     1  0.0000000  1.2552000  3
   1161   1160   1167   1169     1  0.0000000  1.2552000  3
   1161   1173   1185   1186     1  0.0000000  0.6508444  3
   1161   1173   1185   1187     1  0.0000000  0.6508444  3
   1162   1161   1160   1164     1  0.0000000  1.2552000  3
   1162   1161   1160   1167     1  0.0000000  1.2552000  3
   1162   1161   1173   1185     1  0.0000000  0.6508444  3
   1162   1161   1173   1174     1  0.0000000  0.6508444  3
   1162   1161   1173   1175     1  0.0000000  0.6508444  3
   1163   1161   1160   1164     1  0.0000000  1.2552000  3
   1163   1161   1160   1167     1  0.0000000  1.2552000  3
   1163   1161   1173   1185     1  0.0000000  0.6508444  3
   1163   1161   1173   1174     1  0.0000000  0.6508444  3
   1163   1161   1173   1175     1  0.0000000  0.6508444  3
   1164   1160   1167   1168     1  0.0000000  1.2552000  3
   1164   1160   1167   1169     1  0.0000000  1.2552000  3
   1164   1176   1182   1183     1  0.0000000  0.6508444  3
   1164   1176   1182   1184     1  0.0000000  0.6508444  3
   1165   1164   1160   1167     1  0.0000000  1.2552000  3
   1165   1164   1176   1182     1  0.0000000  0.6508444  3
   1165   1164   1176   1177     1  0.0000000  0.6508444  3
   1165   1164   1176   1178     1  0.0000000  0.6508444  3
   1166   1164   1160   1167     1  0.0000000  1.2552000  3
   1166   1164   1176   1182     1  0.0000000  0.6508444  3
   1166   1164   1176   1177     1  0.0000000  0.6508444  3
   1166   1164   1176   1178     1  0.0000000  0.6508444  3
   1167   1170   1179   1180     1  0.0000000  0.6508444  3
   1167   1170   1179   1181     1  0.0000000  0.6508444  3
   1168   1167   1170   1179     1  0.0000000  0.6508444  3
   1168   1167   1170   1171     1  0.0000000  0.6508444  3
   1168   1167   1170   1172     1  0.0000000  0.6508444  3
   1169   1167   1170   1179     1  0.0000000  0.6508444  3
   1169   1167   1170   1171     1  0.0000000  0.6508444  3
   1169   1167   1170   1172     1  0.0000000  0.6508444  3
   1171   1170   1179   1188     1  0.0000000  1.0460000  1
   1171   1170   1179   1188     1  0.0000000  0.0000000  3
   1171   1170   1179   1180     1  0.0000000  0.6508444  3
   1171   1170   1179   1181     1  0.0000000  0.6508444  3
   1172   1170   1179   1188     1  0.0000000  1.0460000  1
   1172   1170   1179   1188     1  0.0000000  0.0000000  3
   1172   1170   1179   1180     1  0.0000000  0.6508444  3
   1172   1170   1179   1181     1  0.0000000  0.6508444  3
   1174   1173   1185   2435     1  0.0000000  1.0460000  1
   1174   1173   1185   2435     1  0.0000000  0.0000000  3
   1174   1173   1185   1186     1  0.0000000  0.6508444  3
   1174   1173   1185   1187     1  0.0000000  0.6508444  3
   1175   1173   1185   2435     1  0.0000000  1.0460000  1
   1175   1173   1185   2435     1  0.0000000  0.0000000  3
   1175   1173   1185   1186     1  0.0000000  0.6508444  3
   1175   1173   1185   1187     1  0.0000000  0.6508444  3
   1177   1176   1182   2406     1  0.0000000  1.0460000  1
   1177   1176   1182   2406     1  0.0000000  0.0000000  3
   1177   1176   1182   1183     1  0.0000000  0.6508444  3
   1177   1176   1182   1184     1  0.0000000  0.6508444  3
   1178   1176   1182   2406     1  0.0000000  1.0460000  1
   1178   1176   1182   2406     1  0.0000000  0.0000000  3
   1178   1176   1182   1183     1  0.0000000  0.6508444  3
   1178   1176   1182   1184     1  0.0000000  0.6508444  3
   1182   2406   2397   2398     1  0.0000000  1.6038667  3
   1182   2406   2397   2399     1  0.0000000  1.6038667  3
   1183   1182   2406   2397     1  0.0000000  1.6038667  3
   1184   1182   2406   2397     1  0.0000000  1.6038667  3
   1185   2435   2426   2427     1  0.0000000  1.6038667  3
   1185   2435   2426   2428     1  0.0000000  1.6038667  3
   1186   1185   2435   2426     1  0.0000000  1.6038667  3
   1187   1185   2435   2426     1  0.0000000  1.6038667  3
   1189   1190   1202   1203     1  0.0000000  0.6508444  3
   1189   1190   1202   1204     1  0.0000000  0.6508444  3
   1189   1193   1205   1206     1  0.0000000  0.6508444  3
   1189   1193   1205   1207     1  0.0000000  0.6508444  3
   1189   1196   1199   1200     1  0.0000000  0.6508444  3
   1189   1196   1199   1201     1  0.0000000  0.6508444  3
   1190   1189   1193   1194     1  0.0000000  1.2552000  3
   1190   1189   1193   1195     1  0.0000000  1.2552000  3
   1190   1189   1196   1197     1  0.0000000  1.2552000  3
   1190   1189   1196   1198     1  0.0000000  1.2552000  3
   1190   1202   1214   1215     1  0.0000000  0.6508444  3
   1190   1202   1214   1216     1  0.0000000  0.6508444  3
   1191   1190   1189   1193     1  0.0000000  1.2552000  3
   1191   1190   1189   1196     1  0.0000000  1.2552000  3
   1191   1190   1202   1214     1  0.0000000  0.6508444  3
   1191   1190   1202   1203     1  0.0000000  0.6508444  3
   1191   1190   1202   1204     1  0.0000000  0.6508444  3
   1192   1190   1189   1193     1  0.0000000  1.2552000  3
   1192   1190   1189   1196     1  0.0000000  1.2552000  3
   1192   1190   1202   1214     1  0.0000000  0.6508444  3
   1192   1190   1202   1203     1  0.0000000  0.6508444  3
   1192   1190   1202   1204     1  0.0000000  0.6508444  3
   1193   1189   1196   1197     1  0.0000000  1.2552000  3
   1193   1189   1196   1198     1  0.0000000  1.2552000  3
   1193   1205   1211   1212     1  0.0000000  0.6508444  3
   1193   1205   1211   1213     1  0.0000000  0.6508444  3
   1194   1193   1189   1196     1  0.0000000  1.2552000  3
   1194   1193   1205   1211     1  0.0000000  0.6508444  3
   1194   1193   1205   1206     1  0.0000000  0.6508444  3
   1194   1193   1205   1207     1  0.0000000  0.6508444  3
   1195   1193   1189   1196     1  0.0000000  1.2552000  3
   1195   1193   1205   1211     1  0.0000000  0.6508444  3
   1195   1193   1205   1206     1  0.0000000  0.6508444  3
   1195   1193   1205   1207     1  0.0000000  0.6508444  3
   1196   1199   1208   1209     1  0.0000000  0.6508444  3
   1196   1199   1208   1210     1  0.0000000  0.6508444  3
   1197   1196   1199   1208     1  0.0000000  0.6508444  3
   1197   1196   1199   1200     1  0.0000000  0.6508444  3
   1197   1196   1199   1201     1  0.0000000  0.6508444  3
   1198   1196   1199   1208     1  0.0000000  0.6508444  3
   1198   1196   1199   1200     1  0.0000000  0.6508444  3
   1198   1196   1199   1201     1  0.0000000  0.6508444  3
   1200   1199   1208   1217     1  0.0000000  1.0460000  1
   1200   1199   1208   1217     1  0.0000000  0.0000000  3
   1200   1199   1208   1209     1  0.0000000  0.6508444  3
   1200   1199   1208   1210     1  0.0000000  0.6508444  3
   1201   1199   1208   1217     1  0.0000000  1.0460000  1
   1201   1199   1208   1217     1  0.0000000  0.0000000  3
   1201   1199   1208   1209     1  0.0000000  0.6508444  3
   1201   1199   1208   1210     1  0.0000000  0.6508444  3
   1203   1202   1214   2493     1  0.0000000  1.0460000  1
   1203   1202   1214   2493     1  0.0000000  0.0000000  3
   1203   1202   1214   1215     1  0.0000000  0.6508444  3
   1203   1202   1214   1216     1  0.0000000  0.6508444  3
   1204   1202   1214   2493     1  0.0000000  1.0460000  1
   1204   1202   1214   2493     1  0.0000000  0.0000000  3
   1204   1202   1214   1215     1  0.0000000  0.6508444  3
   1204   1202   1214   1216     1  0.0000000  0.6508444  3
   1206   1205   1211   2464     1  0.0000000  1.0460000  1
   1206   1205   1211   2464     1  0.0000000  0.0000000  3
   1206   1205   1211   1212     1  0.0000000  0.6508444  3
   1206   1205   1211   1213     1  0.0000000  0.6508444  3
   1207   1205   1211   2464     1  0.0000000  1.0460000  1
   1207   1205   1211   2464     1  0.0000000  0.0000000  3
   1207   1205   1211   1212     1  0.0000000  0.6508444  3
   1207   1205   1211   1213     1  0.0000000  0.6508444  3
   1211   2464   2455   2456     1  0.0000000  1.6038667  3
   1211   2464   2455   2457     1  0.0000000  1.6038667  3
   1212   1211   2464   2455     1  0.0000000  1.6038667  3
   1213   1211   2464   2455     1  0.0000000  1.6038667  3
   1214   2493   2484   2485     1  0.0000000  1.6038667  3
   1214   2493   2484   2486     1  0.0000000  1.6038667  3
   1215   1214   2493   2484     1  0.0000000  1.6038667  3
   1216   1214   2493   2484     1  0.0000000  1.6038667  3
   1218   1219   1231   1232     1  0.0000000  0.6508444  3
   1218   1219   1231   1233     1  0.0000000  0.6508444  3
   1218   1222   1234   1235     1  0.0000000  0.6508444  3
   1218   1222   1234   1236     1  0.0000000  0.6508444  3
   1218   1225   1228   1229     1  0.0000000  0.6508444  3
   1218   1225   1228   1230     1  0.0000000  0.6508444  3
   1219   1218   1222   1223     1  0.0000000  1.2552000  3
   1219   1218   1222   1224     1  0.0000000  1.2552000  3
   1219   1218   1225   1226     1  0.0000000  1.2552000  3
   1219   1218   1225   1227     1  0.0000000  1.2552000  3
   1219   1231   1243   1244     1  0.0000000  0.6508444  3
   1219   1231   1243   1245     1  0.0000000  0.6508444  3
   1220   1219   1218   1222     1  0.0000000  1.2552000  3
   1220   1219   1218   1225     1  0.0000000  1.2552000  3
   1220   1219   1231   1243     1  0.0000000  0.6508444  3
   1220   1219   1231   1232     1  0.0000000  0.6508444  3
   1220   1219   1231   1233     1  0.0000000  0.6508444  3
   1221   1219   1218   1222     1  0.0000000  1.2552000  3
   1221   1219   1218   1225     1  0.0000000  1.2552000  3
   1221   1219   1231   1243     1  0.0000000  0.6508444  3
   1221   1219   1231   1232     1  0.0000000  0.6508444  3
   1221   1219   1231   1233     1  0.0000000  0.6508444  3
   1222   1218   1225   1226     1  0.0000000  1.2552000  3
   1222   1218   1225   1227     1  0.0000000  1.2552000  3
   1222   1234   1240   1241     1  0.0000000  0.6508444  3
   1222   1234   1240   1242     1  0.0000000  0.6508444  3
   1223   1222   1218   1225     1  0.0000000  1.2552000  3
   1223   1222   1234   1240     1  0.0000000  0.6508444  3
   1223   1222   1234   1235     1  0.0000000  0.6508444  3
   1223   1222   1234   1236     1  0.0000000  0.6508444  3
   1224   1222   1218   1225     1  0.0000000  1.2552000  3
   1224   1222   1234   1240     1  0.0000000  0.6508444  3
   1224   1222   1234   1235     1  0.0000000  0.6508444  3
   1224   1222   1234   1236     1  0.0000000  0.6508444  3
   1225   1228   1237   1238     1  0.0000000  0.6508444  3
   1225   1228   1237   1239     1  0.0000000  0.6508444  3
   1226   1225   1228   1237     1  0.0000000  0.6508444  3
   1226   1225   1228   1229     1  0.0000000  0.6508444  3
   1226   1225   1228   1230     1  0.0000000  0.6508444  3
   1227   1225   1228   1237     1  0.0000000  0.6508444  3
   1227   1225   1228   1229     1  0.0000000  0.6508444  3
   1227   1225   1228   1230     1  0.0000000  0.6508444  3
   1229   1228   1237   1246     1  0.0000000  1.0460000  1
   1229   1228   1237   1246     1  0.0000000  0.0000000  3
   1229   1228   1237   1238     1  0.0000000  0.6508444  3
   1229   1228   1237   1239     1  0.0000000  0.6508444  3
   1230   1228   1237   1246     1  0.0000000  1.0460000  1
   1230   1228   1237   1246     1  0.0000000  0.0000000  3
   1230   1228   1237   1238     1  0.0000000  0.6508444  3
   1230   1228   1237   1239     1  0.0000000  0.6508444  3
   1232   1231   1243   2551     1  0.0000000  1.0460000  1
   1232   1231   1243   2551     1  0.0000000  0.0000000  3
   1232   1231   1243   1244     1  0.0000000  0.6508444  3
   1232   1231   1243   1245     1  0.0000000  0.6508444  3
   1233   1231   1243   2551     1  0.0000000  1.0460000  1
   1233   1231   1243   2551     1  0.0000000  0.0000000  3
   1233   1231   1243   1244     1  0.0000000  0.6508444  3
   1233   1231   1243   1245     1  0.0000000  0.6508444  3
   1235   1234   1240   2522     1  0.0000000  1.0460000  1
   1235   1234   1240   2522     1  0.0000000  0.0000000  3
   1235   1234   1240   1241     1  0.0000000  0.6508444  3
   1235   1234   1240   1242     1  0.0000000  0.6508444  3
   1236   1234   1240   2522     1  0.0000000  1.0460000  1
   1236   1234   1240   2522     1  0.0000000  0.0000000  3
   1236   1234   1240   1241     1  0.0000000  0.6508444  3
   1236   1234   1240   1242     1  0.0000000  0.6508444  3
   1240   2522   2513   2514     1  0.0000000  1.6038667  3
   1240   2522   2513   2515     1  0.0000000  1.6038667  3
   1241   1240   2522   2513     1  0.0000000  1.6038667  3
   1242   1240   2522   2513     1  0.0000000  1.6038667  3
   1243   2551   2542   2543     1  0.0000000  1.6038667  3
   1243   2551   2542   2544     1  0.0000000  1.6038667  3
   1244   1243   2551   2542     1  0.0000000  1.6038667  3
   1245   1243   2551   2542     1  0.0000000  1.6038667  3
   1247   1248   1260   1261     1  0.0000000  0.6508444  3
   1247   1248   1260   1262     1  0.0000000  0.6508444  3
   1247   1251   1263   1264     1  0.0000000  0.6508444  3
   1247   1251   1263   1265     1  0.0000000  0.6508444  3
   1247   1254   1257   1258     1  0.0000000  0.6508444  3
   1247   1254   1257   1259     1  0.0000000  0.6508444  3
   1248   1247   1251   1252     1  0.0000000  1.2552000  3
   1248   1247   1251   1253     1  0.0000000  1.2552000  3
   1248   1247   1254   1255     1  0.0000000  1.2552000  3
   1248   1247   1254   1256     1  0.0000000  1.2552000  3
   1248   1260   1272   1273     1  0.0000000  0.6508444  3
   1248   1260   1272   1274     1  0.0000000  0.6508444  3
   1249   1248   1247   1251     1  0.0000000  1.2552000  3
   1249   1248   1247   1254     1  0.0000000  1.2552000  3
   1249   1248   1260   1272     1  0.0000000  0.6508444  3
   1249   1248   1260   1261     1  0.0000000  0.6508444  3
   1249   1248   1260   1262     1  0.0000000  0.6508444  3
   1250   1248   1247   1251     1  0.0000000  1.2552000  3
   1250   1248   1247   1254     1  0.0000000  1.2552000  3
   1250   1248   1260   1272     1  0.0000000  0.6508444  3
   1250   1248   1260   1261     1  0.0000000  0.6508444  3
   1250   1248   1260   1262     1  0.0000000  0.6508444  3
   1251   1247   1254   1255     1  0.0000000  1.2552000  3
   1251   1247   1254   1256     1  0.0000000  1.2552000  3
   1251   1263   1269   1270     1  0.0000000  0.6508444  3
   1251   1263   1269   1271     1  0.0000000  0.6508444  3
   1252   1251   1247   1254     1  0.0000000  1.2552000  3
   1252   1251   1263   1269     1  0.0000000  0.6508444  3
   1252   1251   1263   1264     1  0.0000000  0.6508444  3
   1252   1251   1263   1265     1  0.0000000  0.6508444  3
   1253   1251   1247   1254     1  0.0000000  1.2552000  3
   1253   1251   1263   1269     1  0.0000000  0.6508444  3
   1253   1251   1263   1264     1  0.0000000  0.6508444  3
   1253   1251   1263   1265     1  0.0000000  0.6508444  3
   1254   1257   1266   1267     1  0.0000000  0.6508444  3
   1254   1257   1266   1268     1  0.0000000  0.6508444  3
   1255   1254   1257   1266     1  0.0000000  0.6508444  3
   1255   1254   1257   1258     1  0.0000000  0.6508444  3
   1255   1254   1257   1259     1  0.0000000  0.6508444  3
   1256   1254   1257   1266     1  0.0000000  0.6508444  3
   1256   1254   1257   1258     1  0.0000000  0.6508444  3
   1256   1254   1257   1259     1  0.0000000  0.6508444  3
   1258   1257   1266   1275     1  0.0000000  1.0460000  1
   1258   1257   1266   1275     1  0.0000000  0.0000000  3
   1258   1257   1266   1267     1  0.0000000  0.6508444  3
   1258   1257   1266   1268     1  0.0000000  0.6508444  3
   1259   1257   1266   1275     1  0.0000000  1.0460000  1
   1259   1257   1266   1275     1  0.0000000  0.0000000  3
   1259   1257   1266   1267     1  0.0000000  0.6508444  3
   1259   1257   1266   1268     1  0.0000000  0.6508444  3
   1261   1260   1272   2609     1  0.0000000  1.0460000  1
   1261   1260   1272   2609     1  0.0000000  0.0000000  3
   1261   1260   1272   1273     1  0.0000000  0.6508444  3
   1261   1260   1272   1274     1  0.0000000  0.6508444  3
   1262   1260   1272   2609     1  0.0000000  1.0460000  1
   1262   1260   1272   2609     1  0.0000000  0.0000000  3
   1262   1260   1272   1273     1  0.0000000  0.6508444  3
   1262   1260   1272   1274     1  0.0000000  0.6508444  3
   1264   1263   1269   2580     1  0.0000000  1.0460000  1
   1264   1263   1269   2580     1  0.0000000  0.0000000  3
   1264   1263   1269   1270     1  0.0000000  0.6508444  3
   1264   1263   1269   1271     1  0.0000000  0.6508444  3
   1265   1263   1269   2580     1  0.0000000  1.0460000  1
   1265   1263   1269   2580     1  0.0000000  0.0000000  3
   1265   1263   1269   1270     1  0.0000000  0.6508444  3
   1265   1263   1269   1271     1  0.0000000  0.6508444  3
   1269   2580   2571   2572     1  0.0000000  1.6038667  3
   1269   2580   2571   2573     1  0.0000000  1.6038667  3
   1270   1269   2580   2571     1  0.0000000  1.6038667  3
   1271   1269   2580   2571     1  0.0000000  1.6038667  3
   1272   2609   2600   2601     1  0.0000000  1.6038667  3
   1272   2609   2600   2602     1  0.0000000  1.6038667  3
   1273   1272   2609   2600     1  0.0000000  1.6038667  3
   1274   1272   2609   2600     1  0.0000000  1.6038667  3
   1276   1277   1289   1290     1  0.0000000  0.6508444  3
   1276   1277   1289   1291     1  0.0000000  0.6508444  3
   1276   1280   1292   1293     1  0.0000000  0.6508444  3
   1276   1280   1292   1294     1  0.0000000  0.6508444  3
   1276   1283   1286   1287     1  0.0000000  0.6508444  3
   1276   1283   1286   1288     1  0.0000000  0.6508444  3
   1277   1276   1280   1281     1  0.0000000  1.2552000  3
   1277   1276   1280   1282     1  0.0000000  1.2552000  3
   1277   1276   1283   1284     1  0.0000000  1.2552000  3
   1277   1276   1283   1285     1  0.0000000  1.2552000  3
   1277   1289   1301   1302     1  0.0000000  0.6508444  3
   1277   1289   1301   1303     1  0.0000000  0.6508444  3
   1278   1277   1276   1280     1  0.0000000  1.2552000  3
   1278   1277   1276   1283     1  0.0000000  1.2552000  3
   1278   1277   1289   1301     1  0.0000000  0.6508444  3
   1278   1277   1289   1290     1  0.0000000  0.6508444  3
   1278   1277   1289   1291     1  0.0000000  0.6508444  3
   1279   1277   1276   1280     1  0.0000000  1.2552000  3
   1279   1277   1276   1283     1  0.0000000  1.2552000  3
   1279   1277   1289   1301     1  0.0000000  0.6508444  3
   1279   1277   1289   1290     1  0.0000000  0.6508444  3
   1279   1277   1289   1291     1  0.0000000  0.6508444  3
   1280   1276   1283   1284     1  0.0000000  1.2552000  3
   1280   1276   1283   1285     1  0.0000000  1.2552000  3
   1280   1292   1298   1299     1  0.0000000  0.6508444  3
   1280   1292   1298   1300     1  0.0000000  0.6508444  3
   1281   1280   1276   1283     1  0.0000000  1.2552000  3
   1281   1280   1292   1298     1  0.0000000  0.6508444  3
   1281   1280   1292   1293     1  0.0000000  0.6508444  3
   1281   1280   1292   1294     1  0.0000000  0.6508444  3
   1282   1280   1276   1283     1  0.0000000  1.2552000  3
   1282   1280   1292   1298     1  0.0000000  0.6508444  3
   1282   1280   1292   1293     1  0.0000000  0.6508444  3
   1282   1280   1292   1294     1  0.0000000  0.6508444  3
   1283   1286   1295   1296     1  0.0000000  0.6508444  3
   1283   1286   1295   1297     1  0.0000000  0.6508444  3
   1284   1283   1286   1295     1  0.0000000  0.6508444  3
   1284   1283   1286   1287     1  0.0000000  0.6508444  3
   1284   1283   1286   1288     1  0.0000000  0.6508444  3
   1285   1283   1286   1295     1  0.0000000  0.6508444  3
   1285   1283   1286   1287     1  0.0000000  0.6508444  3
   1285   1283   1286   1288     1  0.0000000  0.6508444  3
   1287   1286   1295   1304     1  0.0000000  1.0460000  1
   1287   1286   1295   1304     1  0.0000000  0.0000000  3
   1287   1286   1295   1296     1  0.0000000  0.6508444  3
   1287   1286   1295   1297     1  0.0000000  0.6508444  3
   1288   1286   1295   1304     1  0.0000000  1.0460000  1
   1288   1286   1295   1304     1  0.0000000  0.0000000  3
   1288   1286   1295   1296     1  0.0000000  0.6508444  3
   1288   1286   1295   1297     1  0.0000000  0.6508444  3
   1290   1289   1301   2667     1  0.0000000  1.0460000  1
   1290   1289   1301   2667     1  0.0000000  0.0000000  3
   1290   1289   1301   1302     1  0.0000000  0.6508444  3
   1290   1289   1301   1303     1  0.0000000  0.6508444  3
   1291   1289   1301   2667     1  0.0000000  1.0460000  1
   1291   1289   1301   2667     1  0.0000000  0.0000000  3
   1291   1289   1301   1302     1  0.0000000  0.6508444  3
   1291   1289   1301   1303     1  0.0000000  0.6508444  3
   1293   1292   1298   2638     1  0.0000000  1.0460000  1
   1293   1292   1298   2638     1  0.0000000  0.0000000  3
   1293   1292   1298   1299     1  0.0000000  0.6508444  3
   1293   1292   1298   1300     1  0.0000000  0.6508444  3
   1294   1292   1298   2638     1  0.0000000  1.0460000  1
   1294   1292   1298   2638     1  0.0000000  0.0000000  3
   1294   1292   1298   1299     1  0.0000000  0.6508444  3
   1294   1292   1298   1300     1  0.0000000  0.6508444  3
   1298   2638   2629   2630     1  0.0000000  1.6038667  3
   1298   2638   2629   2631     1  0.0000000  1.6038667  3
   1299   1298   2638   2629     1  0.0000000  1.6038667  3
   1300   1298   2638   2629     1  0.0000000  1.6038667  3
   1301   2667   2658   2659     1  0.0000000  1.6038667  3
   1301   2667   2658   2660     1  0.0000000  1.6038667  3
   1302   1301   2667   2658     1  0.0000000  1.6038667  3
   1303   1301   2667   2658     1  0.0000000  1.6038667  3
   1305   1306   1318   1319     1  0.0000000  0.6508444  3
   1305   1306   1318   1320     1  0.0000000  0.6508444  3
   1305   1309   1321   1322     1  0.0000000  0.6508444  3
   1305   1309   1321   1323     1  0.0000000  0.6508444  3
   1305   1312   1315   1316     1  0.0000000  0.6508444  3
   1305   1312   1315   1317     1  0.0000000  0.6508444  3
   1306   1305   1309   1310     1  0.0000000  1.2552000  3
   1306   1305   1309   1311     1  0.0000000  1.2552000  3
   1306   1305   1312   1313     1  0.0000000  1.2552000  3
   1306   1305   1312   1314     1  0.0000000  1.2552000  3
   1306   1318   1330   1331     1  0.0000000  0.6508444  3
   1306   1318   1330   1332     1  0.0000000  0.6508444  3
   1307   1306   1305   1309     1  0.0000000  1.2552000  3
   1307   1306   1305   1312     1  0.0000000  1.2552000  3
   1307   1306   1318   1330     1  0.0000000  0.6508444  3
   1307   1306   1318   1319     1  0.0000000  0.6508444  3
   1307   1306   1318   1320     1  0.0000000  0.6508444  3
   1308   1306   1305   1309     1  0.0000000  1.2552000  3
   1308   1306   1305   1312     1  0.0000000  1.2552000  3
   1308   1306   1318   1330     1  0.0000000  0.6508444  3
   1308   1306   1318   1319     1  0.0000000  0.6508444  3
   1308   1306   1318   1320     1  0.0000000  0.6508444  3
   1309   1305   1312   1313     1  0.0000000  1.2552000  3
   1309   1305   1312   1314     1  0.0000000  1.2552000  3
   1309   1321   1327   1328     1  0.0000000  0.6508444  3
   1309   1321   1327   1329     1  0.0000000  0.6508444  3
   1310   1309   1305   1312     1  0.0000000  1.2552000  3
   1310   1309   1321   1327     1  0.0000000  0.6508444  3
   1310   1309   1321   1322     1  0.0000000  0.6508444  3
   1310   1309   1321   1323     1  0.0000000  0.6508444  3
   1311   1309   1305   1312     1  0.0000000  1.2552000  3
   1311   1309   1321   1327     1  0.0000000  0.6508444  3
   1311   1309   1321   1322     1  0.0000000  0.6508444  3
   1311   1309   1321   1323     1  0.0000000  0.6508444  3
   1312   1315   1324   1325     1  0.0000000  0.6508444  3
   1312   1315   1324   1326     1  0.0000000  0.6508444  3
   1313   1312   1315   1324     1  0.0000000  0.6508444  3
   1313   1312   1315   1316     1  0.0000000  0.6508444  3
   1313   1312   1315   1317     1  0.0000000  0.6508444  3
   1314   1312   1315   1324     1  0.0000000  0.6508444  3
   1314   1312   1315   1316     1  0.0000000  0.6508444  3
   1314   1312   1315   1317     1  0.0000000  0.6508444  3
   1316   1315   1324   1333     1  0.0000000  1.0460000  1
   1316   1315   1324   1333     1  0.0000000  0.0000000  3
   1316   1315   1324   1325     1  0.0000000  0.6508444  3
   1316   1315   1324   1326     1  0.0000000  0.6508444  3
   1317   1315   1324   1333     1  0.0000000  1.0460000  1
   1317   1315   1324   1333     1  0.0000000  0.0000000  3
   1317   1315   1324   1325     1  0.0000000  0.6508444  3
   1317   1315   1324   1326     1  0.0000000  0.6508444  3
   1319   1318   1330   2725     1  0.0000000  1.0460000  1
   1319   1318   1330   2725     1  0.0000000  0.0000000  3
   1319   1318   1330   1331     1  0.0000000  0.6508444  3
   1319   1318   1330   1332     1  0.0000000  0.6508444  3
   1320   1318   1330   2725     1  0.0000000  1.0460000  1
   1320   1318   1330   2725     1  0.0000000  0.0000000  3
   1320   1318   1330   1331     1  0.0000000  0.6508444  3
   1320   1318   1330   1332     1  0.0000000  0.6508444  3
   1322   1321   1327   2696     1  0.0000000  1.0460000  1
   1322   1321   1327   2696     1  0.0000000  0.0000000  3
   1322   1321   1327   1328     1  0.0000000  0.6508444  3
   1322   1321   1327   1329     1  0.0000000  0.6508444  3
   1323   1321   1327   2696     1  0.0000000  1.0460000  1
   1323   1321   1327   2696     1  0.0000000  0.0000000  3
   1323   1321   1327   1328     1  0.0000000  0.6508444  3
   1323   1321   1327   1329     1  0.0000000  0.6508444  3
   1327   2696   2687   2688     1  0.0000000  1.6038667  3
   1327   2696   2687   2689     1  0.0000000  1.6038667  3
   1328   1327   2696   2687     1  0.0000000  1.6038667  3
   1329   1327   2696   2687     1  0.0000000  1.6038667  3
   1330   2725   2716   2717     1  0.0000000  1.6038667  3
   1330   2725   2716   2718     1  0.0000000  1.6038667  3
   1331   1330   2725   2716     1  0.0000000  1.6038667  3
   1332   1330   2725   2716     1  0.0000000  1.6038667  3
   1334   1335   1347   1348     1  0.0000000  0.6508444  3
   1334   1335   1347   1349     1  0.0000000  0.6508444  3
   1334   1338   1350   1351     1  0.0000000  0.6508444  3
   1334   1338   1350   1352     1  0.0000000  0.6508444  3
   1334   1341   1344   1345     1  0.0000000  0.6508444  3
   1334   1341   1344   1346     1  0.0000000  0.6508444  3
   1335   1334   1338   1339     1  0.0000000  1.2552000  3
   1335   1334   1338   1340     1  0.0000000  1.2552000  3
   1335   1334   1341   1342     1  0.0000000  1.2552000  3
   1335   1334   1341   1343     1  0.0000000  1.2552000  3
   1335   1347   1359   1360     1  0.0000000  0.6508444  3
   1335   1347   1359   1361     1  0.0000000  0.6508444  3
   1336   1335   1334   1338     1  0.0000000  1.2552000  3
   1336   1335   1334   1341     1  0.0000000  1.2552000  3
   1336   1335   1347   1359     1  0.0000000  0.6508444  3
   1336   1335   1347   1348     1  0.0000000  0.6508444  3
   1336   1335   1347   1349     1  0.0000000  0.6508444  3
   1337   1335   1334   1338     1  0.0000000  1.2552000  3
   1337   1335   1334   1341     1  0.0000000  1.2552000  3
   1337   1335   1347   1359     1  0.0000000  0.6508444  3
   1337   1335   1347   1348     1  0.0000000  0.6508444  3
   1337   1335   1347   1349     1  0.0000000  0.6508444  3
   1338   1334   1341   1342     1  0.0000000  1.2552000  3
   1338   1334   1341   1343     1  0.0000000  1.2552000  3
   1338   1350   1356   1357     1  0.0000000  0.6508444  3
   1338   1350   1356   1358     1  0.0000000  0.6508444  3
   1339   1338   1334   1341     1  0.0000000  1.2552000  3
   1339   1338   1350   1356     1  0.0000000  0.6508444  3
   1339   1338   1350   1351     1  0.0000000  0.6508444  3
   1339   1338   1350   1352     1  0.0000000  0.6508444  3
   1340   1338   1334   1341     1  0.0000000  1.2552000  3
   1340   1338   1350   1356     1  0.0000000  0.6508444  3
   1340   1338   1350   1351     1  0.0000000  0.6508444  3
   1340   1338   1350   1352     1  0.0000000  0.6508444  3
   1341   1344   1353   1354     1  0.0000000  0.6508444  3
   1341   1344   1353   1355     1  0.0000000  0.6508444  3
   1342   1341   1344   1353     1  0.0000000  0.6508444  3
   1342   1341   1344   1345     1  0.0000000  0.6508444  3
   1342   1341   1344   1346     1  0.0000000  0.6508444  3
   1343   1341   1344   1353     1  0.0000000  0.6508444  3
   1343   1341   1344   1345     1  0.0000000  0.6508444  3
   1343   1341   1344   1346     1  0.0000000  0.6508444  3
   1345   1344   1353   1362     1  0.0000000  1.0460000  1
   1345   1344   1353   1362     1  0.0000000  0.0000000  3
   1345   1344   1353   1354     1  0.0000000  0.6508444  3
   1345   1344   1353   1355     1  0.0000000  0.6508444  3
   1346   1344   1353   1362     1  0.0000000  1.0460000  1
   1346   1344   1353   1362     1  0.0000000  0.0000000  3
   1346   1344   1353   1354     1  0.0000000  0.6508444  3
   1346   1344   1353   1355     1  0.0000000  0.6508444  3
   1348   1347   1359   2783     1  0.0000000  1.0460000  1
   1348   1347   1359   2783     1  0.0000000  0.0000000  3
   1348   1347   1359   1360     1  0.0000000  0.6508444  3
   1348   1347   1359   1361     1  0.0000000  0.6508444  3
   1349   1347   1359   2783     1  0.0000000  1.0460000  1
   1349   1347   1359   2783     1  0.0000000  0.0000000  3
   1349   1347   1359   1360     1  0.0000000  0.6508444  3
   1349   1347   1359   1361     1  0.0000000  0.6508444  3
   1351   1350   1356   2754     1  0.0000000  1.0460000  1
   1351   1350   1356   2754     1  0.0000000  0.0000000  3
   1351   1350   1356   1357     1  0.0000000  0.6508444  3
   1351   1350   1356   1358     1  0.0000000  0.6508444  3
   1352   1350   1356   2754     1  0.0000000  1.0460000  1
   1352   1350   1356   2754     1  0.0000000  0.0000000  3
   1352   1350   1356   1357     1  0.0000000  0.6508444  3
   1352   1350   1356   1358     1  0.0000000  0.6508444  3
   1356   2754   2745   2746     1  0.0000000  1.6038667  3
   1356   2754   2745   2747     1  0.0000000  1.6038667  3
   1357   1356   2754   2745     1  0.0000000  1.6038667  3
   1358   1356   2754   2745     1  0.0000000  1.6038667  3
   1359   2783   2774   2775     1  0.0000000  1.6038667  3
   1359   2783   2774   2776     1  0.0000000  1.6038667  3
   1360   1359   2783   2774     1  0.0000000  1.6038667  3
   1361   1359   2783   2774     1  0.0000000  1.6038667  3
   1363   1364   1376   1377     1  0.0000000  0.6508444  3
   1363   1364   1376   1378     1  0.0000000  0.6508444  3
   1363   1367   1379   1380     1  0.0000000  0.6508444  3
   1363   1367   1379   1381     1  0.0000000  0.6508444  3
   1363   1370   1373   1374     1  0.0000000  0.6508444  3
   1363   1370   1373   1375     1  0.0000000  0.6508444  3
   1364   1363   1367   1368     1  0.0000000  1.2552000  3
   1364   1363   1367   1369     1  0.0000000  1.2552000  3
   1364   1363   1370   1371     1  0.0000000  1.2552000  3
   1364   1363   1370   1372     1  0.0000000  1.2552000  3
   1364   1376   1388   1389     1  0.0000000  0.6508444  3
   1364   1376   1388   1390     1  0.0000000  0.6508444  3
   1365   1364   1363   1367     1  0.0000000  1.2552000  3
   1365   1364   1363   1370     1  0.0000000  1.2552000  3
   1365   1364   1376   1388     1  0.0000000  0.6508444  3
   1365   1364   1376   1377     1  0.0000000  0.6508444  3
   1365   1364   1376   1378     1  0.0000000  0.6508444  3
   1366   1364   1363   1367     1  0.0000000  1.2552000  3
   1366   1364   1363   1370     1  0.0000000  1.2552000  3
   1366   1364   1376   1388     1  0.0000000  0.6508444  3
   1366   1364   1376   1377     1  0.0000000  0.6508444  3
   1366   1364   1376   1378     1  0.0000000  0.6508444  3
   1367   1363   1370   1371     1  0.0000000  1.2552000  3
   1367   1363   1370   1372     1  0.0000000  1.2552000  3
   1367   1379   1385   1386     1  0.0000000  0.6508444  3
   1367   1379   1385   1387     1  0.0000000  0.6508444  3
   1368   1367   1363   1370     1  0.0000000  1.2552000  3
   1368   1367   1379   1385     1  0.0000000  0.6508444  3
   1368   1367   1379   1380     1  0.0000000  0.6508444  3
   1368   1367   1379   1381     1  0.0000000  0.6508444  3
   1369   1367   1363   1370     1  0.0000000  1.2552000  3
   1369   1367   1379   1385     1  0.0000000  0.6508444  3
   1369   1367   1379   1380     1  0.0000000  0.6508444  3
   1369   1367   1379   1381     1  0.0000000  0.6508444  3
   1370   1373   1382   1383     1  0.0000000  0.6508444  3
   1370   1373   1382   1384     1  0.0000000  0.6508444  3
   1371   1370   1373   1382     1  0.0000000  0.6508444  3
   1371   1370   1373   1374     1  0.0000000  0.6508444  3
   1371   1370   1373   1375     1  0.0000000  0.6508444  3
   1372   1370   1373   1382     1  0.0000000  0.6508444  3
   1372   1370   1373   1374     1  0.0000000  0.6508444  3
   1372   1370   1373   1375     1  0.0000000  0.6508444  3
   1374   1373   1382   1391     1  0.0000000  1.0460000  1
   1374   1373   1382   1391     1  0.0000000  0.0000000  3
   1374   1373   1382   1383     1  0.0000000  0.6508444  3
   1374   1373   1382   1384     1  0.0000000  0.6508444  3
   1375   1373   1382   1391     1  0.0000000  1.0460000  1
   1375   1373   1382   1391     1  0.0000000  0.0000000  3
   1375   1373   1382   1383     1  0.0000000  0.6508444  3
   1375   1373   1382   1384     1  0.0000000  0.6508444  3
   1377   1376   1388   2841     1  0.0000000  1.0460000  1
   1377   1376   1388   2841     1  0.0000000  0.0000000  3
   1377   1376   1388   1389     1  0.0000000  0.6508444  3
   1377   1376   1388   1390     1  0.0000000  0.6508444  3
   1378   1376   1388   2841     1  0.0000000  1.0460000  1
   1378   1376   1388   2841     1  0.0000000  0.0000000  3
   1378   1376   1388   1389     1  0.0000000  0.6508444  3
   1378   1376   1388   1390     1  0.0000000  0.6508444  3
   1380   1379   1385   2812     1  0.0000000  1.0460000  1
   1380   1379   1385   2812     1  0.0000000  0.0000000  3
   1380   1379   1385   1386     1  0.0000000  0.6508444  3
   1380   1379   1385   1387     1  0.0000000  0.6508444  3
   1381   1379   1385   2812     1  0.0000000  1.0460000  1
   1381   1379   1385   2812     1  0.0000000  0.0000000  3
   1381   1379   1385   1386     1  0.0000000  0.6508444  3
   1381   1379   1385   1387     1  0.0000000  0.6508444  3
   1385   2812   2803   2804     1  0.0000000  1.6038667  3
   1385   2812   2803   2805     1  0.0000000  1.6038667  3
   1386   1385   2812   2803     1  0.0000000  1.6038667  3
   1387   1385   2812   2803     1  0.0000000  1.6038667  3
   1388   2841   2832   2833     1  0.0000000  1.6038667  3
   1388   2841   2832   2834     1  0.0000000  1.6038667  3
   1389   1388   2841   2832     1  0.0000000  1.6038667  3
   1390   1388   2841   2832     1  0.0000000  1.6038667  3
   1392   1393   1405   1406     1  0.0000000  0.6508444  3
   1392   1393   1405   1407     1  0.0000000  0.6508444  3
   1392   1396   1408   1409     1  0.0000000  0.6508444  3
   1392   1396   1408   1410     1  0.0000000  0.6508444  3
   1392   1399   1402   1403     1  0.0000000  0.6508444  3
   1392   1399   1402   1404     1  0.0000000  0.6508444  3
   1393   1392   1396   1397     1  0.0000000  1.2552000  3
   1393   1392   1396   1398     1  0.0000000  1.2552000  3
   1393   1392   1399   1400     1  0.0000000  1.2552000  3
   1393   1392   1399   1401     1  0.0000000  1.2552000  3
   1393   1405   1417   1418     1  0.0000000  0.6508444  3
   1393   1405   1417   1419     1  0.0000000  0.6508444  3
   1394   1393   1392   1396     1  0.0000000  1.2552000  3
   1394   1393   1392   1399     1  0.0000000  1.2552000  3
   1394   1393   1405   1417     1  0.0000000  0.6508444  3
   1394   1393   1405   1406     1  0.0000000  0.6508444  3
   1394   1393   1405   1407     1  0.0000000  0.6508444  3
   1395   1393   1392   1396     1  0.0000000  1.2552000  3
   1395   1393   1392   1399     1  0.0000000  1.2552000  3
   1395   1393   1405   1417     1  0.0000000  0.6508444  3
   1395   1393   1405   1406     1  0.0000000  0.6508444  3
   1395   1393   1405   1407     1  0.0000000  0.6508444  3
   1396   1392   1399   1400     1  0.0000000  1.2552000  3
   1396   1392   1399   1401     1  0.0000000  1.2552000  3
   1396   1408   1414   1415     1  0.0000000  0.6508444  3
   1396   1408   1414   1416     1  0.0000000  0.6508444  3
   1397   1396   1392   1399     1  0.0000000  1.2552000  3
   1397   1396   1408   1414     1  0.0000000  0.6508444  3
   1397   1396   1408   1409     1  0.0000000  0.6508444  3
   1397   1396   1408   1410     1  0.0000000  0.6508444  3
   1398   1396   1392   1399     1  0.0000000  1.2552000  3
   1398   1396   1408   1414     1  0.0000000  0.6508444  3
   1398   1396   1408   1409     1  0.0000000  0.6508444  3
   1398   1396   1408   1410     1  0.0000000  0.6508444  3
   1399   1402   1411   1412     1  0.0000000  0.6508444  3
   1399   1402   1411   1413     1  0.0000000  0.6508444  3
   1400   1399   1402   1411     1  0.0000000  0.6508444  3
   1400   1399   1402   1403     1  0.0000000  0.6508444  3
   1400   1399   1402   1404     1  0.0000000  0.6508444  3
   1401   1399   1402   1411     1  0.0000000  0.6508444  3
   1401   1399   1402   1403     1  0.0000000  0.6508444  3
   1401   1399   1402   1404     1  0.0000000  0.6508444  3
   1403   1402   1411   1420     1  0.0000000  1.0460000  1
   1403   1402   1411   1420     1  0.0000000  0.0000000  3
   1403   1402   1411   1412     1  0.0000000  0.6508444  3
   1403   1402   1411   1413     1  0.0000000  0.6508444  3
   1404   1402   1411   1420     1  0.0000000  1.0460000  1
   1404   1402   1411   1420     1  0.0000000  0.0000000  3
   1404   1402   1411   1412     1  0.0000000  0.6508444  3
   1404   1402   1411   1413     1  0.0000000  0.6508444  3
   1406   1405   1417   2899     1  0.0000000  1.0460000  1
   1406   1405   1417   2899     1  0.0000000  0.0000000  3
   1406   1405   1417   1418     1  0.0000000  0.6508444  3
   1406   1405   1417   1419     1  0.0000000  0.6508444  3
   1407   1405   1417   2899     1  0.0000000  1.0460000  1
   1407   1405   1417   2899     1  0.0000000  0.0000000  3
   1407   1405   1417   1418     1  0.0000000  0.6508444  3
   1407   1405   1417   1419     1  0.0000000  0.6508444  3
   1409   1408   1414   2870     1  0.0000000  1.0460000  1
   1409   1408   1414   2870     1  0.0000000  0.0000000  3
   1409   1408   1414   1415     1  0.0000000  0.6508444  3
   1409   1408   1414   1416     1  0.0000000  0.6508444  3
   1410   1408   1414   2870     1  0.0000000  1.0460000  1
   1410   1408   1414   2870     1  0.0000000  0.0000000  3
   1410   1408   1414   1415     1  0.0000000  0.6508444  3
   1410   1408   1414   1416     1  0.0000000  0.6508444  3
   1414   2870   2861   2862     1  0.0000000  1.6038667  3
   1414   2870   2861   2863     1  0.0000000  1.6038667  3
   1415   1414   2870   2861     1  0.0000000  1.6038667  3
   1416   1414   2870   2861     1  0.0000000  1.6038667  3
   1417   2899   2890   2891     1  0.0000000  1.6038667  3
   1417   2899   2890   2892     1  0.0000000  1.6038667  3
   1418   1417   2899   2890     1  0.0000000  1.6038667  3
   1419   1417   2899   2890     1  0.0000000  1.6038667  3
   1421   1422   1434   1435     1  0.0000000  0.6508444  3
   1421   1422   1434   1436     1  0.0000000  0.6508444  3
   1421   1425   1437   1438     1  0.0000000  0.6508444  3
   1421   1425   1437   1439     1  0.0000000  0.6508444  3
   1421   1428   1431   1432     1  0.0000000  0.6508444  3
   1421   1428   1431   1433     1  0.0000000  0.6508444  3
   1422   1421   1425   1426     1  0.0000000  1.2552000  3
   1422   1421   1425   1427     1  0.0000000  1.2552000  3
   1422   1421   1428   1429     1  0.0000000  1.2552000  3
   1422   1421   1428   1430     1  0.0000000  1.2552000  3
   1422   1434   1446   1447     1  0.0000000  0.6508444  3
   1422   1434   1446   1448     1  0.0000000  0.6508444  3
   1423   1422   1421   1425     1  0.0000000  1.2552000  3
   1423   1422   1421   1428     1  0.0000000  1.2552000  3
   1423   1422   1434   1446     1  0.0000000  0.6508444  3
   1423   1422   1434   1435     1  0.0000000  0.6508444  3
   1423   1422   1434   1436     1  0.0000000  0.6508444  3
   1424   1422   1421   1425     1  0.0000000  1.2552000  3
   1424   1422   1421   1428     1  0.0000000  1.2552000  3
   1424   1422   1434   1446     1  0.0000000  0.6508444  3
   1424   1422   1434   1435     1  0.0000000  0.6508444  3
   1424   1422   1434   1436     1  0.0000000  0.6508444  3
   1425   1421   1428   1429     1  0.0000000  1.2552000  3
   1425   1421   1428   1430     1  0.0000000  1.2552000  3
   1425   1437   1443   1444     1  0.0000000  0.6508444  3
   1425   1437   1443   1445     1  0.0000000  0.6508444  3
   1426   1425   1421   1428     1  0.0000000  1.2552000  3
   1426   1425   1437   1443     1  0.0000000  0.6508444  3
   1426   1425   1437   1438     1  0.0000000  0.6508444  3
   1426   1425   1437   1439     1  0.0000000  0.6508444  3
   1427   1425   1421   1428     1  0.0000000  1.2552000  3
   1427   1425   1437   1443     1  0.0000000  0.6508444  3
   1427   1425   1437   1438     1  0.0000000  0.6508444  3
   1427   1425   1437   1439     1  0.0000000  0.6508444  3
   1428   1431   1440   1441     1  0.0000000  0.6508444  3
   1428   1431   1440   1442     1  0.0000000  0.6508444  3
   1429   1428   1431   1440     1  0.0000000  0.6508444  3
   1429   1428   1431   1432     1  0.0000000  0.6508444  3
   1429   1428   1431   1433     1  0.0000000  0.6508444  3
   1430   1428   1431   1440     1  0.0000000  0.6508444  3
   1430   1428   1431   1432     1  0.0000000  0.6508444  3
   1430   1428   1431   1433     1  0.0000000  0.6508444  3
   1432   1431   1440   1449     1  0.0000000  1.0460000  1
   1432   1431   1440   1449     1  0.0000000  0.0000000  3
   1432   1431   1440   1441     1  0.0000000  0.6508444  3
   1432   1431   1440   1442     1  0.0000000  0.6508444  3
   1433   1431   1440   1449     1  0.0000000  1.0460000  1
   1433   1431   1440   1449     1  0.0000000  0.0000000  3
   1433   1431   1440   1441     1  0.0000000  0.6508444  3
   1433   1431   1440   1442     1  0.0000000  0.6508444  3
   1435   1434   1446   2957     1  0.0000000  1.0460000  1
   1435   1434   1446   2957     1  0.0000000  0.0000000  3
   1435   1434   1446   1447     1  0.0000000  0.6508444  3
   1435   1434   1446   1448     1  0.0000000  0.6508444  3
   1436   1434   1446   2957     1  0.0000000  1.0460000  1
   1436   1434   1446   2957     1  0.0000000  0.0000000  3
   1436   1434   1446   1447     1  0.0000000  0.6508444  3
   1436   1434   1446   1448     1  0.0000000  0.6508444  3
   1438   1437   1443   2928     1  0.0000000  1.0460000  1
   1438   1437   1443   2928     1  0.0000000  0.0000000  3
   1438   1437   1443   1444     1  0.0000000  0.6508444  3
   1438   1437   1443   1445     1  0.0000000  0.6508444  3
   1439   1437   1443   2928     1  0.0000000  1.0460000  1
   1439   1437   1443   2928     1  0.0000000  0.0000000  3
   1439   1437   1443   1444     1  0.0000000  0.6508444  3
   1439   1437   1443   1445     1  0.0000000  0.6508444  3
   1443   2928   2919   2920     1  0.0000000  1.6038667  3
   1443   2928   2919   2921     1  0.0000000  1.6038667  3
   1444   1443   2928   2919     1  0.0000000  1.6038667  3
   1445   1443   2928   2919     1  0.0000000  1.6038667  3
   1446   2957   2948   2949     1  0.0000000  1.6038667  3
   1446   2957   2948   2950     1  0.0000000  1.6038667  3
   1447   1446   2957   2948     1  0.0000000  1.6038667  3
   1448   1446   2957   2948     1  0.0000000  1.6038667  3
   1450   1451   1463   1464     1  0.0000000  0.6508444  3
   1450   1451   1463   1465     1  0.0000000  0.6508444  3
   1450   1454   1466   1467     1  0.0000000  0.6508444  3
   1450   1454   1466   1468     1  0.0000000  0.6508444  3
   1450   1457   1460   1461     1  0.0000000  0.6508444  3
   1450   1457   1460   1462     1  0.0000000  0.6508444  3
   1451   1450   1454   1455     1  0.0000000  1.2552000  3
   1451   1450   1454   1456     1  0.0000000  1.2552000  3
   1451   1450   1457   1458     1  0.0000000  1.2552000  3
   1451   1450   1457   1459     1  0.0000000  1.2552000  3
   1451   1463   1475   1476     1  0.0000000  0.6508444  3
   1451   1463   1475   1477     1  0.0000000  0.6508444  3
   1452   1451   1450   1454     1  0.0000000  1.2552000  3
   1452   1451   1450   1457     1  0.0000000  1.2552000  3
   1452   1451   1463   1475     1  0.0000000  0.6508444  3
   1452   1451   1463   1464     1  0.0000000  0.6508444  3
   1452   1451   1463   1465     1  0.0000000  0.6508444  3
   1453   1451   1450   1454     1  0.0000000  1.2552000  3
   1453   1451   1450   1457     1  0.0000000  1.2552000  3
   1453   1451   1463   1475     1  0.0000000  0.6508444  3
   1453   1451   1463   1464     1  0.0000000  0.6508444  3
   1453   1451   1463   1465     1  0.0000000  0.6508444  3
   1454   1450   1457   1458     1  0.0000000  1.2552000  3
   1454   1450   1457   1459     1  0.0000000  1.2552000  3
   1454   1466   1472   1473     1  0.0000000  0.6508444  3
   1454   1466   1472   1474     1  0.0000000  0.6508444  3
   1455   1454   1450   1457     1  0.0000000  1.2552000  3
   1455   1454   1466   1472     1  0.0000000  0.6508444  3
   1455   1454   1466   1467     1  0.0000000  0.6508444  3
   1455   1454   1466   1468     1  0.0000000  0.6508444  3
   1456   1454   1450   1457     1  0.0000000  1.2552000  3
   1456   1454   1466   1472     1  0.0000000  0.6508444  3
   1456   1454   1466   1467     1  0.0000000  0.6508444  3
   1456   1454   1466   1468     1  0.0000000  0.6508444  3
   1457   1460   1469   1470     1  0.0000000  0.6508444  3
   1457   1460   1469   1471     1  0.0000000  0.6508444  3
   1458   1457   1460   1469     1  0.0000000  0.6508444  3
   1458   1457   1460   1461     1  0.0000000  0.6508444  3
   1458   1457   1460   1462     1  0.0000000  0.6508444  3
   1459   1457   1460   1469     1  0.0000000  0.6508444  3
   1459   1457   1460   1461     1  0.0000000  0.6508444  3
   1459   1457   1460   1462     1  0.0000000  0.6508444  3
   1461   1460   1469   1478     1  0.0000000  1.0460000  1
   1461   1460   1469   1478     1  0.0000000  0.0000000  3
   1461   1460   1469   1470     1  0.0000000  0.6508444  3
   1461   1460   1469   1471     1  0.0000000  0.6508444  3
   1462   1460   1469   1478     1  0.0000000  1.0460000  1
   1462   1460   1469   1478     1  0.0000000  0.0000000  3
   1462   1460   1469   1470     1  0.0000000  0.6508444  3
   1462   1460   1469   1471     1  0.0000000  0.6508444  3
   1464   1463   1475   3015     1  0.0000000  1.0460000  1
   1464   1463   1475   3015     1  0.0000000  0.0000000  3
   1464   1463   1475   1476     1  0.0000000  0.6508444  3
   1464   1463   1475   1477     1  0.0000000  0.6508444  3
   1465   1463   1475   3015     1  0.0000000  1.0460000  1
   1465   1463   1475   3015     1  0.0000000  0.0000000  3
   1465   1463   1475   1476     1  0.0000000  0.6508444  3
   1465   1463   1475   1477     1  0.0000000  0.6508444  3
   1467   1466   1472   2986     1  0.0000000  1.0460000  1
   1467   1466   1472   2986     1  0.0000000  0.0000000  3
   1467   1466   1472   1473     1  0.0000000  0.6508444  3
   1467   1466   1472   1474     1  0.0000000  0.6508444  3
   1468   1466   1472   2986     1  0.0000000  1.0460000  1
   1468   1466   1472   2986     1  0.0000000  0.0000000  3
   1468   1466   1472   1473     1  0.0000000  0.6508444  3
   1468   1466   1472   1474     1  0.0000000  0.6508444  3
   1472   2986   2977   2978     1  0.0000000  1.6038667  3
   1472   2986   2977   2979     1  0.0000000  1.6038667  3
   1473   1472   2986   2977     1  0.0000000  1.6038667  3
   1474   1472   2986   2977     1  0.0000000  1.6038667  3
   1475   3015   3006   3007     1  0.0000000  1.6038667  3
   1475   3015   3006   3008     1  0.0000000  1.6038667  3
   1476   1475   3015   3006     1  0.0000000  1.6038667  3
   1477   1475   3015   3006     1  0.0000000  1.6038667  3
   1479   1480   1492   1493     1  0.0000000  0.6508444  3
   1479   1480   1492   1494     1  0.0000000  0.6508444  3
   1479   1483   1495   1496     1  0.0000000  0.6508444  3
   1479   1483   1495   1497     1  0.0000000  0.6508444  3
   1479   1486   1489   1490     1  0.0000000  0.6508444  3
   1479   1486   1489   1491     1  0.0000000  0.6508444  3
   1480   1479   1483   1484     1  0.0000000  1.2552000  3
   1480   1479   1483   1485     1  0.0000000  1.2552000  3
   1480   1479   1486   1487     1  0.0000000  1.2552000  3
   1480   1479   1486   1488     1  0.0000000  1.2552000  3
   1480   1492   1504   1505     1  0.0000000  0.6508444  3
   1480   1492   1504   1506     1  0.0000000  0.6508444  3
   1481   1480   1479   1483     1  0.0000000  1.2552000  3
   1481   1480   1479   1486     1  0.0000000  1.2552000  3
   1481   1480   1492   1504     1  0.0000000  0.6508444  3
   1481   1480   1492   1493     1  0.0000000  0.6508444  3
   1481   1480   1492   1494     1  0.0000000  0.6508444  3
   1482   1480   1479   1483     1  0.0000000  1.2552000  3
   1482   1480   1479   1486     1  0.0000000  1.2552000  3
   1482   1480   1492   1504     1  0.0000000  0.6508444  3
   1482   1480   1492   1493     1  0.0000000  0.6508444  3
   1482   1480   1492   1494     1  0.0000000  0.6508444  3
   1483   1479   1486   1487     1  0.0000000  1.2552000  3
   1483   1479   1486   1488     1  0.0000000  1.2552000  3
   1483   1495   1501   1502     1  0.0000000  0.6508444  3
   1483   1495   1501   1503     1  0.0000000  0.6508444  3
   1484   1483   1479   1486     1  0.0000000  1.2552000  3
   1484   1483   1495   1501     1  0.0000000  0.6508444  3
   1484   1483   1495   1496     1  0.0000000  0.6508444  3
   1484   1483   1495   1497     1  0.0000000  0.6508444  3
   1485   1483   1479   1486     1  0.0000000  1.2552000  3
   1485   1483   1495   1501     1  0.0000000  0.6508444  3
   1485   1483   1495   1496     1  0.0000000  0.6508444  3
   1485   1483   1495   1497     1  0.0000000  0.6508444  3
   1486   1489   1498   1499     1  0.0000000  0.6508444  3
   1486   1489   1498   1500     1  0.0000000  0.6508444  3
   1487   1486   1489   1498     1  0.0000000  0.6508444  3
   1487   1486   1489   1490     1  0.0000000  0.6508444  3
   1487   1486   1489   1491     1  0.0000000  0.6508444  3
   1488   1486   1489   1498     1  0.0000000  0.6508444  3
   1488   1486   1489   1490     1  0.0000000  0.6508444  3
   1488   1486   1489   1491     1  0.0000000  0.6508444  3
   1490   1489   1498   1507     1  0.0000000  1.0460000  1
   1490   1489   1498   1507     1  0.0000000  0.0000000  3
   1490   1489   1498   1499     1  0.0000000  0.6508444  3
   1490   1489   1498   1500     1  0.0000000  0.6508444  3
   1491   1489   1498   1507     1  0.0000000  1.0460000  1
   1491   1489   1498   1507     1  0.0000000  0.0000000  3
   1491   1489   1498   1499     1  0.0000000  0.6508444  3
   1491   1489   1498   1500     1  0.0000000  0.6508444  3
   1493   1492   1504   3073     1  0.0000000  1.0460000  1
   1493   1492   1504   3073     1  0.0000000  0.0000000  3
   1493   1492   1504   1505     1  0.0000000  0.6508444  3
   1493   1492   1504   1506     1  0.0000000  0.6508444  3
   1494   1492   1504   3073     1  0.0000000  1.0460000  1
   1494   1492   1504   3073     1  0.0000000  0.0000000  3
   1494   1492   1504   1505     1  0.0000000  0.6508444  3
   1494   1492   1504   1506     1  0.0000000  0.6508444  3
   1496   1495   1501   3044     1  0.0000000  1.0460000  1
   1496   1495   1501   3044     1  0.0000000  0.0000000  3
   1496   1495   1501   1502     1  0.0000000  0.6508444  3
   1496   1495   1501   1503     1  0.0000000  0.6508444  3
   1497   1495   1501   3044     1  0.0000000  1.0460000  1
   1497   1495   1501   3044     1  0.0000000  0.0000000  3
   1497   1495   1501   1502     1  0.0000000  0.6508444  3
   1497   1495   1501   1503     1  0.0000000  0.6508444  3
   1501   3044   3035   3036     1  0.0000000  1.6038667  3
   1501   3044   3035   3037     1  0.0000000  1.6038667  3
   1502   1501   3044   3035     1  0.0000000  1.6038667  3
   1503   1501   3044   3035     1  0.0000000  1.6038667  3
   1504   3073   3064   3065     1  0.0000000  1.6038667  3
   1504   3073   3064   3066     1  0.0000000  1.6038667  3
   1505   1504   3073   3064     1  0.0000000  1.6038667  3
   1506   1504   3073   3064     1  0.0000000  1.6038667  3
   1508   1509   1521   1522     1  0.0000000  0.6508444  3
   1508   1509   1521   1523     1  0.0000000  0.6508444  3
   1508   1512   1524   1525     1  0.0000000  0.6508444  3
   1508   1512   1524   1526     1  0.0000000  0.6508444  3
   1508   1515   1518   1519     1  0.0000000  0.6508444  3
   1508   1515   1518   1520     1  0.0000000  0.6508444  3
   1509   1508   1512   1513     1  0.0000000  1.2552000  3
   1509   1508   1512   1514     1  0.0000000  1.2552000  3
   1509   1508   1515   1516     1  0.0000000  1.2552000  3
   1509   1508   1515   1517     1  0.0000000  1.2552000  3
   1509   1521   1533   1534     1  0.0000000  0.6508444  3
   1509   1521   1533   1535     1  0.0000000  0.6508444  3
   1510   1509   1508   1512     1  0.0000000  1.2552000  3
   1510   1509   1508   1515     1  0.0000000  1.2552000  3
   1510   1509   1521   1533     1  0.0000000  0.6508444  3
   1510   1509   1521   1522     1  0.0000000  0.6508444  3
   1510   1509   1521   1523     1  0.0000000  0.6508444  3
   1511   1509   1508   1512     1  0.0000000  1.2552000  3
   1511   1509   1508   1515     1  0.0000000  1.2552000  3
   1511   1509   1521   1533     1  0.0000000  0.6508444  3
   1511   1509   1521   1522     1  0.0000000  0.6508444  3
   1511   1509   1521   1523     1  0.0000000  0.6508444  3
   1512   1508   1515   1516     1  0.0000000  1.2552000  3
   1512   1508   1515   1517     1  0.0000000  1.2552000  3
   1512   1524   1530   1531     1  0.0000000  0.6508444  3
   1512   1524   1530   1532     1  0.0000000  0.6508444  3
   1513   1512   1508   1515     1  0.0000000  1.2552000  3
   1513   1512   1524   1530     1  0.0000000  0.6508444  3
   1513   1512   1524   1525     1  0.0000000  0.6508444  3
   1513   1512   1524   1526     1  0.0000000  0.6508444  3
   1514   1512   1508   1515     1  0.0000000  1.2552000  3
   1514   1512   1524   1530     1  0.0000000  0.6508444  3
   1514   1512   1524   1525     1  0.0000000  0.6508444  3
   1514   1512   1524   1526     1  0.0000000  0.6508444  3
   1515   1518   1527   1528     1  0.0000000  0.6508444  3
   1515   1518   1527   1529     1  0.0000000  0.6508444  3
   1516   1515   1518   1527     1  0.0000000  0.6508444  3
   1516   1515   1518   1519     1  0.0000000  0.6508444  3
   1516   1515   1518   1520     1  0.0000000  0.6508444  3
   1517   1515   1518   1527     1  0.0000000  0.6508444  3
   1517   1515   1518   1519     1  0.0000000  0.6508444  3
   1517   1515   1518   1520     1  0.0000000  0.6508444  3
   1519   1518   1527   1536     1  0.0000000  1.0460000  1
   1519   1518   1527   1536     1  0.0000000  0.0000000  3
   1519   1518   1527   1528     1  0.0000000  0.6508444  3
   1519   1518   1527   1529     1  0.0000000  0.6508444  3
   1520   1518   1527   1536     1  0.0000000  1.0460000  1
   1520   1518   1527   1536     1  0.0000000  0.0000000  3
   1520   1518   1527   1528     1  0.0000000  0.6508444  3
   1520   1518   1527   1529     1  0.0000000  0.6508444  3
   1522   1521   1533   3131     1  0.0000000  1.0460000  1
   1522   1521   1533   3131     1  0.0000000  0.0000000  3
   1522   1521   1533   1534     1  0.0000000  0.6508444  3
   1522   1521   1533   1535     1  0.0000000  0.6508444  3
   1523   1521   1533   3131     1  0.0000000  1.0460000  1
   1523   1521   1533   3131     1  0.0000000  0.0000000  3
   1523   1521   1533   1534     1  0.0000000  0.6508444  3
   1523   1521   1533   1535     1  0.0000000  0.6508444  3
   1525   1524   1530   3102     1  0.0000000  1.0460000  1
   1525   1524   1530   3102     1  0.0000000  0.0000000  3
   1525   1524   1530   1531     1  0.0000000  0.6508444  3
   1525   1524   1530   1532     1  0.0000000  0.6508444  3
   1526   1524   1530   3102     1  0.0000000  1.0460000  1
   1526   1524   1530   3102     1  0.0000000  0.0000000  3
   1526   1524   1530   1531     1  0.0000000  0.6508444  3
   1526   1524   1530   1532     1  0.0000000  0.6508444  3
   1530   3102   3093   3094     1  0.0000000  1.6038667  3
   1530   3102   3093   3095     1  0.0000000  1.6038667  3
   1531   1530   3102   3093     1  0.0000000  1.6038667  3
   1532   1530   3102   3093     1  0.0000000  1.6038667  3
   1533   3131   3122   3123     1  0.0000000  1.6038667  3
   1533   3131   3122   3124     1  0.0000000  1.6038667  3
   1534   1533   3131   3122     1  0.0000000  1.6038667  3
   1535   1533   3131   3122     1  0.0000000  1.6038667  3
   1537   1538   1550   1551     1  0.0000000  0.6508444  3
   1537   1538   1550   1552     1  0.0000000  0.6508444  3
   1537   1541   1553   1554     1  0.0000000  0.6508444  3
   1537   1541   1553   1555     1  0.0000000  0.6508444  3
   1537   1544   1547   1548     1  0.0000000  0.6508444  3
   1537   1544   1547   1549     1  0.0000000  0.6508444  3
   1538   1537   1541   1542     1  0.0000000  1.2552000  3
   1538   1537   1541   1543     1  0.0000000  1.2552000  3
   1538   1537   1544   1545     1  0.0000000  1.2552000  3
   1538   1537   1544   1546     1  0.0000000  1.2552000  3
   1538   1550   1562   1563     1  0.0000000  0.6508444  3
   1538   1550   1562   1564     1  0.0000000  0.6508444  3
   1539   1538   1537   1541     1  0.0000000  1.2552000  3
   1539   1538   1537   1544     1  0.0000000  1.2552000  3
   1539   1538   1550   1562     1  0.0000000  0.6508444  3
   1539   1538   1550   1551     1  0.0000000  0.6508444  3
   1539   1538   1550   1552     1  0.0000000  0.6508444  3
   1540   1538   1537   1541     1  0.0000000  1.2552000  3
   1540   1538   1537   1544     1  0.0000000  1.2552000  3
   1540   1538   1550   1562     1  0.0000000  0.6508444  3
   1540   1538   1550   1551     1  0.0000000  0.6508444  3
   1540   1538   1550   1552     1  0.0000000  0.6508444  3
   1541   1537   1544   1545     1  0.0000000  1.2552000  3
   1541   1537   1544   1546     1  0.0000000  1.2552000  3
   1541   1553   1559   1560     1  0.0000000  0.6508444  3
   1541   1553   1559   1561     1  0.0000000  0.6508444  3
   1542   1541   1537   1544     1  0.0000000  1.2552000  3
   1542   1541   1553   1559     1  0.0000000  0.6508444  3
   1542   1541   1553   1554     1  0.0000000  0.6508444  3
   1542   1541   1553   1555     1  0.0000000  0.6508444  3
   1543   1541   1537   1544     1  0.0000000  1.2552000  3
   1543   1541   1553   1559     1  0.0000000  0.6508444  3
   1543   1541   1553   1554     1  0.0000000  0.6508444  3
   1543   1541   1553   1555     1  0.0000000  0.6508444  3
   1544   1547   1556   1557     1  0.0000000  0.6508444  3
   1544   1547   1556   1558     1  0.0000000  0.6508444  3
   1545   1544   1547   1556     1  0.0000000  0.6508444  3
   1545   1544   1547   1548     1  0.0000000  0.6508444  3
   1545   1544   1547   1549     1  0.0000000  0.6508444  3
   1546   1544   1547   1556     1  0.0000000  0.6508444  3
   1546   1544   1547   1548     1  0.0000000  0.6508444  3
   1546   1544   1547   1549     1  0.0000000  0.6508444  3
   1548   1547   1556   1565     1  0.0000000  1.0460000  1
   1548   1547   1556   1565     1  0.0000000  0.0000000  3
   1548   1547   1556   1557     1  0.0000000  0.6508444  3
   1548   1547   1556   1558     1  0.0000000  0.6508444  3
   1549   1547   1556   1565     1  0.0000000  1.0460000  1
   1549   1547   1556   1565     1  0.0000000  0.0000000  3
   1549   1547   1556   1557     1  0.0000000  0.6508444  3
   1549   1547   1556   1558     1  0.0000000  0.6508444  3
   1551   1550   1562   3189     1  0.0000000  1.0460000  1
   1551   1550   1562   3189     1  0.0000000  0.0000000  3
   1551   1550   1562   1563     1  0.0000000  0.6508444  3
   1551   1550   1562   1564     1  0.0000000  0.6508444  3
   1552   1550   1562   3189     1  0.0000000  1.0460000  1
   1552   1550   1562   3189     1  0.0000000  0.0000000  3
   1552   1550   1562   1563     1  0.0000000  0.6508444  3
   1552   1550   1562   1564     1  0.0000000  0.6508444  3
   1554   1553   1559   3160     1  0.0000000  1.0460000  1
   1554   1553   1559   3160     1  0.0000000  0.0000000  3
   1554   1553   1559   1560     1  0.0000000  0.6508444  3
   1554   1553   1559   1561     1  0.0000000  0.6508444  3
   1555   1553   1559   3160     1  0.0000000  1.0460000  1
   1555   1553   1559   3160     1  0.0000000  0.0000000  3
   1555   1553   1559   1560     1  0.0000000  0.6508444  3
   1555   1553   1559   1561     1  0.0000000  0.6508444  3
   1559   3160   3151   3152     1  0.0000000  1.6038667  3
   1559   3160   3151   3153     1  0.0000000  1.6038667  3
   1560   1559   3160   3151     1  0.0000000  1.6038667  3
   1561   1559   3160   3151     1  0.0000000  1.6038667  3
   1562   3189   3180   3181     1  0.0000000  1.6038667  3
   1562   3189   3180   3182     1  0.0000000  1.6038667  3
   1563   1562   3189   3180     1  0.0000000  1.6038667  3
   1564   1562   3189   3180     1  0.0000000  1.6038667  3
   1566   1567   1579   1580     1  0.0000000  0.6508444  3
   1566   1567   1579   1581     1  0.0000000  0.6508444  3
   1566   1570   1582   1583     1  0.0000000  0.6508444  3
   1566   1570   1582   1584     1  0.0000000  0.6508444  3
   1566   1573   1576   1577     1  0.0000000  0.6508444  3
   1566   1573   1576   1578     1  0.0000000  0.6508444  3
   1567   1566   1570   1571     1  0.0000000  1.2552000  3
   1567   1566   1570   1572     1  0.0000000  1.2552000  3
   1567   1566   1573   1574     1  0.0000000  1.2552000  3
   1567   1566   1573   1575     1  0.0000000  1.2552000  3
   1567   1579   1591   1592     1  0.0000000  0.6508444  3
   1567   1579   1591   1593     1  0.0000000  0.6508444  3
   1568   1567   1566   1570     1  0.0000000  1.2552000  3
   1568   1567   1566   1573     1  0.0000000  1.2552000  3
   1568   1567   1579   1591     1  0.0000000  0.6508444  3
   1568   1567   1579   1580     1  0.0000000  0.6508444  3
   1568   1567   1579   1581     1  0.0000000  0.6508444  3
   1569   1567   1566   1570     1  0.0000000  1.2552000  3
   1569   1567   1566   1573     1  0.0000000  1.2552000  3
   1569   1567   1579   1591     1  0.0000000  0.6508444  3
   1569   1567   1579   1580     1  0.0000000  0.6508444  3
   1569   1567   1579   1581     1  0.0000000  0.6508444  3
   1570   1566   1573   1574     1  0.0000000  1.2552000  3
   1570   1566   1573   1575     1  0.0000000  1.2552000  3
   1570   1582   1588   1589     1  0.0000000  0.6508444  3
   1570   1582   1588   1590     1  0.0000000  0.6508444  3
   1571   1570   1566   1573     1  0.0000000  1.2552000  3
   1571   1570   1582   1588     1  0.0000000  0.6508444  3
   1571   1570   1582   1583     1  0.0000000  0.6508444  3
   1571   1570   1582   1584     1  0.0000000  0.6508444  3
   1572   1570   1566   1573     1  0.0000000  1.2552000  3
   1572   1570   1582   1588     1  0.0000000  0.6508444  3
   1572   1570   1582   1583     1  0.0000000  0.6508444  3
   1572   1570   1582   1584     1  0.0000000  0.6508444  3
   1573   1576   1585   1586     1  0.0000000  0.6508444  3
   1573   1576   1585   1587     1  0.0000000  0.6508444  3
   1574   1573   1576   1585     1  0.0000000  0.6508444  3
   1574   1573   1576   1577     1  0.0000000  0.6508444  3
   1574   1573   1576   1578     1  0.0000000  0.6508444  3
   1575   1573   1576   1585     1  0.0000000  0.6508444  3
   1575   1573   1576   1577     1  0.0000000  0.6508444  3
   1575   1573   1576   1578     1  0.0000000  0.6508444  3
   1577   1576   1585   1594     1  0.0000000  1.0460000  1
   1577   1576   1585   1594     1  0.0000000  0.0000000  3
   1577   1576   1585   1586     1  0.0000000  0.6508444  3
   1577   1576   1585   1587     1  0.0000000  0.6508444  3
   1578   1576   1585   1594     1  0.0000000  1.0460000  1
   1578   1576   1585   1594     1  0.0000000  0.0000000  3
   1578   1576   1585   1586     1  0.0000000  0.6508444  3
   1578   1576   1585   1587     1  0.0000000  0.6508444  3
   1580   1579   1591   3247     1  0.0000000  1.0460000  1
   1580   1579   1591   3247     1  0.0000000  0.0000000  3
   1580   1579   1591   1592     1  0.0000000  0.6508444  3
   1580   1579   1591   1593     1  0.0000000  0.6508444  3
   1581   1579   1591   3247     1  0.0000000  1.0460000  1
   1581   1579   1591   3247     1  0.0000000  0.0000000  3
   1581   1579   1591   1592     1  0.0000000  0.6508444  3
   1581   1579   1591   1593     1  0.0000000  0.6508444  3
   1583   1582   1588   3218     1  0.0000000  1.0460000  1
   1583   1582   1588   3218     1  0.0000000  0.0000000  3
   1583   1582   1588   1589     1  0.0000000  0.6508444  3
   1583   1582   1588   1590     1  0.0000000  0.6508444  3
   1584   1582   1588   3218     1  0.0000000  1.0460000  1
   1584   1582   1588   3218     1  0.0000000  0.0000000  3
   1584   1582   1588   1589     1  0.0000000  0.6508444  3
   1584   1582   1588   1590     1  0.0000000  0.6508444  3
   1588   3218   3209   3210     1  0.0000000  1.6038667  3
   1588   3218   3209   3211     1  0.0000000  1.6038667  3
   1589   1588   3218   3209     1  0.0000000  1.6038667  3
   1590   1588   3218   3209     1  0.0000000  1.6038667  3
   1591   3247   3238   3239     1  0.0000000  1.6038667  3
   1591   3247   3238   3240     1  0.0000000  1.6038667  3
   1592   1591   3247   3238     1  0.0000000  1.6038667  3
   1593   1591   3247   3238     1  0.0000000  1.6038667  3
   1595   1596   1608   1609     1  0.0000000  0.6508444  3
   1595   1596   1608   1610     1  0.0000000  0.6508444  3
   1595   1599   1611   1612     1  0.0000000  0.6508444  3
   1595   1599   1611   1613     1  0.0000000  0.6508444  3
   1595   1602   1605   1606     1  0.0000000  0.6508444  3
   1595   1602   1605   1607     1  0.0000000  0.6508444  3
   1596   1595   1599   1600     1  0.0000000  1.2552000  3
   1596   1595   1599   1601     1  0.0000000  1.2552000  3
   1596   1595   1602   1603     1  0.0000000  1.2552000  3
   1596   1595   1602   1604     1  0.0000000  1.2552000  3
   1596   1608   1620   1621     1  0.0000000  0.6508444  3
   1596   1608   1620   1622     1  0.0000000  0.6508444  3
   1597   1596   1595   1599     1  0.0000000  1.2552000  3
   1597   1596   1595   1602     1  0.0000000  1.2552000  3
   1597   1596   1608   1620     1  0.0000000  0.6508444  3
   1597   1596   1608   1609     1  0.0000000  0.6508444  3
   1597   1596   1608   1610     1  0.0000000  0.6508444  3
   1598   1596   1595   1599     1  0.0000000  1.2552000  3
   1598   1596   1595   1602     1  0.0000000  1.2552000  3
   1598   1596   1608   1620     1  0.0000000  0.6508444  3
   1598   1596   1608   1609     1  0.0000000  0.6508444  3
   1598   1596   1608   1610     1  0.0000000  0.6508444  3
   1599   1595   1602   1603     1  0.0000000  1.2552000  3
   1599   1595   1602   1604     1  0.0000000  1.2552000  3
   1599   1611   1617   1618     1  0.0000000  0.6508444  3
   1599   1611   1617   1619     1  0.0000000  0.6508444  3
   1600   1599   1595   1602     1  0.0000000  1.2552000  3
   1600   1599   1611   1617     1  0.0000000  0.6508444  3
   1600   1599   1611   1612     1  0.0000000  0.6508444  3
   1600   1599   1611   1613     1  0.0000000  0.6508444  3
   1601   1599   1595   1602     1  0.0000000  1.2552000  3
   1601   1599   1611   1617     1  0.0000000  0.6508444  3
   1601   1599   1611   1612     1  0.0000000  0.6508444  3
   1601   1599   1611   1613     1  0.0000000  0.6508444  3
   1602   1605   1614   1615     1  0.0000000  0.6508444  3
   1602   1605   1614   1616     1  0.0000000  0.6508444  3
   1603   1602   1605   1614     1  0.0000000  0.6508444  3
   1603   1602   1605   1606     1  0.0000000  0.6508444  3
   1603   1602   1605   1607     1  0.0000000  0.6508444  3
   1604   1602   1605   1614     1  0.0000000  0.6508444  3
   1604   1602   1605   1606     1  0.0000000  0.6508444  3
   1604   1602   1605   1607     1  0.0000000  0.6508444  3
   1606   1605   1614   1623     1  0.0000000  1.0460000  1
   1606   1605   1614   1623     1  0.0000000  0.0000000  3
   1606   1605   1614   1615     1  0.0000000  0.6508444  3
   1606   1605   1614   1616     1  0.0000000  0.6508444  3
   1607   1605   1614   1623     1  0.0000000  1.0460000  1
   1607   1605   1614   1623     1  0.0000000  0.0000000  3
   1607   1605   1614   1615     1  0.0000000  0.6508444  3
   1607   1605   1614   1616     1  0.0000000  0.6508444  3
   1609   1608   1620   3305     1  0.0000000  1.0460000  1
   1609   1608   1620   3305     1  0.0000000  0.0000000  3
   1609   1608   1620   1621     1  0.0000000  0.6508444  3
   1609   1608   1620   1622     1  0.0000000  0.6508444  3
   1610   1608   1620   3305     1  0.0000000  1.0460000  1
   1610   1608   1620   3305     1  0.0000000  0.0000000  3
   1610   1608   1620   1621     1  0.0000000  0.6508444  3
   1610   1608   1620   1622     1  0.0000000  0.6508444  3
   1612   1611   1617   3276     1  0.0000000  1.0460000  1
   1612   1611   1617   3276     1  0.0000000  0.0000000  3
   1612   1611   1617   1618     1  0.0000000  0.6508444  3
   1612   1611   1617   1619     1  0.0000000  0.6508444  3
   1613   1611   1617   3276     1  0.0000000  1.0460000  1
   1613   1611   1617   3276     1  0.0000000  0.0000000  3
   1613   1611   1617   1618     1  0.0000000  0.6508444  3
   1613   1611   1617   1619     1  0.0000000  0.6508444  3
   1617   3276   3267   3268     1  0.0000000  1.6038667  3
   1617   3276   3267   3269     1  0.0000000  1.6038667  3
   1618   1617   3276   3267     1  0.0000000  1.6038667  3
   1619   1617   3276   3267     1  0.0000000  1.6038667  3
   1620   3305   3296   3297     1  0.0000000  1.6038667  3
   1620   3305   3296   3298     1  0.0000000  1.6038667  3
   1621   1620   3305   3296     1  0.0000000  1.6038667  3
   1622   1620   3305   3296     1  0.0000000  1.6038667  3
   1624   1625   1637   1638     1  0.0000000  0.6508444  3
   1624   1625   1637   1639     1  0.0000000  0.6508444  3
   1624   1628   1640   1641     1  0.0000000  0.6508444  3
   1624   1628   1640   1642     1  0.0000000  0.6508444  3
   1624   1631   1634   1635     1  0.0000000  0.6508444  3
   1624   1631   1634   1636     1  0.0000000  0.6508444  3
   1625   1624   1628   1629     1  0.0000000  1.2552000  3
   1625   1624   1628   1630     1  0.0000000  1.2552000  3
   1625   1624   1631   1632     1  0.0000000  1.2552000  3
   1625   1624   1631   1633     1  0.0000000  1.2552000  3
   1625   1637   1649   1650     1  0.0000000  0.6508444  3
   1625   1637   1649   1651     1  0.0000000  0.6508444  3
   1626   1625   1624   1628     1  0.0000000  1.2552000  3
   1626   1625   1624   1631     1  0.0000000  1.2552000  3
   1626   1625   1637   1649     1  0.0000000  0.6508444  3
   1626   1625   1637   1638     1  0.0000000  0.6508444  3
   1626   1625   1637   1639     1  0.0000000  0.6508444  3
   1627   1625   1624   1628     1  0.0000000  1.2552000  3
   1627   1625   1624   1631     1  0.0000000  1.2552000  3
   1627   1625   1637   1649     1  0.0000000  0.6508444  3
   1627   1625   1637   1638     1  0.0000000  0.6508444  3
   1627   1625   1637   1639     1  0.0000000  0.6508444  3
   1628   1624   1631   1632     1  0.0000000  1.2552000  3
   1628   1624   1631   1633     1  0.0000000  1.2552000  3
   1628   1640   1646   1647     1  0.0000000  0.6508444  3
   1628   1640   1646   1648     1  0.0000000  0.6508444  3
   1629   1628   1624   1631     1  0.0000000  1.2552000  3
   1629   1628   1640   1646     1  0.0000000  0.6508444  3
   1629   1628   1640   1641     1  0.0000000  0.6508444  3
   1629   1628   1640   1642     1  0.0000000  0.6508444  3
   1630   1628   1624   1631     1  0.0000000  1.2552000  3
   1630   1628   1640   1646     1  0.0000000  0.6508444  3
   1630   1628   1640   1641     1  0.0000000  0.6508444  3
   1630   1628   1640   1642     1  0.0000000  0.6508444  3
   1631   1634   1643   1644     1  0.0000000  0.6508444  3
   1631   1634   1643   1645     1  0.0000000  0.6508444  3
   1632   1631   1634   1643     1  0.0000000  0.6508444  3
   1632   1631   1634   1635     1  0.0000000  0.6508444  3
   1632   1631   1634   1636     1  0.0000000  0.6508444  3
   1633   1631   1634   1643     1  0.0000000  0.6508444  3
   1633   1631   1634   1635     1  0.0000000  0.6508444  3
   1633   1631   1634   1636     1  0.0000000  0.6508444  3
   1635   1634   1643   1652     1  0.0000000  1.0460000  1
   1635   1634   1643   1652     1  0.0000000  0.0000000  3
   1635   1634   1643   1644     1  0.0000000  0.6508444  3
   1635   1634   1643   1645     1  0.0000000  0.6508444  3
   1636   1634   1643   1652     1  0.0000000  1.0460000  1
   1636   1634   1643   1652     1  0.0000000  0.0000000  3
   1636   1634   1643   1644     1  0.0000000  0.6508444  3
   1636   1634   1643   1645     1  0.0000000  0.6508444  3
   1638   1637   1649   3363     1  0.0000000  1.0460000  1
   1638   1637   1649   3363     1  0.0000000  0.0000000  3
   1638   1637   1649   1650     1  0.0000000  0.6508444  3
   1638   1637   1649   1651     1  0.0000000  0.6508444  3
   1639   1637   1649   3363     1  0.0000000  1.0460000  1
   1639   1637   1649   3363     1  0.0000000  0.0000000  3
   1639   1637   1649   1650     1  0.0000000  0.6508444  3
   1639   1637   1649   1651     1  0.0000000  0.6508444  3
   1641   1640   1646   3334     1  0.0000000  1.0460000  1
   1641   1640   1646   3334     1  0.0000000  0.0000000  3
   1641   1640   1646   1647     1  0.0000000  0.6508444  3
   1641   1640   1646   1648     1  0.0000000  0.6508444  3
   1642   1640   1646   3334     1  0.0000000  1.0460000  1
   1642   1640   1646   3334     1  0.0000000  0.0000000  3
   1642   1640   1646   1647     1  0.0000000  0.6508444  3
   1642   1640   1646   1648     1  0.0000000  0.6508444  3
   1646   3334   3325   3326     1  0.0000000  1.6038667  3
   1646   3334   3325   3327     1  0.0000000  1.6038667  3
   1647   1646   3334   3325     1  0.0000000  1.6038667  3
   1648   1646   3334   3325     1  0.0000000  1.6038667  3
   1649   3363   3354   3355     1  0.0000000  1.6038667  3
   1649   3363   3354   3356     1  0.0000000  1.6038667  3
   1650   1649   3363   3354     1  0.0000000  1.6038667  3
   1651   1649   3363   3354     1  0.0000000  1.6038667  3
   1653   1654   1666   1667     1  0.0000000  0.6508444  3
   1653   1654   1666   1668     1  0.0000000  0.6508444  3
   1653   1657   1669   1670     1  0.0000000  0.6508444  3
   1653   1657   1669   1671     1  0.0000000  0.6508444  3
   1653   1660   1663   1664     1  0.0000000  0.6508444  3
   1653   1660   1663   1665     1  0.0000000  0.6508444  3
   1654   1653   1657   1658     1  0.0000000  1.2552000  3
   1654   1653   1657   1659     1  0.0000000  1.2552000  3
   1654   1653   1660   1661     1  0.0000000  1.2552000  3
   1654   1653   1660   1662     1  0.0000000  1.2552000  3
   1654   1666   1678   1679     1  0.0000000  0.6508444  3
   1654   1666   1678   1680     1  0.0000000  0.6508444  3
   1655   1654   1653   1657     1  0.0000000  1.2552000  3
   1655   1654   1653   1660     1  0.0000000  1.2552000  3
   1655   1654   1666   1678     1  0.0000000  0.6508444  3
   1655   1654   1666   1667     1  0.0000000  0.6508444  3
   1655   1654   1666   1668     1  0.0000000  0.6508444  3
   1656   1654   1653   1657     1  0.0000000  1.2552000  3
   1656   1654   1653   1660     1  0.0000000  1.2552000  3
   1656   1654   1666   1678     1  0.0000000  0.6508444  3
   1656   1654   1666   1667     1  0.0000000  0.6508444  3
   1656   1654   1666   1668     1  0.0000000  0.6508444  3
   1657   1653   1660   1661     1  0.0000000  1.2552000  3
   1657   1653   1660   1662     1  0.0000000  1.2552000  3
   1657   1669   1675   1676     1  0.0000000  0.6508444  3
   1657   1669   1675   1677     1  0.0000000  0.6508444  3
   1658   1657   1653   1660     1  0.0000000  1.2552000  3
   1658   1657   1669   1675     1  0.0000000  0.6508444  3
   1658   1657   1669   1670     1  0.0000000  0.6508444  3
   1658   1657   1669   1671     1  0.0000000  0.6508444  3
   1659   1657   1653   1660     1  0.0000000  1.2552000  3
   1659   1657   1669   1675     1  0.0000000  0.6508444  3
   1659   1657   1669   1670     1  0.0000000  0.6508444  3
   1659   1657   1669   1671     1  0.0000000  0.6508444  3
   1660   1663   1672   1673     1  0.0000000  0.6508444  3
   1660   1663   1672   1674     1  0.0000000  0.6508444  3
   1661   1660   1663   1672     1  0.0000000  0.6508444  3
   1661   1660   1663   1664     1  0.0000000  0.6508444  3
   1661   1660   1663   1665     1  0.0000000  0.6508444  3
   1662   1660   1663   1672     1  0.0000000  0.6508444  3
   1662   1660   1663   1664     1  0.0000000  0.6508444  3
   1662   1660   1663   1665     1  0.0000000  0.6508444  3
   1664   1663   1672   1681     1  0.0000000  1.0460000  1
   1664   1663   1672   1681     1  0.0000000  0.0000000  3
   1664   1663   1672   1673     1  0.0000000  0.6508444  3
   1664   1663   1672   1674     1  0.0000000  0.6508444  3
   1665   1663   1672   1681     1  0.0000000  1.0460000  1
   1665   1663   1672   1681     1  0.0000000  0.0000000  3
   1665   1663   1672   1673     1  0.0000000  0.6508444  3
   1665   1663   1672   1674     1  0.0000000  0.6508444  3
   1667   1666   1678   3421     1  0.0000000  1.0460000  1
   1667   1666   1678   3421     1  0.0000000  0.0000000  3
   1667   1666   1678   1679     1  0.0000000  0.6508444  3
   1667   1666   1678   1680     1  0.0000000  0.6508444  3
   1668   1666   1678   3421     1  0.0000000  1.0460000  1
   1668   1666   1678   3421     1  0.0000000  0.0000000  3
   1668   1666   1678   1679     1  0.0000000  0.6508444  3
   1668   1666   1678   1680     1  0.0000000  0.6508444  3
   1670   1669   1675   3392     1  0.0000000  1.0460000  1
   1670   1669   1675   3392     1  0.0000000  0.0000000  3
   1670   1669   1675   1676     1  0.0000000  0.6508444  3
   1670   1669   1675   1677     1  0.0000000  0.6508444  3
   1671   1669   1675   3392     1  0.0000000  1.0460000  1
   1671   1669   1675   3392     1  0.0000000  0.0000000  3
   1671   1669   1675   1676     1  0.0000000  0.6508444  3
   1671   1669   1675   1677     1  0.0000000  0.6508444  3
   1675   3392   3383   3384     1  0.0000000  1.6038667  3
   1675   3392   3383   3385     1  0.0000000  1.6038667  3
   1676   1675   3392   3383     1  0.0000000  1.6038667  3
   1677   1675   3392   3383     1  0.0000000  1.6038667  3
   1678   3421   3412   3413     1  0.0000000  1.6038667  3
   1678   3421   3412   3414     1  0.0000000  1.6038667  3
   1679   1678   3421   3412     1  0.0000000  1.6038667  3
   1680   1678   3421   3412     1  0.0000000  1.6038667  3
   1682   1683   1695   1696     1  0.0000000  0.6508444  3
   1682   1683   1695   1697     1  0.0000000  0.6508444  3
   1682   1686   1698   1699     1  0.0000000  0.6508444  3
   1682   1686   1698   1700     1  0.0000000  0.6508444  3
   1682   1689   1692   1693     1  0.0000000  0.6508444  3
   1682   1689   1692   1694     1  0.0000000  0.6508444  3
   1683   1682   1686   1687     1  0.0000000  1.2552000  3
   1683   1682   1686   1688     1  0.0000000  1.2552000  3
   1683   1682   1689   1690     1  0.0000000  1.2552000  3
   1683   1682   1689   1691     1  0.0000000  1.2552000  3
   1683   1695   1707   1708     1  0.0000000  0.6508444  3
   1683   1695   1707   1709     1  0.0000000  0.6508444  3
   1684   1683   1682   1686     1  0.0000000  1.2552000  3
   1684   1683   1682   1689     1  0.0000000  1.2552000  3
   1684   1683   1695   1707     1  0.0000000  0.6508444  3
   1684   1683   1695   1696     1  0.0000000  0.6508444  3
   1684   1683   1695   1697     1  0.0000000  0.6508444  3
   1685   1683   1682   1686     1  0.0000000  1.2552000  3
   1685   1683   1682   1689     1  0.0000000  1.2552000  3
   1685   1683   1695   1707     1  0.0000000  0.6508444  3
   1685   1683   1695   1696     1  0.0000000  0.6508444  3
   1685   1683   1695   1697     1  0.0000000  0.6508444  3
   1686   1682   1689   1690     1  0.0000000  1.2552000  3
   1686   1682   1689   1691     1  0.0000000  1.2552000  3
   1686   1698   1704   1705     1  0.0000000  0.6508444  3
   1686   1698   1704   1706     1  0.0000000  0.6508444  3
   1687   1686   1682   1689     1  0.0000000  1.2552000  3
   1687   1686   1698   1704     1  0.0000000  0.6508444  3
   1687   1686   1698   1699     1  0.0000000  0.6508444  3
   1687   1686   1698   1700     1  0.0000000  0.6508444  3
   1688   1686   1682   1689     1  0.0000000  1.2552000  3
   1688   1686   1698   1704     1  0.0000000  0.6508444  3
   1688   1686   1698   1699     1  0.0000000  0.6508444  3
   1688   1686   1698   1700     1  0.0000000  0.6508444  3
   1689   1692   1701   1702     1  0.0000000  0.6508444  3
   1689   1692   1701   1703     1  0.0000000  0.6508444  3
   1690   1689   1692   1701     1  0.0000000  0.6508444  3
   1690   1689   1692   1693     1  0.0000000  0.6508444  3
   1690   1689   1692   1694     1  0.0000000  0.6508444  3
   1691   1689   1692   1701     1  0.0000000  0.6508444  3
   1691   1689   1692   1693     1  0.0000000  0.6508444  3
   1691   1689   1692   1694     1  0.0000000  0.6508444  3
   1693   1692   1701   1710     1  0.0000000  1.0460000  1
   1693   1692   1701   1710     1  0.0000000  0.0000000  3
   1693   1692   1701   1702     1  0.0000000  0.6508444  3
   1693   1692   1701   1703     1  0.0000000  0.6508444  3
   1694   1692   1701   1710     1  0.0000000  1.0460000  1
   1694   1692   1701   1710     1  0.0000000  0.0000000  3
   1694   1692   1701   1702     1  0.0000000  0.6508444  3
   1694   1692   1701   1703     1  0.0000000  0.6508444  3
   1696   1695   1707   3479     1  0.0000000  1.0460000  1
   1696   1695   1707   3479     1  0.0000000  0.0000000  3
   1696   1695   1707   1708     1  0.0000000  0.6508444  3
   1696   1695   1707   1709     1  0.0000000  0.6508444  3
   1697   1695   1707   3479     1  0.0000000  1.0460000  1
   1697   1695   1707   3479     1  0.0000000  0.0000000  3
   1697   1695   1707   1708     1  0.0000000  0.6508444  3
   1697   1695   1707   1709     1  0.0000000  0.6508444  3
   1699   1698   1704   3450     1  0.0000000  1.0460000  1
   1699   1698   1704   3450     1  0.0000000  0.0000000  3
   1699   1698   1704   1705     1  0.0000000  0.6508444  3
   1699   1698   1704   1706     1  0.0000000  0.6508444  3
   1700   1698   1704   3450     1  0.0000000  1.0460000  1
   1700   1698   1704   3450     1  0.0000000  0.0000000  3
   1700   1698   1704   1705     1  0.0000000  0.6508444  3
   1700   1698   1704   1706     1  0.0000000  0.6508444  3
   1704   3450   3441   3442     1  0.0000000  1.6038667  3
   1704   3450   3441   3443     1  0.0000000  1.6038667  3
   1705   1704   3450   3441     1  0.0000000  1.6038667  3
   1706   1704   3450   3441     1  0.0000000  1.6038667  3
   1707   3479   3470   3471     1  0.0000000  1.6038667  3
   1707   3479   3470   3472     1  0.0000000  1.6038667  3
   1708   1707   3479   3470     1  0.0000000  1.6038667  3
   1709   1707   3479   3470     1  0.0000000  1.6038667  3
   1711   1712   1724   1725     1  0.0000000  0.6508444  3
   1711   1712   1724   1726     1  0.0000000  0.6508444  3
   1711   1715   1727   1728     1  0.0000000  0.6508444  3
   1711   1715   1727   1729     1  0.0000000  0.6508444  3
   1711   1718   1721   1722     1  0.0000000  0.6508444  3
   1711   1718   1721   1723     1  0.0000000  0.6508444  3
   1712   1711   1715   1716     1  0.0000000  1.2552000  3
   1712   1711   1715   1717     1  0.0000000  1.2552000  3
   1712   1711   1718   1719     1  0.0000000  1.2552000  3
   1712   1711   1718   1720     1  0.0000000  1.2552000  3
   1712   1724   1736   1737     1  0.0000000  0.6508444  3
   1712   1724   1736   1738     1  0.0000000  0.6508444  3
   1713   1712   1711   1715     1  0.0000000  1.2552000  3
   1713   1712   1711   1718     1  0.0000000  1.2552000  3
   1713   1712   1724   1736     1  0.0000000  0.6508444  3
   1713   1712   1724   1725     1  0.0000000  0.6508444  3
   1713   1712   1724   1726     1  0.0000000  0.6508444  3
   1714   1712   1711   1715     1  0.0000000  1.2552000  3
   1714   1712   1711   1718     1  0.0000000  1.2552000  3
   1714   1712   1724   1736     1  0.0000000  0.6508444  3
   1714   1712   1724   1725     1  0.0000000  0.6508444  3
   1714   1712   1724   1726     1  0.0000000  0.6508444  3
   1715   1711   1718   1719     1  0.0000000  1.2552000  3
   1715   1711   1718   1720     1  0.0000000  1.2552000  3
   1715   1727   1733   1734     1  0.0000000  0.6508444  3
   1715   1727   1733   1735     1  0.0000000  0.6508444  3
   1716   1715   1711   1718     1  0.0000000  1.2552000  3
   1716   1715   1727   1733     1  0.0000000  0.6508444  3
   1716   1715   1727   1728     1  0.0000000  0.6508444  3
   1716   1715   1727   1729     1  0.0000000  0.6508444  3
   1717   1715   1711   1718     1  0.0000000  1.2552000  3
   1717   1715   1727   1733     1  0.0000000  0.6508444  3
   1717   1715   1727   1728     1  0.0000000  0.6508444  3
   1717   1715   1727   1729     1  0.0000000  0.6508444  3
   1718   1721   1730   1731     1  0.0000000  0.6508444  3
   1718   1721   1730   1732     1  0.0000000  0.6508444  3
   1719   1718   1721   1730     1  0.0000000  0.6508444  3
   1719   1718   1721   1722     1  0.0000000  0.6508444  3
   1719   1718   1721   1723     1  0.0000000  0.6508444  3
   1720   1718   1721   1730     1  0.0000000  0.6508444  3
   1720   1718   1721   1722     1  0.0000000  0.6508444  3
   1720   1718   1721   1723     1  0.0000000  0.6508444  3
   1722   1721   1730   1739     1  0.0000000  1.0460000  1
   1722   1721   1730   1739     1  0.0000000  0.0000000  3
   1722   1721   1730   1731     1  0.0000000  0.6508444  3
   1722   1721   1730   1732     1  0.0000000  0.6508444  3
   1723   1721   1730   1739     1  0.0000000  1.0460000  1
   1723   1721   1730   1739     1  0.0000000  0.0000000  3
   1723   1721   1730   1731     1  0.0000000  0.6508444  3
   1723   1721   1730   1732     1  0.0000000  0.6508444  3
   1725   1724   1736   3537     1  0.0000000  1.0460000  1
   1725   1724   1736   3537     1  0.0000000  0.0000000  3
   1725   1724   1736   1737     1  0.0000000  0.6508444  3
   1725   1724   1736   1738     1  0.0000000  0.6508444  3
   1726   1724   1736   3537     1  0.0000000  1.0460000  1
   1726   1724   1736   3537     1  0.0000000  0.0000000  3
   1726   1724   1736   1737     1  0.0000000  0.6508444  3
   1726   1724   1736   1738     1  0.0000000  0.6508444  3
   1728   1727   1733   3508     1  0.0000000  1.0460000  1
   1728   1727   1733   3508     1  0.0000000  0.0000000  3
   1728   1727   1733   1734     1  0.0000000  0.6508444  3
   1728   1727   1733   1735     1  0.0000000  0.6508444  3
   1729   1727   1733   3508     1  0.0000000  1.0460000  1
   1729   1727   1733   3508     1  0.0000000  0.0000000  3
   1729   1727   1733   1734     1  0.0000000  0.6508444  3
   1729   1727   1733   1735     1  0.0000000  0.6508444  3
   1733   3508   3499   3500     1  0.0000000  1.6038667  3
   1733   3508   3499   3501     1  0.0000000  1.6038667  3
   1734   1733   3508   3499     1  0.0000000  1.6038667  3
   1735   1733   3508   3499     1  0.0000000  1.6038667  3
   1736   3537   3528   3529     1  0.0000000  1.6038667  3
   1736   3537   3528   3530     1  0.0000000  1.6038667  3
   1737   1736   3537   3528     1  0.0000000  1.6038667  3
   1738   1736   3537   3528     1  0.0000000  1.6038667  3
   1740   1741   1753   1754     1  0.0000000  0.6508444  3
   1740   1741   1753   1755     1  0.0000000  0.6508444  3
   1740   1744   1756   1757     1  0.0000000  0.6508444  3
   1740   1744   1756   1758     1  0.0000000  0.6508444  3
   1740   1747   1750   1751     1  0.0000000  0.6508444  3
   1740   1747   1750   1752     1  0.0000000  0.6508444  3
   1741   1740   1744   1745     1  0.0000000  1.2552000  3
   1741   1740   1744   1746     1  0.0000000  1.2552000  3
   1741   1740   1747   1748     1  0.0000000  1.2552000  3
   1741   1740   1747   1749     1  0.0000000  1.2552000  3
   1741   1753   1765   1766     1  0.0000000  0.6508444  3
   1741   1753   1765   1767     1  0.0000000  0.6508444  3
   1742   1741   1740   1744     1  0.0000000  1.2552000  3
   1742   1741   1740   1747     1  0.0000000  1.2552000  3
   1742   1741   1753   1765     1  0.0000000  0.6508444  3
   1742   1741   1753   1754     1  0.0000000  0.6508444  3
   1742   1741   1753   1755     1  0.0000000  0.6508444  3
   1743   1741   1740   1744     1  0.0000000  1.2552000  3
   1743   1741   1740   1747     1  0.0000000  1.2552000  3
   1743   1741   1753   1765     1  0.0000000  0.6508444  3
   1743   1741   1753   1754     1  0.0000000  0.6508444  3
   1743   1741   1753   1755     1  0.0000000  0.6508444  3
   1744   1740   1747   1748     1  0.0000000  1.2552000  3
   1744   1740   1747   1749     1  0.0000000  1.2552000  3
   1744   1756   1762   1763     1  0.0000000  0.6508444  3
   1744   1756   1762   1764     1  0.0000000  0.6508444  3
   1745   1744   1740   1747     1  0.0000000  1.2552000  3
   1745   1744   1756   1762     1  0.0000000  0.6508444  3
   1745   1744   1756   1757     1  0.0000000  0.6508444  3
   1745   1744   1756   1758     1  0.0000000  0.6508444  3
   1746   1744   1740   1747     1  0.0000000  1.2552000  3
   1746   1744   1756   1762     1  0.0000000  0.6508444  3
   1746   1744   1756   1757     1  0.0000000  0.6508444  3
   1746   1744   1756   1758     1  0.0000000  0.6508444  3
   1747   1750   1759   1760     1  0.0000000  0.6508444  3
   1747   1750   1759   1761     1  0.0000000  0.6508444  3
   1748   1747   1750   1759     1  0.0000000  0.6508444  3
   1748   1747   1750   1751     1  0.0000000  0.6508444  3
   1748   1747   1750   1752     1  0.0000000  0.6508444  3
   1749   1747   1750   1759     1  0.0000000  0.6508444  3
   1749   1747   1750   1751     1  0.0000000  0.6508444  3
   1749   1747   1750   1752     1  0.0000000  0.6508444  3
   1751   1750   1759   1768     1  0.0000000  1.0460000  1
   1751   1750   1759   1768     1  0.0000000  0.0000000  3
   1751   1750   1759   1760     1  0.0000000  0.6508444  3
   1751   1750   1759   1761     1  0.0000000  0.6508444  3
   1752   1750   1759   1768     1  0.0000000  1.0460000  1
   1752   1750   1759   1768     1  0.0000000  0.0000000  3
   1752   1750   1759   1760     1  0.0000000  0.6508444  3
   1752   1750   1759   1761     1  0.0000000  0.6508444  3
   1754   1753   1765   3595     1  0.0000000  1.0460000  1
   1754   1753   1765   3595     1  0.0000000  0.0000000  3
   1754   1753   1765   1766     1  0.0000000  0.6508444  3
   1754   1753   1765   1767     1  0.0000000  0.6508444  3
   1755   1753   1765   3595     1  0.0000000  1.0460000  1
   1755   1753   1765   3595     1  0.0000000  0.0000000  3
   1755   1753   1765   1766     1  0.0000000  0.6508444  3
   1755   1753   1765   1767     1  0.0000000  0.6508444  3
   1757   1756   1762   3566     1  0.0000000  1.0460000  1
   1757   1756   1762   3566     1  0.0000000  0.0000000  3
   1757   1756   1762   1763     1  0.0000000  0.6508444  3
   1757   1756   1762   1764     1  0.0000000  0.6508444  3
   1758   1756   1762   3566     1  0.0000000  1.0460000  1
   1758   1756   1762   3566     1  0.0000000  0.0000000  3
   1758   1756   1762   1763     1  0.0000000  0.6508444  3
   1758   1756   1762   1764     1  0.0000000  0.6508444  3
   1762   3566   3557   3558     1  0.0000000  1.6038667  3
   1762   3566   3557   3559     1  0.0000000  1.6038667  3
   1763   1762   3566   3557     1  0.0000000  1.6038667  3
   1764   1762   3566   3557     1  0.0000000  1.6038667  3
   1765   3595   3586   3587     1  0.0000000  1.6038667  3
   1765   3595   3586   3588     1  0.0000000  1.6038667  3
   1766   1765   3595   3586     1  0.0000000  1.6038667  3
   1767   1765   3595   3586     1  0.0000000  1.6038667  3
   1769   1770   1782   1783     1  0.0000000  0.6508444  3
   1769   1770   1782   1784     1  0.0000000  0.6508444  3
   1769   1773   1785   1786     1  0.0000000  0.6508444  3
   1769   1773   1785   1787     1  0.0000000  0.6508444  3
   1769   1776   1779   1780     1  0.0000000  0.6508444  3
   1769   1776   1779   1781     1  0.0000000  0.6508444  3
   1770   1769   1773   1774     1  0.0000000  1.2552000  3
   1770   1769   1773   1775     1  0.0000000  1.2552000  3
   1770   1769   1776   1777     1  0.0000000  1.2552000  3
   1770   1769   1776   1778     1  0.0000000  1.2552000  3
   1770   1782   1794   1795     1  0.0000000  0.6508444  3
   1770   1782   1794   1796     1  0.0000000  0.6508444  3
   1771   1770   1769   1773     1  0.0000000  1.2552000  3
   1771   1770   1769   1776     1  0.0000000  1.2552000  3
   1771   1770   1782   1794     1  0.0000000  0.6508444  3
   1771   1770   1782   1783     1  0.0000000  0.6508444  3
   1771   1770   1782   1784     1  0.0000000  0.6508444  3
   1772   1770   1769   1773     1  0.0000000  1.2552000  3
   1772   1770   1769   1776     1  0.0000000  1.2552000  3
   1772   1770   1782   1794     1  0.0000000  0.6508444  3
   1772   1770   1782   1783     1  0.0000000  0.6508444  3
   1772   1770   1782   1784     1  0.0000000  0.6508444  3
   1773   1769   1776   1777     1  0.0000000  1.2552000  3
   1773   1769   1776   1778     1  0.0000000  1.2552000  3
   1773   1785   1791   1792     1  0.0000000  0.6508444  3
   1773   1785   1791   1793     1  0.0000000  0.6508444  3
   1774   1773   1769   1776     1  0.0000000  1.2552000  3
   1774   1773   1785   1791     1  0.0000000  0.6508444  3
   1774   1773   1785   1786     1  0.0000000  0.6508444  3
   1774   1773   1785   1787     1  0.0000000  0.6508444  3
   1775   1773   1769   1776     1  0.0000000  1.2552000  3
   1775   1773   1785   1791     1  0.0000000  0.6508444  3
   1775   1773   1785   1786     1  0.0000000  0.6508444  3
   1775   1773   1785   1787     1  0.0000000  0.6508444  3
   1776   1779   1788   1789     1  0.0000000  0.6508444  3
   1776   1779   1788   1790     1  0.0000000  0.6508444  3
   1777   1776   1779   1788     1  0.0000000  0.6508444  3
   1777   1776   1779   1780     1  0.0000000  0.6508444  3
   1777   1776   1779   1781     1  0.0000000  0.6508444  3
   1778   1776   1779   1788     1  0.0000000  0.6508444  3
   1778   1776   1779   1780     1  0.0000000  0.6508444  3
   1778   1776   1779   1781     1  0.0000000  0.6508444  3
   1780   1779   1788   1797     1  0.0000000  1.0460000  1
   1780   1779   1788   1797     1  0.0000000  0.0000000  3
   1780   1779   1788   1789     1  0.0000000  0.6508444  3
   1780   1779   1788   1790     1  0.0000000  0.6508444  3
   1781   1779   1788   1797     1  0.0000000  1.0460000  1
   1781   1779   1788   1797     1  0.0000000  0.0000000  3
   1781   1779   1788   1789     1  0.0000000  0.6508444  3
   1781   1779   1788   1790     1  0.0000000  0.6508444  3
   1783   1782   1794   3653     1  0.0000000  1.0460000  1
   1783   1782   1794   3653     1  0.0000000  0.0000000  3
   1783   1782   1794   1795     1  0.0000000  0.6508444  3
   1783   1782   1794   1796     1  0.0000000  0.6508444  3
   1784   1782   1794   3653     1  0.0000000  1.0460000  1
   1784   1782   1794   3653     1  0.0000000  0.0000000  3
   1784   1782   1794   1795     1  0.0000000  0.6508444  3
   1784   1782   1794   1796     1  0.0000000  0.6508444  3
   1786   1785   1791   3624     1  0.0000000  1.0460000  1
   1786   1785   1791   3624     1  0.0000000  0.0000000  3
   1786   1785   1791   1792     1  0.0000000  0.6508444  3
   1786   1785   1791   1793     1  0.0000000  0.6508444  3
   1787   1785   1791   3624     1  0.0000000  1.0460000  1
   1787   1785   1791   3624     1  0.0000000  0.0000000  3
   1787   1785   1791   1792     1  0.0000000  0.6508444  3
   1787   1785   1791   1793     1  0.0000000  0.6508444  3
   1791   3624   3615   3616     1  0.0000000  1.6038667  3
   1791   3624   3615   3617     1  0.0000000  1.6038667  3
   1792   1791   3624   3615     1  0.0000000  1.6038667  3
   1793   1791   3624   3615     1  0.0000000  1.6038667  3
   1794   3653   3644   3645     1  0.0000000  1.6038667  3
   1794   3653   3644   3646     1  0.0000000  1.6038667  3
   1795   1794   3653   3644     1  0.0000000  1.6038667  3
   1796   1794   3653   3644     1  0.0000000  1.6038667  3
   1798   1799   1811   1812     1  0.0000000  0.6508444  3
   1798   1799   1811   1813     1  0.0000000  0.6508444  3
   1798   1802   1814   1815     1  0.0000000  0.6508444  3
   1798   1802   1814   1816     1  0.0000000  0.6508444  3
   1798   1805   1808   1809     1  0.0000000  0.6508444  3
   1798   1805   1808   1810     1  0.0000000  0.6508444  3
   1799   1798   1802   1803     1  0.0000000  1.2552000  3
   1799   1798   1802   1804     1  0.0000000  1.2552000  3
   1799   1798   1805   1806     1  0.0000000  1.2552000  3
   1799   1798   1805   1807     1  0.0000000  1.2552000  3
   1799   1811   1823   1824     1  0.0000000  0.6508444  3
   1799   1811   1823   1825     1  0.0000000  0.6508444  3
   1800   1799   1798   1802     1  0.0000000  1.2552000  3
   1800   1799   1798   1805     1  0.0000000  1.2552000  3
   1800   1799   1811   1823     1  0.0000000  0.6508444  3
   1800   1799   1811   1812     1  0.0000000  0.6508444  3
   1800   1799   1811   1813     1  0.0000000  0.6508444  3
   1801   1799   1798   1802     1  0.0000000  1.2552000  3
   1801   1799   1798   1805     1  0.0000000  1.2552000  3
   1801   1799   1811   1823     1  0.0000000  0.6508444  3
   1801   1799   1811   1812     1  0.0000000  0.6508444  3
   1801   1799   1811   1813     1  0.0000000  0.6508444  3
   1802   1798   1805   1806     1  0.0000000  1.2552000  3
   1802   1798   1805   1807     1  0.0000000  1.2552000  3
   1802   1814   1820   1821     1  0.0000000  0.6508444  3
   1802   1814   1820   1822     1  0.0000000  0.6508444  3
   1803   1802   1798   1805     1  0.0000000  1.2552000  3
   1803   1802   1814   1820     1  0.0000000  0.6508444  3
   1803   1802   1814   1815     1  0.0000000  0.6508444  3
   1803   1802   1814   1816     1  0.0000000  0.6508444  3
   1804   1802   1798   1805     1  0.0000000  1.2552000  3
   1804   1802   1814   1820     1  0.0000000  0.6508444  3
   1804   1802   1814   1815     1  0.0000000  0.6508444  3
   1804   1802   1814   1816     1  0.0000000  0.6508444  3
   1805   1808   1817   1818     1  0.0000000  0.6508444  3
   1805   1808   1817   1819     1  0.0000000  0.6508444  3
   1806   1805   1808   1817     1  0.0000000  0.6508444  3
   1806   1805   1808   1809     1  0.0000000  0.6508444  3
   1806   1805   1808   1810     1  0.0000000  0.6508444  3
   1807   1805   1808   1817     1  0.0000000  0.6508444  3
   1807   1805   1808   1809     1  0.0000000  0.6508444  3
   1807   1805   1808   1810     1  0.0000000  0.6508444  3
   1809   1808   1817   1826     1  0.0000000  1.0460000  1
   1809   1808   1817   1826     1  0.0000000  0.0000000  3
   1809   1808   1817   1818     1  0.0000000  0.6508444  3
   1809   1808   1817   1819     1  0.0000000  0.6508444  3
   1810   1808   1817   1826     1  0.0000000  1.0460000  1
   1810   1808   1817   1826     1  0.0000000  0.0000000  3
   1810   1808   1817   1818     1  0.0000000  0.6508444  3
   1810   1808   1817   1819     1  0.0000000  0.6508444  3
   1812   1811   1823   3679     1  0.0000000  1.0460000  1
   1812   1811   1823   3679     1  0.0000000  0.0000000  3
   1812   1811   1823   1824     1  0.0000000  0.6508444  3
   1812   1811   1823   1825     1  0.0000000  0.6508444  3
   1813   1811   1823   3679     1  0.0000000  1.0460000  1
   1813   1811   1823   3679     1  0.0000000  0.0000000  3
   1813   1811   1823   1824     1  0.0000000  0.6508444  3
   1813   1811   1823   1825     1  0.0000000  0.6508444  3
   1815   1814   1820   3666     1  0.0000000  1.0460000  1
   1815   1814   1820   3666     1  0.0000000  0.0000000  3
   1815   1814   1820   1821     1  0.0000000  0.6508444  3
   1815   1814   1820   1822     1  0.0000000  0.6508444  3
   1816   1814   1820   3666     1  0.0000000  1.0460000  1
   1816   1814   1820   3666     1  0.0000000  0.0000000  3
   1816   1814   1820   1821     1  0.0000000  0.6508444  3
   1816   1814   1820   1822     1  0.0000000  0.6508444  3
   1820   3666   3660   3661     1  0.0000000  1.6038667  3
   1820   3666   3660   3662     1  0.0000000  1.6038667  3
   1821   1820   3666   3660     1  0.0000000  1.6038667  3
   1822   1820   3666   3660     1  0.0000000  1.6038667  3
   1823   3679   3673   3674     1  0.0000000  1.6038667  3
   1823   3679   3673   3675     1  0.0000000  1.6038667  3
   1824   1823   3679   3673     1  0.0000000  1.6038667  3
   1825   1823   3679   3673     1  0.0000000  1.6038667  3
   1827   1828   1840   1841     1  0.0000000  0.6508444  3
   1827   1828   1840   1842     1  0.0000000  0.6508444  3
   1827   1831   1843   1844     1  0.0000000  0.6508444  3
   1827   1831   1843   1845     1  0.0000000  0.6508444  3
   1827   1834   1837   1838     1  0.0000000  0.6508444  3
   1827   1834   1837   1839     1  0.0000000  0.6508444  3
   1828   1827   1831   1832     1  0.0000000  1.2552000  3
   1828   1827   1831   1833     1  0.0000000  1.2552000  3
   1828   1827   1834   1835     1  0.0000000  1.2552000  3
   1828   1827   1834   1836     1  0.0000000  1.2552000  3
   1828   1840   1852   1853     1  0.0000000  0.6508444  3
   1828   1840   1852   1854     1  0.0000000  0.6508444  3
   1829   1828   1827   1831     1  0.0000000  1.2552000  3
   1829   1828   1827   1834     1  0.0000000  1.2552000  3
   1829   1828   1840   1852     1  0.0000000  0.6508444  3
   1829   1828   1840   1841     1  0.0000000  0.6508444  3
   1829   1828   1840   1842     1  0.0000000  0.6508444  3
   1830   1828   1827   1831     1  0.0000000  1.2552000  3
   1830   1828   1827   1834     1  0.0000000  1.2552000  3
   1830   1828   1840   1852     1  0.0000000  0.6508444  3
   1830   1828   1840   1841     1  0.0000000  0.6508444  3
   1830   1828   1840   1842     1  0.0000000  0.6508444  3
   1831   1827   1834   1835     1  0.0000000  1.2552000  3
   1831   1827   1834   1836     1  0.0000000  1.2552000  3
   1831   1843   1849   1850     1  0.0000000  0.6508444  3
   1831   1843   1849   1851     1  0.0000000  0.6508444  3
   1832   1831   1827   1834     1  0.0000000  1.2552000  3
   1832   1831   1843   1849     1  0.0000000  0.6508444  3
   1832   1831   1843   1844     1  0.0000000  0.6508444  3
   1832   1831   1843   1845     1  0.0000000  0.6508444  3
   1833   1831   1827   1834     1  0.0000000  1.2552000  3
   1833   1831   1843   1849     1  0.0000000  0.6508444  3
   1833   1831   1843   1844     1  0.0000000  0.6508444  3
   1833   1831   1843   1845     1  0.0000000  0.6508444  3
   1834   1837   1846   1847     1  0.0000000  0.6508444  3
   1834   1837   1846   1848     1  0.0000000  0.6508444  3
   1835   1834   1837   1846     1  0.0000000  0.6508444  3
   1835   1834   1837   1838     1  0.0000000  0.6508444  3
   1835   1834   1837   1839     1  0.0000000  0.6508444  3
   1836   1834   1837   1846     1  0.0000000  0.6508444  3
   1836   1834   1837   1838     1  0.0000000  0.6508444  3
   1836   1834   1837   1839     1  0.0000000  0.6508444  3
   1838   1837   1846   1855     1  0.0000000  1.0460000  1
   1838   1837   1846   1855     1  0.0000000  0.0000000  3
   1838   1837   1846   1847     1  0.0000000  0.6508444  3
   1838   1837   1846   1848     1  0.0000000  0.6508444  3
   1839   1837   1846   1855     1  0.0000000  1.0460000  1
   1839   1837   1846   1855     1  0.0000000  0.0000000  3
   1839   1837   1846   1847     1  0.0000000  0.6508444  3
   1839   1837   1846   1848     1  0.0000000  0.6508444  3
   1841   1840   1852   3705     1  0.0000000  1.0460000  1
   1841   1840   1852   3705     1  0.0000000  0.0000000  3
   1841   1840   1852   1853     1  0.0000000  0.6508444  3
   1841   1840   1852   1854     1  0.0000000  0.6508444  3
   1842   1840   1852   3705     1  0.0000000  1.0460000  1
   1842   1840   1852   3705     1  0.0000000  0.0000000  3
   1842   1840   1852   1853     1  0.0000000  0.6508444  3
   1842   1840   1852   1854     1  0.0000000  0.6508444  3
   1844   1843   1849   3692     1  0.0000000  1.0460000  1
   1844   1843   1849   3692     1  0.0000000  0.0000000  3
   1844   1843   1849   1850     1  0.0000000  0.6508444  3
   1844   1843   1849   1851     1  0.0000000  0.6508444  3
   1845   1843   1849   3692     1  0.0000000  1.0460000  1
   1845   1843   1849   3692     1  0.0000000  0.0000000  3
   1845   1843   1849   1850     1  0.0000000  0.6508444  3
   1845   1843   1849   1851     1  0.0000000  0.6508444  3
   1849   3692   3686   3687     1  0.0000000  1.6038667  3
   1849   3692   3686   3688     1  0.0000000  1.6038667  3
   1850   1849   3692   3686     1  0.0000000  1.6038667  3
   1851   1849   3692   3686     1  0.0000000  1.6038667  3
   1852   3705   3699   3700     1  0.0000000  1.6038667  3
   1852   3705   3699   3701     1  0.0000000  1.6038667  3
   1853   1852   3705   3699     1  0.0000000  1.6038667  3
   1854   1852   3705   3699     1  0.0000000  1.6038667  3
   1856   1857   1869   1870     1  0.0000000  0.6508444  3
   1856   1857   1869   1871     1  0.0000000  0.6508444  3
   1856   1860   1872   1873     1  0.0000000  0.6508444  3
   1856   1860   1872   1874     1  0.0000000  0.6508444  3
   1856   1863   1866   1867     1  0.0000000  0.6508444  3
   1856   1863   1866   1868     1  0.0000000  0.6508444  3
   1857   1856   1860   1861     1  0.0000000  1.2552000  3
   1857   1856   1860   1862     1  0.0000000  1.2552000  3
   1857   1856   1863   1864     1  0.0000000  1.2552000  3
   1857   1856   1863   1865     1  0.0000000  1.2552000  3
   1857   1869   1881   1882     1  0.0000000  0.6508444  3
   1857   1869   1881   1883     1  0.0000000  0.6508444  3
   1858   1857   1856   1860     1  0.0000000  1.2552000  3
   1858   1857   1856   1863     1  0.0000000  1.2552000  3
   1858   1857   1869   1881     1  0.0000000  0.6508444  3
   1858   1857   1869   1870     1  0.0000000  0.6508444  3
   1858   1857   1869   1871     1  0.0000000  0.6508444  3
   1859   1857   1856   1860     1  0.0000000  1.2552000  3
   1859   1857   1856   1863     1  0.0000000  1.2552000  3
   1859   1857   1869   1881     1  0.0000000  0.6508444  3
   1859   1857   1869   1870     1  0.0000000  0.6508444  3
   1859   1857   1869   1871     1  0.0000000  0.6508444  3
   1860   1856   1863   1864     1  0.0000000  1.2552000  3
   1860   1856   1863   1865     1  0.0000000  1.2552000  3
   1860   1872   1878   1879     1  0.0000000  0.6508444  3
   1860   1872   1878   1880     1  0.0000000  0.6508444  3
   1861   1860   1856   1863     1  0.0000000  1.2552000  3
   1861   1860   1872   1878     1  0.0000000  0.6508444  3
   1861   1860   1872   1873     1  0.0000000  0.6508444  3
   1861   1860   1872   1874     1  0.0000000  0.6508444  3
   1862   1860   1856   1863     1  0.0000000  1.2552000  3
   1862   1860   1872   1878     1  0.0000000  0.6508444  3
   1862   1860   1872   1873     1  0.0000000  0.6508444  3
   1862   1860   1872   1874     1  0.0000000  0.6508444  3
   1863   1866   1875   1876     1  0.0000000  0.6508444  3
   1863   1866   1875   1877     1  0.0000000  0.6508444  3
   1864   1863   1866   1875     1  0.0000000  0.6508444  3
   1864   1863   1866   1867     1  0.0000000  0.6508444  3
   1864   1863   1866   1868     1  0.0000000  0.6508444  3
   1865   1863   1866   1875     1  0.0000000  0.6508444  3
   1865   1863   1866   1867     1  0.0000000  0.6508444  3
   1865   1863   1866   1868     1  0.0000000  0.6508444  3
   1867   1866   1875   1884     1  0.0000000  1.0460000  1
   1867   1866   1875   1884     1  0.0000000  0.0000000  3
   1867   1866   1875   1876     1  0.0000000  0.6508444  3
   1867   1866   1875   1877     1  0.0000000  0.6508444  3
   1868   1866   1875   1884     1  0.0000000  1.0460000  1
   1868   1866   1875   1884     1  0.0000000  0.0000000  3
   1868   1866   1875   1876     1  0.0000000  0.6508444  3
   1868   1866   1875   1877     1  0.0000000  0.6508444  3
   1870   1869   1881   3731     1  0.0000000  1.0460000  1
   1870   1869   1881   3731     1  0.0000000  0.0000000  3
   1870   1869   1881   1882     1  0.0000000  0.6508444  3
   1870   1869   1881   1883     1  0.0000000  0.6508444  3
   1871   1869   1881   3731     1  0.0000000  1.0460000  1
   1871   1869   1881   3731     1  0.0000000  0.0000000  3
   1871   1869   1881   1882     1  0.0000000  0.6508444  3
   1871   1869   1881   1883     1  0.0000000  0.6508444  3
   1873   1872   1878   3718     1  0.0000000  1.0460000  1
   1873   1872   1878   3718     1  0.0000000  0.0000000  3
   1873   1872   1878   1879     1  0.0000000  0.6508444  3
   1873   1872   1878   1880     1  0.0000000  0.6508444  3
   1874   1872   1878   3718     1  0.0000000  1.0460000  1
   1874   1872   1878   3718     1  0.0000000  0.0000000  3
   1874   1872   1878   1879     1  0.0000000  0.6508444  3
   1874   1872   1878   1880     1  0.0000000  0.6508444  3
   1878   3718   3712   3713     1  0.0000000  1.6038667  3
   1878   3718   3712   3714     1  0.0000000  1.6038667  3
   1879   1878   3718   3712     1  0.0000000  1.6038667  3
   1880   1878   3718   3712     1  0.0000000  1.6038667  3
   1881   3731   3725   3726     1  0.0000000  1.6038667  3
   1881   3731   3725   3727     1  0.0000000  1.6038667  3
   1882   1881   3731   3725     1  0.0000000  1.6038667  3
   1883   1881   3731   3725     1  0.0000000  1.6038667  3
   1885   1886   1898   1899     1  0.0000000  0.6508444  3
   1885   1886   1898   1900     1  0.0000000  0.6508444  3
   1885   1889   1901   1902     1  0.0000000  0.6508444  3
   1885   1889   1901   1903     1  0.0000000  0.6508444  3
   1885   1892   1895   1896     1  0.0000000  0.6508444  3
   1885   1892   1895   1897     1  0.0000000  0.6508444  3
   1886   1885   1889   1890     1  0.0000000  1.2552000  3
   1886   1885   1889   1891     1  0.0000000  1.2552000  3
   1886   1885   1892   1893     1  0.0000000  1.2552000  3
   1886   1885   1892   1894     1  0.0000000  1.2552000  3
   1886   1898   1910   1911     1  0.0000000  0.6508444  3
   1886   1898   1910   1912     1  0.0000000  0.6508444  3
   1887   1886   1885   1889     1  0.0000000  1.2552000  3
   1887   1886   1885   1892     1  0.0000000  1.2552000  3
   1887   1886   1898   1910     1  0.0000000  0.6508444  3
   1887   1886   1898   1899     1  0.0000000  0.6508444  3
   1887   1886   1898   1900     1  0.0000000  0.6508444  3
   1888   1886   1885   1889     1  0.0000000  1.2552000  3
   1888   1886   1885   1892     1  0.0000000  1.2552000  3
   1888   1886   1898   1910     1  0.0000000  0.6508444  3
   1888   1886   1898   1899     1  0.0000000  0.6508444  3
   1888   1886   1898   1900     1  0.0000000  0.6508444  3
   1889   1885   1892   1893     1  0.0000000  1.2552000  3
   1889   1885   1892   1894     1  0.0000000  1.2552000  3
   1889   1901   1907   1908     1  0.0000000  0.6508444  3
   1889   1901   1907   1909     1  0.0000000  0.6508444  3
   1890   1889   1885   1892     1  0.0000000  1.2552000  3
   1890   1889   1901   1907     1  0.0000000  0.6508444  3
   1890   1889   1901   1902     1  0.0000000  0.6508444  3
   1890   1889   1901   1903     1  0.0000000  0.6508444  3
   1891   1889   1885   1892     1  0.0000000  1.2552000  3
   1891   1889   1901   1907     1  0.0000000  0.6508444  3
   1891   1889   1901   1902     1  0.0000000  0.6508444  3
   1891   1889   1901   1903     1  0.0000000  0.6508444  3
   1892   1895   1904   1905     1  0.0000000  0.6508444  3
   1892   1895   1904   1906     1  0.0000000  0.6508444  3
   1893   1892   1895   1904     1  0.0000000  0.6508444  3
   1893   1892   1895   1896     1  0.0000000  0.6508444  3
   1893   1892   1895   1897     1  0.0000000  0.6508444  3
   1894   1892   1895   1904     1  0.0000000  0.6508444  3
   1894   1892   1895   1896     1  0.0000000  0.6508444  3
   1894   1892   1895   1897     1  0.0000000  0.6508444  3
   1896   1895   1904   1913     1  0.0000000  1.0460000  1
   1896   1895   1904   1913     1  0.0000000  0.0000000  3
   1896   1895   1904   1905     1  0.0000000  0.6508444  3
   1896   1895   1904   1906     1  0.0000000  0.6508444  3
   1897   1895   1904   1913     1  0.0000000  1.0460000  1
   1897   1895   1904   1913     1  0.0000000  0.0000000  3
   1897   1895   1904   1905     1  0.0000000  0.6508444  3
   1897   1895   1904   1906     1  0.0000000  0.6508444  3
   1899   1898   1910   3757     1  0.0000000  1.0460000  1
   1899   1898   1910   3757     1  0.0000000  0.0000000  3
   1899   1898   1910   1911     1  0.0000000  0.6508444  3
   1899   1898   1910   1912     1  0.0000000  0.6508444  3
   1900   1898   1910   3757     1  0.0000000  1.0460000  1
   1900   1898   1910   3757     1  0.0000000  0.0000000  3
   1900   1898   1910   1911     1  0.0000000  0.6508444  3
   1900   1898   1910   1912     1  0.0000000  0.6508444  3
   1902   1901   1907   3744     1  0.0000000  1.0460000  1
   1902   1901   1907   3744     1  0.0000000  0.0000000  3
   1902   1901   1907   1908     1  0.0000000  0.6508444  3
   1902   1901   1907   1909     1  0.0000000  0.6508444  3
   1903   1901   1907   3744     1  0.0000000  1.0460000  1
   1903   1901   1907   3744     1  0.0000000  0.0000000  3
   1903   1901   1907   1908     1  0.0000000  0.6508444  3
   1903   1901   1907   1909     1  0.0000000  0.6508444  3
   1907   3744   3738   3739     1  0.0000000  1.6038667  3
   1907   3744   3738   3740     1  0.0000000  1.6038667  3
   1908   1907   3744   3738     1  0.0000000  1.6038667  3
   1909   1907   3744   3738     1  0.0000000  1.6038667  3
   1910   3757   3751   3752     1  0.0000000  1.6038667  3
   1910   3757   3751   3753     1  0.0000000  1.6038667  3
   1911   1910   3757   3751     1  0.0000000  1.6038667  3
   1912   1910   3757   3751     1  0.0000000  1.6038667  3
   1914   1915   1927   1928     1  0.0000000  0.6508444  3
   1914   1915   1927   1929     1  0.0000000  0.6508444  3
   1914   1918   1930   1931     1  0.0000000  0.6508444  3
   1914   1918   1930   1932     1  0.0000000  0.6508444  3
   1914   1921   1924   1925     1  0.0000000  0.6508444  3
   1914   1921   1924   1926     1  0.0000000  0.6508444  3
   1915   1914   1918   1919     1  0.0000000  1.2552000  3
   1915   1914   1918   1920     1  0.0000000  1.2552000  3
   1915   1914   1921   1922     1  0.0000000  1.2552000  3
   1915   1914   1921   1923     1  0.0000000  1.2552000  3
   1915   1927   1939   1940     1  0.0000000  0.6508444  3
   1915   1927   1939   1941     1  0.0000000  0.6508444  3
   1916   1915   1914   1918     1  0.0000000  1.2552000  3
   1916   1915   1914   1921     1  0.0000000  1.2552000  3
   1916   1915   1927   1939     1  0.0000000  0.6508444  3
   1916   1915   1927   1928     1  0.0000000  0.6508444  3
   1916   1915   1927   1929     1  0.0000000  0.6508444  3
   1917   1915   1914   1918     1  0.0000000  1.2552000  3
   1917   1915   1914   1921     1  0.0000000  1.2552000  3
   1917   1915   1927   1939     1  0.0000000  0.6508444  3
   1917   1915   1927   1928     1  0.0000000  0.6508444  3
   1917   1915   1927   1929     1  0.0000000  0.6508444  3
   1918   1914   1921   1922     1  0.0000000  1.2552000  3
   1918   1914   1921   1923     1  0.0000000  1.2552000  3
   1918   1930   1936   1937     1  0.0000000  0.6508444  3
   1918   1930   1936   1938     1  0.0000000  0.6508444  3
   1919   1918   1914   1921     1  0.0000000  1.2552000  3
   1919   1918   1930   1936     1  0.0000000  0.6508444  3
   1919   1918   1930   1931     1  0.0000000  0.6508444  3
   1919   1918   1930   1932     1  0.0000000  0.6508444  3
   1920   1918   1914   1921     1  0.0000000  1.2552000  3
   1920   1918   1930   1936     1  0.0000000  0.6508444  3
   1920   1918   1930   1931     1  0.0000000  0.6508444  3
   1920   1918   1930   1932     1  0.0000000  0.6508444  3
   1921   1924   1933   1934     1  0.0000000  0.6508444  3
   1921   1924   1933   1935     1  0.0000000  0.6508444  3
   1922   1921   1924   1933     1  0.0000000  0.6508444  3
   1922   1921   1924   1925     1  0.0000000  0.6508444  3
   1922   1921   1924   1926     1  0.0000000  0.6508444  3
   1923   1921   1924   1933     1  0.0000000  0.6508444  3
   1923   1921   1924   1925     1  0.0000000  0.6508444  3
   1923   1921   1924   1926     1  0.0000000  0.6508444  3
   1925   1924   1933   1942     1  0.0000000  1.0460000  1
   1925   1924   1933   1942     1  0.0000000  0.0000000  3
   1925   1924   1933   1934     1  0.0000000  0.6508444  3
   1925   1924   1933   1935     1  0.0000000  0.6508444  3
   1926   1924   1933   1942     1  0.0000000  1.0460000  1
   1926   1924   1933   1942     1  0.0000000  0.0000000  3
   1926   1924   1933   1934     1  0.0000000  0.6508444  3
   1926   1924   1933   1935     1  0.0000000  0.6508444  3
   1928   1927   1939   3783     1  0.0000000  1.0460000  1
   1928   1927   1939   3783     1  0.0000000  0.0000000  3
   1928   1927   1939   1940     1  0.0000000  0.6508444  3
   1928   1927   1939   1941     1  0.0000000  0.6508444  3
   1929   1927   1939   3783     1  0.0000000  1.0460000  1
   1929   1927   1939   3783     1  0.0000000  0.0000000  3
   1929   1927   1939   1940     1  0.0000000  0.6508444  3
   1929   1927   1939   1941     1  0.0000000  0.6508444  3
   1931   1930   1936   3770     1  0.0000000  1.0460000  1
   1931   1930   1936   3770     1  0.0000000  0.0000000  3
   1931   1930   1936   1937     1  0.0000000  0.6508444  3
   1931   1930   1936   1938     1  0.0000000  0.6508444  3
   1932   1930   1936   3770     1  0.0000000  1.0460000  1
   1932   1930   1936   3770     1  0.0000000  0.0000000  3
   1932   1930   1936   1937     1  0.0000000  0.6508444  3
   1932   1930   1936   1938     1  0.0000000  0.6508444  3
   1936   3770   3764   3765     1  0.0000000  1.6038667  3
   1936   3770   3764   3766     1  0.0000000  1.6038667  3
   1937   1936   3770   3764     1  0.0000000  1.6038667  3
   1938   1936   3770   3764     1  0.0000000  1.6038667  3
   1939   3783   3777   3778     1  0.0000000  1.6038667  3
   1939   3783   3777   3779     1  0.0000000  1.6038667  3
   1940   1939   3783   3777     1  0.0000000  1.6038667  3
   1941   1939   3783   3777     1  0.0000000  1.6038667  3
   1943   1944   1956   1957     1  0.0000000  0.6508444  3
   1943   1944   1956   1958     1  0.0000000  0.6508444  3
   1943   1947   1959   1960     1  0.0000000  0.6508444  3
   1943   1947   1959   1961     1  0.0000000  0.6508444  3
   1943   1950   1953   1954     1  0.0000000  0.6508444  3
   1943   1950   1953   1955     1  0.0000000  0.6508444  3
   1944   1943   1947   1948     1  0.0000000  1.2552000  3
   1944   1943   1947   1949     1  0.0000000  1.2552000  3
   1944   1943   1950   1951     1  0.0000000  1.2552000  3
   1944   1943   1950   1952     1  0.0000000  1.2552000  3
   1944   1956   1968   1969     1  0.0000000  0.6508444  3
   1944   1956   1968   1970     1  0.0000000  0.6508444  3
   1945   1944   1943   1947     1  0.0000000  1.2552000  3
   1945   1944   1943   1950     1  0.0000000  1.2552000  3
   1945   1944   1956   1968     1  0.0000000  0.6508444  3
   1945   1944   1956   1957     1  0.0000000  0.6508444  3
   1945   1944   1956   1958     1  0.0000000  0.6508444  3
   1946   1944   1943   1947     1  0.0000000  1.2552000  3
   1946   1944   1943   1950     1  0.0000000  1.2552000  3
   1946   1944   1956   1968     1  0.0000000  0.6508444  3
   1946   1944   1956   1957     1  0.0000000  0.6508444  3
   1946   1944   1956   1958     1  0.0000000  0.6508444  3
   1947   1943   1950   1951     1  0.0000000  1.2552000  3
   1947   1943   1950   1952     1  0.0000000  1.2552000  3
   1947   1959   1965   1966     1  0.0000000  0.6508444  3
   1947   1959   1965   1967     1  0.0000000  0.6508444  3
   1948   1947   1943   1950     1  0.0000000  1.2552000  3
   1948   1947   1959   1965     1  0.0000000  0.6508444  3
   1948   1947   1959   1960     1  0.0000000  0.6508444  3
   1948   1947   1959   1961     1  0.0000000  0.6508444  3
   1949   1947   1943   1950     1  0.0000000  1.2552000  3
   1949   1947   1959   1965     1  0.0000000  0.6508444  3
   1949   1947   1959   1960     1  0.0000000  0.6508444  3
   1949   1947   1959   1961     1  0.0000000  0.6508444  3
   1950   1953   1962   1963     1  0.0000000  0.6508444  3
   1950   1953   1962   1964     1  0.0000000  0.6508444  3
   1951   1950   1953   1962     1  0.0000000  0.6508444  3
   1951   1950   1953   1954     1  0.0000000  0.6508444  3
   1951   1950   1953   1955     1  0.0000000  0.6508444  3
   1952   1950   1953   1962     1  0.0000000  0.6508444  3
   1952   1950   1953   1954     1  0.0000000  0.6508444  3
   1952   1950   1953   1955     1  0.0000000  0.6508444  3
   1954   1953   1962   1971     1  0.0000000  1.0460000  1
   1954   1953   1962   1971     1  0.0000000  0.0000000  3
   1954   1953   1962   1963     1  0.0000000  0.6508444  3
   1954   1953   1962   1964     1  0.0000000  0.6508444  3
   1955   1953   1962   1971     1  0.0000000  1.0460000  1
   1955   1953   1962   1971     1  0.0000000  0.0000000  3
   1955   1953   1962   1963     1  0.0000000  0.6508444  3
   1955   1953   1962   1964     1  0.0000000  0.6508444  3
   1957   1956   1968   3809     1  0.0000000  1.0460000  1
   1957   1956   1968   3809     1  0.0000000  0.0000000  3
   1957   1956   1968   1969     1  0.0000000  0.6508444  3
   1957   1956   1968   1970     1  0.0000000  0.6508444  3
   1958   1956   1968   3809     1  0.0000000  1.0460000  1
   1958   1956   1968   3809     1  0.0000000  0.0000000  3
   1958   1956   1968   1969     1  0.0000000  0.6508444  3
   1958   1956   1968   1970     1  0.0000000  0.6508444  3
   1960   1959   1965   3796     1  0.0000000  1.0460000  1
   1960   1959   1965   3796     1  0.0000000  0.0000000  3
   1960   1959   1965   1966     1  0.0000000  0.6508444  3
   1960   1959   1965   1967     1  0.0000000  0.6508444  3
   1961   1959   1965   3796     1  0.0000000  1.0460000  1
   1961   1959   1965   3796     1  0.0000000  0.0000000  3
   1961   1959   1965   1966     1  0.0000000  0.6508444  3
   1961   1959   1965   1967     1  0.0000000  0.6508444  3
   1965   3796   3790   3791     1  0.0000000  1.6038667  3
   1965   3796   3790   3792     1  0.0000000  1.6038667  3
   1966   1965   3796   3790     1  0.0000000  1.6038667  3
   1967   1965   3796   3790     1  0.0000000  1.6038667  3
   1968   3809   3803   3804     1  0.0000000  1.6038667  3
   1968   3809   3803   3805     1  0.0000000  1.6038667  3
   1969   1968   3809   3803     1  0.0000000  1.6038667  3
   1970   1968   3809   3803     1  0.0000000  1.6038667  3
   1972   1973   1985   1986     1  0.0000000  0.6508444  3
   1972   1973   1985   1987     1  0.0000000  0.6508444  3
   1972   1976   1988   1989     1  0.0000000  0.6508444  3
   1972   1976   1988   1990     1  0.0000000  0.6508444  3
   1972   1979   1982   1983     1  0.0000000  0.6508444  3
   1972   1979   1982   1984     1  0.0000000  0.6508444  3
   1973   1972   1976   1977     1  0.0000000  1.2552000  3
   1973   1972   1976   1978     1  0.0000000  1.2552000  3
   1973   1972   1979   1980     1  0.0000000  1.2552000  3
   1973   1972   1979   1981     1  0.0000000  1.2552000  3
   1973   1985   1997   1998     1  0.0000000  0.6508444  3
   1973   1985   1997   1999     1  0.0000000  0.6508444  3
   1974   1973   1972   1976     1  0.0000000  1.2552000  3
   1974   1973   1972   1979     1  0.0000000  1.2552000  3
   1974   1973   1985   1997     1  0.0000000  0.6508444  3
   1974   1973   1985   1986     1  0.0000000  0.6508444  3
   1974   1973   1985   1987     1  0.0000000  0.6508444  3
   1975   1973   1972   1976     1  0.0000000  1.2552000  3
   1975   1973   1972   1979     1  0.0000000  1.2552000  3
   1975   1973   1985   1997     1  0.0000000  0.6508444  3
   1975   1973   1985   1986     1  0.0000000  0.6508444  3
   1975   1973   1985   1987     1  0.0000000  0.6508444  3
   1976   1972   1979   1980     1  0.0000000  1.2552000  3
   1976   1972   1979   1981     1  0.0000000  1.2552000  3
   1976   1988   1994   1995     1  0.0000000  0.6508444  3
   1976   1988   1994   1996     1  0.0000000  0.6508444  3
   1977   1976   1972   1979     1  0.0000000  1.2552000  3
   1977   1976   1988   1994     1  0.0000000  0.6508444  3
   1977   1976   1988   1989     1  0.0000000  0.6508444  3
   1977   1976   1988   1990     1  0.0000000  0.6508444  3
   1978   1976   1972   1979     1  0.0000000  1.2552000  3
   1978   1976   1988   1994     1  0.0000000  0.6508444  3
   1978   1976   1988   1989     1  0.0000000  0.6508444  3
   1978   1976   1988   1990     1  0.0000000  0.6508444  3
   1979   1982   1991   1992     1  0.0000000  0.6508444  3
   1979   1982   1991   1993     1  0.0000000  0.6508444  3
   1980   1979   1982   1991     1  0.0000000  0.6508444  3
   1980   1979   1982   1983     1  0.0000000  0.6508444  3
   1980   1979   1982   1984     1  0.0000000  0.6508444  3
   1981   1979   1982   1991     1  0.0000000  0.6508444  3
   1981   1979   1982   1983     1  0.0000000  0.6508444  3
   1981   1979   1982   1984     1  0.0000000  0.6508444  3
   1983   1982   1991   2000     1  0.0000000  1.0460000  1
   1983   1982   1991   2000     1  0.0000000  0.0000000  3
   1983   1982   1991   1992     1  0.0000000  0.6508444  3
   1983   1982   1991   1993     1  0.0000000  0.6508444  3
   1984   1982   1991   2000     1  0.0000000  1.0460000  1
   1984   1982   1991   2000     1  0.0000000  0.0000000  3
   1984   1982   1991   1992     1  0.0000000  0.6508444  3
   1984   1982   1991   1993     1  0.0000000  0.6508444  3
   1986   1985   1997   3835     1  0.0000000  1.0460000  1
   1986   1985   1997   3835     1  0.0000000  0.0000000  3
   1986   1985   1997   1998     1  0.0000000  0.6508444  3
   1986   1985   1997   1999     1  0.0000000  0.6508444  3
   1987   1985   1997   3835     1  0.0000000  1.0460000  1
   1987   1985   1997   3835     1  0.0000000  0.0000000  3
   1987   1985   1997   1998     1  0.0000000  0.6508444  3
   1987   1985   1997   1999     1  0.0000000  0.6508444  3
   1989   1988   1994   3822     1  0.0000000  1.0460000  1
   1989   1988   1994   3822     1  0.0000000  0.0000000  3
   1989   1988   1994   1995     1  0.0000000  0.6508444  3
   1989   1988   1994   1996     1  0.0000000  0.6508444  3
   1990   1988   1994   3822     1  0.0000000  1.0460000  1
   1990   1988   1994   3822     1  0.0000000  0.0000000  3
   1990   1988   1994   1995     1  0.0000000  0.6508444  3
   1990   1988   1994   1996     1  0.0000000  0.6508444  3
   1994   3822   3816   3817     1  0.0000000  1.6038667  3
   1994   3822   3816   3818     1  0.0000000  1.6038667  3
   1995   1994   3822   3816     1  0.0000000  1.6038667  3
   1996   1994   3822   3816     1  0.0000000  1.6038667  3
   1997   3835   3829   3830     1  0.0000000  1.6038667  3
   1997   3835   3829   3831     1  0.0000000  1.6038667  3
   1998   1997   3835   3829     1  0.0000000  1.6038667  3
   1999   1997   3835   3829     1  0.0000000  1.6038667  3
   2001   2002   2014   2015     1  0.0000000  0.6508444  3
   2001   2002   2014   2016     1  0.0000000  0.6508444  3
   2001   2005   2017   2018     1  0.0000000  0.6508444  3
   2001   2005   2017   2019     1  0.0000000  0.6508444  3
   2001   2008   2011   2012     1  0.0000000  0.6508444  3
   2001   2008   2011   2013     1  0.0000000  0.6508444  3
   2002   2001   2005   2006     1  0.0000000  1.2552000  3
   2002   2001   2005   2007     1  0.0000000  1.2552000  3
   2002   2001   2008   2009     1  0.0000000  1.2552000  3
   2002   2001   2008   2010     1  0.0000000  1.2552000  3
   2002   2014   2026   2027     1  0.0000000  0.6508444  3
   2002   2014   2026   2028     1  0.0000000  0.6508444  3
   2003   2002   2001   2005     1  0.0000000  1.2552000  3
   2003   2002   2001   2008     1  0.0000000  1.2552000  3
   2003   2002   2014   2026     1  0.0000000  0.6508444  3
   2003   2002   2014   2015     1  0.0000000  0.6508444  3
   2003   2002   2014   2016     1  0.0000000  0.6508444  3
   2004   2002   2001   2005     1  0.0000000  1.2552000  3
   2004   2002   2001   2008     1  0.0000000  1.2552000  3
   2004   2002   2014   2026     1  0.0000000  0.6508444  3
   2004   2002   2014   2015     1  0.0000000  0.6508444  3
   2004   2002   2014   2016     1  0.0000000  0.6508444  3
   2005   2001   2008   2009     1  0.0000000  1.2552000  3
   2005   2001   2008   2010     1  0.0000000  1.2552000  3
   2005   2017   2023   2024     1  0.0000000  0.6508444  3
   2005   2017   2023   2025     1  0.0000000  0.6508444  3
   2006   2005   2001   2008     1  0.0000000  1.2552000  3
   2006   2005   2017   2023     1  0.0000000  0.6508444  3
   2006   2005   2017   2018     1  0.0000000  0.6508444  3
   2006   2005   2017   2019     1  0.0000000  0.6508444  3
   2007   2005   2001   2008     1  0.0000000  1.2552000  3
   2007   2005   2017   2023     1  0.0000000  0.6508444  3
   2007   2005   2017   2018     1  0.0000000  0.6508444  3
   2007   2005   2017   2019     1  0.0000000  0.6508444  3
   2008   2011   2020   2021     1  0.0000000  0.6508444  3
   2008   2011   2020   2022     1  0.0000000  0.6508444  3
   2009   2008   2011   2020     1  0.0000000  0.6508444  3
   2009   2008   2011   2012     1  0.0000000  0.6508444  3
   2009   2008   2011   2013     1  0.0000000  0.6508444  3
   2010   2008   2011   2020     1  0.0000000  0.6508444  3
   2010   2008   2011   2012     1  0.0000000  0.6508444  3
   2010   2008   2011   2013     1  0.0000000  0.6508444  3
   2012   2011   2020   2029     1  0.0000000  1.0460000  1
   2012   2011   2020   2029     1  0.0000000  0.0000000  3
   2012   2011   2020   2021     1  0.0000000  0.6508444  3
   2012   2011   2020   2022     1  0.0000000  0.6508444  3
   2013   2011   2020   2029     1  0.0000000  1.0460000  1
   2013   2011   2020   2029     1  0.0000000  0.0000000  3
   2013   2011   2020   2021     1  0.0000000  0.6508444  3
   2013   2011   2020   2022     1  0.0000000  0.6508444  3
   2015   2014   2026   3861     1  0.0000000  1.0460000  1
   2015   2014   2026   3861     1  0.0000000  0.0000000  3
   2015   2014   2026   2027     1  0.0000000  0.6508444  3
   2015   2014   2026   2028     1  0.0000000  0.6508444  3
   2016   2014   2026   3861     1  0.0000000  1.0460000  1
   2016   2014   2026   3861     1  0.0000000  0.0000000  3
   2016   2014   2026   2027     1  0.0000000  0.6508444  3
   2016   2014   2026   2028     1  0.0000000  0.6508444  3
   2018   2017   2023   3848     1  0.0000000  1.0460000  1
   2018   2017   2023   3848     1  0.0000000  0.0000000  3
   2018   2017   2023   2024     1  0.0000000  0.6508444  3
   2018   2017   2023   2025     1  0.0000000  0.6508444  3
   2019   2017   2023   3848     1  0.0000000  1.0460000  1
   2019   2017   2023   3848     1  0.0000000  0.0000000  3
   2019   2017   2023   2024     1  0.0000000  0.6508444  3
   2019   2017   2023   2025     1  0.0000000  0.6508444  3
   2023   3848   3842   3843     1  0.0000000  1.6038667  3
   2023   3848   3842   3844     1  0.0000000  1.6038667  3
   2024   2023   3848   3842     1  0.0000000  1.6038667  3
   2025   2023   3848   3842     1  0.0000000  1.6038667  3
   2026   3861   3855   3856     1  0.0000000  1.6038667  3
   2026   3861   3855   3857     1  0.0000000  1.6038667  3
   2027   2026   3861   3855     1  0.0000000  1.6038667  3
   2028   2026   3861   3855     1  0.0000000  1.6038667  3
   2030   2031   2043   2044     1  0.0000000  0.6508444  3
   2030   2031   2043   2045     1  0.0000000  0.6508444  3
   2030   2034   2046   2047     1  0.0000000  0.6508444  3
   2030   2034   2046   2048     1  0.0000000  0.6508444  3
   2030   2037   2040   2041     1  0.0000000  0.6508444  3
   2030   2037   2040   2042     1  0.0000000  0.6508444  3
   2031   2030   2034   2035     1  0.0000000  1.2552000  3
   2031   2030   2034   2036     1  0.0000000  1.2552000  3
   2031   2030   2037   2038     1  0.0000000  1.2552000  3
   2031   2030   2037   2039     1  0.0000000  1.2552000  3
   2031   2043   2055   2056     1  0.0000000  0.6508444  3
   2031   2043   2055   2057     1  0.0000000  0.6508444  3
   2032   2031   2030   2034     1  0.0000000  1.2552000  3
   2032   2031   2030   2037     1  0.0000000  1.2552000  3
   2032   2031   2043   2055     1  0.0000000  0.6508444  3
   2032   2031   2043   2044     1  0.0000000  0.6508444  3
   2032   2031   2043   2045     1  0.0000000  0.6508444  3
   2033   2031   2030   2034     1  0.0000000  1.2552000  3
   2033   2031   2030   2037     1  0.0000000  1.2552000  3
   2033   2031   2043   2055     1  0.0000000  0.6508444  3
   2033   2031   2043   2044     1  0.0000000  0.6508444  3
   2033   2031   2043   2045     1  0.0000000  0.6508444  3
   2034   2030   2037   2038     1  0.0000000  1.2552000  3
   2034   2030   2037   2039     1  0.0000000  1.2552000  3
   2034   2046   2052   2053     1  0.0000000  0.6508444  3
   2034   2046   2052   2054     1  0.0000000  0.6508444  3
   2035   2034   2030   2037     1  0.0000000  1.2552000  3
   2035   2034   2046   2052     1  0.0000000  0.6508444  3
   2035   2034   2046   2047     1  0.0000000  0.6508444  3
   2035   2034   2046   2048     1  0.0000000  0.6508444  3
   2036   2034   2030   2037     1  0.0000000  1.2552000  3
   2036   2034   2046   2052     1  0.0000000  0.6508444  3
   2036   2034   2046   2047     1  0.0000000  0.6508444  3
   2036   2034   2046   2048     1  0.0000000  0.6508444  3
   2037   2040   2049   2050     1  0.0000000  0.6508444  3
   2037   2040   2049   2051     1  0.0000000  0.6508444  3
   2038   2037   2040   2049     1  0.0000000  0.6508444  3
   2038   2037   2040   2041     1  0.0000000  0.6508444  3
   2038   2037   2040   2042     1  0.0000000  0.6508444  3
   2039   2037   2040   2049     1  0.0000000  0.6508444  3
   2039   2037   2040   2041     1  0.0000000  0.6508444  3
   2039   2037   2040   2042     1  0.0000000  0.6508444  3
   2041   2040   2049   2058     1  0.0000000  1.0460000  1
   2041   2040   2049   2058     1  0.0000000  0.0000000  3
   2041   2040   2049   2050     1  0.0000000  0.6508444  3
   2041   2040   2049   2051     1  0.0000000  0.6508444  3
   2042   2040   2049   2058     1  0.0000000  1.0460000  1
   2042   2040   2049   2058     1  0.0000000  0.0000000  3
   2042   2040   2049   2050     1  0.0000000  0.6508444  3
   2042   2040   2049   2051     1  0.0000000  0.6508444  3
   2044   2043   2055   3887     1  0.0000000  1.0460000  1
   2044   2043   2055   3887     1  0.0000000  0.0000000  3
   2044   2043   2055   2056     1  0.0000000  0.6508444  3
   2044   2043   2055   2057     1  0.0000000  0.6508444  3
   2045   2043   2055   3887     1  0.0000000  1.0460000  1
   2045   2043   2055   3887     1  0.0000000  0.0000000  3
   2045   2043   2055   2056     1  0.0000000  0.6508444  3
   2045   2043   2055   2057     1  0.0000000  0.6508444  3
   2047   2046   2052   3874     1  0.0000000  1.0460000  1
   2047   2046   2052   3874     1  0.0000000  0.0000000  3
   2047   2046   2052   2053     1  0.0000000  0.6508444  3
   2047   2046   2052   2054     1  0.0000000  0.6508444  3
   2048   2046   2052   3874     1  0.0000000  1.0460000  1
   2048   2046   2052   3874     1  0.0000000  0.0000000  3
   2048   2046   2052   2053     1  0.0000000  0.6508444  3
   2048   2046   2052   2054     1  0.0000000  0.6508444  3
   2052   3874   3868   3869     1  0.0000000  1.6038667  3
   2052   3874   3868   3870     1  0.0000000  1.6038667  3
   2053   2052   3874   3868     1  0.0000000  1.6038667  3
   2054   2052   3874   3868     1  0.0000000  1.6038667  3
   2055   3887   3881   3882     1  0.0000000  1.6038667  3
   2055   3887   3881   3883     1  0.0000000  1.6038667  3
   2056   2055   3887   3881     1  0.0000000  1.6038667  3
   2057   2055   3887   3881     1  0.0000000  1.6038667  3
   2059   2060   2072   2073     1  0.0000000  0.6508444  3
   2059   2060   2072   2074     1  0.0000000  0.6508444  3
   2059   2063   2075   2076     1  0.0000000  0.6508444  3
   2059   2063   2075   2077     1  0.0000000  0.6508444  3
   2059   2066   2069   2070     1  0.0000000  0.6508444  3
   2059   2066   2069   2071     1  0.0000000  0.6508444  3
   2060   2059   2063   2064     1  0.0000000  1.2552000  3
   2060   2059   2063   2065     1  0.0000000  1.2552000  3
   2060   2059   2066   2067     1  0.0000000  1.2552000  3
   2060   2059   2066   2068     1  0.0000000  1.2552000  3
   2060   2072   2084   2085     1  0.0000000  0.6508444  3
   2060   2072   2084   2086     1  0.0000000  0.6508444  3
   2061   2060   2059   2063     1  0.0000000  1.2552000  3
   2061   2060   2059   2066     1  0.0000000  1.2552000  3
   2061   2060   2072   2084     1  0.0000000  0.6508444  3
   2061   2060   2072   2073     1  0.0000000  0.6508444  3
   2061   2060   2072   2074     1  0.0000000  0.6508444  3
   2062   2060   2059   2063     1  0.0000000  1.2552000  3
   2062   2060   2059   2066     1  0.0000000  1.2552000  3
   2062   2060   2072   2084     1  0.0000000  0.6508444  3
   2062   2060   2072   2073     1  0.0000000  0.6508444  3
   2062   2060   2072   2074     1  0.0000000  0.6508444  3
   2063   2059   2066   2067     1  0.0000000  1.2552000  3
   2063   2059   2066   2068     1  0.0000000  1.2552000  3
   2063   2075   2081   2082     1  0.0000000  0.6508444  3
   2063   2075   2081   2083     1  0.0000000  0.6508444  3
   2064   2063   2059   2066     1  0.0000000  1.2552000  3
   2064   2063   2075   2081     1  0.0000000  0.6508444  3
   2064   2063   2075   2076     1  0.0000000  0.6508444  3
   2064   2063   2075   2077     1  0.0000000  0.6508444  3
   2065   2063   2059   2066     1  0.0000000  1.2552000  3
   2065   2063   2075   2081     1  0.0000000  0.6508444  3
   2065   2063   2075   2076     1  0.0000000  0.6508444  3
   2065   2063   2075   2077     1  0.0000000  0.6508444  3
   2066   2069   2078   2079     1  0.0000000  0.6508444  3
   2066   2069   2078   2080     1  0.0000000  0.6508444  3
   2067   2066   2069   2078     1  0.0000000  0.6508444  3
   2067   2066   2069   2070     1  0.0000000  0.6508444  3
   2067   2066   2069   2071     1  0.0000000  0.6508444  3
   2068   2066   2069   2078     1  0.0000000  0.6508444  3
   2068   2066   2069   2070     1  0.0000000  0.6508444  3
   2068   2066   2069   2071     1  0.0000000  0.6508444  3
   2070   2069   2078   2087     1  0.0000000  1.0460000  1
   2070   2069   2078   2087     1  0.0000000  0.0000000  3
   2070   2069   2078   2079     1  0.0000000  0.6508444  3
   2070   2069   2078   2080     1  0.0000000  0.6508444  3
   2071   2069   2078   2087     1  0.0000000  1.0460000  1
   2071   2069   2078   2087     1  0.0000000  0.0000000  3
   2071   2069   2078   2079     1  0.0000000  0.6508444  3
   2071   2069   2078   2080     1  0.0000000  0.6508444  3
   2073   2072   2084   3913     1  0.0000000  1.0460000  1
   2073   2072   2084   3913     1  0.0000000  0.0000000  3
   2073   2072   2084   2085     1  0.0000000  0.6508444  3
   2073   2072   2084   2086     1  0.0000000  0.6508444  3
   2074   2072   2084   3913     1  0.0000000  1.0460000  1
   2074   2072   2084   3913     1  0.0000000  0.0000000  3
   2074   2072   2084   2085     1  0.0000000  0.6508444  3
   2074   2072   2084   2086     1  0.0000000  0.6508444  3
   2076   2075   2081   3900     1  0.0000000  1.0460000  1
   2076   2075   2081   3900     1  0.0000000  0.0000000  3
   2076   2075   2081   2082     1  0.0000000  0.6508444  3
   2076   2075   2081   2083     1  0.0000000  0.6508444  3
   2077   2075   2081   3900     1  0.0000000  1.0460000  1
   2077   2075   2081   3900     1  0.0000000  0.0000000  3
   2077   2075   2081   2082     1  0.0000000  0.6508444  3
   2077   2075   2081   2083     1  0.0000000  0.6508444  3
   2081   3900   3894   3895     1  0.0000000  1.6038667  3
   2081   3900   3894   3896     1  0.0000000  1.6038667  3
   2082   2081   3900   3894     1  0.0000000  1.6038667  3
   2083   2081   3900   3894     1  0.0000000  1.6038667  3
   2084   3913   3907   3908     1  0.0000000  1.6038667  3
   2084   3913   3907   3909     1  0.0000000  1.6038667  3
   2085   2084   3913   3907     1  0.0000000  1.6038667  3
   2086   2084   3913   3907     1  0.0000000  1.6038667  3
   2088   2089   2101   2102     1  0.0000000  0.6508444  3
   2088   2089   2101   2103     1  0.0000000  0.6508444  3
   2088   2092   2104   2105     1  0.0000000  0.6508444  3
   2088   2092   2104   2106     1  0.0000000  0.6508444  3
   2088   2095   2098   2099     1  0.0000000  0.6508444  3
   2088   2095   2098   2100     1  0.0000000  0.6508444  3
   2089   2088   2092   2093     1  0.0000000  1.2552000  3
   2089   2088   2092   2094     1  0.0000000  1.2552000  3
   2089   2088   2095   2096     1  0.0000000  1.2552000  3
   2089   2088   2095   2097     1  0.0000000  1.2552000  3
   2089   2101   2113   2114     1  0.0000000  0.6508444  3
   2089   2101   2113   2115     1  0.0000000  0.6508444  3
   2090   2089   2088   2092     1  0.0000000  1.2552000  3
   2090   2089   2088   2095     1  0.0000000  1.2552000  3
   2090   2089   2101   2113     1  0.0000000  0.6508444  3
   2090   2089   2101   2102     1  0.0000000  0.6508444  3
   2090   2089   2101   2103     1  0.0000000  0.6508444  3
   2091   2089   2088   2092     1  0.0000000  1.2552000  3
   2091   2089   2088   2095     1  0.0000000  1.2552000  3
   2091   2089   2101   2113     1  0.0000000  0.6508444  3
   2091   2089   2101   2102     1  0.0000000  0.6508444  3
   2091   2089   2101   2103     1  0.0000000  0.6508444  3
   2092   2088   2095   2096     1  0.0000000  1.2552000  3
   2092   2088   2095   2097     1  0.0000000  1.2552000  3
   2092   2104   2110   2111     1  0.0000000  0.6508444  3
   2092   2104   2110   2112     1  0.0000000  0.6508444  3
   2093   2092   2088   2095     1  0.0000000  1.2552000  3
   2093   2092   2104   2110     1  0.0000000  0.6508444  3
   2093   2092   2104   2105     1  0.0000000  0.6508444  3
   2093   2092   2104   2106     1  0.0000000  0.6508444  3
   2094   2092   2088   2095     1  0.0000000  1.2552000  3
   2094   2092   2104   2110     1  0.0000000  0.6508444  3
   2094   2092   2104   2105     1  0.0000000  0.6508444  3
   2094   2092   2104   2106     1  0.0000000  0.6508444  3
   2095   2098   2107   2108     1  0.0000000  0.6508444  3
   2095   2098   2107   2109     1  0.0000000  0.6508444  3
   2096   2095   2098   2107     1  0.0000000  0.6508444  3
   2096   2095   2098   2099     1  0.0000000  0.6508444  3
   2096   2095   2098   2100     1  0.0000000  0.6508444  3
   2097   2095   2098   2107     1  0.0000000  0.6508444  3
   2097   2095   2098   2099     1  0.0000000  0.6508444  3
   2097   2095   2098   2100     1  0.0000000  0.6508444  3
   2099   2098   2107   2116     1  0.0000000  1.0460000  1
   2099   2098   2107   2116     1  0.0000000  0.0000000  3
   2099   2098   2107   2108     1  0.0000000  0.6508444  3
   2099   2098   2107   2109     1  0.0000000  0.6508444  3
   2100   2098   2107   2116     1  0.0000000  1.0460000  1
   2100   2098   2107   2116     1  0.0000000  0.0000000  3
   2100   2098   2107   2108     1  0.0000000  0.6508444  3
   2100   2098   2107   2109     1  0.0000000  0.6508444  3
   2102   2101   2113   3939     1  0.0000000  1.0460000  1
   2102   2101   2113   3939     1  0.0000000  0.0000000  3
   2102   2101   2113   2114     1  0.0000000  0.6508444  3
   2102   2101   2113   2115     1  0.0000000  0.6508444  3
   2103   2101   2113   3939     1  0.0000000  1.0460000  1
   2103   2101   2113   3939     1  0.0000000  0.0000000  3
   2103   2101   2113   2114     1  0.0000000  0.6508444  3
   2103   2101   2113   2115     1  0.0000000  0.6508444  3
   2105   2104   2110   3926     1  0.0000000  1.0460000  1
   2105   2104   2110   3926     1  0.0000000  0.0000000  3
   2105   2104   2110   2111     1  0.0000000  0.6508444  3
   2105   2104   2110   2112     1  0.0000000  0.6508444  3
   2106   2104   2110   3926     1  0.0000000  1.0460000  1
   2106   2104   2110   3926     1  0.0000000  0.0000000  3
   2106   2104   2110   2111     1  0.0000000  0.6508444  3
   2106   2104   2110   2112     1  0.0000000  0.6508444  3
   2110   3926   3920   3921     1  0.0000000  1.6038667  3
   2110   3926   3920   3922     1  0.0000000  1.6038667  3
   2111   2110   3926   3920     1  0.0000000  1.6038667  3
   2112   2110   3926   3920     1  0.0000000  1.6038667  3
   2113   3939   3933   3934     1  0.0000000  1.6038667  3
   2113   3939   3933   3935     1  0.0000000  1.6038667  3
   2114   2113   3939   3933     1  0.0000000  1.6038667  3
   2115   2113   3939   3933     1  0.0000000  1.6038667  3
   2117   2118   2130   2131     1  0.0000000  0.6508444  3
   2117   2118   2130   2132     1  0.0000000  0.6508444  3
   2117   2121   2133   2134     1  0.0000000  0.6508444  3
   2117   2121   2133   2135     1  0.0000000  0.6508444  3
   2117   2124   2127   2128     1  0.0000000  0.6508444  3
   2117   2124   2127   2129     1  0.0000000  0.6508444  3
   2118   2117   2121   2122     1  0.0000000  1.2552000  3
   2118   2117   2121   2123     1  0.0000000  1.2552000  3
   2118   2117   2124   2125     1  0.0000000  1.2552000  3
   2118   2117   2124   2126     1  0.0000000  1.2552000  3
   2118   2130   2142   2143     1  0.0000000  0.6508444  3
   2118   2130   2142   2144     1  0.0000000  0.6508444  3
   2119   2118   2117   2121     1  0.0000000  1.2552000  3
   2119   2118   2117   2124     1  0.0000000  1.2552000  3
   2119   2118   2130   2142     1  0.0000000  0.6508444  3
   2119   2118   2130   2131     1  0.0000000  0.6508444  3
   2119   2118   2130   2132     1  0.0000000  0.6508444  3
   2120   2118   2117   2121     1  0.0000000  1.2552000  3
   2120   2118   2117   2124     1  0.0000000  1.2552000  3
   2120   2118   2130   2142     1  0.0000000  0.6508444  3
   2120   2118   2130   2131     1  0.0000000  0.6508444  3
   2120   2118   2130   2132     1  0.0000000  0.6508444  3
   2121   2117   2124   2125     1  0.0000000  1.2552000  3
   2121   2117   2124   2126     1  0.0000000  1.2552000  3
   2121   2133   2139   2140     1  0.0000000  0.6508444  3
   2121   2133   2139   2141     1  0.0000000  0.6508444  3
   2122   2121   2117   2124     1  0.0000000  1.2552000  3
   2122   2121   2133   2139     1  0.0000000  0.6508444  3
   2122   2121   2133   2134     1  0.0000000  0.6508444  3
   2122   2121   2133   2135     1  0.0000000  0.6508444  3
   2123   2121   2117   2124     1  0.0000000  1.2552000  3
   2123   2121   2133   2139     1  0.0000000  0.6508444  3
   2123   2121   2133   2134     1  0.0000000  0.6508444  3
   2123   2121   2133   2135     1  0.0000000  0.6508444  3
   2124   2127   2136   2137     1  0.0000000  0.6508444  3
   2124   2127   2136   2138     1  0.0000000  0.6508444  3
   2125   2124   2127   2136     1  0.0000000  0.6508444  3
   2125   2124   2127   2128     1  0.0000000  0.6508444  3
   2125   2124   2127   2129     1  0.0000000  0.6508444  3
   2126   2124   2127   2136     1  0.0000000  0.6508444  3
   2126   2124   2127   2128     1  0.0000000  0.6508444  3
   2126   2124   2127   2129     1  0.0000000  0.6508444  3
   2128   2127   2136   2145     1  0.0000000  1.0460000  1
   2128   2127   2136   2145     1  0.0000000  0.0000000  3
   2128   2127   2136   2137     1  0.0000000  0.6508444  3
   2128   2127   2136   2138     1  0.0000000  0.6508444  3
   2129   2127   2136   2145     1  0.0000000  1.0460000  1
   2129   2127   2136   2145     1  0.0000000  0.0000000  3
   2129   2127   2136   2137     1  0.0000000  0.6508444  3
   2129   2127   2136   2138     1  0.0000000  0.6508444  3
   2131   2130   2142   3965     1  0.0000000  1.0460000  1
   2131   2130   2142   3965     1  0.0000000  0.0000000  3
   2131   2130   2142   2143     1  0.0000000  0.6508444  3
   2131   2130   2142   2144     1  0.0000000  0.6508444  3
   2132   2130   2142   3965     1  0.0000000  1.0460000  1
   2132   2130   2142   3965     1  0.0000000  0.0000000  3
   2132   2130   2142   2143     1  0.0000000  0.6508444  3
   2132   2130   2142   2144     1  0.0000000  0.6508444  3
   2134   2133   2139   3952     1  0.0000000  1.0460000  1
   2134   2133   2139   3952     1  0.0000000  0.0000000  3
   2134   2133   2139   2140     1  0.0000000  0.6508444  3
   2134   2133   2139   2141     1  0.0000000  0.6508444  3
   2135   2133   2139   3952     1  0.0000000  1.0460000  1
   2135   2133   2139   3952     1  0.0000000  0.0000000  3
   2135   2133   2139   2140     1  0.0000000  0.6508444  3
   2135   2133   2139   2141     1  0.0000000  0.6508444  3
   2139   3952   3946   3947     1  0.0000000  1.6038667  3
   2139   3952   3946   3948     1  0.0000000  1.6038667  3
   2140   2139   3952   3946     1  0.0000000  1.6038667  3
   2141   2139   3952   3946     1  0.0000000  1.6038667  3
   2142   3965   3959   3960     1  0.0000000  1.6038667  3
   2142   3965   3959   3961     1  0.0000000  1.6038667  3
   2143   2142   3965   3959     1  0.0000000  1.6038667  3
   2144   2142   3965   3959     1  0.0000000  1.6038667  3
   2146   2147   2159   2160     1  0.0000000  0.6508444  3
   2146   2147   2159   2161     1  0.0000000  0.6508444  3
   2146   2150   2162   2163     1  0.0000000  0.6508444  3
   2146   2150   2162   2164     1  0.0000000  0.6508444  3
   2146   2153   2156   2157     1  0.0000000  0.6508444  3
   2146   2153   2156   2158     1  0.0000000  0.6508444  3
   2147   2146   2150   2151     1  0.0000000  1.2552000  3
   2147   2146   2150   2152     1  0.0000000  1.2552000  3
   2147   2146   2153   2154     1  0.0000000  1.2552000  3
   2147   2146   2153   2155     1  0.0000000  1.2552000  3
   2147   2159   2171   2172     1  0.0000000  0.6508444  3
   2147   2159   2171   2173     1  0.0000000  0.6508444  3
   2148   2147   2146   2150     1  0.0000000  1.2552000  3
   2148   2147   2146   2153     1  0.0000000  1.2552000  3
   2148   2147   2159   2171     1  0.0000000  0.6508444  3
   2148   2147   2159   2160     1  0.0000000  0.6508444  3
   2148   2147   2159   2161     1  0.0000000  0.6508444  3
   2149   2147   2146   2150     1  0.0000000  1.2552000  3
   2149   2147   2146   2153     1  0.0000000  1.2552000  3
   2149   2147   2159   2171     1  0.0000000  0.6508444  3
   2149   2147   2159   2160     1  0.0000000  0.6508444  3
   2149   2147   2159   2161     1  0.0000000  0.6508444  3
   2150   2146   2153   2154     1  0.0000000  1.2552000  3
   2150   2146   2153   2155     1  0.0000000  1.2552000  3
   2150   2162   2168   2169     1  0.0000000  0.6508444  3
   2150   2162   2168   2170     1  0.0000000  0.6508444  3
   2151   2150   2146   2153     1  0.0000000  1.2552000  3
   2151   2150   2162   2168     1  0.0000000  0.6508444  3
   2151   2150   2162   2163     1  0.0000000  0.6508444  3
   2151   2150   2162   2164     1  0.0000000  0.6508444  3
   2152   2150   2146   2153     1  0.0000000  1.2552000  3
   2152   2150   2162   2168     1  0.0000000  0.6508444  3
   2152   2150   2162   2163     1  0.0000000  0.6508444  3
   2152   2150   2162   2164     1  0.0000000  0.6508444  3
   2153   2156   2165   2166     1  0.0000000  0.6508444  3
   2153   2156   2165   2167     1  0.0000000  0.6508444  3
   2154   2153   2156   2165     1  0.0000000  0.6508444  3
   2154   2153   2156   2157     1  0.0000000  0.6508444  3
   2154   2153   2156   2158     1  0.0000000  0.6508444  3
   2155   2153   2156   2165     1  0.0000000  0.6508444  3
   2155   2153   2156   2157     1  0.0000000  0.6508444  3
   2155   2153   2156   2158     1  0.0000000  0.6508444  3
   2157   2156   2165   2174     1  0.0000000  1.0460000  1
   2157   2156   2165   2174     1  0.0000000  0.0000000  3
   2157   2156   2165   2166     1  0.0000000  0.6508444  3
   2157   2156   2165   2167     1  0.0000000  0.6508444  3
   2158   2156   2165   2174     1  0.0000000  1.0460000  1
   2158   2156   2165   2174     1  0.0000000  0.0000000  3
   2158   2156   2165   2166     1  0.0000000  0.6508444  3
   2158   2156   2165   2167     1  0.0000000  0.6508444  3
   2160   2159   2171   3991     1  0.0000000  1.0460000  1
   2160   2159   2171   3991     1  0.0000000  0.0000000  3
   2160   2159   2171   2172     1  0.0000000  0.6508444  3
   2160   2159   2171   2173     1  0.0000000  0.6508444  3
   2161   2159   2171   3991     1  0.0000000  1.0460000  1
   2161   2159   2171   3991     1  0.0000000  0.0000000  3
   2161   2159   2171   2172     1  0.0000000  0.6508444  3
   2161   2159   2171   2173     1  0.0000000  0.6508444  3
   2163   2162   2168   3978     1  0.0000000  1.0460000  1
   2163   2162   2168   3978     1  0.0000000  0.0000000  3
   2163   2162   2168   2169     1  0.0000000  0.6508444  3
   2163   2162   2168   2170     1  0.0000000  0.6508444  3
   2164   2162   2168   3978     1  0.0000000  1.0460000  1
   2164   2162   2168   3978     1  0.0000000  0.0000000  3
   2164   2162   2168   2169     1  0.0000000  0.6508444  3
   2164   2162   2168   2170     1  0.0000000  0.6508444  3
   2168   3978   3972   3973     1  0.0000000  1.6038667  3
   2168   3978   3972   3974     1  0.0000000  1.6038667  3
   2169   2168   3978   3972     1  0.0000000  1.6038667  3
   2170   2168   3978   3972     1  0.0000000  1.6038667  3
   2171   3991   3985   3986     1  0.0000000  1.6038667  3
   2171   3991   3985   3987     1  0.0000000  1.6038667  3
   2172   2171   3991   3985     1  0.0000000  1.6038667  3
   2173   2171   3991   3985     1  0.0000000  1.6038667  3
   2175   2176   2188   2189     1  0.0000000  0.6508444  3
   2175   2176   2188   2190     1  0.0000000  0.6508444  3
   2175   2179   2191   2192     1  0.0000000  0.6508444  3
   2175   2179   2191   2193     1  0.0000000  0.6508444  3
   2175   2182   2185   2186     1  0.0000000  0.6508444  3
   2175   2182   2185   2187     1  0.0000000  0.6508444  3
   2176   2175   2179   2180     1  0.0000000  1.2552000  3
   2176   2175   2179   2181     1  0.0000000  1.2552000  3
   2176   2175   2182   2183     1  0.0000000  1.2552000  3
   2176   2175   2182   2184     1  0.0000000  1.2552000  3
   2176   2188   2200   2201     1  0.0000000  0.6508444  3
   2176   2188   2200   2202     1  0.0000000  0.6508444  3
   2177   2176   2175   2179     1  0.0000000  1.2552000  3
   2177   2176   2175   2182     1  0.0000000  1.2552000  3
   2177   2176   2188   2200     1  0.0000000  0.6508444  3
   2177   2176   2188   2189     1  0.0000000  0.6508444  3
   2177   2176   2188   2190     1  0.0000000  0.6508444  3
   2178   2176   2175   2179     1  0.0000000  1.2552000  3
   2178   2176   2175   2182     1  0.0000000  1.2552000  3
   2178   2176   2188   2200     1  0.0000000  0.6508444  3
   2178   2176   2188   2189     1  0.0000000  0.6508444  3
   2178   2176   2188   2190     1  0.0000000  0.6508444  3
   2179   2175   2182   2183     1  0.0000000  1.2552000  3
   2179   2175   2182   2184     1  0.0000000  1.2552000  3
   2179   2191   2197   2198     1  0.0000000  0.6508444  3
   2179   2191   2197   2199     1  0.0000000  0.6508444  3
   2180   2179   2175   2182     1  0.0000000  1.2552000  3
   2180   2179   2191   2197     1  0.0000000  0.6508444  3
   2180   2179   2191   2192     1  0.0000000  0.6508444  3
   2180   2179   2191   2193     1  0.0000000  0.6508444  3
   2181   2179   2175   2182     1  0.0000000  1.2552000  3
   2181   2179   2191   2197     1  0.0000000  0.6508444  3
   2181   2179   2191   2192     1  0.0000000  0.6508444  3
   2181   2179   2191   2193     1  0.0000000  0.6508444  3
   2182   2185   2194   2195     1  0.0000000  0.6508444  3
   2182   2185   2194   2196     1  0.0000000  0.6508444  3
   2183   2182   2185   2194     1  0.0000000  0.6508444  3
   2183   2182   2185   2186     1  0.0000000  0.6508444  3
   2183   2182   2185   2187     1  0.0000000  0.6508444  3
   2184   2182   2185   2194     1  0.0000000  0.6508444  3
   2184   2182   2185   2186     1  0.0000000  0.6508444  3
   2184   2182   2185   2187     1  0.0000000  0.6508444  3
   2186   2185   2194   2203     1  0.0000000  1.0460000  1
   2186   2185   2194   2203     1  0.0000000  0.0000000  3
   2186   2185   2194   2195     1  0.0000000  0.6508444  3
   2186   2185   2194   2196     1  0.0000000  0.6508444  3
   2187   2185   2194   2203     1  0.0000000  1.0460000  1
   2187   2185   2194   2203     1  0.0000000  0.0000000  3
   2187   2185   2194   2195     1  0.0000000  0.6508444  3
   2187   2185   2194   2196     1  0.0000000  0.6508444  3
   2189   2188   2200   4017     1  0.0000000  1.0460000  1
   2189   2188   2200   4017     1  0.0000000  0.0000000  3
   2189   2188   2200   2201     1  0.0000000  0.6508444  3
   2189   2188   2200   2202     1  0.0000000  0.6508444  3
   2190   2188   2200   4017     1  0.0000000  1.0460000  1
   2190   2188   2200   4017     1  0.0000000  0.0000000  3
   2190   2188   2200   2201     1  0.0000000  0.6508444  3
   2190   2188   2200   2202     1  0.0000000  0.6508444  3
   2192   2191   2197   4004     1  0.0000000  1.0460000  1
   2192   2191   2197   4004     1  0.0000000  0.0000000  3
   2192   2191   2197   2198     1  0.0000000  0.6508444  3
   2192   2191   2197   2199     1  0.0000000  0.6508444  3
   2193   2191   2197   4004     1  0.0000000  1.0460000  1
   2193   2191   2197   4004     1  0.0000000  0.0000000  3
   2193   2191   2197   2198     1  0.0000000  0.6508444  3
   2193   2191   2197   2199     1  0.0000000  0.6508444  3
   2197   4004   3998   3999     1  0.0000000  1.6038667  3
   2197   4004   3998   4000     1  0.0000000  1.6038667  3
   2198   2197   4004   3998     1  0.0000000  1.6038667  3
   2199   2197   4004   3998     1  0.0000000  1.6038667  3
   2200   4017   4011   4012     1  0.0000000  1.6038667  3
   2200   4017   4011   4013     1  0.0000000  1.6038667  3
   2201   2200   4017   4011     1  0.0000000  1.6038667  3
   2202   2200   4017   4011     1  0.0000000  1.6038667  3
   2204   2205   2217   2218     1  0.0000000  0.6508444  3
   2204   2205   2217   2219     1  0.0000000  0.6508444  3
   2204   2208   2220   2221     1  0.0000000  0.6508444  3
   2204   2208   2220   2222     1  0.0000000  0.6508444  3
   2204   2211   2214   2215     1  0.0000000  0.6508444  3
   2204   2211   2214   2216     1  0.0000000  0.6508444  3
   2205   2204   2208   2209     1  0.0000000  1.2552000  3
   2205   2204   2208   2210     1  0.0000000  1.2552000  3
   2205   2204   2211   2212     1  0.0000000  1.2552000  3
   2205   2204   2211   2213     1  0.0000000  1.2552000  3
   2205   2217   2229   2230     1  0.0000000  0.6508444  3
   2205   2217   2229   2231     1  0.0000000  0.6508444  3
   2206   2205   2204   2208     1  0.0000000  1.2552000  3
   2206   2205   2204   2211     1  0.0000000  1.2552000  3
   2206   2205   2217   2229     1  0.0000000  0.6508444  3
   2206   2205   2217   2218     1  0.0000000  0.6508444  3
   2206   2205   2217   2219     1  0.0000000  0.6508444  3
   2207   2205   2204   2208     1  0.0000000  1.2552000  3
   2207   2205   2204   2211     1  0.0000000  1.2552000  3
   2207   2205   2217   2229     1  0.0000000  0.6508444  3
   2207   2205   2217   2218     1  0.0000000  0.6508444  3
   2207   2205   2217   2219     1  0.0000000  0.6508444  3
   2208   2204   2211   2212     1  0.0000000  1.2552000  3
   2208   2204   2211   2213     1  0.0000000  1.2552000  3
   2208   2220   2226   2227     1  0.0000000  0.6508444  3
   2208   2220   2226   2228     1  0.0000000  0.6508444  3
   2209   2208   2204   2211     1  0.0000000  1.2552000  3
   2209   2208   2220   2226     1  0.0000000  0.6508444  3
   2209   2208   2220   2221     1  0.0000000  0.6508444  3
   2209   2208   2220   2222     1  0.0000000  0.6508444  3
   2210   2208   2204   2211     1  0.0000000  1.2552000  3
   2210   2208   2220   2226     1  0.0000000  0.6508444  3
   2210   2208   2220   2221     1  0.0000000  0.6508444  3
   2210   2208   2220   2222     1  0.0000000  0.6508444  3
   2211   2214   2223   2224     1  0.0000000  0.6508444  3
   2211   2214   2223   2225     1  0.0000000  0.6508444  3
   2212   2211   2214   2223     1  0.0000000  0.6508444  3
   2212   2211   2214   2215     1  0.0000000  0.6508444  3
   2212   2211   2214   2216     1  0.0000000  0.6508444  3
   2213   2211   2214   2223     1  0.0000000  0.6508444  3
   2213   2211   2214   2215     1  0.0000000  0.6508444  3
   2213   2211   2214   2216     1  0.0000000  0.6508444  3
   2215   2214   2223   2232     1  0.0000000  1.0460000  1
   2215   2214   2223   2232     1  0.0000000  0.0000000  3
   2215   2214   2223   2224     1  0.0000000  0.6508444  3
   2215   2214   2223   2225     1  0.0000000  0.6508444  3
   2216   2214   2223   2232     1  0.0000000  1.0460000  1
   2216   2214   2223   2232     1  0.0000000  0.0000000  3
   2216   2214   2223   2224     1  0.0000000  0.6508444  3
   2216   2214   2223   2225     1  0.0000000  0.6508444  3
   2218   2217   2229   4043     1  0.0000000  1.0460000  1
   2218   2217   2229   4043     1  0.0000000  0.0000000  3
   2218   2217   2229   2230     1  0.0000000  0.6508444  3
   2218   2217   2229   2231     1  0.0000000  0.6508444  3
   2219   2217   2229   4043     1  0.0000000  1.0460000  1
   2219   2217   2229   4043     1  0.0000000  0.0000000  3
   2219   2217   2229   2230     1  0.0000000  0.6508444  3
   2219   2217   2229   2231     1  0.0000000  0.6508444  3
   2221   2220   2226   4030     1  0.0000000  1.0460000  1
   2221   2220   2226   4030     1  0.0000000  0.0000000  3
   2221   2220   2226   2227     1  0.0000000  0.6508444  3
   2221   2220   2226   2228     1  0.0000000  0.6508444  3
   2222   2220   2226   4030     1  0.0000000  1.0460000  1
   2222   2220   2226   4030     1  0.0000000  0.0000000  3
   2222   2220   2226   2227     1  0.0000000  0.6508444  3
   2222   2220   2226   2228     1  0.0000000  0.6508444  3
   2226   4030   4024   4025     1  0.0000000  1.6038667  3
   2226   4030   4024   4026     1  0.0000000  1.6038667  3
   2227   2226   4030   4024     1  0.0000000  1.6038667  3
   2228   2226   4030   4024     1  0.0000000  1.6038667  3
   2229   4043   4037   4038     1  0.0000000  1.6038667  3
   2229   4043   4037   4039     1  0.0000000  1.6038667  3
   2230   2229   4043   4037     1  0.0000000  1.6038667  3
   2231   2229   4043   4037     1  0.0000000  1.6038667  3
   2233   2234   2246   2247     1  0.0000000  0.6508444  3
   2233   2234   2246   2248     1  0.0000000  0.6508444  3
   2233   2237   2249   2250     1  0.0000000  0.6508444  3
   2233   2237   2249   2251     1  0.0000000  0.6508444  3
   2233   2240   2243   2244     1  0.0000000  0.6508444  3
   2233   2240   2243   2245     1  0.0000000  0.6508444  3
   2234   2233   2237   2238     1  0.0000000  1.2552000  3
   2234   2233   2237   2239     1  0.0000000  1.2552000  3
   2234   2233   2240   2241     1  0.0000000  1.2552000  3
   2234   2233   2240   2242     1  0.0000000  1.2552000  3
   2234   2246   2258   2259     1  0.0000000  0.6508444  3
   2234   2246   2258   2260     1  0.0000000  0.6508444  3
   2235   2234   2233   2237     1  0.0000000  1.2552000  3
   2235   2234   2233   2240     1  0.0000000  1.2552000  3
   2235   2234   2246   2258     1  0.0000000  0.6508444  3
   2235   2234   2246   2247     1  0.0000000  0.6508444  3
   2235   2234   2246   2248     1  0.0000000  0.6508444  3
   2236   2234   2233   2237     1  0.0000000  1.2552000  3
   2236   2234   2233   2240     1  0.0000000  1.2552000  3
   2236   2234   2246   2258     1  0.0000000  0.6508444  3
   2236   2234   2246   2247     1  0.0000000  0.6508444  3
   2236   2234   2246   2248     1  0.0000000  0.6508444  3
   2237   2233   2240   2241     1  0.0000000  1.2552000  3
   2237   2233   2240   2242     1  0.0000000  1.2552000  3
   2237   2249   2255   2256     1  0.0000000  0.6508444  3
   2237   2249   2255   2257     1  0.0000000  0.6508444  3
   2238   2237   2233   2240     1  0.0000000  1.2552000  3
   2238   2237   2249   2255     1  0.0000000  0.6508444  3
   2238   2237   2249   2250     1  0.0000000  0.6508444  3
   2238   2237   2249   2251     1  0.0000000  0.6508444  3
   2239   2237   2233   2240     1  0.0000000  1.2552000  3
   2239   2237   2249   2255     1  0.0000000  0.6508444  3
   2239   2237   2249   2250     1  0.0000000  0.6508444  3
   2239   2237   2249   2251     1  0.0000000  0.6508444  3
   2240   2243   2252   2253     1  0.0000000  0.6508444  3
   2240   2243   2252   2254     1  0.0000000  0.6508444  3
   2241   2240   2243   2252     1  0.0000000  0.6508444  3
   2241   2240   2243   2244     1  0.0000000  0.6508444  3
   2241   2240   2243   2245     1  0.0000000  0.6508444  3
   2242   2240   2243   2252     1  0.0000000  0.6508444  3
   2242   2240   2243   2244     1  0.0000000  0.6508444  3
   2242   2240   2243   2245     1  0.0000000  0.6508444  3
   2244   2243   2252   2261     1  0.0000000  1.0460000  1
   2244   2243   2252   2261     1  0.0000000  0.0000000  3
   2244   2243   2252   2253     1  0.0000000  0.6508444  3
   2244   2243   2252   2254     1  0.0000000  0.6508444  3
   2245   2243   2252   2261     1  0.0000000  1.0460000  1
   2245   2243   2252   2261     1  0.0000000  0.0000000  3
   2245   2243   2252   2253     1  0.0000000  0.6508444  3
   2245   2243   2252   2254     1  0.0000000  0.6508444  3
   2247   2246   2258   4069     1  0.0000000  1.0460000  1
   2247   2246   2258   4069     1  0.0000000  0.0000000  3
   2247   2246   2258   2259     1  0.0000000  0.6508444  3
   2247   2246   2258   2260     1  0.0000000  0.6508444  3
   2248   2246   2258   4069     1  0.0000000  1.0460000  1
   2248   2246   2258   4069     1  0.0000000  0.0000000  3
   2248   2246   2258   2259     1  0.0000000  0.6508444  3
   2248   2246   2258   2260     1  0.0000000  0.6508444  3
   2250   2249   2255   4056     1  0.0000000  1.0460000  1
   2250   2249   2255   4056     1  0.0000000  0.0000000  3
   2250   2249   2255   2256     1  0.0000000  0.6508444  3
   2250   2249   2255   2257     1  0.0000000  0.6508444  3
   2251   2249   2255   4056     1  0.0000000  1.0460000  1
   2251   2249   2255   4056     1  0.0000000  0.0000000  3
   2251   2249   2255   2256     1  0.0000000  0.6508444  3
   2251   2249   2255   2257     1  0.0000000  0.6508444  3
   2255   4056   4050   4051     1  0.0000000  1.6038667  3
   2255   4056   4050   4052     1  0.0000000  1.6038667  3
   2256   2255   4056   4050     1  0.0000000  1.6038667  3
   2257   2255   4056   4050     1  0.0000000  1.6038667  3
   2258   4069   4063   4064     1  0.0000000  1.6038667  3
   2258   4069   4063   4065     1  0.0000000  1.6038667  3
   2259   2258   4069   4063     1  0.0000000  1.6038667  3
   2260   2258   4069   4063     1  0.0000000  1.6038667  3
   2262   2263   2275   2276     1  0.0000000  0.6508444  3
   2262   2263   2275   2277     1  0.0000000  0.6508444  3
   2262   2266   2278   2279     1  0.0000000  0.6508444  3
   2262   2266   2278   2280     1  0.0000000  0.6508444  3
   2262   2269   2272   2273     1  0.0000000  0.6508444  3
   2262   2269   2272   2274     1  0.0000000  0.6508444  3
   2263   2262   2266   2267     1  0.0000000  1.2552000  3
   2263   2262   2266   2268     1  0.0000000  1.2552000  3
   2263   2262   2269   2270     1  0.0000000  1.2552000  3
   2263   2262   2269   2271     1  0.0000000  1.2552000  3
   2263   2275   2287   2288     1  0.0000000  0.6508444  3
   2263   2275   2287   2289     1  0.0000000  0.6508444  3
   2264   2263   2262   2266     1  0.0000000  1.2552000  3
   2264   2263   2262   2269     1  0.0000000  1.2552000  3
   2264   2263   2275   2287     1  0.0000000  0.6508444  3
   2264   2263   2275   2276     1  0.0000000  0.6508444  3
   2264   2263   2275   2277     1  0.0000000  0.6508444  3
   2265   2263   2262   2266     1  0.0000000  1.2552000  3
   2265   2263   2262   2269     1  0.0000000  1.2552000  3
   2265   2263   2275   2287     1  0.0000000  0.6508444  3
   2265   2263   2275   2276     1  0.0000000  0.6508444  3
   2265   2263   2275   2277     1  0.0000000  0.6508444  3
   2266   2262   2269   2270     1  0.0000000  1.2552000  3
   2266   2262   2269   2271     1  0.0000000  1.2552000  3
   2266   2278   2284   2285     1  0.0000000  0.6508444  3
   2266   2278   2284   2286     1  0.0000000  0.6508444  3
   2267   2266   2262   2269     1  0.0000000  1.2552000  3
   2267   2266   2278   2284     1  0.0000000  0.6508444  3
   2267   2266   2278   2279     1  0.0000000  0.6508444  3
   2267   2266   2278   2280     1  0.0000000  0.6508444  3
   2268   2266   2262   2269     1  0.0000000  1.2552000  3
   2268   2266   2278   2284     1  0.0000000  0.6508444  3
   2268   2266   2278   2279     1  0.0000000  0.6508444  3
   2268   2266   2278   2280     1  0.0000000  0.6508444  3
   2269   2272   2281   2282     1  0.0000000  0.6508444  3
   2269   2272   2281   2283     1  0.0000000  0.6508444  3
   2270   2269   2272   2281     1  0.0000000  0.6508444  3
   2270   2269   2272   2273     1  0.0000000  0.6508444  3
   2270   2269   2272   2274     1  0.0000000  0.6508444  3
   2271   2269   2272   2281     1  0.0000000  0.6508444  3
   2271   2269   2272   2273     1  0.0000000  0.6508444  3
   2271   2269   2272   2274     1  0.0000000  0.6508444  3
   2273   2272   2281   2290     1  0.0000000  1.0460000  1
   2273   2272   2281   2290     1  0.0000000  0.0000000  3
   2273   2272   2281   2282     1  0.0000000  0.6508444  3
   2273   2272   2281   2283     1  0.0000000  0.6508444  3
   2274   2272   2281   2290     1  0.0000000  1.0460000  1
   2274   2272   2281   2290     1  0.0000000  0.0000000  3
   2274   2272   2281   2282     1  0.0000000  0.6508444  3
   2274   2272   2281   2283     1  0.0000000  0.6508444  3
   2276   2275   2287   4095     1  0.0000000  1.0460000  1
   2276   2275   2287   4095     1  0.0000000  0.0000000  3
   2276   2275   2287   2288     1  0.0000000  0.6508444  3
   2276   2275   2287   2289     1  0.0000000  0.6508444  3
   2277   2275   2287   4095     1  0.0000000  1.0460000  1
   2277   2275   2287   4095     1  0.0000000  0.0000000  3
   2277   2275   2287   2288     1  0.0000000  0.6508444  3
   2277   2275   2287   2289     1  0.0000000  0.6508444  3
   2279   2278   2284   4082     1  0.0000000  1.0460000  1
   2279   2278   2284   4082     1  0.0000000  0.0000000  3
   2279   2278   2284   2285     1  0.0000000  0.6508444  3
   2279   2278   2284   2286     1  0.0000000  0.6508444  3
   2280   2278   2284   4082     1  0.0000000  1.0460000  1
   2280   2278   2284   4082     1  0.0000000  0.0000000  3
   2280   2278   2284   2285     1  0.0000000  0.6508444  3
   2280   2278   2284   2286     1  0.0000000  0.6508444  3
   2284   4082   4076   4077     1  0.0000000  1.6038667  3
   2284   4082   4076   4078     1  0.0000000  1.6038667  3
   2285   2284   4082   4076     1  0.0000000  1.6038667  3
   2286   2284   4082   4076     1  0.0000000  1.6038667  3
   2287   4095   4089   4090     1  0.0000000  1.6038667  3
   2287   4095   4089   4091     1  0.0000000  1.6038667  3
   2288   2287   4095   4089     1  0.0000000  1.6038667  3
   2289   2287   4095   4089     1  0.0000000  1.6038667  3
   2291   2292   2304   2305     1  0.0000000  0.6508444  3
   2291   2292   2304   2306     1  0.0000000  0.6508444  3
   2291   2295   2307   2308     1  0.0000000  0.6508444  3
   2291   2295   2307   2309     1  0.0000000  0.6508444  3
   2291   2298   2301   2302     1  0.0000000  0.6508444  3
   2291   2298   2301   2303     1  0.0000000  0.6508444  3
   2292   2291   2295   2296     1  0.0000000  1.2552000  3
   2292   2291   2295   2297     1  0.0000000  1.2552000  3
   2292   2291   2298   2299     1  0.0000000  1.2552000  3
   2292   2291   2298   2300     1  0.0000000  1.2552000  3
   2292   2304   2316   2317     1  0.0000000  0.6508444  3
   2292   2304   2316   2318     1  0.0000000  0.6508444  3
   2293   2292   2291   2295     1  0.0000000  1.2552000  3
   2293   2292   2291   2298     1  0.0000000  1.2552000  3
   2293   2292   2304   2316     1  0.0000000  0.6508444  3
   2293   2292   2304   2305     1  0.0000000  0.6508444  3
   2293   2292   2304   2306     1  0.0000000  0.6508444  3
   2294   2292   2291   2295     1  0.0000000  1.2552000  3
   2294   2292   2291   2298     1  0.0000000  1.2552000  3
   2294   2292   2304   2316     1  0.0000000  0.6508444  3
   2294   2292   2304   2305     1  0.0000000  0.6508444  3
   2294   2292   2304   2306     1  0.0000000  0.6508444  3
   2295   2291   2298   2299     1  0.0000000  1.2552000  3
   2295   2291   2298   2300     1  0.0000000  1.2552000  3
   2295   2307   2313   2314     1  0.0000000  0.6508444  3
   2295   2307   2313   2315     1  0.0000000  0.6508444  3
   2296   2295   2291   2298     1  0.0000000  1.2552000  3
   2296   2295   2307   2313     1  0.0000000  0.6508444  3
   2296   2295   2307   2308     1  0.0000000  0.6508444  3
   2296   2295   2307   2309     1  0.0000000  0.6508444  3
   2297   2295   2291   2298     1  0.0000000  1.2552000  3
   2297   2295   2307   2313     1  0.0000000  0.6508444  3
   2297   2295   2307   2308     1  0.0000000  0.6508444  3
   2297   2295   2307   2309     1  0.0000000  0.6508444  3
   2298   2301   2310   2311     1  0.0000000  0.6508444  3
   2298   2301   2310   2312     1  0.0000000  0.6508444  3
   2299   2298   2301   2310     1  0.0000000  0.6508444  3
   2299   2298   2301   2302     1  0.0000000  0.6508444  3
   2299   2298   2301   2303     1  0.0000000  0.6508444  3
   2300   2298   2301   2310     1  0.0000000  0.6508444  3
   2300   2298   2301   2302     1  0.0000000  0.6508444  3
   2300   2298   2301   2303     1  0.0000000  0.6508444  3
   2302   2301   2310   2319     1  0.0000000  1.0460000  1
   2302   2301   2310   2319     1  0.0000000  0.0000000  3
   2302   2301   2310   2311     1  0.0000000  0.6508444  3
   2302   2301   2310   2312     1  0.0000000  0.6508444  3
   2303   2301   2310   2319     1  0.0000000  1.0460000  1
   2303   2301   2310   2319     1  0.0000000  0.0000000  3
   2303   2301   2310   2311     1  0.0000000  0.6508444  3
   2303   2301   2310   2312     1  0.0000000  0.6508444  3
   2305   2304   2316   4121     1  0.0000000  1.0460000  1
   2305   2304   2316   4121     1  0.0000000  0.0000000  3
   2305   2304   2316   2317     1  0.0000000  0.6508444  3
   2305   2304   2316   2318     1  0.0000000  0.6508444  3
   2306   2304   2316   4121     1  0.0000000  1.0460000  1
   2306   2304   2316   4121     1  0.0000000  0.0000000  3
   2306   2304   2316   2317     1  0.0000000  0.6508444  3
   2306   2304   2316   2318     1  0.0000000  0.6508444  3
   2308   2307   2313   4108     1  0.0000000  1.0460000  1
   2308   2307   2313   4108     1  0.0000000  0.0000000  3
   2308   2307   2313   2314     1  0.0000000  0.6508444  3
   2308   2307   2313   2315     1  0.0000000  0.6508444  3
   2309   2307   2313   4108     1  0.0000000  1.0460000  1
   2309   2307   2313   4108     1  0.0000000  0.0000000  3
   2309   2307   2313   2314     1  0.0000000  0.6508444  3
   2309   2307   2313   2315     1  0.0000000  0.6508444  3
   2313   4108   4102   4103     1  0.0000000  1.6038667  3
   2313   4108   4102   4104     1  0.0000000  1.6038667  3
   2314   2313   4108   4102     1  0.0000000  1.6038667  3
   2315   2313   4108   4102     1  0.0000000  1.6038667  3
   2316   4121   4115   4116     1  0.0000000  1.6038667  3
   2316   4121   4115   4117     1  0.0000000  1.6038667  3
   2317   2316   4121   4115     1  0.0000000  1.6038667  3
   2318   2316   4121   4115     1  0.0000000  1.6038667  3
   2320   2321   2333   2334     1  0.0000000  0.6508444  3
   2320   2321   2333   2335     1  0.0000000  0.6508444  3
   2320   2324   2336   2337     1  0.0000000  0.6508444  3
   2320   2324   2336   2338     1  0.0000000  0.6508444  3
   2320   2327   2330   2331     1  0.0000000  0.6508444  3
   2320   2327   2330   2332     1  0.0000000  0.6508444  3
   2321   2320   2324   2325     1  0.0000000  1.2552000  3
   2321   2320   2324   2326     1  0.0000000  1.2552000  3
   2321   2320   2327   2328     1  0.0000000  1.2552000  3
   2321   2320   2327   2329     1  0.0000000  1.2552000  3
   2321   2333   2345   2346     1  0.0000000  0.6508444  3
   2321   2333   2345   2347     1  0.0000000  0.6508444  3
   2322   2321   2320   2324     1  0.0000000  1.2552000  3
   2322   2321   2320   2327     1  0.0000000  1.2552000  3
   2322   2321   2333   2345     1  0.0000000  0.6508444  3
   2322   2321   2333   2334     1  0.0000000  0.6508444  3
   2322   2321   2333   2335     1  0.0000000  0.6508444  3
   2323   2321   2320   2324     1  0.0000000  1.2552000  3
   2323   2321   2320   2327     1  0.0000000  1.2552000  3
   2323   2321   2333   2345     1  0.0000000  0.6508444  3
   2323   2321   2333   2334     1  0.0000000  0.6508444  3
   2323   2321   2333   2335     1  0.0000000  0.6508444  3
   2324   2320   2327   2328     1  0.0000000  1.2552000  3
   2324   2320   2327   2329     1  0.0000000  1.2552000  3
   2324   2336   2342   2343     1  0.0000000  0.6508444  3
   2324   2336   2342   2344     1  0.0000000  0.6508444  3
   2325   2324   2320   2327     1  0.0000000  1.2552000  3
   2325   2324   2336   2342     1  0.0000000  0.6508444  3
   2325   2324   2336   2337     1  0.0000000  0.6508444  3
   2325   2324   2336   2338     1  0.0000000  0.6508444  3
   2326   2324   2320   2327     1  0.0000000  1.2552000  3
   2326   2324   2336   2342     1  0.0000000  0.6508444  3
   2326   2324   2336   2337     1  0.0000000  0.6508444  3
   2326   2324   2336   2338     1  0.0000000  0.6508444  3
   2327   2330   2339   2340     1  0.0000000  0.6508444  3
   2327   2330   2339   2341     1  0.0000000  0.6508444  3
   2328   2327   2330   2339     1  0.0000000  0.6508444  3
   2328   2327   2330   2331     1  0.0000000  0.6508444  3
   2328   2327   2330   2332     1  0.0000000  0.6508444  3
   2329   2327   2330   2339     1  0.0000000  0.6508444  3
   2329   2327   2330   2331     1  0.0000000  0.6508444  3
   2329   2327   2330   2332     1  0.0000000  0.6508444  3
   2331   2330   2339   2348     1  0.0000000  1.0460000  1
   2331   2330   2339   2348     1  0.0000000  0.0000000  3
   2331   2330   2339   2340     1  0.0000000  0.6508444  3
   2331   2330   2339   2341     1  0.0000000  0.6508444  3
   2332   2330   2339   2348     1  0.0000000  1.0460000  1
   2332   2330   2339   2348     1  0.0000000  0.0000000  3
   2332   2330   2339   2340     1  0.0000000  0.6508444  3
   2332   2330   2339   2341     1  0.0000000  0.6508444  3
   2334   2333   2345   4147     1  0.0000000  1.0460000  1
   2334   2333   2345   4147     1  0.0000000  0.0000000  3
   2334   2333   2345   2346     1  0.0000000  0.6508444  3
   2334   2333   2345   2347     1  0.0000000  0.6508444  3
   2335   2333   2345   4147     1  0.0000000  1.0460000  1
   2335   2333   2345   4147     1  0.0000000  0.0000000  3
   2335   2333   2345   2346     1  0.0000000  0.6508444  3
   2335   2333   2345   2347     1  0.0000000  0.6508444  3
   2337   2336   2342   4134     1  0.0000000  1.0460000  1
   2337   2336   2342   4134     1  0.0000000  0.0000000  3
   2337   2336   2342   2343     1  0.0000000  0.6508444  3
   2337   2336   2342   2344     1  0.0000000  0.6508444  3
   2338   2336   2342   4134     1  0.0000000  1.0460000  1
   2338   2336   2342   4134     1  0.0000000  0.0000000  3
   2338   2336   2342   2343     1  0.0000000  0.6508444  3
   2338   2336   2342   2344     1  0.0000000  0.6508444  3
   2342   4134   4128   4129     1  0.0000000  1.6038667  3
   2342   4134   4128   4130     1  0.0000000  1.6038667  3
   2343   2342   4134   4128     1  0.0000000  1.6038667  3
   2344   2342   4134   4128     1  0.0000000  1.6038667  3
   2345   4147   4141   4142     1  0.0000000  1.6038667  3
   2345   4147   4141   4143     1  0.0000000  1.6038667  3
   2346   2345   4147   4141     1  0.0000000  1.6038667  3
   2347   2345   4147   4141     1  0.0000000  1.6038667  3
   2349   2350   2362   2363     1  0.0000000  0.6508444  3
   2349   2350   2362   2364     1  0.0000000  0.6508444  3
   2349   2353   2365   2366     1  0.0000000  0.6508444  3
   2349   2353   2365   2367     1  0.0000000  0.6508444  3
   2349   2356   2359   2360     1  0.0000000  0.6508444  3
   2349   2356   2359   2361     1  0.0000000  0.6508444  3
   2350   2349   2353   2354     1  0.0000000  1.2552000  3
   2350   2349   2353   2355     1  0.0000000  1.2552000  3
   2350   2349   2356   2357     1  0.0000000  1.2552000  3
   2350   2349   2356   2358     1  0.0000000  1.2552000  3
   2350   2362   2374   2375     1  0.0000000  0.6508444  3
   2350   2362   2374   2376     1  0.0000000  0.6508444  3
   2351   2350   2349   2353     1  0.0000000  1.2552000  3
   2351   2350   2349   2356     1  0.0000000  1.2552000  3
   2351   2350   2362   2374     1  0.0000000  0.6508444  3
   2351   2350   2362   2363     1  0.0000000  0.6508444  3
   2351   2350   2362   2364     1  0.0000000  0.6508444  3
   2352   2350   2349   2353     1  0.0000000  1.2552000  3
   2352   2350   2349   2356     1  0.0000000  1.2552000  3
   2352   2350   2362   2374     1  0.0000000  0.6508444  3
   2352   2350   2362   2363     1  0.0000000  0.6508444  3
   2352   2350   2362   2364     1  0.0000000  0.6508444  3
   2353   2349   2356   2357     1  0.0000000  1.2552000  3
   2353   2349   2356   2358     1  0.0000000  1.2552000  3
   2353   2365   2371   2372     1  0.0000000  0.6508444  3
   2353   2365   2371   2373     1  0.0000000  0.6508444  3
   2354   2353   2349   2356     1  0.0000000  1.2552000  3
   2354   2353   2365   2371     1  0.0000000  0.6508444  3
   2354   2353   2365   2366     1  0.0000000  0.6508444  3
   2354   2353   2365   2367     1  0.0000000  0.6508444  3
   2355   2353   2349   2356     1  0.0000000  1.2552000  3
   2355   2353   2365   2371     1  0.0000000  0.6508444  3
   2355   2353   2365   2366     1  0.0000000  0.6508444  3
   2355   2353   2365   2367     1  0.0000000  0.6508444  3
   2356   2359   2368   2369     1  0.0000000  0.6508444  3
   2356   2359   2368   2370     1  0.0000000  0.6508444  3
   2357   2356   2359   2368     1  0.0000000  0.6508444  3
   2357   2356   2359   2360     1  0.0000000  0.6508444  3
   2357   2356   2359   2361     1  0.0000000  0.6508444  3
   2358   2356   2359   2368     1  0.0000000  0.6508444  3
   2358   2356   2359   2360     1  0.0000000  0.6508444  3
   2358   2356   2359   2361     1  0.0000000  0.6508444  3
   2360   2359   2368   2377     1  0.0000000  1.0460000  1
   2360   2359   2368   2377     1  0.0000000  0.0000000  3
   2360   2359   2368   2369     1  0.0000000  0.6508444  3
   2360   2359   2368   2370     1  0.0000000  0.6508444  3
   2361   2359   2368   2377     1  0.0000000  1.0460000  1
   2361   2359   2368   2377     1  0.0000000  0.0000000  3
   2361   2359   2368   2369     1  0.0000000  0.6508444  3
   2361   2359   2368   2370     1  0.0000000  0.6508444  3
   2363   2362   2374   4173     1  0.0000000  1.0460000  1
   2363   2362   2374   4173     1  0.0000000  0.0000000  3
   2363   2362   2374   2375     1  0.0000000  0.6508444  3
   2363   2362   2374   2376     1  0.0000000  0.6508444  3
   2364   2362   2374   4173     1  0.0000000  1.0460000  1
   2364   2362   2374   4173     1  0.0000000  0.0000000  3
   2364   2362   2374   2375     1  0.0000000  0.6508444  3
   2364   2362   2374   2376     1  0.0000000  0.6508444  3
   2366   2365   2371   4160     1  0.0000000  1.0460000  1
   2366   2365   2371   4160     1  0.0000000  0.0000000  3
   2366   2365   2371   2372     1  0.0000000  0.6508444  3
   2366   2365   2371   2373     1  0.0000000  0.6508444  3
   2367   2365   2371   4160     1  0.0000000  1.0460000  1
   2367   2365   2371   4160     1  0.0000000  0.0000000  3
   2367   2365   2371   2372     1  0.0000000  0.6508444  3
   2367   2365   2371   2373     1  0.0000000  0.6508444  3
   2371   4160   4154   4155     1  0.0000000  1.6038667  3
   2371   4160   4154   4156     1  0.0000000  1.6038667  3
   2372   2371   4160   4154     1  0.0000000  1.6038667  3
   2373   2371   4160   4154     1  0.0000000  1.6038667  3
   2374   4173   4167   4168     1  0.0000000  1.6038667  3
   2374   4173   4167   4169     1  0.0000000  1.6038667  3
   2375   2374   4173   4167     1  0.0000000  1.6038667  3
   2376   2374   4173   4167     1  0.0000000  1.6038667  3
   2378   2379   2391   2392     1  0.0000000  0.6508444  3
   2378   2379   2391   2393     1  0.0000000  0.6508444  3
   2378   2382   2394   2395     1  0.0000000  0.6508444  3
   2378   2382   2394   2396     1  0.0000000  0.6508444  3
   2378   2385   2388   2389     1  0.0000000  0.6508444  3
   2378   2385   2388   2390     1  0.0000000  0.6508444  3
   2379   2378   2382   2383     1  0.0000000  1.2552000  3
   2379   2378   2382   2384     1  0.0000000  1.2552000  3
   2379   2378   2385   2386     1  0.0000000  1.2552000  3
   2379   2378   2385   2387     1  0.0000000  1.2552000  3
   2379   2391   2403   2404     1  0.0000000  0.6508444  3
   2379   2391   2403   2405     1  0.0000000  0.6508444  3
   2380   2379   2378   2382     1  0.0000000  1.2552000  3
   2380   2379   2378   2385     1  0.0000000  1.2552000  3
   2380   2379   2391   2403     1  0.0000000  0.6508444  3
   2380   2379   2391   2392     1  0.0000000  0.6508444  3
   2380   2379   2391   2393     1  0.0000000  0.6508444  3
   2381   2379   2378   2382     1  0.0000000  1.2552000  3
   2381   2379   2378   2385     1  0.0000000  1.2552000  3
   2381   2379   2391   2403     1  0.0000000  0.6508444  3
   2381   2379   2391   2392     1  0.0000000  0.6508444  3
   2381   2379   2391   2393     1  0.0000000  0.6508444  3
   2382   2378   2385   2386     1  0.0000000  1.2552000  3
   2382   2378   2385   2387     1  0.0000000  1.2552000  3
   2382   2394   2400   2401     1  0.0000000  0.6508444  3
   2382   2394   2400   2402     1  0.0000000  0.6508444  3
   2383   2382   2378   2385     1  0.0000000  1.2552000  3
   2383   2382   2394   2400     1  0.0000000  0.6508444  3
   2383   2382   2394   2395     1  0.0000000  0.6508444  3
   2383   2382   2394   2396     1  0.0000000  0.6508444  3
   2384   2382   2378   2385     1  0.0000000  1.2552000  3
   2384   2382   2394   2400     1  0.0000000  0.6508444  3
   2384   2382   2394   2395     1  0.0000000  0.6508444  3
   2384   2382   2394   2396     1  0.0000000  0.6508444  3
   2385   2388   2397   2398     1  0.0000000  0.6508444  3
   2385   2388   2397   2399     1  0.0000000  0.6508444  3
   2386   2385   2388   2397     1  0.0000000  0.6508444  3
   2386   2385   2388   2389     1  0.0000000  0.6508444  3
   2386   2385   2388   2390     1  0.0000000  0.6508444  3
   2387   2385   2388   2397     1  0.0000000  0.6508444  3
   2387   2385   2388   2389     1  0.0000000  0.6508444  3
   2387   2385   2388   2390     1  0.0000000  0.6508444  3
   2389   2388   2397   2406     1  0.0000000  1.0460000  1
   2389   2388   2397   2406     1  0.0000000  0.0000000  3
   2389   2388   2397   2398     1  0.0000000  0.6508444  3
   2389   2388   2397   2399     1  0.0000000  0.6508444  3
   2390   2388   2397   2406     1  0.0000000  1.0460000  1
   2390   2388   2397   2406     1  0.0000000  0.0000000  3
   2390   2388   2397   2398     1  0.0000000  0.6508444  3
   2390   2388   2397   2399     1  0.0000000  0.6508444  3
   2392   2391   2403   4199     1  0.0000000  1.0460000  1
   2392   2391   2403   4199     1  0.0000000  0.0000000  3
   2392   2391   2403   2404     1  0.0000000  0.6508444  3
   2392   2391   2403   2405     1  0.0000000  0.6508444  3
   2393   2391   2403   4199     1  0.0000000  1.0460000  1
   2393   2391   2403   4199     1  0.0000000  0.0000000  3
   2393   2391   2403   2404     1  0.0000000  0.6508444  3
   2393   2391   2403   2405     1  0.0000000  0.6508444  3
   2395   2394   2400   4186     1  0.0000000  1.0460000  1
   2395   2394   2400   4186     1  0.0000000  0.0000000  3
   2395   2394   2400   2401     1  0.0000000  0.6508444  3
   2395   2394   2400   2402     1  0.0000000  0.6508444  3
   2396   2394   2400   4186     1  0.0000000  1.0460000  1
   2396   2394   2400   4186     1  0.0000000  0.0000000  3
   2396   2394   2400   2401     1  0.0000000  0.6508444  3
   2396   2394   2400   2402     1  0.0000000  0.6508444  3
   2400   4186   4180   4181     1  0.0000000  1.6038667  3
   2400   4186   4180   4182     1  0.0000000  1.6038667  3
   2401   2400   4186   4180     1  0.0000000  1.6038667  3
   2402   2400   4186   4180     1  0.0000000  1.6038667  3
   2403   4199   4193   4194     1  0.0000000  1.6038667  3
   2403   4199   4193   4195     1  0.0000000  1.6038667  3
   2404   2403   4199   4193     1  0.0000000  1.6038667  3
   2405   2403   4199   4193     1  0.0000000  1.6038667  3
   2407   2408   2420   2421     1  0.0000000  0.6508444  3
   2407   2408   2420   2422     1  0.0000000  0.6508444  3
   2407   2411   2423   2424     1  0.0000000  0.6508444  3
   2407   2411   2423   2425     1  0.0000000  0.6508444  3
   2407   2414   2417   2418     1  0.0000000  0.6508444  3
   2407   2414   2417   2419     1  0.0000000  0.6508444  3
   2408   2407   2411   2412     1  0.0000000  1.2552000  3
   2408   2407   2411   2413     1  0.0000000  1.2552000  3
   2408   2407   2414   2415     1  0.0000000  1.2552000  3
   2408   2407   2414   2416     1  0.0000000  1.2552000  3
   2408   2420   2432   2433     1  0.0000000  0.6508444  3
   2408   2420   2432   2434     1  0.0000000  0.6508444  3
   2409   2408   2407   2411     1  0.0000000  1.2552000  3
   2409   2408   2407   2414     1  0.0000000  1.2552000  3
   2409   2408   2420   2432     1  0.0000000  0.6508444  3
   2409   2408   2420   2421     1  0.0000000  0.6508444  3
   2409   2408   2420   2422     1  0.0000000  0.6508444  3
   2410   2408   2407   2411     1  0.0000000  1.2552000  3
   2410   2408   2407   2414     1  0.0000000  1.2552000  3
   2410   2408   2420   2432     1  0.0000000  0.6508444  3
   2410   2408   2420   2421     1  0.0000000  0.6508444  3
   2410   2408   2420   2422     1  0.0000000  0.6508444  3
   2411   2407   2414   2415     1  0.0000000  1.2552000  3
   2411   2407   2414   2416     1  0.0000000  1.2552000  3
   2411   2423   2429   2430     1  0.0000000  0.6508444  3
   2411   2423   2429   2431     1  0.0000000  0.6508444  3
   2412   2411   2407   2414     1  0.0000000  1.2552000  3
   2412   2411   2423   2429     1  0.0000000  0.6508444  3
   2412   2411   2423   2424     1  0.0000000  0.6508444  3
   2412   2411   2423   2425     1  0.0000000  0.6508444  3
   2413   2411   2407   2414     1  0.0000000  1.2552000  3
   2413   2411   2423   2429     1  0.0000000  0.6508444  3
   2413   2411   2423   2424     1  0.0000000  0.6508444  3
   2413   2411   2423   2425     1  0.0000000  0.6508444  3
   2414   2417   2426   2427     1  0.0000000  0.6508444  3
   2414   2417   2426   2428     1  0.0000000  0.6508444  3
   2415   2414   2417   2426     1  0.0000000  0.6508444  3
   2415   2414   2417   2418     1  0.0000000  0.6508444  3
   2415   2414   2417   2419     1  0.0000000  0.6508444  3
   2416   2414   2417   2426     1  0.0000000  0.6508444  3
   2416   2414   2417   2418     1  0.0000000  0.6508444  3
   2416   2414   2417   2419     1  0.0000000  0.6508444  3
   2418   2417   2426   2435     1  0.0000000  1.0460000  1
   2418   2417   2426   2435     1  0.0000000  0.0000000  3
   2418   2417   2426   2427     1  0.0000000  0.6508444  3
   2418   2417   2426   2428     1  0.0000000  0.6508444  3
   2419   2417   2426   2435     1  0.0000000  1.0460000  1
   2419   2417   2426   2435     1  0.0000000  0.0000000  3
   2419   2417   2426   2427     1  0.0000000  0.6508444  3
   2419   2417   2426   2428     1  0.0000000  0.6508444  3
   2421   2420   2432   4225     1  0.0000000  1.0460000  1
   2421   2420   2432   4225     1  0.0000000  0.0000000  3
   2421   2420   2432   2433     1  0.0000000  0.6508444  3
   2421   2420   2432   2434     1  0.0000000  0.6508444  3
   2422   2420   2432   4225     1  0.0000000  1.0460000  1
   2422   2420   2432   4225     1  0.0000000  0.0000000  3
   2422   2420   2432   2433     1  0.0000000  0.6508444  3
   2422   2420   2432   2434     1  0.0000000  0.6508444  3
   2424   2423   2429   4212     1  0.0000000  1.0460000  1
   2424   2423   2429   4212     1  0.0000000  0.0000000  3
   2424   2423   2429   2430     1  0.0000000  0.6508444  3
   2424   2423   2429   2431     1  0.0000000  0.6508444  3
   2425   2423   2429   4212     1  0.0000000  1.0460000  1
   2425   2423   2429   4212     1  0.0000000  0.0000000  3
   2425   2423   2429   2430     1  0.0000000  0.6508444  3
   2425   2423   2429   2431     1  0.0000000  0.6508444  3
   2429   4212   4206   4207     1  0.0000000  1.6038667  3
   2429   4212   4206   4208     1  0.0000000  1.6038667  3
   2430   2429   4212   4206     1  0.0000000  1.6038667  3
   2431   2429   4212   4206     1  0.0000000  1.6038667  3
   2432   4225   4219   4220     1  0.0000000  1.6038667  3
   2432   4225   4219   4221     1  0.0000000  1.6038667  3
   2433   2432   4225   4219     1  0.0000000  1.6038667  3
   2434   2432   4225   4219     1  0.0000000  1.6038667  3
   2436   2437   2449   2450     1  0.0000000  0.6508444  3
   2436   2437   2449   2451     1  0.0000000  0.6508444  3
   2436   2440   2452   2453     1  0.0000000  0.6508444  3
   2436   2440   2452   2454     1  0.0000000  0.6508444  3
   2436   2443   2446   2447     1  0.0000000  0.6508444  3
   2436   2443   2446   2448     1  0.0000000  0.6508444  3
   2437   2436   2440   2441     1  0.0000000  1.2552000  3
   2437   2436   2440   2442     1  0.0000000  1.2552000  3
   2437   2436   2443   2444     1  0.0000000  1.2552000  3
   2437   2436   2443   2445     1  0.0000000  1.2552000  3
   2437   2449   2461   2462     1  0.0000000  0.6508444  3
   2437   2449   2461   2463     1  0.0000000  0.6508444  3
   2438   2437   2436   2440     1  0.0000000  1.2552000  3
   2438   2437   2436   2443     1  0.0000000  1.2552000  3
   2438   2437   2449   2461     1  0.0000000  0.6508444  3
   2438   2437   2449   2450     1  0.0000000  0.6508444  3
   2438   2437   2449   2451     1  0.0000000  0.6508444  3
   2439   2437   2436   2440     1  0.0000000  1.2552000  3
   2439   2437   2436   2443     1  0.0000000  1.2552000  3
   2439   2437   2449   2461     1  0.0000000  0.6508444  3
   2439   2437   2449   2450     1  0.0000000  0.6508444  3
   2439   2437   2449   2451     1  0.0000000  0.6508444  3
   2440   2436   2443   2444     1  0.0000000  1.2552000  3
   2440   2436   2443   2445     1  0.0000000  1.2552000  3
   2440   2452   2458   2459     1  0.0000000  0.6508444  3
   2440   2452   2458   2460     1  0.0000000  0.6508444  3
   2441   2440   2436   2443     1  0.0000000  1.2552000  3
   2441   2440   2452   2458     1  0.0000000  0.6508444  3
   2441   2440   2452   2453     1  0.0000000  0.6508444  3
   2441   2440   2452   2454     1  0.0000000  0.6508444  3
   2442   2440   2436   2443     1  0.0000000  1.2552000  3
   2442   2440   2452   2458     1  0.0000000  0.6508444  3
   2442   2440   2452   2453     1  0.0000000  0.6508444  3
   2442   2440   2452   2454     1  0.0000000  0.6508444  3
   2443   2446   2455   2456     1  0.0000000  0.6508444  3
   2443   2446   2455   2457     1  0.0000000  0.6508444  3
   2444   2443   2446   2455     1  0.0000000  0.6508444  3
   2444   2443   2446   2447     1  0.0000000  0.6508444  3
   2444   2443   2446   2448     1  0.0000000  0.6508444  3
   2445   2443   2446   2455     1  0.0000000  0.6508444  3
   2445   2443   2446   2447     1  0.0000000  0.6508444  3
   2445   2443   2446   2448     1  0.0000000  0.6508444  3
   2447   2446   2455   2464     1  0.0000000  1.0460000  1
   2447   2446   2455   2464     1  0.0000000  0.0000000  3
   2447   2446   2455   2456     1  0.0000000  0.6508444  3
   2447   2446   2455   2457     1  0.0000000  0.6508444  3
   2448   2446   2455   2464     1  0.0000000  1.0460000  1
   2448   2446   2455   2464     1  0.0000000  0.0000000  3
   2448   2446   2455   2456     1  0.0000000  0.6508444  3
   2448   2446   2455   2457     1  0.0000000  0.6508444  3
   2450   2449   2461   4251     1  0.0000000  1.0460000  1
   2450   2449   2461   4251     1  0.0000000  0.0000000  3
   2450   2449   2461   2462     1  0.0000000  0.6508444  3
   2450   2449   2461   2463     1  0.0000000  0.6508444  3
   2451   2449   2461   4251     1  0.0000000  1.0460000  1
   2451   2449   2461   4251     1  0.0000000  0.0000000  3
   2451   2449   2461   2462     1  0.0000000  0.6508444  3
   2451   2449   2461   2463     1  0.0000000  0.6508444  3
   2453   2452   2458   4238     1  0.0000000  1.0460000  1
   2453   2452   2458   4238     1  0.0000000  0.0000000  3
   2453   2452   2458   2459     1  0.0000000  0.6508444  3
   2453   2452   2458   2460     1  0.0000000  0.6508444  3
   2454   2452   2458   4238     1  0.0000000  1.0460000  1
   2454   2452   2458   4238     1  0.0000000  0.0000000  3
   2454   2452   2458   2459     1  0.0000000  0.6508444  3
   2454   2452   2458   2460     1  0.0000000  0.6508444  3
   2458   4238   4232   4233     1  0.0000000  1.6038667  3
   2458   4238   4232   4234     1  0.0000000  1.6038667  3
   2459   2458   4238   4232     1  0.0000000  1.6038667  3
   2460   2458   4238   4232     1  0.0000000  1.6038667  3
   2461   4251   4245   4246     1  0.0000000  1.6038667  3
   2461   4251   4245   4247     1  0.0000000  1.6038667  3
   2462   2461   4251   4245     1  0.0000000  1.6038667  3
   2463   2461   4251   4245     1  0.0000000  1.6038667  3
   2465   2466   2478   2479     1  0.0000000  0.6508444  3
   2465   2466   2478   2480     1  0.0000000  0.6508444  3
   2465   2469   2481   2482     1  0.0000000  0.6508444  3
   2465   2469   2481   2483     1  0.0000000  0.6508444  3
   2465   2472   2475   2476     1  0.0000000  0.6508444  3
   2465   2472   2475   2477     1  0.0000000  0.6508444  3
   2466   2465   2469   2470     1  0.0000000  1.2552000  3
   2466   2465   2469   2471     1  0.0000000  1.2552000  3
   2466   2465   2472   2473     1  0.0000000  1.2552000  3
   2466   2465   2472   2474     1  0.0000000  1.2552000  3
   2466   2478   2490   2491     1  0.0000000  0.6508444  3
   2466   2478   2490   2492     1  0.0000000  0.6508444  3
   2467   2466   2465   2469     1  0.0000000  1.2552000  3
   2467   2466   2465   2472     1  0.0000000  1.2552000  3
   2467   2466   2478   2490     1  0.0000000  0.6508444  3
   2467   2466   2478   2479     1  0.0000000  0.6508444  3
   2467   2466   2478   2480     1  0.0000000  0.6508444  3
   2468   2466   2465   2469     1  0.0000000  1.2552000  3
   2468   2466   2465   2472     1  0.0000000  1.2552000  3
   2468   2466   2478   2490     1  0.0000000  0.6508444  3
   2468   2466   2478   2479     1  0.0000000  0.6508444  3
   2468   2466   2478   2480     1  0.0000000  0.6508444  3
   2469   2465   2472   2473     1  0.0000000  1.2552000  3
   2469   2465   2472   2474     1  0.0000000  1.2552000  3
   2469   2481   2487   2488     1  0.0000000  0.6508444  3
   2469   2481   2487   2489     1  0.0000000  0.6508444  3
   2470   2469   2465   2472     1  0.0000000  1.2552000  3
   2470   2469   2481   2487     1  0.0000000  0.6508444  3
   2470   2469   2481   2482     1  0.0000000  0.6508444  3
   2470   2469   2481   2483     1  0.0000000  0.6508444  3
   2471   2469   2465   2472     1  0.0000000  1.2552000  3
   2471   2469   2481   2487     1  0.0000000  0.6508444  3
   2471   2469   2481   2482     1  0.0000000  0.6508444  3
   2471   2469   2481   2483     1  0.0000000  0.6508444  3
   2472   2475   2484   2485     1  0.0000000  0.6508444  3
   2472   2475   2484   2486     1  0.0000000  0.6508444  3
   2473   2472   2475   2484     1  0.0000000  0.6508444  3
   2473   2472   2475   2476     1  0.0000000  0.6508444  3
   2473   2472   2475   2477     1  0.0000000  0.6508444  3
   2474   2472   2475   2484     1  0.0000000  0.6508444  3
   2474   2472   2475   2476     1  0.0000000  0.6508444  3
   2474   2472   2475   2477     1  0.0000000  0.6508444  3
   2476   2475   2484   2493     1  0.0000000  1.0460000  1
   2476   2475   2484   2493     1  0.0000000  0.0000000  3
   2476   2475   2484   2485     1  0.0000000  0.6508444  3
   2476   2475   2484   2486     1  0.0000000  0.6508444  3
   2477   2475   2484   2493     1  0.0000000  1.0460000  1
   2477   2475   2484   2493     1  0.0000000  0.0000000  3
   2477   2475   2484   2485     1  0.0000000  0.6508444  3
   2477   2475   2484   2486     1  0.0000000  0.6508444  3
   2479   2478   2490   4277     1  0.0000000  1.0460000  1
   2479   2478   2490   4277     1  0.0000000  0.0000000  3
   2479   2478   2490   2491     1  0.0000000  0.6508444  3
   2479   2478   2490   2492     1  0.0000000  0.6508444  3
   2480   2478   2490   4277     1  0.0000000  1.0460000  1
   2480   2478   2490   4277     1  0.0000000  0.0000000  3
   2480   2478   2490   2491     1  0.0000000  0.6508444  3
   2480   2478   2490   2492     1  0.0000000  0.6508444  3
   2482   2481   2487   4264     1  0.0000000  1.0460000  1
   2482   2481   2487   4264     1  0.0000000  0.0000000  3
   2482   2481   2487   2488     1  0.0000000  0.6508444  3
   2482   2481   2487   2489     1  0.0000000  0.6508444  3
   2483   2481   2487   4264     1  0.0000000  1.0460000  1
   2483   2481   2487   4264     1  0.0000000  0.0000000  3
   2483   2481   2487   2488     1  0.0000000  0.6508444  3
   2483   2481   2487   2489     1  0.0000000  0.6508444  3
   2487   4264   4258   4259     1  0.0000000  1.6038667  3
   2487   4264   4258   4260     1  0.0000000  1.6038667  3
   2488   2487   4264   4258     1  0.0000000  1.6038667  3
   2489   2487   4264   4258     1  0.0000000  1.6038667  3
   2490   4277   4271   4272     1  0.0000000  1.6038667  3
   2490   4277   4271   4273     1  0.0000000  1.6038667  3
   2491   2490   4277   4271     1  0.0000000  1.6038667  3
   2492   2490   4277   4271     1  0.0000000  1.6038667  3
   2494   2495   2507   2508     1  0.0000000  0.6508444  3
   2494   2495   2507   2509     1  0.0000000  0.6508444  3
   2494   2498   2510   2511     1  0.0000000  0.6508444  3
   2494   2498   2510   2512     1  0.0000000  0.6508444  3
   2494   2501   2504   2505     1  0.0000000  0.6508444  3
   2494   2501   2504   2506     1  0.0000000  0.6508444  3
   2495   2494   2498   2499     1  0.0000000  1.2552000  3
   2495   2494   2498   2500     1  0.0000000  1.2552000  3
   2495   2494   2501   2502     1  0.0000000  1.2552000  3
   2495   2494   2501   2503     1  0.0000000  1.2552000  3
   2495   2507   2519   2520     1  0.0000000  0.6508444  3
   2495   2507   2519   2521     1  0.0000000  0.6508444  3
   2496   2495   2494   2498     1  0.0000000  1.2552000  3
   2496   2495   2494   2501     1  0.0000000  1.2552000  3
   2496   2495   2507   2519     1  0.0000000  0.6508444  3
   2496   2495   2507   2508     1  0.0000000  0.6508444  3
   2496   2495   2507   2509     1  0.0000000  0.6508444  3
   2497   2495   2494   2498     1  0.0000000  1.2552000  3
   2497   2495   2494   2501     1  0.0000000  1.2552000  3
   2497   2495   2507   2519     1  0.0000000  0.6508444  3
   2497   2495   2507   2508     1  0.0000000  0.6508444  3
   2497   2495   2507   2509     1  0.0000000  0.6508444  3
   2498   2494   2501   2502     1  0.0000000  1.2552000  3
   2498   2494   2501   2503     1  0.0000000  1.2552000  3
   2498   2510   2516   2517     1  0.0000000  0.6508444  3
   2498   2510   2516   2518     1  0.0000000  0.6508444  3
   2499   2498   2494   2501     1  0.0000000  1.2552000  3
   2499   2498   2510   2516     1  0.0000000  0.6508444  3
   2499   2498   2510   2511     1  0.0000000  0.6508444  3
   2499   2498   2510   2512     1  0.0000000  0.6508444  3
   2500   2498   2494   2501     1  0.0000000  1.2552000  3
   2500   2498   2510   2516     1  0.0000000  0.6508444  3
   2500   2498   2510   2511     1  0.0000000  0.6508444  3
   2500   2498   2510   2512     1  0.0000000  0.6508444  3
   2501   2504   2513   2514     1  0.0000000  0.6508444  3
   2501   2504   2513   2515     1  0.0000000  0.6508444  3
   2502   2501   2504   2513     1  0.0000000  0.6508444  3
   2502   2501   2504   2505     1  0.0000000  0.6508444  3
   2502   2501   2504   2506     1  0.0000000  0.6508444  3
   2503   2501   2504   2513     1  0.0000000  0.6508444  3
   2503   2501   2504   2505     1  0.0000000  0.6508444  3
   2503   2501   2504   2506     1  0.0000000  0.6508444  3
   2505   2504   2513   2522     1  0.0000000  1.0460000  1
   2505   2504   2513   2522     1  0.0000000  0.0000000  3
   2505   2504   2513   2514     1  0.0000000  0.6508444  3
   2505   2504   2513   2515     1  0.0000000  0.6508444  3
   2506   2504   2513   2522     1  0.0000000  1.0460000  1
   2506   2504   2513   2522     1  0.0000000  0.0000000  3
   2506   2504   2513   2514     1  0.0000000  0.6508444  3
   2506   2504   2513   2515     1  0.0000000  0.6508444  3
   2508   2507   2519   4303     1  0.0000000  1.0460000  1
   2508   2507   2519   4303     1  0.0000000  0.0000000  3
   2508   2507   2519   2520     1  0.0000000  0.6508444  3
   2508   2507   2519   2521     1  0.0000000  0.6508444  3
   2509   2507   2519   4303     1  0.0000000  1.0460000  1
   2509   2507   2519   4303     1  0.0000000  0.0000000  3
   2509   2507   2519   2520     1  0.0000000  0.6508444  3
   2509   2507   2519   2521     1  0.0000000  0.6508444  3
   2511   2510   2516   4290     1  0.0000000  1.0460000  1
   2511   2510   2516   4290     1  0.0000000  0.0000000  3
   2511   2510   2516   2517     1  0.0000000  0.6508444  3
   2511   2510   2516   2518     1  0.0000000  0.6508444  3
   2512   2510   2516   4290     1  0.0000000  1.0460000  1
   2512   2510   2516   4290     1  0.0000000  0.0000000  3
   2512   2510   2516   2517     1  0.0000000  0.6508444  3
   2512   2510   2516   2518     1  0.0000000  0.6508444  3
   2516   4290   4284   4285     1  0.0000000  1.6038667  3
   2516   4290   4284   4286     1  0.0000000  1.6038667  3
   2517   2516   4290   4284     1  0.0000000  1.6038667  3
   2518   2516   4290   4284     1  0.0000000  1.6038667  3
   2519   4303   4297   4298     1  0.0000000  1.6038667  3
   2519   4303   4297   4299     1  0.0000000  1.6038667  3
   2520   2519   4303   4297     1  0.0000000  1.6038667  3
   2521   2519   4303   4297     1  0.0000000  1.6038667  3
   2523   2524   2536   2537     1  0.0000000  0.6508444  3
   2523   2524   2536   2538     1  0.0000000  0.6508444  3
   2523   2527   2539   2540     1  0.0000000  0.6508444  3
   2523   2527   2539   2541     1  0.0000000  0.6508444  3
   2523   2530   2533   2534     1  0.0000000  0.6508444  3
   2523   2530   2533   2535     1  0.0000000  0.6508444  3
   2524   2523   2527   2528     1  0.0000000  1.2552000  3
   2524   2523   2527   2529     1  0.0000000  1.2552000  3
   2524   2523   2530   2531     1  0.0000000  1.2552000  3
   2524   2523   2530   2532     1  0.0000000  1.2552000  3
   2524   2536   2548   2549     1  0.0000000  0.6508444  3
   2524   2536   2548   2550     1  0.0000000  0.6508444  3
   2525   2524   2523   2527     1  0.0000000  1.2552000  3
   2525   2524   2523   2530     1  0.0000000  1.2552000  3
   2525   2524   2536   2548     1  0.0000000  0.6508444  3
   2525   2524   2536   2537     1  0.0000000  0.6508444  3
   2525   2524   2536   2538     1  0.0000000  0.6508444  3
   2526   2524   2523   2527     1  0.0000000  1.2552000  3
   2526   2524   2523   2530     1  0.0000000  1.2552000  3
   2526   2524   2536   2548     1  0.0000000  0.6508444  3
   2526   2524   2536   2537     1  0.0000000  0.6508444  3
   2526   2524   2536   2538     1  0.0000000  0.6508444  3
   2527   2523   2530   2531     1  0.0000000  1.2552000  3
   2527   2523   2530   2532     1  0.0000000  1.2552000  3
   2527   2539   2545   2546     1  0.0000000  0.6508444  3
   2527   2539   2545   2547     1  0.0000000  0.6508444  3
   2528   2527   2523   2530     1  0.0000000  1.2552000  3
   2528   2527   2539   2545     1  0.0000000  0.6508444  3
   2528   2527   2539   2540     1  0.0000000  0.6508444  3
   2528   2527   2539   2541     1  0.0000000  0.6508444  3
   2529   2527   2523   2530     1  0.0000000  1.2552000  3
   2529   2527   2539   2545     1  0.0000000  0.6508444  3
   2529   2527   2539   2540     1  0.0000000  0.6508444  3
   2529   2527   2539   2541     1  0.0000000  0.6508444  3
   2530   2533   2542   2543     1  0.0000000  0.6508444  3
   2530   2533   2542   2544     1  0.0000000  0.6508444  3
   2531   2530   2533   2542     1  0.0000000  0.6508444  3
   2531   2530   2533   2534     1  0.0000000  0.6508444  3
   2531   2530   2533   2535     1  0.0000000  0.6508444  3
   2532   2530   2533   2542     1  0.0000000  0.6508444  3
   2532   2530   2533   2534     1  0.0000000  0.6508444  3
   2532   2530   2533   2535     1  0.0000000  0.6508444  3
   2534   2533   2542   2551     1  0.0000000  1.0460000  1
   2534   2533   2542   2551     1  0.0000000  0.0000000  3
   2534   2533   2542   2543     1  0.0000000  0.6508444  3
   2534   2533   2542   2544     1  0.0000000  0.6508444  3
   2535   2533   2542   2551     1  0.0000000  1.0460000  1
   2535   2533   2542   2551     1  0.0000000  0.0000000  3
   2535   2533   2542   2543     1  0.0000000  0.6508444  3
   2535   2533   2542   2544     1  0.0000000  0.6508444  3
   2537   2536   2548   4329     1  0.0000000  1.0460000  1
   2537   2536   2548   4329     1  0.0000000  0.0000000  3
   2537   2536   2548   2549     1  0.0000000  0.6508444  3
   2537   2536   2548   2550     1  0.0000000  0.6508444  3
   2538   2536   2548   4329     1  0.0000000  1.0460000  1
   2538   2536   2548   4329     1  0.0000000  0.0000000  3
   2538   2536   2548   2549     1  0.0000000  0.6508444  3
   2538   2536   2548   2550     1  0.0000000  0.6508444  3
   2540   2539   2545   4316     1  0.0000000  1.0460000  1
   2540   2539   2545   4316     1  0.0000000  0.0000000  3
   2540   2539   2545   2546     1  0.0000000  0.6508444  3
   2540   2539   2545   2547     1  0.0000000  0.6508444  3
   2541   2539   2545   4316     1  0.0000000  1.0460000  1
   2541   2539   2545   4316     1  0.0000000  0.0000000  3
   2541   2539   2545   2546     1  0.0000000  0.6508444  3
   2541   2539   2545   2547     1  0.0000000  0.6508444  3
   2545   4316   4310   4311     1  0.0000000  1.6038667  3
   2545   4316   4310   4312     1  0.0000000  1.6038667  3
   2546   2545   4316   4310     1  0.0000000  1.6038667  3
   2547   2545   4316   4310     1  0.0000000  1.6038667  3
   2548   4329   4323   4324     1  0.0000000  1.6038667  3
   2548   4329   4323   4325     1  0.0000000  1.6038667  3
   2549   2548   4329   4323     1  0.0000000  1.6038667  3
   2550   2548   4329   4323     1  0.0000000  1.6038667  3
   2552   2553   2565   2566     1  0.0000000  0.6508444  3
   2552   2553   2565   2567     1  0.0000000  0.6508444  3
   2552   2556   2568   2569     1  0.0000000  0.6508444  3
   2552   2556   2568   2570     1  0.0000000  0.6508444  3
   2552   2559   2562   2563     1  0.0000000  0.6508444  3
   2552   2559   2562   2564     1  0.0000000  0.6508444  3
   2553   2552   2556   2557     1  0.0000000  1.2552000  3
   2553   2552   2556   2558     1  0.0000000  1.2552000  3
   2553   2552   2559   2560     1  0.0000000  1.2552000  3
   2553   2552   2559   2561     1  0.0000000  1.2552000  3
   2553   2565   2577   2578     1  0.0000000  0.6508444  3
   2553   2565   2577   2579     1  0.0000000  0.6508444  3
   2554   2553   2552   2556     1  0.0000000  1.2552000  3
   2554   2553   2552   2559     1  0.0000000  1.2552000  3
   2554   2553   2565   2577     1  0.0000000  0.6508444  3
   2554   2553   2565   2566     1  0.0000000  0.6508444  3
   2554   2553   2565   2567     1  0.0000000  0.6508444  3
   2555   2553   2552   2556     1  0.0000000  1.2552000  3
   2555   2553   2552   2559     1  0.0000000  1.2552000  3
   2555   2553   2565   2577     1  0.0000000  0.6508444  3
   2555   2553   2565   2566     1  0.0000000  0.6508444  3
   2555   2553   2565   2567     1  0.0000000  0.6508444  3
   2556   2552   2559   2560     1  0.0000000  1.2552000  3
   2556   2552   2559   2561     1  0.0000000  1.2552000  3
   2556   2568   2574   2575     1  0.0000000  0.6508444  3
   2556   2568   2574   2576     1  0.0000000  0.6508444  3
   2557   2556   2552   2559     1  0.0000000  1.2552000  3
   2557   2556   2568   2574     1  0.0000000  0.6508444  3
   2557   2556   2568   2569     1  0.0000000  0.6508444  3
   2557   2556   2568   2570     1  0.0000000  0.6508444  3
   2558   2556   2552   2559     1  0.0000000  1.2552000  3
   2558   2556   2568   2574     1  0.0000000  0.6508444  3
   2558   2556   2568   2569     1  0.0000000  0.6508444  3
   2558   2556   2568   2570     1  0.0000000  0.6508444  3
   2559   2562   2571   2572     1  0.0000000  0.6508444  3
   2559   2562   2571   2573     1  0.0000000  0.6508444  3
   2560   2559   2562   2571     1  0.0000000  0.6508444  3
   2560   2559   2562   2563     1  0.0000000  0.6508444  3
   2560   2559   2562   2564     1  0.0000000  0.6508444  3
   2561   2559   2562   2571     1  0.0000000  0.6508444  3
   2561   2559   2562   2563     1  0.0000000  0.6508444  3
   2561   2559   2562   2564     1  0.0000000  0.6508444  3
   2563   2562   2571   2580     1  0.0000000  1.0460000  1
   2563   2562   2571   2580     1  0.0000000  0.0000000  3
   2563   2562   2571   2572     1  0.0000000  0.6508444  3
   2563   2562   2571   2573     1  0.0000000  0.6508444  3
   2564   2562   2571   2580     1  0.0000000  1.0460000  1
   2564   2562   2571   2580     1  0.0000000  0.0000000  3
   2564   2562   2571   2572     1  0.0000000  0.6508444  3
   2564   2562   2571   2573     1  0.0000000  0.6508444  3
   2566   2565   2577   4355     1  0.0000000  1.0460000  1
   2566   2565   2577   4355     1  0.0000000  0.0000000  3
   2566   2565   2577   2578     1  0.0000000  0.6508444  3
   2566   2565   2577   2579     1  0.0000000  0.6508444  3
   2567   2565   2577   4355     1  0.0000000  1.0460000  1
   2567   2565   2577   4355     1  0.0000000  0.0000000  3
   2567   2565   2577   2578     1  0.0000000  0.6508444  3
   2567   2565   2577   2579     1  0.0000000  0.6508444  3
   2569   2568   2574   4342     1  0.0000000  1.0460000  1
   2569   2568   2574   4342     1  0.0000000  0.0000000  3
   2569   2568   2574   2575     1  0.0000000  0.6508444  3
   2569   2568   2574   2576     1  0.0000000  0.6508444  3
   2570   2568   2574   4342     1  0.0000000  1.0460000  1
   2570   2568   2574   4342     1  0.0000000  0.0000000  3
   2570   2568   2574   2575     1  0.0000000  0.6508444  3
   2570   2568   2574   2576     1  0.0000000  0.6508444  3
   2574   4342   4336   4337     1  0.0000000  1.6038667  3
   2574   4342   4336   4338     1  0.0000000  1.6038667  3
   2575   2574   4342   4336     1  0.0000000  1.6038667  3
   2576   2574   4342   4336     1  0.0000000  1.6038667  3
   2577   4355   4349   4350     1  0.0000000  1.6038667  3
   2577   4355   4349   4351     1  0.0000000  1.6038667  3
   2578   2577   4355   4349     1  0.0000000  1.6038667  3
   2579   2577   4355   4349     1  0.0000000  1.6038667  3
   2581   2582   2594   2595     1  0.0000000  0.6508444  3
   2581   2582   2594   2596     1  0.0000000  0.6508444  3
   2581   2585   2597   2598     1  0.0000000  0.6508444  3
   2581   2585   2597   2599     1  0.0000000  0.6508444  3
   2581   2588   2591   2592     1  0.0000000  0.6508444  3
   2581   2588   2591   2593     1  0.0000000  0.6508444  3
   2582   2581   2585   2586     1  0.0000000  1.2552000  3
   2582   2581   2585   2587     1  0.0000000  1.2552000  3
   2582   2581   2588   2589     1  0.0000000  1.2552000  3
   2582   2581   2588   2590     1  0.0000000  1.2552000  3
   2582   2594   2606   2607     1  0.0000000  0.6508444  3
   2582   2594   2606   2608     1  0.0000000  0.6508444  3
   2583   2582   2581   2585     1  0.0000000  1.2552000  3
   2583   2582   2581   2588     1  0.0000000  1.2552000  3
   2583   2582   2594   2606     1  0.0000000  0.6508444  3
   2583   2582   2594   2595     1  0.0000000  0.6508444  3
   2583   2582   2594   2596     1  0.0000000  0.6508444  3
   2584   2582   2581   2585     1  0.0000000  1.2552000  3
   2584   2582   2581   2588     1  0.0000000  1.2552000  3
   2584   2582   2594   2606     1  0.0000000  0.6508444  3
   2584   2582   2594   2595     1  0.0000000  0.6508444  3
   2584   2582   2594   2596     1  0.0000000  0.6508444  3
   2585   2581   2588   2589     1  0.0000000  1.2552000  3
   2585   2581   2588   2590     1  0.0000000  1.2552000  3
   2585   2597   2603   2604     1  0.0000000  0.6508444  3
   2585   2597   2603   2605     1  0.0000000  0.6508444  3
   2586   2585   2581   2588     1  0.0000000  1.2552000  3
   2586   2585   2597   2603     1  0.0000000  0.6508444  3
   2586   2585   2597   2598     1  0.0000000  0.6508444  3
   2586   2585   2597   2599     1  0.0000000  0.6508444  3
   2587   2585   2581   2588     1  0.0000000  1.2552000  3
   2587   2585   2597   2603     1  0.0000000  0.6508444  3
   2587   2585   2597   2598     1  0.0000000  0.6508444  3
   2587   2585   2597   2599     1  0.0000000  0.6508444  3
   2588   2591   2600   2601     1  0.0000000  0.6508444  3
   2588   2591   2600   2602     1  0.0000000  0.6508444  3
   2589   2588   2591   2600     1  0.0000000  0.6508444  3
   2589   2588   2591   2592     1  0.0000000  0.6508444  3
   2589   2588   2591   2593     1  0.0000000  0.6508444  3
   2590   2588   2591   2600     1  0.0000000  0.6508444  3
   2590   2588   2591   2592     1  0.0000000  0.6508444  3
   2590   2588   2591   2593     1  0.0000000  0.6508444  3
   2592   2591   2600   2609     1  0.0000000  1.0460000  1
   2592   2591   2600   2609     1  0.0000000  0.0000000  3
   2592   2591   2600   2601     1  0.0000000  0.6508444  3
   2592   2591   2600   2602     1  0.0000000  0.6508444  3
   2593   2591   2600   2609     1  0.0000000  1.0460000  1
   2593   2591   2600   2609     1  0.0000000  0.0000000  3
   2593   2591   2600   2601     1  0.0000000  0.6508444  3
   2593   2591   2600   2602     1  0.0000000  0.6508444  3
   2595   2594   2606   4381     1  0.0000000  1.0460000  1
   2595   2594   2606   4381     1  0.0000000  0.0000000  3
   2595   2594   2606   2607     1  0.0000000  0.6508444  3
   2595   2594   2606   2608     1  0.0000000  0.6508444  3
   2596   2594   2606   4381     1  0.0000000  1.0460000  1
   2596   2594   2606   4381     1  0.0000000  0.0000000  3
   2596   2594   2606   2607     1  0.0000000  0.6508444  3
   2596   2594   2606   2608     1  0.0000000  0.6508444  3
   2598   2597   2603   4368     1  0.0000000  1.0460000  1
   2598   2597   2603   4368     1  0.0000000  0.0000000  3
   2598   2597   2603   2604     1  0.0000000  0.6508444  3
   2598   2597   2603   2605     1  0.0000000  0.6508444  3
   2599   2597   2603   4368     1  0.0000000  1.0460000  1
   2599   2597   2603   4368     1  0.0000000  0.0000000  3
   2599   2597   2603   2604     1  0.0000000  0.6508444  3
   2599   2597   2603   2605     1  0.0000000  0.6508444  3
   2603   4368   4362   4363     1  0.0000000  1.6038667  3
   2603   4368   4362   4364     1  0.0000000  1.6038667  3
   2604   2603   4368   4362     1  0.0000000  1.6038667  3
   2605   2603   4368   4362     1  0.0000000  1.6038667  3
   2606   4381   4375   4376     1  0.0000000  1.6038667  3
   2606   4381   4375   4377     1  0.0000000  1.6038667  3
   2607   2606   4381   4375     1  0.0000000  1.6038667  3
   2608   2606   4381   4375     1  0.0000000  1.6038667  3
   2610   2611   2623   2624     1  0.0000000  0.6508444  3
   2610   2611   2623   2625     1  0.0000000  0.6508444  3
   2610   2614   2626   2627     1  0.0000000  0.6508444  3
   2610   2614   2626   2628     1  0.0000000  0.6508444  3
   2610   2617   2620   2621     1  0.0000000  0.6508444  3
   2610   2617   2620   2622     1  0.0000000  0.6508444  3
   2611   2610   2614   2615     1  0.0000000  1.2552000  3
   2611   2610   2614   2616     1  0.0000000  1.2552000  3
   2611   2610   2617   2618     1  0.0000000  1.2552000  3
   2611   2610   2617   2619     1  0.0000000  1.2552000  3
   2611   2623   2635   2636     1  0.0000000  0.6508444  3
   2611   2623   2635   2637     1  0.0000000  0.6508444  3
   2612   2611   2610   2614     1  0.0000000  1.2552000  3
   2612   2611   2610   2617     1  0.0000000  1.2552000  3
   2612   2611   2623   2635     1  0.0000000  0.6508444  3
   2612   2611   2623   2624     1  0.0000000  0.6508444  3
   2612   2611   2623   2625     1  0.0000000  0.6508444  3
   2613   2611   2610   2614     1  0.0000000  1.2552000  3
   2613   2611   2610   2617     1  0.0000000  1.2552000  3
   2613   2611   2623   2635     1  0.0000000  0.6508444  3
   2613   2611   2623   2624     1  0.0000000  0.6508444  3
   2613   2611   2623   2625     1  0.0000000  0.6508444  3
   2614   2610   2617   2618     1  0.0000000  1.2552000  3
   2614   2610   2617   2619     1  0.0000000  1.2552000  3
   2614   2626   2632   2633     1  0.0000000  0.6508444  3
   2614   2626   2632   2634     1  0.0000000  0.6508444  3
   2615   2614   2610   2617     1  0.0000000  1.2552000  3
   2615   2614   2626   2632     1  0.0000000  0.6508444  3
   2615   2614   2626   2627     1  0.0000000  0.6508444  3
   2615   2614   2626   2628     1  0.0000000  0.6508444  3
   2616   2614   2610   2617     1  0.0000000  1.2552000  3
   2616   2614   2626   2632     1  0.0000000  0.6508444  3
   2616   2614   2626   2627     1  0.0000000  0.6508444  3
   2616   2614   2626   2628     1  0.0000000  0.6508444  3
   2617   2620   2629   2630     1  0.0000000  0.6508444  3
   2617   2620   2629   2631     1  0.0000000  0.6508444  3
   2618   2617   2620   2629     1  0.0000000  0.6508444  3
   2618   2617   2620   2621     1  0.0000000  0.6508444  3
   2618   2617   2620   2622     1  0.0000000  0.6508444  3
   2619   2617   2620   2629     1  0.0000000  0.6508444  3
   2619   2617   2620   2621     1  0.0000000  0.6508444  3
   2619   2617   2620   2622     1  0.0000000  0.6508444  3
   2621   2620   2629   2638     1  0.0000000  1.0460000  1
   2621   2620   2629   2638     1  0.0000000  0.0000000  3
   2621   2620   2629   2630     1  0.0000000  0.6508444  3
   2621   2620   2629   2631     1  0.0000000  0.6508444  3
   2622   2620   2629   2638     1  0.0000000  1.0460000  1
   2622   2620   2629   2638     1  0.0000000  0.0000000  3
   2622   2620   2629   2630     1  0.0000000  0.6508444  3
   2622   2620   2629   2631     1  0.0000000  0.6508444  3
   2624   2623   2635   4407     1  0.0000000  1.0460000  1
   2624   2623   2635   4407     1  0.0000000  0.0000000  3
   2624   2623   2635   2636     1  0.0000000  0.6508444  3
   2624   2623   2635   2637     1  0.0000000  0.6508444  3
   2625   2623   2635   4407     1  0.0000000  1.0460000  1
   2625   2623   2635   4407     1  0.0000000  0.0000000  3
   2625   2623   2635   2636     1  0.0000000  0.6508444  3
   2625   2623   2635   2637     1  0.0000000  0.6508444  3
   2627   2626   2632   4394     1  0.0000000  1.0460000  1
   2627   2626   2632   4394     1  0.0000000  0.0000000  3
   2627   2626   2632   2633     1  0.0000000  0.6508444  3
   2627   2626   2632   2634     1  0.0000000  0.6508444  3
   2628   2626   2632   4394     1  0.0000000  1.0460000  1
   2628   2626   2632   4394     1  0.0000000  0.0000000  3
   2628   2626   2632   2633     1  0.0000000  0.6508444  3
   2628   2626   2632   2634     1  0.0000000  0.6508444  3
   2632   4394   4388   4389     1  0.0000000  1.6038667  3
   2632   4394   4388   4390     1  0.0000000  1.6038667  3
   2633   2632   4394   4388     1  0.0000000  1.6038667  3
   2634   2632   4394   4388     1  0.0000000  1.6038667  3
   2635   4407   4401   4402     1  0.0000000  1.6038667  3
   2635   4407   4401   4403     1  0.0000000  1.6038667  3
   2636   2635   4407   4401     1  0.0000000  1.6038667  3
   2637   2635   4407   4401     1  0.0000000  1.6038667  3
   2639   2640   2652   2653     1  0.0000000  0.6508444  3
   2639   2640   2652   2654     1  0.0000000  0.6508444  3
   2639   2643   2655   2656     1  0.0000000  0.6508444  3
   2639   2643   2655   2657     1  0.0000000  0.6508444  3
   2639   2646   2649   2650     1  0.0000000  0.6508444  3
   2639   2646   2649   2651     1  0.0000000  0.6508444  3
   2640   2639   2643   2644     1  0.0000000  1.2552000  3
   2640   2639   2643   2645     1  0.0000000  1.2552000  3
   2640   2639   2646   2647     1  0.0000000  1.2552000  3
   2640   2639   2646   2648     1  0.0000000  1.2552000  3
   2640   2652   2664   2665     1  0.0000000  0.6508444  3
   2640   2652   2664   2666     1  0.0000000  0.6508444  3
   2641   2640   2639   2643     1  0.0000000  1.2552000  3
   2641   2640   2639   2646     1  0.0000000  1.2552000  3
   2641   2640   2652   2664     1  0.0000000  0.6508444  3
   2641   2640   2652   2653     1  0.0000000  0.6508444  3
   2641   2640   2652   2654     1  0.0000000  0.6508444  3
   2642   2640   2639   2643     1  0.0000000  1.2552000  3
   2642   2640   2639   2646     1  0.0000000  1.2552000  3
   2642   2640   2652   2664     1  0.0000000  0.6508444  3
   2642   2640   2652   2653     1  0.0000000  0.6508444  3
   2642   2640   2652   2654     1  0.0000000  0.6508444  3
   2643   2639   2646   2647     1  0.0000000  1.2552000  3
   2643   2639   2646   2648     1  0.0000000  1.2552000  3
   2643   2655   2661   2662     1  0.0000000  0.6508444  3
   2643   2655   2661   2663     1  0.0000000  0.6508444  3
   2644   2643   2639   2646     1  0.0000000  1.2552000  3
   2644   2643   2655   2661     1  0.0000000  0.6508444  3
   2644   2643   2655   2656     1  0.0000000  0.6508444  3
   2644   2643   2655   2657     1  0.0000000  0.6508444  3
   2645   2643   2639   2646     1  0.0000000  1.2552000  3
   2645   2643   2655   2661     1  0.0000000  0.6508444  3
   2645   2643   2655   2656     1  0.0000000  0.6508444  3
   2645   2643   2655   2657     1  0.0000000  0.6508444  3
   2646   2649   2658   2659     1  0.0000000  0.6508444  3
   2646   2649   2658   2660     1  0.0000000  0.6508444  3
   2647   2646   2649   2658     1  0.0000000  0.6508444  3
   2647   2646   2649   2650     1  0.0000000  0.6508444  3
   2647   2646   2649   2651     1  0.0000000  0.6508444  3
   2648   2646   2649   2658     1  0.0000000  0.6508444  3
   2648   2646   2649   2650     1  0.0000000  0.6508444  3
   2648   2646   2649   2651     1  0.0000000  0.6508444  3
   2650   2649   2658   2667     1  0.0000000  1.0460000  1
   2650   2649   2658   2667     1  0.0000000  0.0000000  3
   2650   2649   2658   2659     1  0.0000000  0.6508444  3
   2650   2649   2658   2660     1  0.0000000  0.6508444  3
   2651   2649   2658   2667     1  0.0000000  1.0460000  1
   2651   2649   2658   2667     1  0.0000000  0.0000000  3
   2651   2649   2658   2659     1  0.0000000  0.6508444  3
   2651   2649   2658   2660     1  0.0000000  0.6508444  3
   2653   2652   2664   4433     1  0.0000000  1.0460000  1
   2653   2652   2664   4433     1  0.0000000  0.0000000  3
   2653   2652   2664   2665     1  0.0000000  0.6508444  3
   2653   2652   2664   2666     1  0.0000000  0.6508444  3
   2654   2652   2664   4433     1  0.0000000  1.0460000  1
   2654   2652   2664   4433     1  0.0000000  0.0000000  3
   2654   2652   2664   2665     1  0.0000000  0.6508444  3
   2654   2652   2664   2666     1  0.0000000  0.6508444  3
   2656   2655   2661   4420     1  0.0000000  1.0460000  1
   2656   2655   2661   4420     1  0.0000000  0.0000000  3
   2656   2655   2661   2662     1  0.0000000  0.6508444  3
   2656   2655   2661   2663     1  0.0000000  0.6508444  3
   2657   2655   2661   4420     1  0.0000000  1.0460000  1
   2657   2655   2661   4420     1  0.0000000  0.0000000  3
   2657   2655   2661   2662     1  0.0000000  0.6508444  3
   2657   2655   2661   2663     1  0.0000000  0.6508444  3
   2661   4420   4414   4415     1  0.0000000  1.6038667  3
   2661   4420   4414   4416     1  0.0000000  1.6038667  3
   2662   2661   4420   4414     1  0.0000000  1.6038667  3
   2663   2661   4420   4414     1  0.0000000  1.6038667  3
   2664   4433   4427   4428     1  0.0000000  1.6038667  3
   2664   4433   4427   4429     1  0.0000000  1.6038667  3
   2665   2664   4433   4427     1  0.0000000  1.6038667  3
   2666   2664   4433   4427     1  0.0000000  1.6038667  3
   2668   2669   2681   2682     1  0.0000000  0.6508444  3
   2668   2669   2681   2683     1  0.0000000  0.6508444  3
   2668   2672   2684   2685     1  0.0000000  0.6508444  3
   2668   2672   2684   2686     1  0.0000000  0.6508444  3
   2668   2675   2678   2679     1  0.0000000  0.6508444  3
   2668   2675   2678   2680     1  0.0000000  0.6508444  3
   2669   2668   2672   2673     1  0.0000000  1.2552000  3
   2669   2668   2672   2674     1  0.0000000  1.2552000  3
   2669   2668   2675   2676     1  0.0000000  1.2552000  3
   2669   2668   2675   2677     1  0.0000000  1.2552000  3
   2669   2681   2693   2694     1  0.0000000  0.6508444  3
   2669   2681   2693   2695     1  0.0000000  0.6508444  3
   2670   2669   2668   2672     1  0.0000000  1.2552000  3
   2670   2669   2668   2675     1  0.0000000  1.2552000  3
   2670   2669   2681   2693     1  0.0000000  0.6508444  3
   2670   2669   2681   2682     1  0.0000000  0.6508444  3
   2670   2669   2681   2683     1  0.0000000  0.6508444  3
   2671   2669   2668   2672     1  0.0000000  1.2552000  3
   2671   2669   2668   2675     1  0.0000000  1.2552000  3
   2671   2669   2681   2693     1  0.0000000  0.6508444  3
   2671   2669   2681   2682     1  0.0000000  0.6508444  3
   2671   2669   2681   2683     1  0.0000000  0.6508444  3
   2672   2668   2675   2676     1  0.0000000  1.2552000  3
   2672   2668   2675   2677     1  0.0000000  1.2552000  3
   2672   2684   2690   2691     1  0.0000000  0.6508444  3
   2672   2684   2690   2692     1  0.0000000  0.6508444  3
   2673   2672   2668   2675     1  0.0000000  1.2552000  3
   2673   2672   2684   2690     1  0.0000000  0.6508444  3
   2673   2672   2684   2685     1  0.0000000  0.6508444  3
   2673   2672   2684   2686     1  0.0000000  0.6508444  3
   2674   2672   2668   2675     1  0.0000000  1.2552000  3
   2674   2672   2684   2690     1  0.0000000  0.6508444  3
   2674   2672   2684   2685     1  0.0000000  0.6508444  3
   2674   2672   2684   2686     1  0.0000000  0.6508444  3
   2675   2678   2687   2688     1  0.0000000  0.6508444  3
   2675   2678   2687   2689     1  0.0000000  0.6508444  3
   2676   2675   2678   2687     1  0.0000000  0.6508444  3
   2676   2675   2678   2679     1  0.0000000  0.6508444  3
   2676   2675   2678   2680     1  0.0000000  0.6508444  3
   2677   2675   2678   2687     1  0.0000000  0.6508444  3
   2677   2675   2678   2679     1  0.0000000  0.6508444  3
   2677   2675   2678   2680     1  0.0000000  0.6508444  3
   2679   2678   2687   2696     1  0.0000000  1.0460000  1
   2679   2678   2687   2696     1  0.0000000  0.0000000  3
   2679   2678   2687   2688     1  0.0000000  0.6508444  3
   2679   2678   2687   2689     1  0.0000000  0.6508444  3
   2680   2678   2687   2696     1  0.0000000  1.0460000  1
   2680   2678   2687   2696     1  0.0000000  0.0000000  3
   2680   2678   2687   2688     1  0.0000000  0.6508444  3
   2680   2678   2687   2689     1  0.0000000  0.6508444  3
   2682   2681   2693   4459     1  0.0000000  1.0460000  1
   2682   2681   2693   4459     1  0.0000000  0.0000000  3
   2682   2681   2693   2694     1  0.0000000  0.6508444  3
   2682   2681   2693   2695     1  0.0000000  0.6508444  3
   2683   2681   2693   4459     1  0.0000000  1.0460000  1
   2683   2681   2693   4459     1  0.0000000  0.0000000  3
   2683   2681   2693   2694     1  0.0000000  0.6508444  3
   2683   2681   2693   2695     1  0.0000000  0.6508444  3
   2685   2684   2690   4446     1  0.0000000  1.0460000  1
   2685   2684   2690   4446     1  0.0000000  0.0000000  3
   2685   2684   2690   2691     1  0.0000000  0.6508444  3
   2685   2684   2690   2692     1  0.0000000  0.6508444  3
   2686   2684   2690   4446     1  0.0000000  1.0460000  1
   2686   2684   2690   4446     1  0.0000000  0.0000000  3
   2686   2684   2690   2691     1  0.0000000  0.6508444  3
   2686   2684   2690   2692     1  0.0000000  0.6508444  3
   2690   4446   4440   4441     1  0.0000000  1.6038667  3
   2690   4446   4440   4442     1  0.0000000  1.6038667  3
   2691   2690   4446   4440     1  0.0000000  1.6038667  3
   2692   2690   4446   4440     1  0.0000000  1.6038667  3
   2693   4459   4453   4454     1  0.0000000  1.6038667  3
   2693   4459   4453   4455     1  0.0000000  1.6038667  3
   2694   2693   4459   4453     1  0.0000000  1.6038667  3
   2695   2693   4459   4453     1  0.0000000  1.6038667  3
   2697   2698   2710   2711     1  0.0000000  0.6508444  3
   2697   2698   2710   2712     1  0.0000000  0.6508444  3
   2697   2701   2713   2714     1  0.0000000  0.6508444  3
   2697   2701   2713   2715     1  0.0000000  0.6508444  3
   2697   2704   2707   2708     1  0.0000000  0.6508444  3
   2697   2704   2707   2709     1  0.0000000  0.6508444  3
   2698   2697   2701   2702     1  0.0000000  1.2552000  3
   2698   2697   2701   2703     1  0.0000000  1.2552000  3
   2698   2697   2704   2705     1  0.0000000  1.2552000  3
   2698   2697   2704   2706     1  0.0000000  1.2552000  3
   2698   2710   2722   2723     1  0.0000000  0.6508444  3
   2698   2710   2722   2724     1  0.0000000  0.6508444  3
   2699   2698   2697   2701     1  0.0000000  1.2552000  3
   2699   2698   2697   2704     1  0.0000000  1.2552000  3
   2699   2698   2710   2722     1  0.0000000  0.6508444  3
   2699   2698   2710   2711     1  0.0000000  0.6508444  3
   2699   2698   2710   2712     1  0.0000000  0.6508444  3
   2700   2698   2697   2701     1  0.0000000  1.2552000  3
   2700   2698   2697   2704     1  0.0000000  1.2552000  3
   2700   2698   2710   2722     1  0.0000000  0.6508444  3
   2700   2698   2710   2711     1  0.0000000  0.6508444  3
   2700   2698   2710   2712     1  0.0000000  0.6508444  3
   2701   2697   2704   2705     1  0.0000000  1.2552000  3
   2701   2697   2704   2706     1  0.0000000  1.2552000  3
   2701   2713   2719   2720     1  0.0000000  0.6508444  3
   2701   2713   2719   2721     1  0.0000000  0.6508444  3
   2702   2701   2697   2704     1  0.0000000  1.2552000  3
   2702   2701   2713   2719     1  0.0000000  0.6508444  3
   2702   2701   2713   2714     1  0.0000000  0.6508444  3
   2702   2701   2713   2715     1  0.0000000  0.6508444  3
   2703   2701   2697   2704     1  0.0000000  1.2552000  3
   2703   2701   2713   2719     1  0.0000000  0.6508444  3
   2703   2701   2713   2714     1  0.0000000  0.6508444  3
   2703   2701   2713   2715     1  0.0000000  0.6508444  3
   2704   2707   2716   2717     1  0.0000000  0.6508444  3
   2704   2707   2716   2718     1  0.0000000  0.6508444  3
   2705   2704   2707   2716     1  0.0000000  0.6508444  3
   2705   2704   2707   2708     1  0.0000000  0.6508444  3
   2705   2704   2707   2709     1  0.0000000  0.6508444  3
   2706   2704   2707   2716     1  0.0000000  0.6508444  3
   2706   2704   2707   2708     1  0.0000000  0.6508444  3
   2706   2704   2707   2709     1  0.0000000  0.6508444  3
   2708   2707   2716   2725     1  0.0000000  1.0460000  1
   2708   2707   2716   2725     1  0.0000000  0.0000000  3
   2708   2707   2716   2717     1  0.0000000  0.6508444  3
   2708   2707   2716   2718     1  0.0000000  0.6508444  3
   2709   2707   2716   2725     1  0.0000000  1.0460000  1
   2709   2707   2716   2725     1  0.0000000  0.0000000  3
   2709   2707   2716   2717     1  0.0000000  0.6508444  3
   2709   2707   2716   2718     1  0.0000000  0.6508444  3
   2711   2710   2722   4485     1  0.0000000  1.0460000  1
   2711   2710   2722   4485     1  0.0000000  0.0000000  3
   2711   2710   2722   2723     1  0.0000000  0.6508444  3
   2711   2710   2722   2724     1  0.0000000  0.6508444  3
   2712   2710   2722   4485     1  0.0000000  1.0460000  1
   2712   2710   2722   4485     1  0.0000000  0.0000000  3
   2712   2710   2722   2723     1  0.0000000  0.6508444  3
   2712   2710   2722   2724     1  0.0000000  0.6508444  3
   2714   2713   2719   4472     1  0.0000000  1.0460000  1
   2714   2713   2719   4472     1  0.0000000  0.0000000  3
   2714   2713   2719   2720     1  0.0000000  0.6508444  3
   2714   2713   2719   2721     1  0.0000000  0.6508444  3
   2715   2713   2719   4472     1  0.0000000  1.0460000  1
   2715   2713   2719   4472     1  0.0000000  0.0000000  3
   2715   2713   2719   2720     1  0.0000000  0.6508444  3
   2715   2713   2719   2721     1  0.0000000  0.6508444  3
   2719   4472   4466   4467     1  0.0000000  1.6038667  3
   2719   4472   4466   4468     1  0.0000000  1.6038667  3
   2720   2719   4472   4466     1  0.0000000  1.6038667  3
   2721   2719   4472   4466     1  0.0000000  1.6038667  3
   2722   4485   4479   4480     1  0.0000000  1.6038667  3
   2722   4485   4479   4481     1  0.0000000  1.6038667  3
   2723   2722   4485   4479     1  0.0000000  1.6038667  3
   2724   2722   4485   4479     1  0.0000000  1.6038667  3
   2726   2727   2739   2740     1  0.0000000  0.6508444  3
   2726   2727   2739   2741     1  0.0000000  0.6508444  3
   2726   2730   2742   2743     1  0.0000000  0.6508444  3
   2726   2730   2742   2744     1  0.0000000  0.6508444  3
   2726   2733   2736   2737     1  0.0000000  0.6508444  3
   2726   2733   2736   2738     1  0.0000000  0.6508444  3
   2727   2726   2730   2731     1  0.0000000  1.2552000  3
   2727   2726   2730   2732     1  0.0000000  1.2552000  3
   2727   2726   2733   2734     1  0.0000000  1.2552000  3
   2727   2726   2733   2735     1  0.0000000  1.2552000  3
   2727   2739   2751   2752     1  0.0000000  0.6508444  3
   2727   2739   2751   2753     1  0.0000000  0.6508444  3
   2728   2727   2726   2730     1  0.0000000  1.2552000  3
   2728   2727   2726   2733     1  0.0000000  1.2552000  3
   2728   2727   2739   2751     1  0.0000000  0.6508444  3
   2728   2727   2739   2740     1  0.0000000  0.6508444  3
   2728   2727   2739   2741     1  0.0000000  0.6508444  3
   2729   2727   2726   2730     1  0.0000000  1.2552000  3
   2729   2727   2726   2733     1  0.0000000  1.2552000  3
   2729   2727   2739   2751     1  0.0000000  0.6508444  3
   2729   2727   2739   2740     1  0.0000000  0.6508444  3
   2729   2727   2739   2741     1  0.0000000  0.6508444  3
   2730   2726   2733   2734     1  0.0000000  1.2552000  3
   2730   2726   2733   2735     1  0.0000000  1.2552000  3
   2730   2742   2748   2749     1  0.0000000  0.6508444  3
   2730   2742   2748   2750     1  0.0000000  0.6508444  3
   2731   2730   2726   2733     1  0.0000000  1.2552000  3
   2731   2730   2742   2748     1  0.0000000  0.6508444  3
   2731   2730   2742   2743     1  0.0000000  0.6508444  3
   2731   2730   2742   2744     1  0.0000000  0.6508444  3
   2732   2730   2726   2733     1  0.0000000  1.2552000  3
   2732   2730   2742   2748     1  0.0000000  0.6508444  3
   2732   2730   2742   2743     1  0.0000000  0.6508444  3
   2732   2730   2742   2744     1  0.0000000  0.6508444  3
   2733   2736   2745   2746     1  0.0000000  0.6508444  3
   2733   2736   2745   2747     1  0.0000000  0.6508444  3
   2734   2733   2736   2745     1  0.0000000  0.6508444  3
   2734   2733   2736   2737     1  0.0000000  0.6508444  3
   2734   2733   2736   2738     1  0.0000000  0.6508444  3
   2735   2733   2736   2745     1  0.0000000  0.6508444  3
   2735   2733   2736   2737     1  0.0000000  0.6508444  3
   2735   2733   2736   2738     1  0.0000000  0.6508444  3
   2737   2736   2745   2754     1  0.0000000  1.0460000  1
   2737   2736   2745   2754     1  0.0000000  0.0000000  3
   2737   2736   2745   2746     1  0.0000000  0.6508444  3
   2737   2736   2745   2747     1  0.0000000  0.6508444  3
   2738   2736   2745   2754     1  0.0000000  1.0460000  1
   2738   2736   2745   2754     1  0.0000000  0.0000000  3
   2738   2736   2745   2746     1  0.0000000  0.6508444  3
   2738   2736   2745   2747     1  0.0000000  0.6508444  3
   2740   2739   2751   4511     1  0.0000000  1.0460000  1
   2740   2739   2751   4511     1  0.0000000  0.0000000  3
   2740   2739   2751   2752     1  0.0000000  0.6508444  3
   2740   2739   2751   2753     1  0.0000000  0.6508444  3
   2741   2739   2751   4511     1  0.0000000  1.0460000  1
   2741   2739   2751   4511     1  0.0000000  0.0000000  3
   2741   2739   2751   2752     1  0.0000000  0.6508444  3
   2741   2739   2751   2753     1  0.0000000  0.6508444  3
   2743   2742   2748   4498     1  0.0000000  1.0460000  1
   2743   2742   2748   4498     1  0.0000000  0.0000000  3
   2743   2742   2748   2749     1  0.0000000  0.6508444  3
   2743   2742   2748   2750     1  0.0000000  0.6508444  3
   2744   2742   2748   4498     1  0.0000000  1.0460000  1
   2744   2742   2748   4498     1  0.0000000  0.0000000  3
   2744   2742   2748   2749     1  0.0000000  0.6508444  3
   2744   2742   2748   2750     1  0.0000000  0.6508444  3
   2748   4498   4492   4493     1  0.0000000  1.6038667  3
   2748   4498   4492   4494     1  0.0000000  1.6038667  3
   2749   2748   4498   4492     1  0.0000000  1.6038667  3
   2750   2748   4498   4492     1  0.0000000  1.6038667  3
   2751   4511   4505   4506     1  0.0000000  1.6038667  3
   2751   4511   4505   4507     1  0.0000000  1.6038667  3
   2752   2751   4511   4505     1  0.0000000  1.6038667  3
   2753   2751   4511   4505     1  0.0000000  1.6038667  3
   2755   2756   2768   2769     1  0.0000000  0.6508444  3
   2755   2756   2768   2770     1  0.0000000  0.6508444  3
   2755   2759   2771   2772     1  0.0000000  0.6508444  3
   2755   2759   2771   2773     1  0.0000000  0.6508444  3
   2755   2762   2765   2766     1  0.0000000  0.6508444  3
   2755   2762   2765   2767     1  0.0000000  0.6508444  3
   2756   2755   2759   2760     1  0.0000000  1.2552000  3
   2756   2755   2759   2761     1  0.0000000  1.2552000  3
   2756   2755   2762   2763     1  0.0000000  1.2552000  3
   2756   2755   2762   2764     1  0.0000000  1.2552000  3
   2756   2768   2780   2781     1  0.0000000  0.6508444  3
   2756   2768   2780   2782     1  0.0000000  0.6508444  3
   2757   2756   2755   2759     1  0.0000000  1.2552000  3
   2757   2756   2755   2762     1  0.0000000  1.2552000  3
   2757   2756   2768   2780     1  0.0000000  0.6508444  3
   2757   2756   2768   2769     1  0.0000000  0.6508444  3
   2757   2756   2768   2770     1  0.0000000  0.6508444  3
   2758   2756   2755   2759     1  0.0000000  1.2552000  3
   2758   2756   2755   2762     1  0.0000000  1.2552000  3
   2758   2756   2768   2780     1  0.0000000  0.6508444  3
   2758   2756   2768   2769     1  0.0000000  0.6508444  3
   2758   2756   2768   2770     1  0.0000000  0.6508444  3
   2759   2755   2762   2763     1  0.0000000  1.2552000  3
   2759   2755   2762   2764     1  0.0000000  1.2552000  3
   2759   2771   2777   2778     1  0.0000000  0.6508444  3
   2759   2771   2777   2779     1  0.0000000  0.6508444  3
   2760   2759   2755   2762     1  0.0000000  1.2552000  3
   2760   2759   2771   2777     1  0.0000000  0.6508444  3
   2760   2759   2771   2772     1  0.0000000  0.6508444  3
   2760   2759   2771   2773     1  0.0000000  0.6508444  3
   2761   2759   2755   2762     1  0.0000000  1.2552000  3
   2761   2759   2771   2777     1  0.0000000  0.6508444  3
   2761   2759   2771   2772     1  0.0000000  0.6508444  3
   2761   2759   2771   2773     1  0.0000000  0.6508444  3
   2762   2765   2774   2775     1  0.0000000  0.6508444  3
   2762   2765   2774   2776     1  0.0000000  0.6508444  3
   2763   2762   2765   2774     1  0.0000000  0.6508444  3
   2763   2762   2765   2766     1  0.0000000  0.6508444  3
   2763   2762   2765   2767     1  0.0000000  0.6508444  3
   2764   2762   2765   2774     1  0.0000000  0.6508444  3
   2764   2762   2765   2766     1  0.0000000  0.6508444  3
   2764   2762   2765   2767     1  0.0000000  0.6508444  3
   2766   2765   2774   2783     1  0.0000000  1.0460000  1
   2766   2765   2774   2783     1  0.0000000  0.0000000  3
   2766   2765   2774   2775     1  0.0000000  0.6508444  3
   2766   2765   2774   2776     1  0.0000000  0.6508444  3
   2767   2765   2774   2783     1  0.0000000  1.0460000  1
   2767   2765   2774   2783     1  0.0000000  0.0000000  3
   2767   2765   2774   2775     1  0.0000000  0.6508444  3
   2767   2765   2774   2776     1  0.0000000  0.6508444  3
   2769   2768   2780   4537     1  0.0000000  1.0460000  1
   2769   2768   2780   4537     1  0.0000000  0.0000000  3
   2769   2768   2780   2781     1  0.0000000  0.6508444  3
   2769   2768   2780   2782     1  0.0000000  0.6508444  3
   2770   2768   2780   4537     1  0.0000000  1.0460000  1
   2770   2768   2780   4537     1  0.0000000  0.0000000  3
   2770   2768   2780   2781     1  0.0000000  0.6508444  3
   2770   2768   2780   2782     1  0.0000000  0.6508444  3
   2772   2771   2777   4524     1  0.0000000  1.0460000  1
   2772   2771   2777   4524     1  0.0000000  0.0000000  3
   2772   2771   2777   2778     1  0.0000000  0.6508444  3
   2772   2771   2777   2779     1  0.0000000  0.6508444  3
   2773   2771   2777   4524     1  0.0000000  1.0460000  1
   2773   2771   2777   4524     1  0.0000000  0.0000000  3
   2773   2771   2777   2778     1  0.0000000  0.6508444  3
   2773   2771   2777   2779     1  0.0000000  0.6508444  3
   2777   4524   4518   4519     1  0.0000000  1.6038667  3
   2777   4524   4518   4520     1  0.0000000  1.6038667  3
   2778   2777   4524   4518     1  0.0000000  1.6038667  3
   2779   2777   4524   4518     1  0.0000000  1.6038667  3
   2780   4537   4531   4532     1  0.0000000  1.6038667  3
   2780   4537   4531   4533     1  0.0000000  1.6038667  3
   2781   2780   4537   4531     1  0.0000000  1.6038667  3
   2782   2780   4537   4531     1  0.0000000  1.6038667  3
   2784   2785   2797   2798     1  0.0000000  0.6508444  3
   2784   2785   2797   2799     1  0.0000000  0.6508444  3
   2784   2788   2800   2801     1  0.0000000  0.6508444  3
   2784   2788   2800   2802     1  0.0000000  0.6508444  3
   2784   2791   2794   2795     1  0.0000000  0.6508444  3
   2784   2791   2794   2796     1  0.0000000  0.6508444  3
   2785   2784   2788   2789     1  0.0000000  1.2552000  3
   2785   2784   2788   2790     1  0.0000000  1.2552000  3
   2785   2784   2791   2792     1  0.0000000  1.2552000  3
   2785   2784   2791   2793     1  0.0000000  1.2552000  3
   2785   2797   2809   2810     1  0.0000000  0.6508444  3
   2785   2797   2809   2811     1  0.0000000  0.6508444  3
   2786   2785   2784   2788     1  0.0000000  1.2552000  3
   2786   2785   2784   2791     1  0.0000000  1.2552000  3
   2786   2785   2797   2809     1  0.0000000  0.6508444  3
   2786   2785   2797   2798     1  0.0000000  0.6508444  3
   2786   2785   2797   2799     1  0.0000000  0.6508444  3
   2787   2785   2784   2788     1  0.0000000  1.2552000  3
   2787   2785   2784   2791     1  0.0000000  1.2552000  3
   2787   2785   2797   2809     1  0.0000000  0.6508444  3
   2787   2785   2797   2798     1  0.0000000  0.6508444  3
   2787   2785   2797   2799     1  0.0000000  0.6508444  3
   2788   2784   2791   2792     1  0.0000000  1.2552000  3
   2788   2784   2791   2793     1  0.0000000  1.2552000  3
   2788   2800   2806   2807     1  0.0000000  0.6508444  3
   2788   2800   2806   2808     1  0.0000000  0.6508444  3
   2789   2788   2784   2791     1  0.0000000  1.2552000  3
   2789   2788   2800   2806     1  0.0000000  0.6508444  3
   2789   2788   2800   2801     1  0.0000000  0.6508444  3
   2789   2788   2800   2802     1  0.0000000  0.6508444  3
   2790   2788   2784   2791     1  0.0000000  1.2552000  3
   2790   2788   2800   2806     1  0.0000000  0.6508444  3
   2790   2788   2800   2801     1  0.0000000  0.6508444  3
   2790   2788   2800   2802     1  0.0000000  0.6508444  3
   2791   2794   2803   2804     1  0.0000000  0.6508444  3
   2791   2794   2803   2805     1  0.0000000  0.6508444  3
   2792   2791   2794   2803     1  0.0000000  0.6508444  3
   2792   2791   2794   2795     1  0.0000000  0.6508444  3
   2792   2791   2794   2796     1  0.0000000  0.6508444  3
   2793   2791   2794   2803     1  0.0000000  0.6508444  3
   2793   2791   2794   2795     1  0.0000000  0.6508444  3
   2793   2791   2794   2796     1  0.0000000  0.6508444  3
   2795   2794   2803   2812     1  0.0000000  1.0460000  1
   2795   2794   2803   2812     1  0.0000000  0.0000000  3
   2795   2794   2803   2804     1  0.0000000  0.6508444  3
   2795   2794   2803   2805     1  0.0000000  0.6508444  3
   2796   2794   2803   2812     1  0.0000000  1.0460000  1
   2796   2794   2803   2812     1  0.0000000  0.0000000  3
   2796   2794   2803   2804     1  0.0000000  0.6508444  3
   2796   2794   2803   2805     1  0.0000000  0.6508444  3
   2798   2797   2809   4563     1  0.0000000  1.0460000  1
   2798   2797   2809   4563     1  0.0000000  0.0000000  3
   2798   2797   2809   2810     1  0.0000000  0.6508444  3
   2798   2797   2809   2811     1  0.0000000  0.6508444  3
   2799   2797   2809   4563     1  0.0000000  1.0460000  1
   2799   2797   2809   4563     1  0.0000000  0.0000000  3
   2799   2797   2809   2810     1  0.0000000  0.6508444  3
   2799   2797   2809   2811     1  0.0000000  0.6508444  3
   2801   2800   2806   4550     1  0.0000000  1.0460000  1
   2801   2800   2806   4550     1  0.0000000  0.0000000  3
   2801   2800   2806   2807     1  0.0000000  0.6508444  3
   2801   2800   2806   2808     1  0.0000000  0.6508444  3
   2802   2800   2806   4550     1  0.0000000  1.0460000  1
   2802   2800   2806   4550     1  0.0000000  0.0000000  3
   2802   2800   2806   2807     1  0.0000000  0.6508444  3
   2802   2800   2806   2808     1  0.0000000  0.6508444  3
   2806   4550   4544   4545     1  0.0000000  1.6038667  3
   2806   4550   4544   4546     1  0.0000000  1.6038667  3
   2807   2806   4550   4544     1  0.0000000  1.6038667  3
   2808   2806   4550   4544     1  0.0000000  1.6038667  3
   2809   4563   4557   4558     1  0.0000000  1.6038667  3
   2809   4563   4557   4559     1  0.0000000  1.6038667  3
   2810   2809   4563   4557     1  0.0000000  1.6038667  3
   2811   2809   4563   4557     1  0.0000000  1.6038667  3
   2813   2814   2826   2827     1  0.0000000  0.6508444  3
   2813   2814   2826   2828     1  0.0000000  0.6508444  3
   2813   2817   2829   2830     1  0.0000000  0.6508444  3
   2813   2817   2829   2831     1  0.0000000  0.6508444  3
   2813   2820   2823   2824     1  0.0000000  0.6508444  3
   2813   2820   2823   2825     1  0.0000000  0.6508444  3
   2814   2813   2817   2818     1  0.0000000  1.2552000  3
   2814   2813   2817   2819     1  0.0000000  1.2552000  3
   2814   2813   2820   2821     1  0.0000000  1.2552000  3
   2814   2813   2820   2822     1  0.0000000  1.2552000  3
   2814   2826   2838   2839     1  0.0000000  0.6508444  3
   2814   2826   2838   2840     1  0.0000000  0.6508444  3
   2815   2814   2813   2817     1  0.0000000  1.2552000  3
   2815   2814   2813   2820     1  0.0000000  1.2552000  3
   2815   2814   2826   2838     1  0.0000000  0.6508444  3
   2815   2814   2826   2827     1  0.0000000  0.6508444  3
   2815   2814   2826   2828     1  0.0000000  0.6508444  3
   2816   2814   2813   2817     1  0.0000000  1.2552000  3
   2816   2814   2813   2820     1  0.0000000  1.2552000  3
   2816   2814   2826   2838     1  0.0000000  0.6508444  3
   2816   2814   2826   2827     1  0.0000000  0.6508444  3
   2816   2814   2826   2828     1  0.0000000  0.6508444  3
   2817   2813   2820   2821     1  0.0000000  1.2552000  3
   2817   2813   2820   2822     1  0.0000000  1.2552000  3
   2817   2829   2835   2836     1  0.0000000  0.6508444  3
   2817   2829   2835   2837     1  0.0000000  0.6508444  3
   2818   2817   2813   2820     1  0.0000000  1.2552000  3
   2818   2817   2829   2835     1  0.0000000  0.6508444  3
   2818   2817   2829   2830     1  0.0000000  0.6508444  3
   2818   2817   2829   2831     1  0.0000000  0.6508444  3
   2819   2817   2813   2820     1  0.0000000  1.2552000  3
   2819   2817   2829   2835     1  0.0000000  0.6508444  3
   2819   2817   2829   2830     1  0.0000000  0.6508444  3
   2819   2817   2829   2831     1  0.0000000  0.6508444  3
   2820   2823   2832   2833     1  0.0000000  0.6508444  3
   2820   2823   2832   2834     1  0.0000000  0.6508444  3
   2821   2820   2823   2832     1  0.0000000  0.6508444  3
   2821   2820   2823   2824     1  0.0000000  0.6508444  3
   2821   2820   2823   2825     1  0.0000000  0.6508444  3
   2822   2820   2823   2832     1  0.0000000  0.6508444  3
   2822   2820   2823   2824     1  0.0000000  0.6508444  3
   2822   2820   2823   2825     1  0.0000000  0.6508444  3
   2824   2823   2832   2841     1  0.0000000  1.0460000  1
   2824   2823   2832   2841     1  0.0000000  0.0000000  3
   2824   2823   2832   2833     1  0.0000000  0.6508444  3
   2824   2823   2832   2834     1  0.0000000  0.6508444  3
   2825   2823   2832   2841     1  0.0000000  1.0460000  1
   2825   2823   2832   2841     1  0.0000000  0.0000000  3
   2825   2823   2832   2833     1  0.0000000  0.6508444  3
   2825   2823   2832   2834     1  0.0000000  0.6508444  3
   2827   2826   2838   4589     1  0.0000000  1.0460000  1
   2827   2826   2838   4589     1  0.0000000  0.0000000  3
   2827   2826   2838   2839     1  0.0000000  0.6508444  3
   2827   2826   2838   2840     1  0.0000000  0.6508444  3
   2828   2826   2838   4589     1  0.0000000  1.0460000  1
   2828   2826   2838   4589     1  0.0000000  0.0000000  3
   2828   2826   2838   2839     1  0.0000000  0.6508444  3
   2828   2826   2838   2840     1  0.0000000  0.6508444  3
   2830   2829   2835   4576     1  0.0000000  1.0460000  1
   2830   2829   2835   4576     1  0.0000000  0.0000000  3
   2830   2829   2835   2836     1  0.0000000  0.6508444  3
   2830   2829   2835   2837     1  0.0000000  0.6508444  3
   2831   2829   2835   4576     1  0.0000000  1.0460000  1
   2831   2829   2835   4576     1  0.0000000  0.0000000  3
   2831   2829   2835   2836     1  0.0000000  0.6508444  3
   2831   2829   2835   2837     1  0.0000000  0.6508444  3
   2835   4576   4570   4571     1  0.0000000  1.6038667  3
   2835   4576   4570   4572     1  0.0000000  1.6038667  3
   2836   2835   4576   4570     1  0.0000000  1.6038667  3
   2837   2835   4576   4570     1  0.0000000  1.6038667  3
   2838   4589   4583   4584     1  0.0000000  1.6038667  3
   2838   4589   4583   4585     1  0.0000000  1.6038667  3
   2839   2838   4589   4583     1  0.0000000  1.6038667  3
   2840   2838   4589   4583     1  0.0000000  1.6038667  3
   2842   2843   2855   2856     1  0.0000000  0.6508444  3
   2842   2843   2855   2857     1  0.0000000  0.6508444  3
   2842   2846   2858   2859     1  0.0000000  0.6508444  3
   2842   2846   2858   2860     1  0.0000000  0.6508444  3
   2842   2849   2852   2853     1  0.0000000  0.6508444  3
   2842   2849   2852   2854     1  0.0000000  0.6508444  3
   2843   2842   2846   2847     1  0.0000000  1.2552000  3
   2843   2842   2846   2848     1  0.0000000  1.2552000  3
   2843   2842   2849   2850     1  0.0000000  1.2552000  3
   2843   2842   2849   2851     1  0.0000000  1.2552000  3
   2843   2855   2867   2868     1  0.0000000  0.6508444  3
   2843   2855   2867   2869     1  0.0000000  0.6508444  3
   2844   2843   2842   2846     1  0.0000000  1.2552000  3
   2844   2843   2842   2849     1  0.0000000  1.2552000  3
   2844   2843   2855   2867     1  0.0000000  0.6508444  3
   2844   2843   2855   2856     1  0.0000000  0.6508444  3
   2844   2843   2855   2857     1  0.0000000  0.6508444  3
   2845   2843   2842   2846     1  0.0000000  1.2552000  3
   2845   2843   2842   2849     1  0.0000000  1.2552000  3
   2845   2843   2855   2867     1  0.0000000  0.6508444  3
   2845   2843   2855   2856     1  0.0000000  0.6508444  3
   2845   2843   2855   2857     1  0.0000000  0.6508444  3
   2846   2842   2849   2850     1  0.0000000  1.2552000  3
   2846   2842   2849   2851     1  0.0000000  1.2552000  3
   2846   2858   2864   2865     1  0.0000000  0.6508444  3
   2846   2858   2864   2866     1  0.0000000  0.6508444  3
   2847   2846   2842   2849     1  0.0000000  1.2552000  3
   2847   2846   2858   2864     1  0.0000000  0.6508444  3
   2847   2846   2858   2859     1  0.0000000  0.6508444  3
   2847   2846   2858   2860     1  0.0000000  0.6508444  3
   2848   2846   2842   2849     1  0.0000000  1.2552000  3
   2848   2846   2858   2864     1  0.0000000  0.6508444  3
   2848   2846   2858   2859     1  0.0000000  0.6508444  3
   2848   2846   2858   2860     1  0.0000000  0.6508444  3
   2849   2852   2861   2862     1  0.0000000  0.6508444  3
   2849   2852   2861   2863     1  0.0000000  0.6508444  3
   2850   2849   2852   2861     1  0.0000000  0.6508444  3
   2850   2849   2852   2853     1  0.0000000  0.6508444  3
   2850   2849   2852   2854     1  0.0000000  0.6508444  3
   2851   2849   2852   2861     1  0.0000000  0.6508444  3
   2851   2849   2852   2853     1  0.0000000  0.6508444  3
   2851   2849   2852   2854     1  0.0000000  0.6508444  3
   2853   2852   2861   2870     1  0.0000000  1.0460000  1
   2853   2852   2861   2870     1  0.0000000  0.0000000  3
   2853   2852   2861   2862     1  0.0000000  0.6508444  3
   2853   2852   2861   2863     1  0.0000000  0.6508444  3
   2854   2852   2861   2870     1  0.0000000  1.0460000  1
   2854   2852   2861   2870     1  0.0000000  0.0000000  3
   2854   2852   2861   2862     1  0.0000000  0.6508444  3
   2854   2852   2861   2863     1  0.0000000  0.6508444  3
   2856   2855   2867   4615     1  0.0000000  1.0460000  1
   2856   2855   2867   4615     1  0.0000000  0.0000000  3
   2856   2855   2867   2868     1  0.0000000  0.6508444  3
   2856   2855   2867   2869     1  0.0000000  0.6508444  3
   2857   2855   2867   4615     1  0.0000000  1.0460000  1
   2857   2855   2867   4615     1  0.0000000  0.0000000  3
   2857   2855   2867   2868     1  0.0000000  0.6508444  3
   2857   2855   2867   2869     1  0.0000000  0.6508444  3
   2859   2858   2864   4602     1  0.0000000  1.0460000  1
   2859   2858   2864   4602     1  0.0000000  0.0000000  3
   2859   2858   2864   2865     1  0.0000000  0.6508444  3
   2859   2858   2864   2866     1  0.0000000  0.6508444  3
   2860   2858   2864   4602     1  0.0000000  1.0460000  1
   2860   2858   2864   4602     1  0.0000000  0.0000000  3
   2860   2858   2864   2865     1  0.0000000  0.6508444  3
   2860   2858   2864   2866     1  0.0000000  0.6508444  3
   2864   4602   4596   4597     1  0.0000000  1.6038667  3
   2864   4602   4596   4598     1  0.0000000  1.6038667  3
   2865   2864   4602   4596     1  0.0000000  1.6038667  3
   2866   2864   4602   4596     1  0.0000000  1.6038667  3
   2867   4615   4609   4610     1  0.0000000  1.6038667  3
   2867   4615   4609   4611     1  0.0000000  1.6038667  3
   2868   2867   4615   4609     1  0.0000000  1.6038667  3
   2869   2867   4615   4609     1  0.0000000  1.6038667  3
   2871   2872   2884   2885     1  0.0000000  0.6508444  3
   2871   2872   2884   2886     1  0.0000000  0.6508444  3
   2871   2875   2887   2888     1  0.0000000  0.6508444  3
   2871   2875   2887   2889     1  0.0000000  0.6508444  3
   2871   2878   2881   2882     1  0.0000000  0.6508444  3
   2871   2878   2881   2883     1  0.0000000  0.6508444  3
   2872   2871   2875   2876     1  0.0000000  1.2552000  3
   2872   2871   2875   2877     1  0.0000000  1.2552000  3
   2872   2871   2878   2879     1  0.0000000  1.2552000  3
   2872   2871   2878   2880     1  0.0000000  1.2552000  3
   2872   2884   2896   2897     1  0.0000000  0.6508444  3
   2872   2884   2896   2898     1  0.0000000  0.6508444  3
   2873   2872   2871   2875     1  0.0000000  1.2552000  3
   2873   2872   2871   2878     1  0.0000000  1.2552000  3
   2873   2872   2884   2896     1  0.0000000  0.6508444  3
   2873   2872   2884   2885     1  0.0000000  0.6508444  3
   2873   2872   2884   2886     1  0.0000000  0.6508444  3
   2874   2872   2871   2875     1  0.0000000  1.2552000  3
   2874   2872   2871   2878     1  0.0000000  1.2552000  3
   2874   2872   2884   2896     1  0.0000000  0.6508444  3
   2874   2872   2884   2885     1  0.0000000  0.6508444  3
   2874   2872   2884   2886     1  0.0000000  0.6508444  3
   2875   2871   2878   2879     1  0.0000000  1.2552000  3
   2875   2871   2878   2880     1  0.0000000  1.2552000  3
   2875   2887   2893   2894     1  0.0000000  0.6508444  3
   2875   2887   2893   2895     1  0.0000000  0.6508444  3
   2876   2875   2871   2878     1  0.0000000  1.2552000  3
   2876   2875   2887   2893     1  0.0000000  0.6508444  3
   2876   2875   2887   2888     1  0.0000000  0.6508444  3
   2876   2875   2887   2889     1  0.0000000  0.6508444  3
   2877   2875   2871   2878     1  0.0000000  1.2552000  3
   2877   2875   2887   2893     1  0.0000000  0.6508444  3
   2877   2875   2887   2888     1  0.0000000  0.6508444  3
   2877   2875   2887   2889     1  0.0000000  0.6508444  3
   2878   2881   2890   2891     1  0.0000000  0.6508444  3
   2878   2881   2890   2892     1  0.0000000  0.6508444  3
   2879   2878   2881   2890     1  0.0000000  0.6508444  3
   2879   2878   2881   2882     1  0.0000000  0.6508444  3
   2879   2878   2881   2883     1  0.0000000  0.6508444  3
   2880   2878   2881   2890     1  0.0000000  0.6508444  3
   2880   2878   2881   2882     1  0.0000000  0.6508444  3
   2880   2878   2881   2883     1  0.0000000  0.6508444  3
   2882   2881   2890   2899     1  0.0000000  1.0460000  1
   2882   2881   2890   2899     1  0.0000000  0.0000000  3
   2882   2881   2890   2891     1  0.0000000  0.6508444  3
   2882   2881   2890   2892     1  0.0000000  0.6508444  3
   2883   2881   2890   2899     1  0.0000000  1.0460000  1
   2883   2881   2890   2899     1  0.0000000  0.0000000  3
   2883   2881   2890   2891     1  0.0000000  0.6508444  3
   2883   2881   2890   2892     1  0.0000000  0.6508444  3
   2885   2884   2896   4641     1  0.0000000  1.0460000  1
   2885   2884   2896   4641     1  0.0000000  0.0000000  3
   2885   2884   2896   2897     1  0.0000000  0.6508444  3
   2885   2884   2896   2898     1  0.0000000  0.6508444  3
   2886   2884   2896   4641     1  0.0000000  1.0460000  1
   2886   2884   2896   4641     1  0.0000000  0.0000000  3
   2886   2884   2896   2897     1  0.0000000  0.6508444  3
   2886   2884   2896   2898     1  0.0000000  0.6508444  3
   2888   2887   2893   4628     1  0.0000000  1.0460000  1
   2888   2887   2893   4628     1  0.0000000  0.0000000  3
   2888   2887   2893   2894     1  0.0000000  0.6508444  3
   2888   2887   2893   2895     1  0.0000000  0.6508444  3
   2889   2887   2893   4628     1  0.0000000  1.0460000  1
   2889   2887   2893   4628     1  0.0000000  0.0000000  3
   2889   2887   2893   2894     1  0.0000000  0.6508444  3
   2889   2887   2893   2895     1  0.0000000  0.6508444  3
   2893   4628   4622   4623     1  0.0000000  1.6038667  3
   2893   4628   4622   4624     1  0.0000000  1.6038667  3
   2894   2893   4628   4622     1  0.0000000  1.6038667  3
   2895   2893   4628   4622     1  0.0000000  1.6038667  3
   2896   4641   4635   4636     1  0.0000000  1.6038667  3
   2896   4641   4635   4637     1  0.0000000  1.6038667  3
   2897   2896   4641   4635     1  0.0000000  1.6038667  3
   2898   2896   4641   4635     1  0.0000000  1.6038667  3
   2900   2901   2913   2914     1  0.0000000  0.6508444  3
   2900   2901   2913   2915     1  0.0000000  0.6508444  3
   2900   2904   2916   2917     1  0.0000000  0.6508444  3
   2900   2904   2916   2918     1  0.0000000  0.6508444  3
   2900   2907   2910   2911     1  0.0000000  0.6508444  3
   2900   2907   2910   2912     1  0.0000000  0.6508444  3
   2901   2900   2904   2905     1  0.0000000  1.2552000  3
   2901   2900   2904   2906     1  0.0000000  1.2552000  3
   2901   2900   2907   2908     1  0.0000000  1.2552000  3
   2901   2900   2907   2909     1  0.0000000  1.2552000  3
   2901   2913   2925   2926     1  0.0000000  0.6508444  3
   2901   2913   2925   2927     1  0.0000000  0.6508444  3
   2902   2901   2900   2904     1  0.0000000  1.2552000  3
   2902   2901   2900   2907     1  0.0000000  1.2552000  3
   2902   2901   2913   2925     1  0.0000000  0.6508444  3
   2902   2901   2913   2914     1  0.0000000  0.6508444  3
   2902   2901   2913   2915     1  0.0000000  0.6508444  3
   2903   2901   2900   2904     1  0.0000000  1.2552000  3
   2903   2901   2900   2907     1  0.0000000  1.2552000  3
   2903   2901   2913   2925     1  0.0000000  0.6508444  3
   2903   2901   2913   2914     1  0.0000000  0.6508444  3
   2903   2901   2913   2915     1  0.0000000  0.6508444  3
   2904   2900   2907   2908     1  0.0000000  1.2552000  3
   2904   2900   2907   2909     1  0.0000000  1.2552000  3
   2904   2916   2922   2923     1  0.0000000  0.6508444  3
   2904   2916   2922   2924     1  0.0000000  0.6508444  3
   2905   2904   2900   2907     1  0.0000000  1.2552000  3
   2905   2904   2916   2922     1  0.0000000  0.6508444  3
   2905   2904   2916   2917     1  0.0000000  0.6508444  3
   2905   2904   2916   2918     1  0.0000000  0.6508444  3
   2906   2904   2900   2907     1  0.0000000  1.2552000  3
   2906   2904   2916   2922     1  0.0000000  0.6508444  3
   2906   2904   2916   2917     1  0.0000000  0.6508444  3
   2906   2904   2916   2918     1  0.0000000  0.6508444  3
   2907   2910   2919   2920     1  0.0000000  0.6508444  3
   2907   2910   2919   2921     1  0.0000000  0.6508444  3
   2908   2907   2910   2919     1  0.0000000  0.6508444  3
   2908   2907   2910   2911     1  0.0000000  0.6508444  3
   2908   2907   2910   2912     1  0.0000000  0.6508444  3
   2909   2907   2910   2919     1  0.0000000  0.6508444  3
   2909   2907   2910   2911     1  0.0000000  0.6508444  3
   2909   2907   2910   2912     1  0.0000000  0.6508444  3
   2911   2910   2919   2928     1  0.0000000  1.0460000  1
   2911   2910   2919   2928     1  0.0000000  0.0000000  3
   2911   2910   2919   2920     1  0.0000000  0.6508444  3
   2911   2910   2919   2921     1  0.0000000  0.6508444  3
   2912   2910   2919   2928     1  0.0000000  1.0460000  1
   2912   2910   2919   2928     1  0.0000000  0.0000000  3
   2912   2910   2919   2920     1  0.0000000  0.6508444  3
   2912   2910   2919   2921     1  0.0000000  0.6508444  3
   2914   2913   2925   4667     1  0.0000000  1.0460000  1
   2914   2913   2925   4667     1  0.0000000  0.0000000  3
   2914   2913   2925   2926     1  0.0000000  0.6508444  3
   2914   2913   2925   2927     1  0.0000000  0.6508444  3
   2915   2913   2925   4667     1  0.0000000  1.0460000  1
   2915   2913   2925   4667     1  0.0000000  0.0000000  3
   2915   2913   2925   2926     1  0.0000000  0.6508444  3
   2915   2913   2925   2927     1  0.0000000  0.6508444  3
   2917   2916   2922   4654     1  0.0000000  1.0460000  1
   2917   2916   2922   4654     1  0.0000000  0.0000000  3
   2917   2916   2922   2923     1  0.0000000  0.6508444  3
   2917   2916   2922   2924     1  0.0000000  0.6508444  3
   2918   2916   2922   4654     1  0.0000000  1.0460000  1
   2918   2916   2922   4654     1  0.0000000  0.0000000  3
   2918   2916   2922   2923     1  0.0000000  0.6508444  3
   2918   2916   2922   2924     1  0.0000000  0.6508444  3
   2922   4654   4648   4649     1  0.0000000  1.6038667  3
   2922   4654   4648   4650     1  0.0000000  1.6038667  3
   2923   2922   4654   4648     1  0.0000000  1.6038667  3
   2924   2922   4654   4648     1  0.0000000  1.6038667  3
   2925   4667   4661   4662     1  0.0000000  1.6038667  3
   2925   4667   4661   4663     1  0.0000000  1.6038667  3
   2926   2925   4667   4661     1  0.0000000  1.6038667  3
   2927   2925   4667   4661     1  0.0000000  1.6038667  3
   2929   2930   2942   2943     1  0.0000000  0.6508444  3
   2929   2930   2942   2944     1  0.0000000  0.6508444  3
   2929   2933   2945   2946     1  0.0000000  0.6508444  3
   2929   2933   2945   2947     1  0.0000000  0.6508444  3
   2929   2936   2939   2940     1  0.0000000  0.6508444  3
   2929   2936   2939   2941     1  0.0000000  0.6508444  3
   2930   2929   2933   2934     1  0.0000000  1.2552000  3
   2930   2929   2933   2935     1  0.0000000  1.2552000  3
   2930   2929   2936   2937     1  0.0000000  1.2552000  3
   2930   2929   2936   2938     1  0.0000000  1.2552000  3
   2930   2942   2954   2955     1  0.0000000  0.6508444  3
   2930   2942   2954   2956     1  0.0000000  0.6508444  3
   2931   2930   2929   2933     1  0.0000000  1.2552000  3
   2931   2930   2929   2936     1  0.0000000  1.2552000  3
   2931   2930   2942   2954     1  0.0000000  0.6508444  3
   2931   2930   2942   2943     1  0.0000000  0.6508444  3
   2931   2930   2942   2944     1  0.0000000  0.6508444  3
   2932   2930   2929   2933     1  0.0000000  1.2552000  3
   2932   2930   2929   2936     1  0.0000000  1.2552000  3
   2932   2930   2942   2954     1  0.0000000  0.6508444  3
   2932   2930   2942   2943     1  0.0000000  0.6508444  3
   2932   2930   2942   2944     1  0.0000000  0.6508444  3
   2933   2929   2936   2937     1  0.0000000  1.2552000  3
   2933   2929   2936   2938     1  0.0000000  1.2552000  3
   2933   2945   2951   2952     1  0.0000000  0.6508444  3
   2933   2945   2951   2953     1  0.0000000  0.6508444  3
   2934   2933   2929   2936     1  0.0000000  1.2552000  3
   2934   2933   2945   2951     1  0.0000000  0.6508444  3
   2934   2933   2945   2946     1  0.0000000  0.6508444  3
   2934   2933   2945   2947     1  0.0000000  0.6508444  3
   2935   2933   2929   2936     1  0.0000000  1.2552000  3
   2935   2933   2945   2951     1  0.0000000  0.6508444  3
   2935   2933   2945   2946     1  0.0000000  0.6508444  3
   2935   2933   2945   2947     1  0.0000000  0.6508444  3
   2936   2939   2948   2949     1  0.0000000  0.6508444  3
   2936   2939   2948   2950     1  0.0000000  0.6508444  3
   2937   2936   2939   2948     1  0.0000000  0.6508444  3
   2937   2936   2939   2940     1  0.0000000  0.6508444  3
   2937   2936   2939   2941     1  0.0000000  0.6508444  3
   2938   2936   2939   2948     1  0.0000000  0.6508444  3
   2938   2936   2939   2940     1  0.0000000  0.6508444  3
   2938   2936   2939   2941     1  0.0000000  0.6508444  3
   2940   2939   2948   2957     1  0.0000000  1.0460000  1
   2940   2939   2948   2957     1  0.0000000  0.0000000  3
   2940   2939   2948   2949     1  0.0000000  0.6508444  3
   2940   2939   2948   2950     1  0.0000000  0.6508444  3
   2941   2939   2948   2957     1  0.0000000  1.0460000  1
   2941   2939   2948   2957     1  0.0000000  0.0000000  3
   2941   2939   2948   2949     1  0.0000000  0.6508444  3
   2941   2939   2948   2950     1  0.0000000  0.6508444  3
   2943   2942   2954   4693     1  0.0000000  1.0460000  1
   2943   2942   2954   4693     1  0.0000000  0.0000000  3
   2943   2942   2954   2955     1  0.0000000  0.6508444  3
   2943   2942   2954   2956     1  0.0000000  0.6508444  3
   2944   2942   2954   4693     1  0.0000000  1.0460000  1
   2944   2942   2954   4693     1  0.0000000  0.0000000  3
   2944   2942   2954   2955     1  0.0000000  0.6508444  3
   2944   2942   2954   2956     1  0.0000000  0.6508444  3
   2946   2945   2951   4680     1  0.0000000  1.0460000  1
   2946   2945   2951   4680     1  0.0000000  0.0000000  3
   2946   2945   2951   2952     1  0.0000000  0.6508444  3
   2946   2945   2951   2953     1  0.0000000  0.6508444  3
   2947   2945   2951   4680     1  0.0000000  1.0460000  1
   2947   2945   2951   4680     1  0.0000000  0.0000000  3
   2947   2945   2951   2952     1  0.0000000  0.6508444  3
   2947   2945   2951   2953     1  0.0000000  0.6508444  3
   2951   4680   4674   4675     1  0.0000000  1.6038667  3
   2951   4680   4674   4676     1  0.0000000  1.6038667  3
   2952   2951   4680   4674     1  0.0000000  1.6038667  3
   2953   2951   4680   4674     1  0.0000000  1.6038667  3
   2954   4693   4687   4688     1  0.0000000  1.6038667  3
   2954   4693   4687   4689     1  0.0000000  1.6038667  3
   2955   2954   4693   4687     1  0.0000000  1.6038667  3
   2956   2954   4693   4687     1  0.0000000  1.6038667  3
   2958   2959   2971   2972     1  0.0000000  0.6508444  3
   2958   2959   2971   2973     1  0.0000000  0.6508444  3
   2958   2962   2974   2975     1  0.0000000  0.6508444  3
   2958   2962   2974   2976     1  0.0000000  0.6508444  3
   2958   2965   2968   2969     1  0.0000000  0.6508444  3
   2958   2965   2968   2970     1  0.0000000  0.6508444  3
   2959   2958   2962   2963     1  0.0000000  1.2552000  3
   2959   2958   2962   2964     1  0.0000000  1.2552000  3
   2959   2958   2965   2966     1  0.0000000  1.2552000  3
   2959   2958   2965   2967     1  0.0000000  1.2552000  3
   2959   2971   2983   2984     1  0.0000000  0.6508444  3
   2959   2971   2983   2985     1  0.0000000  0.6508444  3
   2960   2959   2958   2962     1  0.0000000  1.2552000  3
   2960   2959   2958   2965     1  0.0000000  1.2552000  3
   2960   2959   2971   2983     1  0.0000000  0.6508444  3
   2960   2959   2971   2972     1  0.0000000  0.6508444  3
   2960   2959   2971   2973     1  0.0000000  0.6508444  3
   2961   2959   2958   2962     1  0.0000000  1.2552000  3
   2961   2959   2958   2965     1  0.0000000  1.2552000  3
   2961   2959   2971   2983     1  0.0000000  0.6508444  3
   2961   2959   2971   2972     1  0.0000000  0.6508444  3
   2961   2959   2971   2973     1  0.0000000  0.6508444  3
   2962   2958   2965   2966     1  0.0000000  1.2552000  3
   2962   2958   2965   2967     1  0.0000000  1.2552000  3
   2962   2974   2980   2981     1  0.0000000  0.6508444  3
   2962   2974   2980   2982     1  0.0000000  0.6508444  3
   2963   2962   2958   2965     1  0.0000000  1.2552000  3
   2963   2962   2974   2980     1  0.0000000  0.6508444  3
   2963   2962   2974   2975     1  0.0000000  0.6508444  3
   2963   2962   2974   2976     1  0.0000000  0.6508444  3
   2964   2962   2958   2965     1  0.0000000  1.2552000  3
   2964   2962   2974   2980     1  0.0000000  0.6508444  3
   2964   2962   2974   2975     1  0.0000000  0.6508444  3
   2964   2962   2974   2976     1  0.0000000  0.6508444  3
   2965   2968   2977   2978     1  0.0000000  0.6508444  3
   2965   2968   2977   2979     1  0.0000000  0.6508444  3
   2966   2965   2968   2977     1  0.0000000  0.6508444  3
   2966   2965   2968   2969     1  0.0000000  0.6508444  3
   2966   2965   2968   2970     1  0.0000000  0.6508444  3
   2967   2965   2968   2977     1  0.0000000  0.6508444  3
   2967   2965   2968   2969     1  0.0000000  0.6508444  3
   2967   2965   2968   2970     1  0.0000000  0.6508444  3
   2969   2968   2977   2986     1  0.0000000  1.0460000  1
   2969   2968   2977   2986     1  0.0000000  0.0000000  3
   2969   2968   2977   2978     1  0.0000000  0.6508444  3
   2969   2968   2977   2979     1  0.0000000  0.6508444  3
   2970   2968   2977   2986     1  0.0000000  1.0460000  1
   2970   2968   2977   2986     1  0.0000000  0.0000000  3
   2970   2968   2977   2978     1  0.0000000  0.6508444  3
   2970   2968   2977   2979     1  0.0000000  0.6508444  3
   2972   2971   2983   4719     1  0.0000000  1.0460000  1
   2972   2971   2983   4719     1  0.0000000  0.0000000  3
   2972   2971   2983   2984     1  0.0000000  0.6508444  3
   2972   2971   2983   2985     1  0.0000000  0.6508444  3
   2973   2971   2983   4719     1  0.0000000  1.0460000  1
   2973   2971   2983   4719     1  0.0000000  0.0000000  3
   2973   2971   2983   2984     1  0.0000000  0.6508444  3
   2973   2971   2983   2985     1  0.0000000  0.6508444  3
   2975   2974   2980   4706     1  0.0000000  1.0460000  1
   2975   2974   2980   4706     1  0.0000000  0.0000000  3
   2975   2974   2980   2981     1  0.0000000  0.6508444  3
   2975   2974   2980   2982     1  0.0000000  0.6508444  3
   2976   2974   2980   4706     1  0.0000000  1.0460000  1
   2976   2974   2980   4706     1  0.0000000  0.0000000  3
   2976   2974   2980   2981     1  0.0000000  0.6508444  3
   2976   2974   2980   2982     1  0.0000000  0.6508444  3
   2980   4706   4700   4701     1  0.0000000  1.6038667  3
   2980   4706   4700   4702     1  0.0000000  1.6038667  3
   2981   2980   4706   4700     1  0.0000000  1.6038667  3
   2982   2980   4706   4700     1  0.0000000  1.6038667  3
   2983   4719   4713   4714     1  0.0000000  1.6038667  3
   2983   4719   4713   4715     1  0.0000000  1.6038667  3
   2984   2983   4719   4713     1  0.0000000  1.6038667  3
   2985   2983   4719   4713     1  0.0000000  1.6038667  3
   2987   2988   3000   3001     1  0.0000000  0.6508444  3
   2987   2988   3000   3002     1  0.0000000  0.6508444  3
   2987   2991   3003   3004     1  0.0000000  0.6508444  3
   2987   2991   3003   3005     1  0.0000000  0.6508444  3
   2987   2994   2997   2998     1  0.0000000  0.6508444  3
   2987   2994   2997   2999     1  0.0000000  0.6508444  3
   2988   2987   2991   2992     1  0.0000000  1.2552000  3
   2988   2987   2991   2993     1  0.0000000  1.2552000  3
   2988   2987   2994   2995     1  0.0000000  1.2552000  3
   2988   2987   2994   2996     1  0.0000000  1.2552000  3
   2988   3000   3012   3013     1  0.0000000  0.6508444  3
   2988   3000   3012   3014     1  0.0000000  0.6508444  3
   2989   2988   2987   2991     1  0.0000000  1.2552000  3
   2989   2988   2987   2994     1  0.0000000  1.2552000  3
   2989   2988   3000   3012     1  0.0000000  0.6508444  3
   2989   2988   3000   3001     1  0.0000000  0.6508444  3
   2989   2988   3000   3002     1  0.0000000  0.6508444  3
   2990   2988   2987   2991     1  0.0000000  1.2552000  3
   2990   2988   2987   2994     1  0.0000000  1.2552000  3
   2990   2988   3000   3012     1  0.0000000  0.6508444  3
   2990   2988   3000   3001     1  0.0000000  0.6508444  3
   2990   2988   3000   3002     1  0.0000000  0.6508444  3
   2991   2987   2994   2995     1  0.0000000  1.2552000  3
   2991   2987   2994   2996     1  0.0000000  1.2552000  3
   2991   3003   3009   3010     1  0.0000000  0.6508444  3
   2991   3003   3009   3011     1  0.0000000  0.6508444  3
   2992   2991   2987   2994     1  0.0000000  1.2552000  3
   2992   2991   3003   3009     1  0.0000000  0.6508444  3
   2992   2991   3003   3004     1  0.0000000  0.6508444  3
   2992   2991   3003   3005     1  0.0000000  0.6508444  3
   2993   2991   2987   2994     1  0.0000000  1.2552000  3
   2993   2991   3003   3009     1  0.0000000  0.6508444  3
   2993   2991   3003   3004     1  0.0000000  0.6508444  3
   2993   2991   3003   3005     1  0.0000000  0.6508444  3
   2994   2997   3006   3007     1  0.0000000  0.6508444  3
   2994   2997   3006   3008     1  0.0000000  0.6508444  3
   2995   2994   2997   3006     1  0.0000000  0.6508444  3
   2995   2994   2997   2998     1  0.0000000  0.6508444  3
   2995   2994   2997   2999     1  0.0000000  0.6508444  3
   2996   2994   2997   3006     1  0.0000000  0.6508444  3
   2996   2994   2997   2998     1  0.0000000  0.6508444  3
   2996   2994   2997   2999     1  0.0000000  0.6508444  3
   2998   2997   3006   3015     1  0.0000000  1.0460000  1
   2998   2997   3006   3015     1  0.0000000  0.0000000  3
   2998   2997   3006   3007     1  0.0000000  0.6508444  3
   2998   2997   3006   3008     1  0.0000000  0.6508444  3
   2999   2997   3006   3015     1  0.0000000  1.0460000  1
   2999   2997   3006   3015     1  0.0000000  0.0000000  3
   2999   2997   3006   3007     1  0.0000000  0.6508444  3
   2999   2997   3006   3008     1  0.0000000  0.6508444  3
   3001   3000   3012   4745     1  0.0000000  1.0460000  1
   3001   3000   3012   4745     1  0.0000000  0.0000000  3
   3001   3000   3012   3013     1  0.0000000  0.6508444  3
   3001   3000   3012   3014     1  0.0000000  0.6508444  3
   3002   3000   3012   4745     1  0.0000000  1.0460000  1
   3002   3000   3012   4745     1  0.0000000  0.0000000  3
   3002   3000   3012   3013     1  0.0000000  0.6508444  3
   3002   3000   3012   3014     1  0.0000000  0.6508444  3
   3004   3003   3009   4732     1  0.0000000  1.0460000  1
   3004   3003   3009   4732     1  0.0000000  0.0000000  3
   3004   3003   3009   3010     1  0.0000000  0.6508444  3
   3004   3003   3009   3011     1  0.0000000  0.6508444  3
   3005   3003   3009   4732     1  0.0000000  1.0460000  1
   3005   3003   3009   4732     1  0.0000000  0.0000000  3
   3005   3003   3009   3010     1  0.0000000  0.6508444  3
   3005   3003   3009   3011     1  0.0000000  0.6508444  3
   3009   4732   4726   4727     1  0.0000000  1.6038667  3
   3009   4732   4726   4728     1  0.0000000  1.6038667  3
   3010   3009   4732   4726     1  0.0000000  1.6038667  3
   3011   3009   4732   4726     1  0.0000000  1.6038667  3
   3012   4745   4739   4740     1  0.0000000  1.6038667  3
   3012   4745   4739   4741     1  0.0000000  1.6038667  3
   3013   3012   4745   4739     1  0.0000000  1.6038667  3
   3014   3012   4745   4739     1  0.0000000  1.6038667  3
   3016   3017   3029   3030     1  0.0000000  0.6508444  3
   3016   3017   3029   3031     1  0.0000000  0.6508444  3
   3016   3020   3032   3033     1  0.0000000  0.6508444  3
   3016   3020   3032   3034     1  0.0000000  0.6508444  3
   3016   3023   3026   3027     1  0.0000000  0.6508444  3
   3016   3023   3026   3028     1  0.0000000  0.6508444  3
   3017   3016   3020   3021     1  0.0000000  1.2552000  3
   3017   3016   3020   3022     1  0.0000000  1.2552000  3
   3017   3016   3023   3024     1  0.0000000  1.2552000  3
   3017   3016   3023   3025     1  0.0000000  1.2552000  3
   3017   3029   3041   3042     1  0.0000000  0.6508444  3
   3017   3029   3041   3043     1  0.0000000  0.6508444  3
   3018   3017   3016   3020     1  0.0000000  1.2552000  3
   3018   3017   3016   3023     1  0.0000000  1.2552000  3
   3018   3017   3029   3041     1  0.0000000  0.6508444  3
   3018   3017   3029   3030     1  0.0000000  0.6508444  3
   3018   3017   3029   3031     1  0.0000000  0.6508444  3
   3019   3017   3016   3020     1  0.0000000  1.2552000  3
   3019   3017   3016   3023     1  0.0000000  1.2552000  3
   3019   3017   3029   3041     1  0.0000000  0.6508444  3
   3019   3017   3029   3030     1  0.0000000  0.6508444  3
   3019   3017   3029   3031     1  0.0000000  0.6508444  3
   3020   3016   3023   3024     1  0.0000000  1.2552000  3
   3020   3016   3023   3025     1  0.0000000  1.2552000  3
   3020   3032   3038   3039     1  0.0000000  0.6508444  3
   3020   3032   3038   3040     1  0.0000000  0.6508444  3
   3021   3020   3016   3023     1  0.0000000  1.2552000  3
   3021   3020   3032   3038     1  0.0000000  0.6508444  3
   3021   3020   3032   3033     1  0.0000000  0.6508444  3
   3021   3020   3032   3034     1  0.0000000  0.6508444  3
   3022   3020   3016   3023     1  0.0000000  1.2552000  3
   3022   3020   3032   3038     1  0.0000000  0.6508444  3
   3022   3020   3032   3033     1  0.0000000  0.6508444  3
   3022   3020   3032   3034     1  0.0000000  0.6508444  3
   3023   3026   3035   3036     1  0.0000000  0.6508444  3
   3023   3026   3035   3037     1  0.0000000  0.6508444  3
   3024   3023   3026   3035     1  0.0000000  0.6508444  3
   3024   3023   3026   3027     1  0.0000000  0.6508444  3
   3024   3023   3026   3028     1  0.0000000  0.6508444  3
   3025   3023   3026   3035     1  0.0000000  0.6508444  3
   3025   3023   3026   3027     1  0.0000000  0.6508444  3
   3025   3023   3026   3028     1  0.0000000  0.6508444  3
   3027   3026   3035   3044     1  0.0000000  1.0460000  1
   3027   3026   3035   3044     1  0.0000000  0.0000000  3
   3027   3026   3035   3036     1  0.0000000  0.6508444  3
   3027   3026   3035   3037     1  0.0000000  0.6508444  3
   3028   3026   3035   3044     1  0.0000000  1.0460000  1
   3028   3026   3035   3044     1  0.0000000  0.0000000  3
   3028   3026   3035   3036     1  0.0000000  0.6508444  3
   3028   3026   3035   3037     1  0.0000000  0.6508444  3
   3030   3029   3041   4771     1  0.0000000  1.0460000  1
   3030   3029   3041   4771     1  0.0000000  0.0000000  3
   3030   3029   3041   3042     1  0.0000000  0.6508444  3
   3030   3029   3041   3043     1  0.0000000  0.6508444  3
   3031   3029   3041   4771     1  0.0000000  1.0460000  1
   3031   3029   3041   4771     1  0.0000000  0.0000000  3
   3031   3029   3041   3042     1  0.0000000  0.6508444  3
   3031   3029   3041   3043     1  0.0000000  0.6508444  3
   3033   3032   3038   4758     1  0.0000000  1.0460000  1
   3033   3032   3038   4758     1  0.0000000  0.0000000  3
   3033   3032   3038   3039     1  0.0000000  0.6508444  3
   3033   3032   3038   3040     1  0.0000000  0.6508444  3
   3034   3032   3038   4758     1  0.0000000  1.0460000  1
   3034   3032   3038   4758     1  0.0000000  0.0000000  3
   3034   3032   3038   3039     1  0.0000000  0.6508444  3
   3034   3032   3038   3040     1  0.0000000  0.6508444  3
   3038   4758   4752   4753     1  0.0000000  1.6038667  3
   3038   4758   4752   4754     1  0.0000000  1.6038667  3
   3039   3038   4758   4752     1  0.0000000  1.6038667  3
   3040   3038   4758   4752     1  0.0000000  1.6038667  3
   3041   4771   4765   4766     1  0.0000000  1.6038667  3
   3041   4771   4765   4767     1  0.0000000  1.6038667  3
   3042   3041   4771   4765     1  0.0000000  1.6038667  3
   3043   3041   4771   4765     1  0.0000000  1.6038667  3
   3045   3046   3058   3059     1  0.0000000  0.6508444  3
   3045   3046   3058   3060     1  0.0000000  0.6508444  3
   3045   3049   3061   3062     1  0.0000000  0.6508444  3
   3045   3049   3061   3063     1  0.0000000  0.6508444  3
   3045   3052   3055   3056     1  0.0000000  0.6508444  3
   3045   3052   3055   3057     1  0.0000000  0.6508444  3
   3046   3045   3049   3050     1  0.0000000  1.2552000  3
   3046   3045   3049   3051     1  0.0000000  1.2552000  3
   3046   3045   3052   3053     1  0.0000000  1.2552000  3
   3046   3045   3052   3054     1  0.0000000  1.2552000  3
   3046   3058   3070   3071     1  0.0000000  0.6508444  3
   3046   3058   3070   3072     1  0.0000000  0.6508444  3
   3047   3046   3045   3049     1  0.0000000  1.2552000  3
   3047   3046   3045   3052     1  0.0000000  1.2552000  3
   3047   3046   3058   3070     1  0.0000000  0.6508444  3
   3047   3046   3058   3059     1  0.0000000  0.6508444  3
   3047   3046   3058   3060     1  0.0000000  0.6508444  3
   3048   3046   3045   3049     1  0.0000000  1.2552000  3
   3048   3046   3045   3052     1  0.0000000  1.2552000  3
   3048   3046   3058   3070     1  0.0000000  0.6508444  3
   3048   3046   3058   3059     1  0.0000000  0.6508444  3
   3048   3046   3058   3060     1  0.0000000  0.6508444  3
   3049   3045   3052   3053     1  0.0000000  1.2552000  3
   3049   3045   3052   3054     1  0.0000000  1.2552000  3
   3049   3061   3067   3068     1  0.0000000  0.6508444  3
   3049   3061   3067   3069     1  0.0000000  0.6508444  3
   3050   3049   3045   3052     1  0.0000000  1.2552000  3
   3050   3049   3061   3067     1  0.0000000  0.6508444  3
   3050   3049   3061   3062     1  0.0000000  0.6508444  3
   3050   3049   3061   3063     1  0.0000000  0.6508444  3
   3051   3049   3045   3052     1  0.0000000  1.2552000  3
   3051   3049   3061   3067     1  0.0000000  0.6508444  3
   3051   3049   3061   3062     1  0.0000000  0.6508444  3
   3051   3049   3061   3063     1  0.0000000  0.6508444  3
   3052   3055   3064   3065     1  0.0000000  0.6508444  3
   3052   3055   3064   3066     1  0.0000000  0.6508444  3
   3053   3052   3055   3064     1  0.0000000  0.6508444  3
   3053   3052   3055   3056     1  0.0000000  0.6508444  3
   3053   3052   3055   3057     1  0.0000000  0.6508444  3
   3054   3052   3055   3064     1  0.0000000  0.6508444  3
   3054   3052   3055   3056     1  0.0000000  0.6508444  3
   3054   3052   3055   3057     1  0.0000000  0.6508444  3
   3056   3055   3064   3073     1  0.0000000  1.0460000  1
   3056   3055   3064   3073     1  0.0000000  0.0000000  3
   3056   3055   3064   3065     1  0.0000000  0.6508444  3
   3056   3055   3064   3066     1  0.0000000  0.6508444  3
   3057   3055   3064   3073     1  0.0000000  1.0460000  1
   3057   3055   3064   3073     1  0.0000000  0.0000000  3
   3057   3055   3064   3065     1  0.0000000  0.6508444  3
   3057   3055   3064   3066     1  0.0000000  0.6508444  3
   3059   3058   3070   4797     1  0.0000000  1.0460000  1
   3059   3058   3070   4797     1  0.0000000  0.0000000  3
   3059   3058   3070   3071     1  0.0000000  0.6508444  3
   3059   3058   3070   3072     1  0.0000000  0.6508444  3
   3060   3058   3070   4797     1  0.0000000  1.0460000  1
   3060   3058   3070   4797     1  0.0000000  0.0000000  3
   3060   3058   3070   3071     1  0.0000000  0.6508444  3
   3060   3058   3070   3072     1  0.0000000  0.6508444  3
   3062   3061   3067   4784     1  0.0000000  1.0460000  1
   3062   3061   3067   4784     1  0.0000000  0.0000000  3
   3062   3061   3067   3068     1  0.0000000  0.6508444  3
   3062   3061   3067   3069     1  0.0000000  0.6508444  3
   3063   3061   3067   4784     1  0.0000000  1.0460000  1
   3063   3061   3067   4784     1  0.0000000  0.0000000  3
   3063   3061   3067   3068     1  0.0000000  0.6508444  3
   3063   3061   3067   3069     1  0.0000000  0.6508444  3
   3067   4784   4778   4779     1  0.0000000  1.6038667  3
   3067   4784   4778   4780     1  0.0000000  1.6038667  3
   3068   3067   4784   4778     1  0.0000000  1.6038667  3
   3069   3067   4784   4778     1  0.0000000  1.6038667  3
   3070   4797   4791   4792     1  0.0000000  1.6038667  3
   3070   4797   4791   4793     1  0.0000000  1.6038667  3
   3071   3070   4797   4791     1  0.0000000  1.6038667  3
   3072   3070   4797   4791     1  0.0000000  1.6038667  3
   3074   3075   3087   3088     1  0.0000000  0.6508444  3
   3074   3075   3087   3089     1  0.0000000  0.6508444  3
   3074   3078   3090   3091     1  0.0000000  0.6508444  3
   3074   3078   3090   3092     1  0.0000000  0.6508444  3
   3074   3081   3084   3085     1  0.0000000  0.6508444  3
   3074   3081   3084   3086     1  0.0000000  0.6508444  3
   3075   3074   3078   3079     1  0.0000000  1.2552000  3
   3075   3074   3078   3080     1  0.0000000  1.2552000  3
   3075   3074   3081   3082     1  0.0000000  1.2552000  3
   3075   3074   3081   3083     1  0.0000000  1.2552000  3
   3075   3087   3099   3100     1  0.0000000  0.6508444  3
   3075   3087   3099   3101     1  0.0000000  0.6508444  3
   3076   3075   3074   3078     1  0.0000000  1.2552000  3
   3076   3075   3074   3081     1  0.0000000  1.2552000  3
   3076   3075   3087   3099     1  0.0000000  0.6508444  3
   3076   3075   3087   3088     1  0.0000000  0.6508444  3
   3076   3075   3087   3089     1  0.0000000  0.6508444  3
   3077   3075   3074   3078     1  0.0000000  1.2552000  3
   3077   3075   3074   3081     1  0.0000000  1.2552000  3
   3077   3075   3087   3099     1  0.0000000  0.6508444  3
   3077   3075   3087   3088     1  0.0000000  0.6508444  3
   3077   3075   3087   3089     1  0.0000000  0.6508444  3
   3078   3074   3081   3082     1  0.0000000  1.2552000  3
   3078   3074   3081   3083     1  0.0000000  1.2552000  3
   3078   3090   3096   3097     1  0.0000000  0.6508444  3
   3078   3090   3096   3098     1  0.0000000  0.6508444  3
   3079   3078   3074   3081     1  0.0000000  1.2552000  3
   3079   3078   3090   3096     1  0.0000000  0.6508444  3
   3079   3078   3090   3091     1  0.0000000  0.6508444  3
   3079   3078   3090   3092     1  0.0000000  0.6508444  3
   3080   3078   3074   3081     1  0.0000000  1.2552000  3
   3080   3078   3090   3096     1  0.0000000  0.6508444  3
   3080   3078   3090   3091     1  0.0000000  0.6508444  3
   3080   3078   3090   3092     1  0.0000000  0.6508444  3
   3081   3084   3093   3094     1  0.0000000  0.6508444  3
   3081   3084   3093   3095     1  0.0000000  0.6508444  3
   3082   3081   3084   3093     1  0.0000000  0.6508444  3
   3082   3081   3084   3085     1  0.0000000  0.6508444  3
   3082   3081   3084   3086     1  0.0000000  0.6508444  3
   3083   3081   3084   3093     1  0.0000000  0.6508444  3
   3083   3081   3084   3085     1  0.0000000  0.6508444  3
   3083   3081   3084   3086     1  0.0000000  0.6508444  3
   3085   3084   3093   3102     1  0.0000000  1.0460000  1
   3085   3084   3093   3102     1  0.0000000  0.0000000  3
   3085   3084   3093   3094     1  0.0000000  0.6508444  3
   3085   3084   3093   3095     1  0.0000000  0.6508444  3
   3086   3084   3093   3102     1  0.0000000  1.0460000  1
   3086   3084   3093   3102     1  0.0000000  0.0000000  3
   3086   3084   3093   3094     1  0.0000000  0.6508444  3
   3086   3084   3093   3095     1  0.0000000  0.6508444  3
   3088   3087   3099   4823     1  0.0000000  1.0460000  1
   3088   3087   3099   4823     1  0.0000000  0.0000000  3
   3088   3087   3099   3100     1  0.0000000  0.6508444  3
   3088   3087   3099   3101     1  0.0000000  0.6508444  3
   3089   3087   3099   4823     1  0.0000000  1.0460000  1
   3089   3087   3099   4823     1  0.0000000  0.0000000  3
   3089   3087   3099   3100     1  0.0000000  0.6508444  3
   3089   3087   3099   3101     1  0.0000000  0.6508444  3
   3091   3090   3096   4810     1  0.0000000  1.0460000  1
   3091   3090   3096   4810     1  0.0000000  0.0000000  3
   3091   3090   3096   3097     1  0.0000000  0.6508444  3
   3091   3090   3096   3098     1  0.0000000  0.6508444  3
   3092   3090   3096   4810     1  0.0000000  1.0460000  1
   3092   3090   3096   4810     1  0.0000000  0.0000000  3
   3092   3090   3096   3097     1  0.0000000  0.6508444  3
   3092   3090   3096   3098     1  0.0000000  0.6508444  3
   3096   4810   4804   4805     1  0.0000000  1.6038667  3
   3096   4810   4804   4806     1  0.0000000  1.6038667  3
   3097   3096   4810   4804     1  0.0000000  1.6038667  3
   3098   3096   4810   4804     1  0.0000000  1.6038667  3
   3099   4823   4817   4818     1  0.0000000  1.6038667  3
   3099   4823   4817   4819     1  0.0000000  1.6038667  3
   3100   3099   4823   4817     1  0.0000000  1.6038667  3
   3101   3099   4823   4817     1  0.0000000  1.6038667  3
   3103   3104   3116   3117     1  0.0000000  0.6508444  3
   3103   3104   3116   3118     1  0.0000000  0.6508444  3
   3103   3107   3119   3120     1  0.0000000  0.6508444  3
   3103   3107   3119   3121     1  0.0000000  0.6508444  3
   3103   3110   3113   3114     1  0.0000000  0.6508444  3
   3103   3110   3113   3115     1  0.0000000  0.6508444  3
   3104   3103   3107   3108     1  0.0000000  1.2552000  3
   3104   3103   3107   3109     1  0.0000000  1.2552000  3
   3104   3103   3110   3111     1  0.0000000  1.2552000  3
   3104   3103   3110   3112     1  0.0000000  1.2552000  3
   3104   3116   3128   3129     1  0.0000000  0.6508444  3
   3104   3116   3128   3130     1  0.0000000  0.6508444  3
   3105   3104   3103   3107     1  0.0000000  1.2552000  3
   3105   3104   3103   3110     1  0.0000000  1.2552000  3
   3105   3104   3116   3128     1  0.0000000  0.6508444  3
   3105   3104   3116   3117     1  0.0000000  0.6508444  3
   3105   3104   3116   3118     1  0.0000000  0.6508444  3
   3106   3104   3103   3107     1  0.0000000  1.2552000  3
   3106   3104   3103   3110     1  0.0000000  1.2552000  3
   3106   3104   3116   3128     1  0.0000000  0.6508444  3
   3106   3104   3116   3117     1  0.0000000  0.6508444  3
   3106   3104   3116   3118     1  0.0000000  0.6508444  3
   3107   3103   3110   3111     1  0.0000000  1.2552000  3
   3107   3103   3110   3112     1  0.0000000  1.2552000  3
   3107   3119   3125   3126     1  0.0000000  0.6508444  3
   3107   3119   3125   3127     1  0.0000000  0.6508444  3
   3108   3107   3103   3110     1  0.0000000  1.2552000  3
   3108   3107   3119   3125     1  0.0000000  0.6508444  3
   3108   3107   3119   3120     1  0.0000000  0.6508444  3
   3108   3107   3119   3121     1  0.0000000  0.6508444  3
   3109   3107   3103   3110     1  0.0000000  1.2552000  3
   3109   3107   3119   3125     1  0.0000000  0.6508444  3
   3109   3107   3119   3120     1  0.0000000  0.6508444  3
   3109   3107   3119   3121     1  0.0000000  0.6508444  3
   3110   3113   3122   3123     1  0.0000000  0.6508444  3
   3110   3113   3122   3124     1  0.0000000  0.6508444  3
   3111   3110   3113   3122     1  0.0000000  0.6508444  3
   3111   3110   3113   3114     1  0.0000000  0.6508444  3
   3111   3110   3113   3115     1  0.0000000  0.6508444  3
   3112   3110   3113   3122     1  0.0000000  0.6508444  3
   3112   3110   3113   3114     1  0.0000000  0.6508444  3
   3112   3110   3113   3115     1  0.0000000  0.6508444  3
   3114   3113   3122   3131     1  0.0000000  1.0460000  1
   3114   3113   3122   3131     1  0.0000000  0.0000000  3
   3114   3113   3122   3123     1  0.0000000  0.6508444  3
   3114   3113   3122   3124     1  0.0000000  0.6508444  3
   3115   3113   3122   3131     1  0.0000000  1.0460000  1
   3115   3113   3122   3131     1  0.0000000  0.0000000  3
   3115   3113   3122   3123     1  0.0000000  0.6508444  3
   3115   3113   3122   3124     1  0.0000000  0.6508444  3
   3117   3116   3128   4849     1  0.0000000  1.0460000  1
   3117   3116   3128   4849     1  0.0000000  0.0000000  3
   3117   3116   3128   3129     1  0.0000000  0.6508444  3
   3117   3116   3128   3130     1  0.0000000  0.6508444  3
   3118   3116   3128   4849     1  0.0000000  1.0460000  1
   3118   3116   3128   4849     1  0.0000000  0.0000000  3
   3118   3116   3128   3129     1  0.0000000  0.6508444  3
   3118   3116   3128   3130     1  0.0000000  0.6508444  3
   3120   3119   3125   4836     1  0.0000000  1.0460000  1
   3120   3119   3125   4836     1  0.0000000  0.0000000  3
   3120   3119   3125   3126     1  0.0000000  0.6508444  3
   3120   3119   3125   3127     1  0.0000000  0.6508444  3
   3121   3119   3125   4836     1  0.0000000  1.0460000  1
   3121   3119   3125   4836     1  0.0000000  0.0000000  3
   3121   3119   3125   3126     1  0.0000000  0.6508444  3
   3121   3119   3125   3127     1  0.0000000  0.6508444  3
   3125   4836   4830   4831     1  0.0000000  1.6038667  3
   3125   4836   4830   4832     1  0.0000000  1.6038667  3
   3126   3125   4836   4830     1  0.0000000  1.6038667  3
   3127   3125   4836   4830     1  0.0000000  1.6038667  3
   3128   4849   4843   4844     1  0.0000000  1.6038667  3
   3128   4849   4843   4845     1  0.0000000  1.6038667  3
   3129   3128   4849   4843     1  0.0000000  1.6038667  3
   3130   3128   4849   4843     1  0.0000000  1.6038667  3
   3132   3133   3145   3146     1  0.0000000  0.6508444  3
   3132   3133   3145   3147     1  0.0000000  0.6508444  3
   3132   3136   3148   3149     1  0.0000000  0.6508444  3
   3132   3136   3148   3150     1  0.0000000  0.6508444  3
   3132   3139   3142   3143     1  0.0000000  0.6508444  3
   3132   3139   3142   3144     1  0.0000000  0.6508444  3
   3133   3132   3136   3137     1  0.0000000  1.2552000  3
   3133   3132   3136   3138     1  0.0000000  1.2552000  3
   3133   3132   3139   3140     1  0.0000000  1.2552000  3
   3133   3132   3139   3141     1  0.0000000  1.2552000  3
   3133   3145   3157   3158     1  0.0000000  0.6508444  3
   3133   3145   3157   3159     1  0.0000000  0.6508444  3
   3134   3133   3132   3136     1  0.0000000  1.2552000  3
   3134   3133   3132   3139     1  0.0000000  1.2552000  3
   3134   3133   3145   3157     1  0.0000000  0.6508444  3
   3134   3133   3145   3146     1  0.0000000  0.6508444  3
   3134   3133   3145   3147     1  0.0000000  0.6508444  3
   3135   3133   3132   3136     1  0.0000000  1.2552000  3
   3135   3133   3132   3139     1  0.0000000  1.2552000  3
   3135   3133   3145   3157     1  0.0000000  0.6508444  3
   3135   3133   3145   3146     1  0.0000000  0.6508444  3
   3135   3133   3145   3147     1  0.0000000  0.6508444  3
   3136   3132   3139   3140     1  0.0000000  1.2552000  3
   3136   3132   3139   3141     1  0.0000000  1.2552000  3
   3136   3148   3154   3155     1  0.0000000  0.6508444  3
   3136   3148   3154   3156     1  0.0000000  0.6508444  3
   3137   3136   3132   3139     1  0.0000000  1.2552000  3
   3137   3136   3148   3154     1  0.0000000  0.6508444  3
   3137   3136   3148   3149     1  0.0000000  0.6508444  3
   3137   3136   3148   3150     1  0.0000000  0.6508444  3
   3138   3136   3132   3139     1  0.0000000  1.2552000  3
   3138   3136   3148   3154     1  0.0000000  0.6508444  3
   3138   3136   3148   3149     1  0.0000000  0.6508444  3
   3138   3136   3148   3150     1  0.0000000  0.6508444  3
   3139   3142   3151   3152     1  0.0000000  0.6508444  3
   3139   3142   3151   3153     1  0.0000000  0.6508444  3
   3140   3139   3142   3151     1  0.0000000  0.6508444  3
   3140   3139   3142   3143     1  0.0000000  0.6508444  3
   3140   3139   3142   3144     1  0.0000000  0.6508444  3
   3141   3139   3142   3151     1  0.0000000  0.6508444  3
   3141   3139   3142   3143     1  0.0000000  0.6508444  3
   3141   3139   3142   3144     1  0.0000000  0.6508444  3
   3143   3142   3151   3160     1  0.0000000  1.0460000  1
   3143   3142   3151   3160     1  0.0000000  0.0000000  3
   3143   3142   3151   3152     1  0.0000000  0.6508444  3
   3143   3142   3151   3153     1  0.0000000  0.6508444  3
   3144   3142   3151   3160     1  0.0000000  1.0460000  1
   3144   3142   3151   3160     1  0.0000000  0.0000000  3
   3144   3142   3151   3152     1  0.0000000  0.6508444  3
   3144   3142   3151   3153     1  0.0000000  0.6508444  3
   3146   3145   3157   4875     1  0.0000000  1.0460000  1
   3146   3145   3157   4875     1  0.0000000  0.0000000  3
   3146   3145   3157   3158     1  0.0000000  0.6508444  3
   3146   3145   3157   3159     1  0.0000000  0.6508444  3
   3147   3145   3157   4875     1  0.0000000  1.0460000  1
   3147   3145   3157   4875     1  0.0000000  0.0000000  3
   3147   3145   3157   3158     1  0.0000000  0.6508444  3
   3147   3145   3157   3159     1  0.0000000  0.6508444  3
   3149   3148   3154   4862     1  0.0000000  1.0460000  1
   3149   3148   3154   4862     1  0.0000000  0.0000000  3
   3149   3148   3154   3155     1  0.0000000  0.6508444  3
   3149   3148   3154   3156     1  0.0000000  0.6508444  3
   3150   3148   3154   4862     1  0.0000000  1.0460000  1
   3150   3148   3154   4862     1  0.0000000  0.0000000  3
   3150   3148   3154   3155     1  0.0000000  0.6508444  3
   3150   3148   3154   3156     1  0.0000000  0.6508444  3
   3154   4862   4856   4857     1  0.0000000  1.6038667  3
   3154   4862   4856   4858     1  0.0000000  1.6038667  3
   3155   3154   4862   4856     1  0.0000000  1.6038667  3
   3156   3154   4862   4856     1  0.0000000  1.6038667  3
   3157   4875   4869   4870     1  0.0000000  1.6038667  3
   3157   4875   4869   4871     1  0.0000000  1.6038667  3
   3158   3157   4875   4869     1  0.0000000  1.6038667  3
   3159   3157   4875   4869     1  0.0000000  1.6038667  3
   3161   3162   3174   3175     1  0.0000000  0.6508444  3
   3161   3162   3174   3176     1  0.0000000  0.6508444  3
   3161   3165   3177   3178     1  0.0000000  0.6508444  3
   3161   3165   3177   3179     1  0.0000000  0.6508444  3
   3161   3168   3171   3172     1  0.0000000  0.6508444  3
   3161   3168   3171   3173     1  0.0000000  0.6508444  3
   3162   3161   3165   3166     1  0.0000000  1.2552000  3
   3162   3161   3165   3167     1  0.0000000  1.2552000  3
   3162   3161   3168   3169     1  0.0000000  1.2552000  3
   3162   3161   3168   3170     1  0.0000000  1.2552000  3
   3162   3174   3186   3187     1  0.0000000  0.6508444  3
   3162   3174   3186   3188     1  0.0000000  0.6508444  3
   3163   3162   3161   3165     1  0.0000000  1.2552000  3
   3163   3162   3161   3168     1  0.0000000  1.2552000  3
   3163   3162   3174   3186     1  0.0000000  0.6508444  3
   3163   3162   3174   3175     1  0.0000000  0.6508444  3
   3163   3162   3174   3176     1  0.0000000  0.6508444  3
   3164   3162   3161   3165     1  0.0000000  1.2552000  3
   3164   3162   3161   3168     1  0.0000000  1.2552000  3
   3164   3162   3174   3186     1  0.0000000  0.6508444  3
   3164   3162   3174   3175     1  0.0000000  0.6508444  3
   3164   3162   3174   3176     1  0.0000000  0.6508444  3
   3165   3161   3168   3169     1  0.0000000  1.2552000  3
   3165   3161   3168   3170     1  0.0000000  1.2552000  3
   3165   3177   3183   3184     1  0.0000000  0.6508444  3
   3165   3177   3183   3185     1  0.0000000  0.6508444  3
   3166   3165   3161   3168     1  0.0000000  1.2552000  3
   3166   3165   3177   3183     1  0.0000000  0.6508444  3
   3166   3165   3177   3178     1  0.0000000  0.6508444  3
   3166   3165   3177   3179     1  0.0000000  0.6508444  3
   3167   3165   3161   3168     1  0.0000000  1.2552000  3
   3167   3165   3177   3183     1  0.0000000  0.6508444  3
   3167   3165   3177   3178     1  0.0000000  0.6508444  3
   3167   3165   3177   3179     1  0.0000000  0.6508444  3
   3168   3171   3180   3181     1  0.0000000  0.6508444  3
   3168   3171   3180   3182     1  0.0000000  0.6508444  3
   3169   3168   3171   3180     1  0.0000000  0.6508444  3
   3169   3168   3171   3172     1  0.0000000  0.6508444  3
   3169   3168   3171   3173     1  0.0000000  0.6508444  3
   3170   3168   3171   3180     1  0.0000000  0.6508444  3
   3170   3168   3171   3172     1  0.0000000  0.6508444  3
   3170   3168   3171   3173     1  0.0000000  0.6508444  3
   3172   3171   3180   3189     1  0.0000000  1.0460000  1
   3172   3171   3180   3189     1  0.0000000  0.0000000  3
   3172   3171   3180   3181     1  0.0000000  0.6508444  3
   3172   3171   3180   3182     1  0.0000000  0.6508444  3
   3173   3171   3180   3189     1  0.0000000  1.0460000  1
   3173   3171   3180   3189     1  0.0000000  0.0000000  3
   3173   3171   3180   3181     1  0.0000000  0.6508444  3
   3173   3171   3180   3182     1  0.0000000  0.6508444  3
   3175   3174   3186   4901     1  0.0000000  1.0460000  1
   3175   3174   3186   4901     1  0.0000000  0.0000000  3
   3175   3174   3186   3187     1  0.0000000  0.6508444  3
   3175   3174   3186   3188     1  0.0000000  0.6508444  3
   3176   3174   3186   4901     1  0.0000000  1.0460000  1
   3176   3174   3186   4901     1  0.0000000  0.0000000  3
   3176   3174   3186   3187     1  0.0000000  0.6508444  3
   3176   3174   3186   3188     1  0.0000000  0.6508444  3
   3178   3177   3183   4888     1  0.0000000  1.0460000  1
   3178   3177   3183   4888     1  0.0000000  0.0000000  3
   3178   3177   3183   3184     1  0.0000000  0.6508444  3
   3178   3177   3183   3185     1  0.0000000  0.6508444  3
   3179   3177   3183   4888     1  0.0000000  1.0460000  1
   3179   3177   3183   4888     1  0.0000000  0.0000000  3
   3179   3177   3183   3184     1  0.0000000  0.6508444  3
   3179   3177   3183   3185     1  0.0000000  0.6508444  3
   3183   4888   4882   4883     1  0.0000000  1.6038667  3
   3183   4888   4882   4884     1  0.0000000  1.6038667  3
   3184   3183   4888   4882     1  0.0000000  1.6038667  3
   3185   3183   4888   4882     1  0.0000000  1.6038667  3
   3186   4901   4895   4896     1  0.0000000  1.6038667  3
   3186   4901   4895   4897     1  0.0000000  1.6038667  3
   3187   3186   4901   4895     1  0.0000000  1.6038667  3
   3188   3186   4901   4895     1  0.0000000  1.6038667  3
   3190   3191   3203   3204     1  0.0000000  0.6508444  3
   3190   3191   3203   3205     1  0.0000000  0.6508444  3
   3190   3194   3206   3207     1  0.0000000  0.6508444  3
   3190   3194   3206   3208     1  0.0000000  0.6508444  3
   3190   3197   3200   3201     1  0.0000000  0.6508444  3
   3190   3197   3200   3202     1  0.0000000  0.6508444  3
   3191   3190   3194   3195     1  0.0000000  1.2552000  3
   3191   3190   3194   3196     1  0.0000000  1.2552000  3
   3191   3190   3197   3198     1  0.0000000  1.2552000  3
   3191   3190   3197   3199     1  0.0000000  1.2552000  3
   3191   3203   3215   3216     1  0.0000000  0.6508444  3
   3191   3203   3215   3217     1  0.0000000  0.6508444  3
   3192   3191   3190   3194     1  0.0000000  1.2552000  3
   3192   3191   3190   3197     1  0.0000000  1.2552000  3
   3192   3191   3203   3215     1  0.0000000  0.6508444  3
   3192   3191   3203   3204     1  0.0000000  0.6508444  3
   3192   3191   3203   3205     1  0.0000000  0.6508444  3
   3193   3191   3190   3194     1  0.0000000  1.2552000  3
   3193   3191   3190   3197     1  0.0000000  1.2552000  3
   3193   3191   3203   3215     1  0.0000000  0.6508444  3
   3193   3191   3203   3204     1  0.0000000  0.6508444  3
   3193   3191   3203   3205     1  0.0000000  0.6508444  3
   3194   3190   3197   3198     1  0.0000000  1.2552000  3
   3194   3190   3197   3199     1  0.0000000  1.2552000  3
   3194   3206   3212   3213     1  0.0000000  0.6508444  3
   3194   3206   3212   3214     1  0.0000000  0.6508444  3
   3195   3194   3190   3197     1  0.0000000  1.2552000  3
   3195   3194   3206   3212     1  0.0000000  0.6508444  3
   3195   3194   3206   3207     1  0.0000000  0.6508444  3
   3195   3194   3206   3208     1  0.0000000  0.6508444  3
   3196   3194   3190   3197     1  0.0000000  1.2552000  3
   3196   3194   3206   3212     1  0.0000000  0.6508444  3
   3196   3194   3206   3207     1  0.0000000  0.6508444  3
   3196   3194   3206   3208     1  0.0000000  0.6508444  3
   3197   3200   3209   3210     1  0.0000000  0.6508444  3
   3197   3200   3209   3211     1  0.0000000  0.6508444  3
   3198   3197   3200   3209     1  0.0000000  0.6508444  3
   3198   3197   3200   3201     1  0.0000000  0.6508444  3
   3198   3197   3200   3202     1  0.0000000  0.6508444  3
   3199   3197   3200   3209     1  0.0000000  0.6508444  3
   3199   3197   3200   3201     1  0.0000000  0.6508444  3
   3199   3197   3200   3202     1  0.0000000  0.6508444  3
   3201   3200   3209   3218     1  0.0000000  1.0460000  1
   3201   3200   3209   3218     1  0.0000000  0.0000000  3
   3201   3200   3209   3210     1  0.0000000  0.6508444  3
   3201   3200   3209   3211     1  0.0000000  0.6508444  3
   3202   3200   3209   3218     1  0.0000000  1.0460000  1
   3202   3200   3209   3218     1  0.0000000  0.0000000  3
   3202   3200   3209   3210     1  0.0000000  0.6508444  3
   3202   3200   3209   3211     1  0.0000000  0.6508444  3
   3204   3203   3215   4927     1  0.0000000  1.0460000  1
   3204   3203   3215   4927     1  0.0000000  0.0000000  3
   3204   3203   3215   3216     1  0.0000000  0.6508444  3
   3204   3203   3215   3217     1  0.0000000  0.6508444  3
   3205   3203   3215   4927     1  0.0000000  1.0460000  1
   3205   3203   3215   4927     1  0.0000000  0.0000000  3
   3205   3203   3215   3216     1  0.0000000  0.6508444  3
   3205   3203   3215   3217     1  0.0000000  0.6508444  3
   3207   3206   3212   4914     1  0.0000000  1.0460000  1
   3207   3206   3212   4914     1  0.0000000  0.0000000  3
   3207   3206   3212   3213     1  0.0000000  0.6508444  3
   3207   3206   3212   3214     1  0.0000000  0.6508444  3
   3208   3206   3212   4914     1  0.0000000  1.0460000  1
   3208   3206   3212   4914     1  0.0000000  0.0000000  3
   3208   3206   3212   3213     1  0.0000000  0.6508444  3
   3208   3206   3212   3214     1  0.0000000  0.6508444  3
   3212   4914   4908   4909     1  0.0000000  1.6038667  3
   3212   4914   4908   4910     1  0.0000000  1.6038667  3
   3213   3212   4914   4908     1  0.0000000  1.6038667  3
   3214   3212   4914   4908     1  0.0000000  1.6038667  3
   3215   4927   4921   4922     1  0.0000000  1.6038667  3
   3215   4927   4921   4923     1  0.0000000  1.6038667  3
   3216   3215   4927   4921     1  0.0000000  1.6038667  3
   3217   3215   4927   4921     1  0.0000000  1.6038667  3
   3219   3220   3232   3233     1  0.0000000  0.6508444  3
   3219   3220   3232   3234     1  0.0000000  0.6508444  3
   3219   3223   3235   3236     1  0.0000000  0.6508444  3
   3219   3223   3235   3237     1  0.0000000  0.6508444  3
   3219   3226   3229   3230     1  0.0000000  0.6508444  3
   3219   3226   3229   3231     1  0.0000000  0.6508444  3
   3220   3219   3223   3224     1  0.0000000  1.2552000  3
   3220   3219   3223   3225     1  0.0000000  1.2552000  3
   3220   3219   3226   3227     1  0.0000000  1.2552000  3
   3220   3219   3226   3228     1  0.0000000  1.2552000  3
   3220   3232   3244   3245     1  0.0000000  0.6508444  3
   3220   3232   3244   3246     1  0.0000000  0.6508444  3
   3221   3220   3219   3223     1  0.0000000  1.2552000  3
   3221   3220   3219   3226     1  0.0000000  1.2552000  3
   3221   3220   3232   3244     1  0.0000000  0.6508444  3
   3221   3220   3232   3233     1  0.0000000  0.6508444  3
   3221   3220   3232   3234     1  0.0000000  0.6508444  3
   3222   3220   3219   3223     1  0.0000000  1.2552000  3
   3222   3220   3219   3226     1  0.0000000  1.2552000  3
   3222   3220   3232   3244     1  0.0000000  0.6508444  3
   3222   3220   3232   3233     1  0.0000000  0.6508444  3
   3222   3220   3232   3234     1  0.0000000  0.6508444  3
   3223   3219   3226   3227     1  0.0000000  1.2552000  3
   3223   3219   3226   3228     1  0.0000000  1.2552000  3
   3223   3235   3241   3242     1  0.0000000  0.6508444  3
   3223   3235   3241   3243     1  0.0000000  0.6508444  3
   3224   3223   3219   3226     1  0.0000000  1.2552000  3
   3224   3223   3235   3241     1  0.0000000  0.6508444  3
   3224   3223   3235   3236     1  0.0000000  0.6508444  3
   3224   3223   3235   3237     1  0.0000000  0.6508444  3
   3225   3223   3219   3226     1  0.0000000  1.2552000  3
   3225   3223   3235   3241     1  0.0000000  0.6508444  3
   3225   3223   3235   3236     1  0.0000000  0.6508444  3
   3225   3223   3235   3237     1  0.0000000  0.6508444  3
   3226   3229   3238   3239     1  0.0000000  0.6508444  3
   3226   3229   3238   3240     1  0.0000000  0.6508444  3
   3227   3226   3229   3238     1  0.0000000  0.6508444  3
   3227   3226   3229   3230     1  0.0000000  0.6508444  3
   3227   3226   3229   3231     1  0.0000000  0.6508444  3
   3228   3226   3229   3238     1  0.0000000  0.6508444  3
   3228   3226   3229   3230     1  0.0000000  0.6508444  3
   3228   3226   3229   3231     1  0.0000000  0.6508444  3
   3230   3229   3238   3247     1  0.0000000  1.0460000  1
   3230   3229   3238   3247     1  0.0000000  0.0000000  3
   3230   3229   3238   3239     1  0.0000000  0.6508444  3
   3230   3229   3238   3240     1  0.0000000  0.6508444  3
   3231   3229   3238   3247     1  0.0000000  1.0460000  1
   3231   3229   3238   3247     1  0.0000000  0.0000000  3
   3231   3229   3238   3239     1  0.0000000  0.6508444  3
   3231   3229   3238   3240     1  0.0000000  0.6508444  3
   3233   3232   3244   4953     1  0.0000000  1.0460000  1
   3233   3232   3244   4953     1  0.0000000  0.0000000  3
   3233   3232   3244   3245     1  0.0000000  0.6508444  3
   3233   3232   3244   3246     1  0.0000000  0.6508444  3
   3234   3232   3244   4953     1  0.0000000  1.0460000  1
   3234   3232   3244   4953     1  0.0000000  0.0000000  3
   3234   3232   3244   3245     1  0.0000000  0.6508444  3
   3234   3232   3244   3246     1  0.0000000  0.6508444  3
   3236   3235   3241   4940     1  0.0000000  1.0460000  1
   3236   3235   3241   4940     1  0.0000000  0.0000000  3
   3236   3235   3241   3242     1  0.0000000  0.6508444  3
   3236   3235   3241   3243     1  0.0000000  0.6508444  3
   3237   3235   3241   4940     1  0.0000000  1.0460000  1
   3237   3235   3241   4940     1  0.0000000  0.0000000  3
   3237   3235   3241   3242     1  0.0000000  0.6508444  3
   3237   3235   3241   3243     1  0.0000000  0.6508444  3
   3241   4940   4934   4935     1  0.0000000  1.6038667  3
   3241   4940   4934   4936     1  0.0000000  1.6038667  3
   3242   3241   4940   4934     1  0.0000000  1.6038667  3
   3243   3241   4940   4934     1  0.0000000  1.6038667  3
   3244   4953   4947   4948     1  0.0000000  1.6038667  3
   3244   4953   4947   4949     1  0.0000000  1.6038667  3
   3245   3244   4953   4947     1  0.0000000  1.6038667  3
   3246   3244   4953   4947     1  0.0000000  1.6038667  3
   3248   3249   3261   3262     1  0.0000000  0.6508444  3
   3248   3249   3261   3263     1  0.0000000  0.6508444  3
   3248   3252   3264   3265     1  0.0000000  0.6508444  3
   3248   3252   3264   3266     1  0.0000000  0.6508444  3
   3248   3255   3258   3259     1  0.0000000  0.6508444  3
   3248   3255   3258   3260     1  0.0000000  0.6508444  3
   3249   3248   3252   3253     1  0.0000000  1.2552000  3
   3249   3248   3252   3254     1  0.0000000  1.2552000  3
   3249   3248   3255   3256     1  0.0000000  1.2552000  3
   3249   3248   3255   3257     1  0.0000000  1.2552000  3
   3249   3261   3273   3274     1  0.0000000  0.6508444  3
   3249   3261   3273   3275     1  0.0000000  0.6508444  3
   3250   3249   3248   3252     1  0.0000000  1.2552000  3
   3250   3249   3248   3255     1  0.0000000  1.2552000  3
   3250   3249   3261   3273     1  0.0000000  0.6508444  3
   3250   3249   3261   3262     1  0.0000000  0.6508444  3
   3250   3249   3261   3263     1  0.0000000  0.6508444  3
   3251   3249   3248   3252     1  0.0000000  1.2552000  3
   3251   3249   3248   3255     1  0.0000000  1.2552000  3
   3251   3249   3261   3273     1  0.0000000  0.6508444  3
   3251   3249   3261   3262     1  0.0000000  0.6508444  3
   3251   3249   3261   3263     1  0.0000000  0.6508444  3
   3252   3248   3255   3256     1  0.0000000  1.2552000  3
   3252   3248   3255   3257     1  0.0000000  1.2552000  3
   3252   3264   3270   3271     1  0.0000000  0.6508444  3
   3252   3264   3270   3272     1  0.0000000  0.6508444  3
   3253   3252   3248   3255     1  0.0000000  1.2552000  3
   3253   3252   3264   3270     1  0.0000000  0.6508444  3
   3253   3252   3264   3265     1  0.0000000  0.6508444  3
   3253   3252   3264   3266     1  0.0000000  0.6508444  3
   3254   3252   3248   3255     1  0.0000000  1.2552000  3
   3254   3252   3264   3270     1  0.0000000  0.6508444  3
   3254   3252   3264   3265     1  0.0000000  0.6508444  3
   3254   3252   3264   3266     1  0.0000000  0.6508444  3
   3255   3258   3267   3268     1  0.0000000  0.6508444  3
   3255   3258   3267   3269     1  0.0000000  0.6508444  3
   3256   3255   3258   3267     1  0.0000000  0.6508444  3
   3256   3255   3258   3259     1  0.0000000  0.6508444  3
   3256   3255   3258   3260     1  0.0000000  0.6508444  3
   3257   3255   3258   3267     1  0.0000000  0.6508444  3
   3257   3255   3258   3259     1  0.0000000  0.6508444  3
   3257   3255   3258   3260     1  0.0000000  0.6508444  3
   3259   3258   3267   3276     1  0.0000000  1.0460000  1
   3259   3258   3267   3276     1  0.0000000  0.0000000  3
   3259   3258   3267   3268     1  0.0000000  0.6508444  3
   3259   3258   3267   3269     1  0.0000000  0.6508444  3
   3260   3258   3267   3276     1  0.0000000  1.0460000  1
   3260   3258   3267   3276     1  0.0000000  0.0000000  3
   3260   3258   3267   3268     1  0.0000000  0.6508444  3
   3260   3258   3267   3269     1  0.0000000  0.6508444  3
   3262   3261   3273   4979     1  0.0000000  1.0460000  1
   3262   3261   3273   4979     1  0.0000000  0.0000000  3
   3262   3261   3273   3274     1  0.0000000  0.6508444  3
   3262   3261   3273   3275     1  0.0000000  0.6508444  3
   3263   3261   3273   4979     1  0.0000000  1.0460000  1
   3263   3261   3273   4979     1  0.0000000  0.0000000  3
   3263   3261   3273   3274     1  0.0000000  0.6508444  3
   3263   3261   3273   3275     1  0.0000000  0.6508444  3
   3265   3264   3270   4966     1  0.0000000  1.0460000  1
   3265   3264   3270   4966     1  0.0000000  0.0000000  3
   3265   3264   3270   3271     1  0.0000000  0.6508444  3
   3265   3264   3270   3272     1  0.0000000  0.6508444  3
   3266   3264   3270   4966     1  0.0000000  1.0460000  1
   3266   3264   3270   4966     1  0.0000000  0.0000000  3
   3266   3264   3270   3271     1  0.0000000  0.6508444  3
   3266   3264   3270   3272     1  0.0000000  0.6508444  3
   3270   4966   4960   4961     1  0.0000000  1.6038667  3
   3270   4966   4960   4962     1  0.0000000  1.6038667  3
   3271   3270   4966   4960     1  0.0000000  1.6038667  3
   3272   3270   4966   4960     1  0.0000000  1.6038667  3
   3273   4979   4973   4974     1  0.0000000  1.6038667  3
   3273   4979   4973   4975     1  0.0000000  1.6038667  3
   3274   3273   4979   4973     1  0.0000000  1.6038667  3
   3275   3273   4979   4973     1  0.0000000  1.6038667  3
   3277   3278   3290   3291     1  0.0000000  0.6508444  3
   3277   3278   3290   3292     1  0.0000000  0.6508444  3
   3277   3281   3293   3294     1  0.0000000  0.6508444  3
   3277   3281   3293   3295     1  0.0000000  0.6508444  3
   3277   3284   3287   3288     1  0.0000000  0.6508444  3
   3277   3284   3287   3289     1  0.0000000  0.6508444  3
   3278   3277   3281   3282     1  0.0000000  1.2552000  3
   3278   3277   3281   3283     1  0.0000000  1.2552000  3
   3278   3277   3284   3285     1  0.0000000  1.2552000  3
   3278   3277   3284   3286     1  0.0000000  1.2552000  3
   3278   3290   3302   3303     1  0.0000000  0.6508444  3
   3278   3290   3302   3304     1  0.0000000  0.6508444  3
   3279   3278   3277   3281     1  0.0000000  1.2552000  3
   3279   3278   3277   3284     1  0.0000000  1.2552000  3
   3279   3278   3290   3302     1  0.0000000  0.6508444  3
   3279   3278   3290   3291     1  0.0000000  0.6508444  3
   3279   3278   3290   3292     1  0.0000000  0.6508444  3
   3280   3278   3277   3281     1  0.0000000  1.2552000  3
   3280   3278   3277   3284     1  0.0000000  1.2552000  3
   3280   3278   3290   3302     1  0.0000000  0.6508444  3
   3280   3278   3290   3291     1  0.0000000  0.6508444  3
   3280   3278   3290   3292     1  0.0000000  0.6508444  3
   3281   3277   3284   3285     1  0.0000000  1.2552000  3
   3281   3277   3284   3286     1  0.0000000  1.2552000  3
   3281   3293   3299   3300     1  0.0000000  0.6508444  3
   3281   3293   3299   3301     1  0.0000000  0.6508444  3
   3282   3281   3277   3284     1  0.0000000  1.2552000  3
   3282   3281   3293   3299     1  0.0000000  0.6508444  3
   3282   3281   3293   3294     1  0.0000000  0.6508444  3
   3282   3281   3293   3295     1  0.0000000  0.6508444  3
   3283   3281   3277   3284     1  0.0000000  1.2552000  3
   3283   3281   3293   3299     1  0.0000000  0.6508444  3
   3283   3281   3293   3294     1  0.0000000  0.6508444  3
   3283   3281   3293   3295     1  0.0000000  0.6508444  3
   3284   3287   3296   3297     1  0.0000000  0.6508444  3
   3284   3287   3296   3298     1  0.0000000  0.6508444  3
   3285   3284   3287   3296     1  0.0000000  0.6508444  3
   3285   3284   3287   3288     1  0.0000000  0.6508444  3
   3285   3284   3287   3289     1  0.0000000  0.6508444  3
   3286   3284   3287   3296     1  0.0000000  0.6508444  3
   3286   3284   3287   3288     1  0.0000000  0.6508444  3
   3286   3284   3287   3289     1  0.0000000  0.6508444  3
   3288   3287   3296   3305     1  0.0000000  1.0460000  1
   3288   3287   3296   3305     1  0.0000000  0.0000000  3
   3288   3287   3296   3297     1  0.0000000  0.6508444  3
   3288   3287   3296   3298     1  0.0000000  0.6508444  3
   3289   3287   3296   3305     1  0.0000000  1.0460000  1
   3289   3287   3296   3305     1  0.0000000  0.0000000  3
   3289   3287   3296   3297     1  0.0000000  0.6508444  3
   3289   3287   3296   3298     1  0.0000000  0.6508444  3
   3291   3290   3302   5005     1  0.0000000  1.0460000  1
   3291   3290   3302   5005     1  0.0000000  0.0000000  3
   3291   3290   3302   3303     1  0.0000000  0.6508444  3
   3291   3290   3302   3304     1  0.0000000  0.6508444  3
   3292   3290   3302   5005     1  0.0000000  1.0460000  1
   3292   3290   3302   5005     1  0.0000000  0.0000000  3
   3292   3290   3302   3303     1  0.0000000  0.6508444  3
   3292   3290   3302   3304     1  0.0000000  0.6508444  3
   3294   3293   3299   4992     1  0.0000000  1.0460000  1
   3294   3293   3299   4992     1  0.0000000  0.0000000  3
   3294   3293   3299   3300     1  0.0000000  0.6508444  3
   3294   3293   3299   3301     1  0.0000000  0.6508444  3
   3295   3293   3299   4992     1  0.0000000  1.0460000  1
   3295   3293   3299   4992     1  0.0000000  0.0000000  3
   3295   3293   3299   3300     1  0.0000000  0.6508444  3
   3295   3293   3299   3301     1  0.0000000  0.6508444  3
   3299   4992   4986   4987     1  0.0000000  1.6038667  3
   3299   4992   4986   4988     1  0.0000000  1.6038667  3
   3300   3299   4992   4986     1  0.0000000  1.6038667  3
   3301   3299   4992   4986     1  0.0000000  1.6038667  3
   3302   5005   4999   5000     1  0.0000000  1.6038667  3
   3302   5005   4999   5001     1  0.0000000  1.6038667  3
   3303   3302   5005   4999     1  0.0000000  1.6038667  3
   3304   3302   5005   4999     1  0.0000000  1.6038667  3
   3306   3307   3319   3320     1  0.0000000  0.6508444  3
   3306   3307   3319   3321     1  0.0000000  0.6508444  3
   3306   3310   3322   3323     1  0.0000000  0.6508444  3
   3306   3310   3322   3324     1  0.0000000  0.6508444  3
   3306   3313   3316   3317     1  0.0000000  0.6508444  3
   3306   3313   3316   3318     1  0.0000000  0.6508444  3
   3307   3306   3310   3311     1  0.0000000  1.2552000  3
   3307   3306   3310   3312     1  0.0000000  1.2552000  3
   3307   3306   3313   3314     1  0.0000000  1.2552000  3
   3307   3306   3313   3315     1  0.0000000  1.2552000  3
   3307   3319   3331   3332     1  0.0000000  0.6508444  3
   3307   3319   3331   3333     1  0.0000000  0.6508444  3
   3308   3307   3306   3310     1  0.0000000  1.2552000  3
   3308   3307   3306   3313     1  0.0000000  1.2552000  3
   3308   3307   3319   3331     1  0.0000000  0.6508444  3
   3308   3307   3319   3320     1  0.0000000  0.6508444  3
   3308   3307   3319   3321     1  0.0000000  0.6508444  3
   3309   3307   3306   3310     1  0.0000000  1.2552000  3
   3309   3307   3306   3313     1  0.0000000  1.2552000  3
   3309   3307   3319   3331     1  0.0000000  0.6508444  3
   3309   3307   3319   3320     1  0.0000000  0.6508444  3
   3309   3307   3319   3321     1  0.0000000  0.6508444  3
   3310   3306   3313   3314     1  0.0000000  1.2552000  3
   3310   3306   3313   3315     1  0.0000000  1.2552000  3
   3310   3322   3328   3329     1  0.0000000  0.6508444  3
   3310   3322   3328   3330     1  0.0000000  0.6508444  3
   3311   3310   3306   3313     1  0.0000000  1.2552000  3
   3311   3310   3322   3328     1  0.0000000  0.6508444  3
   3311   3310   3322   3323     1  0.0000000  0.6508444  3
   3311   3310   3322   3324     1  0.0000000  0.6508444  3
   3312   3310   3306   3313     1  0.0000000  1.2552000  3
   3312   3310   3322   3328     1  0.0000000  0.6508444  3
   3312   3310   3322   3323     1  0.0000000  0.6508444  3
   3312   3310   3322   3324     1  0.0000000  0.6508444  3
   3313   3316   3325   3326     1  0.0000000  0.6508444  3
   3313   3316   3325   3327     1  0.0000000  0.6508444  3
   3314   3313   3316   3325     1  0.0000000  0.6508444  3
   3314   3313   3316   3317     1  0.0000000  0.6508444  3
   3314   3313   3316   3318     1  0.0000000  0.6508444  3
   3315   3313   3316   3325     1  0.0000000  0.6508444  3
   3315   3313   3316   3317     1  0.0000000  0.6508444  3
   3315   3313   3316   3318     1  0.0000000  0.6508444  3
   3317   3316   3325   3334     1  0.0000000  1.0460000  1
   3317   3316   3325   3334     1  0.0000000  0.0000000  3
   3317   3316   3325   3326     1  0.0000000  0.6508444  3
   3317   3316   3325   3327     1  0.0000000  0.6508444  3
   3318   3316   3325   3334     1  0.0000000  1.0460000  1
   3318   3316   3325   3334     1  0.0000000  0.0000000  3
   3318   3316   3325   3326     1  0.0000000  0.6508444  3
   3318   3316   3325   3327     1  0.0000000  0.6508444  3
   3320   3319   3331   5031     1  0.0000000  1.0460000  1
   3320   3319   3331   5031     1  0.0000000  0.0000000  3
   3320   3319   3331   3332     1  0.0000000  0.6508444  3
   3320   3319   3331   3333     1  0.0000000  0.6508444  3
   3321   3319   3331   5031     1  0.0000000  1.0460000  1
   3321   3319   3331   5031     1  0.0000000  0.0000000  3
   3321   3319   3331   3332     1  0.0000000  0.6508444  3
   3321   3319   3331   3333     1  0.0000000  0.6508444  3
   3323   3322   3328   5018     1  0.0000000  1.0460000  1
   3323   3322   3328   5018     1  0.0000000  0.0000000  3
   3323   3322   3328   3329     1  0.0000000  0.6508444  3
   3323   3322   3328   3330     1  0.0000000  0.6508444  3
   3324   3322   3328   5018     1  0.0000000  1.0460000  1
   3324   3322   3328   5018     1  0.0000000  0.0000000  3
   3324   3322   3328   3329     1  0.0000000  0.6508444  3
   3324   3322   3328   3330     1  0.0000000  0.6508444  3
   3328   5018   5012   5013     1  0.0000000  1.6038667  3
   3328   5018   5012   5014     1  0.0000000  1.6038667  3
   3329   3328   5018   5012     1  0.0000000  1.6038667  3
   3330   3328   5018   5012     1  0.0000000  1.6038667  3
   3331   5031   5025   5026     1  0.0000000  1.6038667  3
   3331   5031   5025   5027     1  0.0000000  1.6038667  3
   3332   3331   5031   5025     1  0.0000000  1.6038667  3
   3333   3331   5031   5025     1  0.0000000  1.6038667  3
   3335   3336   3348   3349     1  0.0000000  0.6508444  3
   3335   3336   3348   3350     1  0.0000000  0.6508444  3
   3335   3339   3351   3352     1  0.0000000  0.6508444  3
   3335   3339   3351   3353     1  0.0000000  0.6508444  3
   3335   3342   3345   3346     1  0.0000000  0.6508444  3
   3335   3342   3345   3347     1  0.0000000  0.6508444  3
   3336   3335   3339   3340     1  0.0000000  1.2552000  3
   3336   3335   3339   3341     1  0.0000000  1.2552000  3
   3336   3335   3342   3343     1  0.0000000  1.2552000  3
   3336   3335   3342   3344     1  0.0000000  1.2552000  3
   3336   3348   3360   3361     1  0.0000000  0.6508444  3
   3336   3348   3360   3362     1  0.0000000  0.6508444  3
   3337   3336   3335   3339     1  0.0000000  1.2552000  3
   3337   3336   3335   3342     1  0.0000000  1.2552000  3
   3337   3336   3348   3360     1  0.0000000  0.6508444  3
   3337   3336   3348   3349     1  0.0000000  0.6508444  3
   3337   3336   3348   3350     1  0.0000000  0.6508444  3
   3338   3336   3335   3339     1  0.0000000  1.2552000  3
   3338   3336   3335   3342     1  0.0000000  1.2552000  3
   3338   3336   3348   3360     1  0.0000000  0.6508444  3
   3338   3336   3348   3349     1  0.0000000  0.6508444  3
   3338   3336   3348   3350     1  0.0000000  0.6508444  3
   3339   3335   3342   3343     1  0.0000000  1.2552000  3
   3339   3335   3342   3344     1  0.0000000  1.2552000  3
   3339   3351   3357   3358     1  0.0000000  0.6508444  3
   3339   3351   3357   3359     1  0.0000000  0.6508444  3
   3340   3339   3335   3342     1  0.0000000  1.2552000  3
   3340   3339   3351   3357     1  0.0000000  0.6508444  3
   3340   3339   3351   3352     1  0.0000000  0.6508444  3
   3340   3339   3351   3353     1  0.0000000  0.6508444  3
   3341   3339   3335   3342     1  0.0000000  1.2552000  3
   3341   3339   3351   3357     1  0.0000000  0.6508444  3
   3341   3339   3351   3352     1  0.0000000  0.6508444  3
   3341   3339   3351   3353     1  0.0000000  0.6508444  3
   3342   3345   3354   3355     1  0.0000000  0.6508444  3
   3342   3345   3354   3356     1  0.0000000  0.6508444  3
   3343   3342   3345   3354     1  0.0000000  0.6508444  3
   3343   3342   3345   3346     1  0.0000000  0.6508444  3
   3343   3342   3345   3347     1  0.0000000  0.6508444  3
   3344   3342   3345   3354     1  0.0000000  0.6508444  3
   3344   3342   3345   3346     1  0.0000000  0.6508444  3
   3344   3342   3345   3347     1  0.0000000  0.6508444  3
   3346   3345   3354   3363     1  0.0000000  1.0460000  1
   3346   3345   3354   3363     1  0.0000000  0.0000000  3
   3346   3345   3354   3355     1  0.0000000  0.6508444  3
   3346   3345   3354   3356     1  0.0000000  0.6508444  3
   3347   3345   3354   3363     1  0.0000000  1.0460000  1
   3347   3345   3354   3363     1  0.0000000  0.0000000  3
   3347   3345   3354   3355     1  0.0000000  0.6508444  3
   3347   3345   3354   3356     1  0.0000000  0.6508444  3
   3349   3348   3360   5057     1  0.0000000  1.0460000  1
   3349   3348   3360   5057     1  0.0000000  0.0000000  3
   3349   3348   3360   3361     1  0.0000000  0.6508444  3
   3349   3348   3360   3362     1  0.0000000  0.6508444  3
   3350   3348   3360   5057     1  0.0000000  1.0460000  1
   3350   3348   3360   5057     1  0.0000000  0.0000000  3
   3350   3348   3360   3361     1  0.0000000  0.6508444  3
   3350   3348   3360   3362     1  0.0000000  0.6508444  3
   3352   3351   3357   5044     1  0.0000000  1.0460000  1
   3352   3351   3357   5044     1  0.0000000  0.0000000  3
   3352   3351   3357   3358     1  0.0000000  0.6508444  3
   3352   3351   3357   3359     1  0.0000000  0.6508444  3
   3353   3351   3357   5044     1  0.0000000  1.0460000  1
   3353   3351   3357   5044     1  0.0000000  0.0000000  3
   3353   3351   3357   3358     1  0.0000000  0.6508444  3
   3353   3351   3357   3359     1  0.0000000  0.6508444  3
   3357   5044   5038   5039     1  0.0000000  1.6038667  3
   3357   5044   5038   5040     1  0.0000000  1.6038667  3
   3358   3357   5044   5038     1  0.0000000  1.6038667  3
   3359   3357   5044   5038     1  0.0000000  1.6038667  3
   3360   5057   5051   5052     1  0.0000000  1.6038667  3
   3360   5057   5051   5053     1  0.0000000  1.6038667  3
   3361   3360   5057   5051     1  0.0000000  1.6038667  3
   3362   3360   5057   5051     1  0.0000000  1.6038667  3
   3364   3365   3377   3378     1  0.0000000  0.6508444  3
   3364   3365   3377   3379     1  0.0000000  0.6508444  3
   3364   3368   3380   3381     1  0.0000000  0.6508444  3
   3364   3368   3380   3382     1  0.0000000  0.6508444  3
   3364   3371   3374   3375     1  0.0000000  0.6508444  3
   3364   3371   3374   3376     1  0.0000000  0.6508444  3
   3365   3364   3368   3369     1  0.0000000  1.2552000  3
   3365   3364   3368   3370     1  0.0000000  1.2552000  3
   3365   3364   3371   3372     1  0.0000000  1.2552000  3
   3365   3364   3371   3373     1  0.0000000  1.2552000  3
   3365   3377   3389   3390     1  0.0000000  0.6508444  3
   3365   3377   3389   3391     1  0.0000000  0.6508444  3
   3366   3365   3364   3368     1  0.0000000  1.2552000  3
   3366   3365   3364   3371     1  0.0000000  1.2552000  3
   3366   3365   3377   3389     1  0.0000000  0.6508444  3
   3366   3365   3377   3378     1  0.0000000  0.6508444  3
   3366   3365   3377   3379     1  0.0000000  0.6508444  3
   3367   3365   3364   3368     1  0.0000000  1.2552000  3
   3367   3365   3364   3371     1  0.0000000  1.2552000  3
   3367   3365   3377   3389     1  0.0000000  0.6508444  3
   3367   3365   3377   3378     1  0.0000000  0.6508444  3
   3367   3365   3377   3379     1  0.0000000  0.6508444  3
   3368   3364   3371   3372     1  0.0000000  1.2552000  3
   3368   3364   3371   3373     1  0.0000000  1.2552000  3
   3368   3380   3386   3387     1  0.0000000  0.6508444  3
   3368   3380   3386   3388     1  0.0000000  0.6508444  3
   3369   3368   3364   3371     1  0.0000000  1.2552000  3
   3369   3368   3380   3386     1  0.0000000  0.6508444  3
   3369   3368   3380   3381     1  0.0000000  0.6508444  3
   3369   3368   3380   3382     1  0.0000000  0.6508444  3
   3370   3368   3364   3371     1  0.0000000  1.2552000  3
   3370   3368   3380   3386     1  0.0000000  0.6508444  3
   3370   3368   3380   3381     1  0.0000000  0.6508444  3
   3370   3368   3380   3382     1  0.0000000  0.6508444  3
   3371   3374   3383   3384     1  0.0000000  0.6508444  3
   3371   3374   3383   3385     1  0.0000000  0.6508444  3
   3372   3371   3374   3383     1  0.0000000  0.6508444  3
   3372   3371   3374   3375     1  0.0000000  0.6508444  3
   3372   3371   3374   3376     1  0.0000000  0.6508444  3
   3373   3371   3374   3383     1  0.0000000  0.6508444  3
   3373   3371   3374   3375     1  0.0000000  0.6508444  3
   3373   3371   3374   3376     1  0.0000000  0.6508444  3
   3375   3374   3383   3392     1  0.0000000  1.0460000  1
   3375   3374   3383   3392     1  0.0000000  0.0000000  3
   3375   3374   3383   3384     1  0.0000000  0.6508444  3
   3375   3374   3383   3385     1  0.0000000  0.6508444  3
   3376   3374   3383   3392     1  0.0000000  1.0460000  1
   3376   3374   3383   3392     1  0.0000000  0.0000000  3
   3376   3374   3383   3384     1  0.0000000  0.6508444  3
   3376   3374   3383   3385     1  0.0000000  0.6508444  3
   3378   3377   3389   5083     1  0.0000000  1.0460000  1
   3378   3377   3389   5083     1  0.0000000  0.0000000  3
   3378   3377   3389   3390     1  0.0000000  0.6508444  3
   3378   3377   3389   3391     1  0.0000000  0.6508444  3
   3379   3377   3389   5083     1  0.0000000  1.0460000  1
   3379   3377   3389   5083     1  0.0000000  0.0000000  3
   3379   3377   3389   3390     1  0.0000000  0.6508444  3
   3379   3377   3389   3391     1  0.0000000  0.6508444  3
   3381   3380   3386   5070     1  0.0000000  1.0460000  1
   3381   3380   3386   5070     1  0.0000000  0.0000000  3
   3381   3380   3386   3387     1  0.0000000  0.6508444  3
   3381   3380   3386   3388     1  0.0000000  0.6508444  3
   3382   3380   3386   5070     1  0.0000000  1.0460000  1
   3382   3380   3386   5070     1  0.0000000  0.0000000  3
   3382   3380   3386   3387     1  0.0000000  0.6508444  3
   3382   3380   3386   3388     1  0.0000000  0.6508444  3
   3386   5070   5064   5065     1  0.0000000  1.6038667  3
   3386   5070   5064   5066     1  0.0000000  1.6038667  3
   3387   3386   5070   5064     1  0.0000000  1.6038667  3
   3388   3386   5070   5064     1  0.0000000  1.6038667  3
   3389   5083   5077   5078     1  0.0000000  1.6038667  3
   3389   5083   5077   5079     1  0.0000000  1.6038667  3
   3390   3389   5083   5077     1  0.0000000  1.6038667  3
   3391   3389   5083   5077     1  0.0000000  1.6038667  3
   3393   3394   3406   3407     1  0.0000000  0.6508444  3
   3393   3394   3406   3408     1  0.0000000  0.6508444  3
   3393   3397   3409   3410     1  0.0000000  0.6508444  3
   3393   3397   3409   3411     1  0.0000000  0.6508444  3
   3393   3400   3403   3404     1  0.0000000  0.6508444  3
   3393   3400   3403   3405     1  0.0000000  0.6508444  3
   3394   3393   3397   3398     1  0.0000000  1.2552000  3
   3394   3393   3397   3399     1  0.0000000  1.2552000  3
   3394   3393   3400   3401     1  0.0000000  1.2552000  3
   3394   3393   3400   3402     1  0.0000000  1.2552000  3
   3394   3406   3418   3419     1  0.0000000  0.6508444  3
   3394   3406   3418   3420     1  0.0000000  0.6508444  3
   3395   3394   3393   3397     1  0.0000000  1.2552000  3
   3395   3394   3393   3400     1  0.0000000  1.2552000  3
   3395   3394   3406   3418     1  0.0000000  0.6508444  3
   3395   3394   3406   3407     1  0.0000000  0.6508444  3
   3395   3394   3406   3408     1  0.0000000  0.6508444  3
   3396   3394   3393   3397     1  0.0000000  1.2552000  3
   3396   3394   3393   3400     1  0.0000000  1.2552000  3
   3396   3394   3406   3418     1  0.0000000  0.6508444  3
   3396   3394   3406   3407     1  0.0000000  0.6508444  3
   3396   3394   3406   3408     1  0.0000000  0.6508444  3
   3397   3393   3400   3401     1  0.0000000  1.2552000  3
   3397   3393   3400   3402     1  0.0000000  1.2552000  3
   3397   3409   3415   3416     1  0.0000000  0.6508444  3
   3397   3409   3415   3417     1  0.0000000  0.6508444  3
   3398   3397   3393   3400     1  0.0000000  1.2552000  3
   3398   3397   3409   3415     1  0.0000000  0.6508444  3
   3398   3397   3409   3410     1  0.0000000  0.6508444  3
   3398   3397   3409   3411     1  0.0000000  0.6508444  3
   3399   3397   3393   3400     1  0.0000000  1.2552000  3
   3399   3397   3409   3415     1  0.0000000  0.6508444  3
   3399   3397   3409   3410     1  0.0000000  0.6508444  3
   3399   3397   3409   3411     1  0.0000000  0.6508444  3
   3400   3403   3412   3413     1  0.0000000  0.6508444  3
   3400   3403   3412   3414     1  0.0000000  0.6508444  3
   3401   3400   3403   3412     1  0.0000000  0.6508444  3
   3401   3400   3403   3404     1  0.0000000  0.6508444  3
   3401   3400   3403   3405     1  0.0000000  0.6508444  3
   3402   3400   3403   3412     1  0.0000000  0.6508444  3
   3402   3400   3403   3404     1  0.0000000  0.6508444  3
   3402   3400   3403   3405     1  0.0000000  0.6508444  3
   3404   3403   3412   3421     1  0.0000000  1.0460000  1
   3404   3403   3412   3421     1  0.0000000  0.0000000  3
   3404   3403   3412   3413     1  0.0000000  0.6508444  3
   3404   3403   3412   3414     1  0.0000000  0.6508444  3
   3405   3403   3412   3421     1  0.0000000  1.0460000  1
   3405   3403   3412   3421     1  0.0000000  0.0000000  3
   3405   3403   3412   3413     1  0.0000000  0.6508444  3
   3405   3403   3412   3414     1  0.0000000  0.6508444  3
   3407   3406   3418   5109     1  0.0000000  1.0460000  1
   3407   3406   3418   5109     1  0.0000000  0.0000000  3
   3407   3406   3418   3419     1  0.0000000  0.6508444  3
   3407   3406   3418   3420     1  0.0000000  0.6508444  3
   3408   3406   3418   5109     1  0.0000000  1.0460000  1
   3408   3406   3418   5109     1  0.0000000  0.0000000  3
   3408   3406   3418   3419     1  0.0000000  0.6508444  3
   3408   3406   3418   3420     1  0.0000000  0.6508444  3
   3410   3409   3415   5096     1  0.0000000  1.0460000  1
   3410   3409   3415   5096     1  0.0000000  0.0000000  3
   3410   3409   3415   3416     1  0.0000000  0.6508444  3
   3410   3409   3415   3417     1  0.0000000  0.6508444  3
   3411   3409   3415   5096     1  0.0000000  1.0460000  1
   3411   3409   3415   5096     1  0.0000000  0.0000000  3
   3411   3409   3415   3416     1  0.0000000  0.6508444  3
   3411   3409   3415   3417     1  0.0000000  0.6508444  3
   3415   5096   5090   5091     1  0.0000000  1.6038667  3
   3415   5096   5090   5092     1  0.0000000  1.6038667  3
   3416   3415   5096   5090     1  0.0000000  1.6038667  3
   3417   3415   5096   5090     1  0.0000000  1.6038667  3
   3418   5109   5103   5104     1  0.0000000  1.6038667  3
   3418   5109   5103   5105     1  0.0000000  1.6038667  3
   3419   3418   5109   5103     1  0.0000000  1.6038667  3
   3420   3418   5109   5103     1  0.0000000  1.6038667  3
   3422   3423   3435   3436     1  0.0000000  0.6508444  3
   3422   3423   3435   3437     1  0.0000000  0.6508444  3
   3422   3426   3438   3439     1  0.0000000  0.6508444  3
   3422   3426   3438   3440     1  0.0000000  0.6508444  3
   3422   3429   3432   3433     1  0.0000000  0.6508444  3
   3422   3429   3432   3434     1  0.0000000  0.6508444  3
   3423   3422   3426   3427     1  0.0000000  1.2552000  3
   3423   3422   3426   3428     1  0.0000000  1.2552000  3
   3423   3422   3429   3430     1  0.0000000  1.2552000  3
   3423   3422   3429   3431     1  0.0000000  1.2552000  3
   3423   3435   3447   3448     1  0.0000000  0.6508444  3
   3423   3435   3447   3449     1  0.0000000  0.6508444  3
   3424   3423   3422   3426     1  0.0000000  1.2552000  3
   3424   3423   3422   3429     1  0.0000000  1.2552000  3
   3424   3423   3435   3447     1  0.0000000  0.6508444  3
   3424   3423   3435   3436     1  0.0000000  0.6508444  3
   3424   3423   3435   3437     1  0.0000000  0.6508444  3
   3425   3423   3422   3426     1  0.0000000  1.2552000  3
   3425   3423   3422   3429     1  0.0000000  1.2552000  3
   3425   3423   3435   3447     1  0.0000000  0.6508444  3
   3425   3423   3435   3436     1  0.0000000  0.6508444  3
   3425   3423   3435   3437     1  0.0000000  0.6508444  3
   3426   3422   3429   3430     1  0.0000000  1.2552000  3
   3426   3422   3429   3431     1  0.0000000  1.2552000  3
   3426   3438   3444   3445     1  0.0000000  0.6508444  3
   3426   3438   3444   3446     1  0.0000000  0.6508444  3
   3427   3426   3422   3429     1  0.0000000  1.2552000  3
   3427   3426   3438   3444     1  0.0000000  0.6508444  3
   3427   3426   3438   3439     1  0.0000000  0.6508444  3
   3427   3426   3438   3440     1  0.0000000  0.6508444  3
   3428   3426   3422   3429     1  0.0000000  1.2552000  3
   3428   3426   3438   3444     1  0.0000000  0.6508444  3
   3428   3426   3438   3439     1  0.0000000  0.6508444  3
   3428   3426   3438   3440     1  0.0000000  0.6508444  3
   3429   3432   3441   3442     1  0.0000000  0.6508444  3
   3429   3432   3441   3443     1  0.0000000  0.6508444  3
   3430   3429   3432   3441     1  0.0000000  0.6508444  3
   3430   3429   3432   3433     1  0.0000000  0.6508444  3
   3430   3429   3432   3434     1  0.0000000  0.6508444  3
   3431   3429   3432   3441     1  0.0000000  0.6508444  3
   3431   3429   3432   3433     1  0.0000000  0.6508444  3
   3431   3429   3432   3434     1  0.0000000  0.6508444  3
   3433   3432   3441   3450     1  0.0000000  1.0460000  1
   3433   3432   3441   3450     1  0.0000000  0.0000000  3
   3433   3432   3441   3442     1  0.0000000  0.6508444  3
   3433   3432   3441   3443     1  0.0000000  0.6508444  3
   3434   3432   3441   3450     1  0.0000000  1.0460000  1
   3434   3432   3441   3450     1  0.0000000  0.0000000  3
   3434   3432   3441   3442     1  0.0000000  0.6508444  3
   3434   3432   3441   3443     1  0.0000000  0.6508444  3
   3436   3435   3447   5135     1  0.0000000  1.0460000  1
   3436   3435   3447   5135     1  0.0000000  0.0000000  3
   3436   3435   3447   3448     1  0.0000000  0.6508444  3
   3436   3435   3447   3449     1  0.0000000  0.6508444  3
   3437   3435   3447   5135     1  0.0000000  1.0460000  1
   3437   3435   3447   5135     1  0.0000000  0.0000000  3
   3437   3435   3447   3448     1  0.0000000  0.6508444  3
   3437   3435   3447   3449     1  0.0000000  0.6508444  3
   3439   3438   3444   5122     1  0.0000000  1.0460000  1
   3439   3438   3444   5122     1  0.0000000  0.0000000  3
   3439   3438   3444   3445     1  0.0000000  0.6508444  3
   3439   3438   3444   3446     1  0.0000000  0.6508444  3
   3440   3438   3444   5122     1  0.0000000  1.0460000  1
   3440   3438   3444   5122     1  0.0000000  0.0000000  3
   3440   3438   3444   3445     1  0.0000000  0.6508444  3
   3440   3438   3444   3446     1  0.0000000  0.6508444  3
   3444   5122   5116   5117     1  0.0000000  1.6038667  3
   3444   5122   5116   5118     1  0.0000000  1.6038667  3
   3445   3444   5122   5116     1  0.0000000  1.6038667  3
   3446   3444   5122   5116     1  0.0000000  1.6038667  3
   3447   5135   5129   5130     1  0.0000000  1.6038667  3
   3447   5135   5129   5131     1  0.0000000  1.6038667  3
   3448   3447   5135   5129     1  0.0000000  1.6038667  3
   3449   3447   5135   5129     1  0.0000000  1.6038667  3
   3451   3452   3464   3465     1  0.0000000  0.6508444  3
   3451   3452   3464   3466     1  0.0000000  0.6508444  3
   3451   3455   3467   3468     1  0.0000000  0.6508444  3
   3451   3455   3467   3469     1  0.0000000  0.6508444  3
   3451   3458   3461   3462     1  0.0000000  0.6508444  3
   3451   3458   3461   3463     1  0.0000000  0.6508444  3
   3452   3451   3455   3456     1  0.0000000  1.2552000  3
   3452   3451   3455   3457     1  0.0000000  1.2552000  3
   3452   3451   3458   3459     1  0.0000000  1.2552000  3
   3452   3451   3458   3460     1  0.0000000  1.2552000  3
   3452   3464   3476   3477     1  0.0000000  0.6508444  3
   3452   3464   3476   3478     1  0.0000000  0.6508444  3
   3453   3452   3451   3455     1  0.0000000  1.2552000  3
   3453   3452   3451   3458     1  0.0000000  1.2552000  3
   3453   3452   3464   3476     1  0.0000000  0.6508444  3
   3453   3452   3464   3465     1  0.0000000  0.6508444  3
   3453   3452   3464   3466     1  0.0000000  0.6508444  3
   3454   3452   3451   3455     1  0.0000000  1.2552000  3
   3454   3452   3451   3458     1  0.0000000  1.2552000  3
   3454   3452   3464   3476     1  0.0000000  0.6508444  3
   3454   3452   3464   3465     1  0.0000000  0.6508444  3
   3454   3452   3464   3466     1  0.0000000  0.6508444  3
   3455   3451   3458   3459     1  0.0000000  1.2552000  3
   3455   3451   3458   3460     1  0.0000000  1.2552000  3
   3455   3467   3473   3474     1  0.0000000  0.6508444  3
   3455   3467   3473   3475     1  0.0000000  0.6508444  3
   3456   3455   3451   3458     1  0.0000000  1.2552000  3
   3456   3455   3467   3473     1  0.0000000  0.6508444  3
   3456   3455   3467   3468     1  0.0000000  0.6508444  3
   3456   3455   3467   3469     1  0.0000000  0.6508444  3
   3457   3455   3451   3458     1  0.0000000  1.2552000  3
   3457   3455   3467   3473     1  0.0000000  0.6508444  3
   3457   3455   3467   3468     1  0.0000000  0.6508444  3
   3457   3455   3467   3469     1  0.0000000  0.6508444  3
   3458   3461   3470   3471     1  0.0000000  0.6508444  3
   3458   3461   3470   3472     1  0.0000000  0.6508444  3
   3459   3458   3461   3470     1  0.0000000  0.6508444  3
   3459   3458   3461   3462     1  0.0000000  0.6508444  3
   3459   3458   3461   3463     1  0.0000000  0.6508444  3
   3460   3458   3461   3470     1  0.0000000  0.6508444  3
   3460   3458   3461   3462     1  0.0000000  0.6508444  3
   3460   3458   3461   3463     1  0.0000000  0.6508444  3
   3462   3461   3470   3479     1  0.0000000  1.0460000  1
   3462   3461   3470   3479     1  0.0000000  0.0000000  3
   3462   3461   3470   3471     1  0.0000000  0.6508444  3
   3462   3461   3470   3472     1  0.0000000  0.6508444  3
   3463   3461   3470   3479     1  0.0000000  1.0460000  1
   3463   3461   3470   3479     1  0.0000000  0.0000000  3
   3463   3461   3470   3471     1  0.0000000  0.6508444  3
   3463   3461   3470   3472     1  0.0000000  0.6508444  3
   3465   3464   3476   5161     1  0.0000000  1.0460000  1
   3465   3464   3476   5161     1  0.0000000  0.0000000  3
   3465   3464   3476   3477     1  0.0000000  0.6508444  3
   3465   3464   3476   3478     1  0.0000000  0.6508444  3
   3466   3464   3476   5161     1  0.0000000  1.0460000  1
   3466   3464   3476   5161     1  0.0000000  0.0000000  3
   3466   3464   3476   3477     1  0.0000000  0.6508444  3
   3466   3464   3476   3478     1  0.0000000  0.6508444  3
   3468   3467   3473   5148     1  0.0000000  1.0460000  1
   3468   3467   3473   5148     1  0.0000000  0.0000000  3
   3468   3467   3473   3474     1  0.0000000  0.6508444  3
   3468   3467   3473   3475     1  0.0000000  0.6508444  3
   3469   3467   3473   5148     1  0.0000000  1.0460000  1
   3469   3467   3473   5148     1  0.0000000  0.0000000  3
   3469   3467   3473   3474     1  0.0000000  0.6508444  3
   3469   3467   3473   3475     1  0.0000000  0.6508444  3
   3473   5148   5142   5143     1  0.0000000  1.6038667  3
   3473   5148   5142   5144     1  0.0000000  1.6038667  3
   3474   3473   5148   5142     1  0.0000000  1.6038667  3
   3475   3473   5148   5142     1  0.0000000  1.6038667  3
   3476   5161   5155   5156     1  0.0000000  1.6038667  3
   3476   5161   5155   5157     1  0.0000000  1.6038667  3
   3477   3476   5161   5155     1  0.0000000  1.6038667  3
   3478   3476   5161   5155     1  0.0000000  1.6038667  3
   3480   3481   3493   3494     1  0.0000000  0.6508444  3
   3480   3481   3493   3495     1  0.0000000  0.6508444  3
   3480   3484   3496   3497     1  0.0000000  0.6508444  3
   3480   3484   3496   3498     1  0.0000000  0.6508444  3
   3480   3487   3490   3491     1  0.0000000  0.6508444  3
   3480   3487   3490   3492     1  0.0000000  0.6508444  3
   3481   3480   3484   3485     1  0.0000000  1.2552000  3
   3481   3480   3484   3486     1  0.0000000  1.2552000  3
   3481   3480   3487   3488     1  0.0000000  1.2552000  3
   3481   3480   3487   3489     1  0.0000000  1.2552000  3
   3481   3493   3505   3506     1  0.0000000  0.6508444  3
   3481   3493   3505   3507     1  0.0000000  0.6508444  3
   3482   3481   3480   3484     1  0.0000000  1.2552000  3
   3482   3481   3480   3487     1  0.0000000  1.2552000  3
   3482   3481   3493   3505     1  0.0000000  0.6508444  3
   3482   3481   3493   3494     1  0.0000000  0.6508444  3
   3482   3481   3493   3495     1  0.0000000  0.6508444  3
   3483   3481   3480   3484     1  0.0000000  1.2552000  3
   3483   3481   3480   3487     1  0.0000000  1.2552000  3
   3483   3481   3493   3505     1  0.0000000  0.6508444  3
   3483   3481   3493   3494     1  0.0000000  0.6508444  3
   3483   3481   3493   3495     1  0.0000000  0.6508444  3
   3484   3480   3487   3488     1  0.0000000  1.2552000  3
   3484   3480   3487   3489     1  0.0000000  1.2552000  3
   3484   3496   3502   3503     1  0.0000000  0.6508444  3
   3484   3496   3502   3504     1  0.0000000  0.6508444  3
   3485   3484   3480   3487     1  0.0000000  1.2552000  3
   3485   3484   3496   3502     1  0.0000000  0.6508444  3
   3485   3484   3496   3497     1  0.0000000  0.6508444  3
   3485   3484   3496   3498     1  0.0000000  0.6508444  3
   3486   3484   3480   3487     1  0.0000000  1.2552000  3
   3486   3484   3496   3502     1  0.0000000  0.6508444  3
   3486   3484   3496   3497     1  0.0000000  0.6508444  3
   3486   3484   3496   3498     1  0.0000000  0.6508444  3
   3487   3490   3499   3500     1  0.0000000  0.6508444  3
   3487   3490   3499   3501     1  0.0000000  0.6508444  3
   3488   3487   3490   3499     1  0.0000000  0.6508444  3
   3488   3487   3490   3491     1  0.0000000  0.6508444  3
   3488   3487   3490   3492     1  0.0000000  0.6508444  3
   3489   3487   3490   3499     1  0.0000000  0.6508444  3
   3489   3487   3490   3491     1  0.0000000  0.6508444  3
   3489   3487   3490   3492     1  0.0000000  0.6508444  3
   3491   3490   3499   3508     1  0.0000000  1.0460000  1
   3491   3490   3499   3508     1  0.0000000  0.0000000  3
   3491   3490   3499   3500     1  0.0000000  0.6508444  3
   3491   3490   3499   3501     1  0.0000000  0.6508444  3
   3492   3490   3499   3508     1  0.0000000  1.0460000  1
   3492   3490   3499   3508     1  0.0000000  0.0000000  3
   3492   3490   3499   3500     1  0.0000000  0.6508444  3
   3492   3490   3499   3501     1  0.0000000  0.6508444  3
   3494   3493   3505   5187     1  0.0000000  1.0460000  1
   3494   3493   3505   5187     1  0.0000000  0.0000000  3
   3494   3493   3505   3506     1  0.0000000  0.6508444  3
   3494   3493   3505   3507     1  0.0000000  0.6508444  3
   3495   3493   3505   5187     1  0.0000000  1.0460000  1
   3495   3493   3505   5187     1  0.0000000  0.0000000  3
   3495   3493   3505   3506     1  0.0000000  0.6508444  3
   3495   3493   3505   3507     1  0.0000000  0.6508444  3
   3497   3496   3502   5174     1  0.0000000  1.0460000  1
   3497   3496   3502   5174     1  0.0000000  0.0000000  3
   3497   3496   3502   3503     1  0.0000000  0.6508444  3
   3497   3496   3502   3504     1  0.0000000  0.6508444  3
   3498   3496   3502   5174     1  0.0000000  1.0460000  1
   3498   3496   3502   5174     1  0.0000000  0.0000000  3
   3498   3496   3502   3503     1  0.0000000  0.6508444  3
   3498   3496   3502   3504     1  0.0000000  0.6508444  3
   3502   5174   5168   5169     1  0.0000000  1.6038667  3
   3502   5174   5168   5170     1  0.0000000  1.6038667  3
   3503   3502   5174   5168     1  0.0000000  1.6038667  3
   3504   3502   5174   5168     1  0.0000000  1.6038667  3
   3505   5187   5181   5182     1  0.0000000  1.6038667  3
   3505   5187   5181   5183     1  0.0000000  1.6038667  3
   3506   3505   5187   5181     1  0.0000000  1.6038667  3
   3507   3505   5187   5181     1  0.0000000  1.6038667  3
   3509   3510   3522   3523     1  0.0000000  0.6508444  3
   3509   3510   3522   3524     1  0.0000000  0.6508444  3
   3509   3513   3525   3526     1  0.0000000  0.6508444  3
   3509   3513   3525   3527     1  0.0000000  0.6508444  3
   3509   3516   3519   3520     1  0.0000000  0.6508444  3
   3509   3516   3519   3521     1  0.0000000  0.6508444  3
   3510   3509   3513   3514     1  0.0000000  1.2552000  3
   3510   3509   3513   3515     1  0.0000000  1.2552000  3
   3510   3509   3516   3517     1  0.0000000  1.2552000  3
   3510   3509   3516   3518     1  0.0000000  1.2552000  3
   3510   3522   3534   3535     1  0.0000000  0.6508444  3
   3510   3522   3534   3536     1  0.0000000  0.6508444  3
   3511   3510   3509   3513     1  0.0000000  1.2552000  3
   3511   3510   3509   3516     1  0.0000000  1.2552000  3
   3511   3510   3522   3534     1  0.0000000  0.6508444  3
   3511   3510   3522   3523     1  0.0000000  0.6508444  3
   3511   3510   3522   3524     1  0.0000000  0.6508444  3
   3512   3510   3509   3513     1  0.0000000  1.2552000  3
   3512   3510   3509   3516     1  0.0000000  1.2552000  3
   3512   3510   3522   3534     1  0.0000000  0.6508444  3
   3512   3510   3522   3523     1  0.0000000  0.6508444  3
   3512   3510   3522   3524     1  0.0000000  0.6508444  3
   3513   3509   3516   3517     1  0.0000000  1.2552000  3
   3513   3509   3516   3518     1  0.0000000  1.2552000  3
   3513   3525   3531   3532     1  0.0000000  0.6508444  3
   3513   3525   3531   3533     1  0.0000000  0.6508444  3
   3514   3513   3509   3516     1  0.0000000  1.2552000  3
   3514   3513   3525   3531     1  0.0000000  0.6508444  3
   3514   3513   3525   3526     1  0.0000000  0.6508444  3
   3514   3513   3525   3527     1  0.0000000  0.6508444  3
   3515   3513   3509   3516     1  0.0000000  1.2552000  3
   3515   3513   3525   3531     1  0.0000000  0.6508444  3
   3515   3513   3525   3526     1  0.0000000  0.6508444  3
   3515   3513   3525   3527     1  0.0000000  0.6508444  3
   3516   3519   3528   3529     1  0.0000000  0.6508444  3
   3516   3519   3528   3530     1  0.0000000  0.6508444  3
   3517   3516   3519   3528     1  0.0000000  0.6508444  3
   3517   3516   3519   3520     1  0.0000000  0.6508444  3
   3517   3516   3519   3521     1  0.0000000  0.6508444  3
   3518   3516   3519   3528     1  0.0000000  0.6508444  3
   3518   3516   3519   3520     1  0.0000000  0.6508444  3
   3518   3516   3519   3521     1  0.0000000  0.6508444  3
   3520   3519   3528   3537     1  0.0000000  1.0460000  1
   3520   3519   3528   3537     1  0.0000000  0.0000000  3
   3520   3519   3528   3529     1  0.0000000  0.6508444  3
   3520   3519   3528   3530     1  0.0000000  0.6508444  3
   3521   3519   3528   3537     1  0.0000000  1.0460000  1
   3521   3519   3528   3537     1  0.0000000  0.0000000  3
   3521   3519   3528   3529     1  0.0000000  0.6508444  3
   3521   3519   3528   3530     1  0.0000000  0.6508444  3
   3523   3522   3534   5213     1  0.0000000  1.0460000  1
   3523   3522   3534   5213     1  0.0000000  0.0000000  3
   3523   3522   3534   3535     1  0.0000000  0.6508444  3
   3523   3522   3534   3536     1  0.0000000  0.6508444  3
   3524   3522   3534   5213     1  0.0000000  1.0460000  1
   3524   3522   3534   5213     1  0.0000000  0.0000000  3
   3524   3522   3534   3535     1  0.0000000  0.6508444  3
   3524   3522   3534   3536     1  0.0000000  0.6508444  3
   3526   3525   3531   5200     1  0.0000000  1.0460000  1
   3526   3525   3531   5200     1  0.0000000  0.0000000  3
   3526   3525   3531   3532     1  0.0000000  0.6508444  3
   3526   3525   3531   3533     1  0.0000000  0.6508444  3
   3527   3525   3531   5200     1  0.0000000  1.0460000  1
   3527   3525   3531   5200     1  0.0000000  0.0000000  3
   3527   3525   3531   3532     1  0.0000000  0.6508444  3
   3527   3525   3531   3533     1  0.0000000  0.6508444  3
   3531   5200   5194   5195     1  0.0000000  1.6038667  3
   3531   5200   5194   5196     1  0.0000000  1.6038667  3
   3532   3531   5200   5194     1  0.0000000  1.6038667  3
   3533   3531   5200   5194     1  0.0000000  1.6038667  3
   3534   5213   5207   5208     1  0.0000000  1.6038667  3
   3534   5213   5207   5209     1  0.0000000  1.6038667  3
   3535   3534   5213   5207     1  0.0000000  1.6038667  3
   3536   3534   5213   5207     1  0.0000000  1.6038667  3
   3538   3539   3551   3552     1  0.0000000  0.6508444  3
   3538   3539   3551   3553     1  0.0000000  0.6508444  3
   3538   3542   3554   3555     1  0.0000000  0.6508444  3
   3538   3542   3554   3556     1  0.0000000  0.6508444  3
   3538   3545   3548   3549     1  0.0000000  0.6508444  3
   3538   3545   3548   3550     1  0.0000000  0.6508444  3
   3539   3538   3542   3543     1  0.0000000  1.2552000  3
   3539   3538   3542   3544     1  0.0000000  1.2552000  3
   3539   3538   3545   3546     1  0.0000000  1.2552000  3
   3539   3538   3545   3547     1  0.0000000  1.2552000  3
   3539   3551   3563   3564     1  0.0000000  0.6508444  3
   3539   3551   3563   3565     1  0.0000000  0.6508444  3
   3540   3539   3538   3542     1  0.0000000  1.2552000  3
   3540   3539   3538   3545     1  0.0000000  1.2552000  3
   3540   3539   3551   3563     1  0.0000000  0.6508444  3
   3540   3539   3551   3552     1  0.0000000  0.6508444  3
   3540   3539   3551   3553     1  0.0000000  0.6508444  3
   3541   3539   3538   3542     1  0.0000000  1.2552000  3
   3541   3539   3538   3545     1  0.0000000  1.2552000  3
   3541   3539   3551   3563     1  0.0000000  0.6508444  3
   3541   3539   3551   3552     1  0.0000000  0.6508444  3
   3541   3539   3551   3553     1  0.0000000  0.6508444  3
   3542   3538   3545   3546     1  0.0000000  1.2552000  3
   3542   3538   3545   3547     1  0.0000000  1.2552000  3
   3542   3554   3560   3561     1  0.0000000  0.6508444  3
   3542   3554   3560   3562     1  0.0000000  0.6508444  3
   3543   3542   3538   3545     1  0.0000000  1.2552000  3
   3543   3542   3554   3560     1  0.0000000  0.6508444  3
   3543   3542   3554   3555     1  0.0000000  0.6508444  3
   3543   3542   3554   3556     1  0.0000000  0.6508444  3
   3544   3542   3538   3545     1  0.0000000  1.2552000  3
   3544   3542   3554   3560     1  0.0000000  0.6508444  3
   3544   3542   3554   3555     1  0.0000000  0.6508444  3
   3544   3542   3554   3556     1  0.0000000  0.6508444  3
   3545   3548   3557   3558     1  0.0000000  0.6508444  3
   3545   3548   3557   3559     1  0.0000000  0.6508444  3
   3546   3545   3548   3557     1  0.0000000  0.6508444  3
   3546   3545   3548   3549     1  0.0000000  0.6508444  3
   3546   3545   3548   3550     1  0.0000000  0.6508444  3
   3547   3545   3548   3557     1  0.0000000  0.6508444  3
   3547   3545   3548   3549     1  0.0000000  0.6508444  3
   3547   3545   3548   3550     1  0.0000000  0.6508444  3
   3549   3548   3557   3566     1  0.0000000  1.0460000  1
   3549   3548   3557   3566     1  0.0000000  0.0000000  3
   3549   3548   3557   3558     1  0.0000000  0.6508444  3
   3549   3548   3557   3559     1  0.0000000  0.6508444  3
   3550   3548   3557   3566     1  0.0000000  1.0460000  1
   3550   3548   3557   3566     1  0.0000000  0.0000000  3
   3550   3548   3557   3558     1  0.0000000  0.6508444  3
   3550   3548   3557   3559     1  0.0000000  0.6508444  3
   3552   3551   3563   5239     1  0.0000000  1.0460000  1
   3552   3551   3563   5239     1  0.0000000  0.0000000  3
   3552   3551   3563   3564     1  0.0000000  0.6508444  3
   3552   3551   3563   3565     1  0.0000000  0.6508444  3
   3553   3551   3563   5239     1  0.0000000  1.0460000  1
   3553   3551   3563   5239     1  0.0000000  0.0000000  3
   3553   3551   3563   3564     1  0.0000000  0.6508444  3
   3553   3551   3563   3565     1  0.0000000  0.6508444  3
   3555   3554   3560   5226     1  0.0000000  1.0460000  1
   3555   3554   3560   5226     1  0.0000000  0.0000000  3
   3555   3554   3560   3561     1  0.0000000  0.6508444  3
   3555   3554   3560   3562     1  0.0000000  0.6508444  3
   3556   3554   3560   5226     1  0.0000000  1.0460000  1
   3556   3554   3560   5226     1  0.0000000  0.0000000  3
   3556   3554   3560   3561     1  0.0000000  0.6508444  3
   3556   3554   3560   3562     1  0.0000000  0.6508444  3
   3560   5226   5220   5221     1  0.0000000  1.6038667  3
   3560   5226   5220   5222     1  0.0000000  1.6038667  3
   3561   3560   5226   5220     1  0.0000000  1.6038667  3
   3562   3560   5226   5220     1  0.0000000  1.6038667  3
   3563   5239   5233   5234     1  0.0000000  1.6038667  3
   3563   5239   5233   5235     1  0.0000000  1.6038667  3
   3564   3563   5239   5233     1  0.0000000  1.6038667  3
   3565   3563   5239   5233     1  0.0000000  1.6038667  3
   3567   3568   3580   3581     1  0.0000000  0.6508444  3
   3567   3568   3580   3582     1  0.0000000  0.6508444  3
   3567   3571   3583   3584     1  0.0000000  0.6508444  3
   3567   3571   3583   3585     1  0.0000000  0.6508444  3
   3567   3574   3577   3578     1  0.0000000  0.6508444  3
   3567   3574   3577   3579     1  0.0000000  0.6508444  3
   3568   3567   3571   3572     1  0.0000000  1.2552000  3
   3568   3567   3571   3573     1  0.0000000  1.2552000  3
   3568   3567   3574   3575     1  0.0000000  1.2552000  3
   3568   3567   3574   3576     1  0.0000000  1.2552000  3
   3568   3580   3592   3593     1  0.0000000  0.6508444  3
   3568   3580   3592   3594     1  0.0000000  0.6508444  3
   3569   3568   3567   3571     1  0.0000000  1.2552000  3
   3569   3568   3567   3574     1  0.0000000  1.2552000  3
   3569   3568   3580   3592     1  0.0000000  0.6508444  3
   3569   3568   3580   3581     1  0.0000000  0.6508444  3
   3569   3568   3580   3582     1  0.0000000  0.6508444  3
   3570   3568   3567   3571     1  0.0000000  1.2552000  3
   3570   3568   3567   3574     1  0.0000000  1.2552000  3
   3570   3568   3580   3592     1  0.0000000  0.6508444  3
   3570   3568   3580   3581     1  0.0000000  0.6508444  3
   3570   3568   3580   3582     1  0.0000000  0.6508444  3
   3571   3567   3574   3575     1  0.0000000  1.2552000  3
   3571   3567   3574   3576     1  0.0000000  1.2552000  3
   3571   3583   3589   3590     1  0.0000000  0.6508444  3
   3571   3583   3589   3591     1  0.0000000  0.6508444  3
   3572   3571   3567   3574     1  0.0000000  1.2552000  3
   3572   3571   3583   3589     1  0.0000000  0.6508444  3
   3572   3571   3583   3584     1  0.0000000  0.6508444  3
   3572   3571   3583   3585     1  0.0000000  0.6508444  3
   3573   3571   3567   3574     1  0.0000000  1.2552000  3
   3573   3571   3583   3589     1  0.0000000  0.6508444  3
   3573   3571   3583   3584     1  0.0000000  0.6508444  3
   3573   3571   3583   3585     1  0.0000000  0.6508444  3
   3574   3577   3586   3587     1  0.0000000  0.6508444  3
   3574   3577   3586   3588     1  0.0000000  0.6508444  3
   3575   3574   3577   3586     1  0.0000000  0.6508444  3
   3575   3574   3577   3578     1  0.0000000  0.6508444  3
   3575   3574   3577   3579     1  0.0000000  0.6508444  3
   3576   3574   3577   3586     1  0.0000000  0.6508444  3
   3576   3574   3577   3578     1  0.0000000  0.6508444  3
   3576   3574   3577   3579     1  0.0000000  0.6508444  3
   3578   3577   3586   3595     1  0.0000000  1.0460000  1
   3578   3577   3586   3595     1  0.0000000  0.0000000  3
   3578   3577   3586   3587     1  0.0000000  0.6508444  3
   3578   3577   3586   3588     1  0.0000000  0.6508444  3
   3579   3577   3586   3595     1  0.0000000  1.0460000  1
   3579   3577   3586   3595     1  0.0000000  0.0000000  3
   3579   3577   3586   3587     1  0.0000000  0.6508444  3
   3579   3577   3586   3588     1  0.0000000  0.6508444  3
   3581   3580   3592   5265     1  0.0000000  1.0460000  1
   3581   3580   3592   5265     1  0.0000000  0.0000000  3
   3581   3580   3592   3593     1  0.0000000  0.6508444  3
   3581   3580   3592   3594     1  0.0000000  0.6508444  3
   3582   3580   3592   5265     1  0.0000000  1.0460000  1
   3582   3580   3592   5265     1  0.0000000  0.0000000  3
   3582   3580   3592   3593     1  0.0000000  0.6508444  3
   3582   3580   3592   3594     1  0.0000000  0.6508444  3
   3584   3583   3589   5252     1  0.0000000  1.0460000  1
   3584   3583   3589   5252     1  0.0000000  0.0000000  3
   3584   3583   3589   3590     1  0.0000000  0.6508444  3
   3584   3583   3589   3591     1  0.0000000  0.6508444  3
   3585   3583   3589   5252     1  0.0000000  1.0460000  1
   3585   3583   3589   5252     1  0.0000000  0.0000000  3
   3585   3583   3589   3590     1  0.0000000  0.6508444  3
   3585   3583   3589   3591     1  0.0000000  0.6508444  3
   3589   5252   5246   5247     1  0.0000000  1.6038667  3
   3589   5252   5246   5248     1  0.0000000  1.6038667  3
   3590   3589   5252   5246     1  0.0000000  1.6038667  3
   3591   3589   5252   5246     1  0.0000000  1.6038667  3
   3592   5265   5259   5260     1  0.0000000  1.6038667  3
   3592   5265   5259   5261     1  0.0000000  1.6038667  3
   3593   3592   5265   5259     1  0.0000000  1.6038667  3
   3594   3592   5265   5259     1  0.0000000  1.6038667  3
   3596   3597   3609   3610     1  0.0000000  0.6508444  3
   3596   3597   3609   3611     1  0.0000000  0.6508444  3
   3596   3600   3612   3613     1  0.0000000  0.6508444  3
   3596   3600   3612   3614     1  0.0000000  0.6508444  3
   3596   3603   3606   3607     1  0.0000000  0.6508444  3
   3596   3603   3606   3608     1  0.0000000  0.6508444  3
   3597   3596   3600   3601     1  0.0000000  1.2552000  3
   3597   3596   3600   3602     1  0.0000000  1.2552000  3
   3597   3596   3603   3604     1  0.0000000  1.2552000  3
   3597   3596   3603   3605     1  0.0000000  1.2552000  3
   3597   3609   3621   3622     1  0.0000000  0.6508444  3
   3597   3609   3621   3623     1  0.0000000  0.6508444  3
   3598   3597   3596   3600     1  0.0000000  1.2552000  3
   3598   3597   3596   3603     1  0.0000000  1.2552000  3
   3598   3597   3609   3621     1  0.0000000  0.6508444  3
   3598   3597   3609   3610     1  0.0000000  0.6508444  3
   3598   3597   3609   3611     1  0.0000000  0.6508444  3
   3599   3597   3596   3600     1  0.0000000  1.2552000  3
   3599   3597   3596   3603     1  0.0000000  1.2552000  3
   3599   3597   3609   3621     1  0.0000000  0.6508444  3
   3599   3597   3609   3610     1  0.0000000  0.6508444  3
   3599   3597   3609   3611     1  0.0000000  0.6508444  3
   3600   3596   3603   3604     1  0.0000000  1.2552000  3
   3600   3596   3603   3605     1  0.0000000  1.2552000  3
   3600   3612   3618   3619     1  0.0000000  0.6508444  3
   3600   3612   3618   3620     1  0.0000000  0.6508444  3
   3601   3600   3596   3603     1  0.0000000  1.2552000  3
   3601   3600   3612   3618     1  0.0000000  0.6508444  3
   3601   3600   3612   3613     1  0.0000000  0.6508444  3
   3601   3600   3612   3614     1  0.0000000  0.6508444  3
   3602   3600   3596   3603     1  0.0000000  1.2552000  3
   3602   3600   3612   3618     1  0.0000000  0.6508444  3
   3602   3600   3612   3613     1  0.0000000  0.6508444  3
   3602   3600   3612   3614     1  0.0000000  0.6508444  3
   3603   3606   3615   3616     1  0.0000000  0.6508444  3
   3603   3606   3615   3617     1  0.0000000  0.6508444  3
   3604   3603   3606   3615     1  0.0000000  0.6508444  3
   3604   3603   3606   3607     1  0.0000000  0.6508444  3
   3604   3603   3606   3608     1  0.0000000  0.6508444  3
   3605   3603   3606   3615     1  0.0000000  0.6508444  3
   3605   3603   3606   3607     1  0.0000000  0.6508444  3
   3605   3603   3606   3608     1  0.0000000  0.6508444  3
   3607   3606   3615   3624     1  0.0000000  1.0460000  1
   3607   3606   3615   3624     1  0.0000000  0.0000000  3
   3607   3606   3615   3616     1  0.0000000  0.6508444  3
   3607   3606   3615   3617     1  0.0000000  0.6508444  3
   3608   3606   3615   3624     1  0.0000000  1.0460000  1
   3608   3606   3615   3624     1  0.0000000  0.0000000  3
   3608   3606   3615   3616     1  0.0000000  0.6508444  3
   3608   3606   3615   3617     1  0.0000000  0.6508444  3
   3610   3609   3621   5291     1  0.0000000  1.0460000  1
   3610   3609   3621   5291     1  0.0000000  0.0000000  3
   3610   3609   3621   3622     1  0.0000000  0.6508444  3
   3610   3609   3621   3623     1  0.0000000  0.6508444  3
   3611   3609   3621   5291     1  0.0000000  1.0460000  1
   3611   3609   3621   5291     1  0.0000000  0.0000000  3
   3611   3609   3621   3622     1  0.0000000  0.6508444  3
   3611   3609   3621   3623     1  0.0000000  0.6508444  3
   3613   3612   3618   5278     1  0.0000000  1.0460000  1
   3613   3612   3618   5278     1  0.0000000  0.0000000  3
   3613   3612   3618   3619     1  0.0000000  0.6508444  3
   3613   3612   3618   3620     1  0.0000000  0.6508444  3
   3614   3612   3618   5278     1  0.0000000  1.0460000  1
   3614   3612   3618   5278     1  0.0000000  0.0000000  3
   3614   3612   3618   3619     1  0.0000000  0.6508444  3
   3614   3612   3618   3620     1  0.0000000  0.6508444  3
   3618   5278   5272   5273     1  0.0000000  1.6038667  3
   3618   5278   5272   5274     1  0.0000000  1.6038667  3
   3619   3618   5278   5272     1  0.0000000  1.6038667  3
   3620   3618   5278   5272     1  0.0000000  1.6038667  3
   3621   5291   5285   5286     1  0.0000000  1.6038667  3
   3621   5291   5285   5287     1  0.0000000  1.6038667  3
   3622   3621   5291   5285     1  0.0000000  1.6038667  3
   3623   3621   5291   5285     1  0.0000000  1.6038667  3
   3625   3626   3638   3639     1  0.0000000  0.6508444  3
   3625   3626   3638   3640     1  0.0000000  0.6508444  3
   3625   3629   3641   3642     1  0.0000000  0.6508444  3
   3625   3629   3641   3643     1  0.0000000  0.6508444  3
   3625   3632   3635   3636     1  0.0000000  0.6508444  3
   3625   3632   3635   3637     1  0.0000000  0.6508444  3
   3626   3625   3629   3630     1  0.0000000  1.2552000  3
   3626   3625   3629   3631     1  0.0000000  1.2552000  3
   3626   3625   3632   3633     1  0.0000000  1.2552000  3
   3626   3625   3632   3634     1  0.0000000  1.2552000  3
   3626   3638   3650   3651     1  0.0000000  0.6508444  3
   3626   3638   3650   3652     1  0.0000000  0.6508444  3
   3627   3626   3625   3629     1  0.0000000  1.2552000  3
   3627   3626   3625   3632     1  0.0000000  1.2552000  3
   3627   3626   3638   3650     1  0.0000000  0.6508444  3
   3627   3626   3638   3639     1  0.0000000  0.6508444  3
   3627   3626   3638   3640     1  0.0000000  0.6508444  3
   3628   3626   3625   3629     1  0.0000000  1.2552000  3
   3628   3626   3625   3632     1  0.0000000  1.2552000  3
   3628   3626   3638   3650     1  0.0000000  0.6508444  3
   3628   3626   3638   3639     1  0.0000000  0.6508444  3
   3628   3626   3638   3640     1  0.0000000  0.6508444  3
   3629   3625   3632   3633     1  0.0000000  1.2552000  3
   3629   3625   3632   3634     1  0.0000000  1.2552000  3
   3629   3641   3647   3648     1  0.0000000  0.6508444  3
   3629   3641   3647   3649     1  0.0000000  0.6508444  3
   3630   3629   3625   3632     1  0.0000000  1.2552000  3
   3630   3629   3641   3647     1  0.0000000  0.6508444  3
   3630   3629   3641   3642     1  0.0000000  0.6508444  3
   3630   3629   3641   3643     1  0.0000000  0.6508444  3
   3631   3629   3625   3632     1  0.0000000  1.2552000  3
   3631   3629   3641   3647     1  0.0000000  0.6508444  3
   3631   3629   3641   3642     1  0.0000000  0.6508444  3
   3631   3629   3641   3643     1  0.0000000  0.6508444  3
   3632   3635   3644   3645     1  0.0000000  0.6508444  3
   3632   3635   3644   3646     1  0.0000000  0.6508444  3
   3633   3632   3635   3644     1  0.0000000  0.6508444  3
   3633   3632   3635   3636     1  0.0000000  0.6508444  3
   3633   3632   3635   3637     1  0.0000000  0.6508444  3
   3634   3632   3635   3644     1  0.0000000  0.6508444  3
   3634   3632   3635   3636     1  0.0000000  0.6508444  3
   3634   3632   3635   3637     1  0.0000000  0.6508444  3
   3636   3635   3644   3653     1  0.0000000  1.0460000  1
   3636   3635   3644   3653     1  0.0000000  0.0000000  3
   3636   3635   3644   3645     1  0.0000000  0.6508444  3
   3636   3635   3644   3646     1  0.0000000  0.6508444  3
   3637   3635   3644   3653     1  0.0000000  1.0460000  1
   3637   3635   3644   3653     1  0.0000000  0.0000000  3
   3637   3635   3644   3645     1  0.0000000  0.6508444  3
   3637   3635   3644   3646     1  0.0000000  0.6508444  3
   3639   3638   3650   5317     1  0.0000000  1.0460000  1
   3639   3638   3650   5317     1  0.0000000  0.0000000  3
   3639   3638   3650   3651     1  0.0000000  0.6508444  3
   3639   3638   3650   3652     1  0.0000000  0.6508444  3
   3640   3638   3650   5317     1  0.0000000  1.0460000  1
   3640   3638   3650   5317     1  0.0000000  0.0000000  3
   3640   3638   3650   3651     1  0.0000000  0.6508444  3
   3640   3638   3650   3652     1  0.0000000  0.6508444  3
   3642   3641   3647   5304     1  0.0000000  1.0460000  1
   3642   3641   3647   5304     1  0.0000000  0.0000000  3
   3642   3641   3647   3648     1  0.0000000  0.6508444  3
   3642   3641   3647   3649     1  0.0000000  0.6508444  3
   3643   3641   3647   5304     1  0.0000000  1.0460000  1
   3643   3641   3647   5304     1  0.0000000  0.0000000  3
   3643   3641   3647   3648     1  0.0000000  0.6508444  3
   3643   3641   3647   3649     1  0.0000000  0.6508444  3
   3647   5304   5298   5299     1  0.0000000  1.6038667  3
   3647   5304   5298   5300     1  0.0000000  1.6038667  3
   3648   3647   5304   5298     1  0.0000000  1.6038667  3
   3649   3647   5304   5298     1  0.0000000  1.6038667  3
   3650   5317   5311   5312     1  0.0000000  1.6038667  3
   3650   5317   5311   5313     1  0.0000000  1.6038667  3
   3651   3650   5317   5311     1  0.0000000  1.6038667  3
   3652   3650   5317   5311     1  0.0000000  1.6038667  3
   3654   3657   3660   3661     1  0.0000000  0.6508444  3
   3654   3657   3660   3662     1  0.0000000  0.6508444  3
   3655   3654   3657   3660     1  0.0000000  0.6508444  3
   3655   3654   3657   3658     1  0.0000000  0.6508444  3
   3655   3654   3657   3659     1  0.0000000  0.6508444  3
   3655   3654   3663   3664     1  0.0000000  1.2552000  3
   3655   3654   3663   3665     1  0.0000000  1.2552000  3
   3656   3654   3657   3660     1  0.0000000  0.6508444  3
   3656   3654   3657   3658     1  0.0000000  0.6508444  3
   3656   3654   3657   3659     1  0.0000000  0.6508444  3
   3656   3654   3663   3664     1  0.0000000  1.2552000  3
   3656   3654   3663   3665     1  0.0000000  1.2552000  3
   3657   3654   3663   3664     1  0.0000000  1.2552000  3
   3657   3654   3663   3665     1  0.0000000  1.2552000  3
   3658   3657   3654   3663     1  0.0000000  0.6508444  3
   3658   3657   3660   3666     1  0.0000000  1.0460000  1
   3658   3657   3660   3666     1  0.0000000  0.0000000  3
   3658   3657   3660   3661     1  0.0000000  0.6508444  3
   3658   3657   3660   3662     1  0.0000000  0.6508444  3
   3659   3657   3654   3663     1  0.0000000  0.6508444  3
   3659   3657   3660   3666     1  0.0000000  1.0460000  1
   3659   3657   3660   3666     1  0.0000000  0.0000000  3
   3659   3657   3660   3661     1  0.0000000  0.6508444  3
   3659   3657   3660   3662     1  0.0000000  0.6508444  3
   3667   3670   3673   3674     1  0.0000000  0.6508444  3
   3667   3670   3673   3675     1  0.0000000  0.6508444  3
   3668   3667   3670   3673     1  0.0000000  0.6508444  3
   3668   3667   3670   3671     1  0.0000000  0.6508444  3
   3668   3667   3670   3672     1  0.0000000  0.6508444  3
   3668   3667   3676   3677     1  0.0000000  1.2552000  3
   3668   3667   3676   3678     1  0.0000000  1.2552000  3
   3669   3667   3670   3673     1  0.0000000  0.6508444  3
   3669   3667   3670   3671     1  0.0000000  0.6508444  3
   3669   3667   3670   3672     1  0.0000000  0.6508444  3
   3669   3667   3676   3677     1  0.0000000  1.2552000  3
   3669   3667   3676   3678     1  0.0000000  1.2552000  3
   3670   3667   3676   3677     1  0.0000000  1.2552000  3
   3670   3667   3676   3678     1  0.0000000  1.2552000  3
   3671   3670   3673   3679     1  0.0000000  1.0460000  1
   3671   3670   3673   3679     1  0.0000000  0.0000000  3
   3671   3670   3673   3674     1  0.0000000  0.6508444  3
   3671   3670   3673   3675     1  0.0000000  0.6508444  3
   3671   3670   3667   3676     1  0.0000000  0.6508444  3
   3672   3670   3673   3679     1  0.0000000  1.0460000  1
   3672   3670   3673   3679     1  0.0000000  0.0000000  3
   3672   3670   3673   3674     1  0.0000000  0.6508444  3
   3672   3670   3673   3675     1  0.0000000  0.6508444  3
   3672   3670   3667   3676     1  0.0000000  0.6508444  3
   3680   3683   3686   3687     1  0.0000000  0.6508444  3
   3680   3683   3686   3688     1  0.0000000  0.6508444  3
   3681   3680   3683   3686     1  0.0000000  0.6508444  3
   3681   3680   3683   3684     1  0.0000000  0.6508444  3
   3681   3680   3683   3685     1  0.0000000  0.6508444  3
   3681   3680   3689   3690     1  0.0000000  1.2552000  3
   3681   3680   3689   3691     1  0.0000000  1.2552000  3
   3682   3680   3683   3686     1  0.0000000  0.6508444  3
   3682   3680   3683   3684     1  0.0000000  0.6508444  3
   3682   3680   3683   3685     1  0.0000000  0.6508444  3
   3682   3680   3689   3690     1  0.0000000  1.2552000  3
   3682   3680   3689   3691     1  0.0000000  1.2552000  3
   3683   3680   3689   3690     1  0.0000000  1.2552000  3
   3683   3680   3689   3691     1  0.0000000  1.2552000  3
   3684   3683   3680   3689     1  0.0000000  0.6508444  3
   3684   3683   3686   3692     1  0.0000000  1.0460000  1
   3684   3683   3686   3692     1  0.0000000  0.0000000  3
   3684   3683   3686   3687     1  0.0000000  0.6508444  3
   3684   3683   3686   3688     1  0.0000000  0.6508444  3
   3685   3683   3680   3689     1  0.0000000  0.6508444  3
   3685   3683   3686   3692     1  0.0000000  1.0460000  1
   3685   3683   3686   3692     1  0.0000000  0.0000000  3
   3685   3683   3686   3687     1  0.0000000  0.6508444  3
   3685   3683   3686   3688     1  0.0000000  0.6508444  3
   3693   3696   3699   3700     1  0.0000000  0.6508444  3
   3693   3696   3699   3701     1  0.0000000  0.6508444  3
   3694   3693   3696   3699     1  0.0000000  0.6508444  3
   3694   3693   3696   3697     1  0.0000000  0.6508444  3
   3694   3693   3696   3698     1  0.0000000  0.6508444  3
   3694   3693   3702   3703     1  0.0000000  1.2552000  3
   3694   3693   3702   3704     1  0.0000000  1.2552000  3
   3695   3693   3696   3699     1  0.0000000  0.6508444  3
   3695   3693   3696   3697     1  0.0000000  0.6508444  3
   3695   3693   3696   3698     1  0.0000000  0.6508444  3
   3695   3693   3702   3703     1  0.0000000  1.2552000  3
   3695   3693   3702   3704     1  0.0000000  1.2552000  3
   3696   3693   3702   3703     1  0.0000000  1.2552000  3
   3696   3693   3702   3704     1  0.0000000  1.2552000  3
   3697   3696   3699   3705     1  0.0000000  1.0460000  1
   3697   3696   3699   3705     1  0.0000000  0.0000000  3
   3697   3696   3699   3700     1  0.0000000  0.6508444  3
   3697   3696   3699   3701     1  0.0000000  0.6508444  3
   3697   3696   3693   3702     1  0.0000000  0.6508444  3
   3698   3696   3699   3705     1  0.0000000  1.0460000  1
   3698   3696   3699   3705     1  0.0000000  0.0000000  3
   3698   3696   3699   3700     1  0.0000000  0.6508444  3
   3698   3696   3699   3701     1  0.0000000  0.6508444  3
   3698   3696   3693   3702     1  0.0000000  0.6508444  3
   3706   3709   3712   3713     1  0.0000000  0.6508444  3
   3706   3709   3712   3714     1  0.0000000  0.6508444  3
   3707   3706   3709   3712     1  0.0000000  0.6508444  3
   3707   3706   3709   3710     1  0.0000000  0.6508444  3
   3707   3706   3709   3711     1  0.0000000  0.6508444  3
   3707   3706   3715   3716     1  0.0000000  1.2552000  3
   3707   3706   3715   3717     1  0.0000000  1.2552000  3
   3708   3706   3709   3712     1  0.0000000  0.6508444  3
   3708   3706   3709   3710     1  0.0000000  0.6508444  3
   3708   3706   3709   3711     1  0.0000000  0.6508444  3
   3708   3706   3715   3716     1  0.0000000  1.2552000  3
   3708   3706   3715   3717     1  0.0000000  1.2552000  3
   3709   3706   3715   3716     1  0.0000000  1.2552000  3
   3709   3706   3715   3717     1  0.0000000  1.2552000  3
   3710   3709   3706   3715     1  0.0000000  0.6508444  3
   3710   3709   3712   3718     1  0.0000000  1.0460000  1
   3710   3709   3712   3718     1  0.0000000  0.0000000  3
   3710   3709   3712   3713     1  0.0000000  0.6508444  3
   3710   3709   3712   3714     1  0.0000000  0.6508444  3
   3711   3709   3706   3715     1  0.0000000  0.6508444  3
   3711   3709   3712   3718     1  0.0000000  1.0460000  1
   3711   3709   3712   3718     1  0.0000000  0.0000000  3
   3711   3709   3712   3713     1  0.0000000  0.6508444  3
   3711   3709   3712   3714     1  0.0000000  0.6508444  3
   3719   3722   3725   3726     1  0.0000000  0.6508444  3
   3719   3722   3725   3727     1  0.0000000  0.6508444  3
   3720   3719   3722   3725     1  0.0000000  0.6508444  3
   3720   3719   3722   3723     1  0.0000000  0.6508444  3
   3720   3719   3722   3724     1  0.0000000  0.6508444  3
   3720   3719   3728   3729     1  0.0000000  1.2552000  3
   3720   3719   3728   3730     1  0.0000000  1.2552000  3
   3721   3719   3722   3725     1  0.0000000  0.6508444  3
   3721   3719   3722   3723     1  0.0000000  0.6508444  3
   3721   3719   3722   3724     1  0.0000000  0.6508444  3
   3721   3719   3728   3729     1  0.0000000  1.2552000  3
   3721   3719   3728   3730     1  0.0000000  1.2552000  3
   3722   3719   3728   3729     1  0.0000000  1.2552000  3
   3722   3719   3728   3730     1  0.0000000  1.2552000  3
   3723   3722   3725   3731     1  0.0000000  1.0460000  1
   3723   3722   3725   3731     1  0.0000000  0.0000000  3
   3723   3722   3725   3726     1  0.0000000  0.6508444  3
   3723   3722   3725   3727     1  0.0000000  0.6508444  3
   3723   3722   3719   3728     1  0.0000000  0.6508444  3
   3724   3722   3725   3731     1  0.0000000  1.0460000  1
   3724   3722   3725   3731     1  0.0000000  0.0000000  3
   3724   3722   3725   3726     1  0.0000000  0.6508444  3
   3724   3722   3725   3727     1  0.0000000  0.6508444  3
   3724   3722   3719   3728     1  0.0000000  0.6508444  3
   3732   3735   3738   3739     1  0.0000000  0.6508444  3
   3732   3735   3738   3740     1  0.0000000  0.6508444  3
   3733   3732   3735   3738     1  0.0000000  0.6508444  3
   3733   3732   3735   3736     1  0.0000000  0.6508444  3
   3733   3732   3735   3737     1  0.0000000  0.6508444  3
   3733   3732   3741   3742     1  0.0000000  1.2552000  3
   3733   3732   3741   3743     1  0.0000000  1.2552000  3
   3734   3732   3735   3738     1  0.0000000  0.6508444  3
   3734   3732   3735   3736     1  0.0000000  0.6508444  3
   3734   3732   3735   3737     1  0.0000000  0.6508444  3
   3734   3732   3741   3742     1  0.0000000  1.2552000  3
   3734   3732   3741   3743     1  0.0000000  1.2552000  3
   3735   3732   3741   3742     1  0.0000000  1.2552000  3
   3735   3732   3741   3743     1  0.0000000  1.2552000  3
   3736   3735   3732   3741     1  0.0000000  0.6508444  3
   3736   3735   3738   3744     1  0.0000000  1.0460000  1
   3736   3735   3738   3744     1  0.0000000  0.0000000  3
   3736   3735   3738   3739     1  0.0000000  0.6508444  3
   3736   3735   3738   3740     1  0.0000000  0.6508444  3
   3737   3735   3732   3741     1  0.0000000  0.6508444  3
   3737   3735   3738   3744     1  0.0000000  1.0460000  1
   3737   3735   3738   3744     1  0.0000000  0.0000000  3
   3737   3735   3738   3739     1  0.0000000  0.6508444  3
   3737   3735   3738   3740     1  0.0000000  0.6508444  3
   3745   3748   3751   3752     1  0.0000000  0.6508444  3
   3745   3748   3751   3753     1  0.0000000  0.6508444  3
   3746   3745   3748   3751     1  0.0000000  0.6508444  3
   3746   3745   3748   3749     1  0.0000000  0.6508444  3
   3746   3745   3748   3750     1  0.0000000  0.6508444  3
   3746   3745   3754   3755     1  0.0000000  1.2552000  3
   3746   3745   3754   3756     1  0.0000000  1.2552000  3
   3747   3745   3748   3751     1  0.0000000  0.6508444  3
   3747   3745   3748   3749     1  0.0000000  0.6508444  3
   3747   3745   3748   3750     1  0.0000000  0.6508444  3
   3747   3745   3754   3755     1  0.0000000  1.2552000  3
   3747   3745   3754   3756     1  0.0000000  1.2552000  3
   3748   3745   3754   3755     1  0.0000000  1.2552000  3
   3748   3745   3754   3756     1  0.0000000  1.2552000  3
   3749   3748   3751   3757     1  0.0000000  1.0460000  1
   3749   3748   3751   3757     1  0.0000000  0.0000000  3
   3749   3748   3751   3752     1  0.0000000  0.6508444  3
   3749   3748   3751   3753     1  0.0000000  0.6508444  3
   3749   3748   3745   3754     1  0.0000000  0.6508444  3
   3750   3748   3751   3757     1  0.0000000  1.0460000  1
   3750   3748   3751   3757     1  0.0000000  0.0000000  3
   3750   3748   3751   3752     1  0.0000000  0.6508444  3
   3750   3748   3751   3753     1  0.0000000  0.6508444  3
   3750   3748   3745   3754     1  0.0000000  0.6508444  3
   3758   3761   3764   3765     1  0.0000000  0.6508444  3
   3758   3761   3764   3766     1  0.0000000  0.6508444  3
   3759   3758   3761   3764     1  0.0000000  0.6508444  3
   3759   3758   3761   3762     1  0.0000000  0.6508444  3
   3759   3758   3761   3763     1  0.0000000  0.6508444  3
   3759   3758   3767   3768     1  0.0000000  1.2552000  3
   3759   3758   3767   3769     1  0.0000000  1.2552000  3
   3760   3758   3761   3764     1  0.0000000  0.6508444  3
   3760   3758   3761   3762     1  0.0000000  0.6508444  3
   3760   3758   3761   3763     1  0.0000000  0.6508444  3
   3760   3758   3767   3768     1  0.0000000  1.2552000  3
   3760   3758   3767   3769     1  0.0000000  1.2552000  3
   3761   3758   3767   3768     1  0.0000000  1.2552000  3
   3761   3758   3767   3769     1  0.0000000  1.2552000  3
   3762   3761   3758   3767     1  0.0000000  0.6508444  3
   3762   3761   3764   3770     1  0.0000000  1.0460000  1
   3762   3761   3764   3770     1  0.0000000  0.0000000  3
   3762   3761   3764   3765     1  0.0000000  0.6508444  3
   3762   3761   3764   3766     1  0.0000000  0.6508444  3
   3763   3761   3758   3767     1  0.0000000  0.6508444  3
   3763   3761   3764   3770     1  0.0000000  1.0460000  1
   3763   3761   3764   3770     1  0.0000000  0.0000000  3
   3763   3761   3764   3765     1  0.0000000  0.6508444  3
   3763   3761   3764   3766     1  0.0000000  0.6508444  3
   3771   3774   3777   3778     1  0.0000000  0.6508444  3
   3771   3774   3777   3779     1  0.0000000  0.6508444  3
   3772   3771   3774   3777     1  0.0000000  0.6508444  3
   3772   3771   3774   3775     1  0.0000000  0.6508444  3
   3772   3771   3774   3776     1  0.0000000  0.6508444  3
   3772   3771   3780   3781     1  0.0000000  1.2552000  3
   3772   3771   3780   3782     1  0.0000000  1.2552000  3
   3773   3771   3774   3777     1  0.0000000  0.6508444  3
   3773   3771   3774   3775     1  0.0000000  0.6508444  3
   3773   3771   3774   3776     1  0.0000000  0.6508444  3
   3773   3771   3780   3781     1  0.0000000  1.2552000  3
   3773   3771   3780   3782     1  0.0000000  1.2552000  3
   3774   3771   3780   3781     1  0.0000000  1.2552000  3
   3774   3771   3780   3782     1  0.0000000  1.2552000  3
   3775   3774   3777   3783     1  0.0000000  1.0460000  1
   3775   3774   3777   3783     1  0.0000000  0.0000000  3
   3775   3774   3777   3778     1  0.0000000  0.6508444  3
   3775   3774   3777   3779     1  0.0000000  0.6508444  3
   3775   3774   3771   3780     1  0.0000000  0.6508444  3
   3776   3774   3777   3783     1  0.0000000  1.0460000  1
   3776   3774   3777   3783     1  0.0000000  0.0000000  3
   3776   3774   3777   3778     1  0.0000000  0.6508444  3
   3776   3774   3777   3779     1  0.0000000  0.6508444  3
   3776   3774   3771   3780     1  0.0000000  0.6508444  3
   3784   3787   3790   3791     1  0.0000000  0.6508444  3
   3784   3787   3790   3792     1  0.0000000  0.6508444  3
   3785   3784   3787   3790     1  0.0000000  0.6508444  3
   3785   3784   3787   3788     1  0.0000000  0.6508444  3
   3785   3784   3787   3789     1  0.0000000  0.6508444  3
   3785   3784   3793   3794     1  0.0000000  1.2552000  3
   3785   3784   3793   3795     1  0.0000000  1.2552000  3
   3786   3784   3787   3790     1  0.0000000  0.6508444  3
   3786   3784   3787   3788     1  0.0000000  0.6508444  3
   3786   3784   3787   3789     1  0.0000000  0.6508444  3
   3786   3784   3793   3794     1  0.0000000  1.2552000  3
   3786   3784   3793   3795     1  0.0000000  1.2552000  3
   3787   3784   3793   3794     1  0.0000000  1.2552000  3
   3787   3784   3793   3795     1  0.0000000  1.2552000  3
   3788   3787   3784   3793     1  0.0000000  0.6508444  3
   3788   3787   3790   3796     1  0.0000000  1.0460000  1
   3788   3787   3790   3796     1  0.0000000  0.0000000  3
   3788   3787   3790   3791     1  0.0000000  0.6508444  3
   3788   3787   3790   3792     1  0.0000000  0.6508444  3
   3789   3787   3784   3793     1  0.0000000  0.6508444  3
   3789   3787   3790   3796     1  0.0000000  1.0460000  1
   3789   3787   3790   3796     1  0.0000000  0.0000000  3
   3789   3787   3790   3791     1  0.0000000  0.6508444  3
   3789   3787   3790   3792     1  0.0000000  0.6508444  3
   3797   3800   3803   3804     1  0.0000000  0.6508444  3
   3797   3800   3803   3805     1  0.0000000  0.6508444  3
   3798   3797   3800   3803     1  0.0000000  0.6508444  3
   3798   3797   3800   3801     1  0.0000000  0.6508444  3
   3798   3797   3800   3802     1  0.0000000  0.6508444  3
   3798   3797   3806   3807     1  0.0000000  1.2552000  3
   3798   3797   3806   3808     1  0.0000000  1.2552000  3
   3799   3797   3800   3803     1  0.0000000  0.6508444  3
   3799   3797   3800   3801     1  0.0000000  0.6508444  3
   3799   3797   3800   3802     1  0.0000000  0.6508444  3
   3799   3797   3806   3807     1  0.0000000  1.2552000  3
   3799   3797   3806   3808     1  0.0000000  1.2552000  3
   3800   3797   3806   3807     1  0.0000000  1.2552000  3
   3800   3797   3806   3808     1  0.0000000  1.2552000  3
   3801   3800   3803   3809     1  0.0000000  1.0460000  1
   3801   3800   3803   3809     1  0.0000000  0.0000000  3
   3801   3800   3803   3804     1  0.0000000  0.6508444  3
   3801   3800   3803   3805     1  0.0000000  0.6508444  3
   3801   3800   3797   3806     1  0.0000000  0.6508444  3
   3802   3800   3803   3809     1  0.0000000  1.0460000  1
   3802   3800   3803   3809     1  0.0000000  0.0000000  3
   3802   3800   3803   3804     1  0.0000000  0.6508444  3
   3802   3800   3803   3805     1  0.0000000  0.6508444  3
   3802   3800   3797   3806     1  0.0000000  0.6508444  3
   3810   3813   3816   3817     1  0.0000000  0.6508444  3
   3810   3813   3816   3818     1  0.0000000  0.6508444  3
   3811   3810   3813   3816     1  0.0000000  0.6508444  3
   3811   3810   3813   3814     1  0.0000000  0.6508444  3
   3811   3810   3813   3815     1  0.0000000  0.6508444  3
   3811   3810   3819   3820     1  0.0000000  1.2552000  3
   3811   3810   3819   3821     1  0.0000000  1.2552000  3
   3812   3810   3813   3816     1  0.0000000  0.6508444  3
   3812   3810   3813   3814     1  0.0000000  0.6508444  3
   3812   3810   3813   3815     1  0.0000000  0.6508444  3
   3812   3810   3819   3820     1  0.0000000  1.2552000  3
   3812   3810   3819   3821     1  0.0000000  1.2552000  3
   3813   3810   3819   3820     1  0.0000000  1.2552000  3
   3813   3810   3819   3821     1  0.0000000  1.2552000  3
   3814   3813   3810   3819     1  0.0000000  0.6508444  3
   3814   3813   3816   3822     1  0.0000000  1.0460000  1
   3814   3813   3816   3822     1  0.0000000  0.0000000  3
   3814   3813   3816   3817     1  0.0000000  0.6508444  3
   3814   3813   3816   3818     1  0.0000000  0.6508444  3
   3815   3813   3810   3819     1  0.0000000  0.6508444  3
   3815   3813   3816   3822     1  0.0000000  1.0460000  1
   3815   3813   3816   3822     1  0.0000000  0.0000000  3
   3815   3813   3816   3817     1  0.0000000  0.6508444  3
   3815   3813   3816   3818     1  0.0000000  0.6508444  3
   3823   3826   3829   3830     1  0.0000000  0.6508444  3
   3823   3826   3829   3831     1  0.0000000  0.6508444  3
   3824   3823   3826   3829     1  0.0000000  0.6508444  3
   3824   3823   3826   3827     1  0.0000000  0.6508444  3
   3824   3823   3826   3828     1  0.0000000  0.6508444  3
   3824   3823   3832   3833     1  0.0000000  1.2552000  3
   3824   3823   3832   3834     1  0.0000000  1.2552000  3
   3825   3823   3826   3829     1  0.0000000  0.6508444  3
   3825   3823   3826   3827     1  0.0000000  0.6508444  3
   3825   3823   3826   3828     1  0.0000000  0.6508444  3
   3825   3823   3832   3833     1  0.0000000  1.2552000  3
   3825   3823   3832   3834     1  0.0000000  1.2552000  3
   3826   3823   3832   3833     1  0.0000000  1.2552000  3
   3826   3823   3832   3834     1  0.0000000  1.2552000  3
   3827   3826   3829   3835     1  0.0000000  1.0460000  1
   3827   3826   3829   3835     1  0.0000000  0.0000000  3
   3827   3826   3829   3830     1  0.0000000  0.6508444  3
   3827   3826   3829   3831     1  0.0000000  0.6508444  3
   3827   3826   3823   3832     1  0.0000000  0.6508444  3
   3828   3826   3829   3835     1  0.0000000  1.0460000  1
   3828   3826   3829   3835     1  0.0000000  0.0000000  3
   3828   3826   3829   3830     1  0.0000000  0.6508444  3
   3828   3826   3829   3831     1  0.0000000  0.6508444  3
   3828   3826   3823   3832     1  0.0000000  0.6508444  3
   3836   3839   3842   3843     1  0.0000000  0.6508444  3
   3836   3839   3842   3844     1  0.0000000  0.6508444  3
   3837   3836   3839   3842     1  0.0000000  0.6508444  3
   3837   3836   3839   3840     1  0.0000000  0.6508444  3
   3837   3836   3839   3841     1  0.0000000  0.6508444  3
   3837   3836   3845   3846     1  0.0000000  1.2552000  3
   3837   3836   3845   3847     1  0.0000000  1.2552000  3
   3838   3836   3839   3842     1  0.0000000  0.6508444  3
   3838   3836   3839   3840     1  0.0000000  0.6508444  3
   3838   3836   3839   3841     1  0.0000000  0.6508444  3
   3838   3836   3845   3846     1  0.0000000  1.2552000  3
   3838   3836   3845   3847     1  0.0000000  1.2552000  3
   3839   3836   3845   3846     1  0.0000000  1.2552000  3
   3839   3836   3845   3847     1  0.0000000  1.2552000  3
   3840   3839   3836   3845     1  0.0000000  0.6508444  3
   3840   3839   3842   3848     1  0.0000000  1.0460000  1
   3840   3839   3842   3848     1  0.0000000  0.0000000  3
   3840   3839   3842   3843     1  0.0000000  0.6508444  3
   3840   3839   3842   3844     1  0.0000000  0.6508444  3
   3841   3839   3836   3845     1  0.0000000  0.6508444  3
   3841   3839   3842   3848     1  0.0000000  1.0460000  1
   3841   3839   3842   3848     1  0.0000000  0.0000000  3
   3841   3839   3842   3843     1  0.0000000  0.6508444  3
   3841   3839   3842   3844     1  0.0000000  0.6508444  3
   3849   3852   3855   3856     1  0.0000000  0.6508444  3
   3849   3852   3855   3857     1  0.0000000  0.6508444  3
   3850   3849   3852   3855     1  0.0000000  0.6508444  3
   3850   3849   3852   3853     1  0.0000000  0.6508444  3
   3850   3849   3852   3854     1  0.0000000  0.6508444  3
   3850   3849   3858   3859     1  0.0000000  1.2552000  3
   3850   3849   3858   3860     1  0.0000000  1.2552000  3
   3851   3849   3852   3855     1  0.0000000  0.6508444  3
   3851   3849   3852   3853     1  0.0000000  0.6508444  3
   3851   3849   3852   3854     1  0.0000000  0.6508444  3
   3851   3849   3858   3859     1  0.0000000  1.2552000  3
   3851   3849   3858   3860     1  0.0000000  1.2552000  3
   3852   3849   3858   3859     1  0.0000000  1.2552000  3
   3852   3849   3858   3860     1  0.0000000  1.2552000  3
   3853   3852   3855   3861     1  0.0000000  1.0460000  1
   3853   3852   3855   3861     1  0.0000000  0.0000000  3
   3853   3852   3855   3856     1  0.0000000  0.6508444  3
   3853   3852   3855   3857     1  0.0000000  0.6508444  3
   3853   3852   3849   3858     1  0.0000000  0.6508444  3
   3854   3852   3855   3861     1  0.0000000  1.0460000  1
   3854   3852   3855   3861     1  0.0000000  0.0000000  3
   3854   3852   3855   3856     1  0.0000000  0.6508444  3
   3854   3852   3855   3857     1  0.0000000  0.6508444  3
   3854   3852   3849   3858     1  0.0000000  0.6508444  3
   3862   3865   3868   3869     1  0.0000000  0.6508444  3
   3862   3865   3868   3870     1  0.0000000  0.6508444  3
   3863   3862   3865   3868     1  0.0000000  0.6508444  3
   3863   3862   3865   3866     1  0.0000000  0.6508444  3
   3863   3862   3865   3867     1  0.0000000  0.6508444  3
   3863   3862   3871   3872     1  0.0000000  1.2552000  3
   3863   3862   3871   3873     1  0.0000000  1.2552000  3
   3864   3862   3865   3868     1  0.0000000  0.6508444  3
   3864   3862   3865   3866     1  0.0000000  0.6508444  3
   3864   3862   3865   3867     1  0.0000000  0.6508444  3
   3864   3862   3871   3872     1  0.0000000  1.2552000  3
   3864   3862   3871   3873     1  0.0000000  1.2552000  3
   3865   3862   3871   3872     1  0.0000000  1.2552000  3
   3865   3862   3871   3873     1  0.0000000  1.2552000  3
   3866   3865   3862   3871     1  0.0000000  0.6508444  3
   3866   3865   3868   3874     1  0.0000000  1.0460000  1
   3866   3865   3868   3874     1  0.0000000  0.0000000  3
   3866   3865   3868   3869     1  0.0000000  0.6508444  3
   3866   3865   3868   3870     1  0.0000000  0.6508444  3
   3867   3865   3862   3871     1  0.0000000  0.6508444  3
   3867   3865   3868   3874     1  0.0000000  1.0460000  1
   3867   3865   3868   3874     1  0.0000000  0.0000000  3
   3867   3865   3868   3869     1  0.0000000  0.6508444  3
   3867   3865   3868   3870     1  0.0000000  0.6508444  3
   3875   3878   3881   3882     1  0.0000000  0.6508444  3
   3875   3878   3881   3883     1  0.0000000  0.6508444  3
   3876   3875   3878   3881     1  0.0000000  0.6508444  3
   3876   3875   3878   3879     1  0.0000000  0.6508444  3
   3876   3875   3878   3880     1  0.0000000  0.6508444  3
   3876   3875   3884   3885     1  0.0000000  1.2552000  3
   3876   3875   3884   3886     1  0.0000000  1.2552000  3
   3877   3875   3878   3881     1  0.0000000  0.6508444  3
   3877   3875   3878   3879     1  0.0000000  0.6508444  3
   3877   3875   3878   3880     1  0.0000000  0.6508444  3
   3877   3875   3884   3885     1  0.0000000  1.2552000  3
   3877   3875   3884   3886     1  0.0000000  1.2552000  3
   3878   3875   3884   3885     1  0.0000000  1.2552000  3
   3878   3875   3884   3886     1  0.0000000  1.2552000  3
   3879   3878   3881   3887     1  0.0000000  1.0460000  1
   3879   3878   3881   3887     1  0.0000000  0.0000000  3
   3879   3878   3881   3882     1  0.0000000  0.6508444  3
   3879   3878   3881   3883     1  0.0000000  0.6508444  3
   3879   3878   3875   3884     1  0.0000000  0.6508444  3
   3880   3878   3881   3887     1  0.0000000  1.0460000  1
   3880   3878   3881   3887     1  0.0000000  0.0000000  3
   3880   3878   3881   3882     1  0.0000000  0.6508444  3
   3880   3878   3881   3883     1  0.0000000  0.6508444  3
   3880   3878   3875   3884     1  0.0000000  0.6508444  3
   3888   3891   3894   3895     1  0.0000000  0.6508444  3
   3888   3891   3894   3896     1  0.0000000  0.6508444  3
   3889   3888   3891   3894     1  0.0000000  0.6508444  3
   3889   3888   3891   3892     1  0.0000000  0.6508444  3
   3889   3888   3891   3893     1  0.0000000  0.6508444  3
   3889   3888   3897   3898     1  0.0000000  1.2552000  3
   3889   3888   3897   3899     1  0.0000000  1.2552000  3
   3890   3888   3891   3894     1  0.0000000  0.6508444  3
   3890   3888   3891   3892     1  0.0000000  0.6508444  3
   3890   3888   3891   3893     1  0.0000000  0.6508444  3
   3890   3888   3897   3898     1  0.0000000  1.2552000  3
   3890   3888   3897   3899     1  0.0000000  1.2552000  3
   3891   3888   3897   3898     1  0.0000000  1.2552000  3
   3891   3888   3897   3899     1  0.0000000  1.2552000  3
   3892   3891   3888   3897     1  0.0000000  0.6508444  3
   3892   3891   3894   3900     1  0.0000000  1.0460000  1
   3892   3891   3894   3900     1  0.0000000  0.0000000  3
   3892   3891   3894   3895     1  0.0000000  0.6508444  3
   3892   3891   3894   3896     1  0.0000000  0.6508444  3
   3893   3891   3888   3897     1  0.0000000  0.6508444  3
   3893   3891   3894   3900     1  0.0000000  1.0460000  1
   3893   3891   3894   3900     1  0.0000000  0.0000000  3
   3893   3891   3894   3895     1  0.0000000  0.6508444  3
   3893   3891   3894   3896     1  0.0000000  0.6508444  3
   3901   3904   3907   3908     1  0.0000000  0.6508444  3
   3901   3904   3907   3909     1  0.0000000  0.6508444  3
   3902   3901   3904   3907     1  0.0000000  0.6508444  3
   3902   3901   3904   3905     1  0.0000000  0.6508444  3
   3902   3901   3904   3906     1  0.0000000  0.6508444  3
   3902   3901   3910   3911     1  0.0000000  1.2552000  3
   3902   3901   3910   3912     1  0.0000000  1.2552000  3
   3903   3901   3904   3907     1  0.0000000  0.6508444  3
   3903   3901   3904   3905     1  0.0000000  0.6508444  3
   3903   3901   3904   3906     1  0.0000000  0.6508444  3
   3903   3901   3910   3911     1  0.0000000  1.2552000  3
   3903   3901   3910   3912     1  0.0000000  1.2552000  3
   3904   3901   3910   3911     1  0.0000000  1.2552000  3
   3904   3901   3910   3912     1  0.0000000  1.2552000  3
   3905   3904   3907   3913     1  0.0000000  1.0460000  1
   3905   3904   3907   3913     1  0.0000000  0.0000000  3
   3905   3904   3907   3908     1  0.0000000  0.6508444  3
   3905   3904   3907   3909     1  0.0000000  0.6508444  3
   3905   3904   3901   3910     1  0.0000000  0.6508444  3
   3906   3904   3907   3913     1  0.0000000  1.0460000  1
   3906   3904   3907   3913     1  0.0000000  0.0000000  3
   3906   3904   3907   3908     1  0.0000000  0.6508444  3
   3906   3904   3907   3909     1  0.0000000  0.6508444  3
   3906   3904   3901   3910     1  0.0000000  0.6508444  3
   3914   3917   3920   3921     1  0.0000000  0.6508444  3
   3914   3917   3920   3922     1  0.0000000  0.6508444  3
   3915   3914   3917   3920     1  0.0000000  0.6508444  3
   3915   3914   3917   3918     1  0.0000000  0.6508444  3
   3915   3914   3917   3919     1  0.0000000  0.6508444  3
   3915   3914   3923   3924     1  0.0000000  1.2552000  3
   3915   3914   3923   3925     1  0.0000000  1.2552000  3
   3916   3914   3917   3920     1  0.0000000  0.6508444  3
   3916   3914   3917   3918     1  0.0000000  0.6508444  3
   3916   3914   3917   3919     1  0.0000000  0.6508444  3
   3916   3914   3923   3924     1  0.0000000  1.2552000  3
   3916   3914   3923   3925     1  0.0000000  1.2552000  3
   3917   3914   3923   3924     1  0.0000000  1.2552000  3
   3917   3914   3923   3925     1  0.0000000  1.2552000  3
   3918   3917   3914   3923     1  0.0000000  0.6508444  3
   3918   3917   3920   3926     1  0.0000000  1.0460000  1
   3918   3917   3920   3926     1  0.0000000  0.0000000  3
   3918   3917   3920   3921     1  0.0000000  0.6508444  3
   3918   3917   3920   3922     1  0.0000000  0.6508444  3
   3919   3917   3914   3923     1  0.0000000  0.6508444  3
   3919   3917   3920   3926     1  0.0000000  1.0460000  1
   3919   3917   3920   3926     1  0.0000000  0.0000000  3
   3919   3917   3920   3921     1  0.0000000  0.6508444  3
   3919   3917   3920   3922     1  0.0000000  0.6508444  3
   3927   3930   3933   3934     1  0.0000000  0.6508444  3
   3927   3930   3933   3935     1  0.0000000  0.6508444  3
   3928   3927   3930   3933     1  0.0000000  0.6508444  3
   3928   3927   3930   3931     1  0.0000000  0.6508444  3
   3928   3927   3930   3932     1  0.0000000  0.6508444  3
   3928   3927   3936   3937     1  0.0000000  1.2552000  3
   3928   3927   3936   3938     1  0.0000000  1.2552000  3
   3929   3927   3930   3933     1  0.0000000  0.6508444  3
   3929   3927   3930   3931     1  0.0000000  0.6508444  3
   3929   3927   3930   3932     1  0.0000000  0.6508444  3
   3929   3927   3936   3937     1  0.0000000  1.2552000  3
   3929   3927   3936   3938     1  0.0000000  1.2552000  3
   3930   3927   3936   3937     1  0.0000000  1.2552000  3
   3930   3927   3936   3938     1  0.0000000  1.2552000  3
   3931   3930   3933   3939     1  0.0000000  1.0460000  1
   3931   3930   3933   3939     1  0.0000000  0.0000000  3
   3931   3930   3933   3934     1  0.0000000  0.6508444  3
   3931   3930   3933   3935     1  0.0000000  0.6508444  3
   3931   3930   3927   3936     1  0.0000000  0.6508444  3
   3932   3930   3933   3939     1  0.0000000  1.0460000  1
   3932   3930   3933   3939     1  0.0000000  0.0000000  3
   3932   3930   3933   3934     1  0.0000000  0.6508444  3
   3932   3930   3933   3935     1  0.0000000  0.6508444  3
   3932   3930   3927   3936     1  0.0000000  0.6508444  3
   3940   3943   3946   3947     1  0.0000000  0.6508444  3
   3940   3943   3946   3948     1  0.0000000  0.6508444  3
   3941   3940   3943   3946     1  0.0000000  0.6508444  3
   3941   3940   3943   3944     1  0.0000000  0.6508444  3
   3941   3940   3943   3945     1  0.0000000  0.6508444  3
   3941   3940   3949   3950     1  0.0000000  1.2552000  3
   3941   3940   3949   3951     1  0.0000000  1.2552000  3
   3942   3940   3943   3946     1  0.0000000  0.6508444  3
   3942   3940   3943   3944     1  0.0000000  0.6508444  3
   3942   3940   3943   3945     1  0.0000000  0.6508444  3
   3942   3940   3949   3950     1  0.0000000  1.2552000  3
   3942   3940   3949   3951     1  0.0000000  1.2552000  3
   3943   3940   3949   3950     1  0.0000000  1.2552000  3
   3943   3940   3949   3951     1  0.0000000  1.2552000  3
   3944   3943   3940   3949     1  0.0000000  0.6508444  3
   3944   3943   3946   3952     1  0.0000000  1.0460000  1
   3944   3943   3946   3952     1  0.0000000  0.0000000  3
   3944   3943   3946   3947     1  0.0000000  0.6508444  3
   3944   3943   3946   3948     1  0.0000000  0.6508444  3
   3945   3943   3940   3949     1  0.0000000  0.6508444  3
   3945   3943   3946   3952     1  0.0000000  1.0460000  1
   3945   3943   3946   3952     1  0.0000000  0.0000000  3
   3945   3943   3946   3947     1  0.0000000  0.6508444  3
   3945   3943   3946   3948     1  0.0000000  0.6508444  3
   3953   3956   3959   3960     1  0.0000000  0.6508444  3
   3953   3956   3959   3961     1  0.0000000  0.6508444  3
   3954   3953   3956   3959     1  0.0000000  0.6508444  3
   3954   3953   3956   3957     1  0.0000000  0.6508444  3
   3954   3953   3956   3958     1  0.0000000  0.6508444  3
   3954   3953   3962   3963     1  0.0000000  1.2552000  3
   3954   3953   3962   3964     1  0.0000000  1.2552000  3
   3955   3953   3956   3959     1  0.0000000  0.6508444  3
   3955   3953   3956   3957     1  0.0000000  0.6508444  3
   3955   3953   3956   3958     1  0.0000000  0.6508444  3
   3955   3953   3962   3963     1  0.0000000  1.2552000  3
   3955   3953   3962   3964     1  0.0000000  1.2552000  3
   3956   3953   3962   3963     1  0.0000000  1.2552000  3
   3956   3953   3962   3964     1  0.0000000  1.2552000  3
   3957   3956   3959   3965     1  0.0000000  1.0460000  1
   3957   3956   3959   3965     1  0.0000000  0.0000000  3
   3957   3956   3959   3960     1  0.0000000  0.6508444  3
   3957   3956   3959   3961     1  0.0000000  0.6508444  3
   3957   3956   3953   3962     1  0.0000000  0.6508444  3
   3958   3956   3959   3965     1  0.0000000  1.0460000  1
   3958   3956   3959   3965     1  0.0000000  0.0000000  3
   3958   3956   3959   3960     1  0.0000000  0.6508444  3
   3958   3956   3959   3961     1  0.0000000  0.6508444  3
   3958   3956   3953   3962     1  0.0000000  0.6508444  3
   3966   3969   3972   3973     1  0.0000000  0.6508444  3
   3966   3969   3972   3974     1  0.0000000  0.6508444  3
   3967   3966   3969   3972     1  0.0000000  0.6508444  3
   3967   3966   3969   3970     1  0.0000000  0.6508444  3
   3967   3966   3969   3971     1  0.0000000  0.6508444  3
   3967   3966   3975   3976     1  0.0000000  1.2552000  3
   3967   3966   3975   3977     1  0.0000000  1.2552000  3
   3968   3966   3969   3972     1  0.0000000  0.6508444  3
   3968   3966   3969   3970     1  0.0000000  0.6508444  3
   3968   3966   3969   3971     1  0.0000000  0.6508444  3
   3968   3966   3975   3976     1  0.0000000  1.2552000  3
   3968   3966   3975   3977     1  0.0000000  1.2552000  3
   3969   3966   3975   3976     1  0.0000000  1.2552000  3
   3969   3966   3975   3977     1  0.0000000  1.2552000  3
   3970   3969   3966   3975     1  0.0000000  0.6508444  3
   3970   3969   3972   3978     1  0.0000000  1.0460000  1
   3970   3969   3972   3978     1  0.0000000  0.0000000  3
   3970   3969   3972   3973     1  0.0000000  0.6508444  3
   3970   3969   3972   3974     1  0.0000000  0.6508444  3
   3971   3969   3966   3975     1  0.0000000  0.6508444  3
   3971   3969   3972   3978     1  0.0000000  1.0460000  1
   3971   3969   3972   3978     1  0.0000000  0.0000000  3
   3971   3969   3972   3973     1  0.0000000  0.6508444  3
   3971   3969   3972   3974     1  0.0000000  0.6508444  3
   3979   3982   3985   3986     1  0.0000000  0.6508444  3
   3979   3982   3985   3987     1  0.0000000  0.6508444  3
   3980   3979   3982   3985     1  0.0000000  0.6508444  3
   3980   3979   3982   3983     1  0.0000000  0.6508444  3
   3980   3979   3982   3984     1  0.0000000  0.6508444  3
   3980   3979   3988   3989     1  0.0000000  1.2552000  3
   3980   3979   3988   3990     1  0.0000000  1.2552000  3
   3981   3979   3982   3985     1  0.0000000  0.6508444  3
   3981   3979   3982   3983     1  0.0000000  0.6508444  3
   3981   3979   3982   3984     1  0.0000000  0.6508444  3
   3981   3979   3988   3989     1  0.0000000  1.2552000  3
   3981   3979   3988   3990     1  0.0000000  1.2552000  3
   3982   3979   3988   3989     1  0.0000000  1.2552000  3
   3982   3979   3988   3990     1  0.0000000  1.2552000  3
   3983   3982   3985   3991     1  0.0000000  1.0460000  1
   3983   3982   3985   3991     1  0.0000000  0.0000000  3
   3983   3982   3985   3986     1  0.0000000  0.6508444  3
   3983   3982   3985   3987     1  0.0000000  0.6508444  3
   3983   3982   3979   3988     1  0.0000000  0.6508444  3
   3984   3982   3985   3991     1  0.0000000  1.0460000  1
   3984   3982   3985   3991     1  0.0000000  0.0000000  3
   3984   3982   3985   3986     1  0.0000000  0.6508444  3
   3984   3982   3985   3987     1  0.0000000  0.6508444  3
   3984   3982   3979   3988     1  0.0000000  0.6508444  3
   3992   3995   3998   3999     1  0.0000000  0.6508444  3
   3992   3995   3998   4000     1  0.0000000  0.6508444  3
   3993   3992   3995   3998     1  0.0000000  0.6508444  3
   3993   3992   3995   3996     1  0.0000000  0.6508444  3
   3993   3992   3995   3997     1  0.0000000  0.6508444  3
   3993   3992   4001   4002     1  0.0000000  1.2552000  3
   3993   3992   4001   4003     1  0.0000000  1.2552000  3
   3994   3992   3995   3998     1  0.0000000  0.6508444  3
   3994   3992   3995   3996     1  0.0000000  0.6508444  3
   3994   3992   3995   3997     1  0.0000000  0.6508444  3
   3994   3992   4001   4002     1  0.0000000  1.2552000  3
   3994   3992   4001   4003     1  0.0000000  1.2552000  3
   3995   3992   4001   4002     1  0.0000000  1.2552000  3
   3995   3992   4001   4003     1  0.0000000  1.2552000  3
   3996   3995   3992   4001     1  0.0000000  0.6508444  3
   3996   3995   3998   4004     1  0.0000000  1.0460000  1
   3996   3995   3998   4004     1  0.0000000  0.0000000  3
   3996   3995   3998   3999     1  0.0000000  0.6508444  3
   3996   3995   3998   4000     1  0.0000000  0.6508444  3
   3997   3995   3992   4001     1  0.0000000  0.6508444  3
   3997   3995   3998   4004     1  0.0000000  1.0460000  1
   3997   3995   3998   4004     1  0.0000000  0.0000000  3
   3997   3995   3998   3999     1  0.0000000  0.6508444  3
   3997   3995   3998   4000     1  0.0000000  0.6508444  3
   4005   4008   4011   4012     1  0.0000000  0.6508444  3
   4005   4008   4011   4013     1  0.0000000  0.6508444  3
   4006   4005   4008   4011     1  0.0000000  0.6508444  3
   4006   4005   4008   4009     1  0.0000000  0.6508444  3
   4006   4005   4008   4010     1  0.0000000  0.6508444  3
   4006   4005   4014   4015     1  0.0000000  1.2552000  3
   4006   4005   4014   4016     1  0.0000000  1.2552000  3
   4007   4005   4008   4011     1  0.0000000  0.6508444  3
   4007   4005   4008   4009     1  0.0000000  0.6508444  3
   4007   4005   4008   4010     1  0.0000000  0.6508444  3
   4007   4005   4014   4015     1  0.0000000  1.2552000  3
   4007   4005   4014   4016     1  0.0000000  1.2552000  3
   4008   4005   4014   4015     1  0.0000000  1.2552000  3
   4008   4005   4014   4016     1  0.0000000  1.2552000  3
   4009   4008   4011   4017     1  0.0000000  1.0460000  1
   4009   4008   4011   4017     1  0.0000000  0.0000000  3
   4009   4008   4011   4012     1  0.0000000  0.6508444  3
   4009   4008   4011   4013     1  0.0000000  0.6508444  3
   4009   4008   4005   4014     1  0.0000000  0.6508444  3
   4010   4008   4011   4017     1  0.0000000  1.0460000  1
   4010   4008   4011   4017     1  0.0000000  0.0000000  3
   4010   4008   4011   4012     1  0.0000000  0.6508444  3
   4010   4008   4011   4013     1  0.0000000  0.6508444  3
   4010   4008   4005   4014     1  0.0000000  0.6508444  3
   4018   4021   4024   4025     1  0.0000000  0.6508444  3
   4018   4021   4024   4026     1  0.0000000  0.6508444  3
   4019   4018   4021   4024     1  0.0000000  0.6508444  3
   4019   4018   4021   4022     1  0.0000000  0.6508444  3
   4019   4018   4021   4023     1  0.0000000  0.6508444  3
   4019   4018   4027   4028     1  0.0000000  1.2552000  3
   4019   4018   4027   4029     1  0.0000000  1.2552000  3
   4020   4018   4021   4024     1  0.0000000  0.6508444  3
   4020   4018   4021   4022     1  0.0000000  0.6508444  3
   4020   4018   4021   4023     1  0.0000000  0.6508444  3
   4020   4018   4027   4028     1  0.0000000  1.2552000  3
   4020   4018   4027   4029     1  0.0000000  1.2552000  3
   4021   4018   4027   4028     1  0.0000000  1.2552000  3
   4021   4018   4027   4029     1  0.0000000  1.2552000  3
   4022   4021   4018   4027     1  0.0000000  0.6508444  3
   4022   4021   4024   4030     1  0.0000000  1.0460000  1
   4022   4021   4024   4030     1  0.0000000  0.0000000  3
   4022   4021   4024   4025     1  0.0000000  0.6508444  3
   4022   4021   4024   4026     1  0.0000000  0.6508444  3
   4023   4021   4018   4027     1  0.0000000  0.6508444  3
   4023   4021   4024   4030     1  0.0000000  1.0460000  1
   4023   4021   4024   4030     1  0.0000000  0.0000000  3
   4023   4021   4024   4025     1  0.0000000  0.6508444  3
   4023   4021   4024   4026     1  0.0000000  0.6508444  3
   4031   4034   4037   4038     1  0.0000000  0.6508444  3
   4031   4034   4037   4039     1  0.0000000  0.6508444  3
   4032   4031   4034   4037     1  0.0000000  0.6508444  3
   4032   4031   4034   4035     1  0.0000000  0.6508444  3
   4032   4031   4034   4036     1  0.0000000  0.6508444  3
   4032   4031   4040   4041     1  0.0000000  1.2552000  3
   4032   4031   4040   4042     1  0.0000000  1.2552000  3
   4033   4031   4034   4037     1  0.0000000  0.6508444  3
   4033   4031   4034   4035     1  0.0000000  0.6508444  3
   4033   4031   4034   4036     1  0.0000000  0.6508444  3
   4033   4031   4040   4041     1  0.0000000  1.2552000  3
   4033   4031   4040   4042     1  0.0000000  1.2552000  3
   4034   4031   4040   4041     1  0.0000000  1.2552000  3
   4034   4031   4040   4042     1  0.0000000  1.2552000  3
   4035   4034   4037   4043     1  0.0000000  1.0460000  1
   4035   4034   4037   4043     1  0.0000000  0.0000000  3
   4035   4034   4037   4038     1  0.0000000  0.6508444  3
   4035   4034   4037   4039     1  0.0000000  0.6508444  3
   4035   4034   4031   4040     1  0.0000000  0.6508444  3
   4036   4034   4037   4043     1  0.0000000  1.0460000  1
   4036   4034   4037   4043     1  0.0000000  0.0000000  3
   4036   4034   4037   4038     1  0.0000000  0.6508444  3
   4036   4034   4037   4039     1  0.0000000  0.6508444  3
   4036   4034   4031   4040     1  0.0000000  0.6508444  3
   4044   4047   4050   4051     1  0.0000000  0.6508444  3
   4044   4047   4050   4052     1  0.0000000  0.6508444  3
   4045   4044   4047   4050     1  0.0000000  0.6508444  3
   4045   4044   4047   4048     1  0.0000000  0.6508444  3
   4045   4044   4047   4049     1  0.0000000  0.6508444  3
   4045   4044   4053   4054     1  0.0000000  1.2552000  3
   4045   4044   4053   4055     1  0.0000000  1.2552000  3
   4046   4044   4047   4050     1  0.0000000  0.6508444  3
   4046   4044   4047   4048     1  0.0000000  0.6508444  3
   4046   4044   4047   4049     1  0.0000000  0.6508444  3
   4046   4044   4053   4054     1  0.0000000  1.2552000  3
   4046   4044   4053   4055     1  0.0000000  1.2552000  3
   4047   4044   4053   4054     1  0.0000000  1.2552000  3
   4047   4044   4053   4055     1  0.0000000  1.2552000  3
   4048   4047   4044   4053     1  0.0000000  0.6508444  3
   4048   4047   4050   4056     1  0.0000000  1.0460000  1
   4048   4047   4050   4056     1  0.0000000  0.0000000  3
   4048   4047   4050   4051     1  0.0000000  0.6508444  3
   4048   4047   4050   4052     1  0.0000000  0.6508444  3
   4049   4047   4044   4053     1  0.0000000  0.6508444  3
   4049   4047   4050   4056     1  0.0000000  1.0460000  1
   4049   4047   4050   4056     1  0.0000000  0.0000000  3
   4049   4047   4050   4051     1  0.0000000  0.6508444  3
   4049   4047   4050   4052     1  0.0000000  0.6508444  3
   4057   4060   4063   4064     1  0.0000000  0.6508444  3
   4057   4060   4063   4065     1  0.0000000  0.6508444  3
   4058   4057   4060   4063     1  0.0000000  0.6508444  3
   4058   4057   4060   4061     1  0.0000000  0.6508444  3
   4058   4057   4060   4062     1  0.0000000  0.6508444  3
   4058   4057   4066   4067     1  0.0000000  1.2552000  3
   4058   4057   4066   4068     1  0.0000000  1.2552000  3
   4059   4057   4060   4063     1  0.0000000  0.6508444  3
   4059   4057   4060   4061     1  0.0000000  0.6508444  3
   4059   4057   4060   4062     1  0.0000000  0.6508444  3
   4059   4057   4066   4067     1  0.0000000  1.2552000  3
   4059   4057   4066   4068     1  0.0000000  1.2552000  3
   4060   4057   4066   4067     1  0.0000000  1.2552000  3
   4060   4057   4066   4068     1  0.0000000  1.2552000  3
   4061   4060   4063   4069     1  0.0000000  1.0460000  1
   4061   4060   4063   4069     1  0.0000000  0.0000000  3
   4061   4060   4063   4064     1  0.0000000  0.6508444  3
   4061   4060   4063   4065     1  0.0000000  0.6508444  3
   4061   4060   4057   4066     1  0.0000000  0.6508444  3
   4062   4060   4063   4069     1  0.0000000  1.0460000  1
   4062   4060   4063   4069     1  0.0000000  0.0000000  3
   4062   4060   4063   4064     1  0.0000000  0.6508444  3
   4062   4060   4063   4065     1  0.0000000  0.6508444  3
   4062   4060   4057   4066     1  0.0000000  0.6508444  3
   4070   4073   4076   4077     1  0.0000000  0.6508444  3
   4070   4073   4076   4078     1  0.0000000  0.6508444  3
   4071   4070   4073   4076     1  0.0000000  0.6508444  3
   4071   4070   4073   4074     1  0.0000000  0.6508444  3
   4071   4070   4073   4075     1  0.0000000  0.6508444  3
   4071   4070   4079   4080     1  0.0000000  1.2552000  3
   4071   4070   4079   4081     1  0.0000000  1.2552000  3
   4072   4070   4073   4076     1  0.0000000  0.6508444  3
   4072   4070   4073   4074     1  0.0000000  0.6508444  3
   4072   4070   4073   4075     1  0.0000000  0.6508444  3
   4072   4070   4079   4080     1  0.0000000  1.2552000  3
   4072   4070   4079   4081     1  0.0000000  1.2552000  3
   4073   4070   4079   4080     1  0.0000000  1.2552000  3
   4073   4070   4079   4081     1  0.0000000  1.2552000  3
   4074   4073   4070   4079     1  0.0000000  0.6508444  3
   4074   4073   4076   4082     1  0.0000000  1.0460000  1
   4074   4073   4076   4082     1  0.0000000  0.0000000  3
   4074   4073   4076   4077     1  0.0000000  0.6508444  3
   4074   4073   4076   4078     1  0.0000000  0.6508444  3
   4075   4073   4070   4079     1  0.0000000  0.6508444  3
   4075   4073   4076   4082     1  0.0000000  1.0460000  1
   4075   4073   4076   4082     1  0.0000000  0.0000000  3
   4075   4073   4076   4077     1  0.0000000  0.6508444  3
   4075   4073   4076   4078     1  0.0000000  0.6508444  3
   4083   4086   4089   4090     1  0.0000000  0.6508444  3
   4083   4086   4089   4091     1  0.0000000  0.6508444  3
   4084   4083   4086   4089     1  0.0000000  0.6508444  3
   4084   4083   4086   4087     1  0.0000000  0.6508444  3
   4084   4083   4086   4088     1  0.0000000  0.6508444  3
   4084   4083   4092   4093     1  0.0000000  1.2552000  3
   4084   4083   4092   4094     1  0.0000000  1.2552000  3
   4085   4083   4086   4089     1  0.0000000  0.6508444  3
   4085   4083   4086   4087     1  0.0000000  0.6508444  3
   4085   4083   4086   4088     1  0.0000000  0.6508444  3
   4085   4083   4092   4093     1  0.0000000  1.2552000  3
   4085   4083   4092   4094     1  0.0000000  1.2552000  3
   4086   4083   4092   4093     1  0.0000000  1.2552000  3
   4086   4083   4092   4094     1  0.0000000  1.2552000  3
   4087   4086   4089   4095     1  0.0000000  1.0460000  1
   4087   4086   4089   4095     1  0.0000000  0.0000000  3
   4087   4086   4089   4090     1  0.0000000  0.6508444  3
   4087   4086   4089   4091     1  0.0000000  0.6508444  3
   4087   4086   4083   4092     1  0.0000000  0.6508444  3
   4088   4086   4089   4095     1  0.0000000  1.0460000  1
   4088   4086   4089   4095     1  0.0000000  0.0000000  3
   4088   4086   4089   4090     1  0.0000000  0.6508444  3
   4088   4086   4089   4091     1  0.0000000  0.6508444  3
   4088   4086   4083   4092     1  0.0000000  0.6508444  3
   4096   4099   4102   4103     1  0.0000000  0.6508444  3
   4096   4099   4102   4104     1  0.0000000  0.6508444  3
   4097   4096   4099   4102     1  0.0000000  0.6508444  3
   4097   4096   4099   4100     1  0.0000000  0.6508444  3
   4097   4096   4099   4101     1  0.0000000  0.6508444  3
   4097   4096   4105   4106     1  0.0000000  1.2552000  3
   4097   4096   4105   4107     1  0.0000000  1.2552000  3
   4098   4096   4099   4102     1  0.0000000  0.6508444  3
   4098   4096   4099   4100     1  0.0000000  0.6508444  3
   4098   4096   4099   4101     1  0.0000000  0.6508444  3
   4098   4096   4105   4106     1  0.0000000  1.2552000  3
   4098   4096   4105   4107     1  0.0000000  1.2552000  3
   4099   4096   4105   4106     1  0.0000000  1.2552000  3
   4099   4096   4105   4107     1  0.0000000  1.2552000  3
   4100   4099   4096   4105     1  0.0000000  0.6508444  3
   4100   4099   4102   4108     1  0.0000000  1.0460000  1
   4100   4099   4102   4108     1  0.0000000  0.0000000  3
   4100   4099   4102   4103     1  0.0000000  0.6508444  3
   4100   4099   4102   4104     1  0.0000000  0.6508444  3
   4101   4099   4096   4105     1  0.0000000  0.6508444  3
   4101   4099   4102   4108     1  0.0000000  1.0460000  1
   4101   4099   4102   4108     1  0.0000000  0.0000000  3
   4101   4099   4102   4103     1  0.0000000  0.6508444  3
   4101   4099   4102   4104     1  0.0000000  0.6508444  3
   4109   4112   4115   4116     1  0.0000000  0.6508444  3
   4109   4112   4115   4117     1  0.0000000  0.6508444  3
   4110   4109   4112   4115     1  0.0000000  0.6508444  3
   4110   4109   4112   4113     1  0.0000000  0.6508444  3
   4110   4109   4112   4114     1  0.0000000  0.6508444  3
   4110   4109   4118   4119     1  0.0000000  1.2552000  3
   4110   4109   4118   4120     1  0.0000000  1.2552000  3
   4111   4109   4112   4115     1  0.0000000  0.6508444  3
   4111   4109   4112   4113     1  0.0000000  0.6508444  3
   4111   4109   4112   4114     1  0.0000000  0.6508444  3
   4111   4109   4118   4119     1  0.0000000  1.2552000  3
   4111   4109   4118   4120     1  0.0000000  1.2552000  3
   4112   4109   4118   4119     1  0.0000000  1.2552000  3
   4112   4109   4118   4120     1  0.0000000  1.2552000  3
   4113   4112   4115   4121     1  0.0000000  1.0460000  1
   4113   4112   4115   4121     1  0.0000000  0.0000000  3
   4113   4112   4115   4116     1  0.0000000  0.6508444  3
   4113   4112   4115   4117     1  0.0000000  0.6508444  3
   4113   4112   4109   4118     1  0.0000000  0.6508444  3
   4114   4112   4115   4121     1  0.0000000  1.0460000  1
   4114   4112   4115   4121     1  0.0000000  0.0000000  3
   4114   4112   4115   4116     1  0.0000000  0.6508444  3
   4114   4112   4115   4117     1  0.0000000  0.6508444  3
   4114   4112   4109   4118     1  0.0000000  0.6508444  3
   4122   4125   4128   4129     1  0.0000000  0.6508444  3
   4122   4125   4128   4130     1  0.0000000  0.6508444  3
   4123   4122   4125   4128     1  0.0000000  0.6508444  3
   4123   4122   4125   4126     1  0.0000000  0.6508444  3
   4123   4122   4125   4127     1  0.0000000  0.6508444  3
   4123   4122   4131   4132     1  0.0000000  1.2552000  3
   4123   4122   4131   4133     1  0.0000000  1.2552000  3
   4124   4122   4125   4128     1  0.0000000  0.6508444  3
   4124   4122   4125   4126     1  0.0000000  0.6508444  3
   4124   4122   4125   4127     1  0.0000000  0.6508444  3
   4124   4122   4131   4132     1  0.0000000  1.2552000  3
   4124   4122   4131   4133     1  0.0000000  1.2552000  3
   4125   4122   4131   4132     1  0.0000000  1.2552000  3
   4125   4122   4131   4133     1  0.0000000  1.2552000  3
   4126   4125   4122   4131     1  0.0000000  0.6508444  3
   4126   4125   4128   4134     1  0.0000000  1.0460000  1
   4126   4125   4128   4134     1  0.0000000  0.0000000  3
   4126   4125   4128   4129     1  0.0000000  0.6508444  3
   4126   4125   4128   4130     1  0.0000000  0.6508444  3
   4127   4125   4122   4131     1  0.0000000  0.6508444  3
   4127   4125   4128   4134     1  0.0000000  1.0460000  1
   4127   4125   4128   4134     1  0.0000000  0.0000000  3
   4127   4125   4128   4129     1  0.0000000  0.6508444  3
   4127   4125   4128   4130     1  0.0000000  0.6508444  3
   4135   4138   4141   4142     1  0.0000000  0.6508444  3
   4135   4138   4141   4143     1  0.0000000  0.6508444  3
   4136   4135   4138   4141     1  0.0000000  0.6508444  3
   4136   4135   4138   4139     1  0.0000000  0.6508444  3
   4136   4135   4138   4140     1  0.0000000  0.6508444  3
   4136   4135   4144   4145     1  0.0000000  1.2552000  3
   4136   4135   4144   4146     1  0.0000000  1.2552000  3
   4137   4135   4138   4141     1  0.0000000  0.6508444  3
   4137   4135   4138   4139     1  0.0000000  0.6508444  3
   4137   4135   4138   4140     1  0.0000000  0.6508444  3
   4137   4135   4144   4145     1  0.0000000  1.2552000  3
   4137   4135   4144   4146     1  0.0000000  1.2552000  3
   4138   4135   4144   4145     1  0.0000000  1.2552000  3
   4138   4135   4144   4146     1  0.0000000  1.2552000  3
   4139   4138   4141   4147     1  0.0000000  1.0460000  1
   4139   4138   4141   4147     1  0.0000000  0.0000000  3
   4139   4138   4141   4142     1  0.0000000  0.6508444  3
   4139   4138   4141   4143     1  0.0000000  0.6508444  3
   4139   4138   4135   4144     1  0.0000000  0.6508444  3
   4140   4138   4141   4147     1  0.0000000  1.0460000  1
   4140   4138   4141   4147     1  0.0000000  0.0000000  3
   4140   4138   4141   4142     1  0.0000000  0.6508444  3
   4140   4138   4141   4143     1  0.0000000  0.6508444  3
   4140   4138   4135   4144     1  0.0000000  0.6508444  3
   4148   4151   4154   4155     1  0.0000000  0.6508444  3
   4148   4151   4154   4156     1  0.0000000  0.6508444  3
   4149   4148   4151   4154     1  0.0000000  0.6508444  3
   4149   4148   4151   4152     1  0.0000000  0.6508444  3
   4149   4148   4151   4153     1  0.0000000  0.6508444  3
   4149   4148   4157   4158     1  0.0000000  1.2552000  3
   4149   4148   4157   4159     1  0.0000000  1.2552000  3
   4150   4148   4151   4154     1  0.0000000  0.6508444  3
   4150   4148   4151   4152     1  0.0000000  0.6508444  3
   4150   4148   4151   4153     1  0.0000000  0.6508444  3
   4150   4148   4157   4158     1  0.0000000  1.2552000  3
   4150   4148   4157   4159     1  0.0000000  1.2552000  3
   4151   4148   4157   4158     1  0.0000000  1.2552000  3
   4151   4148   4157   4159     1  0.0000000  1.2552000  3
   4152   4151   4148   4157     1  0.0000000  0.6508444  3
   4152   4151   4154   4160     1  0.0000000  1.0460000  1
   4152   4151   4154   4160     1  0.0000000  0.0000000  3
   4152   4151   4154   4155     1  0.0000000  0.6508444  3
   4152   4151   4154   4156     1  0.0000000  0.6508444  3
   4153   4151   4148   4157     1  0.0000000  0.6508444  3
   4153   4151   4154   4160     1  0.0000000  1.0460000  1
   4153   4151   4154   4160     1  0.0000000  0.0000000  3
   4153   4151   4154   4155     1  0.0000000  0.6508444  3
   4153   4151   4154   4156     1  0.0000000  0.6508444  3
   4161   4164   4167   4168     1  0.0000000  0.6508444  3
   4161   4164   4167   4169     1  0.0000000  0.6508444  3
   4162   4161   4164   4167     1  0.0000000  0.6508444  3
   4162   4161   4164   4165     1  0.0000000  0.6508444  3
   4162   4161   4164   4166     1  0.0000000  0.6508444  3
   4162   4161   4170   4171     1  0.0000000  1.2552000  3
   4162   4161   4170   4172     1  0.0000000  1.2552000  3
   4163   4161   4164   4167     1  0.0000000  0.6508444  3
   4163   4161   4164   4165     1  0.0000000  0.6508444  3
   4163   4161   4164   4166     1  0.0000000  0.6508444  3
   4163   4161   4170   4171     1  0.0000000  1.2552000  3
   4163   4161   4170   4172     1  0.0000000  1.2552000  3
   4164   4161   4170   4171     1  0.0000000  1.2552000  3
   4164   4161   4170   4172     1  0.0000000  1.2552000  3
   4165   4164   4167   4173     1  0.0000000  1.0460000  1
   4165   4164   4167   4173     1  0.0000000  0.0000000  3
   4165   4164   4167   4168     1  0.0000000  0.6508444  3
   4165   4164   4167   4169     1  0.0000000  0.6508444  3
   4165   4164   4161   4170     1  0.0000000  0.6508444  3
   4166   4164   4167   4173     1  0.0000000  1.0460000  1
   4166   4164   4167   4173     1  0.0000000  0.0000000  3
   4166   4164   4167   4168     1  0.0000000  0.6508444  3
   4166   4164   4167   4169     1  0.0000000  0.6508444  3
   4166   4164   4161   4170     1  0.0000000  0.6508444  3
   4174   4177   4180   4181     1  0.0000000  0.6508444  3
   4174   4177   4180   4182     1  0.0000000  0.6508444  3
   4175   4174   4177   4180     1  0.0000000  0.6508444  3
   4175   4174   4177   4178     1  0.0000000  0.6508444  3
   4175   4174   4177   4179     1  0.0000000  0.6508444  3
   4175   4174   4183   4184     1  0.0000000  1.2552000  3
   4175   4174   4183   4185     1  0.0000000  1.2552000  3
   4176   4174   4177   4180     1  0.0000000  0.6508444  3
   4176   4174   4177   4178     1  0.0000000  0.6508444  3
   4176   4174   4177   4179     1  0.0000000  0.6508444  3
   4176   4174   4183   4184     1  0.0000000  1.2552000  3
   4176   4174   4183   4185     1  0.0000000  1.2552000  3
   4177   4174   4183   4184     1  0.0000000  1.2552000  3
   4177   4174   4183   4185     1  0.0000000  1.2552000  3
   4178   4177   4174   4183     1  0.0000000  0.6508444  3
   4178   4177   4180   4186     1  0.0000000  1.0460000  1
   4178   4177   4180   4186     1  0.0000000  0.0000000  3
   4178   4177   4180   4181     1  0.0000000  0.6508444  3
   4178   4177   4180   4182     1  0.0000000  0.6508444  3
   4179   4177   4174   4183     1  0.0000000  0.6508444  3
   4179   4177   4180   4186     1  0.0000000  1.0460000  1
   4179   4177   4180   4186     1  0.0000000  0.0000000  3
   4179   4177   4180   4181     1  0.0000000  0.6508444  3
   4179   4177   4180   4182     1  0.0000000  0.6508444  3
   4187   4190   4193   4194     1  0.0000000  0.6508444  3
   4187   4190   4193   4195     1  0.0000000  0.6508444  3
   4188   4187   4190   4193     1  0.0000000  0.6508444  3
   4188   4187   4190   4191     1  0.0000000  0.6508444  3
   4188   4187   4190   4192     1  0.0000000  0.6508444  3
   4188   4187   4196   4197     1  0.0000000  1.2552000  3
   4188   4187   4196   4198     1  0.0000000  1.2552000  3
   4189   4187   4190   4193     1  0.0000000  0.6508444  3
   4189   4187   4190   4191     1  0.0000000  0.6508444  3
   4189   4187   4190   4192     1  0.0000000  0.6508444  3
   4189   4187   4196   4197     1  0.0000000  1.2552000  3
   4189   4187   4196   4198     1  0.0000000  1.2552000  3
   4190   4187   4196   4197     1  0.0000000  1.2552000  3
   4190   4187   4196   4198     1  0.0000000  1.2552000  3
   4191   4190   4193   4199     1  0.0000000  1.0460000  1
   4191   4190   4193   4199     1  0.0000000  0.0000000  3
   4191   4190   4193   4194     1  0.0000000  0.6508444  3
   4191   4190   4193   4195     1  0.0000000  0.6508444  3
   4191   4190   4187   4196     1  0.0000000  0.6508444  3
   4192   4190   4193   4199     1  0.0000000  1.0460000  1
   4192   4190   4193   4199     1  0.0000000  0.0000000  3
   4192   4190   4193   4194     1  0.0000000  0.6508444  3
   4192   4190   4193   4195     1  0.0000000  0.6508444  3
   4192   4190   4187   4196     1  0.0000000  0.6508444  3
   4200   4203   4206   4207     1  0.0000000  0.6508444  3
   4200   4203   4206   4208     1  0.0000000  0.6508444  3
   4201   4200   4203   4206     1  0.0000000  0.6508444  3
   4201   4200   4203   4204     1  0.0000000  0.6508444  3
   4201   4200   4203   4205     1  0.0000000  0.6508444  3
   4201   4200   4209   4210     1  0.0000000  1.2552000  3
   4201   4200   4209   4211     1  0.0000000  1.2552000  3
   4202   4200   4203   4206     1  0.0000000  0.6508444  3
   4202   4200   4203   4204     1  0.0000000  0.6508444  3
   4202   4200   4203   4205     1  0.0000000  0.6508444  3
   4202   4200   4209   4210     1  0.0000000  1.2552000  3
   4202   4200   4209   4211     1  0.0000000  1.2552000  3
   4203   4200   4209   4210     1  0.0000000  1.2552000  3
   4203   4200   4209   4211     1  0.0000000  1.2552000  3
   4204   4203   4200   4209     1  0.0000000  0.6508444  3
   4204   4203   4206   4212     1  0.0000000  1.0460000  1
   4204   4203   4206   4212     1  0.0000000  0.0000000  3
   4204   4203   4206   4207     1  0.0000000  0.6508444  3
   4204   4203   4206   4208     1  0.0000000  0.6508444  3
   4205   4203   4200   4209     1  0.0000000  0.6508444  3
   4205   4203   4206   4212     1  0.0000000  1.0460000  1
   4205   4203   4206   4212     1  0.0000000  0.0000000  3
   4205   4203   4206   4207     1  0.0000000  0.6508444  3
   4205   4203   4206   4208     1  0.0000000  0.6508444  3
   4213   4216   4219   4220     1  0.0000000  0.6508444  3
   4213   4216   4219   4221     1  0.0000000  0.6508444  3
   4214   4213   4216   4219     1  0.0000000  0.6508444  3
   4214   4213   4216   4217     1  0.0000000  0.6508444  3
   4214   4213   4216   4218     1  0.0000000  0.6508444  3
   4214   4213   4222   4223     1  0.0000000  1.2552000  3
   4214   4213   4222   4224     1  0.0000000  1.2552000  3
   4215   4213   4216   4219     1  0.0000000  0.6508444  3
   4215   4213   4216   4217     1  0.0000000  0.6508444  3
   4215   4213   4216   4218     1  0.0000000  0.6508444  3
   4215   4213   4222   4223     1  0.0000000  1.2552000  3
   4215   4213   4222   4224     1  0.0000000  1.2552000  3
   4216   4213   4222   4223     1  0.0000000  1.2552000  3
   4216   4213   4222   4224     1  0.0000000  1.2552000  3
   4217   4216   4219   4225     1  0.0000000  1.0460000  1
   4217   4216   4219   4225     1  0.0000000  0.0000000  3
   4217   4216   4219   4220     1  0.0000000  0.6508444  3
   4217   4216   4219   4221     1  0.0000000  0.6508444  3
   4217   4216   4213   4222     1  0.0000000  0.6508444  3
   4218   4216   4219   4225     1  0.0000000  1.0460000  1
   4218   4216   4219   4225     1  0.0000000  0.0000000  3
   4218   4216   4219   4220     1  0.0000000  0.6508444  3
   4218   4216   4219   4221     1  0.0000000  0.6508444  3
   4218   4216   4213   4222     1  0.0000000  0.6508444  3
   4226   4229   4232   4233     1  0.0000000  0.6508444  3
   4226   4229   4232   4234     1  0.0000000  0.6508444  3
   4227   4226   4229   4232     1  0.0000000  0.6508444  3
   4227   4226   4229   4230     1  0.0000000  0.6508444  3
   4227   4226   4229   4231     1  0.0000000  0.6508444  3
   4227   4226   4235   4236     1  0.0000000  1.2552000  3
   4227   4226   4235   4237     1  0.0000000  1.2552000  3
   4228   4226   4229   4232     1  0.0000000  0.6508444  3
   4228   4226   4229   4230     1  0.0000000  0.6508444  3
   4228   4226   4229   4231     1  0.0000000  0.6508444  3
   4228   4226   4235   4236     1  0.0000000  1.2552000  3
   4228   4226   4235   4237     1  0.0000000  1.2552000  3
   4229   4226   4235   4236     1  0.0000000  1.2552000  3
   4229   4226   4235   4237     1  0.0000000  1.2552000  3
   4230   4229   4226   4235     1  0.0000000  0.6508444  3
   4230   4229   4232   4238     1  0.0000000  1.0460000  1
   4230   4229   4232   4238     1  0.0000000  0.0000000  3
   4230   4229   4232   4233     1  0.0000000  0.6508444  3
   4230   4229   4232   4234     1  0.0000000  0.6508444  3
   4231   4229   4226   4235     1  0.0000000  0.6508444  3
   4231   4229   4232   4238     1  0.0000000  1.0460000  1
   4231   4229   4232   4238     1  0.0000000  0.0000000  3
   4231   4229   4232   4233     1  0.0000000  0.6508444  3
   4231   4229   4232   4234     1  0.0000000  0.6508444  3
   4239   4242   4245   4246     1  0.0000000  0.6508444  3
   4239   4242   4245   4247     1  0.0000000  0.6508444  3
   4240   4239   4242   4245     1  0.0000000  0.6508444  3
   4240   4239   4242   4243     1  0.0000000  0.6508444  3
   4240   4239   4242   4244     1  0.0000000  0.6508444  3
   4240   4239   4248   4249     1  0.0000000  1.2552000  3
   4240   4239   4248   4250     1  0.0000000  1.2552000  3
   4241   4239   4242   4245     1  0.0000000  0.6508444  3
   4241   4239   4242   4243     1  0.0000000  0.6508444  3
   4241   4239   4242   4244     1  0.0000000  0.6508444  3
   4241   4239   4248   4249     1  0.0000000  1.2552000  3
   4241   4239   4248   4250     1  0.0000000  1.2552000  3
   4242   4239   4248   4249     1  0.0000000  1.2552000  3
   4242   4239   4248   4250     1  0.0000000  1.2552000  3
   4243   4242   4245   4251     1  0.0000000  1.0460000  1
   4243   4242   4245   4251     1  0.0000000  0.0000000  3
   4243   4242   4245   4246     1  0.0000000  0.6508444  3
   4243   4242   4245   4247     1  0.0000000  0.6508444  3
   4243   4242   4239   4248     1  0.0000000  0.6508444  3
   4244   4242   4245   4251     1  0.0000000  1.0460000  1
   4244   4242   4245   4251     1  0.0000000  0.0000000  3
   4244   4242   4245   4246     1  0.0000000  0.6508444  3
   4244   4242   4245   4247     1  0.0000000  0.6508444  3
   4244   4242   4239   4248     1  0.0000000  0.6508444  3
   4252   4255   4258   4259     1  0.0000000  0.6508444  3
   4252   4255   4258   4260     1  0.0000000  0.6508444  3
   4253   4252   4255   4258     1  0.0000000  0.6508444  3
   4253   4252   4255   4256     1  0.0000000  0.6508444  3
   4253   4252   4255   4257     1  0.0000000  0.6508444  3
   4253   4252   4261   4262     1  0.0000000  1.2552000  3
   4253   4252   4261   4263     1  0.0000000  1.2552000  3
   4254   4252   4255   4258     1  0.0000000  0.6508444  3
   4254   4252   4255   4256     1  0.0000000  0.6508444  3
   4254   4252   4255   4257     1  0.0000000  0.6508444  3
   4254   4252   4261   4262     1  0.0000000  1.2552000  3
   4254   4252   4261   4263     1  0.0000000  1.2552000  3
   4255   4252   4261   4262     1  0.0000000  1.2552000  3
   4255   4252   4261   4263     1  0.0000000  1.2552000  3
   4256   4255   4252   4261     1  0.0000000  0.6508444  3
   4256   4255   4258   4264     1  0.0000000  1.0460000  1
   4256   4255   4258   4264     1  0.0000000  0.0000000  3
   4256   4255   4258   4259     1  0.0000000  0.6508444  3
   4256   4255   4258   4260     1  0.0000000  0.6508444  3
   4257   4255   4252   4261     1  0.0000000  0.6508444  3
   4257   4255   4258   4264     1  0.0000000  1.0460000  1
   4257   4255   4258   4264     1  0.0000000  0.0000000  3
   4257   4255   4258   4259     1  0.0000000  0.6508444  3
   4257   4255   4258   4260     1  0.0000000  0.6508444  3
   4265   4268   4271   4272     1  0.0000000  0.6508444  3
   4265   4268   4271   4273     1  0.0000000  0.6508444  3
   4266   4265   4268   4271     1  0.0000000  0.6508444  3
   4266   4265   4268   4269     1  0.0000000  0.6508444  3
   4266   4265   4268   4270     1  0.0000000  0.6508444  3
   4266   4265   4274   4275     1  0.0000000  1.2552000  3
   4266   4265   4274   4276     1  0.0000000  1.2552000  3
   4267   4265   4268   4271     1  0.0000000  0.6508444  3
   4267   4265   4268   4269     1  0.0000000  0.6508444  3
   4267   4265   4268   4270     1  0.0000000  0.6508444  3
   4267   4265   4274   4275     1  0.0000000  1.2552000  3
   4267   4265   4274   4276     1  0.0000000  1.2552000  3
   4268   4265   4274   4275     1  0.0000000  1.2552000  3
   4268   4265   4274   4276     1  0.0000000  1.2552000  3
   4269   4268   4271   4277     1  0.0000000  1.0460000  1
   4269   4268   4271   4277     1  0.0000000  0.0000000  3
   4269   4268   4271   4272     1  0.0000000  0.6508444  3
   4269   4268   4271   4273     1  0.0000000  0.6508444  3
   4269   4268   4265   4274     1  0.0000000  0.6508444  3
   4270   4268   4271   4277     1  0.0000000  1.0460000  1
   4270   4268   4271   4277     1  0.0000000  0.0000000  3
   4270   4268   4271   4272     1  0.0000000  0.6508444  3
   4270   4268   4271   4273     1  0.0000000  0.6508444  3
   4270   4268   4265   4274     1  0.0000000  0.6508444  3
   4278   4281   4284   4285     1  0.0000000  0.6508444  3
   4278   4281   4284   4286     1  0.0000000  0.6508444  3
   4279   4278   4281   4284     1  0.0000000  0.6508444  3
   4279   4278   4281   4282     1  0.0000000  0.6508444  3
   4279   4278   4281   4283     1  0.0000000  0.6508444  3
   4279   4278   4287   4288     1  0.0000000  1.2552000  3
   4279   4278   4287   4289     1  0.0000000  1.2552000  3
   4280   4278   4281   4284     1  0.0000000  0.6508444  3
   4280   4278   4281   4282     1  0.0000000  0.6508444  3
   4280   4278   4281   4283     1  0.0000000  0.6508444  3
   4280   4278   4287   4288     1  0.0000000  1.2552000  3
   4280   4278   4287   4289     1  0.0000000  1.2552000  3
   4281   4278   4287   4288     1  0.0000000  1.2552000  3
   4281   4278   4287   4289     1  0.0000000  1.2552000  3
   4282   4281   4278   4287     1  0.0000000  0.6508444  3
   4282   4281   4284   4290     1  0.0000000  1.0460000  1
   4282   4281   4284   4290     1  0.0000000  0.0000000  3
   4282   4281   4284   4285     1  0.0000000  0.6508444  3
   4282   4281   4284   4286     1  0.0000000  0.6508444  3
   4283   4281   4278   4287     1  0.0000000  0.6508444  3
   4283   4281   4284   4290     1  0.0000000  1.0460000  1
   4283   4281   4284   4290     1  0.0000000  0.0000000  3
   4283   4281   4284   4285     1  0.0000000  0.6508444  3
   4283   4281   4284   4286     1  0.0000000  0.6508444  3
   4291   4294   4297   4298     1  0.0000000  0.6508444  3
   4291   4294   4297   4299     1  0.0000000  0.6508444  3
   4292   4291   4294   4297     1  0.0000000  0.6508444  3
   4292   4291   4294   4295     1  0.0000000  0.6508444  3
   4292   4291   4294   4296     1  0.0000000  0.6508444  3
   4292   4291   4300   4301     1  0.0000000  1.2552000  3
   4292   4291   4300   4302     1  0.0000000  1.2552000  3
   4293   4291   4294   4297     1  0.0000000  0.6508444  3
   4293   4291   4294   4295     1  0.0000000  0.6508444  3
   4293   4291   4294   4296     1  0.0000000  0.6508444  3
   4293   4291   4300   4301     1  0.0000000  1.2552000  3
   4293   4291   4300   4302     1  0.0000000  1.2552000  3
   4294   4291   4300   4301     1  0.0000000  1.2552000  3
   4294   4291   4300   4302     1  0.0000000  1.2552000  3
   4295   4294   4297   4303     1  0.0000000  1.0460000  1
   4295   4294   4297   4303     1  0.0000000  0.0000000  3
   4295   4294   4297   4298     1  0.0000000  0.6508444  3
   4295   4294   4297   4299     1  0.0000000  0.6508444  3
   4295   4294   4291   4300     1  0.0000000  0.6508444  3
   4296   4294   4297   4303     1  0.0000000  1.0460000  1
   4296   4294   4297   4303     1  0.0000000  0.0000000  3
   4296   4294   4297   4298     1  0.0000000  0.6508444  3
   4296   4294   4297   4299     1  0.0000000  0.6508444  3
   4296   4294   4291   4300     1  0.0000000  0.6508444  3
   4304   4307   4310   4311     1  0.0000000  0.6508444  3
   4304   4307   4310   4312     1  0.0000000  0.6508444  3
   4305   4304   4307   4310     1  0.0000000  0.6508444  3
   4305   4304   4307   4308     1  0.0000000  0.6508444  3
   4305   4304   4307   4309     1  0.0000000  0.6508444  3
   4305   4304   4313   4314     1  0.0000000  1.2552000  3
   4305   4304   4313   4315     1  0.0000000  1.2552000  3
   4306   4304   4307   4310     1  0.0000000  0.6508444  3
   4306   4304   4307   4308     1  0.0000000  0.6508444  3
   4306   4304   4307   4309     1  0.0000000  0.6508444  3
   4306   4304   4313   4314     1  0.0000000  1.2552000  3
   4306   4304   4313   4315     1  0.0000000  1.2552000  3
   4307   4304   4313   4314     1  0.0000000  1.2552000  3
   4307   4304   4313   4315     1  0.0000000  1.2552000  3
   4308   4307   4304   4313     1  0.0000000  0.6508444  3
   4308   4307   4310   4316     1  0.0000000  1.0460000  1
   4308   4307   4310   4316     1  0.0000000  0.0000000  3
   4308   4307   4310   4311     1  0.0000000  0.6508444  3
   4308   4307   4310   4312     1  0.0000000  0.6508444  3
   4309   4307   4304   4313     1  0.0000000  0.6508444  3
   4309   4307   4310   4316     1  0.0000000  1.0460000  1
   4309   4307   4310   4316     1  0.0000000  0.0000000  3
   4309   4307   4310   4311     1  0.0000000  0.6508444  3
   4309   4307   4310   4312     1  0.0000000  0.6508444  3
   4317   4320   4323   4324     1  0.0000000  0.6508444  3
   4317   4320   4323   4325     1  0.0000000  0.6508444  3
   4318   4317   4320   4323     1  0.0000000  0.6508444  3
   4318   4317   4320   4321     1  0.0000000  0.6508444  3
   4318   4317   4320   4322     1  0.0000000  0.6508444  3
   4318   4317   4326   4327     1  0.0000000  1.2552000  3
   4318   4317   4326   4328     1  0.0000000  1.2552000  3
   4319   4317   4320   4323     1  0.0000000  0.6508444  3
   4319   4317   4320   4321     1  0.0000000  0.6508444  3
   4319   4317   4320   4322     1  0.0000000  0.6508444  3
   4319   4317   4326   4327     1  0.0000000  1.2552000  3
   4319   4317   4326   4328     1  0.0000000  1.2552000  3
   4320   4317   4326   4327     1  0.0000000  1.2552000  3
   4320   4317   4326   4328     1  0.0000000  1.2552000  3
   4321   4320   4323   4329     1  0.0000000  1.0460000  1
   4321   4320   4323   4329     1  0.0000000  0.0000000  3
   4321   4320   4323   4324     1  0.0000000  0.6508444  3
   4321   4320   4323   4325     1  0.0000000  0.6508444  3
   4321   4320   4317   4326     1  0.0000000  0.6508444  3
   4322   4320   4323   4329     1  0.0000000  1.0460000  1
   4322   4320   4323   4329     1  0.0000000  0.0000000  3
   4322   4320   4323   4324     1  0.0000000  0.6508444  3
   4322   4320   4323   4325     1  0.0000000  0.6508444  3
   4322   4320   4317   4326     1  0.0000000  0.6508444  3
   4330   4333   4336   4337     1  0.0000000  0.6508444  3
   4330   4333   4336   4338     1  0.0000000  0.6508444  3
   4331   4330   4333   4336     1  0.0000000  0.6508444  3
   4331   4330   4333   4334     1  0.0000000  0.6508444  3
   4331   4330   4333   4335     1  0.0000000  0.6508444  3
   4331   4330   4339   4340     1  0.0000000  1.2552000  3
   4331   4330   4339   4341     1  0.0000000  1.2552000  3
   4332   4330   4333   4336     1  0.0000000  0.6508444  3
   4332   4330   4333   4334     1  0.0000000  0.6508444  3
   4332   4330   4333   4335     1  0.0000000  0.6508444  3
   4332   4330   4339   4340     1  0.0000000  1.2552000  3
   4332   4330   4339   4341     1  0.0000000  1.2552000  3
   4333   4330   4339   4340     1  0.0000000  1.2552000  3
   4333   4330   4339   4341     1  0.0000000  1.2552000  3
   4334   4333   4330   4339     1  0.0000000  0.6508444  3
   4334   4333   4336   4342     1  0.0000000  1.0460000  1
   4334   4333   4336   4342     1  0.0000000  0.0000000  3
   4334   4333   4336   4337     1  0.0000000  0.6508444  3
   4334   4333   4336   4338     1  0.0000000  0.6508444  3
   4335   4333   4330   4339     1  0.0000000  0.6508444  3
   4335   4333   4336   4342     1  0.0000000  1.0460000  1
   4335   4333   4336   4342     1  0.0000000  0.0000000  3
   4335   4333   4336   4337     1  0.0000000  0.6508444  3
   4335   4333   4336   4338     1  0.0000000  0.6508444  3
   4343   4346   4349   4350     1  0.0000000  0.6508444  3
   4343   4346   4349   4351     1  0.0000000  0.6508444  3
   4344   4343   4346   4349     1  0.0000000  0.6508444  3
   4344   4343   4346   4347     1  0.0000000  0.6508444  3
   4344   4343   4346   4348     1  0.0000000  0.6508444  3
   4344   4343   4352   4353     1  0.0000000  1.2552000  3
   4344   4343   4352   4354     1  0.0000000  1.2552000  3
   4345   4343   4346   4349     1  0.0000000  0.6508444  3
   4345   4343   4346   4347     1  0.0000000  0.6508444  3
   4345   4343   4346   4348     1  0.0000000  0.6508444  3
   4345   4343   4352   4353     1  0.0000000  1.2552000  3
   4345   4343   4352   4354     1  0.0000000  1.2552000  3
   4346   4343   4352   4353     1  0.0000000  1.2552000  3
   4346   4343   4352   4354     1  0.0000000  1.2552000  3
   4347   4346   4349   4355     1  0.0000000  1.0460000  1
   4347   4346   4349   4355     1  0.0000000  0.0000000  3
   4347   4346   4349   4350     1  0.0000000  0.6508444  3
   4347   4346   4349   4351     1  0.0000000  0.6508444  3
   4347   4346   4343   4352     1  0.0000000  0.6508444  3
   4348   4346   4349   4355     1  0.0000000  1.0460000  1
   4348   4346   4349   4355     1  0.0000000  0.0000000  3
   4348   4346   4349   4350     1  0.0000000  0.6508444  3
   4348   4346   4349   4351     1  0.0000000  0.6508444  3
   4348   4346   4343   4352     1  0.0000000  0.6508444  3
   4356   4359   4362   4363     1  0.0000000  0.6508444  3
   4356   4359   4362   4364     1  0.0000000  0.6508444  3
   4357   4356   4359   4362     1  0.0000000  0.6508444  3
   4357   4356   4359   4360     1  0.0000000  0.6508444  3
   4357   4356   4359   4361     1  0.0000000  0.6508444  3
   4357   4356   4365   4366     1  0.0000000  1.2552000  3
   4357   4356   4365   4367     1  0.0000000  1.2552000  3
   4358   4356   4359   4362     1  0.0000000  0.6508444  3
   4358   4356   4359   4360     1  0.0000000  0.6508444  3
   4358   4356   4359   4361     1  0.0000000  0.6508444  3
   4358   4356   4365   4366     1  0.0000000  1.2552000  3
   4358   4356   4365   4367     1  0.0000000  1.2552000  3
   4359   4356   4365   4366     1  0.0000000  1.2552000  3
   4359   4356   4365   4367     1  0.0000000  1.2552000  3
   4360   4359   4356   4365     1  0.0000000  0.6508444  3
   4360   4359   4362   4368     1  0.0000000  1.0460000  1
   4360   4359   4362   4368     1  0.0000000  0.0000000  3
   4360   4359   4362   4363     1  0.0000000  0.6508444  3
   4360   4359   4362   4364     1  0.0000000  0.6508444  3
   4361   4359   4356   4365     1  0.0000000  0.6508444  3
   4361   4359   4362   4368     1  0.0000000  1.0460000  1
   4361   4359   4362   4368     1  0.0000000  0.0000000  3
   4361   4359   4362   4363     1  0.0000000  0.6508444  3
   4361   4359   4362   4364     1  0.0000000  0.6508444  3
   4369   4372   4375   4376     1  0.0000000  0.6508444  3
   4369   4372   4375   4377     1  0.0000000  0.6508444  3
   4370   4369   4372   4375     1  0.0000000  0.6508444  3
   4370   4369   4372   4373     1  0.0000000  0.6508444  3
   4370   4369   4372   4374     1  0.0000000  0.6508444  3
   4370   4369   4378   4379     1  0.0000000  1.2552000  3
   4370   4369   4378   4380     1  0.0000000  1.2552000  3
   4371   4369   4372   4375     1  0.0000000  0.6508444  3
   4371   4369   4372   4373     1  0.0000000  0.6508444  3
   4371   4369   4372   4374     1  0.0000000  0.6508444  3
   4371   4369   4378   4379     1  0.0000000  1.2552000  3
   4371   4369   4378   4380     1  0.0000000  1.2552000  3
   4372   4369   4378   4379     1  0.0000000  1.2552000  3
   4372   4369   4378   4380     1  0.0000000  1.2552000  3
   4373   4372   4375   4381     1  0.0000000  1.0460000  1
   4373   4372   4375   4381     1  0.0000000  0.0000000  3
   4373   4372   4375   4376     1  0.0000000  0.6508444  3
   4373   4372   4375   4377     1  0.0000000  0.6508444  3
   4373   4372   4369   4378     1  0.0000000  0.6508444  3
   4374   4372   4375   4381     1  0.0000000  1.0460000  1
   4374   4372   4375   4381     1  0.0000000  0.0000000  3
   4374   4372   4375   4376     1  0.0000000  0.6508444  3
   4374   4372   4375   4377     1  0.0000000  0.6508444  3
   4374   4372   4369   4378     1  0.0000000  0.6508444  3
   4382   4385   4388   4389     1  0.0000000  0.6508444  3
   4382   4385   4388   4390     1  0.0000000  0.6508444  3
   4383   4382   4385   4388     1  0.0000000  0.6508444  3
   4383   4382   4385   4386     1  0.0000000  0.6508444  3
   4383   4382   4385   4387     1  0.0000000  0.6508444  3
   4383   4382   4391   4392     1  0.0000000  1.2552000  3
   4383   4382   4391   4393     1  0.0000000  1.2552000  3
   4384   4382   4385   4388     1  0.0000000  0.6508444  3
   4384   4382   4385   4386     1  0.0000000  0.6508444  3
   4384   4382   4385   4387     1  0.0000000  0.6508444  3
   4384   4382   4391   4392     1  0.0000000  1.2552000  3
   4384   4382   4391   4393     1  0.0000000  1.2552000  3
   4385   4382   4391   4392     1  0.0000000  1.2552000  3
   4385   4382   4391   4393     1  0.0000000  1.2552000  3
   4386   4385   4382   4391     1  0.0000000  0.6508444  3
   4386   4385   4388   4394     1  0.0000000  1.0460000  1
   4386   4385   4388   4394     1  0.0000000  0.0000000  3
   4386   4385   4388   4389     1  0.0000000  0.6508444  3
   4386   4385   4388   4390     1  0.0000000  0.6508444  3
   4387   4385   4382   4391     1  0.0000000  0.6508444  3
   4387   4385   4388   4394     1  0.0000000  1.0460000  1
   4387   4385   4388   4394     1  0.0000000  0.0000000  3
   4387   4385   4388   4389     1  0.0000000  0.6508444  3
   4387   4385   4388   4390     1  0.0000000  0.6508444  3
   4395   4398   4401   4402     1  0.0000000  0.6508444  3
   4395   4398   4401   4403     1  0.0000000  0.6508444  3
   4396   4395   4398   4401     1  0.0000000  0.6508444  3
   4396   4395   4398   4399     1  0.0000000  0.6508444  3
   4396   4395   4398   4400     1  0.0000000  0.6508444  3
   4396   4395   4404   4405     1  0.0000000  1.2552000  3
   4396   4395   4404   4406     1  0.0000000  1.2552000  3
   4397   4395   4398   4401     1  0.0000000  0.6508444  3
   4397   4395   4398   4399     1  0.0000000  0.6508444  3
   4397   4395   4398   4400     1  0.0000000  0.6508444  3
   4397   4395   4404   4405     1  0.0000000  1.2552000  3
   4397   4395   4404   4406     1  0.0000000  1.2552000  3
   4398   4395   4404   4405     1  0.0000000  1.2552000  3
   4398   4395   4404   4406     1  0.0000000  1.2552000  3
   4399   4398   4401   4407     1  0.0000000  1.0460000  1
   4399   4398   4401   4407     1  0.0000000  0.0000000  3
   4399   4398   4401   4402     1  0.0000000  0.6508444  3
   4399   4398   4401   4403     1  0.0000000  0.6508444  3
   4399   4398   4395   4404     1  0.0000000  0.6508444  3
   4400   4398   4401   4407     1  0.0000000  1.0460000  1
   4400   4398   4401   4407     1  0.0000000  0.0000000  3
   4400   4398   4401   4402     1  0.0000000  0.6508444  3
   4400   4398   4401   4403     1  0.0000000  0.6508444  3
   4400   4398   4395   4404     1  0.0000000  0.6508444  3
   4408   4411   4414   4415     1  0.0000000  0.6508444  3
   4408   4411   4414   4416     1  0.0000000  0.6508444  3
   4409   4408   4411   4414     1  0.0000000  0.6508444  3
   4409   4408   4411   4412     1  0.0000000  0.6508444  3
   4409   4408   4411   4413     1  0.0000000  0.6508444  3
   4409   4408   4417   4418     1  0.0000000  1.2552000  3
   4409   4408   4417   4419     1  0.0000000  1.2552000  3
   4410   4408   4411   4414     1  0.0000000  0.6508444  3
   4410   4408   4411   4412     1  0.0000000  0.6508444  3
   4410   4408   4411   4413     1  0.0000000  0.6508444  3
   4410   4408   4417   4418     1  0.0000000  1.2552000  3
   4410   4408   4417   4419     1  0.0000000  1.2552000  3
   4411   4408   4417   4418     1  0.0000000  1.2552000  3
   4411   4408   4417   4419     1  0.0000000  1.2552000  3
   4412   4411   4408   4417     1  0.0000000  0.6508444  3
   4412   4411   4414   4420     1  0.0000000  1.0460000  1
   4412   4411   4414   4420     1  0.0000000  0.0000000  3
   4412   4411   4414   4415     1  0.0000000  0.6508444  3
   4412   4411   4414   4416     1  0.0000000  0.6508444  3
   4413   4411   4408   4417     1  0.0000000  0.6508444  3
   4413   4411   4414   4420     1  0.0000000  1.0460000  1
   4413   4411   4414   4420     1  0.0000000  0.0000000  3
   4413   4411   4414   4415     1  0.0000000  0.6508444  3
   4413   4411   4414   4416     1  0.0000000  0.6508444  3
   4421   4424   4427   4428     1  0.0000000  0.6508444  3
   4421   4424   4427   4429     1  0.0000000  0.6508444  3
   4422   4421   4424   4427     1  0.0000000  0.6508444  3
   4422   4421   4424   4425     1  0.0000000  0.6508444  3
   4422   4421   4424   4426     1  0.0000000  0.6508444  3
   4422   4421   4430   4431     1  0.0000000  1.2552000  3
   4422   4421   4430   4432     1  0.0000000  1.2552000  3
   4423   4421   4424   4427     1  0.0000000  0.6508444  3
   4423   4421   4424   4425     1  0.0000000  0.6508444  3
   4423   4421   4424   4426     1  0.0000000  0.6508444  3
   4423   4421   4430   4431     1  0.0000000  1.2552000  3
   4423   4421   4430   4432     1  0.0000000  1.2552000  3
   4424   4421   4430   4431     1  0.0000000  1.2552000  3
   4424   4421   4430   4432     1  0.0000000  1.2552000  3
   4425   4424   4427   4433     1  0.0000000  1.0460000  1
   4425   4424   4427   4433     1  0.0000000  0.0000000  3
   4425   4424   4427   4428     1  0.0000000  0.6508444  3
   4425   4424   4427   4429     1  0.0000000  0.6508444  3
   4425   4424   4421   4430     1  0.0000000  0.6508444  3
   4426   4424   4427   4433     1  0.0000000  1.0460000  1
   4426   4424   4427   4433     1  0.0000000  0.0000000  3
   4426   4424   4427   4428     1  0.0000000  0.6508444  3
   4426   4424   4427   4429     1  0.0000000  0.6508444  3
   4426   4424   4421   4430     1  0.0000000  0.6508444  3
   4434   4437   4440   4441     1  0.0000000  0.6508444  3
   4434   4437   4440   4442     1  0.0000000  0.6508444  3
   4435   4434   4437   4440     1  0.0000000  0.6508444  3
   4435   4434   4437   4438     1  0.0000000  0.6508444  3
   4435   4434   4437   4439     1  0.0000000  0.6508444  3
   4435   4434   4443   4444     1  0.0000000  1.2552000  3
   4435   4434   4443   4445     1  0.0000000  1.2552000  3
   4436   4434   4437   4440     1  0.0000000  0.6508444  3
   4436   4434   4437   4438     1  0.0000000  0.6508444  3
   4436   4434   4437   4439     1  0.0000000  0.6508444  3
   4436   4434   4443   4444     1  0.0000000  1.2552000  3
   4436   4434   4443   4445     1  0.0000000  1.2552000  3
   4437   4434   4443   4444     1  0.0000000  1.2552000  3
   4437   4434   4443   4445     1  0.0000000  1.2552000  3
   4438   4437   4434   4443     1  0.0000000  0.6508444  3
   4438   4437   4440   4446     1  0.0000000  1.0460000  1
   4438   4437   4440   4446     1  0.0000000  0.0000000  3
   4438   4437   4440   4441     1  0.0000000  0.6508444  3
   4438   4437   4440   4442     1  0.0000000  0.6508444  3
   4439   4437   4434   4443     1  0.0000000  0.6508444  3
   4439   4437   4440   4446     1  0.0000000  1.0460000  1
   4439   4437   4440   4446     1  0.0000000  0.0000000  3
   4439   4437   4440   4441     1  0.0000000  0.6508444  3
   4439   4437   4440   4442     1  0.0000000  0.6508444  3
   4447   4450   4453   4454     1  0.0000000  0.6508444  3
   4447   4450   4453   4455     1  0.0000000  0.6508444  3
   4448   4447   4450   4453     1  0.0000000  0.6508444  3
   4448   4447   4450   4451     1  0.0000000  0.6508444  3
   4448   4447   4450   4452     1  0.0000000  0.6508444  3
   4448   4447   4456   4457     1  0.0000000  1.2552000  3
   4448   4447   4456   4458     1  0.0000000  1.2552000  3
   4449   4447   4450   4453     1  0.0000000  0.6508444  3
   4449   4447   4450   4451     1  0.0000000  0.6508444  3
   4449   4447   4450   4452     1  0.0000000  0.6508444  3
   4449   4447   4456   4457     1  0.0000000  1.2552000  3
   4449   4447   4456   4458     1  0.0000000  1.2552000  3
   4450   4447   4456   4457     1  0.0000000  1.2552000  3
   4450   4447   4456   4458     1  0.0000000  1.2552000  3
   4451   4450   4453   4459     1  0.0000000  1.0460000  1
   4451   4450   4453   4459     1  0.0000000  0.0000000  3
   4451   4450   4453   4454     1  0.0000000  0.6508444  3
   4451   4450   4453   4455     1  0.0000000  0.6508444  3
   4451   4450   4447   4456     1  0.0000000  0.6508444  3
   4452   4450   4453   4459     1  0.0000000  1.0460000  1
   4452   4450   4453   4459     1  0.0000000  0.0000000  3
   4452   4450   4453   4454     1  0.0000000  0.6508444  3
   4452   4450   4453   4455     1  0.0000000  0.6508444  3
   4452   4450   4447   4456     1  0.0000000  0.6508444  3
   4460   4463   4466   4467     1  0.0000000  0.6508444  3
   4460   4463   4466   4468     1  0.0000000  0.6508444  3
   4461   4460   4463   4466     1  0.0000000  0.6508444  3
   4461   4460   4463   4464     1  0.0000000  0.6508444  3
   4461   4460   4463   4465     1  0.0000000  0.6508444  3
   4461   4460   4469   4470     1  0.0000000  1.2552000  3
   4461   4460   4469   4471     1  0.0000000  1.2552000  3
   4462   4460   4463   4466     1  0.0000000  0.6508444  3
   4462   4460   4463   4464     1  0.0000000  0.6508444  3
   4462   4460   4463   4465     1  0.0000000  0.6508444  3
   4462   4460   4469   4470     1  0.0000000  1.2552000  3
   4462   4460   4469   4471     1  0.0000000  1.2552000  3
   4463   4460   4469   4470     1  0.0000000  1.2552000  3
   4463   4460   4469   4471     1  0.0000000  1.2552000  3
   4464   4463   4460   4469     1  0.0000000  0.6508444  3
   4464   4463   4466   4472     1  0.0000000  1.0460000  1
   4464   4463   4466   4472     1  0.0000000  0.0000000  3
   4464   4463   4466   4467     1  0.0000000  0.6508444  3
   4464   4463   4466   4468     1  0.0000000  0.6508444  3
   4465   4463   4460   4469     1  0.0000000  0.6508444  3
   4465   4463   4466   4472     1  0.0000000  1.0460000  1
   4465   4463   4466   4472     1  0.0000000  0.0000000  3
   4465   4463   4466   4467     1  0.0000000  0.6508444  3
   4465   4463   4466   4468     1  0.0000000  0.6508444  3
   4473   4476   4479   4480     1  0.0000000  0.6508444  3
   4473   4476   4479   4481     1  0.0000000  0.6508444  3
   4474   4473   4476   4479     1  0.0000000  0.6508444  3
   4474   4473   4476   4477     1  0.0000000  0.6508444  3
   4474   4473   4476   4478     1  0.0000000  0.6508444  3
   4474   4473   4482   4483     1  0.0000000  1.2552000  3
   4474   4473   4482   4484     1  0.0000000  1.2552000  3
   4475   4473   4476   4479     1  0.0000000  0.6508444  3
   4475   4473   4476   4477     1  0.0000000  0.6508444  3
   4475   4473   4476   4478     1  0.0000000  0.6508444  3
   4475   4473   4482   4483     1  0.0000000  1.2552000  3
   4475   4473   4482   4484     1  0.0000000  1.2552000  3
   4476   4473   4482   4483     1  0.0000000  1.2552000  3
   4476   4473   4482   4484     1  0.0000000  1.2552000  3
   4477   4476   4479   4485     1  0.0000000  1.0460000  1
   4477   4476   4479   4485     1  0.0000000  0.0000000  3
   4477   4476   4479   4480     1  0.0000000  0.6508444  3
   4477   4476   4479   4481     1  0.0000000  0.6508444  3
   4477   4476   4473   4482     1  0.0000000  0.6508444  3
   4478   4476   4479   4485     1  0.0000000  1.0460000  1
   4478   4476   4479   4485     1  0.0000000  0.0000000  3
   4478   4476   4479   4480     1  0.0000000  0.6508444  3
   4478   4476   4479   4481     1  0.0000000  0.6508444  3
   4478   4476   4473   4482     1  0.0000000  0.6508444  3
   4486   4489   4492   4493     1  0.0000000  0.6508444  3
   4486   4489   4492   4494     1  0.0000000  0.6508444  3
   4487   4486   4489   4492     1  0.0000000  0.6508444  3
   4487   4486   4489   4490     1  0.0000000  0.6508444  3
   4487   4486   4489   4491     1  0.0000000  0.6508444  3
   4487   4486   4495   4496     1  0.0000000  1.2552000  3
   4487   4486   4495   4497     1  0.0000000  1.2552000  3
   4488   4486   4489   4492     1  0.0000000  0.6508444  3
   4488   4486   4489   4490     1  0.0000000  0.6508444  3
   4488   4486   4489   4491     1  0.0000000  0.6508444  3
   4488   4486   4495   4496     1  0.0000000  1.2552000  3
   4488   4486   4495   4497     1  0.0000000  1.2552000  3
   4489   4486   4495   4496     1  0.0000000  1.2552000  3
   4489   4486   4495   4497     1  0.0000000  1.2552000  3
   4490   4489   4486   4495     1  0.0000000  0.6508444  3
   4490   4489   4492   4498     1  0.0000000  1.0460000  1
   4490   4489   4492   4498     1  0.0000000  0.0000000  3
   4490   4489   4492   4493     1  0.0000000  0.6508444  3
   4490   4489   4492   4494     1  0.0000000  0.6508444  3
   4491   4489   4486   4495     1  0.0000000  0.6508444  3
   4491   4489   4492   4498     1  0.0000000  1.0460000  1
   4491   4489   4492   4498     1  0.0000000  0.0000000  3
   4491   4489   4492   4493     1  0.0000000  0.6508444  3
   4491   4489   4492   4494     1  0.0000000  0.6508444  3
   4499   4502   4505   4506     1  0.0000000  0.6508444  3
   4499   4502   4505   4507     1  0.0000000  0.6508444  3
   4500   4499   4502   4505     1  0.0000000  0.6508444  3
   4500   4499   4502   4503     1  0.0000000  0.6508444  3
   4500   4499   4502   4504     1  0.0000000  0.6508444  3
   4500   4499   4508   4509     1  0.0000000  1.2552000  3
   4500   4499   4508   4510     1  0.0000000  1.2552000  3
   4501   4499   4502   4505     1  0.0000000  0.6508444  3
   4501   4499   4502   4503     1  0.0000000  0.6508444  3
   4501   4499   4502   4504     1  0.0000000  0.6508444  3
   4501   4499   4508   4509     1  0.0000000  1.2552000  3
   4501   4499   4508   4510     1  0.0000000  1.2552000  3
   4502   4499   4508   4509     1  0.0000000  1.2552000  3
   4502   4499   4508   4510     1  0.0000000  1.2552000  3
   4503   4502   4505   4511     1  0.0000000  1.0460000  1
   4503   4502   4505   4511     1  0.0000000  0.0000000  3
   4503   4502   4505   4506     1  0.0000000  0.6508444  3
   4503   4502   4505   4507     1  0.0000000  0.6508444  3
   4503   4502   4499   4508     1  0.0000000  0.6508444  3
   4504   4502   4505   4511     1  0.0000000  1.0460000  1
   4504   4502   4505   4511     1  0.0000000  0.0000000  3
   4504   4502   4505   4506     1  0.0000000  0.6508444  3
   4504   4502   4505   4507     1  0.0000000  0.6508444  3
   4504   4502   4499   4508     1  0.0000000  0.6508444  3
   4512   4515   4518   4519     1  0.0000000  0.6508444  3
   4512   4515   4518   4520     1  0.0000000  0.6508444  3
   4513   4512   4515   4518     1  0.0000000  0.6508444  3
   4513   4512   4515   4516     1  0.0000000  0.6508444  3
   4513   4512   4515   4517     1  0.0000000  0.6508444  3
   4513   4512   4521   4522     1  0.0000000  1.2552000  3
   4513   4512   4521   4523     1  0.0000000  1.2552000  3
   4514   4512   4515   4518     1  0.0000000  0.6508444  3
   4514   4512   4515   4516     1  0.0000000  0.6508444  3
   4514   4512   4515   4517     1  0.0000000  0.6508444  3
   4514   4512   4521   4522     1  0.0000000  1.2552000  3
   4514   4512   4521   4523     1  0.0000000  1.2552000  3
   4515   4512   4521   4522     1  0.0000000  1.2552000  3
   4515   4512   4521   4523     1  0.0000000  1.2552000  3
   4516   4515   4512   4521     1  0.0000000  0.6508444  3
   4516   4515   4518   4524     1  0.0000000  1.0460000  1
   4516   4515   4518   4524     1  0.0000000  0.0000000  3
   4516   4515   4518   4519     1  0.0000000  0.6508444  3
   4516   4515   4518   4520     1  0.0000000  0.6508444  3
   4517   4515   4512   4521     1  0.0000000  0.6508444  3
   4517   4515   4518   4524     1  0.0000000  1.0460000  1
   4517   4515   4518   4524     1  0.0000000  0.0000000  3
   4517   4515   4518   4519     1  0.0000000  0.6508444  3
   4517   4515   4518   4520     1  0.0000000  0.6508444  3
   4525   4528   4531   4532     1  0.0000000  0.6508444  3
   4525   4528   4531   4533     1  0.0000000  0.6508444  3
   4526   4525   4528   4531     1  0.0000000  0.6508444  3
   4526   4525   4528   4529     1  0.0000000  0.6508444  3
   4526   4525   4528   4530     1  0.0000000  0.6508444  3
   4526   4525   4534   4535     1  0.0000000  1.2552000  3
   4526   4525   4534   4536     1  0.0000000  1.2552000  3
   4527   4525   4528   4531     1  0.0000000  0.6508444  3
   4527   4525   4528   4529     1  0.0000000  0.6508444  3
   4527   4525   4528   4530     1  0.0000000  0.6508444  3
   4527   4525   4534   4535     1  0.0000000  1.2552000  3
   4527   4525   4534   4536     1  0.0000000  1.2552000  3
   4528   4525   4534   4535     1  0.0000000  1.2552000  3
   4528   4525   4534   4536     1  0.0000000  1.2552000  3
   4529   4528   4531   4537     1  0.0000000  1.0460000  1
   4529   4528   4531   4537     1  0.0000000  0.0000000  3
   4529   4528   4531   4532     1  0.0000000  0.6508444  3
   4529   4528   4531   4533     1  0.0000000  0.6508444  3
   4529   4528   4525   4534     1  0.0000000  0.6508444  3
   4530   4528   4531   4537     1  0.0000000  1.0460000  1
   4530   4528   4531   4537     1  0.0000000  0.0000000  3
   4530   4528   4531   4532     1  0.0000000  0.6508444  3
   4530   4528   4531   4533     1  0.0000000  0.6508444  3
   4530   4528   4525   4534     1  0.0000000  0.6508444  3
   4538   4541   4544   4545     1  0.0000000  0.6508444  3
   4538   4541   4544   4546     1  0.0000000  0.6508444  3
   4539   4538   4541   4544     1  0.0000000  0.6508444  3
   4539   4538   4541   4542     1  0.0000000  0.6508444  3
   4539   4538   4541   4543     1  0.0000000  0.6508444  3
   4539   4538   4547   4548     1  0.0000000  1.2552000  3
   4539   4538   4547   4549     1  0.0000000  1.2552000  3
   4540   4538   4541   4544     1  0.0000000  0.6508444  3
   4540   4538   4541   4542     1  0.0000000  0.6508444  3
   4540   4538   4541   4543     1  0.0000000  0.6508444  3
   4540   4538   4547   4548     1  0.0000000  1.2552000  3
   4540   4538   4547   4549     1  0.0000000  1.2552000  3
   4541   4538   4547   4548     1  0.0000000  1.2552000  3
   4541   4538   4547   4549     1  0.0000000  1.2552000  3
   4542   4541   4538   4547     1  0.0000000  0.6508444  3
   4542   4541   4544   4550     1  0.0000000  1.0460000  1
   4542   4541   4544   4550     1  0.0000000  0.0000000  3
   4542   4541   4544   4545     1  0.0000000  0.6508444  3
   4542   4541   4544   4546     1  0.0000000  0.6508444  3
   4543   4541   4538   4547     1  0.0000000  0.6508444  3
   4543   4541   4544   4550     1  0.0000000  1.0460000  1
   4543   4541   4544   4550     1  0.0000000  0.0000000  3
   4543   4541   4544   4545     1  0.0000000  0.6508444  3
   4543   4541   4544   4546     1  0.0000000  0.6508444  3
   4551   4554   4557   4558     1  0.0000000  0.6508444  3
   4551   4554   4557   4559     1  0.0000000  0.6508444  3
   4552   4551   4554   4557     1  0.0000000  0.6508444  3
   4552   4551   4554   4555     1  0.0000000  0.6508444  3
   4552   4551   4554   4556     1  0.0000000  0.6508444  3
   4552   4551   4560   4561     1  0.0000000  1.2552000  3
   4552   4551   4560   4562     1  0.0000000  1.2552000  3
   4553   4551   4554   4557     1  0.0000000  0.6508444  3
   4553   4551   4554   4555     1  0.0000000  0.6508444  3
   4553   4551   4554   4556     1  0.0000000  0.6508444  3
   4553   4551   4560   4561     1  0.0000000  1.2552000  3
   4553   4551   4560   4562     1  0.0000000  1.2552000  3
   4554   4551   4560   4561     1  0.0000000  1.2552000  3
   4554   4551   4560   4562     1  0.0000000  1.2552000  3
   4555   4554   4557   4563     1  0.0000000  1.0460000  1
   4555   4554   4557   4563     1  0.0000000  0.0000000  3
   4555   4554   4557   4558     1  0.0000000  0.6508444  3
   4555   4554   4557   4559     1  0.0000000  0.6508444  3
   4555   4554   4551   4560     1  0.0000000  0.6508444  3
   4556   4554   4557   4563     1  0.0000000  1.0460000  1
   4556   4554   4557   4563     1  0.0000000  0.0000000  3
   4556   4554   4557   4558     1  0.0000000  0.6508444  3
   4556   4554   4557   4559     1  0.0000000  0.6508444  3
   4556   4554   4551   4560     1  0.0000000  0.6508444  3
   4564   4567   4570   4571     1  0.0000000  0.6508444  3
   4564   4567   4570   4572     1  0.0000000  0.6508444  3
   4565   4564   4567   4570     1  0.0000000  0.6508444  3
   4565   4564   4567   4568     1  0.0000000  0.6508444  3
   4565   4564   4567   4569     1  0.0000000  0.6508444  3
   4565   4564   4573   4574     1  0.0000000  1.2552000  3
   4565   4564   4573   4575     1  0.0000000  1.2552000  3
   4566   4564   4567   4570     1  0.0000000  0.6508444  3
   4566   4564   4567   4568     1  0.0000000  0.6508444  3
   4566   4564   4567   4569     1  0.0000000  0.6508444  3
   4566   4564   4573   4574     1  0.0000000  1.2552000  3
   4566   4564   4573   4575     1  0.0000000  1.2552000  3
   4567   4564   4573   4574     1  0.0000000  1.2552000  3
   4567   4564   4573   4575     1  0.0000000  1.2552000  3
   4568   4567   4564   4573     1  0.0000000  0.6508444  3
   4568   4567   4570   4576     1  0.0000000  1.0460000  1
   4568   4567   4570   4576     1  0.0000000  0.0000000  3
   4568   4567   4570   4571     1  0.0000000  0.6508444  3
   4568   4567   4570   4572     1  0.0000000  0.6508444  3
   4569   4567   4564   4573     1  0.0000000  0.6508444  3
   4569   4567   4570   4576     1  0.0000000  1.0460000  1
   4569   4567   4570   4576     1  0.0000000  0.0000000  3
   4569   4567   4570   4571     1  0.0000000  0.6508444  3
   4569   4567   4570   4572     1  0.0000000  0.6508444  3
   4577   4580   4583   4584     1  0.0000000  0.6508444  3
   4577   4580   4583   4585     1  0.0000000  0.6508444  3
   4578   4577   4580   4583     1  0.0000000  0.6508444  3
   4578   4577   4580   4581     1  0.0000000  0.6508444  3
   4578   4577   4580   4582     1  0.0000000  0.6508444  3
   4578   4577   4586   4587     1  0.0000000  1.2552000  3
   4578   4577   4586   4588     1  0.0000000  1.2552000  3
   4579   4577   4580   4583     1  0.0000000  0.6508444  3
   4579   4577   4580   4581     1  0.0000000  0.6508444  3
   4579   4577   4580   4582     1  0.0000000  0.6508444  3
   4579   4577   4586   4587     1  0.0000000  1.2552000  3
   4579   4577   4586   4588     1  0.0000000  1.2552000  3
   4580   4577   4586   4587     1  0.0000000  1.2552000  3
   4580   4577   4586   4588     1  0.0000000  1.2552000  3
   4581   4580   4583   4589     1  0.0000000  1.0460000  1
   4581   4580   4583   4589     1  0.0000000  0.0000000  3
   4581   4580   4583   4584     1  0.0000000  0.6508444  3
   4581   4580   4583   4585     1  0.0000000  0.6508444  3
   4581   4580   4577   4586     1  0.0000000  0.6508444  3
   4582   4580   4583   4589     1  0.0000000  1.0460000  1
   4582   4580   4583   4589     1  0.0000000  0.0000000  3
   4582   4580   4583   4584     1  0.0000000  0.6508444  3
   4582   4580   4583   4585     1  0.0000000  0.6508444  3
   4582   4580   4577   4586     1  0.0000000  0.6508444  3
   4590   4593   4596   4597     1  0.0000000  0.6508444  3
   4590   4593   4596   4598     1  0.0000000  0.6508444  3
   4591   4590   4593   4596     1  0.0000000  0.6508444  3
   4591   4590   4593   4594     1  0.0000000  0.6508444  3
   4591   4590   4593   4595     1  0.0000000  0.6508444  3
   4591   4590   4599   4600     1  0.0000000  1.2552000  3
   4591   4590   4599   4601     1  0.0000000  1.2552000  3
   4592   4590   4593   4596     1  0.0000000  0.6508444  3
   4592   4590   4593   4594     1  0.0000000  0.6508444  3
   4592   4590   4593   4595     1  0.0000000  0.6508444  3
   4592   4590   4599   4600     1  0.0000000  1.2552000  3
   4592   4590   4599   4601     1  0.0000000  1.2552000  3
   4593   4590   4599   4600     1  0.0000000  1.2552000  3
   4593   4590   4599   4601     1  0.0000000  1.2552000  3
   4594   4593   4590   4599     1  0.0000000  0.6508444  3
   4594   4593   4596   4602     1  0.0000000  1.0460000  1
   4594   4593   4596   4602     1  0.0000000  0.0000000  3
   4594   4593   4596   4597     1  0.0000000  0.6508444  3
   4594   4593   4596   4598     1  0.0000000  0.6508444  3
   4595   4593   4590   4599     1  0.0000000  0.6508444  3
   4595   4593   4596   4602     1  0.0000000  1.0460000  1
   4595   4593   4596   4602     1  0.0000000  0.0000000  3
   4595   4593   4596   4597     1  0.0000000  0.6508444  3
   4595   4593   4596   4598     1  0.0000000  0.6508444  3
   4603   4606   4609   4610     1  0.0000000  0.6508444  3
   4603   4606   4609   4611     1  0.0000000  0.6508444  3
   4604   4603   4606   4609     1  0.0000000  0.6508444  3
   4604   4603   4606   4607     1  0.0000000  0.6508444  3
   4604   4603   4606   4608     1  0.0000000  0.6508444  3
   4604   4603   4612   4613     1  0.0000000  1.2552000  3
   4604   4603   4612   4614     1  0.0000000  1.2552000  3
   4605   4603   4606   4609     1  0.0000000  0.6508444  3
   4605   4603   4606   4607     1  0.0000000  0.6508444  3
   4605   4603   4606   4608     1  0.0000000  0.6508444  3
   4605   4603   4612   4613     1  0.0000000  1.2552000  3
   4605   4603   4612   4614     1  0.0000000  1.2552000  3
   4606   4603   4612   4613     1  0.0000000  1.2552000  3
   4606   4603   4612   4614     1  0.0000000  1.2552000  3
   4607   4606   4609   4615     1  0.0000000  1.0460000  1
   4607   4606   4609   4615     1  0.0000000  0.0000000  3
   4607   4606   4609   4610     1  0.0000000  0.6508444  3
   4607   4606   4609   4611     1  0.0000000  0.6508444  3
   4607   4606   4603   4612     1  0.0000000  0.6508444  3
   4608   4606   4609   4615     1  0.0000000  1.0460000  1
   4608   4606   4609   4615     1  0.0000000  0.0000000  3
   4608   4606   4609   4610     1  0.0000000  0.6508444  3
   4608   4606   4609   4611     1  0.0000000  0.6508444  3
   4608   4606   4603   4612     1  0.0000000  0.6508444  3
   4616   4619   4622   4623     1  0.0000000  0.6508444  3
   4616   4619   4622   4624     1  0.0000000  0.6508444  3
   4617   4616   4619   4622     1  0.0000000  0.6508444  3
   4617   4616   4619   4620     1  0.0000000  0.6508444  3
   4617   4616   4619   4621     1  0.0000000  0.6508444  3
   4617   4616   4625   4626     1  0.0000000  1.2552000  3
   4617   4616   4625   4627     1  0.0000000  1.2552000  3
   4618   4616   4619   4622     1  0.0000000  0.6508444  3
   4618   4616   4619   4620     1  0.0000000  0.6508444  3
   4618   4616   4619   4621     1  0.0000000  0.6508444  3
   4618   4616   4625   4626     1  0.0000000  1.2552000  3
   4618   4616   4625   4627     1  0.0000000  1.2552000  3
   4619   4616   4625   4626     1  0.0000000  1.2552000  3
   4619   4616   4625   4627     1  0.0000000  1.2552000  3
   4620   4619   4616   4625     1  0.0000000  0.6508444  3
   4620   4619   4622   4628     1  0.0000000  1.0460000  1
   4620   4619   4622   4628     1  0.0000000  0.0000000  3
   4620   4619   4622   4623     1  0.0000000  0.6508444  3
   4620   4619   4622   4624     1  0.0000000  0.6508444  3
   4621   4619   4616   4625     1  0.0000000  0.6508444  3
   4621   4619   4622   4628     1  0.0000000  1.0460000  1
   4621   4619   4622   4628     1  0.0000000  0.0000000  3
   4621   4619   4622   4623     1  0.0000000  0.6508444  3
   4621   4619   4622   4624     1  0.0000000  0.6508444  3
   4629   4632   4635   4636     1  0.0000000  0.6508444  3
   4629   4632   4635   4637     1  0.0000000  0.6508444  3
   4630   4629   4632   4635     1  0.0000000  0.6508444  3
   4630   4629   4632   4633     1  0.0000000  0.6508444  3
   4630   4629   4632   4634     1  0.0000000  0.6508444  3
   4630   4629   4638   4639     1  0.0000000  1.2552000  3
   4630   4629   4638   4640     1  0.0000000  1.2552000  3
   4631   4629   4632   4635     1  0.0000000  0.6508444  3
   4631   4629   4632   4633     1  0.0000000  0.6508444  3
   4631   4629   4632   4634     1  0.0000000  0.6508444  3
   4631   4629   4638   4639     1  0.0000000  1.2552000  3
   4631   4629   4638   4640     1  0.0000000  1.2552000  3
   4632   4629   4638   4639     1  0.0000000  1.2552000  3
   4632   4629   4638   4640     1  0.0000000  1.2552000  3
   4633   4632   4635   4641     1  0.0000000  1.0460000  1
   4633   4632   4635   4641     1  0.0000000  0.0000000  3
   4633   4632   4635   4636     1  0.0000000  0.6508444  3
   4633   4632   4635   4637     1  0.0000000  0.6508444  3
   4633   4632   4629   4638     1  0.0000000  0.6508444  3
   4634   4632   4635   4641     1  0.0000000  1.0460000  1
   4634   4632   4635   4641     1  0.0000000  0.0000000  3
   4634   4632   4635   4636     1  0.0000000  0.6508444  3
   4634   4632   4635   4637     1  0.0000000  0.6508444  3
   4634   4632   4629   4638     1  0.0000000  0.6508444  3
   4642   4645   4648   4649     1  0.0000000  0.6508444  3
   4642   4645   4648   4650     1  0.0000000  0.6508444  3
   4643   4642   4645   4648     1  0.0000000  0.6508444  3
   4643   4642   4645   4646     1  0.0000000  0.6508444  3
   4643   4642   4645   4647     1  0.0000000  0.6508444  3
   4643   4642   4651   4652     1  0.0000000  1.2552000  3
   4643   4642   4651   4653     1  0.0000000  1.2552000  3
   4644   4642   4645   4648     1  0.0000000  0.6508444  3
   4644   4642   4645   4646     1  0.0000000  0.6508444  3
   4644   4642   4645   4647     1  0.0000000  0.6508444  3
   4644   4642   4651   4652     1  0.0000000  1.2552000  3
   4644   4642   4651   4653     1  0.0000000  1.2552000  3
   4645   4642   4651   4652     1  0.0000000  1.2552000  3
   4645   4642   4651   4653     1  0.0000000  1.2552000  3
   4646   4645   4642   4651     1  0.0000000  0.6508444  3
   4646   4645   4648   4654     1  0.0000000  1.0460000  1
   4646   4645   4648   4654     1  0.0000000  0.0000000  3
   4646   4645   4648   4649     1  0.0000000  0.6508444  3
   4646   4645   4648   4650     1  0.0000000  0.6508444  3
   4647   4645   4642   4651     1  0.0000000  0.6508444  3
   4647   4645   4648   4654     1  0.0000000  1.0460000  1
   4647   4645   4648   4654     1  0.0000000  0.0000000  3
   4647   4645   4648   4649     1  0.0000000  0.6508444  3
   4647   4645   4648   4650     1  0.0000000  0.6508444  3
   4655   4658   4661   4662     1  0.0000000  0.6508444  3
   4655   4658   4661   4663     1  0.0000000  0.6508444  3
   4656   4655   4658   4661     1  0.0000000  0.6508444  3
   4656   4655   4658   4659     1  0.0000000  0.6508444  3
   4656   4655   4658   4660     1  0.0000000  0.6508444  3
   4656   4655   4664   4665     1  0.0000000  1.2552000  3
   4656   4655   4664   4666     1  0.0000000  1.2552000  3
   4657   4655   4658   4661     1  0.0000000  0.6508444  3
   4657   4655   4658   4659     1  0.0000000  0.6508444  3
   4657   4655   4658   4660     1  0.0000000  0.6508444  3
   4657   4655   4664   4665     1  0.0000000  1.2552000  3
   4657   4655   4664   4666     1  0.0000000  1.2552000  3
   4658   4655   4664   4665     1  0.0000000  1.2552000  3
   4658   4655   4664   4666     1  0.0000000  1.2552000  3
   4659   4658   4661   4667     1  0.0000000  1.0460000  1
   4659   4658   4661   4667     1  0.0000000  0.0000000  3
   4659   4658   4661   4662     1  0.0000000  0.6508444  3
   4659   4658   4661   4663     1  0.0000000  0.6508444  3
   4659   4658   4655   4664     1  0.0000000  0.6508444  3
   4660   4658   4661   4667     1  0.0000000  1.0460000  1
   4660   4658   4661   4667     1  0.0000000  0.0000000  3
   4660   4658   4661   4662     1  0.0000000  0.6508444  3
   4660   4658   4661   4663     1  0.0000000  0.6508444  3
   4660   4658   4655   4664     1  0.0000000  0.6508444  3
   4668   4671   4674   4675     1  0.0000000  0.6508444  3
   4668   4671   4674   4676     1  0.0000000  0.6508444  3
   4669   4668   4671   4674     1  0.0000000  0.6508444  3
   4669   4668   4671   4672     1  0.0000000  0.6508444  3
   4669   4668   4671   4673     1  0.0000000  0.6508444  3
   4669   4668   4677   4678     1  0.0000000  1.2552000  3
   4669   4668   4677   4679     1  0.0000000  1.2552000  3
   4670   4668   4671   4674     1  0.0000000  0.6508444  3
   4670   4668   4671   4672     1  0.0000000  0.6508444  3
   4670   4668   4671   4673     1  0.0000000  0.6508444  3
   4670   4668   4677   4678     1  0.0000000  1.2552000  3
   4670   4668   4677   4679     1  0.0000000  1.2552000  3
   4671   4668   4677   4678     1  0.0000000  1.2552000  3
   4671   4668   4677   4679     1  0.0000000  1.2552000  3
   4672   4671   4668   4677     1  0.0000000  0.6508444  3
   4672   4671   4674   4680     1  0.0000000  1.0460000  1
   4672   4671   4674   4680     1  0.0000000  0.0000000  3
   4672   4671   4674   4675     1  0.0000000  0.6508444  3
   4672   4671   4674   4676     1  0.0000000  0.6508444  3
   4673   4671   4668   4677     1  0.0000000  0.6508444  3
   4673   4671   4674   4680     1  0.0000000  1.0460000  1
   4673   4671   4674   4680     1  0.0000000  0.0000000  3
   4673   4671   4674   4675     1  0.0000000  0.6508444  3
   4673   4671   4674   4676     1  0.0000000  0.6508444  3
   4681   4684   4687   4688     1  0.0000000  0.6508444  3
   4681   4684   4687   4689     1  0.0000000  0.6508444  3
   4682   4681   4684   4687     1  0.0000000  0.6508444  3
   4682   4681   4684   4685     1  0.0000000  0.6508444  3
   4682   4681   4684   4686     1  0.0000000  0.6508444  3
   4682   4681   4690   4691     1  0.0000000  1.2552000  3
   4682   4681   4690   4692     1  0.0000000  1.2552000  3
   4683   4681   4684   4687     1  0.0000000  0.6508444  3
   4683   4681   4684   4685     1  0.0000000  0.6508444  3
   4683   4681   4684   4686     1  0.0000000  0.6508444  3
   4683   4681   4690   4691     1  0.0000000  1.2552000  3
   4683   4681   4690   4692     1  0.0000000  1.2552000  3
   4684   4681   4690   4691     1  0.0000000  1.2552000  3
   4684   4681   4690   4692     1  0.0000000  1.2552000  3
   4685   4684   4687   4693     1  0.0000000  1.0460000  1
   4685   4684   4687   4693     1  0.0000000  0.0000000  3
   4685   4684   4687   4688     1  0.0000000  0.6508444  3
   4685   4684   4687   4689     1  0.0000000  0.6508444  3
   4685   4684   4681   4690     1  0.0000000  0.6508444  3
   4686   4684   4687   4693     1  0.0000000  1.0460000  1
   4686   4684   4687   4693     1  0.0000000  0.0000000  3
   4686   4684   4687   4688     1  0.0000000  0.6508444  3
   4686   4684   4687   4689     1  0.0000000  0.6508444  3
   4686   4684   4681   4690     1  0.0000000  0.6508444  3
   4694   4697   4700   4701     1  0.0000000  0.6508444  3
   4694   4697   4700   4702     1  0.0000000  0.6508444  3
   4695   4694   4697   4700     1  0.0000000  0.6508444  3
   4695   4694   4697   4698     1  0.0000000  0.6508444  3
   4695   4694   4697   4699     1  0.0000000  0.6508444  3
   4695   4694   4703   4704     1  0.0000000  1.2552000  3
   4695   4694   4703   4705     1  0.0000000  1.2552000  3
   4696   4694   4697   4700     1  0.0000000  0.6508444  3
   4696   4694   4697   4698     1  0.0000000  0.6508444  3
   4696   4694   4697   4699     1  0.0000000  0.6508444  3
   4696   4694   4703   4704     1  0.0000000  1.2552000  3
   4696   4694   4703   4705     1  0.0000000  1.2552000  3
   4697   4694   4703   4704     1  0.0000000  1.2552000  3
   4697   4694   4703   4705     1  0.0000000  1.2552000  3
   4698   4697   4694   4703     1  0.0000000  0.6508444  3
   4698   4697   4700   4706     1  0.0000000  1.0460000  1
   4698   4697   4700   4706     1  0.0000000  0.0000000  3
   4698   4697   4700   4701     1  0.0000000  0.6508444  3
   4698   4697   4700   4702     1  0.0000000  0.6508444  3
   4699   4697   4694   4703     1  0.0000000  0.6508444  3
   4699   4697   4700   4706     1  0.0000000  1.0460000  1
   4699   4697   4700   4706     1  0.0000000  0.0000000  3
   4699   4697   4700   4701     1  0.0000000  0.6508444  3
   4699   4697   4700   4702     1  0.0000000  0.6508444  3
   4707   4710   4713   4714     1  0.0000000  0.6508444  3
   4707   4710   4713   4715     1  0.0000000  0.6508444  3
   4708   4707   4710   4713     1  0.0000000  0.6508444  3
   4708   4707   4710   4711     1  0.0000000  0.6508444  3
   4708   4707   4710   4712     1  0.0000000  0.6508444  3
   4708   4707   4716   4717     1  0.0000000  1.2552000  3
   4708   4707   4716   4718     1  0.0000000  1.2552000  3
   4709   4707   4710   4713     1  0.0000000  0.6508444  3
   4709   4707   4710   4711     1  0.0000000  0.6508444  3
   4709   4707   4710   4712     1  0.0000000  0.6508444  3
   4709   4707   4716   4717     1  0.0000000  1.2552000  3
   4709   4707   4716   4718     1  0.0000000  1.2552000  3
   4710   4707   4716   4717     1  0.0000000  1.2552000  3
   4710   4707   4716   4718     1  0.0000000  1.2552000  3
   4711   4710   4713   4719     1  0.0000000  1.0460000  1
   4711   4710   4713   4719     1  0.0000000  0.0000000  3
   4711   4710   4713   4714     1  0.0000000  0.6508444  3
   4711   4710   4713   4715     1  0.0000000  0.6508444  3
   4711   4710   4707   4716     1  0.0000000  0.6508444  3
   4712   4710   4713   4719     1  0.0000000  1.0460000  1
   4712   4710   4713   4719     1  0.0000000  0.0000000  3
   4712   4710   4713   4714     1  0.0000000  0.6508444  3
   4712   4710   4713   4715     1  0.0000000  0.6508444  3
   4712   4710   4707   4716     1  0.0000000  0.6508444  3
   4720   4723   4726   4727     1  0.0000000  0.6508444  3
   4720   4723   4726   4728     1  0.0000000  0.6508444  3
   4721   4720   4723   4726     1  0.0000000  0.6508444  3
   4721   4720   4723   4724     1  0.0000000  0.6508444  3
   4721   4720   4723   4725     1  0.0000000  0.6508444  3
   4721   4720   4729   4730     1  0.0000000  1.2552000  3
   4721   4720   4729   4731     1  0.0000000  1.2552000  3
   4722   4720   4723   4726     1  0.0000000  0.6508444  3
   4722   4720   4723   4724     1  0.0000000  0.6508444  3
   4722   4720   4723   4725     1  0.0000000  0.6508444  3
   4722   4720   4729   4730     1  0.0000000  1.2552000  3
   4722   4720   4729   4731     1  0.0000000  1.2552000  3
   4723   4720   4729   4730     1  0.0000000  1.2552000  3
   4723   4720   4729   4731     1  0.0000000  1.2552000  3
   4724   4723   4720   4729     1  0.0000000  0.6508444  3
   4724   4723   4726   4732     1  0.0000000  1.0460000  1
   4724   4723   4726   4732     1  0.0000000  0.0000000  3
   4724   4723   4726   4727     1  0.0000000  0.6508444  3
   4724   4723   4726   4728     1  0.0000000  0.6508444  3
   4725   4723   4720   4729     1  0.0000000  0.6508444  3
   4725   4723   4726   4732     1  0.0000000  1.0460000  1
   4725   4723   4726   4732     1  0.0000000  0.0000000  3
   4725   4723   4726   4727     1  0.0000000  0.6508444  3
   4725   4723   4726   4728     1  0.0000000  0.6508444  3
   4733   4736   4739   4740     1  0.0000000  0.6508444  3
   4733   4736   4739   4741     1  0.0000000  0.6508444  3
   4734   4733   4736   4739     1  0.0000000  0.6508444  3
   4734   4733   4736   4737     1  0.0000000  0.6508444  3
   4734   4733   4736   4738     1  0.0000000  0.6508444  3
   4734   4733   4742   4743     1  0.0000000  1.2552000  3
   4734   4733   4742   4744     1  0.0000000  1.2552000  3
   4735   4733   4736   4739     1  0.0000000  0.6508444  3
   4735   4733   4736   4737     1  0.0000000  0.6508444  3
   4735   4733   4736   4738     1  0.0000000  0.6508444  3
   4735   4733   4742   4743     1  0.0000000  1.2552000  3
   4735   4733   4742   4744     1  0.0000000  1.2552000  3
   4736   4733   4742   4743     1  0.0000000  1.2552000  3
   4736   4733   4742   4744     1  0.0000000  1.2552000  3
   4737   4736   4739   4745     1  0.0000000  1.0460000  1
   4737   4736   4739   4745     1  0.0000000  0.0000000  3
   4737   4736   4739   4740     1  0.0000000  0.6508444  3
   4737   4736   4739   4741     1  0.0000000  0.6508444  3
   4737   4736   4733   4742     1  0.0000000  0.6508444  3
   4738   4736   4739   4745     1  0.0000000  1.0460000  1
   4738   4736   4739   4745     1  0.0000000  0.0000000  3
   4738   4736   4739   4740     1  0.0000000  0.6508444  3
   4738   4736   4739   4741     1  0.0000000  0.6508444  3
   4738   4736   4733   4742     1  0.0000000  0.6508444  3
   4746   4749   4752   4753     1  0.0000000  0.6508444  3
   4746   4749   4752   4754     1  0.0000000  0.6508444  3
   4747   4746   4749   4752     1  0.0000000  0.6508444  3
   4747   4746   4749   4750     1  0.0000000  0.6508444  3
   4747   4746   4749   4751     1  0.0000000  0.6508444  3
   4747   4746   4755   4756     1  0.0000000  1.2552000  3
   4747   4746   4755   4757     1  0.0000000  1.2552000  3
   4748   4746   4749   4752     1  0.0000000  0.6508444  3
   4748   4746   4749   4750     1  0.0000000  0.6508444  3
   4748   4746   4749   4751     1  0.0000000  0.6508444  3
   4748   4746   4755   4756     1  0.0000000  1.2552000  3
   4748   4746   4755   4757     1  0.0000000  1.2552000  3
   4749   4746   4755   4756     1  0.0000000  1.2552000  3
   4749   4746   4755   4757     1  0.0000000  1.2552000  3
   4750   4749   4746   4755     1  0.0000000  0.6508444  3
   4750   4749   4752   4758     1  0.0000000  1.0460000  1
   4750   4749   4752   4758     1  0.0000000  0.0000000  3
   4750   4749   4752   4753     1  0.0000000  0.6508444  3
   4750   4749   4752   4754     1  0.0000000  0.6508444  3
   4751   4749   4746   4755     1  0.0000000  0.6508444  3
   4751   4749   4752   4758     1  0.0000000  1.0460000  1
   4751   4749   4752   4758     1  0.0000000  0.0000000  3
   4751   4749   4752   4753     1  0.0000000  0.6508444  3
   4751   4749   4752   4754     1  0.0000000  0.6508444  3
   4759   4762   4765   4766     1  0.0000000  0.6508444  3
   4759   4762   4765   4767     1  0.0000000  0.6508444  3
   4760   4759   4762   4765     1  0.0000000  0.6508444  3
   4760   4759   4762   4763     1  0.0000000  0.6508444  3
   4760   4759   4762   4764     1  0.0000000  0.6508444  3
   4760   4759   4768   4769     1  0.0000000  1.2552000  3
   4760   4759   4768   4770     1  0.0000000  1.2552000  3
   4761   4759   4762   4765     1  0.0000000  0.6508444  3
   4761   4759   4762   4763     1  0.0000000  0.6508444  3
   4761   4759   4762   4764     1  0.0000000  0.6508444  3
   4761   4759   4768   4769     1  0.0000000  1.2552000  3
   4761   4759   4768   4770     1  0.0000000  1.2552000  3
   4762   4759   4768   4769     1  0.0000000  1.2552000  3
   4762   4759   4768   4770     1  0.0000000  1.2552000  3
   4763   4762   4765   4771     1  0.0000000  1.0460000  1
   4763   4762   4765   4771     1  0.0000000  0.0000000  3
   4763   4762   4765   4766     1  0.0000000  0.6508444  3
   4763   4762   4765   4767     1  0.0000000  0.6508444  3
   4763   4762   4759   4768     1  0.0000000  0.6508444  3
   4764   4762   4765   4771     1  0.0000000  1.0460000  1
   4764   4762   4765   4771     1  0.0000000  0.0000000  3
   4764   4762   4765   4766     1  0.0000000  0.6508444  3
   4764   4762   4765   4767     1  0.0000000  0.6508444  3
   4764   4762   4759   4768     1  0.0000000  0.6508444  3
   4772   4775   4778   4779     1  0.0000000  0.6508444  3
   4772   4775   4778   4780     1  0.0000000  0.6508444  3
   4773   4772   4775   4778     1  0.0000000  0.6508444  3
   4773   4772   4775   4776     1  0.0000000  0.6508444  3
   4773   4772   4775   4777     1  0.0000000  0.6508444  3
   4773   4772   4781   4782     1  0.0000000  1.2552000  3
   4773   4772   4781   4783     1  0.0000000  1.2552000  3
   4774   4772   4775   4778     1  0.0000000  0.6508444  3
   4774   4772   4775   4776     1  0.0000000  0.6508444  3
   4774   4772   4775   4777     1  0.0000000  0.6508444  3
   4774   4772   4781   4782     1  0.0000000  1.2552000  3
   4774   4772   4781   4783     1  0.0000000  1.2552000  3
   4775   4772   4781   4782     1  0.0000000  1.2552000  3
   4775   4772   4781   4783     1  0.0000000  1.2552000  3
   4776   4775   4772   4781     1  0.0000000  0.6508444  3
   4776   4775   4778   4784     1  0.0000000  1.0460000  1
   4776   4775   4778   4784     1  0.0000000  0.0000000  3
   4776   4775   4778   4779     1  0.0000000  0.6508444  3
   4776   4775   4778   4780     1  0.0000000  0.6508444  3
   4777   4775   4772   4781     1  0.0000000  0.6508444  3
   4777   4775   4778   4784     1  0.0000000  1.0460000  1
   4777   4775   4778   4784     1  0.0000000  0.0000000  3
   4777   4775   4778   4779     1  0.0000000  0.6508444  3
   4777   4775   4778   4780     1  0.0000000  0.6508444  3
   4785   4788   4791   4792     1  0.0000000  0.6508444  3
   4785   4788   4791   4793     1  0.0000000  0.6508444  3
   4786   4785   4788   4791     1  0.0000000  0.6508444  3
   4786   4785   4788   4789     1  0.0000000  0.6508444  3
   4786   4785   4788   4790     1  0.0000000  0.6508444  3
   4786   4785   4794   4795     1  0.0000000  1.2552000  3
   4786   4785   4794   4796     1  0.0000000  1.2552000  3
   4787   4785   4788   4791     1  0.0000000  0.6508444  3
   4787   4785   4788   4789     1  0.0000000  0.6508444  3
   4787   4785   4788   4790     1  0.0000000  0.6508444  3
   4787   4785   4794   4795     1  0.0000000  1.2552000  3
   4787   4785   4794   4796     1  0.0000000  1.2552000  3
   4788   4785   4794   4795     1  0.0000000  1.2552000  3
   4788   4785   4794   4796     1  0.0000000  1.2552000  3
   4789   4788   4791   4797     1  0.0000000  1.0460000  1
   4789   4788   4791   4797     1  0.0000000  0.0000000  3
   4789   4788   4791   4792     1  0.0000000  0.6508444  3
   4789   4788   4791   4793     1  0.0000000  0.6508444  3
   4789   4788   4785   4794     1  0.0000000  0.6508444  3
   4790   4788   4791   4797     1  0.0000000  1.0460000  1
   4790   4788   4791   4797     1  0.0000000  0.0000000  3
   4790   4788   4791   4792     1  0.0000000  0.6508444  3
   4790   4788   4791   4793     1  0.0000000  0.6508444  3
   4790   4788   4785   4794     1  0.0000000  0.6508444  3
   4798   4801   4804   4805     1  0.0000000  0.6508444  3
   4798   4801   4804   4806     1  0.0000000  0.6508444  3
   4799   4798   4801   4804     1  0.0000000  0.6508444  3
   4799   4798   4801   4802     1  0.0000000  0.6508444  3
   4799   4798   4801   4803     1  0.0000000  0.6508444  3
   4799   4798   4807   4808     1  0.0000000  1.2552000  3
   4799   4798   4807   4809     1  0.0000000  1.2552000  3
   4800   4798   4801   4804     1  0.0000000  0.6508444  3
   4800   4798   4801   4802     1  0.0000000  0.6508444  3
   4800   4798   4801   4803     1  0.0000000  0.6508444  3
   4800   4798   4807   4808     1  0.0000000  1.2552000  3
   4800   4798   4807   4809     1  0.0000000  1.2552000  3
   4801   4798   4807   4808     1  0.0000000  1.2552000  3
   4801   4798   4807   4809     1  0.0000000  1.2552000  3
   4802   4801   4798   4807     1  0.0000000  0.6508444  3
   4802   4801   4804   4810     1  0.0000000  1.0460000  1
   4802   4801   4804   4810     1  0.0000000  0.0000000  3
   4802   4801   4804   4805     1  0.0000000  0.6508444  3
   4802   4801   4804   4806     1  0.0000000  0.6508444  3
   4803   4801   4798   4807     1  0.0000000  0.6508444  3
   4803   4801   4804   4810     1  0.0000000  1.0460000  1
   4803   4801   4804   4810     1  0.0000000  0.0000000  3
   4803   4801   4804   4805     1  0.0000000  0.6508444  3
   4803   4801   4804   4806     1  0.0000000  0.6508444  3
   4811   4814   4817   4818     1  0.0000000  0.6508444  3
   4811   4814   4817   4819     1  0.0000000  0.6508444  3
   4812   4811   4814   4817     1  0.0000000  0.6508444  3
   4812   4811   4814   4815     1  0.0000000  0.6508444  3
   4812   4811   4814   4816     1  0.0000000  0.6508444  3
   4812   4811   4820   4821     1  0.0000000  1.2552000  3
   4812   4811   4820   4822     1  0.0000000  1.2552000  3
   4813   4811   4814   4817     1  0.0000000  0.6508444  3
   4813   4811   4814   4815     1  0.0000000  0.6508444  3
   4813   4811   4814   4816     1  0.0000000  0.6508444  3
   4813   4811   4820   4821     1  0.0000000  1.2552000  3
   4813   4811   4820   4822     1  0.0000000  1.2552000  3
   4814   4811   4820   4821     1  0.0000000  1.2552000  3
   4814   4811   4820   4822     1  0.0000000  1.2552000  3
   4815   4814   4817   4823     1  0.0000000  1.0460000  1
   4815   4814   4817   4823     1  0.0000000  0.0000000  3
   4815   4814   4817   4818     1  0.0000000  0.6508444  3
   4815   4814   4817   4819     1  0.0000000  0.6508444  3
   4815   4814   4811   4820     1  0.0000000  0.6508444  3
   4816   4814   4817   4823     1  0.0000000  1.0460000  1
   4816   4814   4817   4823     1  0.0000000  0.0000000  3
   4816   4814   4817   4818     1  0.0000000  0.6508444  3
   4816   4814   4817   4819     1  0.0000000  0.6508444  3
   4816   4814   4811   4820     1  0.0000000  0.6508444  3
   4824   4827   4830   4831     1  0.0000000  0.6508444  3
   4824   4827   4830   4832     1  0.0000000  0.6508444  3
   4825   4824   4827   4830     1  0.0000000  0.6508444  3
   4825   4824   4827   4828     1  0.0000000  0.6508444  3
   4825   4824   4827   4829     1  0.0000000  0.6508444  3
   4825   4824   4833   4834     1  0.0000000  1.2552000  3
   4825   4824   4833   4835     1  0.0000000  1.2552000  3
   4826   4824   4827   4830     1  0.0000000  0.6508444  3
   4826   4824   4827   4828     1  0.0000000  0.6508444  3
   4826   4824   4827   4829     1  0.0000000  0.6508444  3
   4826   4824   4833   4834     1  0.0000000  1.2552000  3
   4826   4824   4833   4835     1  0.0000000  1.2552000  3
   4827   4824   4833   4834     1  0.0000000  1.2552000  3
   4827   4824   4833   4835     1  0.0000000  1.2552000  3
   4828   4827   4824   4833     1  0.0000000  0.6508444  3
   4828   4827   4830   4836     1  0.0000000  1.0460000  1
   4828   4827   4830   4836     1  0.0000000  0.0000000  3
   4828   4827   4830   4831     1  0.0000000  0.6508444  3
   4828   4827   4830   4832     1  0.0000000  0.6508444  3
   4829   4827   4824   4833     1  0.0000000  0.6508444  3
   4829   4827   4830   4836     1  0.0000000  1.0460000  1
   4829   4827   4830   4836     1  0.0000000  0.0000000  3
   4829   4827   4830   4831     1  0.0000000  0.6508444  3
   4829   4827   4830   4832     1  0.0000000  0.6508444  3
   4837   4840   4843   4844     1  0.0000000  0.6508444  3
   4837   4840   4843   4845     1  0.0000000  0.6508444  3
   4838   4837   4840   4843     1  0.0000000  0.6508444  3
   4838   4837   4840   4841     1  0.0000000  0.6508444  3
   4838   4837   4840   4842     1  0.0000000  0.6508444  3
   4838   4837   4846   4847     1  0.0000000  1.2552000  3
   4838   4837   4846   4848     1  0.0000000  1.2552000  3
   4839   4837   4840   4843     1  0.0000000  0.6508444  3
   4839   4837   4840   4841     1  0.0000000  0.6508444  3
   4839   4837   4840   4842     1  0.0000000  0.6508444  3
   4839   4837   4846   4847     1  0.0000000  1.2552000  3
   4839   4837   4846   4848     1  0.0000000  1.2552000  3
   4840   4837   4846   4847     1  0.0000000  1.2552000  3
   4840   4837   4846   4848     1  0.0000000  1.2552000  3
   4841   4840   4843   4849     1  0.0000000  1.0460000  1
   4841   4840   4843   4849     1  0.0000000  0.0000000  3
   4841   4840   4843   4844     1  0.0000000  0.6508444  3
   4841   4840   4843   4845     1  0.0000000  0.6508444  3
   4841   4840   4837   4846     1  0.0000000  0.6508444  3
   4842   4840   4843   4849     1  0.0000000  1.0460000  1
   4842   4840   4843   4849     1  0.0000000  0.0000000  3
   4842   4840   4843   4844     1  0.0000000  0.6508444  3
   4842   4840   4843   4845     1  0.0000000  0.6508444  3
   4842   4840   4837   4846     1  0.0000000  0.6508444  3
   4850   4853   4856   4857     1  0.0000000  0.6508444  3
   4850   4853   4856   4858     1  0.0000000  0.6508444  3
   4851   4850   4853   4856     1  0.0000000  0.6508444  3
   4851   4850   4853   4854     1  0.0000000  0.6508444  3
   4851   4850   4853   4855     1  0.0000000  0.6508444  3
   4851   4850   4859   4860     1  0.0000000  1.2552000  3
   4851   4850   4859   4861     1  0.0000000  1.2552000  3
   4852   4850   4853   4856     1  0.0000000  0.6508444  3
   4852   4850   4853   4854     1  0.0000000  0.6508444  3
   4852   4850   4853   4855     1  0.0000000  0.6508444  3
   4852   4850   4859   4860     1  0.0000000  1.2552000  3
   4852   4850   4859   4861     1  0.0000000  1.2552000  3
   4853   4850   4859   4860     1  0.0000000  1.2552000  3
   4853   4850   4859   4861     1  0.0000000  1.2552000  3
   4854   4853   4850   4859     1  0.0000000  0.6508444  3
   4854   4853   4856   4862     1  0.0000000  1.0460000  1
   4854   4853   4856   4862     1  0.0000000  0.0000000  3
   4854   4853   4856   4857     1  0.0000000  0.6508444  3
   4854   4853   4856   4858     1  0.0000000  0.6508444  3
   4855   4853   4850   4859     1  0.0000000  0.6508444  3
   4855   4853   4856   4862     1  0.0000000  1.0460000  1
   4855   4853   4856   4862     1  0.0000000  0.0000000  3
   4855   4853   4856   4857     1  0.0000000  0.6508444  3
   4855   4853   4856   4858     1  0.0000000  0.6508444  3
   4863   4866   4869   4870     1  0.0000000  0.6508444  3
   4863   4866   4869   4871     1  0.0000000  0.6508444  3
   4864   4863   4866   4869     1  0.0000000  0.6508444  3
   4864   4863   4866   4867     1  0.0000000  0.6508444  3
   4864   4863   4866   4868     1  0.0000000  0.6508444  3
   4864   4863   4872   4873     1  0.0000000  1.2552000  3
   4864   4863   4872   4874     1  0.0000000  1.2552000  3
   4865   4863   4866   4869     1  0.0000000  0.6508444  3
   4865   4863   4866   4867     1  0.0000000  0.6508444  3
   4865   4863   4866   4868     1  0.0000000  0.6508444  3
   4865   4863   4872   4873     1  0.0000000  1.2552000  3
   4865   4863   4872   4874     1  0.0000000  1.2552000  3
   4866   4863   4872   4873     1  0.0000000  1.2552000  3
   4866   4863   4872   4874     1  0.0000000  1.2552000  3
   4867   4866   4869   4875     1  0.0000000  1.0460000  1
   4867   4866   4869   4875     1  0.0000000  0.0000000  3
   4867   4866   4869   4870     1  0.0000000  0.6508444  3
   4867   4866   4869   4871     1  0.0000000  0.6508444  3
   4867   4866   4863   4872     1  0.0000000  0.6508444  3
   4868   4866   4869   4875     1  0.0000000  1.0460000  1
   4868   4866   4869   4875     1  0.0000000  0.0000000  3
   4868   4866   4869   4870     1  0.0000000  0.6508444  3
   4868   4866   4869   4871     1  0.0000000  0.6508444  3
   4868   4866   4863   4872     1  0.0000000  0.6508444  3
   4876   4879   4882   4883     1  0.0000000  0.6508444  3
   4876   4879   4882   4884     1  0.0000000  0.6508444  3
   4877   4876   4879   4882     1  0.0000000  0.6508444  3
   4877   4876   4879   4880     1  0.0000000  0.6508444  3
   4877   4876   4879   4881     1  0.0000000  0.6508444  3
   4877   4876   4885   4886     1  0.0000000  1.2552000  3
   4877   4876   4885   4887     1  0.0000000  1.2552000  3
   4878   4876   4879   4882     1  0.0000000  0.6508444  3
   4878   4876   4879   4880     1  0.0000000  0.6508444  3
   4878   4876   4879   4881     1  0.0000000  0.6508444  3
   4878   4876   4885   4886     1  0.0000000  1.2552000  3
   4878   4876   4885   4887     1  0.0000000  1.2552000  3
   4879   4876   4885   4886     1  0.0000000  1.2552000  3
   4879   4876   4885   4887     1  0.0000000  1.2552000  3
   4880   4879   4876   4885     1  0.0000000  0.6508444  3
   4880   4879   4882   4888     1  0.0000000  1.0460000  1
   4880   4879   4882   4888     1  0.0000000  0.0000000  3
   4880   4879   4882   4883     1  0.0000000  0.6508444  3
   4880   4879   4882   4884     1  0.0000000  0.6508444  3
   4881   4879   4876   4885     1  0.0000000  0.6508444  3
   4881   4879   4882   4888     1  0.0000000  1.0460000  1
   4881   4879   4882   4888     1  0.0000000  0.0000000  3
   4881   4879   4882   4883     1  0.0000000  0.6508444  3
   4881   4879   4882   4884     1  0.0000000  0.6508444  3
   4889   4892   4895   4896     1  0.0000000  0.6508444  3
   4889   4892   4895   4897     1  0.0000000  0.6508444  3
   4890   4889   4892   4895     1  0.0000000  0.6508444  3
   4890   4889   4892   4893     1  0.0000000  0.6508444  3
   4890   4889   4892   4894     1  0.0000000  0.6508444  3
   4890   4889   4898   4899     1  0.0000000  1.2552000  3
   4890   4889   4898   4900     1  0.0000000  1.2552000  3
   4891   4889   4892   4895     1  0.0000000  0.6508444  3
   4891   4889   4892   4893     1  0.0000000  0.6508444  3
   4891   4889   4892   4894     1  0.0000000  0.6508444  3
   4891   4889   4898   4899     1  0.0000000  1.2552000  3
   4891   4889   4898   4900     1  0.0000000  1.2552000  3
   4892   4889   4898   4899     1  0.0000000  1.2552000  3
   4892   4889   4898   4900     1  0.0000000  1.2552000  3
   4893   4892   4895   4901     1  0.0000000  1.0460000  1
   4893   4892   4895   4901     1  0.0000000  0.0000000  3
   4893   4892   4895   4896     1  0.0000000  0.6508444  3
   4893   4892   4895   4897     1  0.0000000  0.6508444  3
   4893   4892   4889   4898     1  0.0000000  0.6508444  3
   4894   4892   4895   4901     1  0.0000000  1.0460000  1
   4894   4892   4895   4901     1  0.0000000  0.0000000  3
   4894   4892   4895   4896     1  0.0000000  0.6508444  3
   4894   4892   4895   4897     1  0.0000000  0.6508444  3
   4894   4892   4889   4898     1  0.0000000  0.6508444  3
   4902   4905   4908   4909     1  0.0000000  0.6508444  3
   4902   4905   4908   4910     1  0.0000000  0.6508444  3
   4903   4902   4905   4908     1  0.0000000  0.6508444  3
   4903   4902   4905   4906     1  0.0000000  0.6508444  3
   4903   4902   4905   4907     1  0.0000000  0.6508444  3
   4903   4902   4911   4912     1  0.0000000  1.2552000  3
   4903   4902   4911   4913     1  0.0000000  1.2552000  3
   4904   4902   4905   4908     1  0.0000000  0.6508444  3
   4904   4902   4905   4906     1  0.0000000  0.6508444  3
   4904   4902   4905   4907     1  0.0000000  0.6508444  3
   4904   4902   4911   4912     1  0.0000000  1.2552000  3
   4904   4902   4911   4913     1  0.0000000  1.2552000  3
   4905   4902   4911   4912     1  0.0000000  1.2552000  3
   4905   4902   4911   4913     1  0.0000000  1.2552000  3
   4906   4905   4902   4911     1  0.0000000  0.6508444  3
   4906   4905   4908   4914     1  0.0000000  1.0460000  1
   4906   4905   4908   4914     1  0.0000000  0.0000000  3
   4906   4905   4908   4909     1  0.0000000  0.6508444  3
   4906   4905   4908   4910     1  0.0000000  0.6508444  3
   4907   4905   4902   4911     1  0.0000000  0.6508444  3
   4907   4905   4908   4914     1  0.0000000  1.0460000  1
   4907   4905   4908   4914     1  0.0000000  0.0000000  3
   4907   4905   4908   4909     1  0.0000000  0.6508444  3
   4907   4905   4908   4910     1  0.0000000  0.6508444  3
   4915   4918   4921   4922     1  0.0000000  0.6508444  3
   4915   4918   4921   4923     1  0.0000000  0.6508444  3
   4916   4915   4918   4921     1  0.0000000  0.6508444  3
   4916   4915   4918   4919     1  0.0000000  0.6508444  3
   4916   4915   4918   4920     1  0.0000000  0.6508444  3
   4916   4915   4924   4925     1  0.0000000  1.2552000  3
   4916   4915   4924   4926     1  0.0000000  1.2552000  3
   4917   4915   4918   4921     1  0.0000000  0.6508444  3
   4917   4915   4918   4919     1  0.0000000  0.6508444  3
   4917   4915   4918   4920     1  0.0000000  0.6508444  3
   4917   4915   4924   4925     1  0.0000000  1.2552000  3
   4917   4915   4924   4926     1  0.0000000  1.2552000  3
   4918   4915   4924   4925     1  0.0000000  1.2552000  3
   4918   4915   4924   4926     1  0.0000000  1.2552000  3
   4919   4918   4921   4927     1  0.0000000  1.0460000  1
   4919   4918   4921   4927     1  0.0000000  0.0000000  3
   4919   4918   4921   4922     1  0.0000000  0.6508444  3
   4919   4918   4921   4923     1  0.0000000  0.6508444  3
   4919   4918   4915   4924     1  0.0000000  0.6508444  3
   4920   4918   4921   4927     1  0.0000000  1.0460000  1
   4920   4918   4921   4927     1  0.0000000  0.0000000  3
   4920   4918   4921   4922     1  0.0000000  0.6508444  3
   4920   4918   4921   4923     1  0.0000000  0.6508444  3
   4920   4918   4915   4924     1  0.0000000  0.6508444  3
   4928   4931   4934   4935     1  0.0000000  0.6508444  3
   4928   4931   4934   4936     1  0.0000000  0.6508444  3
   4929   4928   4931   4934     1  0.0000000  0.6508444  3
   4929   4928   4931   4932     1  0.0000000  0.6508444  3
   4929   4928   4931   4933     1  0.0000000  0.6508444  3
   4929   4928   4937   4938     1  0.0000000  1.2552000  3
   4929   4928   4937   4939     1  0.0000000  1.2552000  3
   4930   4928   4931   4934     1  0.0000000  0.6508444  3
   4930   4928   4931   4932     1  0.0000000  0.6508444  3
   4930   4928   4931   4933     1  0.0000000  0.6508444  3
   4930   4928   4937   4938     1  0.0000000  1.2552000  3
   4930   4928   4937   4939     1  0.0000000  1.2552000  3
   4931   4928   4937   4938     1  0.0000000  1.2552000  3
   4931   4928   4937   4939     1  0.0000000  1.2552000  3
   4932   4931   4928   4937     1  0.0000000  0.6508444  3
   4932   4931   4934   4940     1  0.0000000  1.0460000  1
   4932   4931   4934   4940     1  0.0000000  0.0000000  3
   4932   4931   4934   4935     1  0.0000000  0.6508444  3
   4932   4931   4934   4936     1  0.0000000  0.6508444  3
   4933   4931   4928   4937     1  0.0000000  0.6508444  3
   4933   4931   4934   4940     1  0.0000000  1.0460000  1
   4933   4931   4934   4940     1  0.0000000  0.0000000  3
   4933   4931   4934   4935     1  0.0000000  0.6508444  3
   4933   4931   4934   4936     1  0.0000000  0.6508444  3
   4941   4944   4947   4948     1  0.0000000  0.6508444  3
   4941   4944   4947   4949     1  0.0000000  0.6508444  3
   4942   4941   4944   4947     1  0.0000000  0.6508444  3
   4942   4941   4944   4945     1  0.0000000  0.6508444  3
   4942   4941   4944   4946     1  0.0000000  0.6508444  3
   4942   4941   4950   4951     1  0.0000000  1.2552000  3
   4942   4941   4950   4952     1  0.0000000  1.2552000  3
   4943   4941   4944   4947     1  0.0000000  0.6508444  3
   4943   4941   4944   4945     1  0.0000000  0.6508444  3
   4943   4941   4944   4946     1  0.0000000  0.6508444  3
   4943   4941   4950   4951     1  0.0000000  1.2552000  3
   4943   4941   4950   4952     1  0.0000000  1.2552000  3
   4944   4941   4950   4951     1  0.0000000  1.2552000  3
   4944   4941   4950   4952     1  0.0000000  1.2552000  3
   4945   4944   4947   4953     1  0.0000000  1.0460000  1
   4945   4944   4947   4953     1  0.0000000  0.0000000  3
   4945   4944   4947   4948     1  0.0000000  0.6508444  3
   4945   4944   4947   4949     1  0.0000000  0.6508444  3
   4945   4944   4941   4950     1  0.0000000  0.6508444  3
   4946   4944   4947   4953     1  0.0000000  1.0460000  1
   4946   4944   4947   4953     1  0.0000000  0.0000000  3
   4946   4944   4947   4948     1  0.0000000  0.6508444  3
   4946   4944   4947   4949     1  0.0000000  0.6508444  3
   4946   4944   4941   4950     1  0.0000000  0.6508444  3
   4954   4957   4960   4961     1  0.0000000  0.6508444  3
   4954   4957   4960   4962     1  0.0000000  0.6508444  3
   4955   4954   4957   4960     1  0.0000000  0.6508444  3
   4955   4954   4957   4958     1  0.0000000  0.6508444  3
   4955   4954   4957   4959     1  0.0000000  0.6508444  3
   4955   4954   4963   4964     1  0.0000000  1.2552000  3
   4955   4954   4963   4965     1  0.0000000  1.2552000  3
   4956   4954   4957   4960     1  0.0000000  0.6508444  3
   4956   4954   4957   4958     1  0.0000000  0.6508444  3
   4956   4954   4957   4959     1  0.0000000  0.6508444  3
   4956   4954   4963   4964     1  0.0000000  1.2552000  3
   4956   4954   4963   4965     1  0.0000000  1.2552000  3
   4957   4954   4963   4964     1  0.0000000  1.2552000  3
   4957   4954   4963   4965     1  0.0000000  1.2552000  3
   4958   4957   4954   4963     1  0.0000000  0.6508444  3
   4958   4957   4960   4966     1  0.0000000  1.0460000  1
   4958   4957   4960   4966     1  0.0000000  0.0000000  3
   4958   4957   4960   4961     1  0.0000000  0.6508444  3
   4958   4957   4960   4962     1  0.0000000  0.6508444  3
   4959   4957   4954   4963     1  0.0000000  0.6508444  3
   4959   4957   4960   4966     1  0.0000000  1.0460000  1
   4959   4957   4960   4966     1  0.0000000  0.0000000  3
   4959   4957   4960   4961     1  0.0000000  0.6508444  3
   4959   4957   4960   4962     1  0.0000000  0.6508444  3
   4967   4970   4973   4974     1  0.0000000  0.6508444  3
   4967   4970   4973   4975     1  0.0000000  0.6508444  3
   4968   4967   4970   4973     1  0.0000000  0.6508444  3
   4968   4967   4970   4971     1  0.0000000  0.6508444  3
   4968   4967   4970   4972     1  0.0000000  0.6508444  3
   4968   4967   4976   4977     1  0.0000000  1.2552000  3
   4968   4967   4976   4978     1  0.0000000  1.2552000  3
   4969   4967   4970   4973     1  0.0000000  0.6508444  3
   4969   4967   4970   4971     1  0.0000000  0.6508444  3
   4969   4967   4970   4972     1  0.0000000  0.6508444  3
   4969   4967   4976   4977     1  0.0000000  1.2552000  3
   4969   4967   4976   4978     1  0.0000000  1.2552000  3
   4970   4967   4976   4977     1  0.0000000  1.2552000  3
   4970   4967   4976   4978     1  0.0000000  1.2552000  3
   4971   4970   4973   4979     1  0.0000000  1.0460000  1
   4971   4970   4973   4979     1  0.0000000  0.0000000  3
   4971   4970   4973   4974     1  0.0000000  0.6508444  3
   4971   4970   4973   4975     1  0.0000000  0.6508444  3
   4971   4970   4967   4976     1  0.0000000  0.6508444  3
   4972   4970   4973   4979     1  0.0000000  1.0460000  1
   4972   4970   4973   4979     1  0.0000000  0.0000000  3
   4972   4970   4973   4974     1  0.0000000  0.6508444  3
   4972   4970   4973   4975     1  0.0000000  0.6508444  3
   4972   4970   4967   4976     1  0.0000000  0.6508444  3
   4980   4983   4986   4987     1  0.0000000  0.6508444  3
   4980   4983   4986   4988     1  0.0000000  0.6508444  3
   4981   4980   4983   4986     1  0.0000000  0.6508444  3
   4981   4980   4983   4984     1  0.0000000  0.6508444  3
   4981   4980   4983   4985     1  0.0000000  0.6508444  3
   4981   4980   4989   4990     1  0.0000000  1.2552000  3
   4981   4980   4989   4991     1  0.0000000  1.2552000  3
   4982   4980   4983   4986     1  0.0000000  0.6508444  3
   4982   4980   4983   4984     1  0.0000000  0.6508444  3
   4982   4980   4983   4985     1  0.0000000  0.6508444  3
   4982   4980   4989   4990     1  0.0000000  1.2552000  3
   4982   4980   4989   4991     1  0.0000000  1.2552000  3
   4983   4980   4989   4990     1  0.0000000  1.2552000  3
   4983   4980   4989   4991     1  0.0000000  1.2552000  3
   4984   4983   4980   4989     1  0.0000000  0.6508444  3
   4984   4983   4986   4992     1  0.0000000  1.0460000  1
   4984   4983   4986   4992     1  0.0000000  0.0000000  3
   4984   4983   4986   4987     1  0.0000000  0.6508444  3
   4984   4983   4986   4988     1  0.0000000  0.6508444  3
   4985   4983   4980   4989     1  0.0000000  0.6508444  3
   4985   4983   4986   4992     1  0.0000000  1.0460000  1
   4985   4983   4986   4992     1  0.0000000  0.0000000  3
   4985   4983   4986   4987     1  0.0000000  0.6508444  3
   4985   4983   4986   4988     1  0.0000000  0.6508444  3
   4993   4996   4999   5000     1  0.0000000  0.6508444  3
   4993   4996   4999   5001     1  0.0000000  0.6508444  3
   4994   4993   4996   4999     1  0.0000000  0.6508444  3
   4994   4993   4996   4997     1  0.0000000  0.6508444  3
   4994   4993   4996   4998     1  0.0000000  0.6508444  3
   4994   4993   5002   5003     1  0.0000000  1.2552000  3
   4994   4993   5002   5004     1  0.0000000  1.2552000  3
   4995   4993   4996   4999     1  0.0000000  0.6508444  3
   4995   4993   4996   4997     1  0.0000000  0.6508444  3
   4995   4993   4996   4998     1  0.0000000  0.6508444  3
   4995   4993   5002   5003     1  0.0000000  1.2552000  3
   4995   4993   5002   5004     1  0.0000000  1.2552000  3
   4996   4993   5002   5003     1  0.0000000  1.2552000  3
   4996   4993   5002   5004     1  0.0000000  1.2552000  3
   4997   4996   4999   5005     1  0.0000000  1.0460000  1
   4997   4996   4999   5005     1  0.0000000  0.0000000  3
   4997   4996   4999   5000     1  0.0000000  0.6508444  3
   4997   4996   4999   5001     1  0.0000000  0.6508444  3
   4997   4996   4993   5002     1  0.0000000  0.6508444  3
   4998   4996   4999   5005     1  0.0000000  1.0460000  1
   4998   4996   4999   5005     1  0.0000000  0.0000000  3
   4998   4996   4999   5000     1  0.0000000  0.6508444  3
   4998   4996   4999   5001     1  0.0000000  0.6508444  3
   4998   4996   4993   5002     1  0.0000000  0.6508444  3
   5006   5009   5012   5013     1  0.0000000  0.6508444  3
   5006   5009   5012   5014     1  0.0000000  0.6508444  3
   5007   5006   5009   5012     1  0.0000000  0.6508444  3
   5007   5006   5009   5010     1  0.0000000  0.6508444  3
   5007   5006   5009   5011     1  0.0000000  0.6508444  3
   5007   5006   5015   5016     1  0.0000000  1.2552000  3
   5007   5006   5015   5017     1  0.0000000  1.2552000  3
   5008   5006   5009   5012     1  0.0000000  0.6508444  3
   5008   5006   5009   5010     1  0.0000000  0.6508444  3
   5008   5006   5009   5011     1  0.0000000  0.6508444  3
   5008   5006   5015   5016     1  0.0000000  1.2552000  3
   5008   5006   5015   5017     1  0.0000000  1.2552000  3
   5009   5006   5015   5016     1  0.0000000  1.2552000  3
   5009   5006   5015   5017     1  0.0000000  1.2552000  3
   5010   5009   5006   5015     1  0.0000000  0.6508444  3
   5010   5009   5012   5018     1  0.0000000  1.0460000  1
   5010   5009   5012   5018     1  0.0000000  0.0000000  3
   5010   5009   5012   5013     1  0.0000000  0.6508444  3
   5010   5009   5012   5014     1  0.0000000  0.6508444  3
   5011   5009   5006   5015     1  0.0000000  0.6508444  3
   5011   5009   5012   5018     1  0.0000000  1.0460000  1
   5011   5009   5012   5018     1  0.0000000  0.0000000  3
   5011   5009   5012   5013     1  0.0000000  0.6508444  3
   5011   5009   5012   5014     1  0.0000000  0.6508444  3
   5019   5022   5025   5026     1  0.0000000  0.6508444  3
   5019   5022   5025   5027     1  0.0000000  0.6508444  3
   5020   5019   5022   5025     1  0.0000000  0.6508444  3
   5020   5019   5022   5023     1  0.0000000  0.6508444  3
   5020   5019   5022   5024     1  0.0000000  0.6508444  3
   5020   5019   5028   5029     1  0.0000000  1.2552000  3
   5020   5019   5028   5030     1  0.0000000  1.2552000  3
   5021   5019   5022   5025     1  0.0000000  0.6508444  3
   5021   5019   5022   5023     1  0.0000000  0.6508444  3
   5021   5019   5022   5024     1  0.0000000  0.6508444  3
   5021   5019   5028   5029     1  0.0000000  1.2552000  3
   5021   5019   5028   5030     1  0.0000000  1.2552000  3
   5022   5019   5028   5029     1  0.0000000  1.2552000  3
   5022   5019   5028   5030     1  0.0000000  1.2552000  3
   5023   5022   5025   5031     1  0.0000000  1.0460000  1
   5023   5022   5025   5031     1  0.0000000  0.0000000  3
   5023   5022   5025   5026     1  0.0000000  0.6508444  3
   5023   5022   5025   5027     1  0.0000000  0.6508444  3
   5023   5022   5019   5028     1  0.0000000  0.6508444  3
   5024   5022   5025   5031     1  0.0000000  1.0460000  1
   5024   5022   5025   5031     1  0.0000000  0.0000000  3
   5024   5022   5025   5026     1  0.0000000  0.6508444  3
   5024   5022   5025   5027     1  0.0000000  0.6508444  3
   5024   5022   5019   5028     1  0.0000000  0.6508444  3
   5032   5035   5038   5039     1  0.0000000  0.6508444  3
   5032   5035   5038   5040     1  0.0000000  0.6508444  3
   5033   5032   5035   5038     1  0.0000000  0.6508444  3
   5033   5032   5035   5036     1  0.0000000  0.6508444  3
   5033   5032   5035   5037     1  0.0000000  0.6508444  3
   5033   5032   5041   5042     1  0.0000000  1.2552000  3
   5033   5032   5041   5043     1  0.0000000  1.2552000  3
   5034   5032   5035   5038     1  0.0000000  0.6508444  3
   5034   5032   5035   5036     1  0.0000000  0.6508444  3
   5034   5032   5035   5037     1  0.0000000  0.6508444  3
   5034   5032   5041   5042     1  0.0000000  1.2552000  3
   5034   5032   5041   5043     1  0.0000000  1.2552000  3
   5035   5032   5041   5042     1  0.0000000  1.2552000  3
   5035   5032   5041   5043     1  0.0000000  1.2552000  3
   5036   5035   5032   5041     1  0.0000000  0.6508444  3
   5036   5035   5038   5044     1  0.0000000  1.0460000  1
   5036   5035   5038   5044     1  0.0000000  0.0000000  3
   5036   5035   5038   5039     1  0.0000000  0.6508444  3
   5036   5035   5038   5040     1  0.0000000  0.6508444  3
   5037   5035   5032   5041     1  0.0000000  0.6508444  3
   5037   5035   5038   5044     1  0.0000000  1.0460000  1
   5037   5035   5038   5044     1  0.0000000  0.0000000  3
   5037   5035   5038   5039     1  0.0000000  0.6508444  3
   5037   5035   5038   5040     1  0.0000000  0.6508444  3
   5045   5048   5051   5052     1  0.0000000  0.6508444  3
   5045   5048   5051   5053     1  0.0000000  0.6508444  3
   5046   5045   5048   5051     1  0.0000000  0.6508444  3
   5046   5045   5048   5049     1  0.0000000  0.6508444  3
   5046   5045   5048   5050     1  0.0000000  0.6508444  3
   5046   5045   5054   5055     1  0.0000000  1.2552000  3
   5046   5045   5054   5056     1  0.0000000  1.2552000  3
   5047   5045   5048   5051     1  0.0000000  0.6508444  3
   5047   5045   5048   5049     1  0.0000000  0.6508444  3
   5047   5045   5048   5050     1  0.0000000  0.6508444  3
   5047   5045   5054   5055     1  0.0000000  1.2552000  3
   5047   5045   5054   5056     1  0.0000000  1.2552000  3
   5048   5045   5054   5055     1  0.0000000  1.2552000  3
   5048   5045   5054   5056     1  0.0000000  1.2552000  3
   5049   5048   5051   5057     1  0.0000000  1.0460000  1
   5049   5048   5051   5057     1  0.0000000  0.0000000  3
   5049   5048   5051   5052     1  0.0000000  0.6508444  3
   5049   5048   5051   5053     1  0.0000000  0.6508444  3
   5049   5048   5045   5054     1  0.0000000  0.6508444  3
   5050   5048   5051   5057     1  0.0000000  1.0460000  1
   5050   5048   5051   5057     1  0.0000000  0.0000000  3
   5050   5048   5051   5052     1  0.0000000  0.6508444  3
   5050   5048   5051   5053     1  0.0000000  0.6508444  3
   5050   5048   5045   5054     1  0.0000000  0.6508444  3
   5058   5061   5064   5065     1  0.0000000  0.6508444  3
   5058   5061   5064   5066     1  0.0000000  0.6508444  3
   5059   5058   5061   5064     1  0.0000000  0.6508444  3
   5059   5058   5061   5062     1  0.0000000  0.6508444  3
   5059   5058   5061   5063     1  0.0000000  0.6508444  3
   5059   5058   5067   5068     1  0.0000000  1.2552000  3
   5059   5058   5067   5069     1  0.0000000  1.2552000  3
   5060   5058   5061   5064     1  0.0000000  0.6508444  3
   5060   5058   5061   5062     1  0.0000000  0.6508444  3
   5060   5058   5061   5063     1  0.0000000  0.6508444  3
   5060   5058   5067   5068     1  0.0000000  1.2552000  3
   5060   5058   5067   5069     1  0.0000000  1.2552000  3
   5061   5058   5067   5068     1  0.0000000  1.2552000  3
   5061   5058   5067   5069     1  0.0000000  1.2552000  3
   5062   5061   5058   5067     1  0.0000000  0.6508444  3
   5062   5061   5064   5070     1  0.0000000  1.0460000  1
   5062   5061   5064   5070     1  0.0000000  0.0000000  3
   5062   5061   5064   5065     1  0.0000000  0.6508444  3
   5062   5061   5064   5066     1  0.0000000  0.6508444  3
   5063   5061   5058   5067     1  0.0000000  0.6508444  3
   5063   5061   5064   5070     1  0.0000000  1.0460000  1
   5063   5061   5064   5070     1  0.0000000  0.0000000  3
   5063   5061   5064   5065     1  0.0000000  0.6508444  3
   5063   5061   5064   5066     1  0.0000000  0.6508444  3
   5071   5074   5077   5078     1  0.0000000  0.6508444  3
   5071   5074   5077   5079     1  0.0000000  0.6508444  3
   5072   5071   5074   5077     1  0.0000000  0.6508444  3
   5072   5071   5074   5075     1  0.0000000  0.6508444  3
   5072   5071   5074   5076     1  0.0000000  0.6508444  3
   5072   5071   5080   5081     1  0.0000000  1.2552000  3
   5072   5071   5080   5082     1  0.0000000  1.2552000  3
   5073   5071   5074   5077     1  0.0000000  0.6508444  3
   5073   5071   5074   5075     1  0.0000000  0.6508444  3
   5073   5071   5074   5076     1  0.0000000  0.6508444  3
   5073   5071   5080   5081     1  0.0000000  1.2552000  3
   5073   5071   5080   5082     1  0.0000000  1.2552000  3
   5074   5071   5080   5081     1  0.0000000  1.2552000  3
   5074   5071   5080   5082     1  0.0000000  1.2552000  3
   5075   5074   5077   5083     1  0.0000000  1.0460000  1
   5075   5074   5077   5083     1  0.0000000  0.0000000  3
   5075   5074   5077   5078     1  0.0000000  0.6508444  3
   5075   5074   5077   5079     1  0.0000000  0.6508444  3
   5075   5074   5071   5080     1  0.0000000  0.6508444  3
   5076   5074   5077   5083     1  0.0000000  1.0460000  1
   5076   5074   5077   5083     1  0.0000000  0.0000000  3
   5076   5074   5077   5078     1  0.0000000  0.6508444  3
   5076   5074   5077   5079     1  0.0000000  0.6508444  3
   5076   5074   5071   5080     1  0.0000000  0.6508444  3
   5084   5087   5090   5091     1  0.0000000  0.6508444  3
   5084   5087   5090   5092     1  0.0000000  0.6508444  3
   5085   5084   5087   5090     1  0.0000000  0.6508444  3
   5085   5084   5087   5088     1  0.0000000  0.6508444  3
   5085   5084   5087   5089     1  0.0000000  0.6508444  3
   5085   5084   5093   5094     1  0.0000000  1.2552000  3
   5085   5084   5093   5095     1  0.0000000  1.2552000  3
   5086   5084   5087   5090     1  0.0000000  0.6508444  3
   5086   5084   5087   5088     1  0.0000000  0.6508444  3
   5086   5084   5087   5089     1  0.0000000  0.6508444  3
   5086   5084   5093   5094     1  0.0000000  1.2552000  3
   5086   5084   5093   5095     1  0.0000000  1.2552000  3
   5087   5084   5093   5094     1  0.0000000  1.2552000  3
   5087   5084   5093   5095     1  0.0000000  1.2552000  3
   5088   5087   5084   5093     1  0.0000000  0.6508444  3
   5088   5087   5090   5096     1  0.0000000  1.0460000  1
   5088   5087   5090   5096     1  0.0000000  0.0000000  3
   5088   5087   5090   5091     1  0.0000000  0.6508444  3
   5088   5087   5090   5092     1  0.0000000  0.6508444  3
   5089   5087   5084   5093     1  0.0000000  0.6508444  3
   5089   5087   5090   5096     1  0.0000000  1.0460000  1
   5089   5087   5090   5096     1  0.0000000  0.0000000  3
   5089   5087   5090   5091     1  0.0000000  0.6508444  3
   5089   5087   5090   5092     1  0.0000000  0.6508444  3
   5097   5100   5103   5104     1  0.0000000  0.6508444  3
   5097   5100   5103   5105     1  0.0000000  0.6508444  3
   5098   5097   5100   5103     1  0.0000000  0.6508444  3
   5098   5097   5100   5101     1  0.0000000  0.6508444  3
   5098   5097   5100   5102     1  0.0000000  0.6508444  3
   5098   5097   5106   5107     1  0.0000000  1.2552000  3
   5098   5097   5106   5108     1  0.0000000  1.2552000  3
   5099   5097   5100   5103     1  0.0000000  0.6508444  3
   5099   5097   5100   5101     1  0.0000000  0.6508444  3
   5099   5097   5100   5102     1  0.0000000  0.6508444  3
   5099   5097   5106   5107     1  0.0000000  1.2552000  3
   5099   5097   5106   5108     1  0.0000000  1.2552000  3
   5100   5097   5106   5107     1  0.0000000  1.2552000  3
   5100   5097   5106   5108     1  0.0000000  1.2552000  3
   5101   5100   5103   5109     1  0.0000000  1.0460000  1
   5101   5100   5103   5109     1  0.0000000  0.0000000  3
   5101   5100   5103   5104     1  0.0000000  0.6508444  3
   5101   5100   5103   5105     1  0.0000000  0.6508444  3
   5101   5100   5097   5106     1  0.0000000  0.6508444  3
   5102   5100   5103   5109     1  0.0000000  1.0460000  1
   5102   5100   5103   5109     1  0.0000000  0.0000000  3
   5102   5100   5103   5104     1  0.0000000  0.6508444  3
   5102   5100   5103   5105     1  0.0000000  0.6508444  3
   5102   5100   5097   5106     1  0.0000000  0.6508444  3
   5110   5113   5116   5117     1  0.0000000  0.6508444  3
   5110   5113   5116   5118     1  0.0000000  0.6508444  3
   5111   5110   5113   5116     1  0.0000000  0.6508444  3
   5111   5110   5113   5114     1  0.0000000  0.6508444  3
   5111   5110   5113   5115     1  0.0000000  0.6508444  3
   5111   5110   5119   5120     1  0.0000000  1.2552000  3
   5111   5110   5119   5121     1  0.0000000  1.2552000  3
   5112   5110   5113   5116     1  0.0000000  0.6508444  3
   5112   5110   5113   5114     1  0.0000000  0.6508444  3
   5112   5110   5113   5115     1  0.0000000  0.6508444  3
   5112   5110   5119   5120     1  0.0000000  1.2552000  3
   5112   5110   5119   5121     1  0.0000000  1.2552000  3
   5113   5110   5119   5120     1  0.0000000  1.2552000  3
   5113   5110   5119   5121     1  0.0000000  1.2552000  3
   5114   5113   5110   5119     1  0.0000000  0.6508444  3
   5114   5113   5116   5122     1  0.0000000  1.0460000  1
   5114   5113   5116   5122     1  0.0000000  0.0000000  3
   5114   5113   5116   5117     1  0.0000000  0.6508444  3
   5114   5113   5116   5118     1  0.0000000  0.6508444  3
   5115   5113   5110   5119     1  0.0000000  0.6508444  3
   5115   5113   5116   5122     1  0.0000000  1.0460000  1
   5115   5113   5116   5122     1  0.0000000  0.0000000  3
   5115   5113   5116   5117     1  0.0000000  0.6508444  3
   5115   5113   5116   5118     1  0.0000000  0.6508444  3
   5123   5126   5129   5130     1  0.0000000  0.6508444  3
   5123   5126   5129   5131     1  0.0000000  0.6508444  3
   5124   5123   5126   5129     1  0.0000000  0.6508444  3
   5124   5123   5126   5127     1  0.0000000  0.6508444  3
   5124   5123   5126   5128     1  0.0000000  0.6508444  3
   5124   5123   5132   5133     1  0.0000000  1.2552000  3
   5124   5123   5132   5134     1  0.0000000  1.2552000  3
   5125   5123   5126   5129     1  0.0000000  0.6508444  3
   5125   5123   5126   5127     1  0.0000000  0.6508444  3
   5125   5123   5126   5128     1  0.0000000  0.6508444  3
   5125   5123   5132   5133     1  0.0000000  1.2552000  3
   5125   5123   5132   5134     1  0.0000000  1.2552000  3
   5126   5123   5132   5133     1  0.0000000  1.2552000  3
   5126   5123   5132   5134     1  0.0000000  1.2552000  3
   5127   5126   5129   5135     1  0.0000000  1.0460000  1
   5127   5126   5129   5135     1  0.0000000  0.0000000  3
   5127   5126   5129   5130     1  0.0000000  0.6508444  3
   5127   5126   5129   5131     1  0.0000000  0.6508444  3
   5127   5126   5123   5132     1  0.0000000  0.6508444  3
   5128   5126   5129   5135     1  0.0000000  1.0460000  1
   5128   5126   5129   5135     1  0.0000000  0.0000000  3
   5128   5126   5129   5130     1  0.0000000  0.6508444  3
   5128   5126   5129   5131     1  0.0000000  0.6508444  3
   5128   5126   5123   5132     1  0.0000000  0.6508444  3
   5136   5139   5142   5143     1  0.0000000  0.6508444  3
   5136   5139   5142   5144     1  0.0000000  0.6508444  3
   5137   5136   5139   5142     1  0.0000000  0.6508444  3
   5137   5136   5139   5140     1  0.0000000  0.6508444  3
   5137   5136   5139   5141     1  0.0000000  0.6508444  3
   5137   5136   5145   5146     1  0.0000000  1.2552000  3
   5137   5136   5145   5147     1  0.0000000  1.2552000  3
   5138   5136   5139   5142     1  0.0000000  0.6508444  3
   5138   5136   5139   5140     1  0.0000000  0.6508444  3
   5138   5136   5139   5141     1  0.0000000  0.6508444  3
   5138   5136   5145   5146     1  0.0000000  1.2552000  3
   5138   5136   5145   5147     1  0.0000000  1.2552000  3
   5139   5136   5145   5146     1  0.0000000  1.2552000  3
   5139   5136   5145   5147     1  0.0000000  1.2552000  3
   5140   5139   5136   5145     1  0.0000000  0.6508444  3
   5140   5139   5142   5148     1  0.0000000  1.0460000  1
   5140   5139   5142   5148     1  0.0000000  0.0000000  3
   5140   5139   5142   5143     1  0.0000000  0.6508444  3
   5140   5139   5142   5144     1  0.0000000  0.6508444  3
   5141   5139   5136   5145     1  0.0000000  0.6508444  3
   5141   5139   5142   5148     1  0.0000000  1.0460000  1
   5141   5139   5142   5148     1  0.0000000  0.0000000  3
   5141   5139   5142   5143     1  0.0000000  0.6508444  3
   5141   5139   5142   5144     1  0.0000000  0.6508444  3
   5149   5152   5155   5156     1  0.0000000  0.6508444  3
   5149   5152   5155   5157     1  0.0000000  0.6508444  3
   5150   5149   5152   5155     1  0.0000000  0.6508444  3
   5150   5149   5152   5153     1  0.0000000  0.6508444  3
   5150   5149   5152   5154     1  0.0000000  0.6508444  3
   5150   5149   5158   5159     1  0.0000000  1.2552000  3
   5150   5149   5158   5160     1  0.0000000  1.2552000  3
   5151   5149   5152   5155     1  0.0000000  0.6508444  3
   5151   5149   5152   5153     1  0.0000000  0.6508444  3
   5151   5149   5152   5154     1  0.0000000  0.6508444  3
   5151   5149   5158   5159     1  0.0000000  1.2552000  3
   5151   5149   5158   5160     1  0.0000000  1.2552000  3
   5152   5149   5158   5159     1  0.0000000  1.2552000  3
   5152   5149   5158   5160     1  0.0000000  1.2552000  3
   5153   5152   5155   5161     1  0.0000000  1.0460000  1
   5153   5152   5155   5161     1  0.0000000  0.0000000  3
   5153   5152   5155   5156     1  0.0000000  0.6508444  3
   5153   5152   5155   5157     1  0.0000000  0.6508444  3
   5153   5152   5149   5158     1  0.0000000  0.6508444  3
   5154   5152   5155   5161     1  0.0000000  1.0460000  1
   5154   5152   5155   5161     1  0.0000000  0.0000000  3
   5154   5152   5155   5156     1  0.0000000  0.6508444  3
   5154   5152   5155   5157     1  0.0000000  0.6508444  3
   5154   5152   5149   5158     1  0.0000000  0.6508444  3
   5162   5165   5168   5169     1  0.0000000  0.6508444  3
   5162   5165   5168   5170     1  0.0000000  0.6508444  3
   5163   5162   5165   5168     1  0.0000000  0.6508444  3
   5163   5162   5165   5166     1  0.0000000  0.6508444  3
   5163   5162   5165   5167     1  0.0000000  0.6508444  3
   5163   5162   5171   5172     1  0.0000000  1.2552000  3
   5163   5162   5171   5173     1  0.0000000  1.2552000  3
   5164   5162   5165   5168     1  0.0000000  0.6508444  3
   5164   5162   5165   5166     1  0.0000000  0.6508444  3
   5164   5162   5165   5167     1  0.0000000  0.6508444  3
   5164   5162   5171   5172     1  0.0000000  1.2552000  3
   5164   5162   5171   5173     1  0.0000000  1.2552000  3
   5165   5162   5171   5172     1  0.0000000  1.2552000  3
   5165   5162   5171   5173     1  0.0000000  1.2552000  3
   5166   5165   5162   5171     1  0.0000000  0.6508444  3
   5166   5165   5168   5174     1  0.0000000  1.0460000  1
   5166   5165   5168   5174     1  0.0000000  0.0000000  3
   5166   5165   5168   5169     1  0.0000000  0.6508444  3
   5166   5165   5168   5170     1  0.0000000  0.6508444  3
   5167   5165   5162   5171     1  0.0000000  0.6508444  3
   5167   5165   5168   5174     1  0.0000000  1.0460000  1
   5167   5165   5168   5174     1  0.0000000  0.0000000  3
   5167   5165   5168   5169     1  0.0000000  0.6508444  3
   5167   5165   5168   5170     1  0.0000000  0.6508444  3
   5175   5178   5181   5182     1  0.0000000  0.6508444  3
   5175   5178   5181   5183     1  0.0000000  0.6508444  3
   5176   5175   5178   5181     1  0.0000000  0.6508444  3
   5176   5175   5178   5179     1  0.0000000  0.6508444  3
   5176   5175   5178   5180     1  0.0000000  0.6508444  3
   5176   5175   5184   5185     1  0.0000000  1.2552000  3
   5176   5175   5184   5186     1  0.0000000  1.2552000  3
   5177   5175   5178   5181     1  0.0000000  0.6508444  3
   5177   5175   5178   5179     1  0.0000000  0.6508444  3
   5177   5175   5178   5180     1  0.0000000  0.6508444  3
   5177   5175   5184   5185     1  0.0000000  1.2552000  3
   5177   5175   5184   5186     1  0.0000000  1.2552000  3
   5178   5175   5184   5185     1  0.0000000  1.2552000  3
   5178   5175   5184   5186     1  0.0000000  1.2552000  3
   5179   5178   5181   5187     1  0.0000000  1.0460000  1
   5179   5178   5181   5187     1  0.0000000  0.0000000  3
   5179   5178   5181   5182     1  0.0000000  0.6508444  3
   5179   5178   5181   5183     1  0.0000000  0.6508444  3
   5179   5178   5175   5184     1  0.0000000  0.6508444  3
   5180   5178   5181   5187     1  0.0000000  1.0460000  1
   5180   5178   5181   5187     1  0.0000000  0.0000000  3
   5180   5178   5181   5182     1  0.0000000  0.6508444  3
   5180   5178   5181   5183     1  0.0000000  0.6508444  3
   5180   5178   5175   5184     1  0.0000000  0.6508444  3
   5188   5191   5194   5195     1  0.0000000  0.6508444  3
   5188   5191   5194   5196     1  0.0000000  0.6508444  3
   5189   5188   5191   5194     1  0.0000000  0.6508444  3
   5189   5188   5191   5192     1  0.0000000  0.6508444  3
   5189   5188   5191   5193     1  0.0000000  0.6508444  3
   5189   5188   5197   5198     1  0.0000000  1.2552000  3
   5189   5188   5197   5199     1  0.0000000  1.2552000  3
   5190   5188   5191   5194     1  0.0000000  0.6508444  3
   5190   5188   5191   5192     1  0.0000000  0.6508444  3
   5190   5188   5191   5193     1  0.0000000  0.6508444  3
   5190   5188   5197   5198     1  0.0000000  1.2552000  3
   5190   5188   5197   5199     1  0.0000000  1.2552000  3
   5191   5188   5197   5198     1  0.0000000  1.2552000  3
   5191   5188   5197   5199     1  0.0000000  1.2552000  3
   5192   5191   5188   5197     1  0.0000000  0.6508444  3
   5192   5191   5194   5200     1  0.0000000  1.0460000  1
   5192   5191   5194   5200     1  0.0000000  0.0000000  3
   5192   5191   5194   5195     1  0.0000000  0.6508444  3
   5192   5191   5194   5196     1  0.0000000  0.6508444  3
   5193   5191   5188   5197     1  0.0000000  0.6508444  3
   5193   5191   5194   5200     1  0.0000000  1.0460000  1
   5193   5191   5194   5200     1  0.0000000  0.0000000  3
   5193   5191   5194   5195     1  0.0000000  0.6508444  3
   5193   5191   5194   5196     1  0.0000000  0.6508444  3
   5201   5204   5207   5208     1  0.0000000  0.6508444  3
   5201   5204   5207   5209     1  0.0000000  0.6508444  3
   5202   5201   5204   5207     1  0.0000000  0.6508444  3
   5202   5201   5204   5205     1  0.0000000  0.6508444  3
   5202   5201   5204   5206     1  0.0000000  0.6508444  3
   5202   5201   5210   5211     1  0.0000000  1.2552000  3
   5202   5201   5210   5212     1  0.0000000  1.2552000  3
   5203   5201   5204   5207     1  0.0000000  0.6508444  3
   5203   5201   5204   5205     1  0.0000000  0.6508444  3
   5203   5201   5204   5206     1  0.0000000  0.6508444  3
   5203   5201   5210   5211     1  0.0000000  1.2552000  3
   5203   5201   5210   5212     1  0.0000000  1.2552000  3
   5204   5201   5210   5211     1  0.0000000  1.2552000  3
   5204   5201   5210   5212     1  0.0000000  1.2552000  3
   5205   5204   5207   5213     1  0.0000000  1.0460000  1
   5205   5204   5207   5213     1  0.0000000  0.0000000  3
   5205   5204   5207   5208     1  0.0000000  0.6508444  3
   5205   5204   5207   5209     1  0.0000000  0.6508444  3
   5205   5204   5201   5210     1  0.0000000  0.6508444  3
   5206   5204   5207   5213     1  0.0000000  1.0460000  1
   5206   5204   5207   5213     1  0.0000000  0.0000000  3
   5206   5204   5207   5208     1  0.0000000  0.6508444  3
   5206   5204   5207   5209     1  0.0000000  0.6508444  3
   5206   5204   5201   5210     1  0.0000000  0.6508444  3
   5214   5217   5220   5221     1  0.0000000  0.6508444  3
   5214   5217   5220   5222     1  0.0000000  0.6508444  3
   5215   5214   5217   5220     1  0.0000000  0.6508444  3
   5215   5214   5217   5218     1  0.0000000  0.6508444  3
   5215   5214   5217   5219     1  0.0000000  0.6508444  3
   5215   5214   5223   5224     1  0.0000000  1.2552000  3
   5215   5214   5223   5225     1  0.0000000  1.2552000  3
   5216   5214   5217   5220     1  0.0000000  0.6508444  3
   5216   5214   5217   5218     1  0.0000000  0.6508444  3
   5216   5214   5217   5219     1  0.0000000  0.6508444  3
   5216   5214   5223   5224     1  0.0000000  1.2552000  3
   5216   5214   5223   5225     1  0.0000000  1.2552000  3
   5217   5214   5223   5224     1  0.0000000  1.2552000  3
   5217   5214   5223   5225     1  0.0000000  1.2552000  3
   5218   5217   5214   5223     1  0.0000000  0.6508444  3
   5218   5217   5220   5226     1  0.0000000  1.0460000  1
   5218   5217   5220   5226     1  0.0000000  0.0000000  3
   5218   5217   5220   5221     1  0.0000000  0.6508444  3
   5218   5217   5220   5222     1  0.0000000  0.6508444  3
   5219   5217   5214   5223     1  0.0000000  0.6508444  3
   5219   5217   5220   5226     1  0.0000000  1.0460000  1
   5219   5217   5220   5226     1  0.0000000  0.0000000  3
   5219   5217   5220   5221     1  0.0000000  0.6508444  3
   5219   5217   5220   5222     1  0.0000000  0.6508444  3
   5227   5230   5233   5234     1  0.0000000  0.6508444  3
   5227   5230   5233   5235     1  0.0000000  0.6508444  3
   5228   5227   5230   5233     1  0.0000000  0.6508444  3
   5228   5227   5230   5231     1  0.0000000  0.6508444  3
   5228   5227   5230   5232     1  0.0000000  0.6508444  3
   5228   5227   5236   5237     1  0.0000000  1.2552000  3
   5228   5227   5236   5238     1  0.0000000  1.2552000  3
   5229   5227   5230   5233     1  0.0000000  0.6508444  3
   5229   5227   5230   5231     1  0.0000000  0.6508444  3
   5229   5227   5230   5232     1  0.0000000  0.6508444  3
   5229   5227   5236   5237     1  0.0000000  1.2552000  3
   5229   5227   5236   5238     1  0.0000000  1.2552000  3
   5230   5227   5236   5237     1  0.0000000  1.2552000  3
   5230   5227   5236   5238     1  0.0000000  1.2552000  3
   5231   5230   5233   5239     1  0.0000000  1.0460000  1
   5231   5230   5233   5239     1  0.0000000  0.0000000  3
   5231   5230   5233   5234     1  0.0000000  0.6508444  3
   5231   5230   5233   5235     1  0.0000000  0.6508444  3
   5231   5230   5227   5236     1  0.0000000  0.6508444  3
   5232   5230   5233   5239     1  0.0000000  1.0460000  1
   5232   5230   5233   5239     1  0.0000000  0.0000000  3
   5232   5230   5233   5234     1  0.0000000  0.6508444  3
   5232   5230   5233   5235     1  0.0000000  0.6508444  3
   5232   5230   5227   5236     1  0.0000000  0.6508444  3
   5240   5243   5246   5247     1  0.0000000  0.6508444  3
   5240   5243   5246   5248     1  0.0000000  0.6508444  3
   5241   5240   5243   5246     1  0.0000000  0.6508444  3
   5241   5240   5243   5244     1  0.0000000  0.6508444  3
   5241   5240   5243   5245     1  0.0000000  0.6508444  3
   5241   5240   5249   5250     1  0.0000000  1.2552000  3
   5241   5240   5249   5251     1  0.0000000  1.2552000  3
   5242   5240   5243   5246     1  0.0000000  0.6508444  3
   5242   5240   5243   5244     1  0.0000000  0.6508444  3
   5242   5240   5243   5245     1  0.0000000  0.6508444  3
   5242   5240   5249   5250     1  0.0000000  1.2552000  3
   5242   5240   5249   5251     1  0.0000000  1.2552000  3
   5243   5240   5249   5250     1  0.0000000  1.2552000  3
   5243   5240   5249   5251     1  0.0000000  1.2552000  3
   5244   5243   5240   5249     1  0.0000000  0.6508444  3
   5244   5243   5246   5252     1  0.0000000  1.0460000  1
   5244   5243   5246   5252     1  0.0000000  0.0000000  3
   5244   5243   5246   5247     1  0.0000000  0.6508444  3
   5244   5243   5246   5248     1  0.0000000  0.6508444  3
   5245   5243   5240   5249     1  0.0000000  0.6508444  3
   5245   5243   5246   5252     1  0.0000000  1.0460000  1
   5245   5243   5246   5252     1  0.0000000  0.0000000  3
   5245   5243   5246   5247     1  0.0000000  0.6508444  3
   5245   5243   5246   5248     1  0.0000000  0.6508444  3
   5253   5256   5259   5260     1  0.0000000  0.6508444  3
   5253   5256   5259   5261     1  0.0000000  0.6508444  3
   5254   5253   5256   5259     1  0.0000000  0.6508444  3
   5254   5253   5256   5257     1  0.0000000  0.6508444  3
   5254   5253   5256   5258     1  0.0000000  0.6508444  3
   5254   5253   5262   5263     1  0.0000000  1.2552000  3
   5254   5253   5262   5264     1  0.0000000  1.2552000  3
   5255   5253   5256   5259     1  0.0000000  0.6508444  3
   5255   5253   5256   5257     1  0.0000000  0.6508444  3
   5255   5253   5256   5258     1  0.0000000  0.6508444  3
   5255   5253   5262   5263     1  0.0000000  1.2552000  3
   5255   5253   5262   5264     1  0.0000000  1.2552000  3
   5256   5253   5262   5263     1  0.0000000  1.2552000  3
   5256   5253   5262   5264     1  0.0000000  1.2552000  3
   5257   5256   5259   5265     1  0.0000000  1.0460000  1
   5257   5256   5259   5265     1  0.0000000  0.0000000  3
   5257   5256   5259   5260     1  0.0000000  0.6508444  3
   5257   5256   5259   5261     1  0.0000000  0.6508444  3
   5257   5256   5253   5262     1  0.0000000  0.6508444  3
   5258   5256   5259   5265     1  0.0000000  1.0460000  1
   5258   5256   5259   5265     1  0.0000000  0.0000000  3
   5258   5256   5259   5260     1  0.0000000  0.6508444  3
   5258   5256   5259   5261     1  0.0000000  0.6508444  3
   5258   5256   5253   5262     1  0.0000000  0.6508444  3
   5266   5269   5272   5273     1  0.0000000  0.6508444  3
   5266   5269   5272   5274     1  0.0000000  0.6508444  3
   5267   5266   5269   5272     1  0.0000000  0.6508444  3
   5267   5266   5269   5270     1  0.0000000  0.6508444  3
   5267   5266   5269   5271     1  0.0000000  0.6508444  3
   5267   5266   5275   5276     1  0.0000000  1.2552000  3
   5267   5266   5275   5277     1  0.0000000  1.2552000  3
   5268   5266   5269   5272     1  0.0000000  0.6508444  3
   5268   5266   5269   5270     1  0.0000000  0.6508444  3
   5268   5266   5269   5271     1  0.0000000  0.6508444  3
   5268   5266   5275   5276     1  0.0000000  1.2552000  3
   5268   5266   5275   5277     1  0.0000000  1.2552000  3
   5269   5266   5275   5276     1  0.0000000  1.2552000  3
   5269   5266   5275   5277     1  0.0000000  1.2552000  3
   5270   5269   5266   5275     1  0.0000000  0.6508444  3
   5270   5269   5272   5278     1  0.0000000  1.0460000  1
   5270   5269   5272   5278     1  0.0000000  0.0000000  3
   5270   5269   5272   5273     1  0.0000000  0.6508444  3
   5270   5269   5272   5274     1  0.0000000  0.6508444  3
   5271   5269   5266   5275     1  0.0000000  0.6508444  3
   5271   5269   5272   5278     1  0.0000000  1.0460000  1
   5271   5269   5272   5278     1  0.0000000  0.0000000  3
   5271   5269   5272   5273     1  0.0000000  0.6508444  3
   5271   5269   5272   5274     1  0.0000000  0.6508444  3
   5279   5282   5285   5286     1  0.0000000  0.6508444  3
   5279   5282   5285   5287     1  0.0000000  0.6508444  3
   5280   5279   5282   5285     1  0.0000000  0.6508444  3
   5280   5279   5282   5283     1  0.0000000  0.6508444  3
   5280   5279   5282   5284     1  0.0000000  0.6508444  3
   5280   5279   5288   5289     1  0.0000000  1.2552000  3
   5280   5279   5288   5290     1  0.0000000  1.2552000  3
   5281   5279   5282   5285     1  0.0000000  0.6508444  3
   5281   5279   5282   5283     1  0.0000000  0.6508444  3
   5281   5279   5282   5284     1  0.0000000  0.6508444  3
   5281   5279   5288   5289     1  0.0000000  1.2552000  3
   5281   5279   5288   5290     1  0.0000000  1.2552000  3
   5282   5279   5288   5289     1  0.0000000  1.2552000  3
   5282   5279   5288   5290     1  0.0000000  1.2552000  3
   5283   5282   5285   5291     1  0.0000000  1.0460000  1
   5283   5282   5285   5291     1  0.0000000  0.0000000  3
   5283   5282   5285   5286     1  0.0000000  0.6508444  3
   5283   5282   5285   5287     1  0.0000000  0.6508444  3
   5283   5282   5279   5288     1  0.0000000  0.6508444  3
   5284   5282   5285   5291     1  0.0000000  1.0460000  1
   5284   5282   5285   5291     1  0.0000000  0.0000000  3
   5284   5282   5285   5286     1  0.0000000  0.6508444  3
   5284   5282   5285   5287     1  0.0000000  0.6508444  3
   5284   5282   5279   5288     1  0.0000000  0.6508444  3
   5292   5295   5298   5299     1  0.0000000  0.6508444  3
   5292   5295   5298   5300     1  0.0000000  0.6508444  3
   5293   5292   5295   5298     1  0.0000000  0.6508444  3
   5293   5292   5295   5296     1  0.0000000  0.6508444  3
   5293   5292   5295   5297     1  0.0000000  0.6508444  3
   5293   5292   5301   5302     1  0.0000000  1.2552000  3
   5293   5292   5301   5303     1  0.0000000  1.2552000  3
   5294   5292   5295   5298     1  0.0000000  0.6508444  3
   5294   5292   5295   5296     1  0.0000000  0.6508444  3
   5294   5292   5295   5297     1  0.0000000  0.6508444  3
   5294   5292   5301   5302     1  0.0000000  1.2552000  3
   5294   5292   5301   5303     1  0.0000000  1.2552000  3
   5295   5292   5301   5302     1  0.0000000  1.2552000  3
   5295   5292   5301   5303     1  0.0000000  1.2552000  3
   5296   5295   5292   5301     1  0.0000000  0.6508444  3
   5296   5295   5298   5304     1  0.0000000  1.0460000  1
   5296   5295   5298   5304     1  0.0000000  0.0000000  3
   5296   5295   5298   5299     1  0.0000000  0.6508444  3
   5296   5295   5298   5300     1  0.0000000  0.6508444  3
   5297   5295   5292   5301     1  0.0000000  0.6508444  3
   5297   5295   5298   5304     1  0.0000000  1.0460000  1
   5297   5295   5298   5304     1  0.0000000  0.0000000  3
   5297   5295   5298   5299     1  0.0000000  0.6508444  3
   5297   5295   5298   5300     1  0.0000000  0.6508444  3
   5305   5308   5311   5312     1  0.0000000  0.6508444  3
   5305   5308   5311   5313     1  0.0000000  0.6508444  3
   5306   5305   5308   5311     1  0.0000000  0.6508444  3
   5306   5305   5308   5309     1  0.0000000  0.6508444  3
   5306   5305   5308   5310     1  0.0000000  0.6508444  3
   5306   5305   5314   5315     1  0.0000000  1.2552000  3
   5306   5305   5314   5316     1  0.0000000  1.2552000  3
   5307   5305   5308   5311     1  0.0000000  0.6508444  3
   5307   5305   5308   5309     1  0.0000000  0.6508444  3
   5307   5305   5308   5310     1  0.0000000  0.6508444  3
   5307   5305   5314   5315     1  0.0000000  1.2552000  3
   5307   5305   5314   5316     1  0.0000000  1.2552000  3
   5308   5305   5314   5315     1  0.0000000  1.2552000  3
   5308   5305   5314   5316     1  0.0000000  1.2552000  3
   5309   5308   5311   5317     1  0.0000000  1.0460000  1
   5309   5308   5311   5317     1  0.0000000  0.0000000  3
   5309   5308   5311   5312     1  0.0000000  0.6508444  3
   5309   5308   5311   5313     1  0.0000000  0.6508444  3
   5309   5308   5305   5314     1  0.0000000  0.6508444  3
   5310   5308   5311   5317     1  0.0000000  1.0460000  1
   5310   5308   5311   5317     1  0.0000000  0.0000000  3
   5310   5308   5311   5312     1  0.0000000  0.6508444  3
   5310   5308   5311   5313     1  0.0000000  0.6508444  3
   5310   5308   5305   5314     1  0.0000000  0.6508444  3

;[ system ]
;; Name
;Generic title
;
;[ molecules ]
;; Compound       #mols
;g6npocore_petim     1
