;
;   File g2dpocore_petim.itp  was generated
;   By user: sairam (1000)
;   On host: sairam
;   At date: Wed. January  3 10:00:54 2025
;
;   This is a standalone topology file
;
;   Created by:
;   ParmEd:       amb2gro_top_gro.py, VERSION 3.4.1
;   Executable:   amb2gro_top_gro.py
;   Library dir:  /usr/local/gromacs/share/gromacs/top
;   Command line:
;     ./amb2gro_top_gro.py -p g2dpocore_petim.prmtop -c g2dpocore_petim.inpcrd -t g2dpocore_petim.itp -g g2dpocore_petim.gro -b g2dpocore_petim.pdb
;

;[ defaults ]
;; nbfunc        comb-rule       gen-pairs       fudgeLJ fudgeQQ
;1               2               yes             0.5          0.83333333  
;
;[ atomtypes ]
;; name    at.num    mass    charge ptype  sigma      epsilon
;os             8  16.000000  0.00000000  A     0.30000123        0.71128
;c3             6  12.010000  0.00000000  A     0.33996695      0.4577296
;h1             1   1.008000  0.00000000  A      0.2471353      0.0656888
;hc             1   1.008000  0.00000000  A     0.26495328      0.0656888
;hx             1   1.008000  0.00000000  A     0.19599772      0.0656888
;n4             7  14.010000  0.00000000  A     0.32499985        0.71128
;hn             1   1.008000  0.00000000  A     0.10690785      0.0656888


[ moleculetype ]
; Name            nrexcl
g2dpocore_petim          3

[ atoms ]
;   nr       type  resnr residue  atom   cgnr    charge       mass  typeB    chargeB      massB
; residue    1 aaa rtp aaa q 2.0
    1         os      1    aaa     O1      1 -0.58111400  16.000000   ; qtot -0.581114
    2         c3      1    aaa     C1      2 0.17711200  12.010000   ; qtot -0.404002
    3         h1      1    aaa     H1      3 0.04565000   1.008000   ; qtot -0.358352
    4         h1      1    aaa     H2      4 0.04565000   1.008000   ; qtot -0.312702
    5         c3      1    aaa     C2      5 0.17711200  12.010000   ; qtot -0.135590
    6         h1      1    aaa     H3      6 0.04565000   1.008000   ; qtot -0.089940
    7         h1      1    aaa     H4      7 0.04565000   1.008000   ; qtot -0.044290
    8         c3      1    aaa     C3      8 0.15102100  12.010000   ; qtot 0.106731
    9         hc      1    aaa     H5      9 0.02538500   1.008000   ; qtot 0.132116
   10         hc      1    aaa     H6     10 0.02538500   1.008000   ; qtot 0.157501
   11         c3      1    aaa     C4     11 0.15102100  12.010000   ; qtot 0.308522
   12         hc      1    aaa     H7     12 0.02538500   1.008000   ; qtot 0.333907
   13         hc      1    aaa     H8     13 0.02538500   1.008000   ; qtot 0.359292
   14         c3      1    aaa     C5     14 -0.29474300  12.010000   ; qtot 0.064549
   15         hx      1    aaa     H9     15 0.12534200   1.008000   ; qtot 0.189891
   16         hx      1    aaa    H10     16 0.12534200   1.008000   ; qtot 0.315233
   17         c3      1    aaa     C6     17 -0.29474300  12.010000   ; qtot 0.020490
   18         hx      1    aaa    H11     18 0.12534200   1.008000   ; qtot 0.145832
   19         hx      1    aaa    H12     19 0.12534200   1.008000   ; qtot 0.271174
   20         n4      1    aaa     N1     20 -0.11447800  14.010000   ; qtot 0.156696
   21         n4      1    aaa     N2     21 -0.11447800  14.010000   ; qtot 0.042218
   22         c3      1    aaa     C7     22 -0.03432800  12.010000   ; qtot 0.007890
   23         hx      1    aaa    H13     23 0.10515400   1.008000   ; qtot 0.113044
   24         hx      1    aaa    H14     24 0.10515400   1.008000   ; qtot 0.218198
   25         c3      1    aaa     C8     25 -0.03432800  12.010000   ; qtot 0.183870
   26         hx      1    aaa    H15     26 0.10515400   1.008000   ; qtot 0.289024
   27         hx      1    aaa    H16     27 0.10515400   1.008000   ; qtot 0.394178
   28         c3      1    aaa     C9     28 -0.03432800  12.010000   ; qtot 0.359850
   29         hx      1    aaa    H17     29 0.10515400   1.008000   ; qtot 0.465004
   30         hx      1    aaa    H18     30 0.10515400   1.008000   ; qtot 0.570158
   31         c3      1    aaa    C10     31 -0.03432800  12.010000   ; qtot 0.535830
   32         hx      1    aaa    H19     32 0.10515400   1.008000   ; qtot 0.640984
   33         hx      1    aaa    H20     33 0.10515400   1.008000   ; qtot 0.746138
   34         c3      1    aaa    C11     34 -0.06183200  12.010000   ; qtot 0.684306
   35         hc      1    aaa    H21     35 0.08865200   1.008000   ; qtot 0.772958
   36         hc      1    aaa    H22     36 0.08865200   1.008000   ; qtot 0.861610
   37         c3      1    aaa    C12     37 -0.06183200  12.010000   ; qtot 0.799778
   38         hc      1    aaa    H23     38 0.08865200   1.008000   ; qtot 0.888430
   39         hc      1    aaa    H24     39 0.08865200   1.008000   ; qtot 0.977082
   40         c3      1    aaa    C13     40 -0.06183200  12.010000   ; qtot 0.915250
   41         hc      1    aaa    H25     41 0.08865200   1.008000   ; qtot 1.003902
   42         hc      1    aaa    H26     42 0.08865200   1.008000   ; qtot 1.092554
   43         c3      1    aaa    C14     43 -0.06183200  12.010000   ; qtot 1.030722
   44         hc      1    aaa    H27     44 0.08865200   1.008000   ; qtot 1.119374
   45         hc      1    aaa    H28     45 0.08865200   1.008000   ; qtot 1.208026
   46         c3      1    aaa    C15     46 -0.22217300  12.010000   ; qtot 0.985853
   47         hc      1    aaa    H29     47 0.16441900   1.008000   ; qtot 1.150272
   48         hc      1    aaa    H30     48 0.16441900   1.008000   ; qtot 1.314691
   49         c3      1    aaa    C16     49 -0.22217300  12.010000   ; qtot 1.092518
   50         hc      1    aaa    H31     50 0.16441900   1.008000   ; qtot 1.256937
   51         hc      1    aaa    H32     51 0.16441900   1.008000   ; qtot 1.421356
   52         c3      1    aaa    C17     52 -0.22217300  12.010000   ; qtot 1.199183
   53         hc      1    aaa    H33     53 0.16441900   1.008000   ; qtot 1.363602
   54         hc      1    aaa    H34     54 0.16441900   1.008000   ; qtot 1.528021
   55         c3      1    aaa    C18     55 -0.22217300  12.010000   ; qtot 1.305848
   56         hc      1    aaa    H35     56 0.16441900   1.008000   ; qtot 1.470267
   57         hc      1    aaa    H36     57 0.16441900   1.008000   ; qtot 1.634686
   58         hn      1    aaa    H38     58 0.18266300   1.008000   ; qtot 1.817349
   59         hn      1    aaa    H37     59 0.18266300   1.008000   ; qtot 2.000012
; residue    2 bbb rtp bbb q 1.0
   60         n4      2    bbb     N1     60 0.03726400  14.010000   ; qtot 2.037276
   61         c3      2    bbb     C1     61 -0.07020100  12.010000   ; qtot 1.967075
   62         hx      2    bbb     H1     62 0.12219000   1.008000   ; qtot 2.089265
   63         hx      2    bbb     H2     63 0.12219000   1.008000   ; qtot 2.211455
   64         c3      2    bbb     C2     64 -0.07020100  12.010000   ; qtot 2.141254
   65         hx      2    bbb     H3     65 0.12219000   1.008000   ; qtot 2.263444
   66         hx      2    bbb     H4     66 0.12219000   1.008000   ; qtot 2.385634
   67         c3      2    bbb     C3     67 -0.39007700  12.010000   ; qtot 1.995557
   68         hx      2    bbb     H5     68 0.14940300   1.008000   ; qtot 2.144960
   69         hx      2    bbb     H6     69 0.14940300   1.008000   ; qtot 2.294363
   70         c3      2    bbb     C4     70 0.18057300  12.010000   ; qtot 2.474936
   71         hc      2    bbb     H7     71 0.01788900   1.008000   ; qtot 2.492825
   72         hc      2    bbb     H8     72 0.01788900   1.008000   ; qtot 2.510714
   73         c3      2    bbb     C5     73 -0.11337700  12.010000   ; qtot 2.397337
   74         hc      2    bbb     H9     74 0.09515400   1.008000   ; qtot 2.492491
   75         hc      2    bbb    H10     75 0.09515400   1.008000   ; qtot 2.587645
   76         c3      2    bbb     C6     76 -0.11337700  12.010000   ; qtot 2.474268
   77         hc      2    bbb    H11     77 0.09515400   1.008000   ; qtot 2.569422
   78         hc      2    bbb    H12     78 0.09515400   1.008000   ; qtot 2.664576
   79         c3      2    bbb     C7     79 0.21842400  12.010000   ; qtot 2.883000
   80         h1      2    bbb    H13     80 0.04500300   1.008000   ; qtot 2.928003
   81         h1      2    bbb    H14     81 0.04500300   1.008000   ; qtot 2.973006
   82         c3      2    bbb     C8     82 -0.06455200  12.010000   ; qtot 2.908454
   83         h1      2    bbb    H15     83 0.13554100   1.008000   ; qtot 3.043995
   84         h1      2    bbb    H16     84 0.13554100   1.008000   ; qtot 3.179536
   85         c3      2    bbb     C9     85 -0.06455200  12.010000   ; qtot 3.114984
   86         h1      2    bbb    H17     86 0.13554100   1.008000   ; qtot 3.250525
   87         h1      2    bbb    H18     87 0.13554100   1.008000   ; qtot 3.386066
   88         os      2    bbb     O1     88 -0.62587700  16.000000   ; qtot 2.760189
   89         hn      2    bbb    H19     89 0.23982500   1.008000   ; qtot 3.000014
; residue    3 bbb rtp bbb q 1.0
   90         n4      3    bbb     N1     90 0.03726400  14.010000   ; qtot 3.037278
   91         c3      3    bbb     C1     91 -0.07020100  12.010000   ; qtot 2.967077
   92         hx      3    bbb     H1     92 0.12219000   1.008000   ; qtot 3.089267
   93         hx      3    bbb     H2     93 0.12219000   1.008000   ; qtot 3.211457
   94         c3      3    bbb     C2     94 -0.07020100  12.010000   ; qtot 3.141256
   95         hx      3    bbb     H3     95 0.12219000   1.008000   ; qtot 3.263446
   96         hx      3    bbb     H4     96 0.12219000   1.008000   ; qtot 3.385636
   97         c3      3    bbb     C3     97 -0.39007700  12.010000   ; qtot 2.995559
   98         hx      3    bbb     H5     98 0.14940300   1.008000   ; qtot 3.144962
   99         hx      3    bbb     H6     99 0.14940300   1.008000   ; qtot 3.294365
  100         c3      3    bbb     C4    100 0.18057300  12.010000   ; qtot 3.474938
  101         hc      3    bbb     H7    101 0.01788900   1.008000   ; qtot 3.492827
  102         hc      3    bbb     H8    102 0.01788900   1.008000   ; qtot 3.510716
  103         c3      3    bbb     C5    103 -0.11337700  12.010000   ; qtot 3.397339
  104         hc      3    bbb     H9    104 0.09515400   1.008000   ; qtot 3.492493
  105         hc      3    bbb    H10    105 0.09515400   1.008000   ; qtot 3.587647
  106         c3      3    bbb     C6    106 -0.11337700  12.010000   ; qtot 3.474270
  107         hc      3    bbb    H11    107 0.09515400   1.008000   ; qtot 3.569424
  108         hc      3    bbb    H12    108 0.09515400   1.008000   ; qtot 3.664578
  109         c3      3    bbb     C7    109 0.21842400  12.010000   ; qtot 3.883002
  110         h1      3    bbb    H13    110 0.04500300   1.008000   ; qtot 3.928005
  111         h1      3    bbb    H14    111 0.04500300   1.008000   ; qtot 3.973008
  112         c3      3    bbb     C8    112 -0.06455200  12.010000   ; qtot 3.908456
  113         h1      3    bbb    H15    113 0.13554100   1.008000   ; qtot 4.043997
  114         h1      3    bbb    H16    114 0.13554100   1.008000   ; qtot 4.179538
  115         c3      3    bbb     C9    115 -0.06455200  12.010000   ; qtot 4.114986
  116         h1      3    bbb    H17    116 0.13554100   1.008000   ; qtot 4.250527
  117         h1      3    bbb    H18    117 0.13554100   1.008000   ; qtot 4.386068
  118         os      3    bbb     O1    118 -0.62587700  16.000000   ; qtot 3.760191
  119         hn      3    bbb    H19    119 0.23982500   1.008000   ; qtot 4.000016
; residue    4 bbb rtp bbb q 1.0
  120         n4      4    bbb     N1    120 0.03726400  14.010000   ; qtot 4.037280
  121         c3      4    bbb     C1    121 -0.07020100  12.010000   ; qtot 3.967079
  122         hx      4    bbb     H1    122 0.12219000   1.008000   ; qtot 4.089269
  123         hx      4    bbb     H2    123 0.12219000   1.008000   ; qtot 4.211459
  124         c3      4    bbb     C2    124 -0.07020100  12.010000   ; qtot 4.141258
  125         hx      4    bbb     H3    125 0.12219000   1.008000   ; qtot 4.263448
  126         hx      4    bbb     H4    126 0.12219000   1.008000   ; qtot 4.385638
  127         c3      4    bbb     C3    127 -0.39007700  12.010000   ; qtot 3.995561
  128         hx      4    bbb     H5    128 0.14940300   1.008000   ; qtot 4.144964
  129         hx      4    bbb     H6    129 0.14940300   1.008000   ; qtot 4.294367
  130         c3      4    bbb     C4    130 0.18057300  12.010000   ; qtot 4.474940
  131         hc      4    bbb     H7    131 0.01788900   1.008000   ; qtot 4.492829
  132         hc      4    bbb     H8    132 0.01788900   1.008000   ; qtot 4.510718
  133         c3      4    bbb     C5    133 -0.11337700  12.010000   ; qtot 4.397341
  134         hc      4    bbb     H9    134 0.09515400   1.008000   ; qtot 4.492495
  135         hc      4    bbb    H10    135 0.09515400   1.008000   ; qtot 4.587649
  136         c3      4    bbb     C6    136 -0.11337700  12.010000   ; qtot 4.474272
  137         hc      4    bbb    H11    137 0.09515400   1.008000   ; qtot 4.569426
  138         hc      4    bbb    H12    138 0.09515400   1.008000   ; qtot 4.664580
  139         c3      4    bbb     C7    139 0.21842400  12.010000   ; qtot 4.883004
  140         h1      4    bbb    H13    140 0.04500300   1.008000   ; qtot 4.928007
  141         h1      4    bbb    H14    141 0.04500300   1.008000   ; qtot 4.973010
  142         c3      4    bbb     C8    142 -0.06455200  12.010000   ; qtot 4.908458
  143         h1      4    bbb    H15    143 0.13554100   1.008000   ; qtot 5.043999
  144         h1      4    bbb    H16    144 0.13554100   1.008000   ; qtot 5.179540
  145         c3      4    bbb     C9    145 -0.06455200  12.010000   ; qtot 5.114988
  146         h1      4    bbb    H17    146 0.13554100   1.008000   ; qtot 5.250529
  147         h1      4    bbb    H18    147 0.13554100   1.008000   ; qtot 5.386070
  148         os      4    bbb     O1    148 -0.62587700  16.000000   ; qtot 4.760193
  149         hn      4    bbb    H19    149 0.23982500   1.008000   ; qtot 5.000018
; residue    5 bbb rtp bbb q 1.0
  150         n4      5    bbb     N1    150 0.03726400  14.010000   ; qtot 5.037282
  151         c3      5    bbb     C1    151 -0.07020100  12.010000   ; qtot 4.967081
  152         hx      5    bbb     H1    152 0.12219000   1.008000   ; qtot 5.089271
  153         hx      5    bbb     H2    153 0.12219000   1.008000   ; qtot 5.211461
  154         c3      5    bbb     C2    154 -0.07020100  12.010000   ; qtot 5.141260
  155         hx      5    bbb     H3    155 0.12219000   1.008000   ; qtot 5.263450
  156         hx      5    bbb     H4    156 0.12219000   1.008000   ; qtot 5.385640
  157         c3      5    bbb     C3    157 -0.39007700  12.010000   ; qtot 4.995563
  158         hx      5    bbb     H5    158 0.14940300   1.008000   ; qtot 5.144966
  159         hx      5    bbb     H6    159 0.14940300   1.008000   ; qtot 5.294369
  160         c3      5    bbb     C4    160 0.18057300  12.010000   ; qtot 5.474942
  161         hc      5    bbb     H7    161 0.01788900   1.008000   ; qtot 5.492831
  162         hc      5    bbb     H8    162 0.01788900   1.008000   ; qtot 5.510720
  163         c3      5    bbb     C5    163 -0.11337700  12.010000   ; qtot 5.397343
  164         hc      5    bbb     H9    164 0.09515400   1.008000   ; qtot 5.492497
  165         hc      5    bbb    H10    165 0.09515400   1.008000   ; qtot 5.587651
  166         c3      5    bbb     C6    166 -0.11337700  12.010000   ; qtot 5.474274
  167         hc      5    bbb    H11    167 0.09515400   1.008000   ; qtot 5.569428
  168         hc      5    bbb    H12    168 0.09515400   1.008000   ; qtot 5.664582
  169         c3      5    bbb     C7    169 0.21842400  12.010000   ; qtot 5.883006
  170         h1      5    bbb    H13    170 0.04500300   1.008000   ; qtot 5.928009
  171         h1      5    bbb    H14    171 0.04500300   1.008000   ; qtot 5.973012
  172         c3      5    bbb     C8    172 -0.06455200  12.010000   ; qtot 5.908460
  173         h1      5    bbb    H15    173 0.13554100   1.008000   ; qtot 6.044001
  174         h1      5    bbb    H16    174 0.13554100   1.008000   ; qtot 6.179542
  175         c3      5    bbb     C9    175 -0.06455200  12.010000   ; qtot 6.114990
  176         h1      5    bbb    H17    176 0.13554100   1.008000   ; qtot 6.250531
  177         h1      5    bbb    H18    177 0.13554100   1.008000   ; qtot 6.386072
  178         os      5    bbb     O1    178 -0.62587700  16.000000   ; qtot 5.760195
  179         hn      5    bbb    H19    179 0.23982500   1.008000   ; qtot 6.000020
; residue    6 ccc rtp ccc q 1.0
  180         c3      6    ccc     C1    180 0.17060900  12.010000   ; qtot 6.170629
  181         hx      6    ccc     H1    181 0.04213200   1.008000   ; qtot 6.212761
  182         hx      6    ccc     H2    182 0.04213200   1.008000   ; qtot 6.254893
  183         c3      6    ccc     C2    183 -0.04496700  12.010000   ; qtot 6.209926
  184         hc      6    ccc     H3    184 0.02647500   1.008000   ; qtot 6.236401
  185         hc      6    ccc     H4    185 0.02647500   1.008000   ; qtot 6.262876
  186         c3      6    ccc     C3    186 0.04732600  12.010000   ; qtot 6.310202
  187         h1      6    ccc     H5    187 0.07030200   1.008000   ; qtot 6.380504
  188         h1      6    ccc     H6    188 0.07030200   1.008000   ; qtot 6.450806
  189         n4      6    ccc     N1    189 -0.21077700  14.010000   ; qtot 6.240029
  190         hn      6    ccc     H7    190 0.28399900   1.008000   ; qtot 6.524028
  191         hn      6    ccc     H8    191 0.28399900   1.008000   ; qtot 6.808027
  192         os      6    ccc     O1    192 -0.09200600  16.000000   ; qtot 6.716021
  193         hn      6    ccc    H17    193 0.28399900   1.008000   ; qtot 7.000020
; residue    7 ccc rtp ccc q 1.0
  194         c3      7    ccc     C1    194 0.17060900  12.010000   ; qtot 7.170629
  195         hx      7    ccc     H1    195 0.04213200   1.008000   ; qtot 7.212761
  196         hx      7    ccc     H2    196 0.04213200   1.008000   ; qtot 7.254893
  197         c3      7    ccc     C2    197 -0.04496700  12.010000   ; qtot 7.209926
  198         hc      7    ccc     H3    198 0.02647500   1.008000   ; qtot 7.236401
  199         hc      7    ccc     H4    199 0.02647500   1.008000   ; qtot 7.262876
  200         c3      7    ccc     C3    200 0.04732600  12.010000   ; qtot 7.310202
  201         h1      7    ccc     H5    201 0.07030200   1.008000   ; qtot 7.380504
  202         h1      7    ccc     H6    202 0.07030200   1.008000   ; qtot 7.450806
  203         n4      7    ccc     N1    203 -0.21077700  14.010000   ; qtot 7.240029
  204         hn      7    ccc     H7    204 0.28399900   1.008000   ; qtot 7.524028
  205         hn      7    ccc     H8    205 0.28399900   1.008000   ; qtot 7.808027
  206         os      7    ccc     O1    206 -0.09200600  16.000000   ; qtot 7.716021
  207         hn      7    ccc    H17    207 0.28399900   1.008000   ; qtot 8.000020
; residue    8 ccc rtp ccc q 1.0
  208         c3      8    ccc     C1    208 0.17060900  12.010000   ; qtot 8.170629
  209         hx      8    ccc     H1    209 0.04213200   1.008000   ; qtot 8.212761
  210         hx      8    ccc     H2    210 0.04213200   1.008000   ; qtot 8.254893
  211         c3      8    ccc     C2    211 -0.04496700  12.010000   ; qtot 8.209926
  212         hc      8    ccc     H3    212 0.02647500   1.008000   ; qtot 8.236401
  213         hc      8    ccc     H4    213 0.02647500   1.008000   ; qtot 8.262876
  214         c3      8    ccc     C3    214 0.04732600  12.010000   ; qtot 8.310202
  215         h1      8    ccc     H5    215 0.07030200   1.008000   ; qtot 8.380504
  216         h1      8    ccc     H6    216 0.07030200   1.008000   ; qtot 8.450806
  217         n4      8    ccc     N1    217 -0.21077700  14.010000   ; qtot 8.240029
  218         hn      8    ccc     H7    218 0.28399900   1.008000   ; qtot 8.524028
  219         hn      8    ccc     H8    219 0.28399900   1.008000   ; qtot 8.808027
  220         os      8    ccc     O1    220 -0.09200600  16.000000   ; qtot 8.716021
  221         hn      8    ccc    H17    221 0.28399900   1.008000   ; qtot 9.000020
; residue    9 ccc rtp ccc q 1.0
  222         c3      9    ccc     C1    222 0.17060900  12.010000   ; qtot 9.170629
  223         hx      9    ccc     H1    223 0.04213200   1.008000   ; qtot 9.212761
  224         hx      9    ccc     H2    224 0.04213200   1.008000   ; qtot 9.254893
  225         c3      9    ccc     C2    225 -0.04496700  12.010000   ; qtot 9.209926
  226         hc      9    ccc     H3    226 0.02647500   1.008000   ; qtot 9.236401
  227         hc      9    ccc     H4    227 0.02647500   1.008000   ; qtot 9.262876
  228         c3      9    ccc     C3    228 0.04732600  12.010000   ; qtot 9.310202
  229         h1      9    ccc     H5    229 0.07030200   1.008000   ; qtot 9.380504
  230         h1      9    ccc     H6    230 0.07030200   1.008000   ; qtot 9.450806
  231         n4      9    ccc     N1    231 -0.21077700  14.010000   ; qtot 9.240029
  232         hn      9    ccc     H7    232 0.28399900   1.008000   ; qtot 9.524028
  233         hn      9    ccc     H8    233 0.28399900   1.008000   ; qtot 9.808027
  234         os      9    ccc     O1    234 -0.09200600  16.000000   ; qtot 9.716021
  235         hn      9    ccc    H17    235 0.28399900   1.008000   ; qtot 10.000020
; residue   10 ccc rtp ccc q 1.0
  236         c3     10    ccc     C1    236 0.17060900  12.010000   ; qtot 10.170629
  237         hx     10    ccc     H1    237 0.04213200   1.008000   ; qtot 10.212761
  238         hx     10    ccc     H2    238 0.04213200   1.008000   ; qtot 10.254893
  239         c3     10    ccc     C2    239 -0.04496700  12.010000   ; qtot 10.209926
  240         hc     10    ccc     H3    240 0.02647500   1.008000   ; qtot 10.236401
  241         hc     10    ccc     H4    241 0.02647500   1.008000   ; qtot 10.262876
  242         c3     10    ccc     C3    242 0.04732600  12.010000   ; qtot 10.310202
  243         h1     10    ccc     H5    243 0.07030200   1.008000   ; qtot 10.380504
  244         h1     10    ccc     H6    244 0.07030200   1.008000   ; qtot 10.450806
  245         n4     10    ccc     N1    245 -0.21077700  14.010000   ; qtot 10.240029
  246         hn     10    ccc     H7    246 0.28399900   1.008000   ; qtot 10.524028
  247         hn     10    ccc     H8    247 0.28399900   1.008000   ; qtot 10.808027
  248         os     10    ccc     O1    248 -0.09200600  16.000000   ; qtot 10.716021
  249         hn     10    ccc    H17    249 0.28399900   1.008000   ; qtot 11.000020
; residue   11 ccc rtp ccc q 1.0
  250         c3     11    ccc     C1    250 0.17060900  12.010000   ; qtot 11.170629
  251         hx     11    ccc     H1    251 0.04213200   1.008000   ; qtot 11.212761
  252         hx     11    ccc     H2    252 0.04213200   1.008000   ; qtot 11.254893
  253         c3     11    ccc     C2    253 -0.04496700  12.010000   ; qtot 11.209926
  254         hc     11    ccc     H3    254 0.02647500   1.008000   ; qtot 11.236401
  255         hc     11    ccc     H4    255 0.02647500   1.008000   ; qtot 11.262876
  256         c3     11    ccc     C3    256 0.04732600  12.010000   ; qtot 11.310202
  257         h1     11    ccc     H5    257 0.07030200   1.008000   ; qtot 11.380504
  258         h1     11    ccc     H6    258 0.07030200   1.008000   ; qtot 11.450806
  259         n4     11    ccc     N1    259 -0.21077700  14.010000   ; qtot 11.240029
  260         hn     11    ccc     H7    260 0.28399900   1.008000   ; qtot 11.524028
  261         hn     11    ccc     H8    261 0.28399900   1.008000   ; qtot 11.808027
  262         os     11    ccc     O1    262 -0.09200600  16.000000   ; qtot 11.716021
  263         hn     11    ccc    H17    263 0.28399900   1.008000   ; qtot 12.000020
; residue   12 ccc rtp ccc q 1.0
  264         c3     12    ccc     C1    264 0.17060900  12.010000   ; qtot 12.170629
  265         hx     12    ccc     H1    265 0.04213200   1.008000   ; qtot 12.212761
  266         hx     12    ccc     H2    266 0.04213200   1.008000   ; qtot 12.254893
  267         c3     12    ccc     C2    267 -0.04496700  12.010000   ; qtot 12.209926
  268         hc     12    ccc     H3    268 0.02647500   1.008000   ; qtot 12.236401
  269         hc     12    ccc     H4    269 0.02647500   1.008000   ; qtot 12.262876
  270         c3     12    ccc     C3    270 0.04732600  12.010000   ; qtot 12.310202
  271         h1     12    ccc     H5    271 0.07030200   1.008000   ; qtot 12.380504
  272         h1     12    ccc     H6    272 0.07030200   1.008000   ; qtot 12.450806
  273         n4     12    ccc     N1    273 -0.21077700  14.010000   ; qtot 12.240029
  274         hn     12    ccc     H7    274 0.28399900   1.008000   ; qtot 12.524028
  275         hn     12    ccc     H8    275 0.28399900   1.008000   ; qtot 12.808027
  276         os     12    ccc     O1    276 -0.09200600  16.000000   ; qtot 12.716021
  277         hn     12    ccc    H17    277 0.28399900   1.008000   ; qtot 13.000020
; residue   13 ccc rtp ccc q 1.0
  278         c3     13    ccc     C1    278 0.17060900  12.010000   ; qtot 13.170629
  279         hx     13    ccc     H1    279 0.04213200   1.008000   ; qtot 13.212761
  280         hx     13    ccc     H2    280 0.04213200   1.008000   ; qtot 13.254893
  281         c3     13    ccc     C2    281 -0.04496700  12.010000   ; qtot 13.209926
  282         hc     13    ccc     H3    282 0.02647500   1.008000   ; qtot 13.236401
  283         hc     13    ccc     H4    283 0.02647500   1.008000   ; qtot 13.262876
  284         c3     13    ccc     C3    284 0.04732600  12.010000   ; qtot 13.310202
  285         h1     13    ccc     H5    285 0.07030200   1.008000   ; qtot 13.380504
  286         h1     13    ccc     H6    286 0.07030200   1.008000   ; qtot 13.450806
  287         n4     13    ccc     N1    287 -0.21077700  14.010000   ; qtot 13.240029
  288         hn     13    ccc     H7    288 0.28399900   1.008000   ; qtot 13.524028
  289         hn     13    ccc     H8    289 0.28399900   1.008000   ; qtot 13.808027
  290         os     13    ccc     O1    290 -0.09200600  16.000000   ; qtot 13.716021
  291         hn     13    ccc    H17    291 0.28399900   1.008000   ; qtot 14.000020

[ bonds ]
;    ai     aj funct         c0         c1         c2         c3
      1      2     1   0.14316 258236.480000
      1      5     1   0.14316 258236.480000
      2      8     1   0.15375 251793.120000
      5     11     1   0.15375 251793.120000
      8     14     1   0.15375 251793.120000
     11     17     1   0.15375 251793.120000
     14     20     1   0.15110 237065.440000
     17     21     1   0.15110 237065.440000
     20     28     1   0.15110 237065.440000
     20     31     1   0.15110 237065.440000
     21     22     1   0.15110 237065.440000
     21     25     1   0.15110 237065.440000
     22     34     1   0.15375 251793.120000
     25     37     1   0.15375 251793.120000
     28     40     1   0.15375 251793.120000
     31     43     1   0.15375 251793.120000
     34     55     1   0.15375 251793.120000
     37     52     1   0.15375 251793.120000
     40     49     1   0.15375 251793.120000
     43     46     1   0.15375 251793.120000
     46     88     1   0.14316 258236.480000
     49    118     1   0.14316 258236.480000
     52    148     1   0.14316 258236.480000
     55    178     1   0.14316 258236.480000
     60     61     1   0.15110 237065.440000
     60     64     1   0.15110 237065.440000
     60     67     1   0.15110 237065.440000
     61     73     1   0.15375 251793.120000
     64     76     1   0.15375 251793.120000
     67     70     1   0.15375 251793.120000
     70     79     1   0.15375 251793.120000
     73     85     1   0.15375 251793.120000
     76     82     1   0.15375 251793.120000
     79     88     1   0.14316 258236.480000
     82    192     1   0.14316 258236.480000
     85    206     1   0.14316 258236.480000
     90     91     1   0.15110 237065.440000
     90     94     1   0.15110 237065.440000
     90     97     1   0.15110 237065.440000
     91    103     1   0.15375 251793.120000
     94    106     1   0.15375 251793.120000
     97    100     1   0.15375 251793.120000
    100    109     1   0.15375 251793.120000
    103    115     1   0.15375 251793.120000
    106    112     1   0.15375 251793.120000
    109    118     1   0.14316 258236.480000
    112    220     1   0.14316 258236.480000
    115    234     1   0.14316 258236.480000
    120    121     1   0.15110 237065.440000
    120    124     1   0.15110 237065.440000
    120    127     1   0.15110 237065.440000
    121    133     1   0.15375 251793.120000
    124    136     1   0.15375 251793.120000
    127    130     1   0.15375 251793.120000
    130    139     1   0.15375 251793.120000
    133    145     1   0.15375 251793.120000
    136    142     1   0.15375 251793.120000
    139    148     1   0.14316 258236.480000
    142    248     1   0.14316 258236.480000
    145    262     1   0.14316 258236.480000
    150    151     1   0.15110 237065.440000
    150    154     1   0.15110 237065.440000
    150    157     1   0.15110 237065.440000
    151    163     1   0.15375 251793.120000
    154    166     1   0.15375 251793.120000
    157    160     1   0.15375 251793.120000
    160    169     1   0.15375 251793.120000
    163    175     1   0.15375 251793.120000
    166    172     1   0.15375 251793.120000
    169    178     1   0.14316 258236.480000
    172    276     1   0.14316 258236.480000
    175    290     1   0.14316 258236.480000
    180    183     1   0.15375 251793.120000
    180    189     1   0.15110 237065.440000
    183    186     1   0.15375 251793.120000
    186    192     1   0.14316 258236.480000
    194    197     1   0.15375 251793.120000
    194    203     1   0.15110 237065.440000
    197    200     1   0.15375 251793.120000
    200    206     1   0.14316 258236.480000
    208    211     1   0.15375 251793.120000
    208    217     1   0.15110 237065.440000
    211    214     1   0.15375 251793.120000
    214    220     1   0.14316 258236.480000
    222    225     1   0.15375 251793.120000
    222    231     1   0.15110 237065.440000
    225    228     1   0.15375 251793.120000
    228    234     1   0.14316 258236.480000
    236    239     1   0.15375 251793.120000
    236    245     1   0.15110 237065.440000
    239    242     1   0.15375 251793.120000
    242    248     1   0.14316 258236.480000
    250    253     1   0.15375 251793.120000
    250    259     1   0.15110 237065.440000
    253    256     1   0.15375 251793.120000
    256    262     1   0.14316 258236.480000
    264    267     1   0.15375 251793.120000
    264    273     1   0.15110 237065.440000
    267    270     1   0.15375 251793.120000
    270    276     1   0.14316 258236.480000
    278    281     1   0.15375 251793.120000
    278    287     1   0.15110 237065.440000
    281    284     1   0.15375 251793.120000
    284    290     1   0.14316 258236.480000
      2      3     1   0.10969 276646.080000
      2      4     1   0.10969 276646.080000
      5      6     1   0.10969 276646.080000
      5      7     1   0.10969 276646.080000
      8      9     1   0.10969 276646.080000
      8     10     1   0.10969 276646.080000
     11     12     1   0.10969 276646.080000
     11     13     1   0.10969 276646.080000
     14     15     1   0.10910 283424.160000
     14     16     1   0.10910 283424.160000
     17     18     1   0.10910 283424.160000
     17     19     1   0.10910 283424.160000
     20     58     1   0.10304 312293.760000
     21     59     1   0.10304 312293.760000
     22     23     1   0.10910 283424.160000
     22     24     1   0.10910 283424.160000
     25     26     1   0.10910 283424.160000
     25     27     1   0.10910 283424.160000
     28     29     1   0.10910 283424.160000
     28     30     1   0.10910 283424.160000
     31     32     1   0.10910 283424.160000
     31     33     1   0.10910 283424.160000
     34     35     1   0.10969 276646.080000
     34     36     1   0.10969 276646.080000
     37     38     1   0.10969 276646.080000
     37     39     1   0.10969 276646.080000
     40     41     1   0.10969 276646.080000
     40     42     1   0.10969 276646.080000
     43     44     1   0.10969 276646.080000
     43     45     1   0.10969 276646.080000
     46     47     1   0.10969 276646.080000
     46     48     1   0.10969 276646.080000
     49     50     1   0.10969 276646.080000
     49     51     1   0.10969 276646.080000
     52     53     1   0.10969 276646.080000
     52     54     1   0.10969 276646.080000
     55     56     1   0.10969 276646.080000
     55     57     1   0.10969 276646.080000
     60     89     1   0.10304 312293.760000
     61     62     1   0.10910 283424.160000
     61     63     1   0.10910 283424.160000
     64     65     1   0.10910 283424.160000
     64     66     1   0.10910 283424.160000
     67     68     1   0.10910 283424.160000
     67     69     1   0.10910 283424.160000
     70     71     1   0.10969 276646.080000
     70     72     1   0.10969 276646.080000
     73     74     1   0.10969 276646.080000
     73     75     1   0.10969 276646.080000
     76     77     1   0.10969 276646.080000
     76     78     1   0.10969 276646.080000
     79     80     1   0.10969 276646.080000
     79     81     1   0.10969 276646.080000
     82     83     1   0.10969 276646.080000
     82     84     1   0.10969 276646.080000
     85     86     1   0.10969 276646.080000
     85     87     1   0.10969 276646.080000
     90    119     1   0.10304 312293.760000
     91     92     1   0.10910 283424.160000
     91     93     1   0.10910 283424.160000
     94     95     1   0.10910 283424.160000
     94     96     1   0.10910 283424.160000
     97     98     1   0.10910 283424.160000
     97     99     1   0.10910 283424.160000
    100    101     1   0.10969 276646.080000
    100    102     1   0.10969 276646.080000
    103    104     1   0.10969 276646.080000
    103    105     1   0.10969 276646.080000
    106    107     1   0.10969 276646.080000
    106    108     1   0.10969 276646.080000
    109    110     1   0.10969 276646.080000
    109    111     1   0.10969 276646.080000
    112    113     1   0.10969 276646.080000
    112    114     1   0.10969 276646.080000
    115    116     1   0.10969 276646.080000
    115    117     1   0.10969 276646.080000
    120    149     1   0.10304 312293.760000
    121    122     1   0.10910 283424.160000
    121    123     1   0.10910 283424.160000
    124    125     1   0.10910 283424.160000
    124    126     1   0.10910 283424.160000
    127    128     1   0.10910 283424.160000
    127    129     1   0.10910 283424.160000
    130    131     1   0.10969 276646.080000
    130    132     1   0.10969 276646.080000
    133    134     1   0.10969 276646.080000
    133    135     1   0.10969 276646.080000
    136    137     1   0.10969 276646.080000
    136    138     1   0.10969 276646.080000
    139    140     1   0.10969 276646.080000
    139    141     1   0.10969 276646.080000
    142    143     1   0.10969 276646.080000
    142    144     1   0.10969 276646.080000
    145    146     1   0.10969 276646.080000
    145    147     1   0.10969 276646.080000
    150    179     1   0.10304 312293.760000
    151    152     1   0.10910 283424.160000
    151    153     1   0.10910 283424.160000
    154    155     1   0.10910 283424.160000
    154    156     1   0.10910 283424.160000
    157    158     1   0.10910 283424.160000
    157    159     1   0.10910 283424.160000
    160    161     1   0.10969 276646.080000
    160    162     1   0.10969 276646.080000
    163    164     1   0.10969 276646.080000
    163    165     1   0.10969 276646.080000
    166    167     1   0.10969 276646.080000
    166    168     1   0.10969 276646.080000
    169    170     1   0.10969 276646.080000
    169    171     1   0.10969 276646.080000
    172    173     1   0.10969 276646.080000
    172    174     1   0.10969 276646.080000
    175    176     1   0.10969 276646.080000
    175    177     1   0.10969 276646.080000
    180    181     1   0.10910 283424.160000
    180    182     1   0.10910 283424.160000
    183    184     1   0.10969 276646.080000
    183    185     1   0.10969 276646.080000
    186    187     1   0.10969 276646.080000
    186    188     1   0.10969 276646.080000
    189    190     1   0.10304 312293.760000
    189    191     1   0.10304 312293.760000
    189    193     1   0.10304 312293.760000
    194    195     1   0.10910 283424.160000
    194    196     1   0.10910 283424.160000
    197    198     1   0.10969 276646.080000
    197    199     1   0.10969 276646.080000
    200    201     1   0.10969 276646.080000
    200    202     1   0.10969 276646.080000
    203    204     1   0.10304 312293.760000
    203    205     1   0.10304 312293.760000
    203    207     1   0.10304 312293.760000
    208    209     1   0.10910 283424.160000
    208    210     1   0.10910 283424.160000
    211    212     1   0.10969 276646.080000
    211    213     1   0.10969 276646.080000
    214    215     1   0.10969 276646.080000
    214    216     1   0.10969 276646.080000
    217    218     1   0.10304 312293.760000
    217    219     1   0.10304 312293.760000
    217    221     1   0.10304 312293.760000
    222    223     1   0.10910 283424.160000
    222    224     1   0.10910 283424.160000
    225    226     1   0.10969 276646.080000
    225    227     1   0.10969 276646.080000
    228    229     1   0.10969 276646.080000
    228    230     1   0.10969 276646.080000
    231    232     1   0.10304 312293.760000
    231    233     1   0.10304 312293.760000
    231    235     1   0.10304 312293.760000
    236    237     1   0.10910 283424.160000
    236    238     1   0.10910 283424.160000
    239    240     1   0.10969 276646.080000
    239    241     1   0.10969 276646.080000
    242    243     1   0.10969 276646.080000
    242    244     1   0.10969 276646.080000
    245    246     1   0.10304 312293.760000
    245    247     1   0.10304 312293.760000
    245    249     1   0.10304 312293.760000
    250    251     1   0.10910 283424.160000
    250    252     1   0.10910 283424.160000
    253    254     1   0.10969 276646.080000
    253    255     1   0.10969 276646.080000
    256    257     1   0.10969 276646.080000
    256    258     1   0.10969 276646.080000
    259    260     1   0.10304 312293.760000
    259    261     1   0.10304 312293.760000
    259    263     1   0.10304 312293.760000
    264    265     1   0.10910 283424.160000
    264    266     1   0.10910 283424.160000
    267    268     1   0.10969 276646.080000
    267    269     1   0.10969 276646.080000
    270    271     1   0.10969 276646.080000
    270    272     1   0.10969 276646.080000
    273    274     1   0.10304 312293.760000
    273    275     1   0.10304 312293.760000
    273    277     1   0.10304 312293.760000
    278    279     1   0.10910 283424.160000
    278    280     1   0.10910 283424.160000
    281    282     1   0.10969 276646.080000
    281    283     1   0.10969 276646.080000
    284    285     1   0.10969 276646.080000
    284    286     1   0.10969 276646.080000
    287    288     1   0.10304 312293.760000
    287    289     1   0.10304 312293.760000
    287    291     1   0.10304 312293.760000

[ pairs ]
;    ai     aj funct         c0         c1         c2         c3
      1     14     1
      1     17     1
      2     11     1
      2     20     1
      5      8     1
      5     21     1
      8     28     1
      8     31     1
     11     22     1
     11     25     1
     14     40     1
     14     43     1
     17     34     1
     17     37     1
     20     49     1
     20     46     1
     21     55     1
     21     52     1
     22     37     1
     22    178     1
     25     34     1
     25    148     1
     28     43     1
     28    118     1
     31     40     1
     31     88     1
     34    169     1
     37    139     1
     40    109     1
     43     79     1
     46     70     1
     49    100     1
     52    130     1
     55    160     1
     60     85     1
     60     82     1
     60     79     1
     61     76     1
     61     70     1
     61    206     1
     64     73     1
     64     70     1
     64    192     1
     67     73     1
     67     76     1
     67     88     1
     73    200     1
     76    186     1
     82    183     1
     85    197     1
     90    115     1
     90    112     1
     90    109     1
     91    106     1
     91    100     1
     91    234     1
     94    103     1
     94    100     1
     94    220     1
     97    103     1
     97    106     1
     97    118     1
    103    228     1
    106    214     1
    112    211     1
    115    225     1
    120    145     1
    120    142     1
    120    139     1
    121    136     1
    121    130     1
    121    262     1
    124    133     1
    124    130     1
    124    248     1
    127    133     1
    127    136     1
    127    148     1
    133    256     1
    136    242     1
    142    239     1
    145    253     1
    150    175     1
    150    172     1
    150    169     1
    151    166     1
    151    160     1
    151    290     1
    154    163     1
    154    160     1
    154    276     1
    157    163     1
    157    166     1
    157    178     1
    163    284     1
    166    270     1
    172    267     1
    175    281     1
    180    192     1
    186    189     1
    194    206     1
    200    203     1
    208    220     1
    214    217     1
    222    234     1
    228    231     1
    236    248     1
    242    245     1
    250    262     1
    256    259     1
    264    276     1
    270    273     1
    278    290     1
    284    287     1
      1      9     1
      1     10     1
      1     12     1
      1     13     1
      2      6     1
      2      7     1
      2     15     1
      2     16     1
      5      3     1
      3     14     1
      3      9     1
      3     10     1
      5      4     1
      4     14     1
      4      9     1
      4     10     1
      5     18     1
      5     19     1
      6     17     1
      6     12     1
      6     13     1
      7     17     1
      7     12     1
      7     13     1
      8     58     1
      9     20     1
      9     15     1
      9     16     1
     10     20     1
     10     15     1
     10     16     1
     11     59     1
     12     21     1
     12     18     1
     12     19     1
     13     21     1
     13     18     1
     13     19     1
     14     29     1
     14     30     1
     14     32     1
     14     33     1
     15     28     1
     15     31     1
     15     58     1
     16     28     1
     16     31     1
     16     58     1
     17     23     1
     17     24     1
     17     26     1
     17     27     1
     18     22     1
     18     25     1
     18     59     1
     19     22     1
     19     25     1
     19     59     1
     20     41     1
     20     42     1
     20     44     1
     20     45     1
     21     35     1
     21     36     1
     21     38     1
     21     39     1
     22     26     1
     22     27     1
     22     56     1
     22     57     1
     23     25     1
     23     59     1
     23     55     1
     23     35     1
     23     36     1
     24     25     1
     24     59     1
     24     55     1
     24     35     1
     24     36     1
     25     53     1
     25     54     1
     26     59     1
     26     52     1
     26     38     1
     26     39     1
     27     59     1
     27     52     1
     27     38     1
     27     39     1
     28     32     1
     28     33     1
     28     50     1
     28     51     1
     29     31     1
     29     58     1
     29     49     1
     29     41     1
     29     42     1
     30     31     1
     30     58     1
     30     49     1
     30     41     1
     30     42     1
     31     47     1
     31     48     1
     32     58     1
     32     46     1
     32     44     1
     32     45     1
     33     58     1
     33     46     1
     33     44     1
     33     45     1
     34     59     1
     35    178     1
     35     56     1
     35     57     1
     36    178     1
     36     56     1
     36     57     1
     37     59     1
     38    148     1
     38     53     1
     38     54     1
     39    148     1
     39     53     1
     39     54     1
     40     58     1
     41    118     1
     41     50     1
     41     51     1
     42    118     1
     42     50     1
     42     51     1
     43     58     1
     44     88     1
     44     47     1
     44     48     1
     45     88     1
     45     47     1
     45     48     1
     46     80     1
     46     81     1
     47     79     1
     48     79     1
     49    110     1
     49    111     1
     50    109     1
     51    109     1
     52    140     1
     52    141     1
     53    139     1
     54    139     1
     55    170     1
     55    171     1
     56    169     1
     57    169     1
     60     74     1
     60     75     1
     60     77     1
     60     78     1
     60     71     1
     60     72     1
     61     65     1
     61     66     1
     61     68     1
     61     69     1
     61     86     1
     61     87     1
     62     64     1
     62     67     1
     62     89     1
     62     85     1
     62     74     1
     62     75     1
     63     64     1
     63     67     1
     63     89     1
     63     85     1
     63     74     1
     63     75     1
     64     68     1
     64     69     1
     64     83     1
     64     84     1
     65     67     1
     65     89     1
     65     82     1
     65     77     1
     65     78     1
     66     67     1
     66     89     1
     66     82     1
     66     77     1
     66     78     1
     67     80     1
     67     81     1
     68     89     1
     68     79     1
     68     71     1
     68     72     1
     69     89     1
     69     79     1
     69     71     1
     69     72     1
     70     89     1
     71     88     1
     71     80     1
     71     81     1
     72     88     1
     72     80     1
     72     81     1
     73     89     1
     74    206     1
     74     86     1
     74     87     1
     75    206     1
     75     86     1
     75     87     1
     76     89     1
     77    192     1
     77     83     1
     77     84     1
     78    192     1
     78     83     1
     78     84     1
     82    187     1
     82    188     1
     83    186     1
     84    186     1
     85    201     1
     85    202     1
     86    200     1
     87    200     1
     90    104     1
     90    105     1
     90    107     1
     90    108     1
     90    101     1
     90    102     1
     91     95     1
     91     96     1
     91     98     1
     91     99     1
     91    116     1
     91    117     1
     92     94     1
     92     97     1
     92    119     1
     92    115     1
     92    104     1
     92    105     1
     93     94     1
     93     97     1
     93    119     1
     93    115     1
     93    104     1
     93    105     1
     94     98     1
     94     99     1
     94    113     1
     94    114     1
     95     97     1
     95    119     1
     95    112     1
     95    107     1
     95    108     1
     96     97     1
     96    119     1
     96    112     1
     96    107     1
     96    108     1
     97    110     1
     97    111     1
     98    119     1
     98    109     1
     98    101     1
     98    102     1
     99    119     1
     99    109     1
     99    101     1
     99    102     1
    100    119     1
    101    118     1
    101    110     1
    101    111     1
    102    118     1
    102    110     1
    102    111     1
    103    119     1
    104    234     1
    104    116     1
    104    117     1
    105    234     1
    105    116     1
    105    117     1
    106    119     1
    107    220     1
    107    113     1
    107    114     1
    108    220     1
    108    113     1
    108    114     1
    112    215     1
    112    216     1
    113    214     1
    114    214     1
    115    229     1
    115    230     1
    116    228     1
    117    228     1
    120    134     1
    120    135     1
    120    137     1
    120    138     1
    120    131     1
    120    132     1
    121    125     1
    121    126     1
    121    128     1
    121    129     1
    121    146     1
    121    147     1
    122    124     1
    122    127     1
    122    149     1
    122    145     1
    122    134     1
    122    135     1
    123    124     1
    123    127     1
    123    149     1
    123    145     1
    123    134     1
    123    135     1
    124    128     1
    124    129     1
    124    143     1
    124    144     1
    125    127     1
    125    149     1
    125    142     1
    125    137     1
    125    138     1
    126    127     1
    126    149     1
    126    142     1
    126    137     1
    126    138     1
    127    140     1
    127    141     1
    128    149     1
    128    139     1
    128    131     1
    128    132     1
    129    149     1
    129    139     1
    129    131     1
    129    132     1
    130    149     1
    131    148     1
    131    140     1
    131    141     1
    132    148     1
    132    140     1
    132    141     1
    133    149     1
    134    262     1
    134    146     1
    134    147     1
    135    262     1
    135    146     1
    135    147     1
    136    149     1
    137    248     1
    137    143     1
    137    144     1
    138    248     1
    138    143     1
    138    144     1
    142    243     1
    142    244     1
    143    242     1
    144    242     1
    145    257     1
    145    258     1
    146    256     1
    147    256     1
    150    164     1
    150    165     1
    150    167     1
    150    168     1
    150    161     1
    150    162     1
    151    155     1
    151    156     1
    151    158     1
    151    159     1
    151    176     1
    151    177     1
    152    154     1
    152    157     1
    152    179     1
    152    175     1
    152    164     1
    152    165     1
    153    154     1
    153    157     1
    153    179     1
    153    175     1
    153    164     1
    153    165     1
    154    158     1
    154    159     1
    154    173     1
    154    174     1
    155    157     1
    155    179     1
    155    172     1
    155    167     1
    155    168     1
    156    157     1
    156    179     1
    156    172     1
    156    167     1
    156    168     1
    157    170     1
    157    171     1
    158    179     1
    158    169     1
    158    161     1
    158    162     1
    159    179     1
    159    169     1
    159    161     1
    159    162     1
    160    179     1
    161    178     1
    161    170     1
    161    171     1
    162    178     1
    162    170     1
    162    171     1
    163    179     1
    164    290     1
    164    176     1
    164    177     1
    165    290     1
    165    176     1
    165    177     1
    166    179     1
    167    276     1
    167    173     1
    167    174     1
    168    276     1
    168    173     1
    168    174     1
    172    271     1
    172    272     1
    173    270     1
    174    270     1
    175    285     1
    175    286     1
    176    284     1
    177    284     1
    180    187     1
    180    188     1
    181    186     1
    181    184     1
    181    185     1
    181    190     1
    181    191     1
    181    193     1
    182    186     1
    182    184     1
    182    185     1
    182    190     1
    182    191     1
    182    193     1
    183    190     1
    183    191     1
    183    193     1
    184    189     1
    184    192     1
    184    187     1
    184    188     1
    185    189     1
    185    192     1
    185    187     1
    185    188     1
    194    201     1
    194    202     1
    195    200     1
    195    198     1
    195    199     1
    195    204     1
    195    205     1
    195    207     1
    196    200     1
    196    198     1
    196    199     1
    196    204     1
    196    205     1
    196    207     1
    197    204     1
    197    205     1
    197    207     1
    198    206     1
    198    201     1
    198    202     1
    198    203     1
    199    206     1
    199    201     1
    199    202     1
    199    203     1
    208    215     1
    208    216     1
    209    214     1
    209    212     1
    209    213     1
    209    218     1
    209    219     1
    209    221     1
    210    214     1
    210    212     1
    210    213     1
    210    218     1
    210    219     1
    210    221     1
    211    218     1
    211    219     1
    211    221     1
    212    217     1
    212    220     1
    212    215     1
    212    216     1
    213    217     1
    213    220     1
    213    215     1
    213    216     1
    222    229     1
    222    230     1
    223    228     1
    223    226     1
    223    227     1
    223    232     1
    223    233     1
    223    235     1
    224    228     1
    224    226     1
    224    227     1
    224    232     1
    224    233     1
    224    235     1
    225    232     1
    225    233     1
    225    235     1
    226    234     1
    226    229     1
    226    230     1
    226    231     1
    227    234     1
    227    229     1
    227    230     1
    227    231     1
    236    243     1
    236    244     1
    237    242     1
    237    240     1
    237    241     1
    237    246     1
    237    247     1
    237    249     1
    238    242     1
    238    240     1
    238    241     1
    238    246     1
    238    247     1
    238    249     1
    239    246     1
    239    247     1
    239    249     1
    240    245     1
    240    248     1
    240    243     1
    240    244     1
    241    245     1
    241    248     1
    241    243     1
    241    244     1
    250    257     1
    250    258     1
    251    256     1
    251    254     1
    251    255     1
    251    260     1
    251    261     1
    251    263     1
    252    256     1
    252    254     1
    252    255     1
    252    260     1
    252    261     1
    252    263     1
    253    260     1
    253    261     1
    253    263     1
    254    262     1
    254    257     1
    254    258     1
    254    259     1
    255    262     1
    255    257     1
    255    258     1
    255    259     1
    264    271     1
    264    272     1
    265    270     1
    265    268     1
    265    269     1
    265    274     1
    265    275     1
    265    277     1
    266    270     1
    266    268     1
    266    269     1
    266    274     1
    266    275     1
    266    277     1
    267    274     1
    267    275     1
    267    277     1
    268    273     1
    268    276     1
    268    271     1
    268    272     1
    269    273     1
    269    276     1
    269    271     1
    269    272     1
    278    285     1
    278    286     1
    279    284     1
    279    282     1
    279    283     1
    279    288     1
    279    289     1
    279    291     1
    280    284     1
    280    282     1
    280    283     1
    280    288     1
    280    289     1
    280    291     1
    281    288     1
    281    289     1
    281    291     1
    282    290     1
    282    285     1
    282    286     1
    282    287     1
    283    290     1
    283    285     1
    283    286     1
    283    287     1

[ angles ]
;    ai     aj     ak funct         c0         c1         c2         c3
      1      2      8     1   107.9700462 569.024000
      1      5     11     1   107.9700462 569.024000
      2      1      5     1   112.4800480 524.673600
      2      8     14     1   111.5100476 526.347200
      5     11     17     1   111.5100476 526.347200
      8     14     20     1   114.2100488 537.225600
     11     17     21     1   114.2100488 537.225600
     14     20     28     1   109.6600471 523.836800
     14     20     31     1   109.6600471 523.836800
     17     21     22     1   109.6600471 523.836800
     17     21     25     1   109.6600471 523.836800
     20     28     40     1   114.2100488 537.225600
     20     31     43     1   114.2100488 537.225600
     21     22     34     1   114.2100488 537.225600
     21     25     37     1   114.2100488 537.225600
     22     21     25     1   109.6600471 523.836800
     22     34     55     1   111.5100476 526.347200
     25     37     52     1   111.5100476 526.347200
     28     20     31     1   109.6600471 523.836800
     28     40     49     1   111.5100476 526.347200
     31     43     46     1   111.5100476 526.347200
     34     55    178     1   107.9700462 569.024000
     37     52    148     1   107.9700462 569.024000
     40     49    118     1   107.9700462 569.024000
     43     46     88     1   107.9700462 569.024000
     46     88     79     1   112.4800480 524.673600
     49    118    109     1   112.4800480 524.673600
     52    148    139     1   112.4800480 524.673600
     55    178    169     1   112.4800480 524.673600
     60     61     73     1   114.2100488 537.225600
     60     64     76     1   114.2100488 537.225600
     60     67     70     1   114.2100488 537.225600
     61     60     64     1   109.6600471 523.836800
     61     60     67     1   109.6600471 523.836800
     61     73     85     1   111.5100476 526.347200
     64     60     67     1   109.6600471 523.836800
     64     76     82     1   111.5100476 526.347200
     67     70     79     1   111.5100476 526.347200
     70     79     88     1   107.9700462 569.024000
     73     85    206     1   107.9700462 569.024000
     76     82    192     1   107.9700462 569.024000
     82    192    186     1   112.4800480 524.673600
     85    206    200     1   112.4800480 524.673600
     90     91    103     1   114.2100488 537.225600
     90     94    106     1   114.2100488 537.225600
     90     97    100     1   114.2100488 537.225600
     91     90     94     1   109.6600471 523.836800
     91     90     97     1   109.6600471 523.836800
     91    103    115     1   111.5100476 526.347200
     94     90     97     1   109.6600471 523.836800
     94    106    112     1   111.5100476 526.347200
     97    100    109     1   111.5100476 526.347200
    100    109    118     1   107.9700462 569.024000
    103    115    234     1   107.9700462 569.024000
    106    112    220     1   107.9700462 569.024000
    112    220    214     1   112.4800480 524.673600
    115    234    228     1   112.4800480 524.673600
    120    121    133     1   114.2100488 537.225600
    120    124    136     1   114.2100488 537.225600
    120    127    130     1   114.2100488 537.225600
    121    120    124     1   109.6600471 523.836800
    121    120    127     1   109.6600471 523.836800
    121    133    145     1   111.5100476 526.347200
    124    120    127     1   109.6600471 523.836800
    124    136    142     1   111.5100476 526.347200
    127    130    139     1   111.5100476 526.347200
    130    139    148     1   107.9700462 569.024000
    133    145    262     1   107.9700462 569.024000
    136    142    248     1   107.9700462 569.024000
    142    248    242     1   112.4800480 524.673600
    145    262    256     1   112.4800480 524.673600
    150    151    163     1   114.2100488 537.225600
    150    154    166     1   114.2100488 537.225600
    150    157    160     1   114.2100488 537.225600
    151    150    154     1   109.6600471 523.836800
    151    150    157     1   109.6600471 523.836800
    151    163    175     1   111.5100476 526.347200
    154    150    157     1   109.6600471 523.836800
    154    166    172     1   111.5100476 526.347200
    157    160    169     1   111.5100476 526.347200
    160    169    178     1   107.9700462 569.024000
    163    175    290     1   107.9700462 569.024000
    166    172    276     1   107.9700462 569.024000
    172    276    270     1   112.4800480 524.673600
    175    290    284     1   112.4800480 524.673600
    180    183    186     1   111.5100476 526.347200
    183    180    189     1   114.2100488 537.225600
    183    186    192     1   107.9700462 569.024000
    194    197    200     1   111.5100476 526.347200
    197    200    206     1   107.9700462 569.024000
    197    194    203     1   114.2100488 537.225600
    208    211    214     1   111.5100476 526.347200
    211    208    217     1   114.2100488 537.225600
    211    214    220     1   107.9700462 569.024000
    222    225    228     1   111.5100476 526.347200
    225    228    234     1   107.9700462 569.024000
    225    222    231     1   114.2100488 537.225600
    236    239    242     1   111.5100476 526.347200
    239    236    245     1   114.2100488 537.225600
    239    242    248     1   107.9700462 569.024000
    250    253    256     1   111.5100476 526.347200
    253    256    262     1   107.9700462 569.024000
    253    250    259     1   114.2100488 537.225600
    264    267    270     1   111.5100476 526.347200
    267    264    273     1   114.2100488 537.225600
    267    270    276     1   107.9700462 569.024000
    278    281    284     1   111.5100476 526.347200
    281    284    290     1   107.9700462 569.024000
    281    278    287     1   114.2100488 537.225600
      1      2      3     1   109.7800468 425.094400
      1      2      4     1   109.7800468 425.094400
      1      5      6     1   109.7800468 425.094400
      1      5      7     1   109.7800468 425.094400
      2      8      9     1   109.8000471 387.438400
      2      8     10     1   109.8000471 387.438400
      3      2      8     1   109.5600471 388.275200
      3      2      4     1   108.4600466 328.025600
      4      2      8     1   109.5600471 388.275200
      5     11     12     1   109.8000471 387.438400
      5     11     13     1   109.8000471 387.438400
      6      5     11     1   109.5600471 388.275200
      6      5      7     1   108.4600466 328.025600
      7      5     11     1   109.5600471 388.275200
      8     14     15     1   110.5600475 386.601600
      8     14     16     1   110.5600475 386.601600
      9      8     14     1   109.8000471 387.438400
      9      8     10     1   107.5800459 329.699200
     10      8     14     1   109.8000471 387.438400
     11     17     18     1   110.5600475 386.601600
     11     17     19     1   110.5600475 386.601600
     12     11     17     1   109.8000471 387.438400
     12     11     13     1   107.5800459 329.699200
     13     11     17     1   109.8000471 387.438400
     14     20     58     1   110.1100470 384.091200
     15     14     20     1   108.0100461 406.684800
     15     14     16     1   109.7500473 328.025600
     16     14     20     1   108.0100461 406.684800
     17     21     59     1   110.1100470 384.091200
     18     17     21     1   108.0100461 406.684800
     18     17     19     1   109.7500473 328.025600
     19     17     21     1   108.0100461 406.684800
     20     28     29     1   108.0100461 406.684800
     20     28     30     1   108.0100461 406.684800
     20     31     32     1   108.0100461 406.684800
     20     31     33     1   108.0100461 406.684800
     21     22     23     1   108.0100461 406.684800
     21     22     24     1   108.0100461 406.684800
     21     25     26     1   108.0100461 406.684800
     21     25     27     1   108.0100461 406.684800
     22     21     59     1   110.1100470 384.091200
     22     34     35     1   109.8000471 387.438400
     22     34     36     1   109.8000471 387.438400
     23     22     34     1   110.5600475 386.601600
     23     22     24     1   109.7500473 328.025600
     24     22     34     1   110.5600475 386.601600
     25     21     59     1   110.1100470 384.091200
     25     37     38     1   109.8000471 387.438400
     25     37     39     1   109.8000471 387.438400
     26     25     37     1   110.5600475 386.601600
     26     25     27     1   109.7500473 328.025600
     27     25     37     1   110.5600475 386.601600
     28     20     58     1   110.1100470 384.091200
     28     40     41     1   109.8000471 387.438400
     28     40     42     1   109.8000471 387.438400
     29     28     40     1   110.5600475 386.601600
     29     28     30     1   109.7500473 328.025600
     30     28     40     1   110.5600475 386.601600
     31     20     58     1   110.1100470 384.091200
     31     43     44     1   109.8000471 387.438400
     31     43     45     1   109.8000471 387.438400
     32     31     43     1   110.5600475 386.601600
     32     31     33     1   109.7500473 328.025600
     33     31     43     1   110.5600475 386.601600
     34     55     56     1   109.8000471 387.438400
     34     55     57     1   109.8000471 387.438400
     35     34     55     1   109.8000471 387.438400
     35     34     36     1   107.5800459 329.699200
     36     34     55     1   109.8000471 387.438400
     37     52     53     1   109.8000471 387.438400
     37     52     54     1   109.8000471 387.438400
     38     37     52     1   109.8000471 387.438400
     38     37     39     1   107.5800459 329.699200
     39     37     52     1   109.8000471 387.438400
     40     49     50     1   109.8000471 387.438400
     40     49     51     1   109.8000471 387.438400
     41     40     49     1   109.8000471 387.438400
     41     40     42     1   107.5800459 329.699200
     42     40     49     1   109.8000471 387.438400
     43     46     47     1   109.8000471 387.438400
     43     46     48     1   109.8000471 387.438400
     44     43     46     1   109.8000471 387.438400
     44     43     45     1   107.5800459 329.699200
     45     43     46     1   109.8000471 387.438400
     47     46     88     1   108.7000466 426.768000
     47     46     48     1   107.5800459 329.699200
     48     46     88     1   108.7000466 426.768000
     50     49    118     1   108.7000466 426.768000
     50     49     51     1   107.5800459 329.699200
     51     49    118     1   108.7000466 426.768000
     53     52    148     1   108.7000466 426.768000
     53     52     54     1   107.5800459 329.699200
     54     52    148     1   108.7000466 426.768000
     56     55    178     1   108.7000466 426.768000
     56     55     57     1   107.5800459 329.699200
     57     55    178     1   108.7000466 426.768000
     60     61     62     1   108.0100461 406.684800
     60     61     63     1   108.0100461 406.684800
     60     64     65     1   108.0100461 406.684800
     60     64     66     1   108.0100461 406.684800
     60     67     68     1   108.0100461 406.684800
     60     67     69     1   108.0100461 406.684800
     61     60     89     1   110.1100470 384.091200
     61     73     74     1   109.8000471 387.438400
     61     73     75     1   109.8000471 387.438400
     62     61     73     1   110.5600475 386.601600
     62     61     63     1   109.7500473 328.025600
     63     61     73     1   110.5600475 386.601600
     64     60     89     1   110.1100470 384.091200
     64     76     77     1   109.8000471 387.438400
     64     76     78     1   109.8000471 387.438400
     65     64     76     1   110.5600475 386.601600
     65     64     66     1   109.7500473 328.025600
     66     64     76     1   110.5600475 386.601600
     67     60     89     1   110.1100470 384.091200
     67     70     71     1   109.8000471 387.438400
     67     70     72     1   109.8000471 387.438400
     68     67     70     1   110.5600475 386.601600
     68     67     69     1   109.7500473 328.025600
     69     67     70     1   110.5600475 386.601600
     70     79     80     1   109.5600471 388.275200
     70     79     81     1   109.5600471 388.275200
     71     70     79     1   109.8000471 387.438400
     71     70     72     1   107.5800459 329.699200
     72     70     79     1   109.8000471 387.438400
     73     85     86     1   109.5600471 388.275200
     73     85     87     1   109.5600471 388.275200
     74     73     85     1   109.8000471 387.438400
     74     73     75     1   107.5800459 329.699200
     75     73     85     1   109.8000471 387.438400
     76     82     83     1   109.5600471 388.275200
     76     82     84     1   109.5600471 388.275200
     77     76     82     1   109.8000471 387.438400
     77     76     78     1   107.5800459 329.699200
     78     76     82     1   109.8000471 387.438400
     80     79     88     1   109.7800468 425.094400
     80     79     81     1   108.4600466 328.025600
     81     79     88     1   109.7800468 425.094400
     83     82    192     1   109.7800468 425.094400
     83     82     84     1   108.4600466 328.025600
     84     82    192     1   109.7800468 425.094400
     86     85    206     1   109.7800468 425.094400
     86     85     87     1   108.4600466 328.025600
     87     85    206     1   109.7800468 425.094400
     90     91     92     1   108.0100461 406.684800
     90     91     93     1   108.0100461 406.684800
     90     94     95     1   108.0100461 406.684800
     90     94     96     1   108.0100461 406.684800
     90     97     98     1   108.0100461 406.684800
     90     97     99     1   108.0100461 406.684800
     91     90    119     1   110.1100470 384.091200
     91    103    104     1   109.8000471 387.438400
     91    103    105     1   109.8000471 387.438400
     92     91    103     1   110.5600475 386.601600
     92     91     93     1   109.7500473 328.025600
     93     91    103     1   110.5600475 386.601600
     94     90    119     1   110.1100470 384.091200
     94    106    107     1   109.8000471 387.438400
     94    106    108     1   109.8000471 387.438400
     95     94    106     1   110.5600475 386.601600
     95     94     96     1   109.7500473 328.025600
     96     94    106     1   110.5600475 386.601600
     97     90    119     1   110.1100470 384.091200
     97    100    101     1   109.8000471 387.438400
     97    100    102     1   109.8000471 387.438400
     98     97    100     1   110.5600475 386.601600
     98     97     99     1   109.7500473 328.025600
     99     97    100     1   110.5600475 386.601600
    100    109    110     1   109.5600471 388.275200
    100    109    111     1   109.5600471 388.275200
    101    100    109     1   109.8000471 387.438400
    101    100    102     1   107.5800459 329.699200
    102    100    109     1   109.8000471 387.438400
    103    115    116     1   109.5600471 388.275200
    103    115    117     1   109.5600471 388.275200
    104    103    115     1   109.8000471 387.438400
    104    103    105     1   107.5800459 329.699200
    105    103    115     1   109.8000471 387.438400
    106    112    113     1   109.5600471 388.275200
    106    112    114     1   109.5600471 388.275200
    107    106    112     1   109.8000471 387.438400
    107    106    108     1   107.5800459 329.699200
    108    106    112     1   109.8000471 387.438400
    110    109    118     1   109.7800468 425.094400
    110    109    111     1   108.4600466 328.025600
    111    109    118     1   109.7800468 425.094400
    113    112    220     1   109.7800468 425.094400
    113    112    114     1   108.4600466 328.025600
    114    112    220     1   109.7800468 425.094400
    116    115    234     1   109.7800468 425.094400
    116    115    117     1   108.4600466 328.025600
    117    115    234     1   109.7800468 425.094400
    120    121    122     1   108.0100461 406.684800
    120    121    123     1   108.0100461 406.684800
    120    124    125     1   108.0100461 406.684800
    120    124    126     1   108.0100461 406.684800
    120    127    128     1   108.0100461 406.684800
    120    127    129     1   108.0100461 406.684800
    121    120    149     1   110.1100470 384.091200
    121    133    134     1   109.8000471 387.438400
    121    133    135     1   109.8000471 387.438400
    122    121    133     1   110.5600475 386.601600
    122    121    123     1   109.7500473 328.025600
    123    121    133     1   110.5600475 386.601600
    124    120    149     1   110.1100470 384.091200
    124    136    137     1   109.8000471 387.438400
    124    136    138     1   109.8000471 387.438400
    125    124    136     1   110.5600475 386.601600
    125    124    126     1   109.7500473 328.025600
    126    124    136     1   110.5600475 386.601600
    127    120    149     1   110.1100470 384.091200
    127    130    131     1   109.8000471 387.438400
    127    130    132     1   109.8000471 387.438400
    128    127    130     1   110.5600475 386.601600
    128    127    129     1   109.7500473 328.025600
    129    127    130     1   110.5600475 386.601600
    130    139    140     1   109.5600471 388.275200
    130    139    141     1   109.5600471 388.275200
    131    130    139     1   109.8000471 387.438400
    131    130    132     1   107.5800459 329.699200
    132    130    139     1   109.8000471 387.438400
    133    145    146     1   109.5600471 388.275200
    133    145    147     1   109.5600471 388.275200
    134    133    145     1   109.8000471 387.438400
    134    133    135     1   107.5800459 329.699200
    135    133    145     1   109.8000471 387.438400
    136    142    143     1   109.5600471 388.275200
    136    142    144     1   109.5600471 388.275200
    137    136    142     1   109.8000471 387.438400
    137    136    138     1   107.5800459 329.699200
    138    136    142     1   109.8000471 387.438400
    140    139    148     1   109.7800468 425.094400
    140    139    141     1   108.4600466 328.025600
    141    139    148     1   109.7800468 425.094400
    143    142    248     1   109.7800468 425.094400
    143    142    144     1   108.4600466 328.025600
    144    142    248     1   109.7800468 425.094400
    146    145    262     1   109.7800468 425.094400
    146    145    147     1   108.4600466 328.025600
    147    145    262     1   109.7800468 425.094400
    150    151    152     1   108.0100461 406.684800
    150    151    153     1   108.0100461 406.684800
    150    154    155     1   108.0100461 406.684800
    150    154    156     1   108.0100461 406.684800
    150    157    158     1   108.0100461 406.684800
    150    157    159     1   108.0100461 406.684800
    151    150    179     1   110.1100470 384.091200
    151    163    164     1   109.8000471 387.438400
    151    163    165     1   109.8000471 387.438400
    152    151    163     1   110.5600475 386.601600
    152    151    153     1   109.7500473 328.025600
    153    151    163     1   110.5600475 386.601600
    154    150    179     1   110.1100470 384.091200
    154    166    167     1   109.8000471 387.438400
    154    166    168     1   109.8000471 387.438400
    155    154    166     1   110.5600475 386.601600
    155    154    156     1   109.7500473 328.025600
    156    154    166     1   110.5600475 386.601600
    157    150    179     1   110.1100470 384.091200
    157    160    161     1   109.8000471 387.438400
    157    160    162     1   109.8000471 387.438400
    158    157    160     1   110.5600475 386.601600
    158    157    159     1   109.7500473 328.025600
    159    157    160     1   110.5600475 386.601600
    160    169    170     1   109.5600471 388.275200
    160    169    171     1   109.5600471 388.275200
    161    160    169     1   109.8000471 387.438400
    161    160    162     1   107.5800459 329.699200
    162    160    169     1   109.8000471 387.438400
    163    175    176     1   109.5600471 388.275200
    163    175    177     1   109.5600471 388.275200
    164    163    175     1   109.8000471 387.438400
    164    163    165     1   107.5800459 329.699200
    165    163    175     1   109.8000471 387.438400
    166    172    173     1   109.5600471 388.275200
    166    172    174     1   109.5600471 388.275200
    167    166    172     1   109.8000471 387.438400
    167    166    168     1   107.5800459 329.699200
    168    166    172     1   109.8000471 387.438400
    170    169    178     1   109.7800468 425.094400
    170    169    171     1   108.4600466 328.025600
    171    169    178     1   109.7800468 425.094400
    173    172    276     1   109.7800468 425.094400
    173    172    174     1   108.4600466 328.025600
    174    172    276     1   109.7800468 425.094400
    176    175    290     1   109.7800468 425.094400
    176    175    177     1   108.4600466 328.025600
    177    175    290     1   109.7800468 425.094400
    180    183    184     1   109.8000471 387.438400
    180    183    185     1   109.8000471 387.438400
    180    189    190     1   110.1100470 384.091200
    180    189    191     1   110.1100470 384.091200
    180    189    193     1   110.1100470 384.091200
    181    180    183     1   110.5600475 386.601600
    181    180    189     1   108.0100461 406.684800
    181    180    182     1   109.7500473 328.025600
    182    180    183     1   110.5600475 386.601600
    182    180    189     1   108.0100461 406.684800
    183    186    187     1   109.5600471 388.275200
    183    186    188     1   109.5600471 388.275200
    184    183    186     1   109.8000471 387.438400
    184    183    185     1   107.5800459 329.699200
    185    183    186     1   109.8000471 387.438400
    187    186    192     1   109.7800468 425.094400
    187    186    188     1   108.4600466 328.025600
    188    186    192     1   109.7800468 425.094400
    190    189    191     1   108.3000464 339.740800
    190    189    193     1   108.3000464 339.740800
    191    189    193     1   108.3000464 339.740800
    194    197    198     1   109.8000471 387.438400
    194    197    199     1   109.8000471 387.438400
    194    203    204     1   110.1100470 384.091200
    194    203    205     1   110.1100470 384.091200
    194    203    207     1   110.1100470 384.091200
    195    194    197     1   110.5600475 386.601600
    195    194    203     1   108.0100461 406.684800
    195    194    196     1   109.7500473 328.025600
    196    194    197     1   110.5600475 386.601600
    196    194    203     1   108.0100461 406.684800
    197    200    201     1   109.5600471 388.275200
    197    200    202     1   109.5600471 388.275200
    198    197    200     1   109.8000471 387.438400
    198    197    199     1   107.5800459 329.699200
    199    197    200     1   109.8000471 387.438400
    201    200    206     1   109.7800468 425.094400
    201    200    202     1   108.4600466 328.025600
    202    200    206     1   109.7800468 425.094400
    204    203    205     1   108.3000464 339.740800
    204    203    207     1   108.3000464 339.740800
    205    203    207     1   108.3000464 339.740800
    208    211    212     1   109.8000471 387.438400
    208    211    213     1   109.8000471 387.438400
    208    217    218     1   110.1100470 384.091200
    208    217    219     1   110.1100470 384.091200
    208    217    221     1   110.1100470 384.091200
    209    208    211     1   110.5600475 386.601600
    209    208    217     1   108.0100461 406.684800
    209    208    210     1   109.7500473 328.025600
    210    208    211     1   110.5600475 386.601600
    210    208    217     1   108.0100461 406.684800
    211    214    215     1   109.5600471 388.275200
    211    214    216     1   109.5600471 388.275200
    212    211    214     1   109.8000471 387.438400
    212    211    213     1   107.5800459 329.699200
    213    211    214     1   109.8000471 387.438400
    215    214    220     1   109.7800468 425.094400
    215    214    216     1   108.4600466 328.025600
    216    214    220     1   109.7800468 425.094400
    218    217    219     1   108.3000464 339.740800
    218    217    221     1   108.3000464 339.740800
    219    217    221     1   108.3000464 339.740800
    222    225    226     1   109.8000471 387.438400
    222    225    227     1   109.8000471 387.438400
    222    231    232     1   110.1100470 384.091200
    222    231    233     1   110.1100470 384.091200
    222    231    235     1   110.1100470 384.091200
    223    222    225     1   110.5600475 386.601600
    223    222    231     1   108.0100461 406.684800
    223    222    224     1   109.7500473 328.025600
    224    222    225     1   110.5600475 386.601600
    224    222    231     1   108.0100461 406.684800
    225    228    229     1   109.5600471 388.275200
    225    228    230     1   109.5600471 388.275200
    226    225    228     1   109.8000471 387.438400
    226    225    227     1   107.5800459 329.699200
    227    225    228     1   109.8000471 387.438400
    229    228    234     1   109.7800468 425.094400
    229    228    230     1   108.4600466 328.025600
    230    228    234     1   109.7800468 425.094400
    232    231    233     1   108.3000464 339.740800
    232    231    235     1   108.3000464 339.740800
    233    231    235     1   108.3000464 339.740800
    236    239    240     1   109.8000471 387.438400
    236    239    241     1   109.8000471 387.438400
    236    245    246     1   110.1100470 384.091200
    236    245    247     1   110.1100470 384.091200
    236    245    249     1   110.1100470 384.091200
    237    236    239     1   110.5600475 386.601600
    237    236    245     1   108.0100461 406.684800
    237    236    238     1   109.7500473 328.025600
    238    236    239     1   110.5600475 386.601600
    238    236    245     1   108.0100461 406.684800
    239    242    243     1   109.5600471 388.275200
    239    242    244     1   109.5600471 388.275200
    240    239    242     1   109.8000471 387.438400
    240    239    241     1   107.5800459 329.699200
    241    239    242     1   109.8000471 387.438400
    243    242    248     1   109.7800468 425.094400
    243    242    244     1   108.4600466 328.025600
    244    242    248     1   109.7800468 425.094400
    246    245    247     1   108.3000464 339.740800
    246    245    249     1   108.3000464 339.740800
    247    245    249     1   108.3000464 339.740800
    250    253    254     1   109.8000471 387.438400
    250    253    255     1   109.8000471 387.438400
    250    259    260     1   110.1100470 384.091200
    250    259    261     1   110.1100470 384.091200
    250    259    263     1   110.1100470 384.091200
    251    250    253     1   110.5600475 386.601600
    251    250    259     1   108.0100461 406.684800
    251    250    252     1   109.7500473 328.025600
    252    250    253     1   110.5600475 386.601600
    252    250    259     1   108.0100461 406.684800
    253    256    257     1   109.5600471 388.275200
    253    256    258     1   109.5600471 388.275200
    254    253    256     1   109.8000471 387.438400
    254    253    255     1   107.5800459 329.699200
    255    253    256     1   109.8000471 387.438400
    257    256    262     1   109.7800468 425.094400
    257    256    258     1   108.4600466 328.025600
    258    256    262     1   109.7800468 425.094400
    260    259    261     1   108.3000464 339.740800
    260    259    263     1   108.3000464 339.740800
    261    259    263     1   108.3000464 339.740800
    264    267    268     1   109.8000471 387.438400
    264    267    269     1   109.8000471 387.438400
    264    273    274     1   110.1100470 384.091200
    264    273    275     1   110.1100470 384.091200
    264    273    277     1   110.1100470 384.091200
    265    264    267     1   110.5600475 386.601600
    265    264    273     1   108.0100461 406.684800
    265    264    266     1   109.7500473 328.025600
    266    264    267     1   110.5600475 386.601600
    266    264    273     1   108.0100461 406.684800
    267    270    271     1   109.5600471 388.275200
    267    270    272     1   109.5600471 388.275200
    268    267    270     1   109.8000471 387.438400
    268    267    269     1   107.5800459 329.699200
    269    267    270     1   109.8000471 387.438400
    271    270    276     1   109.7800468 425.094400
    271    270    272     1   108.4600466 328.025600
    272    270    276     1   109.7800468 425.094400
    274    273    275     1   108.3000464 339.740800
    274    273    277     1   108.3000464 339.740800
    275    273    277     1   108.3000464 339.740800
    278    281    282     1   109.8000471 387.438400
    278    281    283     1   109.8000471 387.438400
    278    287    288     1   110.1100470 384.091200
    278    287    289     1   110.1100470 384.091200
    278    287    291     1   110.1100470 384.091200
    279    278    281     1   110.5600475 386.601600
    279    278    287     1   108.0100461 406.684800
    279    278    280     1   109.7500473 328.025600
    280    278    281     1   110.5600475 386.601600
    280    278    287     1   108.0100461 406.684800
    281    284    285     1   109.5600471 388.275200
    281    284    286     1   109.5600471 388.275200
    282    281    284     1   109.8000471 387.438400
    282    281    283     1   107.5800459 329.699200
    283    281    284     1   109.8000471 387.438400
    285    284    290     1   109.7800468 425.094400
    285    284    286     1   108.4600466 328.025600
    286    284    290     1   109.7800468 425.094400
    288    287    289     1   108.3000464 339.740800
    288    287    291     1   108.3000464 339.740800
    289    287    291     1   108.3000464 339.740800

[ dihedrals ]
;    ai     aj     ak     al funct         c0         c1         c2         c3         c4         c5
      1      2      8     14     1  0.0000000  0.6508444  3
      1      5     11     17     1  0.0000000  0.6508444  3
      2      1      5     11     1  180.0000771  0.4184000  2
      2      1      5     11     1  0.0000000  1.6024720  3
      2      8     14     20     1  0.0000000  0.6508444  3
      5      1      2      8     1  180.0000771  0.4184000  2
      5      1      2      8     1  0.0000000  1.6024720  3
      5     11     17     21     1  0.0000000  0.6508444  3
      8     14     20     28     1  0.0000000  0.6508444  3
      8     14     20     31     1  0.0000000  0.6508444  3
     11     17     21     22     1  0.0000000  0.6508444  3
     11     17     21     25     1  0.0000000  0.6508444  3
     14     20     28     40     1  0.0000000  0.6508444  3
     14     20     31     43     1  0.0000000  0.6508444  3
     17     21     22     34     1  0.0000000  0.6508444  3
     17     21     25     37     1  0.0000000  0.6508444  3
     20     28     40     49     1  0.0000000  0.6508444  3
     20     31     43     46     1  0.0000000  0.6508444  3
     21     22     34     55     1  0.0000000  0.6508444  3
     21     25     37     52     1  0.0000000  0.6508444  3
     22     21     25     37     1  0.0000000  0.6508444  3
     22     34     55    178     1  0.0000000  0.6508444  3
     25     21     22     34     1  0.0000000  0.6508444  3
     25     37     52    148     1  0.0000000  0.6508444  3
     28     20     31     43     1  0.0000000  0.6508444  3
     28     40     49    118     1  0.0000000  0.6508444  3
     31     20     28     40     1  0.0000000  0.6508444  3
     31     43     46     88     1  0.0000000  0.6508444  3
     34     55    178    169     1  180.0000771  0.4184000  2
     34     55    178    169     1  0.0000000  1.6024720  3
     37     52    148    139     1  180.0000771  0.4184000  2
     37     52    148    139     1  0.0000000  1.6024720  3
     40     49    118    109     1  180.0000771  0.4184000  2
     40     49    118    109     1  0.0000000  1.6024720  3
     43     46     88     79     1  180.0000771  0.4184000  2
     43     46     88     79     1  0.0000000  1.6024720  3
     46     88     79     70     1  180.0000771  0.4184000  2
     46     88     79     70     1  0.0000000  1.6024720  3
     49    118    109    100     1  180.0000771  0.4184000  2
     49    118    109    100     1  0.0000000  1.6024720  3
     52    148    139    130     1  180.0000771  0.4184000  2
     52    148    139    130     1  0.0000000  1.6024720  3
     55    178    169    160     1  180.0000771  0.4184000  2
     55    178    169    160     1  0.0000000  1.6024720  3
     60     61     73     85     1  0.0000000  0.6508444  3
     60     64     76     82     1  0.0000000  0.6508444  3
     60     67     70     79     1  0.0000000  0.6508444  3
     61     60     64     76     1  0.0000000  0.6508444  3
     61     60     67     70     1  0.0000000  0.6508444  3
     61     73     85    206     1  0.0000000  0.6508444  3
     64     60     61     73     1  0.0000000  0.6508444  3
     64     60     67     70     1  0.0000000  0.6508444  3
     64     76     82    192     1  0.0000000  0.6508444  3
     67     60     61     73     1  0.0000000  0.6508444  3
     67     60     64     76     1  0.0000000  0.6508444  3
     67     70     79     88     1  0.0000000  0.6508444  3
     73     85    206    200     1  180.0000771  0.4184000  2
     73     85    206    200     1  0.0000000  1.6024720  3
     76     82    192    186     1  180.0000771  0.4184000  2
     76     82    192    186     1  0.0000000  1.6024720  3
     82    192    186    183     1  180.0000771  0.4184000  2
     82    192    186    183     1  0.0000000  1.6024720  3
     85    206    200    197     1  180.0000771  0.4184000  2
     85    206    200    197     1  0.0000000  1.6024720  3
     90     91    103    115     1  0.0000000  0.6508444  3
     90     94    106    112     1  0.0000000  0.6508444  3
     90     97    100    109     1  0.0000000  0.6508444  3
     91     90     94    106     1  0.0000000  0.6508444  3
     91     90     97    100     1  0.0000000  0.6508444  3
     91    103    115    234     1  0.0000000  0.6508444  3
     94     90     91    103     1  0.0000000  0.6508444  3
     94     90     97    100     1  0.0000000  0.6508444  3
     94    106    112    220     1  0.0000000  0.6508444  3
     97     90     91    103     1  0.0000000  0.6508444  3
     97     90     94    106     1  0.0000000  0.6508444  3
     97    100    109    118     1  0.0000000  0.6508444  3
    103    115    234    228     1  180.0000771  0.4184000  2
    103    115    234    228     1  0.0000000  1.6024720  3
    106    112    220    214     1  180.0000771  0.4184000  2
    106    112    220    214     1  0.0000000  1.6024720  3
    112    220    214    211     1  180.0000771  0.4184000  2
    112    220    214    211     1  0.0000000  1.6024720  3
    115    234    228    225     1  180.0000771  0.4184000  2
    115    234    228    225     1  0.0000000  1.6024720  3
    120    121    133    145     1  0.0000000  0.6508444  3
    120    124    136    142     1  0.0000000  0.6508444  3
    120    127    130    139     1  0.0000000  0.6508444  3
    121    120    124    136     1  0.0000000  0.6508444  3
    121    120    127    130     1  0.0000000  0.6508444  3
    121    133    145    262     1  0.0000000  0.6508444  3
    124    120    121    133     1  0.0000000  0.6508444  3
    124    120    127    130     1  0.0000000  0.6508444  3
    124    136    142    248     1  0.0000000  0.6508444  3
    127    120    121    133     1  0.0000000  0.6508444  3
    127    120    124    136     1  0.0000000  0.6508444  3
    127    130    139    148     1  0.0000000  0.6508444  3
    133    145    262    256     1  180.0000771  0.4184000  2
    133    145    262    256     1  0.0000000  1.6024720  3
    136    142    248    242     1  180.0000771  0.4184000  2
    136    142    248    242     1  0.0000000  1.6024720  3
    142    248    242    239     1  180.0000771  0.4184000  2
    142    248    242    239     1  0.0000000  1.6024720  3
    145    262    256    253     1  180.0000771  0.4184000  2
    145    262    256    253     1  0.0000000  1.6024720  3
    150    151    163    175     1  0.0000000  0.6508444  3
    150    154    166    172     1  0.0000000  0.6508444  3
    150    157    160    169     1  0.0000000  0.6508444  3
    151    150    154    166     1  0.0000000  0.6508444  3
    151    150    157    160     1  0.0000000  0.6508444  3
    151    163    175    290     1  0.0000000  0.6508444  3
    154    150    151    163     1  0.0000000  0.6508444  3
    154    150    157    160     1  0.0000000  0.6508444  3
    154    166    172    276     1  0.0000000  0.6508444  3
    157    150    151    163     1  0.0000000  0.6508444  3
    157    150    154    166     1  0.0000000  0.6508444  3
    157    160    169    178     1  0.0000000  0.6508444  3
    163    175    290    284     1  180.0000771  0.4184000  2
    163    175    290    284     1  0.0000000  1.6024720  3
    166    172    276    270     1  180.0000771  0.4184000  2
    166    172    276    270     1  0.0000000  1.6024720  3
    172    276    270    267     1  180.0000771  0.4184000  2
    172    276    270    267     1  0.0000000  1.6024720  3
    175    290    284    281     1  180.0000771  0.4184000  2
    175    290    284    281     1  0.0000000  1.6024720  3
    180    183    186    192     1  0.0000000  0.6508444  3
    186    183    180    189     1  0.0000000  0.6508444  3
    194    197    200    206     1  0.0000000  0.6508444  3
    200    197    194    203     1  0.0000000  0.6508444  3
    208    211    214    220     1  0.0000000  0.6508444  3
    214    211    208    217     1  0.0000000  0.6508444  3
    222    225    228    234     1  0.0000000  0.6508444  3
    228    225    222    231     1  0.0000000  0.6508444  3
    236    239    242    248     1  0.0000000  0.6508444  3
    242    239    236    245     1  0.0000000  0.6508444  3
    250    253    256    262     1  0.0000000  0.6508444  3
    256    253    250    259     1  0.0000000  0.6508444  3
    264    267    270    276     1  0.0000000  0.6508444  3
    270    267    264    273     1  0.0000000  0.6508444  3
    278    281    284    290     1  0.0000000  0.6508444  3
    284    281    278    287     1  0.0000000  0.6508444  3
      1      2      8      9     1  0.0000000  1.0460000  1
      1      2      8      9     1  0.0000000  0.0000000  3
      1      2      8     10     1  0.0000000  1.0460000  1
      1      2      8     10     1  0.0000000  0.0000000  3
      1      5     11     12     1  0.0000000  1.0460000  1
      1      5     11     12     1  0.0000000  0.0000000  3
      1      5     11     13     1  0.0000000  1.0460000  1
      1      5     11     13     1  0.0000000  0.0000000  3
      2      1      5      6     1  0.0000000  1.6038667  3
      2      1      5      7     1  0.0000000  1.6038667  3
      2      8     14     15     1  0.0000000  0.6508444  3
      2      8     14     16     1  0.0000000  0.6508444  3
      5      1      2      3     1  0.0000000  1.6038667  3
      3      2      8     14     1  0.0000000  0.6508444  3
      3      2      8      9     1  0.0000000  0.6508444  3
      3      2      8     10     1  0.0000000  0.6508444  3
      5      1      2      4     1  0.0000000  1.6038667  3
      4      2      8     14     1  0.0000000  0.6508444  3
      4      2      8      9     1  0.0000000  0.6508444  3
      4      2      8     10     1  0.0000000  0.6508444  3
      5     11     17     18     1  0.0000000  0.6508444  3
      5     11     17     19     1  0.0000000  0.6508444  3
      6      5     11     17     1  0.0000000  0.6508444  3
      6      5     11     12     1  0.0000000  0.6508444  3
      6      5     11     13     1  0.0000000  0.6508444  3
      7      5     11     17     1  0.0000000  0.6508444  3
      7      5     11     12     1  0.0000000  0.6508444  3
      7      5     11     13     1  0.0000000  0.6508444  3
      8     14     20     58     1  0.0000000  0.6508444  3
      9      8     14     20     1  0.0000000  0.6508444  3
      9      8     14     15     1  0.0000000  0.6508444  3
      9      8     14     16     1  0.0000000  0.6508444  3
     10      8     14     20     1  0.0000000  0.6508444  3
     10      8     14     15     1  0.0000000  0.6508444  3
     10      8     14     16     1  0.0000000  0.6508444  3
     11     17     21     59     1  0.0000000  0.6508444  3
     12     11     17     21     1  0.0000000  0.6508444  3
     12     11     17     18     1  0.0000000  0.6508444  3
     12     11     17     19     1  0.0000000  0.6508444  3
     13     11     17     21     1  0.0000000  0.6508444  3
     13     11     17     18     1  0.0000000  0.6508444  3
     13     11     17     19     1  0.0000000  0.6508444  3
     14     20     28     29     1  0.0000000  0.6508444  3
     14     20     28     30     1  0.0000000  0.6508444  3
     14     20     31     32     1  0.0000000  0.6508444  3
     14     20     31     33     1  0.0000000  0.6508444  3
     15     14     20     28     1  0.0000000  0.6508444  3
     15     14     20     31     1  0.0000000  0.6508444  3
     15     14     20     58     1  0.0000000  0.6508444  3
     16     14     20     28     1  0.0000000  0.6508444  3
     16     14     20     31     1  0.0000000  0.6508444  3
     16     14     20     58     1  0.0000000  0.6508444  3
     17     21     22     23     1  0.0000000  0.6508444  3
     17     21     22     24     1  0.0000000  0.6508444  3
     17     21     25     26     1  0.0000000  0.6508444  3
     17     21     25     27     1  0.0000000  0.6508444  3
     18     17     21     22     1  0.0000000  0.6508444  3
     18     17     21     25     1  0.0000000  0.6508444  3
     18     17     21     59     1  0.0000000  0.6508444  3
     19     17     21     22     1  0.0000000  0.6508444  3
     19     17     21     25     1  0.0000000  0.6508444  3
     19     17     21     59     1  0.0000000  0.6508444  3
     20     28     40     41     1  0.0000000  0.6508444  3
     20     28     40     42     1  0.0000000  0.6508444  3
     20     31     43     44     1  0.0000000  0.6508444  3
     20     31     43     45     1  0.0000000  0.6508444  3
     21     22     34     35     1  0.0000000  0.6508444  3
     21     22     34     36     1  0.0000000  0.6508444  3
     21     25     37     38     1  0.0000000  0.6508444  3
     21     25     37     39     1  0.0000000  0.6508444  3
     22     21     25     26     1  0.0000000  0.6508444  3
     22     21     25     27     1  0.0000000  0.6508444  3
     22     34     55     56     1  0.0000000  0.6694400  3
     22     34     55     57     1  0.0000000  0.6694400  3
     23     22     21     25     1  0.0000000  0.6508444  3
     23     22     21     59     1  0.0000000  0.6508444  3
     23     22     34     55     1  0.0000000  0.6508444  3
     23     22     34     35     1  0.0000000  0.6508444  3
     23     22     34     36     1  0.0000000  0.6508444  3
     24     22     21     25     1  0.0000000  0.6508444  3
     24     22     21     59     1  0.0000000  0.6508444  3
     24     22     34     55     1  0.0000000  0.6508444  3
     24     22     34     35     1  0.0000000  0.6508444  3
     24     22     34     36     1  0.0000000  0.6508444  3
     25     37     52     53     1  0.0000000  0.6694400  3
     25     37     52     54     1  0.0000000  0.6694400  3
     26     25     21     59     1  0.0000000  0.6508444  3
     26     25     37     52     1  0.0000000  0.6508444  3
     26     25     37     38     1  0.0000000  0.6508444  3
     26     25     37     39     1  0.0000000  0.6508444  3
     27     25     21     59     1  0.0000000  0.6508444  3
     27     25     37     52     1  0.0000000  0.6508444  3
     27     25     37     38     1  0.0000000  0.6508444  3
     27     25     37     39     1  0.0000000  0.6508444  3
     28     20     31     32     1  0.0000000  0.6508444  3
     28     20     31     33     1  0.0000000  0.6508444  3
     28     40     49     50     1  0.0000000  0.6694400  3
     28     40     49     51     1  0.0000000  0.6694400  3
     29     28     20     31     1  0.0000000  0.6508444  3
     29     28     20     58     1  0.0000000  0.6508444  3
     29     28     40     49     1  0.0000000  0.6508444  3
     29     28     40     41     1  0.0000000  0.6508444  3
     29     28     40     42     1  0.0000000  0.6508444  3
     30     28     20     31     1  0.0000000  0.6508444  3
     30     28     20     58     1  0.0000000  0.6508444  3
     30     28     40     49     1  0.0000000  0.6508444  3
     30     28     40     41     1  0.0000000  0.6508444  3
     30     28     40     42     1  0.0000000  0.6508444  3
     31     43     46     47     1  0.0000000  0.6694400  3
     31     43     46     48     1  0.0000000  0.6694400  3
     32     31     20     58     1  0.0000000  0.6508444  3
     32     31     43     46     1  0.0000000  0.6508444  3
     32     31     43     44     1  0.0000000  0.6508444  3
     32     31     43     45     1  0.0000000  0.6508444  3
     33     31     20     58     1  0.0000000  0.6508444  3
     33     31     43     46     1  0.0000000  0.6508444  3
     33     31     43     44     1  0.0000000  0.6508444  3
     33     31     43     45     1  0.0000000  0.6508444  3
     34     22     21     59     1  0.0000000  0.6508444  3
     35     34     55    178     1  0.0000000  1.0460000  1
     35     34     55    178     1  0.0000000  0.0000000  3
     35     34     55     56     1  0.0000000  0.6276000  3
     35     34     55     57     1  0.0000000  0.6276000  3
     36     34     55    178     1  0.0000000  1.0460000  1
     36     34     55    178     1  0.0000000  0.0000000  3
     36     34     55     56     1  0.0000000  0.6276000  3
     36     34     55     57     1  0.0000000  0.6276000  3
     37     25     21     59     1  0.0000000  0.6508444  3
     38     37     52    148     1  0.0000000  1.0460000  1
     38     37     52    148     1  0.0000000  0.0000000  3
     38     37     52     53     1  0.0000000  0.6276000  3
     38     37     52     54     1  0.0000000  0.6276000  3
     39     37     52    148     1  0.0000000  1.0460000  1
     39     37     52    148     1  0.0000000  0.0000000  3
     39     37     52     53     1  0.0000000  0.6276000  3
     39     37     52     54     1  0.0000000  0.6276000  3
     40     28     20     58     1  0.0000000  0.6508444  3
     41     40     49    118     1  0.0000000  1.0460000  1
     41     40     49    118     1  0.0000000  0.0000000  3
     41     40     49     50     1  0.0000000  0.6276000  3
     41     40     49     51     1  0.0000000  0.6276000  3
     42     40     49    118     1  0.0000000  1.0460000  1
     42     40     49    118     1  0.0000000  0.0000000  3
     42     40     49     50     1  0.0000000  0.6276000  3
     42     40     49     51     1  0.0000000  0.6276000  3
     43     31     20     58     1  0.0000000  0.6508444  3
     44     43     46     88     1  0.0000000  1.0460000  1
     44     43     46     88     1  0.0000000  0.0000000  3
     44     43     46     47     1  0.0000000  0.6276000  3
     44     43     46     48     1  0.0000000  0.6276000  3
     45     43     46     88     1  0.0000000  1.0460000  1
     45     43     46     88     1  0.0000000  0.0000000  3
     45     43     46     47     1  0.0000000  0.6276000  3
     45     43     46     48     1  0.0000000  0.6276000  3
     46     88     79     80     1  0.0000000  1.6038667  3
     46     88     79     81     1  0.0000000  1.6038667  3
     47     46     88     79     1  0.0000000  1.6038667  3
     48     46     88     79     1  0.0000000  1.6038667  3
     49    118    109    110     1  0.0000000  1.6038667  3
     49    118    109    111     1  0.0000000  1.6038667  3
     50     49    118    109     1  0.0000000  1.6038667  3
     51     49    118    109     1  0.0000000  1.6038667  3
     52    148    139    140     1  0.0000000  1.6038667  3
     52    148    139    141     1  0.0000000  1.6038667  3
     53     52    148    139     1  0.0000000  1.6038667  3
     54     52    148    139     1  0.0000000  1.6038667  3
     55    178    169    170     1  0.0000000  1.6038667  3
     55    178    169    171     1  0.0000000  1.6038667  3
     56     55    178    169     1  0.0000000  1.6038667  3
     57     55    178    169     1  0.0000000  1.6038667  3
     60     61     73     74     1  0.0000000  0.6508444  3
     60     61     73     75     1  0.0000000  0.6508444  3
     60     64     76     77     1  0.0000000  0.6508444  3
     60     64     76     78     1  0.0000000  0.6508444  3
     60     67     70     71     1  0.0000000  0.6508444  3
     60     67     70     72     1  0.0000000  0.6508444  3
     61     60     64     65     1  0.0000000  0.6508444  3
     61     60     64     66     1  0.0000000  0.6508444  3
     61     60     67     68     1  0.0000000  0.6508444  3
     61     60     67     69     1  0.0000000  0.6508444  3
     61     73     85     86     1  0.0000000  0.6508444  3
     61     73     85     87     1  0.0000000  0.6508444  3
     62     61     60     64     1  0.0000000  0.6508444  3
     62     61     60     67     1  0.0000000  0.6508444  3
     62     61     60     89     1  0.0000000  0.6508444  3
     62     61     73     85     1  0.0000000  0.6508444  3
     62     61     73     74     1  0.0000000  0.6508444  3
     62     61     73     75     1  0.0000000  0.6508444  3
     63     61     60     64     1  0.0000000  0.6508444  3
     63     61     60     67     1  0.0000000  0.6508444  3
     63     61     60     89     1  0.0000000  0.6508444  3
     63     61     73     85     1  0.0000000  0.6508444  3
     63     61     73     74     1  0.0000000  0.6508444  3
     63     61     73     75     1  0.0000000  0.6508444  3
     64     60     67     68     1  0.0000000  0.6508444  3
     64     60     67     69     1  0.0000000  0.6508444  3
     64     76     82     83     1  0.0000000  0.6508444  3
     64     76     82     84     1  0.0000000  0.6508444  3
     65     64     60     67     1  0.0000000  0.6508444  3
     65     64     60     89     1  0.0000000  0.6508444  3
     65     64     76     82     1  0.0000000  0.6508444  3
     65     64     76     77     1  0.0000000  0.6508444  3
     65     64     76     78     1  0.0000000  0.6508444  3
     66     64     60     67     1  0.0000000  0.6508444  3
     66     64     60     89     1  0.0000000  0.6508444  3
     66     64     76     82     1  0.0000000  0.6508444  3
     66     64     76     77     1  0.0000000  0.6508444  3
     66     64     76     78     1  0.0000000  0.6508444  3
     67     70     79     80     1  0.0000000  0.6508444  3
     67     70     79     81     1  0.0000000  0.6508444  3
     68     67     60     89     1  0.0000000  0.6508444  3
     68     67     70     79     1  0.0000000  0.6508444  3
     68     67     70     71     1  0.0000000  0.6508444  3
     68     67     70     72     1  0.0000000  0.6508444  3
     69     67     60     89     1  0.0000000  0.6508444  3
     69     67     70     79     1  0.0000000  0.6508444  3
     69     67     70     71     1  0.0000000  0.6508444  3
     69     67     70     72     1  0.0000000  0.6508444  3
     70     67     60     89     1  0.0000000  0.6508444  3
     71     70     79     88     1  0.0000000  1.0460000  1
     71     70     79     88     1  0.0000000  0.0000000  3
     71     70     79     80     1  0.0000000  0.6508444  3
     71     70     79     81     1  0.0000000  0.6508444  3
     72     70     79     88     1  0.0000000  1.0460000  1
     72     70     79     88     1  0.0000000  0.0000000  3
     72     70     79     80     1  0.0000000  0.6508444  3
     72     70     79     81     1  0.0000000  0.6508444  3
     73     61     60     89     1  0.0000000  0.6508444  3
     74     73     85    206     1  0.0000000  1.0460000  1
     74     73     85    206     1  0.0000000  0.0000000  3
     74     73     85     86     1  0.0000000  0.6508444  3
     74     73     85     87     1  0.0000000  0.6508444  3
     75     73     85    206     1  0.0000000  1.0460000  1
     75     73     85    206     1  0.0000000  0.0000000  3
     75     73     85     86     1  0.0000000  0.6508444  3
     75     73     85     87     1  0.0000000  0.6508444  3
     76     64     60     89     1  0.0000000  0.6508444  3
     77     76     82    192     1  0.0000000  1.0460000  1
     77     76     82    192     1  0.0000000  0.0000000  3
     77     76     82     83     1  0.0000000  0.6508444  3
     77     76     82     84     1  0.0000000  0.6508444  3
     78     76     82    192     1  0.0000000  1.0460000  1
     78     76     82    192     1  0.0000000  0.0000000  3
     78     76     82     83     1  0.0000000  0.6508444  3
     78     76     82     84     1  0.0000000  0.6508444  3
     82    192    186    187     1  0.0000000  1.6038667  3
     82    192    186    188     1  0.0000000  1.6038667  3
     83     82    192    186     1  0.0000000  1.6038667  3
     84     82    192    186     1  0.0000000  1.6038667  3
     85    206    200    201     1  0.0000000  1.6038667  3
     85    206    200    202     1  0.0000000  1.6038667  3
     86     85    206    200     1  0.0000000  1.6038667  3
     87     85    206    200     1  0.0000000  1.6038667  3
     90     91    103    104     1  0.0000000  0.6508444  3
     90     91    103    105     1  0.0000000  0.6508444  3
     90     94    106    107     1  0.0000000  0.6508444  3
     90     94    106    108     1  0.0000000  0.6508444  3
     90     97    100    101     1  0.0000000  0.6508444  3
     90     97    100    102     1  0.0000000  0.6508444  3
     91     90     94     95     1  0.0000000  0.6508444  3
     91     90     94     96     1  0.0000000  0.6508444  3
     91     90     97     98     1  0.0000000  0.6508444  3
     91     90     97     99     1  0.0000000  0.6508444  3
     91    103    115    116     1  0.0000000  0.6508444  3
     91    103    115    117     1  0.0000000  0.6508444  3
     92     91     90     94     1  0.0000000  0.6508444  3
     92     91     90     97     1  0.0000000  0.6508444  3
     92     91     90    119     1  0.0000000  0.6508444  3
     92     91    103    115     1  0.0000000  0.6508444  3
     92     91    103    104     1  0.0000000  0.6508444  3
     92     91    103    105     1  0.0000000  0.6508444  3
     93     91     90     94     1  0.0000000  0.6508444  3
     93     91     90     97     1  0.0000000  0.6508444  3
     93     91     90    119     1  0.0000000  0.6508444  3
     93     91    103    115     1  0.0000000  0.6508444  3
     93     91    103    104     1  0.0000000  0.6508444  3
     93     91    103    105     1  0.0000000  0.6508444  3
     94     90     97     98     1  0.0000000  0.6508444  3
     94     90     97     99     1  0.0000000  0.6508444  3
     94    106    112    113     1  0.0000000  0.6508444  3
     94    106    112    114     1  0.0000000  0.6508444  3
     95     94     90     97     1  0.0000000  0.6508444  3
     95     94     90    119     1  0.0000000  0.6508444  3
     95     94    106    112     1  0.0000000  0.6508444  3
     95     94    106    107     1  0.0000000  0.6508444  3
     95     94    106    108     1  0.0000000  0.6508444  3
     96     94     90     97     1  0.0000000  0.6508444  3
     96     94     90    119     1  0.0000000  0.6508444  3
     96     94    106    112     1  0.0000000  0.6508444  3
     96     94    106    107     1  0.0000000  0.6508444  3
     96     94    106    108     1  0.0000000  0.6508444  3
     97    100    109    110     1  0.0000000  0.6508444  3
     97    100    109    111     1  0.0000000  0.6508444  3
     98     97     90    119     1  0.0000000  0.6508444  3
     98     97    100    109     1  0.0000000  0.6508444  3
     98     97    100    101     1  0.0000000  0.6508444  3
     98     97    100    102     1  0.0000000  0.6508444  3
     99     97     90    119     1  0.0000000  0.6508444  3
     99     97    100    109     1  0.0000000  0.6508444  3
     99     97    100    101     1  0.0000000  0.6508444  3
     99     97    100    102     1  0.0000000  0.6508444  3
    100     97     90    119     1  0.0000000  0.6508444  3
    101    100    109    118     1  0.0000000  1.0460000  1
    101    100    109    118     1  0.0000000  0.0000000  3
    101    100    109    110     1  0.0000000  0.6508444  3
    101    100    109    111     1  0.0000000  0.6508444  3
    102    100    109    118     1  0.0000000  1.0460000  1
    102    100    109    118     1  0.0000000  0.0000000  3
    102    100    109    110     1  0.0000000  0.6508444  3
    102    100    109    111     1  0.0000000  0.6508444  3
    103     91     90    119     1  0.0000000  0.6508444  3
    104    103    115    234     1  0.0000000  1.0460000  1
    104    103    115    234     1  0.0000000  0.0000000  3
    104    103    115    116     1  0.0000000  0.6508444  3
    104    103    115    117     1  0.0000000  0.6508444  3
    105    103    115    234     1  0.0000000  1.0460000  1
    105    103    115    234     1  0.0000000  0.0000000  3
    105    103    115    116     1  0.0000000  0.6508444  3
    105    103    115    117     1  0.0000000  0.6508444  3
    106     94     90    119     1  0.0000000  0.6508444  3
    107    106    112    220     1  0.0000000  1.0460000  1
    107    106    112    220     1  0.0000000  0.0000000  3
    107    106    112    113     1  0.0000000  0.6508444  3
    107    106    112    114     1  0.0000000  0.6508444  3
    108    106    112    220     1  0.0000000  1.0460000  1
    108    106    112    220     1  0.0000000  0.0000000  3
    108    106    112    113     1  0.0000000  0.6508444  3
    108    106    112    114     1  0.0000000  0.6508444  3
    112    220    214    215     1  0.0000000  1.6038667  3
    112    220    214    216     1  0.0000000  1.6038667  3
    113    112    220    214     1  0.0000000  1.6038667  3
    114    112    220    214     1  0.0000000  1.6038667  3
    115    234    228    229     1  0.0000000  1.6038667  3
    115    234    228    230     1  0.0000000  1.6038667  3
    116    115    234    228     1  0.0000000  1.6038667  3
    117    115    234    228     1  0.0000000  1.6038667  3
    120    121    133    134     1  0.0000000  0.6508444  3
    120    121    133    135     1  0.0000000  0.6508444  3
    120    124    136    137     1  0.0000000  0.6508444  3
    120    124    136    138     1  0.0000000  0.6508444  3
    120    127    130    131     1  0.0000000  0.6508444  3
    120    127    130    132     1  0.0000000  0.6508444  3
    121    120    124    125     1  0.0000000  0.6508444  3
    121    120    124    126     1  0.0000000  0.6508444  3
    121    120    127    128     1  0.0000000  0.6508444  3
    121    120    127    129     1  0.0000000  0.6508444  3
    121    133    145    146     1  0.0000000  0.6508444  3
    121    133    145    147     1  0.0000000  0.6508444  3
    122    121    120    124     1  0.0000000  0.6508444  3
    122    121    120    127     1  0.0000000  0.6508444  3
    122    121    120    149     1  0.0000000  0.6508444  3
    122    121    133    145     1  0.0000000  0.6508444  3
    122    121    133    134     1  0.0000000  0.6508444  3
    122    121    133    135     1  0.0000000  0.6508444  3
    123    121    120    124     1  0.0000000  0.6508444  3
    123    121    120    127     1  0.0000000  0.6508444  3
    123    121    120    149     1  0.0000000  0.6508444  3
    123    121    133    145     1  0.0000000  0.6508444  3
    123    121    133    134     1  0.0000000  0.6508444  3
    123    121    133    135     1  0.0000000  0.6508444  3
    124    120    127    128     1  0.0000000  0.6508444  3
    124    120    127    129     1  0.0000000  0.6508444  3
    124    136    142    143     1  0.0000000  0.6508444  3
    124    136    142    144     1  0.0000000  0.6508444  3
    125    124    120    127     1  0.0000000  0.6508444  3
    125    124    120    149     1  0.0000000  0.6508444  3
    125    124    136    142     1  0.0000000  0.6508444  3
    125    124    136    137     1  0.0000000  0.6508444  3
    125    124    136    138     1  0.0000000  0.6508444  3
    126    124    120    127     1  0.0000000  0.6508444  3
    126    124    120    149     1  0.0000000  0.6508444  3
    126    124    136    142     1  0.0000000  0.6508444  3
    126    124    136    137     1  0.0000000  0.6508444  3
    126    124    136    138     1  0.0000000  0.6508444  3
    127    130    139    140     1  0.0000000  0.6508444  3
    127    130    139    141     1  0.0000000  0.6508444  3
    128    127    120    149     1  0.0000000  0.6508444  3
    128    127    130    139     1  0.0000000  0.6508444  3
    128    127    130    131     1  0.0000000  0.6508444  3
    128    127    130    132     1  0.0000000  0.6508444  3
    129    127    120    149     1  0.0000000  0.6508444  3
    129    127    130    139     1  0.0000000  0.6508444  3
    129    127    130    131     1  0.0000000  0.6508444  3
    129    127    130    132     1  0.0000000  0.6508444  3
    130    127    120    149     1  0.0000000  0.6508444  3
    131    130    139    148     1  0.0000000  1.0460000  1
    131    130    139    148     1  0.0000000  0.0000000  3
    131    130    139    140     1  0.0000000  0.6508444  3
    131    130    139    141     1  0.0000000  0.6508444  3
    132    130    139    148     1  0.0000000  1.0460000  1
    132    130    139    148     1  0.0000000  0.0000000  3
    132    130    139    140     1  0.0000000  0.6508444  3
    132    130    139    141     1  0.0000000  0.6508444  3
    133    121    120    149     1  0.0000000  0.6508444  3
    134    133    145    262     1  0.0000000  1.0460000  1
    134    133    145    262     1  0.0000000  0.0000000  3
    134    133    145    146     1  0.0000000  0.6508444  3
    134    133    145    147     1  0.0000000  0.6508444  3
    135    133    145    262     1  0.0000000  1.0460000  1
    135    133    145    262     1  0.0000000  0.0000000  3
    135    133    145    146     1  0.0000000  0.6508444  3
    135    133    145    147     1  0.0000000  0.6508444  3
    136    124    120    149     1  0.0000000  0.6508444  3
    137    136    142    248     1  0.0000000  1.0460000  1
    137    136    142    248     1  0.0000000  0.0000000  3
    137    136    142    143     1  0.0000000  0.6508444  3
    137    136    142    144     1  0.0000000  0.6508444  3
    138    136    142    248     1  0.0000000  1.0460000  1
    138    136    142    248     1  0.0000000  0.0000000  3
    138    136    142    143     1  0.0000000  0.6508444  3
    138    136    142    144     1  0.0000000  0.6508444  3
    142    248    242    243     1  0.0000000  1.6038667  3
    142    248    242    244     1  0.0000000  1.6038667  3
    143    142    248    242     1  0.0000000  1.6038667  3
    144    142    248    242     1  0.0000000  1.6038667  3
    145    262    256    257     1  0.0000000  1.6038667  3
    145    262    256    258     1  0.0000000  1.6038667  3
    146    145    262    256     1  0.0000000  1.6038667  3
    147    145    262    256     1  0.0000000  1.6038667  3
    150    151    163    164     1  0.0000000  0.6508444  3
    150    151    163    165     1  0.0000000  0.6508444  3
    150    154    166    167     1  0.0000000  0.6508444  3
    150    154    166    168     1  0.0000000  0.6508444  3
    150    157    160    161     1  0.0000000  0.6508444  3
    150    157    160    162     1  0.0000000  0.6508444  3
    151    150    154    155     1  0.0000000  0.6508444  3
    151    150    154    156     1  0.0000000  0.6508444  3
    151    150    157    158     1  0.0000000  0.6508444  3
    151    150    157    159     1  0.0000000  0.6508444  3
    151    163    175    176     1  0.0000000  0.6508444  3
    151    163    175    177     1  0.0000000  0.6508444  3
    152    151    150    154     1  0.0000000  0.6508444  3
    152    151    150    157     1  0.0000000  0.6508444  3
    152    151    150    179     1  0.0000000  0.6508444  3
    152    151    163    175     1  0.0000000  0.6508444  3
    152    151    163    164     1  0.0000000  0.6508444  3
    152    151    163    165     1  0.0000000  0.6508444  3
    153    151    150    154     1  0.0000000  0.6508444  3
    153    151    150    157     1  0.0000000  0.6508444  3
    153    151    150    179     1  0.0000000  0.6508444  3
    153    151    163    175     1  0.0000000  0.6508444  3
    153    151    163    164     1  0.0000000  0.6508444  3
    153    151    163    165     1  0.0000000  0.6508444  3
    154    150    157    158     1  0.0000000  0.6508444  3
    154    150    157    159     1  0.0000000  0.6508444  3
    154    166    172    173     1  0.0000000  0.6508444  3
    154    166    172    174     1  0.0000000  0.6508444  3
    155    154    150    157     1  0.0000000  0.6508444  3
    155    154    150    179     1  0.0000000  0.6508444  3
    155    154    166    172     1  0.0000000  0.6508444  3
    155    154    166    167     1  0.0000000  0.6508444  3
    155    154    166    168     1  0.0000000  0.6508444  3
    156    154    150    157     1  0.0000000  0.6508444  3
    156    154    150    179     1  0.0000000  0.6508444  3
    156    154    166    172     1  0.0000000  0.6508444  3
    156    154    166    167     1  0.0000000  0.6508444  3
    156    154    166    168     1  0.0000000  0.6508444  3
    157    160    169    170     1  0.0000000  0.6508444  3
    157    160    169    171     1  0.0000000  0.6508444  3
    158    157    150    179     1  0.0000000  0.6508444  3
    158    157    160    169     1  0.0000000  0.6508444  3
    158    157    160    161     1  0.0000000  0.6508444  3
    158    157    160    162     1  0.0000000  0.6508444  3
    159    157    150    179     1  0.0000000  0.6508444  3
    159    157    160    169     1  0.0000000  0.6508444  3
    159    157    160    161     1  0.0000000  0.6508444  3
    159    157    160    162     1  0.0000000  0.6508444  3
    160    157    150    179     1  0.0000000  0.6508444  3
    161    160    169    178     1  0.0000000  1.0460000  1
    161    160    169    178     1  0.0000000  0.0000000  3
    161    160    169    170     1  0.0000000  0.6508444  3
    161    160    169    171     1  0.0000000  0.6508444  3
    162    160    169    178     1  0.0000000  1.0460000  1
    162    160    169    178     1  0.0000000  0.0000000  3
    162    160    169    170     1  0.0000000  0.6508444  3
    162    160    169    171     1  0.0000000  0.6508444  3
    163    151    150    179     1  0.0000000  0.6508444  3
    164    163    175    290     1  0.0000000  1.0460000  1
    164    163    175    290     1  0.0000000  0.0000000  3
    164    163    175    176     1  0.0000000  0.6508444  3
    164    163    175    177     1  0.0000000  0.6508444  3
    165    163    175    290     1  0.0000000  1.0460000  1
    165    163    175    290     1  0.0000000  0.0000000  3
    165    163    175    176     1  0.0000000  0.6508444  3
    165    163    175    177     1  0.0000000  0.6508444  3
    166    154    150    179     1  0.0000000  0.6508444  3
    167    166    172    276     1  0.0000000  1.0460000  1
    167    166    172    276     1  0.0000000  0.0000000  3
    167    166    172    173     1  0.0000000  0.6508444  3
    167    166    172    174     1  0.0000000  0.6508444  3
    168    166    172    276     1  0.0000000  1.0460000  1
    168    166    172    276     1  0.0000000  0.0000000  3
    168    166    172    173     1  0.0000000  0.6508444  3
    168    166    172    174     1  0.0000000  0.6508444  3
    172    276    270    271     1  0.0000000  1.6038667  3
    172    276    270    272     1  0.0000000  1.6038667  3
    173    172    276    270     1  0.0000000  1.6038667  3
    174    172    276    270     1  0.0000000  1.6038667  3
    175    290    284    285     1  0.0000000  1.6038667  3
    175    290    284    286     1  0.0000000  1.6038667  3
    176    175    290    284     1  0.0000000  1.6038667  3
    177    175    290    284     1  0.0000000  1.6038667  3
    180    183    186    187     1  0.0000000  0.6508444  3
    180    183    186    188     1  0.0000000  0.6508444  3
    181    180    183    186     1  0.0000000  0.6508444  3
    181    180    183    184     1  0.0000000  0.6508444  3
    181    180    183    185     1  0.0000000  0.6508444  3
    181    180    189    190     1  0.0000000  0.6508444  3
    181    180    189    191     1  0.0000000  0.6508444  3
    181    180    189    193     1  0.0000000  0.6508444  3
    182    180    183    186     1  0.0000000  0.6508444  3
    182    180    183    184     1  0.0000000  0.6508444  3
    182    180    183    185     1  0.0000000  0.6508444  3
    182    180    189    190     1  0.0000000  0.6508444  3
    182    180    189    191     1  0.0000000  0.6508444  3
    182    180    189    193     1  0.0000000  0.6508444  3
    183    180    189    190     1  0.0000000  0.6508444  3
    183    180    189    191     1  0.0000000  0.6508444  3
    183    180    189    193     1  0.0000000  0.6508444  3
    184    183    180    189     1  0.0000000  0.6508444  3
    184    183    186    192     1  0.0000000  1.0460000  1
    184    183    186    192     1  0.0000000  0.0000000  3
    184    183    186    187     1  0.0000000  0.6508444  3
    184    183    186    188     1  0.0000000  0.6508444  3
    185    183    180    189     1  0.0000000  0.6508444  3
    185    183    186    192     1  0.0000000  1.0460000  1
    185    183    186    192     1  0.0000000  0.0000000  3
    185    183    186    187     1  0.0000000  0.6508444  3
    185    183    186    188     1  0.0000000  0.6508444  3
    194    197    200    201     1  0.0000000  0.6508444  3
    194    197    200    202     1  0.0000000  0.6508444  3
    195    194    197    200     1  0.0000000  0.6508444  3
    195    194    197    198     1  0.0000000  0.6508444  3
    195    194    197    199     1  0.0000000  0.6508444  3
    195    194    203    204     1  0.0000000  0.6508444  3
    195    194    203    205     1  0.0000000  0.6508444  3
    195    194    203    207     1  0.0000000  0.6508444  3
    196    194    197    200     1  0.0000000  0.6508444  3
    196    194    197    198     1  0.0000000  0.6508444  3
    196    194    197    199     1  0.0000000  0.6508444  3
    196    194    203    204     1  0.0000000  0.6508444  3
    196    194    203    205     1  0.0000000  0.6508444  3
    196    194    203    207     1  0.0000000  0.6508444  3
    197    194    203    204     1  0.0000000  0.6508444  3
    197    194    203    205     1  0.0000000  0.6508444  3
    197    194    203    207     1  0.0000000  0.6508444  3
    198    197    200    206     1  0.0000000  1.0460000  1
    198    197    200    206     1  0.0000000  0.0000000  3
    198    197    200    201     1  0.0000000  0.6508444  3
    198    197    200    202     1  0.0000000  0.6508444  3
    198    197    194    203     1  0.0000000  0.6508444  3
    199    197    200    206     1  0.0000000  1.0460000  1
    199    197    200    206     1  0.0000000  0.0000000  3
    199    197    200    201     1  0.0000000  0.6508444  3
    199    197    200    202     1  0.0000000  0.6508444  3
    199    197    194    203     1  0.0000000  0.6508444  3
    208    211    214    215     1  0.0000000  0.6508444  3
    208    211    214    216     1  0.0000000  0.6508444  3
    209    208    211    214     1  0.0000000  0.6508444  3
    209    208    211    212     1  0.0000000  0.6508444  3
    209    208    211    213     1  0.0000000  0.6508444  3
    209    208    217    218     1  0.0000000  0.6508444  3
    209    208    217    219     1  0.0000000  0.6508444  3
    209    208    217    221     1  0.0000000  0.6508444  3
    210    208    211    214     1  0.0000000  0.6508444  3
    210    208    211    212     1  0.0000000  0.6508444  3
    210    208    211    213     1  0.0000000  0.6508444  3
    210    208    217    218     1  0.0000000  0.6508444  3
    210    208    217    219     1  0.0000000  0.6508444  3
    210    208    217    221     1  0.0000000  0.6508444  3
    211    208    217    218     1  0.0000000  0.6508444  3
    211    208    217    219     1  0.0000000  0.6508444  3
    211    208    217    221     1  0.0000000  0.6508444  3
    212    211    208    217     1  0.0000000  0.6508444  3
    212    211    214    220     1  0.0000000  1.0460000  1
    212    211    214    220     1  0.0000000  0.0000000  3
    212    211    214    215     1  0.0000000  0.6508444  3
    212    211    214    216     1  0.0000000  0.6508444  3
    213    211    208    217     1  0.0000000  0.6508444  3
    213    211    214    220     1  0.0000000  1.0460000  1
    213    211    214    220     1  0.0000000  0.0000000  3
    213    211    214    215     1  0.0000000  0.6508444  3
    213    211    214    216     1  0.0000000  0.6508444  3
    222    225    228    229     1  0.0000000  0.6508444  3
    222    225    228    230     1  0.0000000  0.6508444  3
    223    222    225    228     1  0.0000000  0.6508444  3
    223    222    225    226     1  0.0000000  0.6508444  3
    223    222    225    227     1  0.0000000  0.6508444  3
    223    222    231    232     1  0.0000000  0.6508444  3
    223    222    231    233     1  0.0000000  0.6508444  3
    223    222    231    235     1  0.0000000  0.6508444  3
    224    222    225    228     1  0.0000000  0.6508444  3
    224    222    225    226     1  0.0000000  0.6508444  3
    224    222    225    227     1  0.0000000  0.6508444  3
    224    222    231    232     1  0.0000000  0.6508444  3
    224    222    231    233     1  0.0000000  0.6508444  3
    224    222    231    235     1  0.0000000  0.6508444  3
    225    222    231    232     1  0.0000000  0.6508444  3
    225    222    231    233     1  0.0000000  0.6508444  3
    225    222    231    235     1  0.0000000  0.6508444  3
    226    225    228    234     1  0.0000000  1.0460000  1
    226    225    228    234     1  0.0000000  0.0000000  3
    226    225    228    229     1  0.0000000  0.6508444  3
    226    225    228    230     1  0.0000000  0.6508444  3
    226    225    222    231     1  0.0000000  0.6508444  3
    227    225    228    234     1  0.0000000  1.0460000  1
    227    225    228    234     1  0.0000000  0.0000000  3
    227    225    228    229     1  0.0000000  0.6508444  3
    227    225    228    230     1  0.0000000  0.6508444  3
    227    225    222    231     1  0.0000000  0.6508444  3
    236    239    242    243     1  0.0000000  0.6508444  3
    236    239    242    244     1  0.0000000  0.6508444  3
    237    236    239    242     1  0.0000000  0.6508444  3
    237    236    239    240     1  0.0000000  0.6508444  3
    237    236    239    241     1  0.0000000  0.6508444  3
    237    236    245    246     1  0.0000000  0.6508444  3
    237    236    245    247     1  0.0000000  0.6508444  3
    237    236    245    249     1  0.0000000  0.6508444  3
    238    236    239    242     1  0.0000000  0.6508444  3
    238    236    239    240     1  0.0000000  0.6508444  3
    238    236    239    241     1  0.0000000  0.6508444  3
    238    236    245    246     1  0.0000000  0.6508444  3
    238    236    245    247     1  0.0000000  0.6508444  3
    238    236    245    249     1  0.0000000  0.6508444  3
    239    236    245    246     1  0.0000000  0.6508444  3
    239    236    245    247     1  0.0000000  0.6508444  3
    239    236    245    249     1  0.0000000  0.6508444  3
    240    239    236    245     1  0.0000000  0.6508444  3
    240    239    242    248     1  0.0000000  1.0460000  1
    240    239    242    248     1  0.0000000  0.0000000  3
    240    239    242    243     1  0.0000000  0.6508444  3
    240    239    242    244     1  0.0000000  0.6508444  3
    241    239    236    245     1  0.0000000  0.6508444  3
    241    239    242    248     1  0.0000000  1.0460000  1
    241    239    242    248     1  0.0000000  0.0000000  3
    241    239    242    243     1  0.0000000  0.6508444  3
    241    239    242    244     1  0.0000000  0.6508444  3
    250    253    256    257     1  0.0000000  0.6508444  3
    250    253    256    258     1  0.0000000  0.6508444  3
    251    250    253    256     1  0.0000000  0.6508444  3
    251    250    253    254     1  0.0000000  0.6508444  3
    251    250    253    255     1  0.0000000  0.6508444  3
    251    250    259    260     1  0.0000000  0.6508444  3
    251    250    259    261     1  0.0000000  0.6508444  3
    251    250    259    263     1  0.0000000  0.6508444  3
    252    250    253    256     1  0.0000000  0.6508444  3
    252    250    253    254     1  0.0000000  0.6508444  3
    252    250    253    255     1  0.0000000  0.6508444  3
    252    250    259    260     1  0.0000000  0.6508444  3
    252    250    259    261     1  0.0000000  0.6508444  3
    252    250    259    263     1  0.0000000  0.6508444  3
    253    250    259    260     1  0.0000000  0.6508444  3
    253    250    259    261     1  0.0000000  0.6508444  3
    253    250    259    263     1  0.0000000  0.6508444  3
    254    253    256    262     1  0.0000000  1.0460000  1
    254    253    256    262     1  0.0000000  0.0000000  3
    254    253    256    257     1  0.0000000  0.6508444  3
    254    253    256    258     1  0.0000000  0.6508444  3
    254    253    250    259     1  0.0000000  0.6508444  3
    255    253    256    262     1  0.0000000  1.0460000  1
    255    253    256    262     1  0.0000000  0.0000000  3
    255    253    256    257     1  0.0000000  0.6508444  3
    255    253    256    258     1  0.0000000  0.6508444  3
    255    253    250    259     1  0.0000000  0.6508444  3
    264    267    270    271     1  0.0000000  0.6508444  3
    264    267    270    272     1  0.0000000  0.6508444  3
    265    264    267    270     1  0.0000000  0.6508444  3
    265    264    267    268     1  0.0000000  0.6508444  3
    265    264    267    269     1  0.0000000  0.6508444  3
    265    264    273    274     1  0.0000000  0.6508444  3
    265    264    273    275     1  0.0000000  0.6508444  3
    265    264    273    277     1  0.0000000  0.6508444  3
    266    264    267    270     1  0.0000000  0.6508444  3
    266    264    267    268     1  0.0000000  0.6508444  3
    266    264    267    269     1  0.0000000  0.6508444  3
    266    264    273    274     1  0.0000000  0.6508444  3
    266    264    273    275     1  0.0000000  0.6508444  3
    266    264    273    277     1  0.0000000  0.6508444  3
    267    264    273    274     1  0.0000000  0.6508444  3
    267    264    273    275     1  0.0000000  0.6508444  3
    267    264    273    277     1  0.0000000  0.6508444  3
    268    267    264    273     1  0.0000000  0.6508444  3
    268    267    270    276     1  0.0000000  1.0460000  1
    268    267    270    276     1  0.0000000  0.0000000  3
    268    267    270    271     1  0.0000000  0.6508444  3
    268    267    270    272     1  0.0000000  0.6508444  3
    269    267    264    273     1  0.0000000  0.6508444  3
    269    267    270    276     1  0.0000000  1.0460000  1
    269    267    270    276     1  0.0000000  0.0000000  3
    269    267    270    271     1  0.0000000  0.6508444  3
    269    267    270    272     1  0.0000000  0.6508444  3
    278    281    284    285     1  0.0000000  0.6508444  3
    278    281    284    286     1  0.0000000  0.6508444  3
    279    278    281    284     1  0.0000000  0.6508444  3
    279    278    281    282     1  0.0000000  0.6508444  3
    279    278    281    283     1  0.0000000  0.6508444  3
    279    278    287    288     1  0.0000000  0.6508444  3
    279    278    287    289     1  0.0000000  0.6508444  3
    279    278    287    291     1  0.0000000  0.6508444  3
    280    278    281    284     1  0.0000000  0.6508444  3
    280    278    281    282     1  0.0000000  0.6508444  3
    280    278    281    283     1  0.0000000  0.6508444  3
    280    278    287    288     1  0.0000000  0.6508444  3
    280    278    287    289     1  0.0000000  0.6508444  3
    280    278    287    291     1  0.0000000  0.6508444  3
    281    278    287    288     1  0.0000000  0.6508444  3
    281    278    287    289     1  0.0000000  0.6508444  3
    281    278    287    291     1  0.0000000  0.6508444  3
    282    281    284    290     1  0.0000000  1.0460000  1
    282    281    284    290     1  0.0000000  0.0000000  3
    282    281    284    285     1  0.0000000  0.6508444  3
    282    281    284    286     1  0.0000000  0.6508444  3
    282    281    278    287     1  0.0000000  0.6508444  3
    283    281    284    290     1  0.0000000  1.0460000  1
    283    281    284    290     1  0.0000000  0.0000000  3
    283    281    284    285     1  0.0000000  0.6508444  3
    283    281    284    286     1  0.0000000  0.6508444  3
    283    281    278    287     1  0.0000000  0.6508444  3

;[ system ]
;; Name
;Generic title
;
;[ molecules ]
;; Compound       #mols
;system1              1
