G2POcore-PETIM in water
25280
    1aaa     O1    1   4.060   6.200   4.479  0.0631  0.0460  0.1312
    1aaa     C1    2   4.029   6.261   4.344  0.5684  0.2622 -0.4989
    1aaa     H1    3   3.946   6.333   4.349  0.9686  0.6395  1.0842
    1aaa     H2    4   3.990   6.179   4.282  0.2759  0.4906 -0.6222
    1aaa     C2    5   3.946   6.128   4.531 -0.4612 -0.0523  0.6110
    1aaa     H3    6   3.889   6.069   4.458 -1.8394  1.5439  0.3579
    1aaa     H4    7   3.878   6.208   4.562 -0.8636 -0.4192  0.6869
    1aaa     C3    8   4.160   6.324   4.288  0.0682 -0.5587  0.3444
    1aaa     H5    9   4.244   6.256   4.309  2.2793  2.2111  1.0598
    1aaa     H6   10   4.175   6.420   4.338  1.5398 -0.2256 -0.6620
    1aaa     C4   11   4.000   6.045   4.646  0.8515  1.0637  0.1550
    1aaa     H7   12   3.915   5.986   4.683  2.3628 -1.4763 -0.1485
    1aaa     H8   13   4.033   6.113   4.726 -1.3319  0.4983  1.6142
    1aaa     C5   14   4.154   6.330   4.133  0.4119  0.0015  0.5962
    1aaa     H9   15   4.125   6.234   4.091 -1.8871  0.9306 -0.1034
    1aaa    H10   16   4.082   6.401   4.092 -2.1222 -1.8620  1.6137
    1aaa     C6   17   4.116   5.951   4.593  0.5277  0.4168 -0.4677
    1aaa    H11   18   4.190   6.021   4.554 -1.7928  2.7200 -0.9831
    1aaa    H12   19   4.078   5.901   4.504  0.6056  1.2769 -0.9935
    1aaa     N1   20   4.278   6.372   4.064 -0.3586  0.2175  0.2454
    1aaa     N2   21   4.173   5.854   4.692 -0.0556  0.1607 -0.8031
    1aaa     C7   22   4.302   5.786   4.645  0.4170  1.0081  0.2048
    1aaa    H13   23   4.346   5.738   4.733  1.5434  1.6263 -0.0079
    1aaa    H14   24   4.278   5.711   4.570  0.3411  1.7392 -0.5240
    1aaa     C8   25   4.073   5.742   4.720  0.2203  0.4690 -0.3462
    1aaa    H15   26   3.980   5.798   4.733 -0.1848  0.0299 -1.2322
    1aaa    H16   27   4.067   5.674   4.634 -0.7650  0.7507 -0.5184
    1aaa     C9   28   4.242   6.429   3.924 -0.2935 -0.3166 -0.3506
    1aaa    H17   29   4.199   6.528   3.940 -1.1094 -0.6509 -0.4252
    1aaa    H18   30   4.344   6.443   3.886  0.1017 -1.4006  0.2758
    1aaa    C10   31   4.363   6.479   4.136  0.0849 -0.8145  0.5037
    1aaa    H19   32   4.306   6.571   4.120 -1.3508 -1.5188  1.3731
    1aaa    H20   33   4.360   6.457   4.243  2.0270  3.3054  1.6255
    1aaa    C11   34   4.419   5.875   4.599 -0.0534  0.5767 -0.7216
    1aaa    H21   35   4.497   5.809   4.561 -0.4407 -2.5712  3.2181
    1aaa    H22   36   4.378   5.933   4.516  0.1648 -1.4554 -2.3192
    1aaa    C12   37   4.099   5.666   4.848 -0.2965  0.1261  0.0256
    1aaa    H23   38   4.195   5.613   4.857  0.5471  1.8473  1.9821
    1aaa    H24   39   4.087   5.737   4.931  0.7495 -0.6594  0.8688
    1aaa    C13   40   4.167   6.352   3.813  0.3357 -0.2597 -0.0786
    1aaa    H25   41   4.204   6.250   3.801 -1.8811 -1.1143 -0.0285
    1aaa    H26   42   4.059   6.345   3.830  0.4880 -3.6537  0.0041
    1aaa    C14   43   4.513   6.489   4.088  0.2124  0.2227  0.2645
    1aaa    H27   44   4.551   6.386   4.088  0.5755  0.3221 -1.9195
    1aaa    H28   45   4.513   6.521   3.983  2.2510 -0.3743  0.0422
    1aaa    C15   46   4.597   6.573   4.191  0.4290 -0.4796 -0.2948
    1aaa    H29   47   4.601   6.517   4.285  1.1222  0.5367  0.3066
    1aaa    H30   48   4.702   6.580   4.161  1.2840 -1.4688  2.1784
    1aaa    C16   49   4.195   6.422   3.669  0.3436  0.2778 -0.0140
    1aaa    H31   50   4.288   6.480   3.673  0.9463 -0.6784  3.2724
    1aaa    H32   51   4.202   6.345   3.592  2.0923 -2.3956  2.5926
    1aaa    C17   52   3.997   5.544   4.872  0.4212 -0.5309 -0.2524
    1aaa    H33   53   4.024   5.471   4.794  1.2346  1.8897 -2.3959
    1aaa    H34   54   4.024   5.496   4.966  1.8132 -2.0342 -1.3590
    1aaa    C18   55   4.477   5.965   4.713  0.2824  0.7551 -0.3202
    1aaa    H35   56   4.583   5.990   4.701  0.1690  0.8447 -1.1894
    1aaa    H36   57   4.419   6.057   4.708  0.3417  0.8369  0.4354
    1aaa    H38   58   4.338   6.289   4.055 -1.9553 -0.7814 -1.6676
    1aaa    H37   59   4.203   5.901   4.779  0.0711  1.2859 -1.4404
    2bbb     N1   60   4.413   7.080   4.335 -0.1254  0.3286  0.6085
    2bbb     C1   61   4.543   7.094   4.416  0.1904 -0.5540  0.0347
    2bbb     H1   62   4.559   7.197   4.446  0.7949 -0.8319  0.6986
    2bbb     H2   63   4.615   7.064   4.340 -1.1842 -2.6141 -0.5384
    2bbb     C2   64   4.396   7.204   4.250  0.3050  0.1098 -0.2141
    2bbb     H3   65   4.459   7.184   4.163  0.8743  0.6431  0.0714
    2bbb     H4   66   4.438   7.284   4.311 -1.0870 -0.2587  1.2971
    2bbb     C3   67   4.423   6.947   4.256  0.2695 -0.4969 -0.0571
    2bbb     H5   68   4.325   6.933   4.210 -0.1146  2.1407 -0.2313
    2bbb     H6   69   4.445   6.874   4.334  0.8566  0.7410  0.9852
    2bbb     C4   70   4.527   6.930   4.140 -1.5565  0.0707  0.2673
    2bbb     H7   71   4.629   6.956   4.172 -1.5880  1.7375 -0.8364
    2bbb     H8   72   4.523   6.993   4.051 -1.6186  0.2102  0.3677
    2bbb     C5   73   4.536   7.005   4.540  0.0999  0.3222  0.6053
    2bbb     H9   74   4.527   6.899   4.514  1.4528  0.6267 -1.3297
    2bbb    H10   75   4.447   7.034   4.599 -1.9278 -1.8856 -1.1540
    2bbb     C6   76   4.254   7.222   4.199  0.6262  0.0267 -0.3244
    2bbb    H11   77   4.179   7.204   4.277  0.4520  2.8286  0.2896
    2bbb    H12   78   4.238   7.142   4.127  3.2370 -0.6148 -0.2863
    2bbb     C7   79   4.542   6.786   4.087  0.2989 -0.6856 -0.6627
    2bbb    H13   80   4.634   6.784   4.028 -0.1695  3.1437 -1.7589
    2bbb    H14   81   4.449   6.762   4.033 -1.1378  0.9046  0.9772
    2bbb     C8   82   4.227   7.359   4.137 -0.2123  0.3892  0.0623
    2bbb    H15   83   4.161   7.343   4.051  1.0010  3.5123 -1.6132
    2bbb    H16   84   4.177   7.426   4.207 -1.6784 -2.0153  1.4456
    2bbb     C9   85   4.661   7.014   4.624  0.1573  0.0638  0.9300
    2bbb    H17   86   4.756   7.020   4.568 -1.3926 -0.9941 -2.0081
    2bbb    H18   87   4.661   6.931   4.696  0.1184 -0.6534  0.1237
    2bbb     O1   88   4.549   6.702   4.210 -0.3201 -0.2843  0.6318
    2bbb    H19   89   4.332   7.078   4.399  0.3924  0.2925  1.2729
    3bbb     N1   90   3.944   6.309   3.290  0.0720 -0.5441  0.5851
    3bbb     C1   91   4.026   6.186   3.317 -0.3979  0.0231  0.3956
    3bbb     H1   92   3.961   6.121   3.376  1.6841 -0.1824  2.6346
    3bbb     H2   93   4.113   6.216   3.377 -0.0584 -0.4855  0.1625
    3bbb     C2   94   3.798   6.259   3.272  0.2091  0.5619 -0.1854
    3bbb     H3   95   3.754   6.235   3.368  0.5377 -1.2917 -0.4680
    3bbb     H4   96   3.793   6.172   3.206 -1.8867  0.3508  0.1803
    3bbb     C3   97   3.954   6.404   3.408  0.0560  0.3225 -0.4696
    3bbb     H5   98   3.962   6.348   3.501  0.3784  0.3390 -0.4844
    3bbb     H6   99   3.866   6.469   3.415 -0.2971 -0.2835  0.9915
    3bbb     C4  100   4.072   6.507   3.408  0.7334  0.3378  0.7711
    3bbb     H7  101   4.058   6.569   3.318 -0.3747 -0.6088  0.2641
    3bbb     H8  102   4.167   6.458   3.382 -1.2599 -2.0698 -2.8780
    3bbb     C5  103   4.076   6.113   3.190 -0.0855  0.2419 -0.0584
    3bbb     H9  104   4.008   6.143   3.109 -1.6085  2.4434  1.9066
    3bbb    H10  105   4.076   6.005   3.210  1.0459  0.1299 -0.5893
    3bbb     C6  106   3.704   6.365   3.197 -0.3632  0.0830  0.2693
    3bbb    H11  107   3.732   6.374   3.091 -0.6533  2.6008  0.3504
    3bbb    H12  108   3.717   6.466   3.238 -1.8490  0.3870  0.0611
    3bbb     C7  109   4.091   6.600   3.532 -0.3963 -0.0924 -0.6873
    3bbb    H13  110   4.008   6.672   3.541  0.6923  1.1964 -0.6799
    3bbb    H14  111   4.187   6.650   3.517 -1.4505  1.5615 -2.3345
    3bbb     C8  112   3.558   6.332   3.207  0.1189 -0.3493 -0.6358
    3bbb    H15  113   3.508   6.402   3.138  0.3135 -0.2805 -0.7075
    3bbb    H16  114   3.556   6.227   3.176 -1.4966 -0.2851 -0.8547
    3bbb     C9  115   4.218   6.164   3.158 -0.4578 -0.1596  0.2658
    3bbb    H17  116   4.235   6.110   3.064 -1.2190 -0.0393  0.0523
    3bbb    H18  117   4.295   6.141   3.233 -1.2195 -0.6534  0.9103
    3bbb     O1  118   4.086   6.517   3.652 -0.6547  0.4840 -0.0212
    3bbb    H19  119   3.972   6.356   3.202 -1.0452  1.2103  1.0941
    4bbb     N1  120   3.579   5.484   4.924 -0.7333 -0.2729 -0.0190
    4bbb     C1  121   3.685   5.379   4.963  0.1350  0.7271  0.0496
    4bbb     H1  122   3.661   5.350   5.066  0.5803 -0.5360 -0.1869
    4bbb     H2  123   3.779   5.434   4.966  1.2365 -1.0810  2.6937
    4bbb     C2  124   3.449   5.419   4.960 -0.6660 -0.4941  0.1364
    4bbb     H3  125   3.440   5.397   5.066  1.5060 -2.3674  0.0192
    4bbb     H4  126   3.455   5.319   4.917  2.2823 -1.5522  2.6609
    4bbb     C3  127   3.593   5.605   5.013 -0.5387  0.0110  0.2854
    4bbb     H5  128   3.640   5.580   5.108 -1.7067 -0.1961  0.8294
    4bbb     H6  129   3.493   5.644   5.036 -0.6620  1.4156 -2.2430
    4bbb     C4  130   3.671   5.723   4.955  1.1491  0.1422  0.2258
    4bbb     H7  131   3.634   5.815   5.002  1.9317  0.7670 -0.3563
    4bbb     H8  132   3.646   5.740   4.850 -2.2870  1.5519  1.1690
    4bbb     C5  133   3.700   5.250   4.869  0.1681  0.3369 -0.0946
    4bbb     H9  134   3.697   5.285   4.765  0.5544  0.8409  0.0618
    4bbb    H10  135   3.612   5.187   4.888 -0.1086  0.2812 -1.4537
    4bbb     C6  136   3.330   5.499   4.900  0.3322  0.7720 -0.5873
    4bbb    H11  137   3.352   5.508   4.793  0.2711  3.2123 -0.4502
    4bbb    H12  138   3.335   5.605   4.928 -0.0091  0.8108 -0.6663
    4bbb     C7  139   3.822   5.694   4.968 -0.2918  0.0440 -0.1970
    4bbb    H13  140   3.849   5.653   5.066 -1.4840 -2.1739 -0.7400
    4bbb    H14  141   3.872   5.789   4.947 -0.9023  0.6432  0.9759
    4bbb     C8  142   3.188   5.450   4.935  0.0514 -0.7043  0.3712
    4bbb    H15  143   3.197   5.418   5.040 -0.8606 -1.8896  0.1006
    4bbb    H16  144   3.110   5.524   4.916  0.8217 -0.3544 -1.7366
    4bbb     C9  145   3.834   5.179   4.887 -0.3578  1.1180 -0.2999
    4bbb    H17  146   3.855   5.184   4.994 -2.6886  0.5197  0.2397
    4bbb    H18  147   3.917   5.236   4.843 -0.9645  2.2917  0.0310
    4bbb     O1  148   3.858   5.596   4.862  0.2800 -0.7235 -0.0839
    4bbb    H19  149   3.579   5.508   4.824 -1.4109  0.0051  0.0467
    5bbb     N1  150   4.377   6.007   5.321  0.4788 -0.0169 -0.0774
    5bbb     C1  151   4.478   5.972   5.430 -0.2637  0.3270  0.2643
    5bbb     H1  152   4.418   5.966   5.521 -1.3823 -0.2154 -0.4921
    5bbb     H2  153   4.537   6.063   5.438  1.5894 -0.7764 -0.3974
    5bbb     C2  154   4.303   6.138   5.354 -0.1236  0.0275 -0.2074
    5bbb     H3  155   4.213   6.135   5.293 -0.9587  1.3714  0.8905
    5bbb     H4  156   4.369   6.221   5.328  1.0048 -0.9725 -0.5959
    5bbb     C3  157   4.450   6.032   5.183 -0.0376 -0.5079 -0.0601
    5bbb     H5  158   4.549   6.074   5.201 -0.4709  0.3803  0.3368
    5bbb     H6  159   4.385   6.106   5.137 -1.6389 -0.6321  1.8301
    5bbb     C4  160   4.464   5.919   5.084 -0.2023 -0.1385  1.0300
    5bbb     H7  161   4.372   5.860   5.072  0.7305 -1.2242 -1.4817
    5bbb     H8  162   4.527   5.835   5.118 -0.6875 -0.7644  0.4135
    5bbb     C5  163   4.571   5.850   5.416 -0.2043  0.0124 -0.3891
    5bbb     H9  164   4.632   5.882   5.331 -1.1983  0.0501 -1.1052
    5bbb    H10  165   4.507   5.767   5.382 -0.7420  0.9471 -1.7519
    5bbb     C6  166   4.252   6.158   5.499 -0.4362 -0.2263  0.2752
    5bbb    H11  167   4.333   6.148   5.573  0.4540 -1.9805 -0.8634
    5bbb    H12  168   4.174   6.083   5.519 -0.3877 -0.7576 -1.3764
    5bbb     C7  169   4.513   5.975   4.947 -0.6375  0.2425  0.0593
    5bbb    H13  170   4.622   5.976   4.949 -0.5809  0.6824 -1.5685
    5bbb    H14  171   4.489   6.082   4.948  0.6542  0.5923  2.8108
    5bbb     C8  172   4.189   6.291   5.529  0.9917  0.1520 -0.1724
    5bbb    H15  173   4.139   6.322   5.436  2.3499 -1.7883 -1.6268
    5bbb    H16  174   4.112   6.280   5.607 -0.7720  3.5341 -1.2658
    5bbb     C9  175   4.649   5.819   5.548  0.0367 -0.3233 -0.5882
    5bbb    H17  176   4.709   5.727   5.556  0.8995  0.3315  1.3541
    5bbb    H18  177   4.568   5.821   5.622 -0.8756  0.3060 -1.5866
    5bbb     O1  178   4.449   5.902   4.841 -0.1818 -0.0327 -0.0207
    5bbb    H19  179   4.318   5.923   5.319  2.7183 -1.6912 -0.6257
    6ccc     C1  180   4.602   7.559   4.100 -0.3252 -0.1659  0.1797
    6ccc     H1  181   4.630   7.453   4.096 -0.1911 -0.1014 -1.4543
    6ccc     H2  182   4.573   7.591   4.200  0.8861  0.7057  0.2658
    6ccc     C2  183   4.489   7.593   3.996 -0.6150 -0.1117 -0.4958
    6ccc     H3  184   4.481   7.702   3.987  0.5651 -0.0107 -0.4070
    6ccc     H4  185   4.523   7.552   3.900  0.0420 -2.2260  0.5657
    6ccc     C3  186   4.349   7.538   4.032  0.0059 -1.0550  0.4534
    6ccc     H5  187   4.291   7.533   3.939  0.3561  0.1553  0.1644
    6ccc     H6  188   4.304   7.608   4.103  0.2302  0.1266 -0.5275
    6ccc     N1  189   4.722   7.634   4.070  0.1470 -0.1912 -0.3119
    6ccc     H7  190   4.802   7.607   4.128  1.0204 -1.3314 -1.9587
    6ccc     H8  191   4.753   7.605   3.976 -1.3621  0.9989 -1.2370
    6ccc     O1  192   4.359   7.415   4.092  0.6859  0.2068  0.0567
    6ccc    H17  193   4.707   7.736   4.074 -0.9651 -0.3727  0.4064
    7ccc     C1  194   4.656   7.315   4.964 -0.1324  0.3162 -0.1702
    7ccc     H1  195   4.663   7.406   5.024  1.0137 -1.1516  2.0764
    7ccc     H2  196   4.703   7.240   5.028  1.9650  1.6215 -0.0706
    7ccc     C2  197   4.752   7.314   4.840  0.3865  0.3544 -0.0743
    7ccc     H3  198   4.711   7.369   4.755 -0.0603 -1.1013 -0.8271
    7ccc     H4  199   4.845   7.362   4.874  1.1920 -0.5420 -0.9189
    7ccc     C3  200   4.775   7.176   4.777 -0.1072 -0.1155  0.1173
    7ccc     H5  201   4.789   7.096   4.851 -2.4893  0.5572  1.4134
    7ccc     H6  202   4.870   7.179   4.721 -0.2331  0.1524 -0.0846
    7ccc     N1  203   4.510   7.286   4.946 -0.1160 -0.2329  0.2801
    7ccc     H7  204   4.455   7.326   5.023  2.5994  0.8239  1.7795
    7ccc     H8  205   4.482   7.332   4.858 -0.0389  0.3462  0.5537
    7ccc     O1  206   4.660   7.138   4.691 -0.2649  0.1783 -0.3286
    7ccc    H17  207   4.497   7.184   4.937 -1.2832 -0.0401 -0.3909
    8ccc     C1  208   3.414   6.510   3.561 -0.0270 -0.1276 -0.2943
    8ccc     H1  209   3.397   6.598   3.500  1.1212 -0.8268 -1.6744
    8ccc     H2  210   3.521   6.495   3.545  0.3804  2.5947 -0.4783
    8ccc     C2  211   3.344   6.386   3.499 -0.1284  0.3149 -0.3098
    8ccc     H3  212   3.377   6.296   3.551 -1.4237 -0.3093 -0.5367
    8ccc     H4  213   3.237   6.401   3.518 -0.1121  1.4231 -0.9771
    8ccc     C3  214   3.373   6.375   3.350  0.3517 -0.1847 -0.8105
    8ccc     H5  215   3.342   6.467   3.299 -0.9849 -0.8845 -1.3100
    8ccc     H6  216   3.320   6.288   3.309 -1.6201  0.0513  1.0457
    8ccc     N1  217   3.385   6.555   3.698 -0.2281 -0.0407  0.3422
    8ccc     H7  218   3.434   6.642   3.723 -1.2354  0.2326  1.5172
    8ccc     H8  219   3.284   6.559   3.722 -0.1504  0.5346  0.5802
    8ccc     O1  220   3.518   6.354   3.347  0.4718  0.4021 -0.3143
    8ccc    H17  221   3.423   6.489   3.767  0.4353 -1.3505 -1.2127
    9ccc     C1  222   4.271   6.571   3.113 -0.2015  0.1674  0.6359
    9ccc     H1  223   4.302   6.548   3.215  0.4373 -0.9607  0.2062
    9ccc     H2  224   4.164   6.548   3.107  0.0472 -1.2781  1.2868
    9ccc     C2  225   4.336   6.479   3.001  0.1066 -0.4553  0.7930
    9ccc     H3  226   4.291   6.492   2.902 -0.9357  0.4965  1.3773
    9ccc     H4  227   4.440   6.510   2.988  0.3532 -1.3835  0.4510
    9ccc     C3  228   4.337   6.331   3.034 -0.1662 -0.4216  0.8770
    9ccc     H5  229   4.429   6.305   3.089 -0.2149 -0.4462  0.9469
    9ccc     H6  230   4.334   6.271   2.943  0.3273 -0.6385  0.9981
    9ccc     N1  231   4.297   6.717   3.083  0.4483 -0.3524  0.6212
    9ccc     H7  232   4.386   6.754   3.119  0.2727 -0.6926  1.4480
    9ccc     H8  233   4.293   6.740   2.983  0.2015 -1.0758  0.4596
    9ccc     O1  234   4.231   6.303   3.112  0.6695 -0.1991 -0.0784
    9ccc    H17  235   4.223   6.771   3.132 -0.8698 -2.5887  1.2460
   10ccc     C1  236   3.144   5.051   4.902  0.0302 -0.9682 -0.0799
   10ccc     H1  237   3.115   5.050   5.008  0.7655 -0.0502  0.1345
   10ccc     H2  238   3.244   5.087   4.880 -0.4217  2.0183  2.0656
   10ccc     C2  239   3.037   5.133   4.812 -0.1812  0.4238  0.7939
   10ccc     H3  240   3.068   5.126   4.707 -1.1822  2.4431  0.3230
   10ccc     H4  241   2.939   5.084   4.815  0.6919 -1.3845  1.5366
   10ccc     C3  242   3.032   5.284   4.843  0.3274  0.3557 -0.0293
   10ccc     H5  243   2.984   5.304   4.939 -0.3453 -0.5504 -0.1714
   10ccc     H6  244   2.978   5.346   4.770 -1.2082 -0.1935  0.6048
   10ccc     N1  245   3.159   4.908   4.870  0.5268  0.0238 -0.5086
   10ccc     H7  246   3.064   4.870   4.866  0.0238  1.3276 -2.6989
   10ccc     H8  247   3.200   4.906   4.775 -0.4329  1.8572 -1.0206
   10ccc     O1  248   3.166   5.333   4.851 -0.4897  0.3791  0.3806
   10ccc    H17  249   3.211   4.863   4.946 -0.6200 -0.5490 -0.0589
   11ccc     C1  250   3.926   4.791   4.680  0.5585  0.1109 -0.1355
   11ccc     H1  251   4.028   4.805   4.644  0.1171 -1.0582 -1.9964
   11ccc     H2  252   3.860   4.867   4.637 -0.1125 -0.4878 -0.1877
   11ccc     C2  253   3.922   4.811   4.837 -0.1346  0.3541 -0.2722
   11ccc     H3  254   3.832   4.773   4.887  0.7001 -0.5155  0.6113
   11ccc     H4  255   4.006   4.753   4.876 -0.3089 -0.4706 -1.1041
   11ccc     C3  256   3.938   4.958   4.876 -0.0365  0.0277  0.5439
   11ccc     H5  257   4.017   5.002   4.813  2.0268 -3.7432  0.2232
   11ccc     H6  258   3.974   4.964   4.979  0.1197 -0.8765  0.5517
   11ccc     N1  259   3.891   4.653   4.633  0.4056  0.1485 -0.6957
   11ccc     H7  260   3.969   4.586   4.635  0.4100  0.1488  1.1654
   11ccc     H8  261   3.815   4.620   4.694  0.3603  0.7482 -0.4252
   11ccc     O1  262   3.820   5.034   4.855  0.3414 -0.4642 -0.3362
   11ccc    H17  263   3.850   4.652   4.538 -0.6767 -1.5694 -0.2746
   12ccc     C1  264   4.445   6.645   5.552  0.0198 -0.1018  0.1536
   12ccc     H1  265   4.505   6.554   5.543  0.7343  0.1297  2.0741
   12ccc     H2  266   4.425   6.666   5.658 -2.2214  0.5838 -0.3525
   12ccc     C2  267   4.306   6.624   5.492 -0.5920 -0.7510  0.0990
   12ccc     H3  268   4.246   6.717   5.486  1.9989  1.0425  0.3226
   12ccc     H4  269   4.320   6.587   5.390  1.1371 -1.2060  0.4856
   12ccc     C3  270   4.222   6.517   5.573 -0.1456 -0.1052  0.8871
   12ccc     H5  271   4.120   6.519   5.534  0.6653 -2.5136 -1.7793
   12ccc     H6  272   4.214   6.550   5.677 -1.0551 -1.1803  1.1787
   12ccc     N1  273   4.526   6.753   5.496 -0.0441  0.2112 -0.2089
   12ccc     H7  274   4.541   6.740   5.394 -1.5678  1.6320 -0.6508
   12ccc     H8  275   4.475   6.842   5.496 -2.2756 -0.9901 -0.6929
   12ccc     O1  276   4.286   6.391   5.570 -0.1887  0.5122 -0.2961
   12ccc    H17  277   4.605   6.778   5.557 -1.8696  2.2302  1.4891
   13ccc     C1  278   4.892   6.150   5.672 -0.6270 -0.0567  0.1502
   13ccc     H1  279   4.815   6.157   5.750  0.6808  1.9387  1.3668
   13ccc     H2  280   4.849   6.164   5.572  1.4438  0.8350 -0.6675
   13ccc     C2  281   4.951   6.010   5.682  0.1953 -0.1567 -0.5046
   13ccc     H3  282   5.015   5.992   5.594  2.5719 -0.4665  1.1742
   13ccc     H4  283   5.010   5.999   5.774  0.4843  0.0244 -0.6641
   13ccc     C3  284   4.848   5.898   5.676  0.0266 -0.4091  0.4961
   13ccc     H5  285   4.803   5.878   5.774 -1.5104  1.2359  0.1716
   13ccc     H6  286   4.896   5.807   5.637  0.2013  0.4014 -1.2305
   13ccc     N1  287   4.984   6.268   5.709 -0.7788 -0.4601 -0.0511
   13ccc     H7  288   5.061   6.282   5.641 -2.4768  2.2293 -1.5938
   13ccc     H8  289   4.932   6.357   5.716 -0.9693 -0.4374 -1.3583
   13ccc     O1  290   4.742   5.927   5.584 -0.1909 -0.0367  0.3948
   13ccc    H17  291   5.035   6.243   5.794 -1.6672 -0.0032  0.6343
   14SOL     OW  292   1.702   2.244   4.749 -0.2671 -0.3980  0.0345
   14SOL    HW1  293   1.772   2.300   4.783 -0.6816  0.3036 -0.2380
   14SOL    HW2  294   1.649   2.223   4.826 -0.3594 -0.0448  0.0693
   15SOL     OW  295   0.221   4.909   4.521  0.0504 -0.3060 -0.6525
   15SOL    HW1  296   0.137   4.916   4.476 -0.9837 -1.5863  0.9387
   15SOL    HW2  297   0.235   4.997   4.557 -1.5339 -0.4696  0.5101
   16SOL     OW  298   5.773   3.671   3.619  0.0544  0.3866 -0.3415
   16SOL    HW1  299   5.782   3.762   3.591 -1.7182  0.6615 -0.1549
   16SOL    HW2  300   5.779   3.675   3.715  1.6263  0.0637 -0.4115
   17SOL     OW  301   5.457   4.594   0.453  0.2613 -0.1360  0.0923
   17SOL    HW1  302   5.497   4.540   0.385 -0.7773  0.2316 -0.8311
   17SOL    HW2  303   5.364   4.567   0.453 -0.4285  2.0538 -0.8274
   18SOL     OW  304   1.421   0.147   0.143 -0.4626  0.0948  0.7296
   18SOL    HW1  305   1.403   0.195   0.224  0.5952  1.2598  0.3082
   18SOL    HW2  306   1.480   0.077   0.171 -0.1520  0.4515  0.9872
   19SOL     OW  307   2.428   0.106   4.835  0.8960 -0.3585  0.0541
   19SOL    HW1  308   2.348   0.120   4.784  0.0929 -0.6721  1.1829
   19SOL    HW2  309   2.471   0.032   4.793  0.8337  0.1046 -0.8442
   20SOL     OW  310   1.086   3.552   3.801  0.1108  0.0713 -0.1457
   20SOL    HW1  311   1.095   3.531   3.894 -0.4657  2.1360  0.4226
   20SOL    HW2  312   1.163   3.605   3.781  0.4754 -0.7451 -1.0001
   21SOL     OW  313   5.629   4.310   1.280  0.0762  0.2016 -0.4352
   21SOL    HW1  314   5.614   4.375   1.210 -0.4736  0.4599 -0.0883
   21SOL    HW2  315   5.604   4.227   1.241  0.9389  0.1688 -0.9381
   22SOL     OW  316   3.356   2.841   2.909 -0.0605 -0.4003 -0.3514
   22SOL    HW1  317   3.374   2.755   2.948  1.6504 -1.0888 -2.4507
   22SOL    HW2  318   3.405   2.903   2.963 -1.1994 -0.6905  1.1001
   23SOL     OW  319   1.101   0.475   3.675 -0.0693 -0.1713  0.2934
   23SOL    HW1  320   1.137   0.564   3.670  0.5708 -0.4702 -0.7493
   23SOL    HW2  321   1.175   0.421   3.701  0.6617 -0.9568 -2.9121
   24SOL     OW  322   4.241   2.840   0.537  0.4328 -0.4734 -0.2900
   24SOL    HW1  323   4.260   2.746   0.532 -0.2491 -0.9987  3.5584
   24SOL    HW2  324   4.145   2.844   0.543  0.5277  0.3180  0.9445
   25SOL     OW  325   3.393   1.068   3.702  0.0731  0.3961 -0.9712
   25SOL    HW1  326   3.435   0.991   3.665 -0.3969 -0.0342 -0.6183
   25SOL    HW2  327   3.368   1.120   3.625 -0.4693 -0.2621 -1.2501
   26SOL     OW  328   3.693   2.842   1.215  0.0765 -0.3595  0.2258
   26SOL    HW1  329   3.674   2.935   1.205 -0.1138 -0.5714 -1.6932
   26SOL    HW2  330   3.613   2.798   1.187  1.2435 -1.1289 -2.1691
   27SOL     OW  331   0.446   1.177   2.630  0.3394 -0.0709  0.0531
   27SOL    HW1  332   0.367   1.124   2.643  0.4002 -0.0069  0.6891
   27SOL    HW2  333   0.487   1.140   2.551 -0.0121 -0.4859  0.0638
   28SOL     OW  334   5.275   1.793   3.713 -0.5355 -0.0663 -0.3553
   28SOL    HW1  335   5.323   1.737   3.775 -0.7443 -0.2374 -0.3442
   28SOL    HW2  336   5.226   1.731   3.659  2.3574 -0.1869 -3.0639
   29SOL     OW  337   0.961   3.312   3.404 -0.0838  0.4083  0.8164
   29SOL    HW1  338   0.866   3.317   3.393 -0.1875  1.5889  2.0560
   29SOL    HW2  339   0.974   3.242   3.467 -0.1405  0.3809  0.7978
   30SOL     OW  340   3.005   4.554   2.471 -0.3629 -0.3673  0.5840
   30SOL    HW1  341   2.985   4.460   2.472  0.0921 -0.4733  0.1074
   30SOL    HW2  342   2.965   4.588   2.551 -1.6419 -0.7291  0.1223
   31SOL     OW  343   0.141   1.965   4.588 -0.6338  0.0024  0.4052
   31SOL    HW1  344   0.140   1.983   4.494 -0.7107  0.9572  0.5760
   31SOL    HW2  345   0.062   2.008   4.621 -0.5243 -0.1942  0.9298
   32SOL     OW  346   4.384   3.411   5.308  0.1268  0.3382  0.8406
   32SOL    HW1  347   4.321   3.420   5.379 -0.9739  0.4745 -0.1256
   32SOL    HW2  348   4.346   3.344   5.251  0.8490  0.4328  0.2348
   33SOL     OW  349   0.923   1.567   5.103 -0.0382 -0.1515 -0.3717
   33SOL    HW1  350   0.943   1.651   5.143  0.8453  0.2151 -1.5335
   33SOL    HW2  351   0.978   1.563   5.025  0.7246 -2.2453  0.1833
   34SOL     OW  352   4.141   2.083   3.843  0.0567 -0.3642 -0.1164
   34SOL    HW1  353   4.084   2.093   3.920  1.6232  2.3384  0.8456
   34SOL    HW2  354   4.088   2.033   3.781 -1.4909 -2.2255  2.4644
   35SOL     OW  355   5.518   2.607   4.249 -0.2477  0.1405 -0.2673
   35SOL    HW1  356   5.596   2.598   4.302 -0.2250 -0.0044 -0.3248
   35SOL    HW2  357   5.508   2.702   4.236 -0.1420  0.1642 -0.1729
   36SOL     OW  358   5.944   4.061   5.897  0.0166  0.1683  0.1135
   36SOL    HW1  359   5.866   4.009   5.879  1.7330 -2.3183 -0.7162
   36SOL    HW2  360   5.953   4.118   5.821 -0.0367 -0.7937 -0.6260
   37SOL     OW  361   2.449   3.968   1.329 -0.3397 -0.4296  0.0797
   37SOL    HW1  362   2.423   4.055   1.299 -2.1421 -0.9471  0.0187
   37SOL    HW2  363   2.489   3.927   1.252  1.7393  0.7542  0.4628
   38SOL     OW  364   3.362   5.639   2.800  0.3830 -0.5976  0.0458
   38SOL    HW1  365   3.308   5.656   2.723 -1.4127  0.8583  1.5175
   38SOL    HW2  366   3.344   5.548   2.823 -0.5914 -0.4689 -0.1640
   39SOL     OW  367   5.880   2.008   2.976  0.1200  0.4320 -0.0131
   39SOL    HW1  368   5.860   1.992   3.068 -0.2707  0.0378 -0.1669
   39SOL    HW2  369   5.862   2.101   2.964  1.7441  0.8875  0.7076
   40SOL     OW  370   5.942   1.720   1.124  0.4495 -0.4536  0.4881
   40SOL    HW1  371   5.881   1.792   1.143  0.0395 -0.3190 -1.1725
   40SOL    HW2  372   5.921   1.694   1.035  2.1547 -1.1025  0.2423
   41SOL     OW  373   2.573   6.081   1.152  0.3628 -0.3952  0.0676
   41SOL    HW1  374   2.657   6.120   1.174 -0.1954 -0.2017  2.0283
   41SOL    HW2  375   2.591   5.987   1.142  0.9588 -0.2290 -0.4431
   42SOL     OW  376   2.003   2.670   3.404 -0.3241 -0.1828 -0.0687
   42SOL    HW1  377   2.027   2.582   3.373 -0.3617 -0.1380 -0.2280
   42SOL    HW2  378   1.916   2.685   3.366 -1.5122 -1.1431  2.0890
   43SOL     OW  379   3.942   5.488   5.594 -0.3785 -0.2661 -0.0088
   43SOL    HW1  380   3.927   5.515   5.685 -1.0584  0.1982 -0.2523
   43SOL    HW2  381   3.963   5.395   5.600  0.8973  0.0475  0.7452
   44SOL     OW  382   5.054   0.475   5.787  0.5137  0.4933 -0.3689
   44SOL    HW1  383   5.100   0.558   5.769  0.4764  0.2167 -1.9132
   44SOL    HW2  384   5.091   0.414   5.724 -0.2511 -0.3806  0.0193
   45SOL     OW  385   0.895   4.845   4.869  0.0790 -0.3303  0.5318
   45SOL    HW1  386   0.817   4.882   4.829 -1.1258 -1.5837  1.6266
   45SOL    HW2  387   0.898   4.754   4.838  0.4367 -0.6329  1.4191
   46SOL     OW  388   4.566   0.229   1.359  0.7637  0.2702 -0.4517
   46SOL    HW1  389   4.630   0.158   1.367 -1.0952 -1.3945  0.5214
   46SOL    HW2  390   4.495   0.205   1.419 -0.3298  2.5558 -0.7117
   47SOL     OW  391   4.984   2.567   2.682 -0.0586 -0.1534  0.0040
   47SOL    HW1  392   5.080   2.562   2.676 -0.0361 -0.2534  0.3742
   47SOL    HW2  393   4.968   2.611   2.766 -0.3338  0.4830 -0.3778
   48SOL     OW  394   0.743   4.951   0.060  0.0593  0.2435 -0.0131
   48SOL    HW1  395   0.786   4.866   0.061 -0.4688 -0.0547 -1.0142
   48SOL    HW2  396   0.798   5.005   0.004  0.3508  0.5425  0.5569
   49SOL     OW  397   4.953   6.083   3.058 -0.0166 -0.2337 -0.2113
   49SOL    HW1  398   4.867   6.042   3.048 -0.8129  1.2574  0.3309
   49SOL    HW2  399   4.963   6.138   2.980 -1.2412  2.4788  1.4003
   50SOL     OW  400   5.420   2.789   5.784 -0.3425  0.3821 -0.5838
   50SOL    HW1  401   5.447   2.814   5.872  0.1517 -0.4999 -0.4756
   50SOL    HW2  402   5.462   2.704   5.768  0.6411  1.1074 -2.1676
   51SOL     OW  403   1.011   5.091   4.898  0.1940 -0.4520 -0.0073
   51SOL    HW1  404   1.099   5.088   4.934 -0.1843 -2.4873  0.9251
   51SOL    HW2  405   0.982   4.999   4.899 -2.1935  0.2420  0.4517
   52SOL     OW  406   0.817   2.345   1.237  0.2221  0.3968 -0.5844
   52SOL    HW1  407   0.884   2.362   1.171  0.7090  0.8208 -0.0009
   52SOL    HW2  408   0.785   2.257   1.217  0.2560  0.5802 -1.4642
   53SOL     OW  409   1.556   3.919   5.957  0.0620 -0.3625  0.5382
   53SOL    HW1  410   1.599   3.835   5.975 -1.1627 -0.7377  2.0012
   53SOL    HW2  411   1.542   3.920   5.863  1.1409 -1.2662  0.3507
   54SOL     OW  412   1.523   2.969   5.180  0.4144  0.1952 -0.7470
   54SOL    HW1  413   1.434   3.002   5.192 -0.4385 -2.0557 -0.2379
   54SOL    HW2  414   1.516   2.907   5.107  1.1633 -1.2823  0.3848
   55SOL     OW  415   3.073   2.315   2.658 -0.5498  0.6691  0.3098
   55SOL    HW1  416   3.149   2.366   2.687  0.4683  0.1118 -1.2361
   55SOL    HW2  417   3.008   2.328   2.727  1.0993  0.8046  1.9245
   56SOL     OW  418   4.668   2.207   4.980  0.3958 -0.9839 -0.3188
   56SOL    HW1  419   4.713   2.281   4.940 -1.4110  0.8386  0.8164
   56SOL    HW2  420   4.724   2.181   5.053 -0.6983  1.9997  1.7975
   57SOL     OW  421   2.870   0.864   5.279  0.2451 -0.3174  0.4225
   57SOL    HW1  422   2.946   0.895   5.329 -0.8088  1.9192  0.8058
   57SOL    HW2  423   2.824   0.945   5.254 -1.0574 -1.5263 -1.3265
   58SOL     OW  424   1.873   3.165   4.536  0.3375  0.2225  0.2190
   58SOL    HW1  425   1.848   3.171   4.629 -1.1159  2.0727 -0.2441
   58SOL    HW2  426   1.879   3.256   4.507 -0.2213 -0.3362 -1.7666
   59SOL     OW  427   3.317   1.854   1.369 -0.2924 -0.3281 -0.4207
   59SOL    HW1  428   3.403   1.895   1.358  0.3076 -0.9250  1.4769
   59SOL    HW2  429   3.329   1.765   1.335 -0.5034 -0.0738 -1.1740
   60SOL     OW  430   3.265   2.632   5.518 -0.2070 -0.3170 -0.7742
   60SOL    HW1  431   3.351   2.589   5.513  0.1785  0.2939  0.2820
   60SOL    HW2  432   3.208   2.568   5.560  0.5653  0.4228  1.5537
   61SOL     OW  433   0.660   5.807   2.955 -0.5109  0.5547  0.5188
   61SOL    HW1  434   0.674   5.753   3.032  0.0729  0.7156  0.5287
   61SOL    HW2  435   0.723   5.879   2.964 -0.6938  0.7750  0.0811
   62SOL     OW  436   1.577   2.477   5.394 -0.4539  0.3976  0.2177
   62SOL    HW1  437   1.637   2.408   5.366 -1.1130 -0.0160 -0.1918
   62SOL    HW2  438   1.596   2.489   5.487 -1.4578 -1.5055  0.7254
   63SOL     OW  439   1.773   3.250   2.134 -0.0254  0.1423  0.2292
   63SOL    HW1  440   1.680   3.254   2.157  0.0658 -1.3853  0.9795
   63SOL    HW2  441   1.818   3.259   2.218  0.4400 -0.7134  0.0821
   64SOL     OW  442   3.320   5.289   1.208 -0.2677  0.4088 -0.4662
   64SOL    HW1  443   3.311   5.253   1.120  1.1492 -0.5893 -0.2276
   64SOL    HW2  444   3.346   5.215   1.263 -1.7136  0.8886  0.9316
   65SOL     OW  445   5.300   2.562   6.341  0.0382 -0.1971 -0.5315
   65SOL    HW1  446   5.300   2.603   6.255  0.2954  1.0583  0.0397
   65SOL    HW2  447   5.359   2.616   6.394  1.1527 -1.8575  0.0264
   66SOL     OW  448   6.128   5.306   5.290 -0.0178 -0.7841  0.2268
   66SOL    HW1  449   6.037   5.337   5.290  0.4144  0.8253 -2.5033
   66SOL    HW2  450   6.136   5.257   5.209  0.9121 -3.2575  1.7236
   67SOL     OW  451   4.085   2.963   3.965  0.0882 -0.4773  0.2046
   67SOL    HW1  452   4.129   3.011   3.895  1.1069  0.1162  1.2051
   67SOL    HW2  453   4.137   2.983   4.043 -1.7278 -0.1240  1.3610
   68SOL     OW  454   1.007   1.591   3.935 -0.4624 -0.1827  0.1291
   68SOL    HW1  455   1.043   1.538   4.007 -0.1804  0.6588  0.6155
   68SOL    HW2  456   0.956   1.528   3.883 -0.3349 -0.8870  0.8272
   69SOL     OW  457   5.831   3.213   1.276  0.1221  0.1411 -0.0883
   69SOL    HW1  458   5.761   3.237   1.216 -2.4787  0.4077  2.8376
   69SOL    HW2  459   5.868   3.296   1.306  1.7402  0.0056 -1.5201
   70SOL     OW  460   1.406   2.396   1.577  0.2687  0.8243  0.1099
   70SOL    HW1  461   1.493   2.362   1.553 -0.3692 -1.3129  0.5592
   70SOL    HW2  462   1.410   2.408   1.672 -0.9978 -3.1769  0.8684
   71SOL     OW  463   6.304   2.579   1.928  0.4245 -0.0772  0.5391
   71SOL    HW1  464   6.376   2.609   1.983  0.2038  0.0386  0.7643
   71SOL    HW2  465   6.317   2.484   1.921  0.5176 -0.0747  0.6921
   72SOL     OW  466   3.216   3.407   0.032  0.7149 -0.0914  0.0823
   72SOL    HW1  467   3.175   3.494   0.037 -0.0054 -0.3735 -0.8048
   72SOL    HW2  468   3.257   3.404  -0.054  1.0160 -0.5256  0.2333
   73SOL     OW  469   4.086   2.484   1.578 -0.0307  0.3658 -0.2170
   73SOL    HW1  470   4.049   2.417   1.636  3.9513 -1.5384  0.4792
   73SOL    HW2  471   4.077   2.565   1.627 -2.3602 -0.0671  0.2141
   74SOL     OW  472   1.037   3.607   4.476 -0.4563 -0.6705  0.0508
   74SOL    HW1  473   1.095   3.577   4.545  1.6513  0.8755 -0.9251
   74SOL    HW2  474   1.044   3.702   4.478 -0.0743 -0.5732 -2.4326
   75SOL     OW  475   3.312   5.388   0.642 -0.4260 -0.0774 -0.7272
   75SOL    HW1  476   3.223   5.418   0.626  0.5167  1.9781 -2.8026
   75SOL    HW2  477   3.358   5.466   0.675  0.1740 -1.6450  2.5071
   76SOL     OW  478   5.990   1.035   1.106 -0.0614 -0.7026  0.2214
   76SOL    HW1  479   6.043   1.055   1.028 -0.6714 -0.1321 -0.0548
   76SOL    HW2  480   5.901   1.059   1.081 -0.3118 -0.7939  1.0022
   77SOL     OW  481   1.433   4.881   0.912  0.4906 -0.4111  0.5741
   77SOL    HW1  482   1.481   4.816   0.964  1.8602  0.4111  0.4005
   77SOL    HW2  483   1.438   4.961   0.965 -0.1784 -0.1600  0.2604
   78SOL     OW  484   5.452   3.360   2.278 -0.4060  0.2954  0.1527
   78SOL    HW1  485   5.508   3.284   2.295 -0.7746  0.1142  0.5696
   78SOL    HW2  486   5.509   3.422   2.231  0.4601  0.5598  1.4958
   79SOL     OW  487   3.644   2.168   0.127  0.1729 -0.0675  0.4147
   79SOL    HW1  488   3.645   2.148   0.221 -1.6279 -0.1475  0.4504
   79SOL    HW2  489   3.715   2.115   0.091  0.4914 -0.5170  1.6441
   80SOL     OW  490   1.009   3.507   5.495  0.0407 -0.0467  0.0621
   80SOL    HW1  491   0.922   3.479   5.524 -0.3637  0.7442 -0.3704
   80SOL    HW2  492   0.993   3.583   5.440  1.0732  0.7227  0.7707
   81SOL     OW  493   0.590   2.531   1.434 -0.0306  0.4148  0.7397
   81SOL    HW1  494   0.501   2.565   1.439 -0.4022 -0.3525 -0.3702
   81SOL    HW2  495   0.581   2.436   1.449  0.7235  0.4512  1.5634
   82SOL     OW  496   3.005   1.610   1.102 -0.1373  0.4067  0.8923
   82SOL    HW1  497   2.935   1.546   1.117 -1.6166  1.6478 -0.2564
   82SOL    HW2  498   3.081   1.574   1.147 -0.9967 -1.9403  0.6242
   83SOL     OW  499   1.113   5.222   5.282 -0.1223  0.6497 -0.0975
   83SOL    HW1  500   1.176   5.295   5.281 -0.7323  1.1868  0.0608
   83SOL    HW2  501   1.140   5.168   5.357  1.9260 -0.7360 -1.7263
   84SOL     OW  502   0.490   1.503   4.603 -0.0182 -0.1706 -0.0378
   84SOL    HW1  503   0.444   1.432   4.557  0.6913 -0.7062  0.0619
   84SOL    HW2  504   0.433   1.524   4.677  0.7834 -2.2141  1.2544
   85SOL     OW  505   0.201   6.321   4.066 -0.1058 -0.0528 -0.7393
   85SOL    HW1  506   0.238   6.357   3.986 -1.0715 -0.4237 -1.3717
   85SOL    HW2  507   0.240   6.234   4.073 -0.1215 -0.0725 -0.8862
   86SOL     OW  508   0.942   1.149   6.162 -0.1236 -0.0383 -0.1722
   86SOL    HW1  509   1.034   1.130   6.174 -0.0738 -0.6380 -1.3329
   86SOL    HW2  510   0.916   1.095   6.087 -0.8279  1.8608 -1.3795
   87SOL     OW  511   3.840   5.550   2.161  0.0311 -0.1308 -0.2996
   87SOL    HW1  512   3.819   5.639   2.133 -0.4578  0.1202  0.8387
   87SOL    HW2  513   3.935   5.543   2.149  0.1263  0.6631 -0.0708
   88SOL     OW  514   3.730   5.390   0.594  0.4572  0.2428 -0.0863
   88SOL    HW1  515   3.753   5.407   0.686 -0.6661 -0.2332  0.2933
   88SOL    HW2  516   3.671   5.461   0.571  0.8799  0.4632 -0.5139
   89SOL     OW  517   3.444   4.524   2.865 -0.8221 -0.0959  0.1278
   89SOL    HW1  518   3.401   4.513   2.780 -0.8589 -0.8050  0.2357
   89SOL    HW2  519   3.528   4.565   2.844 -0.0229 -1.9148 -0.4661
   90SOL     OW  520   2.985   0.478   6.309  0.0821  0.1569 -0.3698
   90SOL    HW1  521   3.024   0.408   6.258  0.6186  0.3041 -0.1716
   90SOL    HW2  522   2.891   0.464   6.302 -0.1186  2.0949 -4.2162
   91SOL     OW  523   5.187   1.862   6.284 -0.7123  0.1144  0.1887
   91SOL    HW1  524   5.263   1.920   6.279  0.5331 -1.2807  1.8971
   91SOL    HW2  525   5.145   1.870   6.198 -0.1058  2.8137  0.0585
   92SOL     OW  526   2.582   4.969   5.475 -0.8505 -0.1451  0.1979
   92SOL    HW1  527   2.586   4.873   5.468  0.0485 -0.0755 -0.2634
   92SOL    HW2  528   2.667   4.999   5.444 -1.4002  0.8520 -0.3824
   93SOL     OW  529   5.104   3.084   4.409  0.2685 -0.4525  0.1309
   93SOL    HW1  530   5.194   3.096   4.380  0.5275 -0.6629  0.8280
   93SOL    HW2  531   5.080   3.168   4.447 -0.5928  0.3432 -1.9874
   94SOL     OW  532   4.851   3.370   5.650  0.2418  0.0204 -0.2706
   94SOL    HW1  533   4.869   3.409   5.735  0.7197 -2.1639  0.6722
   94SOL    HW2  534   4.934   3.331   5.623 -0.2249 -0.3847 -1.1854
   95SOL     OW  535   2.360   5.962   4.282  0.0363  0.0245  0.2056
   95SOL    HW1  536   2.300   5.927   4.216  0.4233 -1.4993  0.6276
   95SOL    HW2  537   2.420   6.018   4.232 -0.4711 -0.0724 -0.5297
   96SOL     OW  538   5.111   5.463   5.211 -0.1404  0.5290  0.1521
   96SOL    HW1  539   5.034   5.458   5.267  0.0289  1.7108  0.5291
   96SOL    HW2  540   5.140   5.555   5.218  2.1473 -0.1804  1.2152
   97SOL     OW  541   2.798   5.085   5.838  0.6594 -0.0517 -0.0263
   97SOL    HW1  542   2.742   5.133   5.778 -0.4847 -0.9618  0.2784
   97SOL    HW2  543   2.738   5.029   5.888  2.0294 -4.3369 -2.6120
   98SOL     OW  544   5.743   3.280   5.703 -0.1232 -0.4001  0.1186
   98SOL    HW1  545   5.801   3.204   5.694  1.1541  0.6887 -1.5259
   98SOL    HW2  546   5.701   3.268   5.788  0.1435 -2.8521 -0.0092
   99SOL     OW  547   3.753   1.942   2.644 -0.5345 -0.1695  0.1698
   99SOL    HW1  548   3.672   1.984   2.673 -0.6639  0.4877 -1.0727
   99SOL    HW2  549   3.810   2.015   2.618  0.1817 -0.6585  0.3294
  100SOL     OW  550   5.911   2.301   0.515 -0.2137  0.2295  0.0836
  100SOL    HW1  551   5.836   2.261   0.471  0.6898  0.7539 -2.0643
  100SOL    HW2  552   5.900   2.395   0.503  2.0749  0.2864 -2.7720
  101SOL     OW  553   2.622   2.469   2.880  0.6632 -0.1705  0.4605
  101SOL    HW1  554   2.574   2.443   2.959  0.4778 -3.3396 -0.5213
  101SOL    HW2  555   2.554   2.474   2.812  1.1115  0.1668  0.0365
  102SOL     OW  556   5.465   6.095   4.111  0.4739  0.0241  0.2547
  102SOL    HW1  557   5.471   6.120   4.203  1.2136  1.0374 -0.0618
  102SOL    HW2  558   5.469   6.177   4.062 -1.0727 -0.3777 -0.6620
  103SOL     OW  559   6.245   5.041   5.731 -0.8652 -0.1962 -0.5348
  103SOL    HW1  560   6.288   5.006   5.809  0.7065  2.0955 -0.2642
  103SOL    HW2  561   6.273   4.983   5.660 -0.2872 -0.8500  0.2109
  104SOL     OW  562   4.720   3.590   1.850 -0.5957 -0.4031  0.5504
  104SOL    HW1  563   4.807   3.577   1.887 -0.0304  2.0867  0.2349
  104SOL    HW2  564   4.728   3.562   1.759 -0.7061 -2.0034  0.9941
  105SOL     OW  565   1.838   5.284   4.731 -0.2921  0.0804  0.2815
  105SOL    HW1  566   1.928   5.252   4.728  0.1018  1.1728  0.0336
  105SOL    HW2  567   1.788   5.220   4.679  0.0728 -1.2848  1.5419
  106SOL     OW  568   3.281   0.710   4.356  0.3380  0.3119  0.1791
  106SOL    HW1  569   3.342   0.774   4.319  2.3318 -0.9473  1.1208
  106SOL    HW2  570   3.299   0.629   4.308  0.2394 -0.3748  1.2771
  107SOL     OW  571   1.165   3.660   6.342 -0.3111 -0.1890 -0.3526
  107SOL    HW1  572   1.078   3.633   6.312 -0.9300 -0.6969  1.6947
  107SOL    HW2  573   1.152   3.751   6.371 -0.5345 -0.6750  1.1678
  108SOL     OW  574   3.706   0.812   4.866  0.2118 -0.1538 -0.1723
  108SOL    HW1  575   3.625   0.766   4.889  0.1055  0.4307  0.6949
  108SOL    HW2  576   3.765   0.744   4.835  0.4399 -1.0723  2.0901
  109SOL     OW  577   5.947   3.103   6.026  0.1112 -0.2182 -0.2870
  109SOL    HW1  578   6.001   3.181   6.009  0.8986 -0.1511  2.1867
  109SOL    HW2  579   5.893   3.127   6.101 -0.9592 -1.4722 -0.6226
  110SOL     OW  580   1.401   4.451   3.530  0.1553 -0.3865 -0.2195
  110SOL    HW1  581   1.364   4.423   3.614 -0.0785  1.0580  0.1865
  110SOL    HW2  582   1.349   4.528   3.505  0.2940 -0.7205 -1.6425
  111SOL     OW  583   5.243   0.300   5.681  0.4335  0.4167  0.0240
  111SOL    HW1  584   5.232   0.266   5.592  0.8851  1.0242 -0.2690
  111SOL    HW2  585   5.337   0.314   5.690  0.3484  0.7332  0.4621
  112SOL     OW  586   0.833   3.800   1.198  0.3938 -0.6219 -0.0342
  112SOL    HW1  587   0.802   3.828   1.112  0.6042  0.8276  0.3486
  112SOL    HW2  588   0.885   3.873   1.231 -0.7633 -0.5796  1.8790
  113SOL     OW  589   2.686   3.695   3.714  0.7281 -0.3403 -0.4353
  113SOL    HW1  590   2.657   3.632   3.647 -0.5786 -0.4243  0.1755
  113SOL    HW2  591   2.781   3.701   3.701  0.7679 -1.7646 -1.0839
  114SOL     OW  592   4.996   5.653   1.874  0.5701  0.3225 -0.2401
  114SOL    HW1  593   5.021   5.589   1.942  1.1379  0.7570 -0.0366
  114SOL    HW2  594   5.015   5.738   1.913  0.8530  0.5803 -0.9308
  115SOL     OW  595   3.142   1.987   1.693  0.6660  0.3941 -0.0091
  115SOL    HW1  596   3.224   1.954   1.730  1.3398 -0.1383 -1.8686
  115SOL    HW2  597   3.109   1.914   1.640  0.2907  1.4502 -1.2678
  116SOL     OW  598   2.317   2.287   2.173  0.1464 -0.3613 -0.0936
  116SOL    HW1  599   2.309   2.368   2.122 -0.6504 -0.9774 -0.9670
  116SOL    HW2  600   2.387   2.238   2.130 -0.6650 -0.9732 -0.7560
  117SOL     OW  601   5.673   0.949   0.803 -0.2524 -0.1477 -0.3106
  117SOL    HW1  602   5.676   0.880   0.869 -0.2986  1.3243  1.2910
  117SOL    HW2  603   5.745   1.008   0.826  0.0098  0.1880 -1.8574
  118SOL     OW  604   1.281   2.524   1.369 -0.5699 -0.0694  0.0102
  118SOL    HW1  605   1.357   2.538   1.311 -0.5952 -0.7679 -0.1956
  118SOL    HW2  606   1.319   2.490   1.450 -0.7773 -2.2063 -0.7166
  119SOL     OW  607   2.953   3.627   3.447 -0.1673  0.5531 -0.2673
  119SOL    HW1  608   2.993   3.541   3.434  0.8518  0.2515  3.5352
  119SOL    HW2  609   3.027   3.688   3.443  0.2071  0.4541  2.7565
  120SOL     OW  610   5.072   1.777   2.863 -0.1571 -0.1643 -0.1068
  120SOL    HW1  611   5.035   1.729   2.937 -0.9213  0.1153 -0.3056
  120SOL    HW2  612   5.025   1.860   2.862 -0.0896 -0.1300 -0.8586
  121SOL     OW  613   3.057   3.937   2.606 -0.2335 -0.0473  0.1347
  121SOL    HW1  614   3.025   3.857   2.648 -3.4683  0.4867 -0.9828
  121SOL    HW2  615   3.069   3.913   2.514 -0.4368  0.5419 -0.0527
  122SOL     OW  616   0.372   5.414   0.371 -0.8466  0.3403  0.0740
  122SOL    HW1  617   0.413   5.497   0.346  0.5441  0.4040  2.2677
  122SOL    HW2  618   0.323   5.435   0.450  0.6608 -1.1513  1.4823
  123SOL     OW  619   5.804   3.250   4.429  0.4620 -0.1798 -0.5587
  123SOL    HW1  620   5.757   3.211   4.355  1.5022 -0.8486 -0.8963
  123SOL    HW2  621   5.887   3.280   4.390  0.0145  1.7382 -0.1660
  124SOL     OW  622   5.593   2.175   0.133  0.3214 -0.0659  0.1269
  124SOL    HW1  623   5.510   2.128   0.134 -0.0957  0.6475  0.3484
  124SOL    HW2  624   5.578   2.250   0.075  1.1211 -0.4529 -0.6089
  125SOL     OW  625   4.072   3.148   3.000 -0.4276 -0.4114 -0.3681
  125SOL    HW1  626   4.122   3.214   3.048 -1.0211  0.4433 -0.9143
  125SOL    HW2  627   4.131   3.072   2.996 -0.1786 -0.3396  1.2740
  126SOL     OW  628   6.013   2.755   2.151  0.1393 -0.3084  0.6316
  126SOL    HW1  629   6.029   2.725   2.061  0.1313  1.0370  0.1606
  126SOL    HW2  630   5.966   2.682   2.192 -1.7125 -0.1622 -1.0617
  127SOL     OW  631   4.940   2.731   2.898  0.2574 -0.0154 -0.2240
  127SOL    HW1  632   4.847   2.751   2.893 -0.2811 -2.0634  0.7837
  127SOL    HW2  633   4.980   2.813   2.927 -1.7980 -0.1410  3.6631
  128SOL     OW  634   4.009   2.844   0.794  0.0961  0.2158 -0.0151
  128SOL    HW1  635   4.027   2.937   0.807 -0.7256  0.9327 -3.1835
  128SOL    HW2  636   3.914   2.839   0.782  0.1740 -0.9626 -0.2906
  129SOL     OW  637   5.017   5.547   3.088  0.2174 -0.6895  0.9798
  129SOL    HW1  638   4.946   5.607   3.065  1.2736  0.0517 -0.5023
  129SOL    HW2  639   5.010   5.538   3.183 -1.1260  0.3093  1.0053
  130SOL     OW  640   0.017   3.145   4.906  0.5060 -0.2619 -0.0728
  130SOL    HW1  641   0.080   3.076   4.887  0.6969  0.1053 -0.8248
  130SOL    HW2  642   0.022   3.203   4.830 -1.5494 -0.8175 -0.6949
  131SOL     OW  643   5.293   5.218   2.540  0.4345 -0.0625  0.1515
  131SOL    HW1  644   5.218   5.248   2.592  0.2068 -4.0375  2.5276
  131SOL    HW2  645   5.271   5.127   2.517  2.2221  0.3174 -3.9032
  132SOL     OW  646   2.662   5.440   4.370  0.4430 -0.8084  0.0558
  132SOL    HW1  647   2.667   5.521   4.421  0.2840 -0.4979 -0.4122
  132SOL    HW2  648   2.584   5.452   4.316  0.8064 -0.9879 -0.5108
  133SOL     OW  649   5.466   4.921   2.283 -0.3535 -0.0046  0.4284
  133SOL    HW1  650   5.467   4.827   2.262  0.8208  0.2462 -0.7655
  133SOL    HW2  651   5.472   4.965   2.198 -0.2810  1.1445  1.0109
  134SOL     OW  652   1.080   2.569   5.489  0.2440 -0.6685 -0.4098
  134SOL    HW1  653   1.158   2.513   5.486  0.7772  0.0208  0.2643
  134SOL    HW2  654   1.067   2.596   5.398  1.5371  0.1914 -0.3702
  135SOL     OW  655   3.606   2.004   5.265  0.4366 -0.1270  0.7743
  135SOL    HW1  656   3.554   2.061   5.208  1.0410 -0.4489 -0.1252
  135SOL    HW2  657   3.542   1.947   5.307  0.0141 -0.2346  0.0062
  136SOL     OW  658   2.488   5.631   0.980  0.4756  0.4306  0.0277
  136SOL    HW1  659   2.493   5.552   0.926 -0.0518  0.1935  0.3188
  136SOL    HW2  660   2.416   5.614   1.041 -0.5730  1.6631 -0.7882
  137SOL     OW  661   2.055   1.115   1.065  0.1882 -0.2175  0.0859
  137SOL    HW1  662   2.023   1.187   1.010 -0.2904  0.4372  1.1851
  137SOL    HW2  663   2.150   1.124   1.063  0.2273 -0.7070 -1.2729
  138SOL     OW  664   3.815   2.536   5.908 -0.2163 -0.3500  0.4560
  138SOL    HW1  665   3.723   2.523   5.885 -0.5253 -0.2695  1.5663
  138SOL    HW2  666   3.861   2.464   5.865 -0.7701 -0.2871 -0.2574
  139SOL     OW  667   3.906   3.639   0.876 -0.7221  0.3683 -0.7764
  139SOL    HW1  668   3.963   3.634   0.800 -0.1722 -1.0262 -0.2979
  139SOL    HW2  669   3.947   3.704   0.932 -2.0253  2.6784 -2.3371
  140SOL     OW  670   0.662   2.679   4.593 -0.4459 -0.2145 -0.0327
  140SOL    HW1  671   0.651   2.668   4.687  0.2428  1.0235  0.2208
  140SOL    HW2  672   0.684   2.772   4.582 -1.7430 -0.0347 -1.5336
  141SOL     OW  673   5.531   6.209   4.348  0.2446  0.0713  0.0365
  141SOL    HW1  674   5.594   6.274   4.314 -1.1552  0.8876 -1.1109
  141SOL    HW2  675   5.586   6.135   4.375  1.7667  1.1093 -0.0729
  142SOL     OW  676   1.677   0.113   3.656  1.0076  0.1031  0.2643
  142SOL    HW1  677   1.619   0.188   3.673 -0.4457 -0.9238  0.0310
  142SOL    HW2  678   1.720   0.134   3.573  0.3788  0.5497  0.0455
  143SOL     OW  679   4.460   1.286   5.454 -0.5262  0.4663 -0.1006
  143SOL    HW1  680   4.449   1.268   5.547 -1.3566  0.7947 -0.1251
  143SOL    HW2  681   4.401   1.359   5.436  0.0164  0.7536 -0.7799
  144SOL     OW  682   4.371   1.880   6.199  0.0226 -0.1874  0.2143
  144SOL    HW1  683   4.381   1.794   6.240  1.2462  1.3029  3.3495
  144SOL    HW2  684   4.295   1.919   6.242 -2.6391 -0.7438 -3.4798
  145SOL     OW  685   2.114   2.449   5.475  0.2220 -0.1270 -0.0924
  145SOL    HW1  686   2.057   2.448   5.552  0.3192  1.0992  0.0060
  145SOL    HW2  687   2.194   2.405   5.504  0.4224  0.7010  0.6445
  146SOL     OW  688   0.047   1.666   5.562 -0.0235  0.0956 -0.2262
  146SOL    HW1  689  -0.042   1.649   5.530 -0.6322  0.5177  1.1610
  146SOL    HW2  690   0.036   1.736   5.627  1.3910  0.4749 -0.3622
  147SOL     OW  691   2.074   5.566   4.234 -0.0205  0.1936 -0.0460
  147SOL    HW1  692   2.104   5.552   4.324 -0.8927  1.0328  0.3894
  147SOL    HW2  693   2.025   5.648   4.237 -0.2040  0.1484 -1.2594
  148SOL     OW  694   5.155   4.542   4.322  0.4419  0.3747 -0.4160
  148SOL    HW1  695   5.128   4.537   4.414 -0.0989 -0.2775 -0.6027
  148SOL    HW2  696   5.151   4.636   4.301  1.1198  0.5965  0.3773
  149SOL     OW  697   5.811   4.264   3.518  0.0420  0.3720 -0.1833
  149SOL    HW1  698   5.760   4.300   3.445  0.8904  0.5610 -0.6954
  149SOL    HW2  699   5.800   4.328   3.588 -1.1125 -0.0113  0.0156
  150SOL     OW  700   2.458   4.511   0.426 -0.7190 -0.3620  0.4513
  150SOL    HW1  701   2.484   4.603   0.420 -3.0068  0.4405  1.5053
  150SOL    HW2  702   2.501   4.478   0.505 -1.3679  0.3825  1.1295
  151SOL     OW  703   2.684   4.707   3.504 -0.4064  0.1088  0.2668
  151SOL    HW1  704   2.621   4.686   3.435 -0.2153 -0.4984  0.2667
  151SOL    HW2  705   2.729   4.786   3.472  0.2024 -0.5852 -0.6722
  152SOL     OW  706   5.535   1.460   4.957  0.6306 -0.0532 -0.6980
  152SOL    HW1  707   5.452   1.450   5.005 -0.9807  0.9760 -3.0858
  152SOL    HW2  708   5.553   1.554   4.960  0.9253 -0.0824 -1.4051
  153SOL     OW  709   6.093   3.122   2.625  0.2065  0.0959 -0.1250
  153SOL    HW1  710   6.009   3.079   2.640 -0.6443  1.5714 -0.3894
  153SOL    HW2  711   6.078   3.179   2.549  0.7728  2.0011  1.0988
  154SOL     OW  712   5.983   6.148   1.165 -0.6505 -0.2637  0.3106
  154SOL    HW1  713   5.941   6.062   1.161 -1.0842 -0.2206  2.6158
  154SOL    HW2  714   5.919   6.208   1.128 -2.3217 -0.3413  2.8573
  155SOL     OW  715   1.936   3.741   5.838  0.1247  0.1671  0.3884
  155SOL    HW1  716   1.860   3.799   5.845 -0.9024 -1.0284 -0.6324
  155SOL    HW2  717   1.901   3.653   5.851  1.6054 -0.2966  1.5329
  156SOL     OW  718   3.928   3.864   6.245  0.4449  0.4293 -0.3642
  156SOL    HW1  719   3.994   3.932   6.232  1.2867 -0.5022 -1.1722
  156SOL    HW2  720   3.871   3.898   6.313  2.1299  1.0120  0.8219
  157SOL     OW  721   0.825   3.249   5.971  0.1413  0.1360 -0.2264
  157SOL    HW1  722   0.735   3.217   5.972 -0.1075  0.8350  0.7517
  157SOL    HW2  723   0.877   3.173   5.996 -0.3537  0.2141  1.0830
  158SOL     OW  724   2.940   4.834   0.930 -0.2983  0.3164 -0.2007
  158SOL    HW1  725   2.945   4.826   1.025 -3.0308  1.4043  0.1225
  158SOL    HW2  726   2.879   4.765   0.904  0.7491 -0.2491 -1.2610
  159SOL     OW  727   0.176   3.773   0.489  0.0357  0.5316  0.2732
  159SOL    HW1  728   0.154   3.746   0.578 -0.1475  0.5695  0.2396
  159SOL    HW2  729   0.270   3.791   0.492  1.1796 -3.9527 -0.6522
  160SOL     OW  730   1.761   3.831   0.316  0.0824  0.1965 -0.6470
  160SOL    HW1  731   1.707   3.767   0.362 -0.6242 -0.1602 -1.9019
  160SOL    HW2  732   1.839   3.782   0.291 -0.4154 -0.1895 -1.5220
  161SOL     OW  733   4.203   1.797   3.340 -0.1212 -0.0821 -0.2960
  161SOL    HW1  734   4.143   1.787   3.266  1.0200 -0.8655 -1.1569
  161SOL    HW2  735   4.222   1.707   3.368  0.7433  0.1448 -0.1269
  162SOL     OW  736   1.572   6.182   1.490  0.0165  0.3459  0.2609
  162SOL    HW1  737   1.631   6.166   1.416  0.4809  1.7765  0.2924
  162SOL    HW2  738   1.538   6.095   1.513  0.2995 -0.1919 -1.2558
  163SOL     OW  739   0.822   1.385   0.103 -0.0369  0.0737 -0.3534
  163SOL    HW1  740   0.826   1.408   0.196  1.6773  0.0118 -0.3918
  163SOL    HW2  741   0.749   1.323   0.097  0.2645 -0.4624  1.0711
  164SOL     OW  742   0.601   4.831   0.841 -0.0234  0.3590  0.2782
  164SOL    HW1  743   0.529   4.776   0.871 -0.4210  0.0536 -1.1763
  164SOL    HW2  744   0.680   4.786   0.872 -0.4059 -0.0534  0.6687
  165SOL     OW  745   0.444   0.836   5.073 -0.1015 -0.0006  0.0347
  165SOL    HW1  746   0.369   0.888   5.044  0.5150  0.3784 -0.9070
  165SOL    HW2  747   0.474   0.790   4.995  0.0296 -0.9467  0.6245
  166SOL     OW  748   6.118   4.730   1.861  0.3554 -0.1979 -0.8006
  166SOL    HW1  749   6.211   4.725   1.883 -0.0696 -0.0779  1.3312
  166SOL    HW2  750   6.074   4.716   1.945 -1.5070  1.5693 -1.4060
  167SOL     OW  751   4.276   4.850   0.856  0.2590 -0.0378  0.0398
  167SOL    HW1  752   4.355   4.903   0.842  0.1626  0.2789  0.6852
  167SOL    HW2  753   4.245   4.875   0.943  0.8968 -2.0446  0.9003
  168SOL     OW  754   5.546   1.946   2.542 -0.0732  0.2113  0.4134
  168SOL    HW1  755   5.640   1.928   2.546 -0.1780 -0.5265 -0.1344
  168SOL    HW2  756   5.527   1.995   2.622  0.8534  0.7557  0.3093
  169SOL     OW  757   1.914   3.858   1.453  0.4891  0.3182 -0.4151
  169SOL    HW1  758   1.995   3.837   1.408  1.0389  1.7777 -0.1683
  169SOL    HW2  759   1.941   3.904   1.532 -0.5437 -0.1941  0.2602
  170SOL     OW  760   5.287   5.568   3.317 -0.3682  0.4372 -0.3587
  170SOL    HW1  761   5.197   5.581   3.347 -0.2207  0.4583  0.0841
  170SOL    HW2  762   5.308   5.647   3.268 -0.4703  0.5934 -0.1555
  171SOL     OW  763   4.110   4.312   2.851 -0.1092 -0.0730  0.2287
  171SOL    HW1  764   4.095   4.406   2.851 -1.1633 -0.2313  0.4950
  171SOL    HW2  765   4.025   4.274   2.870  0.3803 -1.0724  0.4924
  172SOL     OW  766   0.658   4.725   1.119  0.1438 -0.5454 -0.3472
  172SOL    HW1  767   0.665   4.667   1.194  2.3692 -2.2782 -1.7684
  172SOL    HW2  768   0.702   4.806   1.147 -0.6730 -0.4745  0.7790
  173SOL     OW  769   6.110   2.219   1.822  0.4431 -0.5635 -0.3047
  173SOL    HW1  770   6.133   2.186   1.735 -0.4538 -0.6420 -0.5259
  173SOL    HW2  771   6.030   2.270   1.808 -0.5070 -1.7142  0.6786
  174SOL     OW  772   4.568   4.136   4.681  0.2697 -1.0450  0.2366
  174SOL    HW1  773   4.616   4.057   4.706  0.5757 -0.6698  0.8743
  174SOL    HW2  774   4.635   4.204   4.679  0.0880 -0.8744 -0.7419
  175SOL     OW  775   5.184   3.486   3.890 -0.0049 -0.1565 -0.3503
  175SOL    HW1  776   5.241   3.457   3.961 -0.9400 -1.7569 -0.2020
  175SOL    HW2  777   5.106   3.520   3.934  0.3182  0.9196 -0.5806
  176SOL     OW  778   3.371   3.613   3.956  0.4206  0.4105  0.3064
  176SOL    HW1  779   3.435   3.542   3.962  0.7927  0.8303  1.4336
  176SOL    HW2  780   3.366   3.649   4.044 -2.2497 -0.3483  0.5504
  177SOL     OW  781   3.748   5.282   3.564 -0.2149  0.4812  0.2813
  177SOL    HW1  782   3.806   5.344   3.607 -0.8731  0.9149  0.5580
  177SOL    HW2  783   3.807   5.219   3.523  0.4372  0.4010  1.3009
  178SOL     OW  784   1.329   1.323   3.589 -0.1198 -0.5322  0.2081
  178SOL    HW1  785   1.331   1.319   3.493  2.5109  0.0048  0.1829
  178SOL    HW2  786   1.239   1.347   3.609 -1.2112 -2.3095 -2.0201
  179SOL     OW  787   1.454   2.819   2.913 -0.2682  0.1122 -0.5021
  179SOL    HW1  788   1.489   2.881   2.849 -0.0210 -0.1491 -0.6223
  179SOL    HW2  789   1.410   2.874   2.978  1.1095  0.5240  0.1313
  180SOL     OW  790   2.898   0.534   0.385  0.5898 -0.3062 -0.2775
  180SOL    HW1  791   2.973   0.480   0.361 -0.0802 -0.9528 -0.9811
  180SOL    HW2  792   2.936   0.620   0.403  1.4735 -0.5441 -0.8980
  181SOL     OW  793   3.925   4.994   4.293  0.2949 -0.1495  0.2999
  181SOL    HW1  794   3.862   5.037   4.236  1.5162 -0.4802 -1.3696
  181SOL    HW2  795   3.914   5.038   4.378 -0.7991  1.1234 -0.4615
  182SOL     OW  796   6.305   3.481   2.575 -0.4932 -0.9472 -0.2613
  182SOL    HW1  797   6.217   3.458   2.605 -0.6482 -2.0993 -1.4868
  182SOL    HW2  798   6.293   3.558   2.519 -0.6517 -0.7994 -0.0232
  183SOL     OW  799   5.244   2.762   0.664  0.5169 -0.1252 -0.4179
  183SOL    HW1  800   5.288   2.714   0.593  2.9882  0.3575  0.6738
  183SOL    HW2  801   5.273   2.718   0.744 -0.4127  0.7130  0.4072
  184SOL     OW  802   3.576   6.088   3.602 -0.1143 -0.0667 -0.2573
  184SOL    HW1  803   3.512   6.069   3.671  0.1960  0.8286  0.2844
  184SOL    HW2  804   3.531   6.061   3.521 -0.9376 -0.0350  0.1723
  185SOL     OW  805   0.019   0.198   0.778  0.0548  0.1300  0.5842
  185SOL    HW1  806  -0.005   0.181   0.870  0.5198  0.4938  0.7757
  185SOL    HW2  807   0.046   0.113   0.744 -1.0085 -0.1978  0.5077
  186SOL     OW  808   1.471   2.547   1.866  0.1136  1.1104  0.0778
  186SOL    HW1  809   1.505   2.630   1.900 -2.6320  1.9310  1.1148
  186SOL    HW2  810   1.421   2.510   1.938 -0.7062 -0.2535 -1.1339
  187SOL     OW  811   0.627   1.537   1.586  0.1381  0.4363 -0.5749
  187SOL    HW1  812   0.550   1.593   1.598 -0.0966 -0.0878  0.5323
  187SOL    HW2  813   0.673   1.575   1.511 -0.4747  1.5834 -0.3975
  188SOL     OW  814   5.366   2.099   3.967 -0.0673 -0.1497 -0.2275
  188SOL    HW1  815   5.314   2.114   3.888  1.1527 -0.4042 -1.1130
  188SOL    HW2  816   5.438   2.042   3.937 -0.2862 -1.2990  1.3425
  189SOL     OW  817   5.895   0.590   4.296  0.2162  0.3026  0.3483
  189SOL    HW1  818   5.902   0.508   4.345  0.2682 -0.2804 -0.6240
  189SOL    HW2  819   5.894   0.564   4.204  1.3707  1.4559 -0.0270
  190SOL     OW  820   4.146   5.526   2.388  0.3959 -0.1539  0.0521
  190SOL    HW1  821   4.063   5.478   2.390  0.5409 -0.3992  0.1923
  190SOL    HW2  822   4.200   5.485   2.456 -0.1209  1.3624  1.4559
  191SOL     OW  823   1.271   0.900   6.110 -0.1794  0.1020  0.2139
  191SOL    HW1  824   1.248   0.982   6.153 -0.0220  1.1607 -1.6103
  191SOL    HW2  825   1.199   0.841   6.132 -0.6811  0.9638  0.9429
  192SOL     OW  826   5.262   0.916   2.647 -0.0666  0.0315  0.8279
  192SOL    HW1  827   5.178   0.959   2.633  0.0877 -0.1163 -0.7688
  192SOL    HW2  828   5.326   0.987   2.653  0.1450  0.1124 -1.4892
  193SOL     OW  829   4.766   1.257   6.245  0.4014 -0.9319 -0.0728
  193SOL    HW1  830   4.764   1.204   6.325  1.1444 -1.6535 -0.5063
  193SOL    HW2  831   4.845   1.227   6.199  2.7884  2.7494  1.1380
  194SOL     OW  832   4.190   4.329   3.514  0.0156  0.1573 -0.1290
  194SOL    HW1  833   4.179   4.295   3.603 -1.6762  1.4326  0.2235
  194SOL    HW2  834   4.200   4.251   3.460 -1.6633 -0.8251  0.8729
  195SOL     OW  835   0.126   5.567   1.576 -0.4990 -0.2658 -0.3614
  195SOL    HW1  836   0.160   5.514   1.649 -0.7917  0.5643  0.3899
  195SOL    HW2  837   0.118   5.655   1.612  1.8621  0.7688 -2.1623
  196SOL     OW  838   5.333   1.361   2.830  0.6882  0.2608  0.0734
  196SOL    HW1  839   5.389   1.309   2.772  1.0437  0.6412  0.0701
  196SOL    HW2  840   5.305   1.435   2.777 -0.8189 -0.5504 -0.3047
  197SOL     OW  841   3.307   6.087   1.022 -0.5598  0.3412 -0.5049
  197SOL    HW1  842   3.397   6.056   1.027 -1.0039 -1.2238 -1.2822
  197SOL    HW2  843   3.303   6.162   1.081  2.0062  2.4269 -2.7378
  198SOL     OW  844   4.410   0.922   1.261  0.5040 -0.6158  0.0366
  198SOL    HW1  845   4.504   0.905   1.264  0.8600  1.0321 -0.9858
  198SOL    HW2  846   4.386   0.910   1.169 -0.1939 -0.5565  0.2062
  199SOL     OW  847   1.915   5.309   3.903 -0.2403 -0.1524  0.1998
  199SOL    HW1  848   1.900   5.215   3.911 -2.6992  0.2595  1.0584
  199SOL    HW2  849   1.924   5.341   3.993  1.3280  0.3716 -0.1052
  200SOL     OW  850   3.687   1.210   5.078  0.5830 -0.8697 -0.2769
  200SOL    HW1  851   3.734   1.284   5.039 -0.7224  0.2731  0.2145
  200SOL    HW2  852   3.747   1.174   5.143  0.4607  1.2056  1.0898
  201SOL     OW  853   4.383   6.134   2.729  0.1574 -0.2237  0.0007
  201SOL    HW1  854   4.453   6.138   2.795  0.0649  0.8581  0.0458
  201SOL    HW2  855   4.330   6.059   2.755  1.2233 -0.9982  0.0355
  202SOL     OW  856   5.239   0.424   2.159  0.0823 -0.2260  0.4322
  202SOL    HW1  857   5.271   0.438   2.249  2.7940 -0.5843 -0.3766
  202SOL    HW2  858   5.181   0.348   2.166  0.4051 -0.3853  1.8520
  203SOL     OW  859   0.204   0.999   0.128  0.4085 -0.0288  0.0544
  203SOL    HW1  860   0.132   0.970   0.185  0.8296  0.9682  1.1587
  203SOL    HW2  861   0.188   1.093   0.115  1.3014  0.1330  0.0245
  204SOL     OW  862   4.484   4.241   2.095 -0.3536  0.4933  0.7742
  204SOL    HW1  863   4.417   4.295   2.053  0.0970 -0.0398 -0.7198
  204SOL    HW2  864   4.483   4.159   2.045  0.1377 -0.2259  1.9119
  205SOL     OW  865   4.718   3.132   5.611 -0.1003  0.0290  0.5365
  205SOL    HW1  866   4.769   3.204   5.646  2.4062 -1.7051  0.7660
  205SOL    HW2  867   4.769   3.101   5.535 -1.1958 -1.3285  0.3046
  206SOL     OW  868   6.194   4.945   4.015  0.3896 -0.0774  0.2703
  206SOL    HW1  869   6.259   4.879   3.991 -0.2281 -1.0860  1.2760
  206SOL    HW2  870   6.245   5.024   4.033  1.1209 -0.1997 -1.1897
  207SOL     OW  871   6.035   2.668   4.137 -0.0580  0.4481 -0.9905
  207SOL    HW1  872   6.054   2.647   4.045 -1.2059  0.1467 -1.1856
  207SOL    HW2  873   5.997   2.587   4.172  1.1425  0.2842  0.0050
  208SOL     OW  874   0.966   3.365   4.261  0.5327  0.1651  0.5318
  208SOL    HW1  875   0.908   3.429   4.219  0.6415 -1.0544 -1.6183
  208SOL    HW2  876   0.925   3.349   4.346 -2.3746 -0.6508 -0.8894
  209SOL     OW  877   4.497   0.344   3.678 -0.3201  0.2506 -0.0078
  209SOL    HW1  878   4.475   0.364   3.587 -1.9093  1.2384  0.5575
  209SOL    HW2  879   4.508   0.429   3.720  4.2050 -0.0814 -0.0330
  210SOL     OW  880   0.234   0.899   2.012 -0.1912 -0.4168  0.3428
  210SOL    HW1  881   0.239   0.988   1.979  0.5502  0.7606  3.2992
  210SOL    HW2  882   0.145   0.870   1.992 -0.7665  1.3712  0.1630
  211SOL     OW  883   4.598   5.527   1.796 -0.1646  0.6888  0.3781
  211SOL    HW1  884   4.565   5.592   1.734  0.0135  1.2123  0.8235
  211SOL    HW2  885   4.609   5.447   1.744 -1.4414  0.6994  0.0636
  212SOL     OW  886   5.890   1.535   0.277  0.3672  0.3975 -0.0277
  212SOL    HW1  887   5.978   1.570   0.286  0.0550  1.0382  0.6547
  212SOL    HW2  888   5.861   1.564   0.190  1.3602 -1.0835 -0.8851
  213SOL     OW  889   5.255   1.543   3.584 -0.1784 -0.7185 -0.6855
  213SOL    HW1  890   5.348   1.557   3.566 -0.0738 -0.2495  0.1723
  213SOL    HW2  891   5.213   1.554   3.499  0.5707 -1.1818 -1.1363
  214SOL     OW  892   3.278   3.886   1.459  0.9706 -0.1024 -0.1204
  214SOL    HW1  893   3.195   3.841   1.450  1.0151 -0.5588  1.3965
  214SOL    HW2  894   3.324   3.871   1.376 -1.0488  1.5082 -1.6316
  215SOL     OW  895   4.495   4.604   5.552 -0.0541 -0.2622  0.3875
  215SOL    HW1  896   4.554   4.533   5.525 -0.4571 -0.3909 -0.1741
  215SOL    HW2  897   4.495   4.600   5.648 -2.2386 -2.8734  0.4007
  216SOL     OW  898   1.856   5.771   2.396 -0.0567  0.0198  0.0704
  216SOL    HW1  899   1.924   5.703   2.406 -0.1719 -0.0767  0.2041
  216SOL    HW2  900   1.880   5.817   2.316  0.6251  0.5071  0.5421
  217SOL     OW  901   5.914   4.873   2.394  0.1164 -0.6226  0.1550
  217SOL    HW1  902   5.821   4.885   2.415 -0.0381  2.3108 -1.7902
  217SOL    HW2  903   5.916   4.862   2.299  1.8522  0.7098  0.0030
  218SOL     OW  904   1.806   2.177   1.311  0.0670 -0.2167  0.1605
  218SOL    HW1  905   1.870   2.107   1.327  1.6271  1.2578  0.7178
  218SOL    HW2  906   1.848   2.234   1.246 -2.5281 -1.4260 -2.8170
  219SOL     OW  907   5.535   3.933   4.796  0.3195  0.3141  0.0469
  219SOL    HW1  908   5.514   3.845   4.763 -0.0974  0.3044  0.3292
  219SOL    HW2  909   5.455   3.962   4.838  0.8531  0.3148  1.0878
  220SOL     OW  910   0.662   1.539   5.193  0.1016 -0.2331 -0.2812
  220SOL    HW1  911   0.751   1.544   5.160  0.3274 -0.5954  0.2625
  220SOL    HW2  912   0.620   1.471   5.139  0.1824 -0.1458 -0.4558
  221SOL     OW  913   3.049   5.212   3.473  0.2546  0.3787 -0.2388
  221SOL    HW1  914   3.028   5.145   3.538 -0.3395  0.6765 -0.1199
  221SOL    HW2  915   3.140   5.237   3.492  0.4443 -0.3165 -0.2182
  222SOL     OW  916   3.070   5.890   6.259  0.2974  0.0949  0.1546
  222SOL    HW1  917   2.977   5.913   6.254 -0.0353 -0.9187  1.1987
  222SOL    HW2  918   3.116   5.974   6.261 -0.6403  0.6122  0.2670
  223SOL     OW  919   1.271   4.138   5.334  0.3060 -0.0075 -0.3137
  223SOL    HW1  920   1.188   4.178   5.309  0.2602 -0.6017 -1.1636
  223SOL    HW2  921   1.286   4.070   5.268  1.0475 -0.4747  0.3148
  224SOL     OW  922   4.666   2.649   0.190  0.6098  0.2630  0.1618
  224SOL    HW1  923   4.587   2.683   0.231  1.1694  1.8777 -0.0243
  224SOL    HW2  924   4.734   2.658   0.258  0.8382 -0.2280  0.0040
  225SOL     OW  925   4.644   2.238   0.184  0.7554  0.0182 -0.7854
  225SOL    HW1  926   4.593   2.301   0.133 -1.3485 -1.3583 -0.4987
  225SOL    HW2  927   4.666   2.169   0.122 -1.2573 -1.3430 -0.1040
  226SOL     OW  928   3.290   3.572   1.519  0.3413  0.3844 -0.2265
  226SOL    HW1  929   3.222   3.581   1.452 -0.5622  1.2133  0.7648
  226SOL    HW2  930   3.373   3.574   1.470 -0.3183 -0.3485 -1.4279
  227SOL     OW  931   4.298   2.221   4.180  0.5390  0.0763 -0.1669
  227SOL    HW1  932   4.282   2.160   4.252  3.0791 -0.2058  0.2373
  227SOL    HW2  933   4.258   2.303   4.209 -3.5078 -1.3928 -1.0006
  228SOL     OW  934   3.520   0.444   2.163  0.1206  0.4360 -0.4244
  228SOL    HW1  935   3.598   0.420   2.214  0.0524  2.1504  0.5770
  228SOL    HW2  936   3.539   0.532   2.131 -0.6423  0.1284 -1.8178
  229SOL     OW  937   4.484   4.216   0.481  0.1201 -0.7463  0.2938
  229SOL    HW1  938   4.467   4.171   0.399 -0.8510  0.7649 -0.3843
  229SOL    HW2  939   4.546   4.286   0.458 -0.2478 -0.2397  0.8055
  230SOL     OW  940   1.131   3.589   4.198  0.1203 -0.4193  0.6485
  230SOL    HW1  941   1.098   3.639   4.273  0.3250 -1.9609  1.8255
  230SOL    HW2  942   1.105   3.499   4.216  0.5932 -0.8975 -0.9214
  231SOL     OW  943   0.018   1.205   0.544 -0.1199  0.0719 -0.9644
  231SOL    HW1  944  -0.065   1.168   0.514 -0.1776  1.5562 -2.7687
  231SOL    HW2  945   0.002   1.228   0.636 -1.3039 -0.7311 -0.9473
  232SOL     OW  946   2.165   3.434   4.682  0.3718  0.5521 -0.3703
  232SOL    HW1  947   2.077   3.433   4.644 -0.5409 -1.9315  1.5289
  232SOL    HW2  948   2.198   3.522   4.664 -1.4154  0.7307 -3.4640
  233SOL     OW  949   2.699   3.120   1.520  0.2709 -0.1775 -0.0268
  233SOL    HW1  950   2.759   3.187   1.487 -0.4323  1.0420  1.0845
  233SOL    HW2  951   2.663   3.080   1.441 -0.5025  1.8686 -0.7855
  234SOL     OW  952   4.699   2.592   5.208 -0.0271  0.0399 -0.4475
  234SOL    HW1  953   4.720   2.501   5.227 -1.2776 -0.3480 -0.7924
  234SOL    HW2  954   4.781   2.639   5.219  1.0278 -1.3786 -1.9324
  235SOL     OW  955   4.516   2.119   0.396  0.3223 -0.0227 -0.4137
  235SOL    HW1  956   4.508   2.031   0.360 -0.3961  0.2435 -0.9276
  235SOL    HW2  957   4.568   2.167   0.332  2.5819 -0.6110  0.8827
  236SOL     OW  958   1.905   4.160   5.208  0.5173  0.8355  0.5143
  236SOL    HW1  959   1.893   4.175   5.302  3.6536  0.5959  1.0419
  236SOL    HW2  960   1.997   4.136   5.198  0.1032  0.0374 -2.5520
  237SOL     OW  961   1.602   0.366   4.987  0.0604  0.1211 -0.0708
  237SOL    HW1  962   1.636   0.390   4.901 -0.8832 -0.1524 -0.5352
  237SOL    HW2  963   1.655   0.291   5.015 -0.0644 -0.2098 -0.7170
  238SOL     OW  964   1.373   6.058   0.348  0.1757  0.9427  0.7461
  238SOL    HW1  965   1.386   6.000   0.273 -1.1043  3.0251 -1.2051
  238SOL    HW2  966   1.313   6.011   0.405  0.1882 -0.1750 -0.1333
  239SOL     OW  967   1.871   2.497   1.798 -0.0122 -0.1001  0.2298
  239SOL    HW1  968   1.963   2.481   1.819  0.4739 -1.8812 -2.6802
  239SOL    HW2  969   1.864   2.480   1.704 -3.1584  0.8433  0.1612
  240SOL     OW  970   0.715   3.440   1.078 -0.2328 -0.2843  0.0805
  240SOL    HW1  971   0.792   3.495   1.088 -0.7569  0.2684  1.2822
  240SOL    HW2  972   0.698   3.406   1.166 -1.0854 -0.7732 -0.2563
  241SOL     OW  973   0.975   3.871   0.525 -0.0103 -0.5876 -0.3762
  241SOL    HW1  974   0.914   3.860   0.452 -1.0844 -1.0826  0.5645
  241SOL    HW2  975   0.995   3.782   0.554 -0.8633 -0.3869  0.9323
  242SOL     OW  976   0.674   0.555   1.259  0.4625 -0.2199  0.2803
  242SOL    HW1  977   0.736   0.530   1.328  2.7568  1.0629 -1.1812
  242SOL    HW2  978   0.629   0.632   1.294  3.1809  1.8093 -0.3380
  243SOL     OW  979   2.928   1.759   3.168  0.1980 -0.5178  0.2865
  243SOL    HW1  980   2.887   1.677   3.141  1.5982 -1.0896 -0.2526
  243SOL    HW2  981   2.988   1.733   3.238  0.2049  0.1546  0.5328
  244SOL     OW  982   1.477   2.968   1.878  0.1118  0.1569 -0.1072
  244SOL    HW1  983   1.506   3.019   1.802  0.7426  1.5649  1.0162
  244SOL    HW2  984   1.557   2.953   1.928 -0.3868 -0.2053  0.5909
  245SOL     OW  985   5.645   4.957   2.489 -0.0211 -0.0430 -0.0389
  245SOL    HW1  986   5.583   4.962   2.416 -1.1277 -1.7209  0.7015
  245SOL    HW2  987   5.672   5.047   2.504 -1.7021  0.6629 -0.9177
  246SOL     OW  988   5.623   3.140   2.129 -0.1032 -0.0413 -0.4786
  246SOL    HW1  989   5.700   3.087   2.110  1.0732  1.6076 -0.5098
  246SOL    HW2  990   5.590   3.107   2.213  1.0881 -0.2978 -0.0989
  247SOL     OW  991   3.825   0.242   5.466 -0.5243  0.0153  0.3231
  247SOL    HW1  992   3.899   0.287   5.423 -0.1359 -0.7603  0.1557
  247SOL    HW2  993   3.778   0.311   5.511 -0.8873  0.8554 -1.2656
  248SOL     OW  994   5.073   1.763   1.479  0.2540 -0.1145 -0.1828
  248SOL    HW1  995   5.015   1.758   1.555 -0.2274  0.6608 -0.4840
  248SOL    HW2  996   5.013   1.770   1.404  0.6762 -2.4899 -0.8193
  249SOL     OW  997   2.438   0.147   0.760 -0.2489 -0.2811 -0.8906
  249SOL    HW1  998   2.419   0.123   0.851  0.1453  1.2143 -0.3805
  249SOL    HW2  999   2.373   0.099   0.709 -0.9447 -0.5977  0.2426
  250SOL     OW 1000   3.503   1.267   1.444 -0.4184  1.0747 -0.2757
  250SOL    HW1 1001   3.591   1.284   1.479 -0.4118  2.5343 -0.9594
  250SOL    HW2 1002   3.518   1.212   1.367 -0.2148  0.3901  0.2338
  251SOL     OW 1003   5.370   5.877   1.037  0.4758 -0.0311  0.1492
  251SOL    HW1 1004   5.297   5.833   0.994  0.7891 -1.7299  1.2657
  251SOL    HW2 1005   5.448   5.845   0.991  0.6339  0.5047  0.0306
  252SOL     OW 1006   1.999   4.438   3.447  0.2537 -0.1578 -0.7777
  252SOL    HW1 1007   2.054   4.366   3.479  0.8049  0.9026  0.8400
  252SOL    HW2 1008   2.010   4.436   3.352  0.5695 -1.9329 -0.7475
  253SOL     OW 1009   1.384   2.510   0.119  0.4819  1.1540  0.4936
  253SOL    HW1 1010   1.469   2.501   0.077  0.4423  4.2071 -0.4619
  253SOL    HW2 1011   1.321   2.508   0.046  0.1973  3.7213  0.5732
  254SOL     OW 1012   2.569   4.848   4.293  0.3372 -0.1979  0.2309
  254SOL    HW1 1013   2.477   4.830   4.273 -0.0249  0.5180  1.1564
  254SOL    HW2 1014   2.580   4.818   4.383  1.4996 -1.8837 -0.4159
  255SOL     OW 1015   0.771   2.932   5.486 -0.5625 -0.2461  0.0950
  255SOL    HW1 1016   0.680   2.946   5.513 -0.6426 -2.0123  0.8627
  255SOL    HW2 1017   0.822   2.948   5.565 -0.3501 -0.8008  0.0695
  256SOL     OW 1018   0.543   5.563   0.974 -0.6154 -0.1289 -0.7869
  256SOL    HW1 1019   0.476   5.630   0.983 -0.0812  0.4896 -1.3486
  256SOL    HW2 1020   0.595   5.570   1.054 -1.4760 -0.9155 -0.1383
  257SOL     OW 1021   2.399   6.212   1.512 -0.0914 -0.1459 -0.6027
  257SOL    HW1 1022   2.433   6.158   1.584 -0.6497  1.1284  0.6739
  257SOL    HW2 1023   2.477   6.254   1.476  0.2040 -0.8485 -0.8070
  258SOL     OW 1024   4.400   0.296   4.461  0.0344 -0.3946 -0.5258
  258SOL    HW1 1025   4.313   0.331   4.476  1.4968  2.5857  2.2339
  258SOL    HW2 1026   4.420   0.320   4.370 -2.0096 -1.3032 -1.2677
  259SOL     OW 1027   3.638   1.651   1.447  0.4800  0.0575  0.0379
  259SOL    HW1 1028   3.696   1.628   1.376  0.2840 -0.4421  0.0319
  259SOL    HW2 1029   3.631   1.746   1.444  0.1639  0.0111 -0.8533
  260SOL     OW 1030   2.971   2.912   5.929 -0.2052 -0.1400  0.0431
  260SOL    HW1 1031   2.974   2.899   5.834 -0.3994 -1.5827  0.2108
  260SOL    HW2 1032   3.049   2.867   5.962 -0.4109 -0.0986  0.6039
  261SOL     OW 1033   0.319   3.532   1.926  0.7944  0.0998  0.0040
  261SOL    HW1 1034   0.230   3.530   1.961  1.3354 -0.4233  1.4100
  261SOL    HW2 1035   0.316   3.599   1.857 -0.5896  0.3257  0.2539
  262SOL     OW 1036   2.187   3.203   0.479  0.1130  0.7774 -0.1983
  262SOL    HW1 1037   2.195   3.272   0.412  0.2972  1.8192  0.8636
  262SOL    HW2 1038   2.252   3.226   0.545 -0.0844 -0.2176  0.3665
  263SOL     OW 1039   0.972   6.244   4.791 -0.0585 -0.8036 -0.3010
  263SOL    HW1 1040   0.895   6.301   4.791  1.0587  0.7874 -1.4406
  263SOL    HW2 1041   1.002   6.244   4.881  1.1376  2.2382 -0.5939
  264SOL     OW 1042   0.001   3.790   1.075  0.3077  0.3018  0.1955
  264SOL    HW1 1043   0.048   3.872   1.056 -1.5654  0.7789 -3.0389
  264SOL    HW2 1044  -0.091   3.813   1.066 -0.4170 -1.5838  2.1347
  265SOL     OW 1045   1.741   4.185   1.622 -0.3981  0.0041 -0.6120
  265SOL    HW1 1046   1.760   4.208   1.532 -0.1211 -0.8512 -0.7803
  265SOL    HW2 1047   1.678   4.251   1.651 -1.3147 -0.3265 -1.7672
  266SOL     OW 1048   1.738   0.493   0.485  0.2022  0.0384 -0.3203
  266SOL    HW1 1049   1.827   0.513   0.455  0.0986  0.4758 -0.3507
  266SOL    HW2 1050   1.740   0.511   0.579 -0.0785  0.8811 -0.4695
  267SOL     OW 1051   4.366   3.931   5.258  0.5125 -0.0778  0.3499
  267SOL    HW1 1052   4.302   3.965   5.321  0.0204 -0.0325 -0.1677
  267SOL    HW2 1053   4.324   3.854   5.220 -0.0481  1.0386 -1.3791
  268SOL     OW 1054   2.000   5.133   1.366 -0.4047  0.5272  0.3144
  268SOL    HW1 1055   1.964   5.148   1.453  0.4188  1.4390  0.5068
  268SOL    HW2 1056   1.969   5.045   1.342 -1.6056  0.7352  1.0281
  269SOL     OW 1057   4.274   6.281   1.348 -0.1473  0.3581 -0.0042
  269SOL    HW1 1058   4.324   6.201   1.336 -0.1384  0.2021  0.9844
  269SOL    HW2 1059   4.326   6.333   1.409 -0.1865  1.0936 -0.5778
  270SOL     OW 1060   2.730   0.443   0.096  0.7904 -0.2904 -0.4053
  270SOL    HW1 1061   2.776   0.461   0.178  0.1878  0.4503 -0.2188
  270SOL    HW2 1062   2.638   0.447   0.119  0.6181 -0.8390 -0.9703
  271SOL     OW 1063   3.299   0.928   0.758 -0.1017  0.2707 -0.6516
  271SOL    HW1 1064   3.368   0.865   0.776  1.9443  2.3154 -0.7863
  271SOL    HW2 1065   3.266   0.953   0.845  1.3837  1.3218 -0.3277
  272SOL     OW 1066   2.439   5.325   2.349 -0.0298  0.6854 -0.3189
  272SOL    HW1 1067   2.511   5.385   2.333 -2.4173  3.2792 -2.3564
  272SOL    HW2 1068   2.424   5.330   2.443  3.0261 -0.8232  0.3736
  273SOL     OW 1069   1.941   3.700   4.964 -0.1395 -0.3074 -0.2331
  273SOL    HW1 1070   1.934   3.616   5.009 -1.4801  1.0856  2.4070
  273SOL    HW2 1071   2.012   3.746   5.010 -1.6606  1.2322  0.6777
  274SOL     OW 1072   2.874   4.708   5.340  0.0921 -0.4992  0.3257
  274SOL    HW1 1073   2.940   4.745   5.398  0.5186 -2.2636  1.0398
  274SOL    HW2 1074   2.923   4.651   5.280 -0.5750 -0.3401 -0.3827
  275SOL     OW 1075   3.192   1.449   4.633  0.1847 -0.0336  0.3817
  275SOL    HW1 1076   3.286   1.466   4.623  0.3945 -1.2794 -0.0219
  275SOL    HW2 1077   3.152   1.483   4.553  0.5022 -0.8049 -0.1198
  276SOL     OW 1078   5.942   4.383   4.983  0.1164  0.9232  0.2838
  276SOL    HW1 1079   5.992   4.395   4.903 -0.3306 -0.4628 -0.2335
  276SOL    HW2 1080   5.964   4.295   5.012  0.4809  1.4967  1.8574
  277SOL     OW 1081   1.969   4.861   0.270  0.5724 -0.0679  0.0448
  277SOL    HW1 1082   1.965   4.949   0.308 -2.7112  0.6620 -1.6190
  277SOL    HW2 1083   1.949   4.802   0.342  0.8692  0.6979  0.7694
  278SOL     OW 1084   2.055   6.206   2.605 -0.0257  0.1180  0.1086
  278SOL    HW1 1085   1.981   6.204   2.545  0.2440  4.1927 -0.6146
  278SOL    HW2 1086   2.121   6.150   2.563 -1.4797 -0.9095 -0.9197
  279SOL     OW 1087   3.781   2.136   3.721  0.1634 -0.4916 -0.7092
  279SOL    HW1 1088   3.695   2.167   3.691  0.1868 -0.9608 -1.2798
  279SOL    HW2 1089   3.836   2.142   3.643  0.4431 -0.9558 -0.5473
  280SOL     OW 1090   5.290   5.173   4.847  0.2485 -0.3049  0.0192
  280SOL    HW1 1091   5.311   5.266   4.846 -1.2593  0.0663  0.4578
  280SOL    HW2 1092   5.234   5.160   4.770  0.1668 -0.7800  0.1568
  281SOL     OW 1093   4.042   2.727   5.805  0.3384  0.6495 -0.4427
  281SOL    HW1 1094   3.985   2.650   5.802  0.6615  0.4231 -1.5573
  281SOL    HW2 1095   4.068   2.735   5.897 -1.1929  0.5482  0.0162
  282SOL     OW 1096   5.424   1.438   6.213  0.2357 -0.2061  0.1544
  282SOL    HW1 1097   5.440   1.417   6.305  0.2438 -0.6978  0.0415
  282SOL    HW2 1098   5.342   1.488   6.214 -1.4722 -2.8105  0.1530
  283SOL     OW 1099   1.221   1.912   6.163  0.1166 -0.3606 -0.3378
  283SOL    HW1 1100   1.130   1.917   6.135  0.5293  2.4469 -1.5812
  283SOL    HW2 1101   1.266   1.866   6.092 -0.0393 -0.0231 -0.6566
  284SOL     OW 1102   4.369   4.916   5.885  0.3301  0.3708  0.1355
  284SOL    HW1 1103   4.461   4.942   5.880  0.7917 -1.3738 -1.3488
  284SOL    HW2 1104   4.334   4.934   5.798 -0.3961 -0.2018  0.3033
  285SOL     OW 1105   0.388   1.524   3.456 -0.0139  0.2406  0.6441
  285SOL    HW1 1106   0.312   1.473   3.427  0.6383 -1.2981  1.5536
  285SOL    HW2 1107   0.381   1.606   3.407 -0.9668 -0.7878 -1.0417
  286SOL     OW 1108   5.220   4.589   0.995 -0.4320  0.8384  0.5872
  286SOL    HW1 1109   5.201   4.495   0.997  0.4968  0.6327  0.3306
  286SOL    HW2 1110   5.268   4.606   1.076 -0.6756  1.1091  0.6750
  287SOL     OW 1111   3.127   4.102   6.256 -0.6169 -0.0153  0.1792
  287SOL    HW1 1112   3.201   4.045   6.278  1.4433  2.8652  1.4024
  287SOL    HW2 1113   3.099   4.138   6.340 -2.6485 -0.0638 -0.4169
  288SOL     OW 1114   4.173   5.150   1.608 -0.3346 -0.8672  0.2809
  288SOL    HW1 1115   4.098   5.204   1.581  0.0359  1.1773  2.9042
  288SOL    HW2 1116   4.139   5.061   1.611 -2.2931 -0.1721  0.1241
  289SOL     OW 1117   4.589   0.264   6.083 -0.1052 -0.2579 -0.6237
  289SOL    HW1 1118   4.589   0.342   6.027 -0.1421  0.2333  0.0477
  289SOL    HW2 1119   4.671   0.271   6.133 -0.0183 -0.7483 -0.6948
  290SOL     OW 1120   4.137   5.059   0.518  0.3655  0.2146  0.3541
  290SOL    HW1 1121   4.104   5.134   0.469  0.6798 -0.6485 -1.2692
  290SOL    HW2 1122   4.065   4.995   0.515  0.1855  0.3370  1.5155
  291SOL     OW 1123   2.604   0.225   3.059  0.9768  0.0488  0.1291
  291SOL    HW1 1124   2.561   0.178   3.130  0.5103 -1.6509 -1.2095
  291SOL    HW2 1125   2.694   0.238   3.090  0.2019  1.5257  1.9770
  292SOL     OW 1126   1.924   5.238   1.879  0.3154 -0.3348 -0.1241
  292SOL    HW1 1127   2.013   5.219   1.911  0.3545 -0.5515 -0.3594
  292SOL    HW2 1128   1.885   5.152   1.865 -0.4853 -0.2573  1.4761
  293SOL     OW 1129   1.156   5.147   0.404 -0.0337  0.0369  0.1443
  293SOL    HW1 1130   1.100   5.109   0.337 -1.6206 -0.2844  1.5836
  293SOL    HW2 1131   1.157   5.082   0.474  1.6673  0.3149  0.4266
  294SOL     OW 1132   2.842   2.896   2.270 -0.8478 -0.4778  0.2454
  294SOL    HW1 1133   2.866   2.925   2.358  2.4007 -2.1870  0.0867
  294SOL    HW2 1134   2.760   2.847   2.282 -0.6707 -0.3577  2.2588
  295SOL     OW 1135   2.430   4.507   6.069  0.3354  0.0524  0.6366
  295SOL    HW1 1136   2.454   4.585   6.018 -2.0280  0.1657 -0.4468
  295SOL    HW2 1137   2.348   4.478   6.030  0.3928 -2.1311  2.0031
  296SOL     OW 1138   5.057   0.592   5.473 -0.3156  0.2964  0.2282
  296SOL    HW1 1139   5.071   0.674   5.426 -1.8405  0.2186 -0.4050
  296SOL    HW2 1140   5.095   0.607   5.560  2.1380  0.5996 -0.8121
  297SOL     OW 1141   4.460   5.733   1.670  0.0600 -0.0812  0.5305
  297SOL    HW1 1142   4.405   5.708   1.595 -1.6150 -0.6658  1.8906
  297SOL    HW2 1143   4.483   5.824   1.653 -0.2848 -0.2087 -0.7029
  298SOL     OW 1144   1.393   2.769   2.047 -0.0269  0.5718  0.2217
  298SOL    HW1 1145   1.405   2.778   2.142  1.3103  0.3743  0.0951
  298SOL    HW2 1146   1.417   2.854   2.011 -1.1850  0.8540  0.1051
  299SOL     OW 1147   4.279   4.855   5.262  0.3337  0.0828  0.2385
  299SOL    HW1 1148   4.259   4.876   5.171  0.2757  0.4098  0.3247
  299SOL    HW2 1149   4.262   4.936   5.310  0.2177 -0.1275  0.5626
  300SOL     OW 1150   1.435   5.474   4.724 -0.6456  0.1500  0.1330
  300SOL    HW1 1151   1.486   5.446   4.648 -2.2690  0.1417 -0.9988
  300SOL    HW2 1152   1.396   5.557   4.698 -1.4333  0.0204  0.8592
  301SOL     OW 1153   0.351   2.492   0.926  0.1778  0.8666 -0.2357
  301SOL    HW1 1154   0.407   2.444   0.865 -2.5244 -2.3774 -0.4767
  301SOL    HW2 1155   0.386   2.472   1.012  0.8371  1.0228 -0.4564
  302SOL     OW 1156   3.633   2.257   2.576  0.3411 -1.1312  0.2492
  302SOL    HW1 1157   3.583   2.259   2.495  1.0732  2.4607 -0.2409
  302SOL    HW2 1158   3.713   2.210   2.554  0.0665 -1.1230 -0.8148
  303SOL     OW 1159   3.211   1.948   2.184 -0.0974 -0.1980 -0.0260
  303SOL    HW1 1160   3.281   2.006   2.153  1.4847 -1.1914  1.4467
  303SOL    HW2 1161   3.188   1.895   2.108  2.2927 -1.2555 -0.1337
  304SOL     OW 1162   0.072   5.243   5.150 -0.5063 -0.2726 -0.0561
  304SOL    HW1 1163   0.035   5.313   5.204 -0.3136 -0.9357  0.9581
  304SOL    HW2 1164   0.137   5.287   5.095 -0.8445  0.4483  0.1147
  305SOL     OW 1165   5.262   0.184   2.279 -0.5636  0.9259  0.0006
  305SOL    HW1 1166   5.263   0.197   2.374 -0.0548  0.8126  0.0125
  305SOL    HW2 1167   5.216   0.101   2.266 -0.5813  0.9128  0.1480
  306SOL     OW 1168   2.465   5.679   6.050 -0.0114 -0.1725  0.2136
  306SOL    HW1 1169   2.490   5.675   6.142  1.3674  0.0191 -0.1325
  306SOL    HW2 1170   2.534   5.630   6.004 -0.0924  0.6475 -0.8219
  307SOL     OW 1171   3.842   5.049   3.742  0.3865  0.1525  0.3896
  307SOL    HW1 1172   3.793   4.981   3.696 -0.2354  1.2570 -0.6228
  307SOL    HW2 1173   3.920   5.062   3.688  0.1667  0.7158  0.2020
  308SOL     OW 1174   2.567   3.570   3.498  0.1077  0.0717  0.4866
  308SOL    HW1 1175   2.476   3.595   3.484  0.1855  0.5753  0.8734
  308SOL    HW2 1176   2.616   3.618   3.431  0.1667  0.3301  0.7159
  309SOL     OW 1177   1.824   1.768   0.487  0.4567  0.1897  0.0434
  309SOL    HW1 1178   1.768   1.817   0.548 -1.5796 -0.9811 -0.7715
  309SOL    HW2 1179   1.790   1.790   0.400  2.4667  0.8135 -0.6491
  310SOL     OW 1180   3.641   0.057   0.423  0.2912  0.9385  0.1611
  310SOL    HW1 1181   3.711   0.009   0.468  0.8587  1.9925  0.4219
  310SOL    HW2 1182   3.568   0.056   0.485 -1.2124 -3.0517 -1.3580
  311SOL     OW 1183   4.270   5.567   6.259 -0.4654  0.8643 -0.1204
  311SOL    HW1 1184   4.360   5.592   6.282 -0.4395  0.9369 -0.3050
  311SOL    HW2 1185   4.262   5.477   6.290  0.8926 -0.5248 -3.3996
  312SOL     OW 1186   2.850   0.946   3.590 -0.3144 -0.0867  0.6186
  312SOL    HW1 1187   2.858   0.916   3.499  0.5235 -0.0553  0.6760
  312SOL    HW2 1188   2.812   0.872   3.637 -5.1101  1.2830 -0.5398
  313SOL     OW 1189   2.246   1.372   1.686 -0.6310 -0.2147 -0.1837
  313SOL    HW1 1190   2.172   1.431   1.673 -0.8336 -0.5991 -0.8379
  313SOL    HW2 1191   2.293   1.373   1.602  0.2403  0.1940  0.2902
  314SOL     OW 1192   0.230   1.016   5.013  0.0730 -0.3633  0.1766
  314SOL    HW1 1193   0.163   1.070   4.971 -1.8397 -2.4420  0.3753
  314SOL    HW2 1194   0.216   1.029   5.107  1.0010  0.3430  0.2408
  315SOL     OW 1195   1.549   4.005   4.392  0.5989 -0.4183  0.7838
  315SOL    HW1 1196   1.480   3.939   4.393 -0.2369  0.3412 -1.1846
  315SOL    HW2 1197   1.550   4.041   4.480 -1.7467 -0.2640  0.8039
  316SOL     OW 1198   3.724   5.791   2.066  0.1455  0.4334  0.4799
  316SOL    HW1 1199   3.667   5.846   2.119 -1.3011  0.0634 -0.6246
  316SOL    HW2 1200   3.674   5.776   1.985  2.3799  1.2285 -1.1366
  317SOL     OW 1201   0.245   1.533   5.422  0.1333  0.2095 -0.1596
  317SOL    HW1 1202   0.178   1.581   5.471 -1.4204 -0.8431 -1.1658
  317SOL    HW2 1203   0.243   1.445   5.458  1.2564  0.2652  0.0494
  318SOL     OW 1204   2.522   2.235   2.489 -0.1459  0.7006  0.3499
  318SOL    HW1 1205   2.605   2.230   2.537  0.8694  0.7523 -1.3240
  318SOL    HW2 1206   2.504   2.144   2.464  0.1790  0.8749 -0.5365
  319SOL     OW 1207   4.687   2.483   4.374 -0.3374 -0.2897 -0.5594
  319SOL    HW1 1208   4.754   2.513   4.435 -1.5854 -0.1989  0.8479
  319SOL    HW2 1209   4.660   2.562   4.327 -0.2852 -0.0987 -0.2740
  320SOL     OW 1210   4.894   4.281   0.266 -0.3821  0.3004  0.3129
  320SOL    HW1 1211   4.983   4.247   0.275  0.1871  1.3768 -0.8347
  320SOL    HW2 1212   4.848   4.250   0.344  1.3724  0.8377  1.6268
  321SOL     OW 1213   5.479   2.740   1.384  0.6165  0.4261 -0.2071
  321SOL    HW1 1214   5.467   2.819   1.436  0.4876  0.7106 -0.6639
  321SOL    HW2 1215   5.556   2.757   1.330  0.2251  0.4878 -0.7561
  322SOL     OW 1216   5.797   3.996   2.765  0.4170  0.0227 -0.0649
  322SOL    HW1 1217   5.821   4.050   2.841 -0.5747 -0.4552  0.6035
  322SOL    HW2 1218   5.769   3.912   2.803  1.0046 -0.6366 -1.0331
  323SOL     OW 1219   4.593   5.396   1.529 -0.0605  0.2345 -0.2206
  323SOL    HW1 1220   4.565   5.402   1.437 -2.7298  0.2104  0.5100
  323SOL    HW2 1221   4.545   5.321   1.563 -0.0069  0.9397  1.4892
  324SOL     OW 1222   1.033   5.024   6.298 -0.6892  0.0858 -0.0246
  324SOL    HW1 1223   1.115   5.025   6.348 -0.3615 -0.1087 -0.5456
  324SOL    HW2 1224   1.061   5.032   6.207 -1.2513 -0.0414 -0.2108
  325SOL     OW 1225   4.363   0.646   1.897 -0.3251 -0.2348  0.5711
  325SOL    HW1 1226   4.278   0.602   1.902  0.5706 -2.4235 -1.3489
  325SOL    HW2 1227   4.389   0.659   1.988 -2.1506 -0.6609  1.1889
  326SOL     OW 1228   2.077   0.416   4.188 -0.1239 -0.6546 -0.5145
  326SOL    HW1 1229   2.048   0.498   4.229 -1.6921 -0.7699 -1.3449
  326SOL    HW2 1230   2.083   0.354   4.261  1.5812  0.2862  0.2084
  327SOL     OW 1231   4.546   5.653   4.902  0.5230  1.1055 -0.1305
  327SOL    HW1 1232   4.515   5.741   4.880 -0.6380  0.9993  0.9532
  327SOL    HW2 1233   4.501   5.631   4.984 -1.7341 -1.7120 -1.9137
  328SOL     OW 1234   4.790   2.513   1.622  0.2638  0.3086  0.1627
  328SOL    HW1 1235   4.732   2.555   1.559  0.7907 -0.2743 -0.7444
  328SOL    HW2 1236   4.829   2.585   1.671 -0.4350  0.7548  0.0799
  329SOL     OW 1237   0.389   4.952   1.247  0.1552  0.0315  1.1314
  329SOL    HW1 1238   0.351   4.994   1.170  1.2240  3.3864  2.2745
  329SOL    HW2 1239   0.324   4.886   1.273 -1.0801  0.1173 -1.4906
  330SOL     OW 1240   3.326   0.617   3.800 -0.1031  0.0239  0.3770
  330SOL    HW1 1241   3.404   0.612   3.744 -0.6850  0.7183 -0.5335
  330SOL    HW2 1242   3.306   0.711   3.804 -2.0217 -0.2582 -1.0504
  331SOL     OW 1243   2.631   5.662   4.051  0.0732 -0.3605 -0.3526
  331SOL    HW1 1244   2.646   5.570   4.071  1.5836 -0.2925 -1.0079
  331SOL    HW2 1245   2.540   5.678   4.076  0.2345 -1.6347  1.2225
  332SOL     OW 1246   4.166   1.079   5.461 -0.2310  0.3259  0.3631
  332SOL    HW1 1247   4.082   1.033   5.452  0.3505 -0.8386  0.6139
  332SOL    HW2 1248   4.142   1.170   5.474 -1.5154 -0.1892  1.9148
  333SOL     OW 1249   6.136   3.197   5.652  0.4720 -0.5069  0.3664
  333SOL    HW1 1250   6.148   3.288   5.626 -1.8719 -0.7144 -1.8559
  333SOL    HW2 1251   6.054   3.196   5.701 -0.2275 -1.5388 -0.7498
  334SOL     OW 1252   0.461   2.575   4.274 -0.8633  0.4504 -0.0727
  334SOL    HW1 1253   0.475   2.487   4.237 -1.9927  0.8147 -1.4775
  334SOL    HW2 1254   0.420   2.559   4.359  1.1056 -0.4083  0.7711
  335SOL     OW 1255   0.415   4.895   1.503  0.0797 -0.0745 -0.0939
  335SOL    HW1 1256   0.460   4.953   1.564  0.5913 -0.0719 -0.4633
  335SOL    HW2 1257   0.433   4.932   1.417  2.6845 -2.1843 -0.5902
  336SOL     OW 1258   2.956   3.359   4.297 -0.5419 -0.8047  0.3440
  336SOL    HW1 1259   2.941   3.324   4.385 -0.8143  0.1154  0.6825
  336SOL    HW2 1260   2.887   3.319   4.244 -1.1385 -0.4493  0.8225
  337SOL     OW 1261   0.930   1.638   1.100 -0.0907 -0.1268  0.0045
  337SOL    HW1 1262   0.895   1.558   1.139  0.8687 -0.2651  0.6092
  337SOL    HW2 1263   1.024   1.624   1.098 -0.0618  0.0950 -1.9148
  338SOL     OW 1264   2.620   5.018   1.161  0.1978  0.0596  0.2421
  338SOL    HW1 1265   2.585   4.943   1.208 -1.1027  0.8825  0.6638
  338SOL    HW2 1266   2.625   4.990   1.070  0.2525 -0.7034  0.4723
  339SOL     OW 1267   0.915   1.079   5.025  0.0340  0.0180 -0.1799
  339SOL    HW1 1268   0.934   1.160   4.977  0.9134 -0.5820 -0.8820
  339SOL    HW2 1269   0.835   1.098   5.073  0.5888  1.5458  0.2190
  340SOL     OW 1270   1.133   5.391   4.739 -0.3726 -0.1222  0.1939
  340SOL    HW1 1271   1.223   5.420   4.731 -0.1655 -0.3978  1.3575
  340SOL    HW2 1272   1.123   5.367   4.831 -1.2074 -1.4852 -0.2186
  341SOL     OW 1273   5.675   6.321   3.378  0.1153 -0.1490 -0.5043
  341SOL    HW1 1274   5.687   6.411   3.349 -0.7647  0.1090 -0.1158
  341SOL    HW2 1275   5.764   6.285   3.383  0.4659  0.6524 -0.7884
  342SOL     OW 1276   0.970   5.078   2.496 -0.0838  0.4671  1.0441
  342SOL    HW1 1277   1.040   5.050   2.554 -1.0183 -1.5886  1.2802
  342SOL    HW2 1278   0.972   5.015   2.424 -1.2941  0.7165  0.7712
  343SOL     OW 1279   4.807   0.432   2.262 -0.2476 -0.0871 -0.4345
  343SOL    HW1 1280   4.846   0.519   2.263  0.9259 -0.5850  0.5239
  343SOL    HW2 1281   4.778   0.419   2.172  0.4959  0.8906 -0.8321
  344SOL     OW 1282   0.269   5.073   2.057  0.6280 -0.2978 -0.1074
  344SOL    HW1 1283   0.234   5.091   2.145 -0.8194 -0.5301 -0.6189
  344SOL    HW2 1284   0.245   4.983   2.039 -0.2516  0.1404 -1.2580
  345SOL     OW 1285   5.732   3.385   3.034  0.8722  0.0085 -0.4740
  345SOL    HW1 1286   5.789   3.369   2.959  0.7165  0.3801 -0.6750
  345SOL    HW2 1287   5.790   3.384   3.109  0.8010 -2.2307 -0.3572
  346SOL     OW 1288   5.593   2.766   3.313  0.2825 -0.2524 -0.5675
  346SOL    HW1 1289   5.597   2.847   3.363 -0.4920 -0.6236  0.1180
  346SOL    HW2 1290   5.609   2.793   3.222  0.7762  0.5558 -0.2531
  347SOL     OW 1291   0.463   4.181   1.068  0.3855  0.7334 -0.0455
  347SOL    HW1 1292   0.387   4.134   1.102  0.9529 -0.6295 -0.6146
  347SOL    HW2 1293   0.538   4.127   1.091  1.1571  1.8472  0.1228
  348SOL     OW 1294   3.614   4.859   3.695 -0.2774 -0.4836 -0.0525
  348SOL    HW1 1295   3.532   4.812   3.681  0.1550 -1.3727  0.3120
  348SOL    HW2 1296   3.641   4.836   3.784  0.4062 -0.2640 -0.1939
  349SOL     OW 1297   5.603   0.478   0.094 -0.3901  0.4861  0.5219
  349SOL    HW1 1298   5.510   0.464   0.079 -0.8075  1.8024  1.6286
  349SOL    HW2 1299   5.607   0.564   0.137  1.1155 -0.5661  2.6396
  350SOL     OW 1300   6.011   3.391   1.422 -0.4555 -0.0062  0.2217
  350SOL    HW1 1301   5.946   3.410   1.489 -1.2429 -0.8118 -0.2951
  350SOL    HW2 1302   6.054   3.311   1.451  0.2438  0.4504  0.4953
  351SOL     OW 1303   1.042   6.127   3.000  0.0961 -0.3980  0.4604
  351SOL    HW1 1304   1.036   6.181   2.921  0.9223 -0.8416  0.0864
  351SOL    HW2 1305   1.124   6.154   3.041 -0.4043 -0.0540  1.2662
  352SOL     OW 1306   2.612   5.418   5.152 -0.4629 -0.4618  0.1501
  352SOL    HW1 1307   2.662   5.489   5.111  1.8398 -1.1341  1.5552
  352SOL    HW2 1308   2.597   5.355   5.081  0.2691  0.0252 -0.4569
  353SOL     OW 1309   1.744   0.501   5.834  0.6703 -0.0062  0.9455
  353SOL    HW1 1310   1.727   0.541   5.919 -1.9011  0.3529  0.3384
  353SOL    HW2 1311   1.658   0.474   5.802  1.8831 -2.8587 -0.2742
  354SOL     OW 1312   3.639   1.508   0.008 -0.0561  0.2050  0.0120
  354SOL    HW1 1313   3.594   1.513  -0.077 -0.0859  2.5309  0.1079
  354SOL    HW2 1314   3.690   1.427   0.003  0.0594  0.3544 -2.2956
  355SOL     OW 1315   4.659   1.832   2.261  0.0622 -0.1479  0.1950
  355SOL    HW1 1316   4.733   1.819   2.320 -1.4766 -0.2917  2.2019
  355SOL    HW2 1317   4.671   1.767   2.192  0.6525 -1.6994  1.6963
  356SOL     OW 1318   1.717   5.460   5.720  0.1887 -0.3336  0.3668
  356SOL    HW1 1319   1.628   5.443   5.750  0.0920 -0.9365 -0.2484
  356SOL    HW2 1320   1.773   5.417   5.784 -0.0416 -3.0131 -1.0830
  357SOL     OW 1321   2.615   5.721   1.890  0.0525 -0.2641  0.2670
  357SOL    HW1 1322   2.621   5.663   1.813 -0.4098 -2.0540  1.5164
  357SOL    HW2 1323   2.575   5.801   1.856  0.5733 -0.7028 -1.5035
  358SOL     OW 1324   0.045   2.815   5.630 -0.4622  0.5922 -0.4557
  358SOL    HW1 1325   0.094   2.743   5.672  1.0762  1.6624 -0.3354
  358SOL    HW2 1326   0.056   2.799   5.536  0.9009  1.2907 -0.4399
  359SOL     OW 1327   1.113   5.650   4.314  0.4152 -0.4806  0.1766
  359SOL    HW1 1328   1.161   5.578   4.273  0.4571 -0.8567  0.8837
  359SOL    HW2 1329   1.161   5.729   4.287  0.6743 -0.7537 -0.1703
  360SOL     OW 1330   1.816   4.154   4.862  0.0111 -0.4937  0.3950
  360SOL    HW1 1331   1.902   4.135   4.900  0.9433  1.0803 -0.8276
  360SOL    HW2 1332   1.754   4.122   4.928  1.5332 -0.4271  1.9490
  361SOL     OW 1333   3.845   3.797   0.304 -0.2411 -0.4601 -0.5424
  361SOL    HW1 1334   3.810   3.854   0.236 -0.3140 -0.3682 -0.4291
  361SOL    HW2 1335   3.819   3.709   0.278  1.3628 -0.6508 -1.6465
  362SOL     OW 1336   1.781   1.028   5.240 -0.1366  0.6462  0.4364
  362SOL    HW1 1337   1.783   1.037   5.335  1.1325 -0.1759  0.5117
  362SOL    HW2 1338   1.862   1.069   5.210  0.5579 -1.0315 -0.0793
  363SOL     OW 1339   4.649   4.901   5.868 -0.2248 -0.2535  0.2489
  363SOL    HW1 1340   4.652   4.843   5.945  1.6127 -0.3791  0.1283
  363SOL    HW2 1341   4.696   4.979   5.896  2.5575 -1.1898 -1.3662
  364SOL     OW 1342   0.000   1.819   3.398  0.3899 -0.3533  0.0829
  364SOL    HW1 1343   0.047   1.858   3.472  1.3290 -1.9651  0.3889
  364SOL    HW2 1344  -0.089   1.806   3.430 -0.0089  1.6473 -0.0964
  365SOL     OW 1345   2.622   3.228   6.271  0.0267 -0.2261 -0.3215
  365SOL    HW1 1346   2.698   3.277   6.303 -0.1281  0.4406 -0.9367
  365SOL    HW2 1347   2.566   3.295   6.232 -0.5409 -0.8086 -0.5151
  366SOL     OW 1348   1.661   3.749   1.461 -0.2094 -0.1565 -0.6564
  366SOL    HW1 1349   1.748   3.788   1.453  0.0501 -0.6591 -0.3899
  366SOL    HW2 1350   1.623   3.792   1.537 -0.5445  0.6968 -1.2948
  367SOL     OW 1351   6.308   5.904   3.066  0.1916 -0.0247  0.9323
  367SOL    HW1 1352   6.308   5.894   3.162  0.7882  1.8392  1.1794
  367SOL    HW2 1353   6.251   5.980   3.051  0.4143 -0.0590 -0.1655
  368SOL     OW 1354   3.757   1.056   2.836 -0.1408  0.3039 -0.1029
  368SOL    HW1 1355   3.804   1.004   2.901 -0.3313 -0.3098 -0.4589
  368SOL    HW2 1356   3.778   1.147   2.859 -0.5246  0.1133  1.0731
  369SOL     OW 1357   2.724   4.412   2.288 -0.3843 -0.4339 -0.2577
  369SOL    HW1 1358   2.651   4.436   2.231 -0.0676 -1.2661 -1.0379
  369SOL    HW2 1359   2.787   4.371   2.229  0.0555 -1.0962  0.6556
  370SOL     OW 1360   0.987   1.449   4.172 -0.1508  0.5414 -0.2454
  370SOL    HW1 1361   1.004   1.467   4.264 -3.5472 -1.9137  1.1034
  370SOL    HW2 1362   0.913   1.505   4.149 -1.0684 -0.7552 -0.5846
  371SOL     OW 1363   1.926   6.055   2.184  0.7677  0.2772 -0.0250
  371SOL    HW1 1364   1.968   6.140   2.168 -0.5767  0.9938  0.0732
  371SOL    HW2 1365   1.998   5.992   2.184  1.8637  1.4851  0.4561
  372SOL     OW 1366   2.022   3.414   5.822  0.1550  0.2674  0.1623
  372SOL    HW1 1367   2.070   3.481   5.872  0.1457 -0.5327  1.2862
  372SOL    HW2 1368   2.090   3.372   5.769  0.2736  0.7189 -0.0562
  373SOL     OW 1369   3.382   4.143   6.094  0.2325 -0.3752  0.4912
  373SOL    HW1 1370   3.358   4.059   6.133  0.9174  0.0076  1.8142
  373SOL    HW2 1371   3.351   4.208   6.157 -0.5564  0.3932 -0.6573
  374SOL     OW 1372   1.519   4.438   4.151  0.6369  0.6792 -0.0461
  374SOL    HW1 1373   1.428   4.416   4.171  0.5722  0.9578 -0.0299
  374SOL    HW2 1374   1.556   4.465   4.234  0.6068  1.0105 -0.1412
  375SOL     OW 1375   5.695   1.346   1.679 -0.1126  0.3322 -0.7569
  375SOL    HW1 1376   5.657   1.331   1.593  0.6657 -1.5398 -0.8271
  375SOL    HW2 1377   5.730   1.435   1.674 -0.9168  0.6069 -2.0332
  376SOL     OW 1378   1.062   1.820   4.484  0.4122  0.3338  0.1079
  376SOL    HW1 1379   1.045   1.914   4.476  1.0178  0.4337 -0.0692
  376SOL    HW2 1380   1.053   1.801   4.578 -2.6599 -0.0323 -0.1639
  377SOL     OW 1381   1.959   3.747   2.047  0.3410 -0.1513  0.0022
  377SOL    HW1 1382   1.912   3.822   2.011  0.0263 -0.1825  0.3354
  377SOL    HW2 1383   2.052   3.771   2.041  0.3075 -0.2480 -0.9998
  378SOL     OW 1384   5.828   4.066   5.236  0.0086  0.1589  0.3674
  378SOL    HW1 1385   5.907   4.093   5.189  0.1353  0.8817  0.9747
  378SOL    HW2 1386   5.757   4.111   5.191  0.1158  0.7455  0.7789
  379SOL     OW 1387   2.427   5.426   2.632 -0.3668  0.0813 -0.1646
  379SOL    HW1 1388   2.388   5.513   2.638  1.6658  0.9818  1.3720
  379SOL    HW2 1389   2.431   5.395   2.722 -0.2271 -1.2360 -0.5984
  380SOL     OW 1390   5.568   0.931   6.307  0.1189 -0.1275 -0.1864
  380SOL    HW1 1391   5.503   0.918   6.238  0.4811  1.1561 -0.7985
  380SOL    HW2 1392   5.642   0.974   6.264  0.6491  0.0496  0.8536
  381SOL     OW 1393   3.734   2.569   2.511  0.0639 -0.4301  0.6742
  381SOL    HW1 1394   3.825   2.580   2.484 -0.4334  2.8291 -0.0338
  381SOL    HW2 1395   3.720   2.635   2.579 -1.8489 -0.7249  0.6405
  382SOL     OW 1396   1.499   2.871   4.888 -0.1512 -0.5869 -0.6134
  382SOL    HW1 1397   1.592   2.863   4.907 -0.0599 -1.2167 -1.2864
  382SOL    HW2 1398   1.473   2.784   4.857 -1.0749 -0.5574  0.0326
  383SOL     OW 1399   3.278   4.385   2.279  0.1305 -0.3471  0.3814
  383SOL    HW1 1400   3.208   4.437   2.239  0.5669  0.3469  0.5033
  383SOL    HW2 1401   3.341   4.450   2.310  1.5630 -1.0109 -1.0469
  384SOL     OW 1402   0.408   3.809   2.955 -0.2400  0.2172  0.1391
  384SOL    HW1 1403   0.492   3.769   2.935 -0.5467  0.5000 -1.9438
  384SOL    HW2 1404   0.360   3.743   3.004  0.3252 -0.8847 -0.7556
  385SOL     OW 1405   3.257   4.758   6.161 -0.0521 -0.6517  0.2286
  385SOL    HW1 1406   3.247   4.790   6.071  2.4819 -0.0542  0.0724
  385SOL    HW2 1407   3.232   4.832   6.216 -0.6521 -0.6850  0.0067
  386SOL     OW 1408   5.123   1.789   5.124  0.0557 -0.4825 -0.0870
  386SOL    HW1 1409   5.195   1.846   5.097  1.4270 -2.1042 -0.0158
  386SOL    HW2 1410   5.094   1.747   5.043 -1.7811  1.1268 -0.3480
  387SOL     OW 1411   2.774   5.073   2.027 -0.1610 -0.6315 -0.0074
  387SOL    HW1 1412   2.820   5.015   2.087 -1.1736 -0.1643  1.2778
  387SOL    HW2 1413   2.707   5.018   1.986  1.0540 -1.1471 -1.3685
  388SOL     OW 1414   4.148   4.043   6.188 -0.2615  0.2457 -0.3174
  388SOL    HW1 1415   4.168   4.085   6.272  2.4425 -2.7900  0.7517
  388SOL    HW2 1416   4.233   4.032   6.145 -1.0507 -2.0426 -1.4730
  389SOL     OW 1417   4.185   6.116   6.318 -0.2214 -0.4602 -0.1445
  389SOL    HW1 1418   4.276   6.143   6.312 -0.1188 -0.6630  0.3962
  389SOL    HW2 1419   4.180   6.068   6.401 -0.2881 -2.5470 -1.2876
  390SOL     OW 1420   3.636   5.960   1.683 -0.3019  0.4798 -0.5583
  390SOL    HW1 1421   3.573   5.912   1.736 -0.7952  0.6680 -0.9620
  390SOL    HW2 1422   3.585   5.993   1.609  0.3202  0.4361 -1.0163
  391SOL     OW 1423   3.632   3.792   5.151 -0.5853  0.0050 -0.0863
  391SOL    HW1 1424   3.683   3.757   5.225 -0.4194  1.4520  0.5114
  391SOL    HW2 1425   3.665   3.881   5.139 -2.6328  0.8297  0.0039
  392SOL     OW 1426   1.621   0.195   0.728  0.4906 -0.1816  0.3759
  392SOL    HW1 1427   1.692   0.144   0.767  1.5085 -0.7333 -2.0349
  392SOL    HW2 1428   1.614   0.162   0.639 -3.0278 -0.3462  0.5878
  393SOL     OW 1429   6.045   2.880   2.400 -0.2262 -0.0834  0.3910
  393SOL    HW1 1430   6.133   2.917   2.403 -0.6378  0.8528  0.9651
  393SOL    HW2 1431   6.042   2.834   2.315  0.1025  1.6679 -0.6190
  394SOL     OW 1432   5.549   5.227   3.718 -0.2567 -0.0239  0.0734
  394SOL    HW1 1433   5.517   5.298   3.662 -0.2700  1.7013  2.1489
  394SOL    HW2 1434   5.505   5.240   3.802  0.4199 -1.9915  0.7998
  395SOL     OW 1435   4.337   6.007   6.134 -0.0424 -0.1325 -0.1928
  395SOL    HW1 1436   4.265   6.035   6.191  1.2371  0.8544  1.0321
  395SOL    HW2 1437   4.379   6.088   6.107  0.5803 -0.6891 -0.9359
  396SOL     OW 1438   2.423   1.947   4.973  0.1011 -0.1058  0.4888
  396SOL    HW1 1439   2.476   1.867   4.975 -1.9623 -1.5300  0.8052
  396SOL    HW2 1440   2.334   1.918   4.995 -0.9130  2.1251 -0.3864
  397SOL     OW 1441   2.651   4.399   4.780 -0.4138  0.2998  0.3489
  397SOL    HW1 1442   2.572   4.363   4.821  0.3483 -1.7155  0.1535
  397SOL    HW2 1443   2.679   4.332   4.718 -0.5514  2.5086 -2.3095
  398SOL     OW 1444   2.161   2.749   0.782 -0.2266  0.3122  1.0241
  398SOL    HW1 1445   2.239   2.799   0.804  0.8925 -0.3370 -1.1418
  398SOL    HW2 1446   2.127   2.720   0.866  1.4637  1.1920  2.0777
  399SOL     OW 1447   3.900   0.179   0.138  0.1829  0.4805 -0.1364
  399SOL    HW1 1448   3.940   0.097   0.109  1.1569  0.5953  0.8310
  399SOL    HW2 1449   3.965   0.246   0.117 -0.8856  1.1304 -1.5529
  400SOL     OW 1450   5.471   5.084   1.635  0.0158 -0.2906 -0.2068
  400SOL    HW1 1451   5.399   5.107   1.577  0.0866 -0.3874 -0.3337
  400SOL    HW2 1452   5.453   5.132   1.716 -0.6994 -1.0701  0.1025
  401SOL     OW 1453   0.770   3.763   4.704  0.2166  0.4456 -0.2289
  401SOL    HW1 1454   0.783   3.691   4.643 -1.3337  0.2755 -0.4059
  401SOL    HW2 1455   0.857   3.801   4.716  0.9493 -1.0322 -0.6455
  402SOL     OW 1456   5.385   0.557   1.982 -0.0074 -0.1892  0.5466
  402SOL    HW1 1457   5.349   0.551   1.893  1.1183 -0.6724  0.0998
  402SOL    HW2 1458   5.336   0.492   2.032 -0.8903  0.3320  0.3724
  403SOL     OW 1459   6.275   4.466   6.073 -0.0216 -0.0166 -0.2104
  403SOL    HW1 1460   6.342   4.532   6.058  0.3487 -0.5106 -0.7518
  403SOL    HW2 1461   6.294   4.397   6.009  0.6731 -1.4677  1.4614
  404SOL     OW 1462   0.573   3.093   4.463 -0.1022  0.4704  0.0055
  404SOL    HW1 1463   0.531   3.012   4.436 -1.1478  0.8110  0.5433
  404SOL    HW2 1464   0.643   3.065   4.522 -1.3756  0.0020  1.3462
  405SOL     OW 1465   2.381   4.463   3.431 -0.5676  0.2403 -0.5992
  405SOL    HW1 1466   2.288   4.452   3.412 -0.9702  1.2327  0.6241
  405SOL    HW2 1467   2.389   4.443   3.524  0.1177  1.7566 -0.2931
  406SOL     OW 1468   5.528   0.299   4.695 -0.0360  0.3768 -0.2584
  406SOL    HW1 1469   5.534   0.207   4.670  4.4621  0.3904 -0.0890
  406SOL    HW2 1470   5.569   0.346   4.622  1.1583  1.8014  1.2577
  407SOL     OW 1471   0.914   5.856   3.698  0.4379 -0.0901  0.0745
  407SOL    HW1 1472   0.898   5.950   3.707  1.4653  0.1476 -0.3972
  407SOL    HW2 1473   0.988   5.839   3.756  1.0406 -0.3640 -0.7629
  408SOL     OW 1474   1.678   2.799   1.064 -0.0662  0.0138  0.1019
  408SOL    HW1 1475   1.598   2.844   1.036  0.0660 -0.2319 -0.7036
  408SOL    HW2 1476   1.698   2.738   0.993 -1.6770 -3.2807  2.2521
  409SOL     OW 1477   5.379   2.427   5.261 -0.5798  0.5175  0.0120
  409SOL    HW1 1478   5.381   2.476   5.343  2.1082 -1.3673  1.2117
  409SOL    HW2 1479   5.430   2.480   5.200  0.2373  0.3866  0.5697
  410SOL     OW 1480   3.462   1.993   3.309  0.1572  1.0096  0.1439
  410SOL    HW1 1481   3.518   1.945   3.369 -1.9120 -1.1104  0.5037
  410SOL    HW2 1482   3.510   1.992   3.226  0.9249 -0.1840  0.5801
  411SOL     OW 1483   0.214   5.279   1.517  0.0864 -0.6650 -0.5901
  411SOL    HW1 1484   0.227   5.186   1.533  1.0202 -0.6008 -0.8934
  411SOL    HW2 1485   0.244   5.322   1.597  2.9418 -0.4542 -1.6664
  412SOL     OW 1486   2.028   1.186   3.439 -0.3705 -0.1455 -0.1158
  412SOL    HW1 1487   2.085   1.246   3.487 -1.6782  1.7571 -0.8281
  412SOL    HW2 1488   2.067   1.182   3.351  0.0814 -0.8804  0.1129
  413SOL     OW 1489   1.615   1.622   2.263 -0.0846  0.3280 -0.3261
  413SOL    HW1 1490   1.636   1.715   2.263 -2.1371  0.8452 -0.2347
  413SOL    HW2 1491   1.527   1.617   2.225 -0.6944 -1.3861  1.1279
  414SOL     OW 1492   0.611   2.714   2.028  0.4049 -0.0390  0.6834
  414SOL    HW1 1493   0.636   2.675   1.944 -1.6719 -1.5647  0.6736
  414SOL    HW2 1494   0.678   2.779   2.045  0.8719  0.3947 -2.2088
  415SOL     OW 1495   3.574   6.224   5.748  0.0886  0.1888 -0.6047
  415SOL    HW1 1496   3.533   6.306   5.774  0.1082  0.3368 -1.0415
  415SOL    HW2 1497   3.604   6.238   5.659  0.4632 -0.1571 -0.5374
  416SOL     OW 1498   0.269   2.677   1.701  0.4737 -0.3522 -0.3268
  416SOL    HW1 1499   0.320   2.758   1.703  1.0106 -0.6363 -1.7653
  416SOL    HW2 1500   0.212   2.686   1.625  1.0762 -1.6208 -0.9693
  417SOL     OW 1501   3.501   5.454   3.577  0.0486  0.7621  0.1696
  417SOL    HW1 1502   3.593   5.431   3.564  0.1687  1.0835  0.4531
  417SOL    HW2 1503   3.453   5.388   3.527  0.4037  0.0243  0.7761
  418SOL     OW 1504   1.781   5.105   0.590 -0.5931  0.0794 -0.0634
  418SOL    HW1 1505   1.732   5.034   0.548 -1.7883  0.3464  0.8302
  418SOL    HW2 1506   1.784   5.081   0.682  2.4773 -0.7721 -0.2629
  419SOL     OW 1507   1.317   1.747   4.251  0.1741 -0.0912 -0.2285
  419SOL    HW1 1508   1.318   1.839   4.279 -0.9949  0.1963 -1.0612
  419SOL    HW2 1509   1.316   1.751   4.156 -1.8365 -0.9021 -0.2888
  420SOL     OW 1510   2.829   3.616   2.352  0.3589 -0.3295 -0.0193
  420SOL    HW1 1511   2.782   3.534   2.372  0.7198 -0.2306  1.3208
  420SOL    HW2 1512   2.845   3.656   2.438  2.3260 -0.0371 -0.4746
  421SOL     OW 1513   3.192   1.138   1.854 -0.8034 -0.0604 -0.5947
  421SOL    HW1 1514   3.185   1.132   1.949 -0.3584  1.7118 -0.4271
  421SOL    HW2 1515   3.244   1.216   1.838 -0.1839 -0.7609 -2.2915
  422SOL     OW 1516   2.007   5.179   6.318 -0.5104  0.4259  0.4699
  422SOL    HW1 1517   2.071   5.111   6.339 -1.2282 -0.4482 -0.0704
  422SOL    HW2 1518   1.999   5.175   6.223 -0.0402  1.7785  0.3531
  423SOL     OW 1519   3.822   3.311   1.001  0.1609  0.3537  0.2781
  423SOL    HW1 1520   3.729   3.318   1.020  0.3495  2.2417  0.6971
  423SOL    HW2 1521   3.833   3.354   0.916  0.2752 -2.4513 -1.2708
  424SOL     OW 1522   4.568   3.303   0.308 -0.3022  0.7242 -0.6009
  424SOL    HW1 1523   4.538   3.217   0.338 -1.5426  1.3519  0.0383
  424SOL    HW2 1524   4.561   3.298   0.212 -2.1119  0.6834 -0.5052
  425SOL     OW 1525   0.209   4.703   4.725  0.2964  0.0032 -0.1171
  425SOL    HW1 1526   0.204   4.782   4.672 -0.6303  0.0354  0.0045
  425SOL    HW2 1527   0.161   4.724   4.804 -1.5363 -1.2484 -0.8274
  426SOL     OW 1528   1.200   1.331   1.463 -0.1627  0.3947 -0.1508
  426SOL    HW1 1529   1.248   1.251   1.441  2.3763  1.5357  0.9417
  426SOL    HW2 1530   1.225   1.393   1.394  0.6157  1.2455  0.8734
  427SOL     OW 1531   0.076   5.475   2.274 -0.2564 -0.6042 -0.4773
  427SOL    HW1 1532   0.009   5.542   2.259 -0.3245 -0.8293 -1.2078
  427SOL    HW2 1533   0.086   5.431   2.189  1.7920  0.3095 -0.7589
  428SOL     OW 1534   0.579   1.152   1.369  0.3055 -0.3163 -0.2117
  428SOL    HW1 1535   0.604   1.156   1.462 -0.5984 -0.9784  0.0718
  428SOL    HW2 1536   0.490   1.117   1.369 -0.8178  2.2488 -1.1677
  429SOL     OW 1537   5.300   0.617   6.118  0.0773  0.4576 -1.1112
  429SOL    HW1 1538   5.381   0.595   6.073  0.8129 -0.3728  0.5393
  429SOL    HW2 1539   5.307   0.710   6.138 -0.1273  0.7655 -2.4021
  430SOL     OW 1540   2.520   2.162   1.991  0.5239  0.5109  0.4194
  430SOL    HW1 1541   2.439   2.141   1.943  1.0222 -0.2609 -0.1106
  430SOL    HW2 1542   2.546   2.248   1.958 -0.3372  0.9903  0.9538
  431SOL     OW 1543   2.703   1.650   2.308 -0.2927 -0.5413 -0.4839
  431SOL    HW1 1544   2.761   1.605   2.246  0.7546  0.3389 -0.1918
  431SOL    HW2 1545   2.641   1.698   2.253  0.4041 -0.0509 -0.8595
  432SOL     OW 1546   2.864   3.381   6.331 -0.8505  0.7179 -0.0447
  432SOL    HW1 1547   2.904   3.453   6.283  0.1076  0.2695  0.0639
  432SOL    HW2 1548   2.919   3.305   6.312 -0.8773  0.3662  1.1579
  433SOL     OW 1549   1.963   1.679   2.342 -0.6824 -0.2539 -0.5698
  433SOL    HW1 1550   1.927   1.601   2.300 -3.2213  0.1900  0.5961
  433SOL    HW2 1551   2.039   1.648   2.391 -0.5564 -1.6268 -1.5888
  434SOL     OW 1552   4.660   2.980   1.332 -0.9458  0.0696  0.1793
  434SOL    HW1 1553   4.659   3.019   1.419 -0.1541  2.7543 -0.9283
  434SOL    HW2 1554   4.586   3.020   1.287 -1.6644 -1.6802 -0.3002
  435SOL     OW 1555   1.462   0.321   3.760 -0.1954 -0.3651 -0.3015
  435SOL    HW1 1556   1.389   0.358   3.809  0.4336 -0.0353  0.4048
  435SOL    HW2 1557   1.439   0.336   3.668 -0.7693  0.1987 -0.0735
  436SOL     OW 1558   4.799   1.561   0.197  0.1553 -0.4438 -0.4408
  436SOL    HW1 1559   4.831   1.573   0.107  1.5888  2.7505  0.3639
  436SOL    HW2 1560   4.876   1.575   0.252 -0.8314 -1.6516  1.3669
  437SOL     OW 1561   5.909   0.319   4.319 -0.3806 -0.0918  0.5057
  437SOL    HW1 1562   5.820   0.290   4.296 -0.4735  0.7823 -0.2834
  437SOL    HW2 1563   5.960   0.305   4.239 -0.3004  1.3681  0.2845
  438SOL     OW 1564   0.292   1.150   0.518  0.2202  0.1727  0.6600
  438SOL    HW1 1565   0.323   1.161   0.428  0.4926  0.2792  0.7648
  438SOL    HW2 1566   0.204   1.187   0.518 -0.2893 -0.9881  0.1334
  439SOL     OW 1567   0.953   2.285   2.051  0.2356  0.0852  0.5227
  439SOL    HW1 1568   0.967   2.351   1.982 -0.8062  0.8197  0.9837
  439SOL    HW2 1569   0.867   2.306   2.086 -0.4068 -1.9434  0.2699
  440SOL     OW 1570   1.006   5.787   1.304 -0.5942 -0.0639 -0.6419
  440SOL    HW1 1571   0.968   5.848   1.366  1.3070  0.7290 -0.1750
  440SOL    HW2 1572   0.988   5.700   1.341 -1.0468  0.3305  0.0744
  441SOL     OW 1573   0.538   4.121   2.424 -0.1656  0.0813  0.0239
  441SOL    HW1 1574   0.522   4.048   2.483  0.8806 -0.1098  0.0807
  441SOL    HW2 1575   0.624   4.154   2.448 -0.3191  0.8834 -0.4771
  442SOL     OW 1576   2.012   0.388   2.166 -0.0373 -0.2384 -0.4776
  442SOL    HW1 1577   2.050   0.370   2.081 -0.7504  0.3903 -0.9480
  442SOL    HW2 1578   1.921   0.411   2.147 -0.1942 -0.0423  0.4442
  443SOL     OW 1579   0.785   5.485   3.809 -0.5921  0.4559  0.2295
  443SOL    HW1 1580   0.772   5.560   3.751  2.5295  1.8121  1.0496
  443SOL    HW2 1581   0.828   5.419   3.754 -1.3826  0.1012  0.0292
  444SOL     OW 1582   4.588   0.105   3.749  0.0251  0.3500 -0.0923
  444SOL    HW1 1583   4.562   0.197   3.752 -0.0433  0.2994  0.9308
  444SOL    HW2 1584   4.636   0.098   3.666  0.8527  1.5298  0.2500
  445SOL     OW 1585   1.010   0.223   0.622 -0.3424 -0.4320  0.0946
  445SOL    HW1 1586   1.054   0.156   0.675  0.2978 -1.1774 -1.3299
  445SOL    HW2 1587   0.939   0.177   0.577 -0.5506  0.0712 -0.1070
  446SOL     OW 1588   5.116   3.712   5.103 -0.4822  0.5388 -0.0956
  446SOL    HW1 1589   5.166   3.631   5.095 -2.1384 -0.4303 -1.2859
  446SOL    HW2 1590   5.091   3.716   5.195  0.9748  0.5884  0.3301
  447SOL     OW 1591   2.371   0.242   1.923  0.3392  0.1796 -0.5965
  447SOL    HW1 1592   2.277   0.260   1.928  0.3162 -0.3009  1.1329
  447SOL    HW2 1593   2.407   0.273   2.006  1.5458 -0.6573 -0.7718
  448SOL     OW 1594   4.191   2.996   1.661 -0.7624 -0.4423  0.7133
  448SOL    HW1 1595   4.191   3.032   1.750  1.1683  1.7296 -0.0668
  448SOL    HW2 1596   4.214   3.070   1.605  0.7021 -2.3182 -1.3343
  449SOL     OW 1597   4.490   4.205   1.687  0.0020 -0.7309  0.1730
  449SOL    HW1 1598   4.518   4.292   1.658  1.0268 -1.3456 -0.7979
  449SOL    HW2 1599   4.499   4.151   1.609  0.0647 -1.8611  0.9447
  450SOL     OW 1600   0.467   1.340   0.948  0.0149  0.7530 -0.0718
  450SOL    HW1 1601   0.485   1.266   1.006  0.9409  0.9318 -0.1216
  450SOL    HW2 1602   0.446   1.300   0.863 -4.1961  0.3118  0.9461
  451SOL     OW 1603   2.418   1.341   1.337 -0.2315  0.0356 -0.1472
  451SOL    HW1 1604   2.448   1.422   1.297 -0.1146  0.0382 -0.0530
  451SOL    HW2 1605   2.323   1.349   1.340 -0.1546  0.6035  0.8086
  452SOL     OW 1606   0.619   6.034   3.240  0.3669  0.3797  0.2340
  452SOL    HW1 1607   0.687   6.045   3.173 -0.3544 -2.7597 -1.1922
  452SOL    HW2 1608   0.666   6.003   3.317  0.8027  0.3759 -0.0303
  453SOL     OW 1609   2.535   1.981   5.657 -0.1387  0.0743  0.2960
  453SOL    HW1 1610   2.626   1.980   5.688  0.2622  2.0226 -0.6775
  453SOL    HW2 1611   2.482   1.980   5.737  0.7394 -0.6127  0.8798
  454SOL     OW 1612   1.007   4.548   5.151 -0.5245  0.9682  0.3527
  454SOL    HW1 1613   0.958   4.476   5.190 -0.6587  0.1932 -1.1638
  454SOL    HW2 1614   1.077   4.566   5.213 -2.4151  1.8370  2.4087
  455SOL     OW 1615   3.714   5.357   2.327  0.2895  0.5382 -0.1768
  455SOL    HW1 1616   3.727   5.271   2.286 -0.4012  0.0029  0.6853
  455SOL    HW2 1617   3.783   5.412   2.290  0.8347 -0.4298 -0.6339
  456SOL     OW 1618   2.170   0.477   0.341  0.5662  0.3711 -0.2596
  456SOL    HW1 1619   2.118   0.470   0.421  1.9573  1.1117  0.7654
  456SOL    HW2 1620   2.197   0.388   0.321  1.2575  0.3125  0.8560
  457SOL     OW 1621   1.653   4.909   0.423  0.3950 -0.4232  0.1470
  457SOL    HW1 1622   1.660   4.978   0.358 -1.4661  0.8689  1.2210
  457SOL    HW2 1623   1.687   4.831   0.379 -1.3218  0.2403 -2.5723
  458SOL     OW 1624   2.501   3.256   4.799  0.0157  0.0732 -0.0385
  458SOL    HW1 1625   2.566   3.319   4.771  0.2872 -0.6167 -1.0185
  458SOL    HW2 1626   2.443   3.246   4.723 -0.6093 -0.0995  0.4550
  459SOL     OW 1627   4.439   5.547   2.266 -0.0821 -0.9374  0.1139
  459SOL    HW1 1628   4.387   5.618   2.303  0.5524  0.0018 -0.7351
  459SOL    HW2 1629   4.463   5.578   2.179  1.6902 -1.4272  0.3823
  460SOL     OW 1630   2.852   4.885   1.702  0.0399 -0.0784 -0.1115
  460SOL    HW1 1631   2.794   4.918   1.770  0.7206  0.4842  0.2049
  460SOL    HW2 1632   2.862   4.792   1.722  1.6343  0.3964  1.6460
  461SOL     OW 1633   3.188   6.174   0.789  0.1465 -0.2607  0.4216
  461SOL    HW1 1634   3.207   6.153   0.880  1.0584 -1.8730 -0.1017
  461SOL    HW2 1635   3.117   6.238   0.793 -1.4631 -2.0230  2.2184
  462SOL     OW 1636   2.874   3.470   1.205 -0.2932 -0.4317  0.2368
  462SOL    HW1 1637   2.849   3.491   1.115  0.5228 -1.0124 -0.1367
  462SOL    HW2 1638   2.834   3.540   1.257 -0.8776 -0.1526 -0.5570
  463SOL     OW 1639   1.914   3.424   4.120 -0.0741 -0.1641 -1.0566
  463SOL    HW1 1640   1.965   3.495   4.158  0.4679 -0.8596 -0.4379
  463SOL    HW2 1641   1.976   3.375   4.067  0.0293 -1.2195 -0.0241
  464SOL     OW 1642   0.067   1.314   5.097 -0.0225  0.0676 -0.3684
  464SOL    HW1 1643   0.000   1.380   5.078 -0.6173 -0.6569 -0.8024
  464SOL    HW2 1644   0.036   1.270   5.176  0.0954 -0.0711 -0.3978
  465SOL     OW 1645   5.074   2.235   2.750 -0.1718 -0.3528 -0.3320
  465SOL    HW1 1646   5.088   2.291   2.674 -0.5633  1.6116  0.9753
  465SOL    HW2 1647   5.061   2.148   2.713 -0.2856  0.5134 -2.4941
  466SOL     OW 1648   4.242   4.038   2.869 -0.3581  0.2687  0.0443
  466SOL    HW1 1649   4.235   4.133   2.864 -1.0746  0.2006 -0.3247
  466SOL    HW2 1650   4.292   4.014   2.791  2.3086  0.5564  1.5339
  467SOL     OW 1651   4.483   5.509   0.335 -0.1745  0.3519 -0.0078
  467SOL    HW1 1652   4.436   5.507   0.418 -1.4329 -0.2623 -0.7003
  467SOL    HW2 1653   4.463   5.424   0.295 -0.6612  1.1381 -1.4997
  468SOL     OW 1654   3.568   2.473   4.333  0.6881 -0.1910  0.2729
  468SOL    HW1 1655   3.519   2.537   4.384  1.8988  1.1372 -0.1491
  468SOL    HW2 1656   3.505   2.438   4.270 -0.1958 -0.0185  1.0439
  469SOL     OW 1657   2.606   0.148   5.864 -0.1318  0.3517 -0.4726
  469SOL    HW1 1658   2.534   0.166   5.924  0.6879 -1.3871  1.1203
  469SOL    HW2 1659   2.563   0.116   5.785 -1.1560  1.0760 -0.2379
  470SOL     OW 1660   4.744   0.475   5.679  0.1343  0.0294  0.1117
  470SOL    HW1 1661   4.772   0.567   5.686  1.4639 -0.4331  1.2993
  470SOL    HW2 1662   4.826   0.426   5.667 -0.6284 -0.9462 -1.3893
  471SOL     OW 1663   6.144   5.781   5.976 -0.4108 -0.2347  0.5538
  471SOL    HW1 1664   6.144   5.711   5.911  0.4111  0.2932 -0.0319
  471SOL    HW2 1665   6.059   5.823   5.968 -1.0909 -1.4271  1.2140
  472SOL     OW 1666   3.448   5.736   0.062 -0.2742 -0.3343 -0.4654
  472SOL    HW1 1667   3.508   5.735  -0.012  0.7211  2.2065  0.1948
  472SOL    HW2 1668   3.478   5.664   0.118  1.5366  0.2357 -0.6376
  473SOL     OW 1669   5.387   0.834   1.822  0.1259  0.1029  0.5855
  473SOL    HW1 1670   5.302   0.791   1.836  0.1547 -0.0045  0.4316
  473SOL    HW2 1671   5.429   0.832   1.908 -0.0533  0.2108  0.6755
  474SOL     OW 1672   1.423   5.707   0.541 -0.4810 -0.4469  0.1988
  474SOL    HW1 1673   1.455   5.700   0.631  0.3018  0.7560  0.0458
  474SOL    HW2 1674   1.338   5.750   0.549 -0.6524 -0.8146  0.3906
  475SOL     OW 1675   2.743   0.518   5.526  0.1586  0.2595  0.6239
  475SOL    HW1 1676   2.813   0.474   5.574 -0.4630 -1.8369 -0.2987
  475SOL    HW2 1677   2.663   0.496   5.574 -0.2602 -0.3367 -0.3343
  476SOL     OW 1678   2.134   0.442   3.515 -0.4418 -0.2187 -0.1430
  476SOL    HW1 1679   2.100   0.437   3.604 -1.1020 -1.2854 -0.4453
  476SOL    HW2 1680   2.122   0.534   3.489 -0.7767 -0.0392  0.6502
  477SOL     OW 1681   3.928   4.341   3.908 -0.8915 -0.0216 -0.3429
  477SOL    HW1 1682   3.957   4.430   3.888 -1.9324  0.2873 -0.5777
  477SOL    HW2 1683   3.930   4.295   3.824  1.1426 -0.7071  0.0309
  478SOL     OW 1684   5.622   4.291   2.430  0.2356  0.8005  0.1788
  478SOL    HW1 1685   5.690   4.265   2.367  1.3751 -0.3067  1.7697
  478SOL    HW2 1686   5.594   4.377   2.401  0.4163  0.1750 -2.0599
  479SOL     OW 1687   0.480   4.868   2.461  0.4680 -0.0176  0.1971
  479SOL    HW1 1688   0.518   4.911   2.385 -0.2645  0.9591  0.3625
  479SOL    HW2 1689   0.393   4.907   2.470  0.6511  0.1102  1.6963
  480SOL     OW 1690   1.645   5.552   4.263 -0.3160 -0.3090 -0.1317
  480SOL    HW1 1691   1.619   5.489   4.195  0.7037 -0.5868 -0.2767
  480SOL    HW2 1692   1.677   5.628   4.214 -0.2138 -0.2403  0.0433
  481SOL     OW 1693   4.687   4.625   0.778 -0.6180  0.1207 -0.3341
  481SOL    HW1 1694   4.747   4.586   0.714  1.4559 -0.7985  2.0115
  481SOL    HW2 1695   4.629   4.554   0.803  0.5945 -0.4430  1.0171
  482SOL     OW 1696   2.766   1.213   1.132  0.1653  0.3386  0.8050
  482SOL    HW1 1697   2.730   1.126   1.112  0.9233 -0.0500  1.0958
  482SOL    HW2 1698   2.814   1.237   1.052 -1.0979  1.0724  0.2267
  483SOL     OW 1699   4.257   3.236   1.555  0.3024 -0.0075 -0.4734
  483SOL    HW1 1700   4.171   3.266   1.526  0.2455  0.1923 -0.0988
  483SOL    HW2 1701   4.300   3.314   1.590  0.4583 -0.1991 -0.2324
  484SOL     OW 1702   4.349   3.941   2.639  0.1961  0.5213 -0.1553
  484SOL    HW1 1703   4.364   4.017   2.583  0.7925  1.0764  0.7333
  484SOL    HW2 1704   4.255   3.925   2.634  0.3057  0.2631 -1.6837
  485SOL     OW 1705   0.260   0.162   4.250  0.2223  0.2398  0.1045
  485SOL    HW1 1706   0.291   0.130   4.334  1.7898 -0.3268 -0.6472
  485SOL    HW2 1707   0.264   0.085   4.192  0.3802  0.8972 -0.7807
  486SOL     OW 1708   1.178   4.705   2.705  0.0654  0.1471 -0.0592
  486SOL    HW1 1709   1.237   4.708   2.781 -0.4855  0.2535  0.3773
  486SOL    HW2 1710   1.113   4.639   2.729 -0.4981  0.6624 -0.1473
  487SOL     OW 1711   5.137   5.774   0.914  0.6953 -0.0950 -0.3239
  487SOL    HW1 1712   5.135   5.679   0.926  0.0971 -0.2891 -1.7173
  487SOL    HW2 1713   5.176   5.787   0.827  0.6357  0.9143 -0.2146
  488SOL     OW 1714   1.574   5.421   4.505  0.0608  0.0775  0.0579
  488SOL    HW1 1715   1.598   5.469   4.426 -3.3987 -1.3473 -2.1002
  488SOL    HW2 1716   1.612   5.334   4.493  0.8297  0.3068  0.7632
  489SOL     OW 1717   0.472   1.873   2.807 -0.1809 -0.1412 -0.3234
  489SOL    HW1 1718   0.511   1.886   2.894 -1.2911  1.1852  0.0190
  489SOL    HW2 1719   0.523   1.801   2.768  0.8691 -0.2132  1.0925
  490SOL     OW 1720   1.826   6.133   0.983 -0.7324  0.3722  0.3298
  490SOL    HW1 1721   1.793   6.052   0.944  0.0078 -0.0682  0.5826
  490SOL    HW2 1722   1.915   6.141   0.949 -0.5323  0.6738  0.9114
  491SOL     OW 1723   1.070   2.853   3.237  0.6537  0.4699 -0.0358
  491SOL    HW1 1724   1.091   2.781   3.297  1.5657 -0.7986 -1.7765
  491SOL    HW2 1725   1.133   2.922   3.258  2.3666 -0.7710 -0.8689
  492SOL     OW 1726   1.319   3.443   0.986 -0.0383  0.7521 -0.2227
  492SOL    HW1 1727   1.318   3.422   0.893 -0.9181  2.4050 -0.6257
  492SOL    HW2 1728   1.386   3.512   0.995  2.5189 -1.6862  0.9862
  493SOL     OW 1729   3.412   1.286   3.093 -0.0572  0.1345 -0.1361
  493SOL    HW1 1730   3.455   1.366   3.064 -0.1668  0.6198  0.9655
  493SOL    HW2 1731   3.392   1.238   3.013  2.9662 -0.3725 -0.7130
  494SOL     OW 1732   0.113   3.653   5.979  0.1670 -0.3255 -0.3169
  494SOL    HW1 1733   0.070   3.702   6.049 -0.5798 -1.1779 -0.1554
  494SOL    HW2 1734   0.204   3.682   5.982  0.1556 -0.3670  1.0355
  495SOL     OW 1735   2.444   3.942   1.980 -0.4637  0.0773  0.5431
  495SOL    HW1 1736   2.478   3.896   2.057 -0.8711  0.7951  1.1666
  495SOL    HW2 1737   2.352   3.916   1.975  0.0473 -1.5739 -0.9241
  496SOL     OW 1738   5.284   3.501   2.712  0.1811  0.1861  0.0998
  496SOL    HW1 1739   5.231   3.514   2.633 -0.5616 -0.1021  0.5370
  496SOL    HW2 1740   5.265   3.412   2.740 -0.4611  0.6530  1.2397
  497SOL     OW 1741   1.628   1.224   3.210 -0.0032  0.7342  1.0214
  497SOL    HW1 1742   1.633   1.129   3.198 -0.5193  0.6097  1.7321
  497SOL    HW2 1743   1.707   1.258   3.168  0.1009  0.0087  0.6113
  498SOL     OW 1744   5.684   0.729   4.400  0.0914 -0.2732  0.3731
  498SOL    HW1 1745   5.666   0.798   4.337 -1.4219 -0.2826  0.7509
  498SOL    HW2 1746   5.770   0.695   4.375  0.7970  1.6031  0.0720
  499SOL     OW 1747   4.547   3.856   3.824  0.0909  0.4544 -1.1013
  499SOL    HW1 1748   4.569   3.866   3.917 -0.1196  3.1180 -1.2776
  499SOL    HW2 1749   4.594   3.777   3.797  1.5009  0.5537  0.8538
  500SOL     OW 1750   4.165   1.744   4.619  0.0864 -0.5235  0.4309
  500SOL    HW1 1751   4.255   1.759   4.590  0.5403 -1.9533  1.0072
  500SOL    HW2 1752   4.150   1.811   4.686  0.3657  0.3491 -0.3634
  501SOL     OW 1753   1.817   0.132   3.121 -0.4063 -0.3537  0.0213
  501SOL    HW1 1754   1.854   0.181   3.048  0.6834 -0.5806  0.3978
  501SOL    HW2 1755   1.724   0.155   3.121 -0.0164  1.3904 -0.0809
  502SOL     OW 1756   3.319   5.069   4.188  0.2451 -0.0616  0.1044
  502SOL    HW1 1757   3.364   5.048   4.106  1.2875 -0.8023  0.8367
  502SOL    HW2 1758   3.317   4.985   4.236 -0.4813  0.3235  0.7707
  503SOL     OW 1759   2.275   5.440   3.330  0.0712  0.5942  0.0700
  503SOL    HW1 1760   2.185   5.468   3.313 -0.2453 -0.7836 -0.6518
  503SOL    HW2 1761   2.322   5.461   3.249  0.1870  0.4378  0.0963
  504SOL     OW 1762   6.010   1.453   5.242  0.3857 -0.5979 -0.7327
  504SOL    HW1 1763   6.037   1.367   5.276 -0.8058 -0.4138  0.7506
  504SOL    HW2 1764   6.064   1.516   5.289  0.6723 -0.4661 -1.2216
  505SOL     OW 1765   5.544   1.958   3.096  0.2047 -0.2575  0.1578
  505SOL    HW1 1766   5.482   2.030   3.103 -0.8475 -0.8474 -1.9974
  505SOL    HW2 1767   5.619   1.986   3.148  0.3321  2.9400 -1.4718
  506SOL     OW 1768   1.221   4.534   5.317 -0.2180  0.1166 -0.6050
  506SOL    HW1 1769   1.182   4.563   5.400  1.4147 -2.4517  1.1975
  506SOL    HW2 1770   1.237   4.441   5.329  3.1778  0.2953 -2.5103
  507SOL     OW 1771   3.428   4.434   5.107 -0.0111  0.2341  0.1253
  507SOL    HW1 1772   3.377   4.471   5.178 -0.3140  1.9026 -0.9195
  507SOL    HW2 1773   3.516   4.471   5.119 -0.5959  2.3633 -1.5952
  508SOL     OW 1774   4.914   4.449   6.100 -0.4635  1.1837 -0.3906
  508SOL    HW1 1775   4.865   4.367   6.107  1.2545 -0.0940 -2.2287
  508SOL    HW2 1776   4.925   4.478   6.191 -1.1584 -0.5999  0.3096
  509SOL     OW 1777   1.989   2.210   1.940  0.0713 -0.2898  0.2194
  509SOL    HW1 1778   1.969   2.255   2.021  0.9544  0.8150 -0.1472
  509SOL    HW2 1779   2.058   2.263   1.899 -0.8116 -0.4314 -1.5658
  510SOL     OW 1780   1.524   3.406   1.993  0.0275  0.2473  0.6831
  510SOL    HW1 1781   1.445   3.390   1.942 -0.0709  0.8346  0.6479
  510SOL    HW2 1782   1.523   3.339   2.061 -0.9176  0.7306  1.1670
  511SOL     OW 1783   2.818   2.778   1.546 -0.3582  0.1404 -0.7986
  511SOL    HW1 1784   2.896   2.821   1.514 -1.2479  0.7458 -2.2279
  511SOL    HW2 1785   2.748   2.843   1.535 -0.9515 -0.0639  1.2360
  512SOL     OW 1786   6.163   3.891   5.030 -0.1096  0.1015  0.2355
  512SOL    HW1 1787   6.096   3.836   4.989  1.3109 -0.9221 -0.8097
  512SOL    HW2 1788   6.193   3.841   5.105 -0.6784  0.6853  0.8672
  513SOL     OW 1789   2.253   5.655   1.209 -0.0699 -0.6610 -0.3823
  513SOL    HW1 1790   2.263   5.749   1.190  2.0273 -0.8597 -0.5695
  513SOL    HW2 1791   2.217   5.652   1.297 -3.2296  0.2819 -1.5102
  514SOL     OW 1792   4.542   3.139   3.921 -0.3308 -0.1173 -0.1938
  514SOL    HW1 1793   4.615   3.079   3.935 -0.2156 -0.0461 -0.4885
  514SOL    HW2 1794   4.521   3.173   4.008  0.8899  0.9306 -0.2878
  515SOL     OW 1795   4.114   1.384   2.161  0.3324 -0.1179 -0.4272
  515SOL    HW1 1796   4.049   1.452   2.144 -0.0200 -0.5237 -0.7455
  515SOL    HW2 1797   4.118   1.334   2.079 -1.2917 -2.0317  0.5559
  516SOL     OW 1798   2.467   4.299   5.757 -0.2247 -0.4042  0.3625
  516SOL    HW1 1799   2.424   4.384   5.765  1.6557  0.7294 -0.6943
  516SOL    HW2 1800   2.445   4.269   5.669  0.2257 -0.3427  0.2256
  517SOL     OW 1801   4.752   0.662   3.191 -0.4085 -0.0802  0.5271
  517SOL    HW1 1802   4.812   0.698   3.126  0.1727 -1.6188  0.1587
  517SOL    HW2 1803   4.671   0.712   3.179  0.9565  2.5524  1.5306
  518SOL     OW 1804   5.606   3.381   1.234  1.0890  0.8586 -0.0589
  518SOL    HW1 1805   5.594   3.455   1.174  0.9744  0.6222 -0.3262
  518SOL    HW2 1806   5.578   3.415   1.319 -1.5760  0.3293 -0.6452
  519SOL     OW 1807   5.610   4.578   2.385 -0.4447 -0.4631 -0.0900
  519SOL    HW1 1808   5.533   4.634   2.399  0.5184  1.2799 -1.4144
  519SOL    HW2 1809   5.642   4.559   2.473 -0.6632  1.3029  0.4076
  520SOL     OW 1810   1.476   2.829   4.124 -0.0365  0.5379  0.0343
  520SOL    HW1 1811   1.496   2.739   4.100  0.2066  0.1299  1.6980
  520SOL    HW2 1812   1.413   2.822   4.195  0.1728  1.6754  0.3528
  521SOL     OW 1813   3.934   1.559   2.389 -0.5524  0.3234  0.3077
  521SOL    HW1 1814   3.918   1.621   2.460  2.0033 -0.2926  1.5255
  521SOL    HW2 1815   3.937   1.613   2.310 -1.4209  1.2892  0.9063
  522SOL     OW 1816   4.450   2.278   1.825 -0.0817 -0.2563 -0.3428
  522SOL    HW1 1817   4.507   2.347   1.792  0.3629 -0.7458 -0.6276
  522SOL    HW2 1818   4.509   2.220   1.873 -0.4494 -0.4247 -0.0945
  523SOL     OW 1819   2.040   6.340   6.107  0.3321 -0.1846 -0.0120
  523SOL    HW1 1820   2.043   6.249   6.136 -1.0607 -0.0433  0.6870
  523SOL    HW2 1821   2.130   6.362   6.085  1.2143 -0.8328  2.6487
  524SOL     OW 1822   6.162   1.543   3.246 -0.0157 -0.0602 -0.1120
  524SOL    HW1 1823   6.155   1.453   3.213  1.1075 -0.1163 -0.2203
  524SOL    HW2 1824   6.256   1.558   3.257  0.1817  2.3854 -3.6577
  525SOL     OW 1825   3.292   2.052   1.058 -0.5566  0.1337  0.1048
  525SOL    HW1 1826   3.228   2.112   1.097  0.4750  0.6361  1.0780
  525SOL    HW2 1827   3.306   2.086   0.970 -0.1179  1.2432  0.5817
  526SOL     OW 1828   1.214   0.166   0.393 -0.2662 -0.0378 -0.1442
  526SOL    HW1 1829   1.131   0.168   0.345 -0.8808  0.8311  0.9052
  526SOL    HW2 1830   1.188   0.158   0.485  0.6653  2.6531  0.4418
  527SOL     OW 1831   3.285   3.228   1.087  0.2783 -0.2357  0.1196
  527SOL    HW1 1832   3.290   3.151   1.144  0.2546 -0.8224 -0.6633
  527SOL    HW2 1833   3.195   3.228   1.054  0.1127  0.4501  0.5536
  528SOL     OW 1834   4.794   1.487   3.220 -0.0526 -0.5215  0.0091
  528SOL    HW1 1835   4.767   1.525   3.304  0.2541  0.8028 -0.4673
  528SOL    HW2 1836   4.728   1.516   3.158  0.8161  0.2508 -0.5890
  529SOL     OW 1837   4.479   3.603   0.436  0.3735  0.3996  0.0458
  529SOL    HW1 1838   4.387   3.629   0.445  0.1906  0.1849 -1.0443
  529SOL    HW2 1839   4.528   3.676   0.475 -0.2382  0.8144  0.0582
  530SOL     OW 1840   1.009   0.006   3.650  0.5519 -0.2043 -0.7190
  530SOL    HW1 1841   1.090   0.012   3.600 -0.1956 -0.3238 -1.9942
  530SOL    HW2 1842   0.942   0.041   3.591 -0.6133 -1.7593 -0.3728
  531SOL     OW 1843   1.868   3.241   6.010  0.0495  0.3556  0.0282
  531SOL    HW1 1844   1.901   3.280   5.929 -0.8504 -0.0283 -0.5335
  531SOL    HW2 1845   1.937   3.259   6.075  0.6844  0.8472 -0.7645
  532SOL     OW 1846   2.917   1.837   6.059  0.4016  0.5464  0.1360
  532SOL    HW1 1847   2.975   1.909   6.084 -0.2016  1.3070 -0.6104
  532SOL    HW2 1848   2.846   1.879   6.010  0.1380 -0.5752 -0.4777
  533SOL     OW 1849   3.663   5.510   3.929  0.2440 -0.3240  0.4162
  533SOL    HW1 1850   3.639   5.418   3.935 -1.9941  0.2888  2.6019
  533SOL    HW2 1851   3.692   5.533   4.018  1.0582  1.0101 -0.1577
  534SOL     OW 1852   5.442   1.869   0.213  0.4628 -0.4512 -0.2547
  534SOL    HW1 1853   5.361   1.892   0.168 -1.1179 -1.9095  1.6677
  534SOL    HW2 1854   5.512   1.898   0.153 -1.4025  1.8448 -1.4842
  535SOL     OW 1855   3.572   1.220   5.577  0.2612 -0.5758  0.0397
  535SOL    HW1 1856   3.510   1.164   5.533 -0.0211 -2.9899  3.1416
  535SOL    HW2 1857   3.521   1.297   5.604 -0.3070 -0.5873 -0.9738
  536SOL     OW 1858   0.750   4.106   3.369 -0.2747 -0.0516  0.0853
  536SOL    HW1 1859   0.702   4.153   3.301  1.2416  0.5543 -0.6197
  536SOL    HW2 1860   0.759   4.017   3.335  1.2116  0.4549 -0.9622
  537SOL     OW 1861   1.965   2.422   5.696 -0.5418 -0.1179  0.4568
  537SOL    HW1 1862   1.931   2.484   5.760 -0.5096 -1.0000  1.3464
  537SOL    HW2 1863   1.964   2.337   5.740 -0.9487 -0.8371 -0.8611
  538SOL     OW 1864   3.715   1.631   5.553  0.3037  0.1220 -0.6500
  538SOL    HW1 1865   3.706   1.569   5.625 -2.2176  0.6189 -0.4602
  538SOL    HW2 1866   3.669   1.590   5.480 -2.0431  1.9694 -0.3161
  539SOL     OW 1867   2.421   0.730   2.492 -0.6183  0.3124  0.0501
  539SOL    HW1 1868   2.332   0.706   2.466 -0.7263  0.2008  0.5154
  539SOL    HW2 1869   2.410   0.786   2.568 -0.3307  1.3331 -0.6480
  540SOL     OW 1870   5.801   2.013   3.249  0.5100  0.1815  0.4925
  540SOL    HW1 1871   5.765   2.102   3.248  1.8856  0.8578 -2.6300
  540SOL    HW2 1872   5.855   2.009   3.328 -0.6293  1.6380  1.3879
  541SOL     OW 1873   5.219   0.366   1.753  0.7326 -0.5302 -0.6058
  541SOL    HW1 1874   5.265   0.379   1.671  0.2460 -0.9731 -0.9546
  541SOL    HW2 1875   5.212   0.271   1.762 -1.7228 -0.4883 -1.4933
  542SOL     OW 1876   5.173   1.527   0.593 -0.5751 -0.4501  0.0516
  542SOL    HW1 1877   5.247   1.466   0.600 -0.5406 -0.2440  2.6586
  542SOL    HW2 1878   5.158   1.536   0.499  0.9068 -2.6692 -0.4935
  543SOL     OW 1879   2.234   4.825   0.222 -0.3318 -0.1864 -0.1295
  543SOL    HW1 1880   2.255   4.890   0.155  0.0821 -0.5460 -0.3620
  543SOL    HW2 1881   2.168   4.867   0.277  1.3589  1.2162  0.9338
  544SOL     OW 1882   0.345   1.961   5.956  0.9419 -0.8297  0.2828
  544SOL    HW1 1883   0.289   1.906   6.011  0.8292 -2.6134 -1.5115
  544SOL    HW2 1884   0.409   1.901   5.919 -1.0240 -0.5718 -4.2293
  545SOL     OW 1885   5.350   0.337   4.258  0.5036 -1.0301 -0.2770
  545SOL    HW1 1886   5.276   0.355   4.199  0.7036 -1.0898 -0.5482
  545SOL    HW2 1887   5.359   0.416   4.311  0.3134 -0.9819 -0.3155
  546SOL     OW 1888   0.237   4.637   4.078 -0.1227 -0.1916 -0.0736
  546SOL    HW1 1889   0.286   4.585   4.014  0.2603 -0.3884  0.3728
  546SOL    HW2 1890   0.164   4.581   4.104 -0.6068  0.1153 -0.7641
  547SOL     OW 1891   0.911   5.203   4.662  0.0042 -0.5659  0.7034
  547SOL    HW1 1892   0.918   5.156   4.745  1.1244  0.1610  1.0478
  547SOL    HW2 1893   0.972   5.276   4.670  0.6062 -0.8258 -1.0024
  548SOL     OW 1894   4.615   3.495   4.626  0.2085 -0.3171 -0.3921
  548SOL    HW1 1895   4.687   3.468   4.683  0.7753 -0.1340 -1.0107
  548SOL    HW2 1896   4.558   3.418   4.623  0.5766 -0.6025 -0.2052
  549SOL     OW 1897   0.949   5.871   1.053 -0.0523  0.1351  0.0334
  549SOL    HW1 1898   0.992   5.837   1.132 -1.2598  0.3001  0.7951
  549SOL    HW2 1899   0.872   5.918   1.086  0.3781  1.7277 -1.1426
  550SOL     OW 1900   4.425   4.926   0.132  0.0037 -0.6140 -0.2955
  550SOL    HW1 1901   4.395   4.844   0.093  0.1479 -0.6802 -0.2680
  550SOL    HW2 1902   4.345   4.969   0.160 -0.1077 -0.5072 -0.7788
  551SOL     OW 1903   2.855   2.327   0.214  0.2843  0.1685  0.5716
  551SOL    HW1 1904   2.919   2.398   0.218 -0.1809  0.5276  1.8911
  551SOL    HW2 1905   2.773   2.366   0.245 -0.1501 -0.7628  0.6337
  552SOL     OW 1906   4.606   2.448   5.587 -0.0024 -0.4204  0.8549
  552SOL    HW1 1907   4.565   2.383   5.529 -1.7465  1.2361  0.1202
  552SOL    HW2 1908   4.533   2.483   5.638  0.9353  0.7907  1.4044
  553SOL     OW 1909   2.612   4.053   6.271  0.5443  0.0193  0.0462
  553SOL    HW1 1910   2.697   4.073   6.232  0.0647  0.2875 -0.8787
  553SOL    HW2 1911   2.556   4.127   6.248  0.3580  0.4223  1.6415
  554SOL     OW 1912   2.481   1.857   4.238 -0.3543  0.2499 -0.0289
  554SOL    HW1 1913   2.390   1.831   4.230 -0.2564 -1.2242  2.5890
  554SOL    HW2 1914   2.478   1.940   4.285 -0.3605  0.9852 -1.2864
  555SOL     OW 1915   3.292   5.334   3.864  0.1858  0.1124  0.5626
  555SOL    HW1 1916   3.239   5.300   3.937 -0.6302 -1.3985 -0.6685
  555SOL    HW2 1917   3.234   5.398   3.821 -0.9987 -1.9721 -1.1420
  556SOL     OW 1918   5.421   5.165   0.685 -0.5418 -0.1298  0.0603
  556SOL    HW1 1919   5.482   5.229   0.721  1.1725 -0.8215 -1.4103
  556SOL    HW2 1920   5.465   5.133   0.606 -2.4902 -1.2583 -0.6281
  557SOL     OW 1921   3.052   2.518   4.480 -0.4354 -0.3833  0.4713
  557SOL    HW1 1922   3.065   2.571   4.559  0.0330 -0.4954  0.4760
  557SOL    HW2 1923   2.960   2.493   4.482 -0.7553  0.7596  0.2629
  558SOL     OW 1924   3.566   2.234   1.925  0.1094  0.1394  0.4492
  558SOL    HW1 1925   3.597   2.204   1.839  4.1392  0.5409  1.5417
  558SOL    HW2 1926   3.490   2.289   1.905  0.1196 -0.7572 -2.7005
  559SOL     OW 1927   4.719   5.975   6.006 -0.5356  0.2935  0.6674
  559SOL    HW1 1928   4.807   6.003   6.031  0.4469  0.2300 -2.2777
  559SOL    HW2 1929   4.671   6.057   5.994  0.2849  0.5591 -1.2418
  560SOL     OW 1930   4.353   3.895   5.592 -0.0130  0.3472  0.4128
  560SOL    HW1 1931   4.363   3.800   5.579 -0.8997  0.3883 -0.6997
  560SOL    HW2 1932   4.262   3.907   5.619 -0.9750  1.1298 -2.7567
  561SOL     OW 1933   4.994   3.754   3.489  0.5766 -0.2999  0.0231
  561SOL    HW1 1934   4.907   3.748   3.529 -0.5085 -1.5757 -2.3146
  561SOL    HW2 1935   5.020   3.845   3.503 -0.9086 -0.0056  1.1961
  562SOL     OW 1936   4.541   2.990   2.097 -0.1456 -0.3502  0.2411
  562SOL    HW1 1937   4.481   2.984   2.171  0.3233  0.5632  0.7080
  562SOL    HW2 1938   4.607   3.054   2.124  0.9849 -1.2313 -0.3043
  563SOL     OW 1939   4.143   1.523   5.056  0.1255  0.9278  0.2804
  563SOL    HW1 1940   4.063   1.549   5.101 -0.8517 -1.3565  0.0266
  563SOL    HW2 1941   4.124   1.540   4.963  0.5415  1.8111  0.3532
  564SOL     OW 1942   6.020   4.775   0.423 -0.1221 -0.6256  0.2533
  564SOL    HW1 1943   6.088   4.711   0.405  0.4885  0.1430 -0.2120
  564SOL    HW2 1944   6.065   4.848   0.465 -0.2673  0.7128 -1.7270
  565SOL     OW 1945   3.650   1.766   3.289  0.0939 -0.1277 -0.0443
  565SOL    HW1 1946   3.666   1.745   3.381  1.3086 -0.4119 -0.3122
  565SOL    HW2 1947   3.728   1.814   3.261 -0.5136  0.4542 -0.7796
  566SOL     OW 1948   3.901   3.283   2.842 -0.0163  0.0551  0.3859
  566SOL    HW1 1949   3.900   3.241   2.756  0.3008  0.4514  0.1866
  566SOL    HW2 1950   3.961   3.230   2.894 -0.5564 -0.4523  0.5055
  567SOL     OW 1951   5.013   1.768   0.542 -0.0918 -0.1759 -0.2066
  567SOL    HW1 1952   5.054   1.710   0.606  0.5170  0.4342 -0.0312
  567SOL    HW2 1953   4.968   1.834   0.596  0.3856  0.3142 -0.3956
  568SOL     OW 1954   4.792   4.421   3.034  0.8963  0.2620 -0.6495
  568SOL    HW1 1955   4.838   4.346   3.072 -1.6126 -0.9801  0.1659
  568SOL    HW2 1956   4.740   4.383   2.963 -0.5542  1.1533 -0.1142
  569SOL     OW 1957   4.486   0.711   3.551 -0.2499  0.3038 -0.4389
  569SOL    HW1 1958   4.514   0.782   3.492  0.6392  1.0307  0.8130
  569SOL    HW2 1959   4.394   0.730   3.568  0.4609  2.4153  1.4914
  570SOL     OW 1960   1.112   0.656   4.044 -0.2982  0.2416  0.4114
  570SOL    HW1 1961   1.187   0.688   4.094  0.4192  0.1706 -0.5855
  570SOL    HW2 1962   1.080   0.581   4.094  0.6253 -0.0473  0.5956
  571SOL     OW 1963   1.292   2.218   3.170 -1.0537 -0.4896 -0.0784
  571SOL    HW1 1964   1.283   2.313   3.167  1.3818 -0.1213  1.7078
  571SOL    HW2 1965   1.267   2.189   3.082 -0.3976  1.9388 -1.1544
  572SOL     OW 1966   1.953   3.858   1.058  0.5351  0.1448  0.2073
  572SOL    HW1 1967   1.878   3.826   1.108  1.2645 -0.4763  0.9337
  572SOL    HW2 1968   1.999   3.779   1.030  0.8306  0.5179 -0.3776
  573SOL     OW 1969   5.548   5.956   4.642 -0.1376  0.0855  0.0723
  573SOL    HW1 1970   5.603   6.003   4.580 -0.5981  1.0925  0.4061
  573SOL    HW2 1971   5.605   5.941   4.718  0.2091 -0.5030 -0.3012
  574SOL     OW 1972   5.530   4.590   2.916 -0.0891  0.3059  0.2187
  574SOL    HW1 1973   5.551   4.539   2.993 -0.4497  0.2090  0.2541
  574SOL    HW2 1974   5.547   4.532   2.842 -0.8173  0.0121  0.2708
  575SOL     OW 1975   4.392   5.360   4.061 -0.0238 -0.6038 -0.1884
  575SOL    HW1 1976   4.381   5.414   4.140  2.0330 -1.5766  0.8451
  575SOL    HW2 1977   4.332   5.287   4.074  1.1459 -1.3868  1.1275
  576SOL     OW 1978   1.430   5.811   6.248  0.0972 -0.2769 -0.1270
  576SOL    HW1 1979   1.505   5.844   6.298 -0.2502  0.7758 -0.2667
  576SOL    HW2 1980   1.466   5.742   6.193  0.8769 -0.0856  0.1333
  577SOL     OW 1981   0.180   1.912   4.310 -0.1299  0.1245 -0.1602
  577SOL    HW1 1982   0.182   1.893   4.217  3.1948  2.5101 -0.7699
  577SOL    HW2 1983   0.223   1.837   4.351  2.0086  0.7571 -1.1010
  578SOL     OW 1984   3.215   0.642   5.333  0.0931  0.3759 -0.8814
  578SOL    HW1 1985   3.293   0.596   5.365  0.2792  0.9161 -0.5633
  578SOL    HW2 1986   3.162   0.573   5.293 -0.9502 -0.6505  2.0254
  579SOL     OW 1987   2.522   4.523   1.836  0.1831  0.1686  0.3159
  579SOL    HW1 1988   2.572   4.552   1.760  0.8414  1.6536  1.2770
  579SOL    HW2 1989   2.487   4.437   1.810  1.2504  0.1649 -1.2537
  580SOL     OW 1990   3.031   3.408   2.947  0.3977  0.4327 -0.4490
  580SOL    HW1 1991   2.982   3.396   3.028  0.5826 -0.0288 -0.4020
  580SOL    HW2 1992   3.118   3.438   2.975  0.8289 -0.7842 -0.3912
  581SOL     OW 1993   1.591   3.795   2.067 -0.2036  0.0278 -0.0223
  581SOL    HW1 1994   1.522   3.817   2.005 -0.0843 -0.1181 -0.2088
  581SOL    HW2 1995   1.671   3.830   2.028  0.1430 -1.5011 -0.7773
  582SOL     OW 1996   2.139   0.807   6.331  0.2352  0.1453 -0.3372
  582SOL    HW1 1997   2.102   0.739   6.387 -3.1676  0.2261 -2.2121
  582SOL    HW2 1998   2.173   0.760   6.256  1.1155  0.3058 -0.0469
  583SOL     OW 1999   4.303   2.318   5.755  0.0856  0.2695 -0.0731
  583SOL    HW1 2000   4.371   2.252   5.742  0.1078 -0.4369  2.9412
  583SOL    HW2 2001   4.351   2.398   5.776  0.0165  1.0217 -2.4626
  584SOL     OW 2002   5.104   2.655   3.459  0.3029  0.3883 -0.3540
  584SOL    HW1 2003   5.054   2.613   3.528 -0.1204  0.5882 -0.5324
  584SOL    HW2 2004   5.179   2.693   3.503  0.8138 -0.7289 -0.2146
  585SOL     OW 2005   2.366   5.225   2.898  0.4260 -0.7159 -0.1691
  585SOL    HW1 2006   2.305   5.195   2.965  1.4186 -3.6818 -0.4304
  585SOL    HW2 2007   2.452   5.222   2.940  0.6550  1.9622 -0.2488
  586SOL     OW 2008   1.016   2.574   0.478  0.1004  0.5444 -0.1379
  586SOL    HW1 2009   1.005   2.662   0.512  1.1618  0.3413  0.7889
  586SOL    HW2 2010   1.028   2.586   0.383  2.6782  1.6524  0.2576
  587SOL     OW 2011   3.383   1.873   5.337  0.3461  0.1990 -0.0193
  587SOL    HW1 2012   3.322   1.915   5.397  0.3012  1.0266 -0.6328
  587SOL    HW2 2013   3.327   1.829   5.273  0.3942 -0.6778  0.5217
  588SOL     OW 2014   6.173   4.217   1.270  0.3797  0.5049 -0.2127
  588SOL    HW1 2015   6.123   4.294   1.244 -1.9557  0.1653  2.7230
  588SOL    HW2 2016   6.116   4.143   1.250  0.6203 -0.0835  1.1499
  589SOL     OW 2017   1.292   2.210   2.676  0.2495  0.2334 -0.0487
  589SOL    HW1 2018   1.267   2.247   2.591  0.7647 -0.6570 -0.6158
  589SOL    HW2 2019   1.275   2.116   2.666  0.1156  0.1490  0.9130
  590SOL     OW 2020   0.339   1.938   2.413 -0.1047  0.3021  0.2011
  590SOL    HW1 2021   0.401   1.889   2.359 -0.8177 -0.6063  0.1755
  590SOL    HW2 2022   0.390   2.010   2.449  0.3928  0.9459 -1.6780
  591SOL     OW 2023   0.664   0.349   1.854  0.2956  0.3624  0.0864
  591SOL    HW1 2024   0.572   0.324   1.857  0.4872 -0.2480  2.3682
  591SOL    HW2 2025   0.713   0.267   1.862  1.0253  0.8281  0.5627
  592SOL     OW 2026   1.233   2.720   5.779  0.4022 -0.4669  0.6745
  592SOL    HW1 2027   1.315   2.735   5.827  0.9612 -0.4178 -0.2772
  592SOL    HW2 2028   1.200   2.808   5.761  1.1636 -0.4365 -0.6521
  593SOL     OW 2029   5.674   5.078   0.959 -0.0488  0.6045  0.3588
  593SOL    HW1 2030   5.593   5.036   0.987 -0.3835  0.4239 -0.8451
  593SOL    HW2 2031   5.734   5.063   1.032 -0.8810  0.1267  0.9678
  594SOL     OW 2032   3.179   5.636   5.438  0.4054  0.2553  0.4516
  594SOL    HW1 2033   3.102   5.579   5.436  0.1709  0.5369 -1.8791
  594SOL    HW2 2034   3.165   5.693   5.514 -1.0749 -0.5111  0.7892
  595SOL     OW 2035   0.450   1.226   4.827 -0.0361 -0.3978  0.5252
  595SOL    HW1 2036   0.356   1.222   4.845  0.0710  0.9643  1.6341
  595SOL    HW2 2037   0.470   1.143   4.785 -2.1224  0.1154 -1.7351
  596SOL     OW 2038   4.843   2.959   2.187  0.6861 -0.0114 -0.2785
  596SOL    HW1 2039   4.868   3.043   2.225 -0.4707 -0.2865  1.1911
  596SOL    HW2 2040   4.800   2.912   2.259  3.2191 -2.7693 -0.3430
  597SOL     OW 2041   5.078   2.305   2.443 -0.0514 -0.1154 -0.3870
  597SOL    HW1 2042   4.985   2.315   2.421 -0.4944 -1.6775  0.6590
  597SOL    HW2 2043   5.115   2.258   2.368  0.0532  1.0544 -1.0900
  598SOL     OW 2044   0.615   0.013   2.661 -0.6217 -0.5804 -0.5629
  598SOL    HW1 2045   0.680  -0.022   2.722 -0.7711 -0.5253 -0.3707
  598SOL    HW2 2046   0.635   0.107   2.656 -2.3702  0.0130  1.6492
  599SOL     OW 2047   1.919   2.850   0.663  0.2205 -0.0614  0.0179
  599SOL    HW1 2048   1.863   2.806   0.727 -0.1214  2.4597  1.6067
  599SOL    HW2 2049   2.008   2.828   0.690  0.0542 -0.6252  0.1185
  600SOL     OW 2050   1.699   2.803   5.618 -0.1743  0.0366 -0.0491
  600SOL    HW1 2051   1.739   2.726   5.658 -0.2292  0.6308  1.1957
  600SOL    HW2 2052   1.609   2.803   5.650 -1.5560 -1.6859 -3.3649
  601SOL     OW 2053   3.289   4.733   2.126  0.6599  0.1980 -0.0934
  601SOL    HW1 2054   3.356   4.732   2.058 -0.8989  2.2830 -1.8385
  601SOL    HW2 2055   3.235   4.656   2.108  0.6881  0.3366 -0.8027
  602SOL     OW 2056   1.366   2.297   5.747 -0.0973 -0.3682  0.7396
  602SOL    HW1 2057   1.327   2.300   5.834  0.6865 -1.4351  1.1526
  602SOL    HW2 2058   1.309   2.238   5.697 -1.0676  0.9580  0.2334
  603SOL     OW 2059   3.691   4.421   1.487 -0.3046 -0.9431 -0.6749
  603SOL    HW1 2060   3.689   4.507   1.445  1.5039 -0.3674  0.3268
  603SOL    HW2 2061   3.619   4.372   1.445 -0.9555  0.8188 -1.7116
  604SOL     OW 2062   6.152   3.305   3.472  0.1802  0.1050 -0.3225
  604SOL    HW1 2063   6.156   3.247   3.548  0.3581 -1.9110 -1.7556
  604SOL    HW2 2064   6.081   3.268   3.419  0.3966  1.1364 -1.3696
  605SOL     OW 2065   1.862   4.280   6.076 -0.5127 -0.0407  0.0320
  605SOL    HW1 2066   1.790   4.281   6.140 -0.1094  0.3906  0.4844
  605SOL    HW2 2067   1.924   4.216   6.110 -0.6342 -0.3436 -0.3106
  606SOL     OW 2068   4.075   6.060   2.480 -0.0584 -0.5042  0.6207
  606SOL    HW1 2069   4.155   6.105   2.507 -0.1308  0.6255 -0.9072
  606SOL    HW2 2070   4.091   6.036   2.388 -2.1163  1.4033 -0.3386
  607SOL     OW 2071   2.775   0.032   4.447 -0.2088 -0.1100 -0.6414
  607SOL    HW1 2072   2.728   0.098   4.396 -0.0447  1.3158  0.9488
  607SOL    HW2 2073   2.831   0.083   4.506  2.1135 -1.7335 -1.3168
  608SOL     OW 2074   0.814   6.209   1.720 -0.4596 -0.0067  0.1952
  608SOL    HW1 2075   0.752   6.270   1.680 -0.0359  0.9041  0.8991
  608SOL    HW2 2076   0.890   6.210   1.661 -1.3172 -1.6543 -1.0531
  609SOL     OW 2077   2.891   2.571   5.700  0.1442 -0.5305 -0.6481
  609SOL    HW1 2078   2.959   2.638   5.700  0.7562 -1.1355  0.3478
  609SOL    HW2 2079   2.874   2.554   5.607  1.3460 -0.3720 -0.9156
  610SOL     OW 2080   0.888   2.623   2.892 -0.1303  0.3407 -0.1188
  610SOL    HW1 2081   0.881   2.556   2.825 -0.3133 -0.6845  0.9056
  610SOL    HW2 2082   0.806   2.618   2.941  0.8210 -0.3556  1.4752
  611SOL     OW 2083   0.976   2.202   3.792 -0.0356  0.0474  0.4110
  611SOL    HW1 2084   1.071   2.190   3.791  0.0714  0.4572  2.1911
  611SOL    HW2 2085   0.954   2.209   3.885 -1.6063  1.5021 -0.0241
  612SOL     OW 2086   1.553   4.275   5.353 -0.7349  0.3060 -0.0245
  612SOL    HW1 2087   1.596   4.202   5.397  1.0305  0.8487 -0.7594
  612SOL    HW2 2088   1.463   4.247   5.341 -0.0322 -1.8797 -0.5602
  613SOL     OW 2089   4.330   1.675   4.046  0.3108  0.3014 -0.0801
  613SOL    HW1 2090   4.271   1.737   4.090  0.8326 -0.5358  1.9348
  613SOL    HW2 2091   4.392   1.650   4.114 -0.5767 -3.3108 -0.4013
  614SOL     OW 2092   0.132   5.393   2.001 -0.1984 -0.1002  0.2150
  614SOL    HW1 2093   0.180   5.469   2.034 -0.7739  1.1819 -1.6930
  614SOL    HW2 2094   0.161   5.384   1.911  0.9883 -3.1775  0.8052
  615SOL     OW 2095   5.817   5.942   1.183 -0.1845  0.1333 -0.2219
  615SOL    HW1 2096   5.757   5.888   1.131 -0.6752  0.8739 -0.4494
  615SOL    HW2 2097   5.876   5.879   1.225 -0.4371 -0.5457 -0.8524
  616SOL     OW 2098   3.257   5.025   2.049 -0.7314  0.3922  0.2677
  616SOL    HW1 2099   3.268   4.930   2.049 -2.0457  0.2245  0.6306
  616SOL    HW2 2100   3.204   5.043   1.971 -0.0575  0.9017 -0.0918
  617SOL     OW 2101   1.039   4.815   5.091 -0.1427  0.3513  0.4377
  617SOL    HW1 2102   0.993   4.741   5.131 -1.3494  0.6791 -0.2780
  617SOL    HW2 2103   0.988   4.834   5.012  1.6453  0.2905 -0.7926
  618SOL     OW 2104   2.005   3.373   3.603 -0.6827 -0.3459  0.2045
  618SOL    HW1 2105   1.947   3.296   3.609 -0.8928 -0.1612  0.6434
  618SOL    HW2 2106   2.088   3.343   3.639 -0.7347 -0.3994  0.2817
  619SOL     OW 2107   2.776   3.141   2.192 -0.0702 -0.2339  0.2679
  619SOL    HW1 2108   2.840   3.141   2.121 -0.8944 -2.5607 -0.5741
  619SOL    HW2 2109   2.795   3.061   2.241  0.2510  1.1409  2.5322
  620SOL     OW 2110   5.367   4.515   1.899 -0.6817 -0.4476  0.4942
  620SOL    HW1 2111   5.312   4.503   1.977  2.0606  1.9245  3.0580
  620SOL    HW2 2112   5.345   4.603   1.869  0.9294  0.1836  1.0315
  621SOL     OW 2113   3.569   1.482   3.966  0.0736  0.2824  0.3111
  621SOL    HW1 2114   3.567   1.488   3.870  1.4014  0.2544  0.2711
  621SOL    HW2 2115   3.508   1.412   3.987 -0.6314  0.6430 -0.4738
  622SOL     OW 2116   5.182   2.777   4.308 -0.7772  0.3354 -0.4445
  622SOL    HW1 2117   5.126   2.762   4.232  0.6694 -0.0773 -1.4580
  622SOL    HW2 2118   5.262   2.816   4.273  0.3457 -0.8171  0.6949
  623SOL     OW 2119   1.730   4.375   5.159 -0.0138 -0.3320  0.7326
  623SOL    HW1 2120   1.785   4.297   5.158 -0.7069 -1.0025 -3.5598
  623SOL    HW2 2121   1.647   4.345   5.197  0.7063 -0.7777  2.0281
  624SOL     OW 2122   3.535   2.018   3.034 -0.7417 -0.1689  0.1343
  624SOL    HW1 2123   3.603   2.000   2.969 -1.3874 -0.2100 -0.5453
  624SOL    HW2 2124   3.516   2.111   3.023 -1.7543 -0.4526 -0.6380
  625SOL     OW 2125   6.302   1.885   3.912 -0.4080 -0.1895  0.1069
  625SOL    HW1 2126   6.289   1.817   3.978 -2.2718  0.0762  0.0767
  625SOL    HW2 2127   6.334   1.960   3.962 -0.2104 -0.4972  0.4499
  626SOL     OW 2128   1.940   0.168   5.431 -0.0525  0.4383  0.2551
  626SOL    HW1 2129   1.965   0.218   5.353  0.7237 -2.3516 -1.4221
  626SOL    HW2 2130   1.977   0.218   5.504 -2.2953  4.1223 -0.8493
  627SOL     OW 2131   5.107   0.474   3.504  0.0849 -0.4553 -0.2384
  627SOL    HW1 2132   5.034   0.443   3.558 -1.7472  1.3768 -1.5164
  627SOL    HW2 2133   5.090   0.439   3.417  0.6331  0.1088 -0.5813
  628SOL     OW 2134   3.973   5.669   6.286  0.1970 -0.1825  0.4309
  628SOL    HW1 2135   3.941   5.638   6.202  0.1896  1.1332 -0.0768
  628SOL    HW2 2136   3.984   5.764   6.275 -0.2369  0.0958  2.0440
  629SOL     OW 2137   0.040   4.396   3.749 -0.2458 -0.1332 -0.0923
  629SOL    HW1 2138   0.090   4.390   3.830 -0.2020 -3.3828 -0.2137
  629SOL    HW2 2139   0.073   4.324   3.695 -1.3068  1.0022 -2.4189
  630SOL     OW 2140   5.971   2.675   3.529  0.6626  0.0324  0.2650
  630SOL    HW1 2141   5.993   2.629   3.448 -0.2235 -0.0769  0.0674
  630SOL    HW2 2142   5.915   2.614   3.576 -0.9655  1.0588 -0.2311
  631SOL     OW 2143   4.651   2.679   4.853  0.0793 -0.0483 -0.3297
  631SOL    HW1 2144   4.698   2.722   4.781 -0.1458  0.7025 -0.0401
  631SOL    HW2 2145   4.708   2.608   4.880  0.0661 -0.4901 -1.4025
  632SOL     OW 2146   3.380   5.617   4.470  0.1448  0.5517 -0.0275
  632SOL    HW1 2147   3.325   5.543   4.494  1.4227 -0.7060 -0.7884
  632SOL    HW2 2148   3.357   5.636   4.379  0.2409  0.7026 -0.0219
  633SOL     OW 2149   5.684   3.872   2.493  0.5284  0.1217  0.1712
  633SOL    HW1 2150   5.686   3.949   2.549 -1.5423 -0.5769  1.3367
  633SOL    HW2 2151   5.636   3.900   2.416 -2.6507 -0.5411  1.7320
  634SOL     OW 2152   0.485   0.486   6.182  0.3242  0.6004  0.5100
  634SOL    HW1 2153   0.570   0.471   6.141 -0.3778 -3.5798  0.0481
  634SOL    HW2 2154   0.504   0.532   6.263  3.1543 -0.7895  0.7442
  635SOL     OW 2155   2.039   4.028   2.175 -0.0806  0.6858 -0.0581
  635SOL    HW1 2156   2.080   4.042   2.261  1.0413  0.4628 -0.5310
  635SOL    HW2 2157   2.112   4.034   2.114 -0.5380 -1.1505 -0.8249
  636SOL     OW 2158   1.426   5.039   0.601 -0.1538 -0.0415 -0.0953
  636SOL    HW1 2159   1.395   4.969   0.660  0.4505 -1.9489 -1.9353
  636SOL    HW2 2160   1.449   4.994   0.520  0.0830  2.3586 -1.4538
  637SOL     OW 2161   1.417   1.910   4.567 -0.0472  0.0886 -0.3069
  637SOL    HW1 2162   1.468   1.956   4.633  0.0375 -0.7172  0.2027
  637SOL    HW2 2163   1.345   1.870   4.616 -0.0496 -0.4223 -0.7157
  638SOL     OW 2164   1.780   5.807   2.924 -0.0098 -0.7979 -0.3694
  638SOL    HW1 2165   1.778   5.898   2.953  1.2497 -0.6122 -0.8247
  638SOL    HW2 2166   1.691   5.791   2.891  0.1194  0.6978 -1.5508
  639SOL     OW 2167   5.948   6.213   4.882 -0.4335  0.8999  0.0003
  639SOL    HW1 2168   6.008   6.179   4.947 -2.0346 -1.3978  0.4170
  639SOL    HW2 2169   5.989   6.294   4.850  4.2266 -1.7496 -1.6971
  640SOL     OW 2170   3.084   3.509   5.594 -0.5372 -0.9418  0.2110
  640SOL    HW1 2171   3.071   3.423   5.633 -0.9339 -0.8551  0.2703
  640SOL    HW2 2172   3.140   3.555   5.657 -2.5093 -0.2272  1.5391
  641SOL     OW 2173   2.533   3.292   1.689  0.0532 -0.2188 -0.7740
  641SOL    HW1 2174   2.595   3.246   1.632 -0.2857  0.8181 -2.0422
  641SOL    HW2 2175   2.559   3.384   1.683 -1.7232  0.2765 -1.5212
  642SOL     OW 2176   5.108   1.403   4.044 -0.4094  0.0369 -0.8565
  642SOL    HW1 2177   5.172   1.332   4.051  2.7212  2.6032 -1.1251
  642SOL    HW2 2178   5.056   1.397   4.125  0.8209 -1.6025 -0.1398
  643SOL     OW 2179   3.047   2.366   0.561 -0.0755  0.1420  0.3440
  643SOL    HW1 2180   3.092   2.307   0.500  1.3497  1.6947 -0.1787
  643SOL    HW2 2181   2.970   2.317   0.590  1.9026 -2.6749  1.2735
  644SOL     OW 2182   5.326   5.926   5.802 -0.2919  0.0538 -0.1987
  644SOL    HW1 2183   5.406   5.962   5.840  0.0199 -1.2299  0.4116
  644SOL    HW2 2184   5.282   5.883   5.875 -0.0583 -1.8188 -1.1076
  645SOL     OW 2185   4.081   0.738   2.144 -0.4867 -0.3272  0.2486
  645SOL    HW1 2186   4.098   0.678   2.071 -0.7192 -0.4815  0.3220
  645SOL    HW2 2187   4.014   0.694   2.196 -1.3083  0.3931 -0.1742
  646SOL     OW 2188   2.301   2.856   5.401  0.2558  0.3042 -0.4676
  646SOL    HW1 2189   2.223   2.823   5.445  0.0599 -1.3307 -1.9455
  646SOL    HW2 2190   2.373   2.835   5.461 -0.0939 -1.1652 -0.5280
  647SOL     OW 2191   2.494   0.880   5.962  0.2894 -0.6452  0.1380
  647SOL    HW1 2192   2.572   0.857   6.012 -0.3476 -1.0783  0.9483
  647SOL    HW2 2193   2.487   0.975   5.970  0.6072 -0.6296  0.2428
  648SOL     OW 2194   5.154   4.555   3.489  0.7716 -0.3804  0.3562
  648SOL    HW1 2195   5.132   4.565   3.581 -0.8147 -0.6228  0.0282
  648SOL    HW2 2196   5.076   4.516   3.449  1.8372 -1.3438 -0.8899
  649SOL     OW 2197   2.253   0.890   4.296  0.0785  0.0744  0.3905
  649SOL    HW1 2198   2.345   0.913   4.288  0.4486 -1.5063 -0.1950
  649SOL    HW2 2199   2.240   0.872   4.389  0.2806  0.5775  0.5192
  650SOL     OW 2200   2.706   0.240   0.970 -0.1125  0.1035  0.6174
  650SOL    HW1 2201   2.759   0.277   0.900 -0.4813 -1.5550 -0.6232
  650SOL    HW2 2202   2.658   0.314   1.007 -0.4223  0.9412 -1.3688
  651SOL     OW 2203   0.552   4.096   0.520  0.2428  0.0890 -0.7365
  651SOL    HW1 2204   0.505   4.066   0.597  0.6081 -0.0208 -0.5520
  651SOL    HW2 2205   0.637   4.126   0.554  0.4913 -0.1655 -1.1176
  652SOL     OW 2206   4.729   1.280   5.347  0.1565  0.4071  0.0362
  652SOL    HW1 2207   4.734   1.306   5.255 -1.3163  0.1424 -0.1461
  652SOL    HW2 2208   4.637   1.258   5.360  0.5505 -0.5615  1.3125
  653SOL     OW 2209   5.335   3.913   5.585 -0.4727  0.0906 -0.1681
  653SOL    HW1 2210   5.287   3.944   5.508 -2.2144 -0.3588  0.6847
  653SOL    HW2 2211   5.366   3.993   5.627 -0.5645  0.4008 -0.6792
  654SOL     OW 2212   1.196   1.115   6.253  0.4366  0.3646  0.0192
  654SOL    HW1 2213   1.160   1.070   6.329 -1.5002 -0.8565 -1.5211
  654SOL    HW2 2214   1.176   1.207   6.268 -0.7017  0.0392  0.6116
  655SOL     OW 2215   0.243   0.494   4.526  0.3366  0.1906  0.1019
  655SOL    HW1 2216   0.148   0.504   4.534  0.0101 -1.8103 -0.5436
  655SOL    HW2 2217   0.257   0.475   4.433  1.3898  0.5914  0.1710
  656SOL     OW 2218   2.980   5.367   3.097  0.4667  0.3999  0.2116
  656SOL    HW1 2219   2.999   5.424   3.022 -0.7665 -0.5243 -0.8499
  656SOL    HW2 2220   2.912   5.415   3.146  1.3417  1.0495  0.8137
  657SOL     OW 2221   1.851   4.125   0.708  0.1516 -0.5262 -0.1805
  657SOL    HW1 2222   1.927   4.181   0.691 -0.6549  0.2504 -1.4639
  657SOL    HW2 2223   1.776   4.184   0.699 -0.7273 -1.7869 -1.4829
  658SOL     OW 2224   2.988   2.570   5.185 -0.0471 -0.2844  0.0227
  658SOL    HW1 2225   2.998   2.533   5.097  2.8137  1.4294 -0.5042
  658SOL    HW2 2226   2.981   2.664   5.171 -0.3522 -0.0484  1.5906
  659SOL     OW 2227   3.576   1.901   3.684 -0.1419 -0.0471  0.3647
  659SOL    HW1 2228   3.502   1.860   3.639 -1.2543  2.5199 -0.3727
  659SOL    HW2 2229   3.557   1.995   3.678  1.6529  0.5505  2.8717
  660SOL     OW 2230   0.929   2.796   0.620 -0.4161 -0.1484 -0.1104
  660SOL    HW1 2231   0.930   2.774   0.714 -0.1743  1.5513  0.3312
  660SOL    HW2 2232   0.836   2.805   0.599 -0.5922 -2.6658 -0.6207
  661SOL     OW 2233   4.898   3.246   5.310  0.1399  0.2369 -0.4729
  661SOL    HW1 2234   4.963   3.265   5.379 -0.6982 -0.4107  0.5235
  661SOL    HW2 2235   4.866   3.158   5.331  1.3294 -0.8819 -2.8841
  662SOL     OW 2236   2.850   2.883   0.351 -0.0551  0.1412 -0.3739
  662SOL    HW1 2237   2.868   2.824   0.424 -0.4953 -0.5199 -0.7893
  662SOL    HW2 2238   2.917   2.951   0.358 -0.4059  0.3757  0.9454
  663SOL     OW 2239   0.133   5.117   2.321 -0.0207  0.1179  0.0934
  663SOL    HW1 2240   0.149   5.176   2.395  0.6738 -0.3459  0.3180
  663SOL    HW2 2241   0.088   5.042   2.359 -2.0260  0.9940 -0.3841
  664SOL     OW 2242   1.147   0.912   5.783 -0.1536 -0.0708 -0.0989
  664SOL    HW1 2243   1.153   0.893   5.689 -1.6451  0.5661 -0.3456
  664SOL    HW2 2244   1.156   0.826   5.825  1.5261 -0.2522 -0.7428
  665SOL     OW 2245   5.098   1.083   4.357  0.1252  0.4354  0.4331
  665SOL    HW1 2246   5.141   1.165   4.331 -0.8350  1.2469  1.2914
  665SOL    HW2 2247   5.101   1.028   4.279  2.1876  0.6658  0.2857
  666SOL     OW 2248   0.846   5.551   0.564 -0.4526 -0.5975 -0.1866
  666SOL    HW1 2249   0.753   5.534   0.582 -0.7550  1.1623  0.0735
  666SOL    HW2 2250   0.873   5.478   0.508 -1.8782 -1.3598  0.0624
  667SOL     OW 2251   6.010   5.288   2.030 -0.4268 -0.1158  0.4356
  667SOL    HW1 2252   5.953   5.306   2.105 -1.1594  1.5856 -0.4896
  667SOL    HW2 2253   6.083   5.349   2.040  0.2478 -0.9146  0.5397
  668SOL     OW 2254   3.905   0.634   4.798  0.2651  0.3903 -0.4031
  668SOL    HW1 2255   3.900   0.599   4.709 -1.6207 -1.2048  0.2685
  668SOL    HW2 2256   3.942   0.562   4.850 -1.8866 -0.0003  0.6758
  669SOL     OW 2257   6.232   3.745   5.234  0.2024 -0.3264  0.1917
  669SOL    HW1 2258   6.261   3.685   5.165  1.4967  0.0001  0.4160
  669SOL    HW2 2259   6.279   3.715   5.312  1.2645  1.2481  0.2028
  670SOL     OW 2260   0.526   5.000   3.507 -0.1988 -0.6506  0.1309
  670SOL    HW1 2261   0.447   4.953   3.531 -0.4704  0.7269  2.1331
  670SOL    HW2 2262   0.497   5.065   3.442 -0.9290  0.4255  1.4904
  671SOL     OW 2263   4.614   1.037   1.564  0.5077  0.1762  0.0072
  671SOL    HW1 2264   4.624   1.075   1.651 -2.2616  0.8273  0.1361
  671SOL    HW2 2265   4.525   1.003   1.562  1.1652 -1.7477 -1.9041
  672SOL     OW 2266   1.569   4.479   0.108 -0.0359  0.0563  0.1699
  672SOL    HW1 2267   1.638   4.545   0.109 -0.1966  0.2505 -0.6467
  672SOL    HW2 2268   1.549   4.468   0.015 -1.3599  0.2768  0.4191
  673SOL     OW 2269   0.844   5.220   1.235 -0.2396  0.5602  0.7014
  673SOL    HW1 2270   0.804   5.263   1.160  1.5686  0.6774 -0.2708
  673SOL    HW2 2271   0.793   5.140   1.247 -0.1273  0.1522 -1.1738
  674SOL     OW 2272   0.074   1.892   5.277  0.6167  0.0431  0.8435
  674SOL    HW1 2273   0.129   1.876   5.354  1.2947  0.6145  0.4855
  674SOL    HW2 2274   0.013   1.960   5.306  0.1273 -0.5401  1.2179
  675SOL     OW 2275   1.969   5.129   0.376  0.2994  0.2200 -0.6426
  675SOL    HW1 2276   1.912   5.134   0.453 -0.1978 -1.3352 -0.8746
  675SOL    HW2 2277   1.923   5.178   0.308 -0.3045 -0.2117 -0.5491
  676SOL     OW 2278   3.736   1.510   4.629  0.5250 -0.3185  0.2462
  676SOL    HW1 2279   3.680   1.474   4.561 -0.3979  1.5961 -0.0689
  676SOL    HW2 2280   3.786   1.579   4.585  0.4675  0.4365  1.3283
  677SOL     OW 2281   0.357   4.602   2.230  0.3118 -0.0680 -0.2338
  677SOL    HW1 2282   0.432   4.552   2.263  0.1102 -0.9985 -1.1134
  677SOL    HW2 2283   0.392   4.652   2.156  0.4023  0.7291  0.3385
  678SOL     OW 2284   2.503   0.685   2.929 -0.2910 -0.0266 -0.0029
  678SOL    HW1 2285   2.547   0.690   3.014  0.0379 -1.0872 -0.0928
  678SOL    HW2 2286   2.575   0.676   2.866 -0.5445  0.5063 -0.3778
  679SOL     OW 2287   0.126   0.267   1.981  0.3220  0.2611  0.1519
  679SOL    HW1 2288   0.113   0.355   2.016  1.7438  0.4558  0.2558
  679SOL    HW2 2289   0.085   0.269   1.894  1.8897  1.6216 -0.6126
  680SOL     OW 2290   3.404   5.814   4.643 -0.3184  0.2481 -0.2590
  680SOL    HW1 2291   3.329   5.863   4.610 -2.2313 -2.1144  0.2153
  680SOL    HW2 2292   3.412   5.740   4.583  0.8254 -0.2051  0.4259
  681SOL     OW 2293   2.747   5.653   5.829 -0.0704 -0.0954 -0.5810
  681SOL    HW1 2294   2.771   5.733   5.878  0.5738 -0.0339 -0.9816
  681SOL    HW2 2295   2.828   5.603   5.826  0.2834  0.5286 -2.7815
  682SOL     OW 2296   0.300   3.675   4.921  0.4775 -0.4826  0.2258
  682SOL    HW1 2297   0.280   3.582   4.905  0.0884 -0.5150  0.9007
  682SOL    HW2 2298   0.366   3.696   4.854 -0.1123 -0.9901 -0.5438
  683SOL     OW 2299   0.673   1.995   5.278  0.2616 -0.2054 -0.4664
  683SOL    HW1 2300   0.714   1.941   5.210 -0.0402 -0.8736 -0.1292
  683SOL    HW2 2301   0.738   2.062   5.298  0.4838 -0.1966 -1.1806
  684SOL     OW 2302   3.991   1.167   3.310  0.0604 -0.0318 -0.1723
  684SOL    HW1 2303   3.895   1.159   3.305  0.1034 -0.1375 -1.1291
  684SOL    HW2 2304   4.010   1.247   3.260  0.4116  0.5184  0.8123
  685SOL     OW 2305   2.316   2.821   4.129  0.1907  0.3846  0.0458
  685SOL    HW1 2306   2.384   2.766   4.169  1.1509  1.3698 -0.1792
  685SOL    HW2 2307   2.324   2.805   4.035  0.1676  0.5603  0.0133
  686SOL     OW 2308   0.747   5.192   5.013  0.0026 -0.3668 -0.1799
  686SOL    HW1 2309   0.687   5.189   4.938 -1.7981 -2.3088  1.2091
  686SOL    HW2 2310   0.834   5.198   4.975 -0.9480  0.8792 -2.3359
  687SOL     OW 2311   4.672   1.487   3.473 -0.0432 -0.3685 -0.4740
  687SOL    HW1 2312   4.577   1.487   3.488  0.1401 -2.0309  0.9292
  687SOL    HW2 2313   4.709   1.523   3.553  0.5174  0.9744 -1.3070
  688SOL     OW 2314   4.487   1.573   5.973  0.0783  0.4431 -0.3719
  688SOL    HW1 2315   4.565   1.623   5.948  0.0343  0.3659 -0.6750
  688SOL    HW2 2316   4.484   1.578   6.068  1.0498 -0.4628 -0.2747
  689SOL     OW 2317   0.413   3.271   4.625 -0.1283  0.4477  0.1961
  689SOL    HW1 2318   0.432   3.189   4.579 -0.7750 -0.0142  0.7315
  689SOL    HW2 2319   0.317   3.275   4.627 -0.1259  0.2644  1.8311
  690SOL     OW 2320   0.125   1.819   2.990  0.2202 -0.2311  0.4817
  690SOL    HW1 2321   0.115   1.779   2.903  6.7182  1.1087 -1.4613
  690SOL    HW2 2322   0.144   1.746   3.048 -0.3743 -0.8548 -0.0853
  691SOL     OW 2323   3.623   4.879   2.476 -0.0074 -0.2339  0.0868
  691SOL    HW1 2324   3.675   4.947   2.433 -0.1721  0.4266  0.8864
  691SOL    HW2 2325   3.534   4.896   2.447  0.0859 -0.7779 -0.5413
  692SOL     OW 2326   4.798   5.139   2.022 -0.1391  0.2364  0.1092
  692SOL    HW1 2327   4.796   5.175   2.111 -0.1702  1.6491 -0.4286
  692SOL    HW2 2328   4.808   5.216   1.966  0.3819 -0.6732 -1.0911
  693SOL     OW 2329   2.361   0.070   3.858  0.0130 -0.0541 -0.1503
  693SOL    HW1 2330   2.326  -0.012   3.821  0.4447 -0.2753 -0.0755
  693SOL    HW2 2331   2.385   0.122   3.781 -0.4263  0.0799 -0.2018
  694SOL     OW 2332   4.954   2.481   2.169 -0.0523 -0.0347  0.4411
  694SOL    HW1 2333   4.865   2.515   2.161 -0.0322  0.3925  1.7814
  694SOL    HW2 2334   4.997   2.541   2.230  1.2286 -0.1026 -0.3675
  695SOL     OW 2335   2.014   3.822   4.343  0.4726  0.0296  0.3691
  695SOL    HW1 2336   2.085   3.885   4.328 -0.5723  0.9921 -0.7648
  695SOL    HW2 2337   1.934   3.874   4.333 -0.4155 -0.8801  2.2204
  696SOL     OW 2338   1.169   6.126   3.918 -0.5658 -0.4592  0.8348
  696SOL    HW1 2339   1.112   6.138   3.843  2.7872  2.1960 -1.6216
  696SOL    HW2 2340   1.156   6.205   3.971  1.2904  0.6097 -0.2130
  697SOL     OW 2341   0.452   3.805   0.557 -0.2585 -0.1206  0.1431
  697SOL    HW1 2342   0.538   3.784   0.594 -0.9519 -2.6543  0.4854
  697SOL    HW2 2343   0.420   3.877   0.612  2.0016  1.5919 -0.6304
  698SOL     OW 2344   2.963   1.891   1.179  0.3941 -0.0696 -0.1272
  698SOL    HW1 2345   2.871   1.912   1.191  0.3144 -0.5321  0.1054
  698SOL    HW2 2346   2.963   1.799   1.153  0.8468 -0.4346  1.0672
  699SOL     OW 2347   5.942   4.570   3.905  0.5634  0.0021 -0.2634
  699SOL    HW1 2348   6.013   4.507   3.905  0.9098  0.3133 -2.8154
  699SOL    HW2 2349   5.982   4.651   3.936  1.3750  0.1776 -1.6849
  700SOL     OW 2350   4.931   4.453   0.897 -0.0832  0.5710 -0.2126
  700SOL    HW1 2351   4.996   4.520   0.874 -0.9873  1.3280 -0.6458
  700SOL    HW2 2352   4.891   4.486   0.978  0.5428 -0.2559  0.4643
  701SOL     OW 2353   4.135   0.413   6.060  0.0436  0.3466 -0.5242
  701SOL    HW1 2354   4.045   0.387   6.078  0.5321 -1.1620 -0.0858
  701SOL    HW2 2355   4.144   0.407   5.965  0.5243 -2.7383 -0.3969
  702SOL     OW 2356   5.796   1.658   4.850 -0.5985 -0.3256  0.0749
  702SOL    HW1 2357   5.734   1.696   4.913 -0.0296 -0.9471  1.0423
  702SOL    HW2 2358   5.831   1.581   4.895  1.1074  0.1813 -0.3075
  703SOL     OW 2359   5.409   3.891   5.162 -0.3445 -0.5797  0.0091
  703SOL    HW1 2360   5.483   3.842   5.125  0.1923 -0.0779  0.3963
  703SOL    HW2 2361   5.343   3.824   5.181 -0.5173 -0.8840 -1.5677
  704SOL     OW 2362   2.673   1.618   3.335 -0.1655  0.0954 -0.1484
  704SOL    HW1 2363   2.758   1.599   3.295 -0.5744 -1.4958 -0.3281
  704SOL    HW2 2364   2.694   1.672   3.411  0.9848 -0.0524 -0.3433
  705SOL     OW 2365   2.868   3.717   4.042  0.1904 -0.4336 -0.1485
  705SOL    HW1 2366   2.882   3.738   3.950  0.2847  0.3711  0.0356
  705SOL    HW2 2367   2.947   3.669   4.069  0.2567 -0.4839 -0.4340
  706SOL     OW 2368   4.256   6.035   2.174  0.2268  0.3700  0.1588
  706SOL    HW1 2369   4.338   6.050   2.126  0.5620  0.3303  0.7055
  706SOL    HW2 2370   4.190   6.084   2.124  0.7900  1.3419  0.3319
  707SOL     OW 2371   2.828   1.912   4.314 -0.1363  0.3828  0.1193
  707SOL    HW1 2372   2.831   1.819   4.333  3.4887  0.0339 -1.3167
  707SOL    HW2 2373   2.799   1.917   4.223 -1.6423  0.8029  0.6005
  708SOL     OW 2374   2.114   2.213   6.135  0.0180  0.3472  0.1744
  708SOL    HW1 2375   2.061   2.139   6.104 -0.0421  0.6657 -0.4952
  708SOL    HW2 2376   2.097   2.283   6.072  1.4064  0.3862 -0.1946
  709SOL     OW 2377   2.132   5.878   2.177 -0.1705  0.4307 -0.4403
  709SOL    HW1 2378   2.152   5.854   2.086  2.7373  1.9198 -0.3028
  709SOL    HW2 2379   2.217   5.891   2.218 -1.3868  3.4578  1.4720
  710SOL     OW 2380   5.734   3.529   4.455  0.3365  0.0613 -0.2084
  710SOL    HW1 2381   5.752   3.435   4.446 -0.0594 -0.0717  0.3975
  710SOL    HW2 2382   5.682   3.550   4.378 -0.0772 -0.3416 -0.0422
  711SOL     OW 2383   5.087   3.291   5.538  0.6797  0.2115  0.4319
  711SOL    HW1 2384   5.148   3.230   5.496  1.0075  0.5217  0.4570
  711SOL    HW2 2385   5.124   3.377   5.523  0.1411  0.4193  0.2773
  712SOL     OW 2386   5.744   1.188   4.007  0.3775 -0.0878  0.2362
  712SOL    HW1 2387   5.781   1.120   3.951 -0.4574 -0.8868  0.6256
  712SOL    HW2 2388   5.653   1.194   3.981  0.3210  0.5419  0.5518
  713SOL     OW 2389   1.068   1.137   0.306 -0.5959 -0.6431  0.5314
  713SOL    HW1 2390   0.977   1.109   0.296 -0.2352 -1.3867 -1.1271
  713SOL    HW2 2391   1.119   1.056   0.299  0.1802 -0.3446  2.2761
  714SOL     OW 2392   1.993   5.051   2.650  0.0359 -0.3830 -0.4352
  714SOL    HW1 2393   2.086   5.071   2.638 -0.4784  1.5279 -1.6169
  714SOL    HW2 2394   1.984   4.959   2.625  1.7421 -0.8818  0.6251
  715SOL     OW 2395   5.484   4.666   4.991 -0.0873  0.1558  0.2371
  715SOL    HW1 2396   5.410   4.726   4.996  0.3677  0.6671  0.9479
  715SOL    HW2 2397   5.450   4.590   4.943 -1.8658 -0.7646  2.7297
  716SOL     OW 2398   4.738   0.463   0.949  0.4524  0.0404 -0.1677
  716SOL    HW1 2399   4.701   0.378   0.924  0.4358 -0.1704  0.5534
  716SOL    HW2 2400   4.819   0.470   0.898  0.6999 -0.6247  0.1209
  717SOL     OW 2401   5.913   3.713   2.485  0.4272 -0.3902  0.2427
  717SOL    HW1 2402   5.908   3.688   2.392  0.0850  0.0873  0.1300
  717SOL    HW2 2403   5.836   3.768   2.499  0.5103 -0.4141  0.7999
  718SOL     OW 2404   2.186   3.325   4.311 -0.4499 -0.2565  0.0373
  718SOL    HW1 2405   2.239   3.246   4.299 -0.8172 -0.3789 -0.8711
  718SOL    HW2 2406   2.097   3.297   4.291 -0.6499  0.2879  0.1507
  719SOL     OW 2407   2.975   4.133   5.159  0.2058 -0.2125  0.1797
  719SOL    HW1 2408   3.028   4.149   5.081  0.0568 -0.5244  0.0123
  719SOL    HW2 2409   3.039   4.117   5.229  0.3489  0.7169  0.2684
  720SOL     OW 2410   4.518   5.810   0.104 -0.0628 -0.3930  0.4795
  720SOL    HW1 2411   4.439   5.796   0.157 -1.4405 -0.3965 -1.4579
  720SOL    HW2 2412   4.521   5.905   0.091 -0.9550 -0.5576 -1.1331
  721SOL     OW 2413   5.180   2.436   1.886  0.1871 -0.2868 -0.6448
  721SOL    HW1 2414   5.090   2.403   1.889 -0.0007  0.0286 -1.9743
  721SOL    HW2 2415   5.227   2.372   1.832  0.4241  0.2655 -1.1046
  722SOL     OW 2416   1.608   3.582   5.169 -0.1995 -0.1563  0.0108
  722SOL    HW1 2417   1.700   3.560   5.155 -0.5426 -0.5821 -1.7072
  722SOL    HW2 2418   1.592   3.557   5.261  1.4056  0.0319  0.3706
  723SOL     OW 2419   5.081   5.169   2.920 -0.3142  0.1049 -0.1982
  723SOL    HW1 2420   5.089   5.149   2.826  0.9285  1.1035 -0.3331
  723SOL    HW2 2421   5.006   5.117   2.949 -0.2922 -0.7643 -1.5920
  724SOL     OW 2422   4.785   5.668   6.343  0.3314  0.0980 -0.4339
  724SOL    HW1 2423   4.857   5.643   6.402  1.9797  2.0449 -1.4999
  724SOL    HW2 2424   4.725   5.718   6.399  0.1150 -0.9565  0.3110
  725SOL     OW 2425   2.180   4.103   2.393 -0.6730 -0.0461 -0.0986
  725SOL    HW1 2426   2.173   4.198   2.384 -1.5293 -0.1634 -0.7585
  725SOL    HW2 2427   2.274   4.087   2.395 -0.5160  0.8100 -0.1001
  726SOL     OW 2428   2.712   0.737   3.697  0.3779 -0.0900  0.2227
  726SOL    HW1 2429   2.704   0.726   3.791 -0.9909 -0.8615  0.0578
  726SOL    HW2 2430   2.715   0.647   3.663 -0.6716  0.1478 -0.5448
  727SOL     OW 2431   1.185   2.791   3.936 -0.4097 -0.0548 -0.8067
  727SOL    HW1 2432   1.119   2.850   3.903 -1.1826  0.0312  0.7902
  727SOL    HW2 2433   1.256   2.848   3.966 -0.4909 -0.0259 -0.6688
  728SOL     OW 2434   3.675   0.164   2.119 -0.0601 -0.1420 -0.3449
  728SOL    HW1 2435   3.675   0.069   2.113 -0.5779 -0.3110  1.6202
  728SOL    HW2 2436   3.608   0.192   2.056  1.7029 -0.8623 -2.6725
  729SOL     OW 2437   6.301   5.181   2.106  0.2232 -0.5067 -0.1841
  729SOL    HW1 2438   6.367   5.162   2.173  0.3744  1.6479  0.3521
  729SOL    HW2 2439   6.335   5.259   2.062 -2.8838  2.0329  1.5239
  730SOL     OW 2440   0.021   0.558   5.800  0.7308 -0.1721 -0.7534
  730SOL    HW1 2441   0.116   0.567   5.808  0.7420 -0.8294  0.0256
  730SOL    HW2 2442  -0.015   0.611   5.872  0.5307 -0.2907 -0.7630
  731SOL     OW 2443   0.133   2.952   5.860 -0.4057  0.5006 -0.3043
  731SOL    HW1 2444   0.073   2.904   5.917 -0.8115  0.8871 -0.4032
  731SOL    HW2 2445   0.120   2.913   5.773 -0.3921  0.4749 -0.2950
  732SOL     OW 2446   0.470   2.882   1.715 -0.0065 -0.4216  0.2447
  732SOL    HW1 2447   0.406   2.952   1.704 -0.1315 -0.8018 -2.0945
  732SOL    HW2 2448   0.555   2.925   1.706 -0.0355 -0.3323  0.4103
  733SOL     OW 2449   1.225   5.665   3.085  0.2601  0.6074 -0.3511
  733SOL    HW1 2450   1.283   5.609   3.033 -0.0466  0.7546 -0.8551
  733SOL    HW2 2451   1.142   5.666   3.037  0.1453  1.1998 -0.1537
  734SOL     OW 2452   3.019   1.114   5.376  0.0628  0.4115  0.1376
  734SOL    HW1 2453   3.046   1.151   5.292 -0.8911  0.6942 -0.0510
  734SOL    HW2 2454   2.929   1.145   5.388 -0.2301 -0.6342  0.6831
  735SOL     OW 2455   2.539   0.299   4.636  0.0460 -0.0264  0.5743
  735SOL    HW1 2456   2.518   0.219   4.685 -0.1095  0.1083  0.7328
  735SOL    HW2 2457   2.465   0.310   4.576 -0.6823  0.7939  1.5721
  736SOL     OW 2458   3.619   0.099   5.390 -0.1043  0.8101 -0.1856
  736SOL    HW1 2459   3.708   0.132   5.404  0.1687  0.8746 -1.8570
  736SOL    HW2 2460   3.569   0.131   5.465  1.4065  0.2498  1.1166
  737SOL     OW 2461   3.722   2.641   1.880 -0.7130 -0.5273  0.1347
  737SOL    HW1 2462   3.763   2.649   1.794  1.1930 -0.6952  0.9921
  737SOL    HW2 2463   3.764   2.708   1.934 -0.6764 -1.4959  1.3691
  738SOL     OW 2464   3.586   0.968   5.292  0.0285  0.2803  0.5187
  738SOL    HW1 2465   3.616   0.905   5.357 -1.7741 -0.5569  0.5949
  738SOL    HW2 2466   3.531   1.029   5.341  0.3072  0.8558  0.1250
  739SOL     OW 2467   6.072   5.160   5.037  0.5005 -0.5016  0.6303
  739SOL    HW1 2468   6.072   5.166   4.942 -0.5080 -3.0572  0.3969
  739SOL    HW2 2469   5.983   5.131   5.059  1.7029 -3.5276  1.9847
  740SOL     OW 2470   0.575   2.152   0.806 -0.1135  0.4295 -0.0750
  740SOL    HW1 2471   0.537   2.160   0.893  0.5241 -0.7651  0.3357
  740SOL    HW2 2472   0.519   2.090   0.760  0.4064 -0.1027 -0.0042
  741SOL     OW 2473   0.908   1.914   1.204 -0.2620  0.4309  0.0210
  741SOL    HW1 2474   0.863   1.830   1.208  1.0163 -0.2529  1.4223
  741SOL    HW2 2475   0.951   1.915   1.119 -0.3198 -0.3434 -0.0210
  742SOL     OW 2476   0.987   1.759   0.311  0.8500 -0.1703  0.2186
  742SOL    HW1 2477   1.000   1.762   0.406  0.5305  0.3206  0.2498
  742SOL    HW2 2478   1.051   1.694   0.280 -0.6463 -2.1133  1.0136
  743SOL     OW 2479   1.380   1.281   4.701  0.0542 -0.2540 -0.3834
  743SOL    HW1 2480   1.290   1.301   4.726 -0.0016 -1.4182  0.4675
  743SOL    HW2 2481   1.432   1.351   4.742 -0.2654 -0.8613  1.1554
  744SOL     OW 2482   5.739   6.262   4.029 -0.0501  0.1722 -0.4778
  744SOL    HW1 2483   5.826   6.294   4.054  0.0273 -0.9300  0.7709
  744SOL    HW2 2484   5.746   6.167   4.035 -1.5597  0.0878  0.4124
  745SOL     OW 2485   0.407   0.830   3.810  0.3426 -0.1802  0.1243
  745SOL    HW1 2486   0.439   0.784   3.887 -0.3420 -2.3215 -0.7787
  745SOL    HW2 2487   0.473   0.897   3.792  0.7373  0.0699  2.2697
  746SOL     OW 2488   5.507   4.515   1.458  0.5409  0.1764  0.2137
  746SOL    HW1 2489   5.487   4.540   1.368  0.4502 -0.0643  0.1676
  746SOL    HW2 2490   5.549   4.429   1.450  1.4098  0.5781  0.3211
  747SOL     OW 2491   2.981   5.754   2.657 -0.1499 -0.3946  0.2488
  747SOL    HW1 2492   2.898   5.790   2.686 -1.3150 -2.2264 -0.6768
  747SOL    HW2 2493   3.047   5.802   2.708 -1.8027  0.3512  1.7714
  748SOL     OW 2494   4.361   2.561   1.624 -0.5380  0.0033  0.0857
  748SOL    HW1 2495   4.377   2.653   1.605 -0.4364 -0.0298  0.0127
  748SOL    HW2 2496   4.266   2.554   1.633 -0.5720  0.0524 -0.2360
  749SOL     OW 2497   5.769   2.842   4.965  0.7082 -0.5553  0.2487
  749SOL    HW1 2498   5.754   2.881   4.879 -1.0343 -2.2918 -0.3037
  749SOL    HW2 2499   5.781   2.917   5.023  1.0514  0.6779 -1.3351
  750SOL     OW 2500   1.291   0.017   3.553  0.5564  0.1340 -0.3579
  750SOL    HW1 2501   1.290  -0.040   3.477 -1.9594 -1.4659  0.7632
  750SOL    HW2 2502   1.310  -0.041   3.627 -2.3114  0.5740  0.8401
  751SOL     OW 2503   4.765   0.536   5.203  0.3892  0.2300  0.1210
  751SOL    HW1 2504   4.775   0.494   5.118  2.2873 -0.3469  0.5920
  751SOL    HW2 2505   4.843   0.590   5.214 -0.6864  1.7446  0.7507
  752SOL     OW 2506   3.172   3.629   4.849  0.0418 -0.2075 -0.3581
  752SOL    HW1 2507   3.235   3.658   4.915  0.8832 -1.7159 -0.4591
  752SOL    HW2 2508   3.089   3.667   4.877  0.8778  1.4517  0.0330
  753SOL     OW 2509   0.300   5.370   1.756  0.1838 -0.1159 -0.3348
  753SOL    HW1 2510   0.357   5.429   1.805  0.4882 -1.0970  0.5459
  753SOL    HW2 2511   0.332   5.282   1.778 -0.6585 -0.6343 -1.0914
  754SOL     OW 2512   6.252   3.544   4.342  0.2623 -0.8655  0.1665
  754SOL    HW1 2513   6.341   3.547   4.379 -0.1451  1.8912  1.2293
  754SOL    HW2 2514   6.242   3.629   4.299 -2.2534 -0.5731  1.1520
  755SOL     OW 2515   2.864   4.195   3.314 -0.1638  0.3502 -0.1984
  755SOL    HW1 2516   2.898   4.130   3.375 -1.3424  0.2871  0.4051
  755SOL    HW2 2517   2.811   4.254   3.368 -1.3909  0.1774 -1.1687
  756SOL     OW 2518   5.583   3.175   3.105 -0.0468 -0.1872  0.4109
  756SOL    HW1 2519   5.624   3.252   3.065 -3.0264  0.7724 -1.1350
  756SOL    HW2 2520   5.569   3.201   3.196 -1.7646  1.5668 -0.2739
  757SOL     OW 2521   2.787   4.400   0.157 -0.0060 -0.2811  0.2941
  757SOL    HW1 2522   2.875   4.379   0.127 -0.5663 -0.1295 -1.6065
  757SOL    HW2 2523   2.742   4.316   0.162 -0.3211 -0.1778 -0.7122
  758SOL     OW 2524   0.369   5.523   4.310  0.6376  0.5283 -0.2136
  758SOL    HW1 2525   0.432   5.502   4.241  1.5974 -0.1305  0.8265
  758SOL    HW2 2526   0.348   5.439   4.351 -0.8062  0.7544 -0.4157
  759SOL     OW 2527   5.370   5.151   4.382 -0.2638 -0.2433 -0.1625
  759SOL    HW1 2528   5.400   5.233   4.421 -1.9785 -0.4941  1.8884
  759SOL    HW2 2529   5.450   5.101   4.365  0.7258  1.3042 -0.2420
  760SOL     OW 2530   3.348   3.953   5.837  0.0647 -0.2655  0.0031
  760SOL    HW1 2531   3.438   3.971   5.867  0.4102  1.5852 -1.9124
  760SOL    HW2 2532   3.296   3.952   5.917  1.4703  0.9088  0.9916
  761SOL     OW 2533   2.334   2.539   1.505 -0.0333 -0.5192  0.1389
  761SOL    HW1 2534   2.401   2.604   1.484  0.8033 -0.9148  1.4931
  761SOL    HW2 2535   2.263   2.590   1.544  0.6771 -0.4079  1.3252
  762SOL     OW 2536   2.163   5.792   5.063 -0.9074  0.5422 -0.2796
  762SOL    HW1 2537   2.218   5.727   5.106 -0.2883  1.1004 -0.2179
  762SOL    HW2 2538   2.180   5.781   4.970  0.2012  1.4700 -0.2135
  763SOL     OW 2539   4.560   2.715   4.394  0.5135  0.4150 -0.4826
  763SOL    HW1 2540   4.544   2.719   4.299  0.1939 -0.5928 -0.4856
  763SOL    HW2 2541   4.490   2.658   4.427  0.0516  1.5297  0.5016
  764SOL     OW 2542   1.325   5.575   2.498 -0.1390  0.8706  0.1658
  764SOL    HW1 2543   1.364   5.609   2.418  0.2852  3.6672  1.4640
  764SOL    HW2 2544   1.242   5.623   2.507 -2.0317 -2.0074 -0.3806
  765SOL     OW 2545   3.011   6.232   5.089  0.5841  0.3230  0.4733
  765SOL    HW1 2546   3.055   6.248   5.006  0.7340  1.1517  0.6997
  765SOL    HW2 2547   2.918   6.226   5.067  0.7492 -0.9380  0.0600
  766SOL     OW 2548   3.776   4.589   6.083  0.0121 -0.3759 -0.1834
  766SOL    HW1 2549   3.850   4.633   6.126  0.1358  0.5970 -1.3086
  766SOL    HW2 2550   3.698   4.624   6.127  0.1614 -3.5027  2.9675
  767SOL     OW 2551   3.864   5.682   3.410 -0.0862 -0.2807  0.6184
  767SOL    HW1 2552   3.888   5.593   3.433  0.5883 -0.5402 -0.9404
  767SOL    HW2 2553   3.947   5.731   3.415 -0.3095  0.0866  0.7345
  768SOL     OW 2554   3.409   1.373   2.768  0.2684 -0.0202  0.3753
  768SOL    HW1 2555   3.393   1.285   2.800  0.4898 -0.0618  0.3777
  768SOL    HW2 2556   3.361   1.430   2.827  0.6353 -0.1003  0.7547
  769SOL     OW 2557   4.013   5.970   5.239 -0.0038  0.1406  0.7480
  769SOL    HW1 2558   3.968   6.039   5.287 -1.2813 -0.1262 -0.0097
  769SOL    HW2 2559   3.955   5.894   5.244 -0.4429  0.2499 -1.5862
  770SOL     OW 2560   1.679   5.187   2.139 -0.1023  0.6316 -0.6511
  770SOL    HW1 2561   1.625   5.112   2.165  0.5874 -0.3315 -1.8659
  770SOL    HW2 2562   1.754   5.184   2.198 -0.8224  1.3315  0.3333
  771SOL     OW 2563   3.670   2.726   2.755  0.0688  0.0722 -0.2524
  771SOL    HW1 2564   3.674   2.719   2.851  2.0784 -0.4084 -0.3209
  771SOL    HW2 2565   3.577   2.715   2.734 -0.2774 -0.8908  1.5706
  772SOL     OW 2566   4.969   0.800   1.460 -0.4789 -0.0277  0.3325
  772SOL    HW1 2567   4.905   0.825   1.526 -1.0148 -0.8040  0.1171
  772SOL    HW2 2568   4.939   0.716   1.427  0.3306 -0.1273 -0.1957
  773SOL     OW 2569   1.942   2.065   4.265  0.5074 -0.0815 -0.3379
  773SOL    HW1 2570   1.951   2.155   4.234  0.9073 -0.7190 -2.1879
  773SOL    HW2 2571   1.852   2.041   4.245  0.2435  0.0390  0.6226
  774SOL     OW 2572   1.533   5.285   0.500 -0.4432  0.6656  0.1558
  774SOL    HW1 2573   1.446   5.324   0.510 -0.4550  1.3379 -1.9579
  774SOL    HW2 2574   1.520   5.192   0.515 -1.8052  0.5828 -1.3389
  775SOL     OW 2575   4.549   0.588   3.791  0.1537 -0.0326  0.0572
  775SOL    HW1 2576   4.638   0.607   3.821  0.3541  0.8181 -1.0209
  775SOL    HW2 2577   4.543   0.631   3.706 -0.8516 -1.2153 -0.4956
  776SOL     OW 2578   0.300   4.427   5.696  0.2766 -0.2222 -0.1112
  776SOL    HW1 2579   0.222   4.383   5.663 -0.5248 -0.7024  2.2341
  776SOL    HW2 2580   0.281   4.521   5.687  0.5228 -0.3095 -1.8566
  777SOL     OW 2581   2.420   6.219   6.073 -0.1946  0.0604  0.2790
  777SOL    HW1 2582   2.374   6.150   6.024 -0.7299 -0.0521  0.9222
  777SOL    HW2 2583   2.356   6.290   6.079  0.0196  0.2391  0.4416
  778SOL     OW 2584   5.429   0.916   1.201 -0.2673  0.2869 -0.0594
  778SOL    HW1 2585   5.440   0.822   1.189  1.1027  0.1736  1.5661
  778SOL    HW2 2586   5.370   0.943   1.131 -1.4887 -1.9322  0.0357
  779SOL     OW 2587   6.098   0.539   5.505 -0.0416  0.3841 -0.1125
  779SOL    HW1 2588   6.183   0.568   5.471 -0.8862 -0.0026 -2.8448
  779SOL    HW2 2589   6.119   0.495   5.588  2.2187  1.5580  0.0149
  780SOL     OW 2590   5.902   2.561   3.261  0.3351 -0.1625  0.1076
  780SOL    HW1 2591   5.891   2.474   3.299  3.0857 -0.3838  0.6147
  780SOL    HW2 2592   5.838   2.616   3.307 -1.9476 -1.9816 -0.7279
  781SOL     OW 2593   6.227   0.555   4.662 -0.6039  0.5755 -0.4192
  781SOL    HW1 2594   6.275   0.509   4.593 -1.7687  1.0139 -1.5670
  781SOL    HW2 2595   6.276   0.635   4.677  1.2803 -0.8266  1.3782
  782SOL     OW 2596   1.972   5.874   6.051  0.2732  0.9359 -0.7670
  782SOL    HW1 2597   2.047   5.933   6.062 -0.0376  0.9433  1.9011
  782SOL    HW2 2598   1.897   5.932   6.040 -0.1264  1.2226  2.4691
  783SOL     OW 2599   5.573   5.236   2.556 -0.0670  0.3413  0.1614
  783SOL    HW1 2600   5.493   5.224   2.607 -0.1016 -1.2398 -0.2273
  783SOL    HW2 2601   5.542   5.259   2.468 -0.1012 -0.4309 -0.0298
  784SOL     OW 2602   3.147   0.014   2.722  0.6542  0.2633  0.4312
  784SOL    HW1 2603   3.132  -0.047   2.650 -1.3491 -0.6170  1.5006
  784SOL    HW2 2604   3.060   0.048   2.743  0.9926 -0.2205  3.0233
  785SOL     OW 2605   3.794   1.161   5.744  0.3392 -0.2442  0.5743
  785SOL    HW1 2606   3.738   1.086   5.765 -1.1269  0.8544  0.7860
  785SOL    HW2 2607   3.735   1.223   5.701  1.5323  0.7568  0.3252
  786SOL     OW 2608   1.964   1.937   1.359 -0.4655  0.4258 -0.0054
  786SOL    HW1 2609   1.927   1.855   1.325  1.3533 -0.8090  0.8094
  786SOL    HW2 2610   2.003   1.912   1.443 -1.3090  2.5144  1.0959
  787SOL     OW 2611   2.469   3.380   0.241  0.2182 -0.1614 -0.2939
  787SOL    HW1 2612   2.490   3.460   0.194 -1.2894  0.6685  0.3732
  787SOL    HW2 2613   2.373   3.377   0.242  0.2275 -1.0773  1.1667
  788SOL     OW 2614   5.161   5.002   4.300 -0.2994  1.2583  0.2242
  788SOL    HW1 2615   5.245   5.046   4.314 -0.0848  1.3923 -1.3485
  788SOL    HW2 2616   5.098   5.074   4.288 -0.6000  1.1542  1.1035
  789SOL     OW 2617   4.102   3.923   5.730 -0.4072  0.2264 -0.0364
  789SOL    HW1 2618   4.107   4.016   5.751 -0.8635  0.1684  0.3489
  789SOL    HW2 2619   4.128   3.879   5.811  0.0105  0.0176 -0.2794
  790SOL     OW 2620   4.804   3.864   1.114 -0.0145  0.5587 -0.0117
  790SOL    HW1 2621   4.888   3.873   1.069 -0.1257  0.9844 -0.1402
  790SOL    HW2 2622   4.760   3.793   1.068  0.2718  0.3408  0.0505
  791SOL     OW 2623   1.616   0.754   4.819  0.1289  0.1456  0.3449
  791SOL    HW1 2624   1.633   0.848   4.832  2.6287 -0.1295 -0.3322
  791SOL    HW2 2625   1.654   0.735   4.733 -2.1568 -1.1207 -0.4649
  792SOL     OW 2626   5.986   5.170   5.542  0.4213 -0.1362 -0.1241
  792SOL    HW1 2627   5.966   5.104   5.608  1.6092  0.3559  0.7902
  792SOL    HW2 2628   6.081   5.163   5.530  0.6860  1.7552  0.4621
  793SOL     OW 2629   5.718   4.194   4.515  0.2875 -0.1237 -0.1733
  793SOL    HW1 2630   5.774   4.141   4.571  0.2659  0.2666  0.2196
  793SOL    HW2 2631   5.777   4.231   4.449  0.7444  1.2940  0.9638
  794SOL     OW 2632   5.039   1.772   3.949 -0.4376 -0.0711  0.1421
  794SOL    HW1 2633   5.117   1.757   4.001  0.1138  4.4521  1.0511
  794SOL    HW2 2634   5.069   1.823   3.874 -2.1838 -0.7079 -1.0696
  795SOL     OW 2635   2.993   0.555   3.654  0.1020 -0.0718 -0.1940
  795SOL    HW1 2636   2.996   0.627   3.717  0.4669  1.5116 -1.9450
  795SOL    HW2 2637   3.013   0.596   3.570 -0.8204 -2.0311 -1.4314
  796SOL     OW 2638   0.978   0.337   4.616  0.0445  0.2064 -0.4976
  796SOL    HW1 2639   1.072   0.356   4.615  0.3727 -1.2547 -0.2827
  796SOL    HW2 2640   0.965   0.285   4.696 -0.7446 -0.5322 -1.0885
  797SOL     OW 2641   6.081   0.778   0.999  0.1675  0.0270  0.3639
  797SOL    HW1 2642   6.037   0.862   1.013  0.1267  0.0086  0.3443
  797SOL    HW2 2643   6.157   0.800   0.945 -0.0697 -0.0102  0.0081
  798SOL     OW 2644   1.538   3.587   2.213 -0.4663  0.1266 -0.5090
  798SOL    HW1 2645   1.588   3.656   2.169 -0.4501  0.9997  0.8076
  798SOL    HW2 2646   1.509   3.530   2.143 -0.3678  1.4044 -1.6345
  799SOL     OW 2647   4.325   3.666   1.954  0.3468 -0.1793 -1.1694
  799SOL    HW1 2648   4.402   3.613   1.934 -0.0536 -1.3240  0.1702
  799SOL    HW2 2649   4.267   3.607   2.002  0.5570  1.8419  1.8387
  800SOL     OW 2650   0.135   5.887   4.481  0.1689 -0.7969  0.3001
  800SOL    HW1 2651   0.072   5.908   4.550 -1.1125 -0.7296 -0.8540
  800SOL    HW2 2652   0.095   5.919   4.401  1.4965 -1.1411 -0.5336
  801SOL     OW 2653   2.950   5.550   2.202 -1.1137  0.3840  0.1420
  801SOL    HW1 2654   2.987   5.589   2.281 -0.6761  1.2564 -0.4835
  801SOL    HW2 2655   2.938   5.623   2.142 -2.0211 -0.1849 -0.3841
  802SOL     OW 2656   3.803   1.282   5.404 -0.2982  0.1918 -0.0645
  802SOL    HW1 2657   3.746   1.241   5.469  0.6673  0.5973  1.0782
  802SOL    HW2 2658   3.834   1.210   5.350  0.7464 -0.5227  1.4219
  803SOL     OW 2659   2.026   1.531   1.573 -0.2130  0.2165 -0.0659
  803SOL    HW1 2660   1.963   1.567   1.511 -0.7327 -1.6604 -0.6678
  803SOL    HW2 2661   1.980   1.460   1.617  1.8779 -2.3427 -1.6932
  804SOL     OW 2662   5.235   2.668   1.760 -0.6112 -0.3676  0.3894
  804SOL    HW1 2663   5.195   2.716   1.832 -1.8625 -1.1207  0.2281
  804SOL    HW2 2664   5.206   2.578   1.772 -1.7113 -0.3498 -1.5791
  805SOL     OW 2665   1.766   2.601   4.912 -0.2570  0.0214  0.4243
  805SOL    HW1 2666   1.694   2.591   4.851  0.1072  1.2210 -0.2517
  805SOL    HW2 2667   1.837   2.550   4.874 -0.7702 -1.2910  1.1731
  806SOL     OW 2668   0.081   0.764   5.034 -0.6850  0.3383 -0.1299
  806SOL    HW1 2669   0.129   0.842   5.063 -1.5074  1.5202 -1.8078
  806SOL    HW2 2670   0.146   0.694   5.037  0.7782  1.5968 -0.8854
  807SOL     OW 2671   0.764   3.671   5.807  0.4829  0.0353  0.3884
  807SOL    HW1 2672   0.673   3.668   5.835  0.4896  0.0388  0.4103
  807SOL    HW2 2673   0.813   3.627   5.877  0.6778  1.3693  1.1144
  808SOL     OW 2674   5.624   5.831   1.376 -0.4517  0.0284 -0.0641
  808SOL    HW1 2675   5.590   5.918   1.357 -1.9874 -0.6253 -0.5407
  808SOL    HW2 2676   5.626   5.786   1.292 -0.9976 -0.8152  0.3489
  809SOL     OW 2677   3.708   6.093   5.927 -0.2668  0.0903 -0.2327
  809SOL    HW1 2678   3.794   6.130   5.906  0.3406 -1.1500 -0.0050
  809SOL    HW2 2679   3.651   6.122   5.855  0.6454 -0.1423 -1.0637
  810SOL     OW 2680   4.225   1.796   2.014 -0.0229  0.0808 -0.0002
  810SOL    HW1 2681   4.130   1.791   2.016 -0.0021 -0.4374 -0.1295
  810SOL    HW2 2682   4.255   1.719   2.062  0.3396  0.9586  1.2378
  811SOL     OW 2683   1.382   4.464   4.762 -0.6286 -0.0721 -0.2619
  811SOL    HW1 2684   1.389   4.534   4.698 -2.6635  0.0543 -0.4246
  811SOL    HW2 2685   1.438   4.394   4.728  0.5465  1.0382 -0.6740
  812SOL     OW 2686   0.713   1.821   0.272  0.0188  0.2390 -0.0329
  812SOL    HW1 2687   0.804   1.818   0.301 -0.2001 -0.6250  0.5985
  812SOL    HW2 2688   0.663   1.832   0.353 -0.4120  1.4375 -0.4439
  813SOL     OW 2689   3.680   4.424   2.410  0.3467  0.0549  0.0446
  813SOL    HW1 2690   3.689   4.396   2.319 -1.2408 -0.6483  0.0662
  813SOL    HW2 2691   3.605   4.374   2.444 -1.8883  3.3300  0.4706
  814SOL     OW 2692   3.877   4.391   5.334  0.1066 -0.1334 -0.0692
  814SOL    HW1 2693   3.901   4.306   5.299 -0.0422  0.1525 -0.8831
  814SOL    HW2 2694   3.910   4.390   5.425  2.9463  0.1063 -0.9795
  815SOL     OW 2695   2.278   2.698   3.887 -0.1997 -0.6116  0.4359
  815SOL    HW1 2696   2.206   2.646   3.921 -1.4825  1.5071  1.2120
  815SOL    HW2 2697   2.247   2.730   3.802  0.1697 -0.3822  0.3798
  816SOL     OW 2698   4.535   5.057   2.652  0.5631  0.0777 -0.2583
  816SOL    HW1 2699   4.491   5.032   2.733  0.4378 -0.5123 -0.4975
  816SOL    HW2 2700   4.520   4.982   2.594  0.5380  0.5503 -0.8669
  817SOL     OW 2701   2.173   1.251   0.608 -0.0895 -0.2382  0.8618
  817SOL    HW1 2702   2.217   1.195   0.673  1.6443 -1.3554 -1.1744
  817SOL    HW2 2703   2.235   1.321   0.591 -0.8134  0.4084  0.8388
  818SOL     OW 2704   2.468   5.895   5.292 -0.2770 -0.6051  0.1966
  818SOL    HW1 2705   2.445   5.816   5.242 -1.4657  0.2124 -0.6256
  818SOL    HW2 2706   2.557   5.916   5.265  0.1371 -1.8071  0.6154
  819SOL     OW 2707   2.254   4.415   4.599 -0.2025 -0.3473  0.2255
  819SOL    HW1 2708   2.237   4.509   4.592  1.4076 -0.1531 -2.5283
  819SOL    HW2 2709   2.182   4.381   4.653 -1.9484  2.1465 -0.3665
  820SOL     OW 2710   0.982   0.088   1.119  0.1342 -0.1807  0.5197
  820SOL    HW1 2711   0.997   0.135   1.037 -1.5339 -0.4872 -0.0035
  820SOL    HW2 2712   0.982   0.156   1.186  1.6647  0.0562  0.3136
  821SOL     OW 2713   0.468   3.084   4.056  0.4675  0.5499  0.5412
  821SOL    HW1 2714   0.532   3.154   4.069 -0.3819  1.1531  1.6658
  821SOL    HW2 2715   0.511   3.005   4.087  0.9505  0.7993  0.5213
  822SOL     OW 2716   6.180   0.204   1.849  0.1724 -0.1347  0.4229
  822SOL    HW1 2717   6.139   0.290   1.846  1.3985  0.4372 -1.0835
  822SOL    HW2 2718   6.260   0.213   1.798  1.2205 -1.7215  1.6851
  823SOL     OW 2719   5.641   0.283   4.255  0.4785  0.1440  0.9188
  823SOL    HW1 2720   5.622   0.195   4.287 -2.2801  0.3952  0.2075
  823SOL    HW2 2721   5.557   0.328   4.254  0.9603  1.3898 -2.9138
  824SOL     OW 2722   1.800   1.797   5.846 -0.0692  0.0221 -0.1531
  824SOL    HW1 2723   1.877   1.842   5.879  0.9167 -2.6474  1.5088
  824SOL    HW2 2724   1.782   1.729   5.911 -2.1699 -1.2082 -1.8821
  825SOL     OW 2725   3.147   3.784   0.574  0.2067 -0.2365 -0.1849
  825SOL    HW1 2726   3.074   3.724   0.559 -0.5509  0.7053 -0.4068
  825SOL    HW2 2727   3.211   3.733   0.623 -1.9895 -0.2102  3.0414
  826SOL     OW 2728   5.334   5.852   1.857 -0.5770  0.1646  0.4158
  826SOL    HW1 2729   5.304   5.943   1.863 -0.7455  0.0678  1.2245
  826SOL    HW2 2730   5.371   5.844   1.769 -0.7436  0.9583  0.2675
  827SOL     OW 2731   4.828   0.073   2.993 -0.3253  0.1002  0.4970
  827SOL    HW1 2732   4.924   0.072   2.990 -0.3512 -0.2936 -0.5044
  827SOL    HW2 2733   4.807   0.048   3.083  0.5004 -1.2340  0.3404
  828SOL     OW 2734   0.107   1.555   3.385 -0.2051  0.4076 -0.1103
  828SOL    HW1 2735   0.124   1.643   3.417 -1.6683  1.0139 -0.9401
  828SOL    HW2 2736   0.118   1.499   3.462 -0.1029  1.3949  0.6079
  829SOL     OW 2737   3.774   1.436   4.150 -0.4186 -0.4177 -0.2878
  829SOL    HW1 2738   3.731   1.427   4.235 -0.5422  1.3056 -0.1293
  829SOL    HW2 2739   3.703   1.457   4.090  0.0901  2.1709 -0.0762
  830SOL     OW 2740   1.830   2.629   1.294 -0.4683  0.2597  0.6914
  830SOL    HW1 2741   1.770   2.676   1.235 -0.4834  0.9623  1.2491
  830SOL    HW2 2742   1.895   2.694   1.319 -0.3874 -0.0610  1.3482
  831SOL     OW 2743   4.547   5.134   5.721  0.1101 -0.1367  0.1484
  831SOL    HW1 2744   4.556   5.039   5.708  0.1791  0.0773 -1.5694
  831SOL    HW2 2745   4.636   5.168   5.710  0.1159  0.1215  0.9471
  832SOL     OW 2746   0.210   1.123   5.706 -0.1243  0.0635 -0.9934
  832SOL    HW1 2747   0.146   1.107   5.775  2.6318 -0.8374  1.6054
  832SOL    HW2 2748   0.194   1.053   5.642 -1.5443 -0.2587 -0.3292
  833SOL     OW 2749   0.785   0.780   1.703 -0.3440 -0.1117 -0.0377
  833SOL    HW1 2750   0.744   0.706   1.658 -1.2373  0.4227 -0.1169
  833SOL    HW2 2751   0.762   0.857   1.650  1.2094  0.1555 -0.3805
  834SOL     OW 2752   3.003   3.811   1.455 -0.2306  0.0255  0.2962
  834SOL    HW1 2753   2.995   3.891   1.507  3.7541  0.9435 -0.1876
  834SOL    HW2 2754   2.993   3.839   1.364 -1.3389 -0.5280  0.2292
  835SOL     OW 2755   4.151   4.458   4.214  0.2314  0.0510 -0.1437
  835SOL    HW1 2756   4.168   4.371   4.250 -1.3376 -0.1238  0.2471
  835SOL    HW2 2757   4.166   4.449   4.120  1.7931 -0.1690  0.1012
  836SOL     OW 2758   2.263   2.696   6.139  0.5013  0.1101  0.4615
  836SOL    HW1 2759   2.290   2.667   6.226  0.0104  0.8573  0.8720
  836SOL    HW2 2760   2.327   2.764   6.116  0.7176 -0.1914  0.1781
  837SOL     OW 2761   6.021   2.544   3.896  0.0320 -0.4194 -0.4259
  837SOL    HW1 2762   6.090   2.480   3.880  0.5432 -0.3543  1.3140
  837SOL    HW2 2763   5.942   2.504   3.860  0.7356 -1.0608 -1.3009
  838SOL     OW 2764   6.200   4.201   6.170  0.8644  0.1802  0.5765
  838SOL    HW1 2765   6.248   4.124   6.140  0.0040  0.4342 -1.5627
  838SOL    HW2 2766   6.268   4.260   6.203  1.6605 -0.9007  0.9378
  839SOL     OW 2767   2.877   2.536   5.440  0.2534 -0.1171  0.3977
  839SOL    HW1 2768   2.917   2.542   5.353 -0.4469 -1.2796 -0.0292
  839SOL    HW2 2769   2.876   2.442   5.459 -0.6090  0.0350  1.1789
  840SOL     OW 2770   5.224   2.301   1.373  0.2852  0.1524  0.3239
  840SOL    HW1 2771   5.140   2.331   1.408 -0.0586  0.9322 -1.1097
  840SOL    HW2 2772   5.207   2.213   1.340 -0.2380  0.6620 -0.8158
  841SOL     OW 2773   2.886   1.244   3.160 -0.1354  0.4566 -0.2253
  841SOL    HW1 2774   2.932   1.260   3.243 -0.0262  1.3878 -0.4530
  841SOL    HW2 2775   2.925   1.163   3.127  0.7989  0.8146 -0.0355
  842SOL     OW 2776   5.543   3.570   5.985 -0.3328  0.1609  1.0041
  842SOL    HW1 2777   5.548   3.616   6.069  1.9270 -0.0987  1.0647
  842SOL    HW2 2778   5.628   3.585   5.944 -2.1021  2.1918 -2.3232
  843SOL     OW 2779   6.038   5.226   6.024 -0.0405 -0.3030  0.2473
  843SOL    HW1 2780   6.093   5.261   5.954 -0.4101 -1.0196 -0.4155
  843SOL    HW2 2781   6.099   5.187   6.087  0.2530 -0.2808 -0.0260
  844SOL     OW 2782   4.673   2.787   3.808  0.4511  0.7574 -0.1508
  844SOL    HW1 2783   4.734   2.777   3.881 -1.8045  0.6646  1.8456
  844SOL    HW2 2784   4.691   2.712   3.751  1.6351  0.3198  0.7584
  845SOL     OW 2785   0.027   0.605   5.547 -0.3365 -0.8989 -0.1428
  845SOL    HW1 2786   0.074   0.524   5.526  0.1448 -0.5051 -0.6094
  845SOL    HW2 2787   0.015   0.601   5.642  3.3269  0.3335  0.5543
  846SOL     OW 2788   3.042   5.631   4.407  0.0367  0.0543 -0.4027
  846SOL    HW1 2789   3.054   5.555   4.464  1.3242  0.9578  0.5870
  846SOL    HW2 2790   3.097   5.613   4.332  0.3395  0.0107 -0.1720
  847SOL     OW 2791   5.029   6.057   0.026  0.0241 -0.0860  0.2451
  847SOL    HW1 2792   4.987   6.009   0.098  1.8438 -0.6733  0.9632
  847SOL    HW2 2793   5.073   6.131   0.068  0.4383  0.0201 -0.3606
  848SOL     OW 2794   6.014   3.275   0.655  0.1824  0.2394 -0.2295
  848SOL    HW1 2795   6.073   3.235   0.718  0.3403  1.6331  0.5508
  848SOL    HW2 2796   6.037   3.235   0.571  1.9266  0.4275  0.1396
  849SOL     OW 2797   4.424   2.567   5.751  0.0804 -0.0435 -0.6950
  849SOL    HW1 2798   4.516   2.575   5.777 -0.3715 -0.6687  1.2985
  849SOL    HW2 2799   4.387   2.654   5.767  0.0265 -0.1640 -0.1449
  850SOL     OW 2800   2.266   5.855   0.529  0.1088  0.3315 -0.1552
  850SOL    HW1 2801   2.297   5.848   0.619  1.5727  0.4249 -0.6217
  850SOL    HW2 2802   2.181   5.899   0.536  0.6352  1.2066  1.1191
  851SOL     OW 2803   4.138   1.381   4.728 -0.2282 -0.1509 -0.3776
  851SOL    HW1 2804   4.165   1.309   4.671 -0.8642 -1.1642  0.5539
  851SOL    HW2 2805   4.212   1.393   4.788 -0.1169 -0.0196 -0.5408
  852SOL     OW 2806   3.274   5.549   1.849 -0.5883 -0.3345  0.8584
  852SOL    HW1 2807   3.278   5.605   1.926 -0.7847  0.2760  0.4257
  852SOL    HW2 2808   3.365   5.525   1.832 -0.5669 -0.6645  1.4152
  853SOL     OW 2809   0.006   0.169   4.093  0.5009  0.0325  0.0236
  853SOL    HW1 2810   0.042   0.240   4.146  1.5336  0.7190 -1.5477
  853SOL    HW2 2811   0.063   0.095   4.110  1.2122  0.4300 -0.5831
  854SOL     OW 2812   0.611   5.043   2.904 -0.2909 -0.1219 -0.1963
  854SOL    HW1 2813   0.541   5.102   2.930 -1.7392 -0.4244 -2.9641
  854SOL    HW2 2814   0.660   5.091   2.837  2.4219  0.1590  1.7916
  855SOL     OW 2815   4.214   1.294   1.402 -0.2597 -0.7001  0.1706
  855SOL    HW1 2816   4.126   1.322   1.428 -0.1464 -0.1631 -0.0173
  855SOL    HW2 2817   4.267   1.373   1.405 -0.4487 -0.3667 -2.6192
  856SOL     OW 2818   1.193   1.668   1.193  0.1191 -0.1409 -0.1341
  856SOL    HW1 2819   1.254   1.596   1.182 -0.3603 -0.4601 -0.7809
  856SOL    HW2 2820   1.234   1.743   1.149  0.4640 -0.1093  0.2445
  857SOL     OW 2821   5.887   3.862   1.570  0.6337  0.1493 -0.2332
  857SOL    HW1 2822   5.899   3.956   1.556  0.0828  0.5326  1.6391
  857SOL    HW2 2823   5.973   3.829   1.593  0.1578  1.0653  3.4045
  858SOL     OW 2824   2.487   2.407   3.101  0.8469 -0.1708 -0.0943
  858SOL    HW1 2825   2.492   2.415   3.196  0.3569  0.0862 -0.0873
  858SOL    HW2 2826   2.411   2.460   3.076  0.2066 -1.2378 -0.4972
  859SOL     OW 2827   1.550   3.511   1.669  0.5748  0.3532 -0.4587
  859SOL    HW1 2828   1.461   3.537   1.647  0.0756 -1.2197 -0.4255
  859SOL    HW2 2829   1.544   3.474   1.757  1.4503  1.1431 -0.0491
  860SOL     OW 2830   4.725   3.836   6.069 -0.3928 -0.5151 -0.7093
  860SOL    HW1 2831   4.668   3.842   6.146  0.8648 -0.3196  0.2274
  860SOL    HW2 2832   4.811   3.815   6.103  0.5933  1.3009 -1.8757
  861SOL     OW 2833   1.221   4.411   2.737  0.5623  0.7216  0.5000
  861SOL    HW1 2834   1.187   4.427   2.648  0.6920 -1.1102  0.0841
  861SOL    HW2 2835   1.154   4.446   2.795  0.0040  1.0465 -0.3225
  862SOL     OW 2836   3.040   1.638   0.058 -0.7279 -0.4351  0.1953
  862SOL    HW1 2837   3.013   1.677   0.142  1.1821  1.2797  0.0684
  862SOL    HW2 2838   3.074   1.552   0.082 -2.1562 -0.8430  0.8786
  863SOL     OW 2839   3.037   5.212   3.916  0.4684  0.7361  0.4697
  863SOL    HW1 2840   2.966   5.276   3.912 -1.7300 -1.5194  0.5841
  863SOL    HW2 2841   3.026   5.170   4.002  1.1255 -0.5111 -0.0273
  864SOL     OW 2842   5.055   3.048   6.020 -0.2306  0.4866 -0.4014
  864SOL    HW1 2843   5.022   3.137   6.005  0.1881  0.9262  1.1256
  864SOL    HW2 2844   5.047   3.036   6.115  0.1874 -0.9302 -0.5321
  865SOL     OW 2845   2.428   5.338   0.913 -0.0117 -0.0406 -0.2201
  865SOL    HW1 2846   2.394   5.362   0.826  0.6011  0.1093 -0.4240
  865SOL    HW2 2847   2.511   5.294   0.895  1.0672  1.6447  0.3427
  866SOL     OW 2848   5.821   1.886   2.572 -0.1393 -0.2280  0.3279
  866SOL    HW1 2849   5.890   1.943   2.540  0.8969 -1.3513  0.4830
  866SOL    HW2 2850   5.847   1.798   2.543 -1.3637 -0.7111  0.6186
  867SOL     OW 2851   5.410   1.380   0.613 -0.4422 -1.0477  0.2321
  867SOL    HW1 2852   5.475   1.433   0.568 -0.9820 -2.0220 -1.8223
  867SOL    HW2 2853   5.450   1.293   0.620 -1.0568 -1.3660 -0.0391
  868SOL     OW 2854   0.661   3.805   4.012  0.4207 -0.3928  0.0246
  868SOL    HW1 2855   0.577   3.759   4.010  0.1803 -0.0181  0.9382
  868SOL    HW2 2856   0.671   3.833   4.103  0.0867  2.2038 -0.6301
  869SOL     OW 2857   4.587   0.890   3.974  0.1351  0.2773  0.2908
  869SOL    HW1 2858   4.635   0.870   4.054  1.4110  2.6303  0.1978
  869SOL    HW2 2859   4.654   0.891   3.905 -0.7843 -0.7199 -0.6521
  870SOL     OW 2860   2.887   1.535   4.537 -0.0152 -0.1474 -0.2721
  870SOL    HW1 2861   2.958   1.528   4.474 -0.8126 -1.9231 -1.0745
  870SOL    HW2 2862   2.817   1.581   4.490  0.3321  0.9519  0.2660
  871SOL     OW 2863   6.300   3.964   6.035 -0.1762  0.3595  0.1544
  871SOL    HW1 2864   6.221   3.918   6.008  0.4356 -0.2666 -0.6219
  871SOL    HW2 2865   6.343   3.988   5.953  0.1033  1.2817  0.5630
  872SOL     OW 2866   0.589   0.091   3.976  0.6431  0.0712  0.1706
  872SOL    HW1 2867   0.612   0.160   3.914 -1.3470 -0.2846 -1.0431
  872SOL    HW2 2868   0.576   0.136   4.059  0.8060  0.9454 -0.2634
  873SOL     OW 2869   3.068   4.370   4.835 -0.2594  0.1481  0.3202
  873SOL    HW1 2870   3.103   4.356   4.747  1.7588  3.0808  0.5052
  873SOL    HW2 2871   3.126   4.320   4.892  0.0540  0.3382  0.1724
  874SOL     OW 2872   6.121   5.147   1.139  0.0280  0.4520  0.1613
  874SOL    HW1 2873   6.179   5.192   1.078  0.2897  0.2352  0.2514
  874SOL    HW2 2874   6.169   5.069   1.165  0.1710  0.8455  1.1107
  875SOL     OW 2875   3.912   2.228   2.686 -0.3531 -0.4973 -0.0775
  875SOL    HW1 2876   3.951   2.315   2.680  1.2122 -0.9923  1.7113
  875SOL    HW2 2877   3.855   2.233   2.763 -1.4317 -0.6651 -0.8459
  876SOL     OW 2878   4.276   4.404   2.041 -0.6946 -0.4640 -0.3558
  876SOL    HW1 2879   4.287   4.499   2.045 -0.0455 -0.5654  0.8595
  876SOL    HW2 2880   4.192   4.392   1.997 -0.3899  0.6398 -1.2949
  877SOL     OW 2881   0.308   4.421   5.047  0.4761  0.0573 -0.2985
  877SOL    HW1 2882   0.348   4.346   5.003 -1.0331  0.3013 -2.1717
  877SOL    HW2 2883   0.228   4.439   4.998 -0.4247  1.4448  1.5328
  878SOL     OW 2884   2.815   2.314   5.820  0.0442 -0.2425  0.4123
  878SOL    HW1 2885   2.893   2.346   5.775  0.2828  0.5118  1.3374
  878SOL    HW2 2886   2.848   2.270   5.898 -0.4908  1.5795  1.7294
  879SOL     OW 2887   0.395   4.291   3.674 -0.0756  0.9439  0.5828
  879SOL    HW1 2888   0.488   4.269   3.680 -0.2274  0.3958  0.9962
  879SOL    HW2 2889   0.369   4.311   3.764 -0.5907  0.1199  0.6192
  880SOL     OW 2890   1.688   3.320   0.751  0.6211 -0.1370 -0.3279
  880SOL    HW1 2891   1.716   3.405   0.786 -0.3488 -0.5638  1.6154
  880SOL    HW2 2892   1.640   3.279   0.823 -0.6264 -1.5227 -1.8722
  881SOL     OW 2893   1.864   2.584   5.246 -0.4395 -0.4755 -0.0455
  881SOL    HW1 2894   1.872   2.679   5.257 -0.4146 -0.4930  0.0856
  881SOL    HW2 2895   1.778   2.571   5.207 -0.2454 -0.3612 -0.5209
  882SOL     OW 2896   3.516   5.537   2.224 -0.0390  0.3157  0.1480
  882SOL    HW1 2897   3.500   5.581   2.307 -0.7631 -1.1244  0.8053
  882SOL    HW2 2898   3.588   5.476   2.242  1.7640  1.9505 -1.0497
  883SOL     OW 2899   5.188   0.623   3.035  0.2675 -0.2190  0.1534
  883SOL    HW1 2900   5.212   0.687   2.967  1.0628 -0.7303 -0.0630
  883SOL    HW2 2901   5.182   0.674   3.115  1.0024  0.1273  0.0004
  884SOL     OW 2902   5.518   2.510   2.531  0.8563  0.2838 -0.5538
  884SOL    HW1 2903   5.564   2.544   2.454  0.4730 -0.4812 -1.1328
  884SOL    HW2 2904   5.586   2.464   2.581  1.0030  0.3277 -0.7107
  885SOL     OW 2905   0.192   4.698   2.747  0.8165 -0.5315 -0.0525
  885SOL    HW1 2906   0.124   4.702   2.815  2.1968 -0.3281  1.3766
  885SOL    HW2 2907   0.154   4.743   2.672 -1.3509 -2.0815  0.0243
  886SOL     OW 2908   1.676   4.645   3.768  0.5425  0.2254 -0.7099
  886SOL    HW1 2909   1.686   4.563   3.816  1.6006 -0.0989 -1.4516
  886SOL    HW2 2910   1.582   4.660   3.765  0.1098 -2.2613 -2.6837
  887SOL     OW 2911   0.133   4.160   3.644  0.4621  0.3159 -0.2268
  887SOL    HW1 2912   0.219   4.141   3.683  1.1576  1.9221 -0.8719
  887SOL    HW2 2913   0.154   4.192   3.556 -0.8319  0.3026 -0.5518
  888SOL     OW 2914   3.121   0.286   3.367 -0.1638  0.0287 -0.2806
  888SOL    HW1 2915   3.059   0.348   3.327  2.2425  2.1538 -0.9547
  888SOL    HW2 2916   3.188   0.341   3.407  1.7521 -2.1317 -0.3032
  889SOL     OW 2917   0.147   0.462   1.485 -0.2214  0.2027  0.0050
  889SOL    HW1 2918   0.233   0.500   1.499  0.7094  0.4530 -4.7105
  889SOL    HW2 2919   0.097   0.530   1.441 -1.4155 -1.2656 -1.0222
  890SOL     OW 2920   3.229   0.837   5.142 -0.5909 -0.3732 -0.1289
  890SOL    HW1 2921   3.182   0.902   5.195  0.3936  0.3254 -0.0759
  890SOL    HW2 2922   3.205   0.753   5.180 -3.2031 -0.1959 -1.2426
  891SOL     OW 2923   0.036   5.720   2.720  0.5644 -0.1671  0.1054
  891SOL    HW1 2924   0.022   5.646   2.662  0.2877 -0.7088  0.8390
  891SOL    HW2 2925   0.019   5.684   2.808  1.6346  0.4475  0.5742
  892SOL     OW 2926   1.421   2.159   3.543 -0.7155 -0.1094  0.3677
  892SOL    HW1 2927   1.358   2.204   3.599 -0.5641 -0.7563  1.0684
  892SOL    HW2 2928   1.479   2.114   3.604 -0.0664 -0.1797 -0.2949
  893SOL     OW 2929   1.369   1.820   1.012 -0.0790  0.7366 -0.0755
  893SOL    HW1 2930   1.299   1.851   0.955  0.3412 -0.0615 -1.0566
  893SOL    HW2 2931   1.432   1.780   0.952  0.2836 -0.3019  0.9783
  894SOL     OW 2932   4.438   1.449   4.786 -0.5895  0.0420 -0.1041
  894SOL    HW1 2933   4.451   1.531   4.834 -1.3430 -0.2494  0.6422
  894SOL    HW2 2934   4.437   1.474   4.694  1.8727  0.4843 -0.0653
  895SOL     OW 2935   3.633   0.729   6.027 -0.0369 -0.1267  0.0335
  895SOL    HW1 2936   3.635   0.641   6.066 -2.5573 -1.1216 -1.7950
  895SOL    HW2 2937   3.659   0.787   6.098 -0.1937 -2.1785  1.8919
  896SOL     OW 2938   6.105   1.478   1.952 -0.1545 -0.4798  0.0315
  896SOL    HW1 2939   6.166   1.435   1.893  0.3706  0.7125 -0.3038
  896SOL    HW2 2940   6.156   1.498   2.030 -0.7686 -1.7704  0.8090
  897SOL     OW 2941   0.359   0.361   1.752 -0.1887  0.0515 -0.1420
  897SOL    HW1 2942   0.315   0.430   1.800  0.8567  0.0269  0.9006
  897SOL    HW2 2943   0.376   0.399   1.666  0.0455  0.9716  0.2952
  898SOL     OW 2944   3.987   6.113   5.796  0.1448  0.4284 -0.4398
  898SOL    HW1 2945   3.961   6.096   5.705  0.4214  0.5555 -0.5452
  898SOL    HW2 2946   3.964   6.033   5.843  1.1031 -0.1146 -0.8562
  899SOL     OW 2947   2.163   2.016   5.110  0.0320 -0.5977 -0.1681
  899SOL    HW1 2948   2.163   1.931   5.066  1.3888 -0.5377 -0.3505
  899SOL    HW2 2949   2.074   2.050   5.098 -0.9627 -2.5607  1.1085
  900SOL     OW 2950   2.430   5.702   0.317  0.3096  0.1436  0.4051
  900SOL    HW1 2951   2.510   5.703   0.370  0.4570  1.2287  0.1711
  900SOL    HW2 2952   2.367   5.755   0.366 -0.6594 -1.5747  1.1354
  901SOL     OW 2953   0.860   1.695   4.323  0.2824  0.2460  0.2076
  901SOL    HW1 2954   0.908   1.711   4.404 -1.7201  1.1054  1.2798
  901SOL    HW2 2955   0.785   1.643   4.350 -0.5690  0.7894 -1.0507
  902SOL     OW 2956   2.556   5.068   6.212  0.1380  0.3840 -0.1690
  902SOL    HW1 2957   2.593   5.012   6.144 -0.7506 -1.1797  0.5690
  902SOL    HW2 2958   2.541   5.152   6.169  1.0453 -0.0953 -1.4613
  903SOL     OW 2959   1.927   5.369   4.162 -0.2204 -0.1962 -0.3250
  903SOL    HW1 2960   1.995   5.434   4.180 -0.3622  0.9137 -3.1968
  903SOL    HW2 2961   1.913   5.325   4.245  4.8087 -1.3156  0.2461
  904SOL     OW 2962   1.634   5.418   0.270  0.2214 -0.4278  0.3162
  904SOL    HW1 2963   1.565   5.484   0.265  1.4409  0.8929 -0.0379
  904SOL    HW2 2964   1.611   5.364   0.345 -1.1660 -0.0131  0.2148
  905SOL     OW 2965   1.153   0.735   4.744  0.5678  0.2538 -0.5330
  905SOL    HW1 2966   1.106   0.770   4.819  0.3626  0.2902 -0.6756
  905SOL    HW2 2967   1.233   0.699   4.780  0.6982  0.7088 -0.3592
  906SOL     OW 2968   2.461   3.098   3.628 -0.2747  0.5213 -0.7569
  906SOL    HW1 2969   2.493   3.172   3.576  0.7317  2.1132  1.9481
  906SOL    HW2 2970   2.540   3.059   3.665 -1.0386  1.1404  1.6736
  907SOL     OW 2971   3.235   4.962   0.137 -0.1161 -0.5645  0.0684
  907SOL    HW1 2972   3.298   5.031   0.117  1.4626 -1.7195  0.8946
  907SOL    HW2 2973   3.179   4.958   0.060  0.6294  0.6898 -0.5710
  908SOL     OW 2974   2.924   4.980   0.687  0.1692 -0.0192 -0.3554
  908SOL    HW1 2975   2.983   5.053   0.706 -1.5775  1.2524  0.5118
  908SOL    HW2 2976   2.929   4.924   0.764  0.7134 -0.2607 -0.5636
  909SOL     OW 2977   2.487   4.786   2.446 -0.3261  0.0255  0.0030
  909SOL    HW1 2978   2.529   4.768   2.362 -2.3867 -3.1664 -0.5206
  909SOL    HW2 2979   2.539   4.738   2.510 -1.0707 -0.9659 -0.1138
  910SOL     OW 2980   0.837   0.436   0.456  0.1055  0.1956 -0.0203
  910SOL    HW1 2981   0.879   0.478   0.381  0.4233  1.1936  0.6933
  910SOL    HW2 2982   0.903   0.374   0.487 -0.5354 -1.2154 -1.3467
  911SOL     OW 2983   1.653   0.931   0.529  0.1058  0.2121 -0.5390
  911SOL    HW1 2984   1.728   0.986   0.506  0.2004  0.0319 -0.6578
  911SOL    HW2 2985   1.613   0.975   0.604  2.1896 -1.3474  1.6401
  912SOL     OW 2986   0.855   6.042   5.656  0.5010  0.1324 -0.1098
  912SOL    HW1 2987   0.854   6.119   5.713  1.1199 -0.1638  0.3147
  912SOL    HW2 2988   0.924   6.060   5.593  1.1793 -0.4080  0.4695
  913SOL     OW 2989   3.838   0.095   4.091 -0.1307 -0.1855  0.2322
  913SOL    HW1 2990   3.763   0.155   4.084 -0.4443 -0.4810  0.9933
  913SOL    HW2 2991   3.912   0.151   4.112 -0.3621 -0.0285  0.6295
  914SOL     OW 2992   1.468   5.306   6.099 -0.0620  0.0485  0.7354
  914SOL    HW1 2993   1.528   5.287   6.171 -0.0724  3.3683  1.7777
  914SOL    HW2 2994   1.381   5.308   6.138 -0.6862 -2.2962 -0.3071
  915SOL     OW 2995   3.169   2.457   3.962 -0.2906  0.1467 -0.2437
  915SOL    HW1 2996   3.167   2.384   3.901  2.8012  1.5027 -2.2401
  915SOL    HW2 2997   3.100   2.438   4.026 -2.9328 -1.9681 -3.4207
  916SOL     OW 2998   5.992   2.999   0.873  0.1395  0.3391  0.3232
  916SOL    HW1 2999   5.918   3.058   0.883 -0.0620  0.5333 -1.8943
  916SOL    HW2 3000   6.069   3.053   0.888 -0.0350  1.2642 -1.8674
  917SOL     OW 3001   1.488   1.515   5.219  0.7617 -0.2812 -0.3593
  917SOL    HW1 3002   1.533   1.543   5.299 -0.8828 -0.9590  0.8457
  917SOL    HW2 3003   1.481   1.420   5.228 -0.7748 -0.2031 -0.5930
  918SOL     OW 3004   4.279   3.462   1.243 -0.2700  0.4287  0.0084
  918SOL    HW1 3005   4.367   3.437   1.214 -0.7932 -1.5708 -0.0452
  918SOL    HW2 3006   4.230   3.380   1.241 -2.1163  1.4841  0.1477
  919SOL     OW 3007   0.557   3.524   5.189  0.0789 -0.3849  0.3104
  919SOL    HW1 3008   0.516   3.459   5.246  0.1385 -1.2788 -0.6276
  919SOL    HW2 3009   0.588   3.474   5.114 -2.1872  1.0368 -1.7311
  920SOL     OW 3010   2.391   5.167   3.790 -0.0286 -0.4862  0.4612
  920SOL    HW1 3011   2.449   5.130   3.724 -0.6127 -0.4806 -0.0641
  920SOL    HW2 3012   2.356   5.246   3.750 -3.3183 -2.3643 -0.8249
  921SOL     OW 3013   0.682   5.290   3.123  0.5455 -0.0946 -0.2957
  921SOL    HW1 3014   0.744   5.277   3.052  0.7735  0.5679 -0.2239
  921SOL    HW2 3015   0.596   5.292   3.081  0.5221 -1.3776 -0.3570
  922SOL     OW 3016   2.108   3.794   0.211 -0.0079 -0.9038 -0.3943
  922SOL    HW1 3017   2.164   3.852   0.262 -0.1082 -0.5649 -0.6635
  922SOL    HW2 3018   2.114   3.709   0.255 -0.6476 -0.4488  0.5837
  923SOL     OW 3019   3.525   5.427   1.807  0.6441  0.2757  0.1651
  923SOL    HW1 3020   3.620   5.426   1.817  0.5153  0.5780  1.7111
  923SOL    HW2 3021   3.507   5.368   1.734  2.1143  1.5213 -1.2615
  924SOL     OW 3022   3.785   3.077   4.299 -0.0023 -0.4678  0.1874
  924SOL    HW1 3023   3.857   3.126   4.339  0.3289 -0.7551 -0.0514
  924SOL    HW2 3024   3.708   3.103   4.350 -0.1163  1.4818 -0.8708
  925SOL     OW 3025   0.398   5.670   2.504 -0.4522  0.0449 -0.0881
  925SOL    HW1 3026   0.490   5.644   2.508 -0.1771  1.0441  0.4173
  925SOL    HW2 3027   0.378   5.699   2.593 -2.0874 -2.8014  0.5902
  926SOL     OW 3028   0.487   6.078   5.962 -0.6304 -0.1509 -0.1045
  926SOL    HW1 3029   0.502   5.991   5.927 -2.0794 -0.2002 -0.6548
  926SOL    HW2 3030   0.565   6.128   5.938 -0.1015 -1.1018 -0.3928
  927SOL     OW 3031   3.625   4.684   1.425 -0.3179  0.3472 -0.3466
  927SOL    HW1 3032   3.600   4.755   1.484 -2.5079  1.7587 -2.7082
  927SOL    HW2 3033   3.686   4.725   1.363  1.2944 -0.8732  0.3746
  928SOL     OW 3034   2.418   4.249   6.218  0.3595 -0.2998 -0.3851
  928SOL    HW1 3035   2.428   4.343   6.203 -2.2254 -0.0229 -0.7419
  928SOL    HW2 3036   2.394   4.213   6.133 -1.8905 -0.7218  0.3774
  929SOL     OW 3037   5.305   2.708   2.232 -0.1163  0.6414 -0.4997
  929SOL    HW1 3038   5.336   2.622   2.203 -1.4073  0.4987 -1.5790
  929SOL    HW2 3039   5.234   2.688   2.292  0.5094  0.9647  0.3580
  930SOL     OW 3040   4.850   1.200   0.887 -0.3684  0.1413  0.2714
  930SOL    HW1 3041   4.880   1.160   0.969  1.0888  1.8474  0.6482
  930SOL    HW2 3042   4.791   1.271   0.915 -1.0451 -0.2054 -0.2485
  931SOL     OW 3043   6.190   4.355   4.153 -0.2408 -0.4044 -0.2845
  931SOL    HW1 3044   6.169   4.447   4.165 -1.3300 -0.5843 -0.6475
  931SOL    HW2 3045   6.160   4.335   4.064 -0.9368 -1.3393  0.1399
  932SOL     OW 3046   2.236   2.289   4.165  0.0772  0.0304 -0.5107
  932SOL    HW1 3047   2.263   2.200   4.143 -1.2438 -0.1968 -1.2791
  932SOL    HW2 3048   2.228   2.334   4.081 -0.1985  0.5940 -0.1916
  933SOL     OW 3049   2.794   5.695   4.472 -0.1132  0.2331  0.4506
  933SOL    HW1 3050   2.883   5.697   4.437  0.7710  1.2194  2.5614
  933SOL    HW2 3051   2.747   5.760   4.421  0.0669 -0.9528 -1.3226
  934SOL     OW 3052   5.363   4.343   6.259 -0.1895  0.1537  0.4177
  934SOL    HW1 3053   5.290   4.390   6.300 -1.2306 -0.3379 -0.8222
  934SOL    HW2 3054   5.437   4.404   6.266 -0.7882  0.8000  1.3934
  935SOL     OW 3055   0.416   1.657   5.098  0.3243  0.3017 -0.2371
  935SOL    HW1 3056   0.436   1.568   5.130 -1.0117 -0.0363 -0.2766
  935SOL    HW2 3057   0.321   1.660   5.096  0.3546  1.8190 -0.0625
  936SOL     OW 3058   2.474   2.357   0.686  0.3832  1.0618 -0.1185
  936SOL    HW1 3059   2.422   2.362   0.605  0.2468  1.7913  0.0109
  936SOL    HW2 3060   2.431   2.289   0.738  2.0634 -1.4629 -1.7782
  937SOL     OW 3061   0.724   0.450   2.790 -0.3527 -0.4445  0.5104
  937SOL    HW1 3062   0.744   0.399   2.868  1.0648  1.7251  1.6704
  937SOL    HW2 3063   0.648   0.503   2.815 -0.1137  0.0008  0.2984
  938SOL     OW 3064   0.344   3.850   4.332  0.0933 -0.0350 -0.3410
  938SOL    HW1 3065   0.377   3.867   4.420 -2.1753 -0.5275  0.6886
  938SOL    HW2 3066   0.314   3.759   4.335  0.7680 -0.3438 -1.9250
  939SOL     OW 3067   4.668   4.177   2.275 -0.4143 -0.0218  0.4259
  939SOL    HW1 3068   4.637   4.086   2.279 -2.3011  0.5018 -0.7701
  939SOL    HW2 3069   4.602   4.222   2.222  0.2230  2.1668  1.3901
  940SOL     OW 3070   1.638   5.807   2.047 -0.0936 -0.5628  0.4329
  940SOL    HW1 3071   1.689   5.734   2.083  1.0680 -0.6063 -1.2046
  940SOL    HW2 3072   1.704   5.866   2.010 -1.1967 -0.9200 -2.3155
  941SOL     OW 3073   5.054   1.823   5.742  0.1084  0.2056 -0.1200
  941SOL    HW1 3074   5.105   1.833   5.661 -0.9852 -1.0602 -1.0234
  941SOL    HW2 3075   4.991   1.895   5.739 -0.9378 -0.6983 -1.2396
  942SOL     OW 3076   3.106   0.302   2.247 -0.1054 -0.1064 -0.3537
  942SOL    HW1 3077   3.100   0.295   2.151 -0.7263  0.3062 -0.3502
  942SOL    HW2 3078   3.052   0.378   2.269 -0.8194 -0.8196  0.4231
  943SOL     OW 3079   3.526   4.409   6.228 -0.1741 -0.0387  0.7229
  943SOL    HW1 3080   3.573   4.411   6.145  0.0543 -1.2140  0.8015
  943SOL    HW2 3081   3.570   4.474   6.283  0.9681 -0.6779  0.5912
  944SOL     OW 3082   4.613   1.153   1.150  0.4675 -0.1765  0.5864
  944SOL    HW1 3083   4.646   1.236   1.115  0.5189 -0.5319 -0.2334
  944SOL    HW2 3084   4.674   1.131   1.220  1.0802 -0.0535  0.1027
  945SOL     OW 3085   2.966   0.524   4.376  0.0409 -0.6981  0.2551
  945SOL    HW1 3086   2.986   0.505   4.468  0.5311 -0.2535  0.2470
  945SOL    HW2 3087   3.011   0.606   4.359  0.9534 -1.3757 -0.7169
  946SOL     OW 3088   5.778   1.181   6.173  0.4649 -0.2428  0.4719
  946SOL    HW1 3089   5.689   1.209   6.153  0.6866 -0.2069 -0.5139
  946SOL    HW2 3090   5.782   1.089   6.148  0.4147 -0.5292  1.4906
  947SOL     OW 3091   1.598   3.179   3.654  0.3247  0.3747 -0.4927
  947SOL    HW1 3092   1.562   3.133   3.730  1.3922 -1.5466 -1.0575
  947SOL    HW2 3093   1.555   3.139   3.579 -0.4567  2.0068 -0.9503
  948SOL     OW 3094   1.231   2.414   2.912  0.4436 -0.1528 -0.6017
  948SOL    HW1 3095   1.281   2.359   2.853  0.3163 -0.8045 -0.1069
  948SOL    HW2 3096   1.142   2.412   2.877  0.3166 -0.7403 -0.2451
  949SOL     OW 3097   0.270   2.482   2.276  0.1710 -0.4050 -0.1196
  949SOL    HW1 3098   0.285   2.564   2.230  0.9420  0.0508  0.9089
  949SOL    HW2 3099   0.176   2.466   2.267 -0.5005  1.9642  1.8553
  950SOL     OW 3100   2.186   1.879   0.935  0.5656  0.3544  0.1688
  950SOL    HW1 3101   2.182   1.803   0.994  2.2287 -0.1625 -0.3269
  950SOL    HW2 3102   2.095   1.906   0.926  0.0792 -0.6199  1.5924
  951SOL     OW 3103   3.882   5.567   5.295 -0.4739 -0.2717 -0.1421
  951SOL    HW1 3104   3.864   5.661   5.290 -0.7573 -0.3852 -2.1571
  951SOL    HW2 3105   3.812   5.532   5.350  0.3078  0.8232  1.6153
  952SOL     OW 3106   2.015   5.309   5.103 -0.1054  0.6940 -0.4605
  952SOL    HW1 3107   2.104   5.284   5.080 -0.8060 -1.2091 -1.3150
  952SOL    HW2 3108   1.986   5.366   5.031  0.6534  2.0012  0.2294
  953SOL     OW 3109   1.918   6.241   5.078 -0.2837 -0.9265  0.0465
  953SOL    HW1 3110   1.980   6.217   5.147 -0.8985 -0.5416  0.7555
  953SOL    HW2 3111   1.966   6.300   5.021 -0.2370  0.0447  1.0586
  954SOL     OW 3112   0.545   5.302   1.211  0.1142 -0.2721  0.0870
  954SOL    HW1 3113   0.466   5.347   1.240 -0.0001 -0.4030 -0.0191
  954SOL    HW2 3114   0.581   5.264   1.291  1.0853  1.3389  0.4550
  955SOL     OW 3115   0.729   1.646   1.357  0.4583  0.1574 -0.4750
  955SOL    HW1 3116   0.688   1.715   1.304 -0.8248 -0.9526 -0.9713
  955SOL    HW2 3117   0.733   1.570   1.299  1.4683 -0.3365  0.2023
  956SOL     OW 3118   2.130   2.722   5.562  0.3585  0.1171 -0.0269
  956SOL    HW1 3119   2.111   2.686   5.649  0.7163 -1.6064 -0.6256
  956SOL    HW2 3120   2.153   2.646   5.509  1.8963  1.3175 -1.1801
  957SOL     OW 3121   0.740   0.460   5.575  0.6245  0.2256  0.0541
  957SOL    HW1 3122   0.693   0.480   5.495  0.9446  0.3469 -0.1038
  957SOL    HW2 3123   0.810   0.399   5.548  0.2090 -0.4101  0.3789
  958SOL     OW 3124   4.192   2.759   4.128  0.5021 -0.4558 -0.2220
  958SOL    HW1 3125   4.132   2.764   4.202  0.3070 -0.6700 -0.3618
  958SOL    HW2 3126   4.135   2.765   4.051  0.7054 -0.1836 -0.3547
  959SOL     OW 3127   0.961   5.340   0.469  0.1558  0.1274 -0.1045
  959SOL    HW1 3128   1.039   5.285   0.479 -0.1305 -0.3258 -0.3146
  959SOL    HW2 3129   0.942   5.338   0.375  0.5769  1.2067 -0.2266
  960SOL     OW 3130   1.127   5.948   0.101 -0.2281  0.1592  0.1647
  960SOL    HW1 3131   1.172   5.891   0.038 -1.1085  0.0443 -0.3823
  960SOL    HW2 3132   1.119   5.895   0.180 -0.4100 -0.2361 -0.1121
  961SOL     OW 3133   3.850   3.948   3.837  0.3700  0.1587  0.1219
  961SOL    HW1 3134   3.770   3.999   3.843  0.3299  0.1885 -0.5683
  961SOL    HW2 3135   3.912   3.993   3.894  0.6523  1.5954 -1.2785
  962SOL     OW 3136   5.122   3.317   1.710 -0.0163 -0.3284  0.0253
  962SOL    HW1 3137   5.130   3.300   1.804  1.0894 -0.8675 -0.1561
  962SOL    HW2 3138   5.057   3.387   1.704 -0.4006 -0.5690  1.1633
  963SOL     OW 3139   0.317   3.337   4.327 -0.1650  0.2180 -0.2845
  963SOL    HW1 3140   0.363   3.301   4.403 -1.1362  0.2039  0.3193
  963SOL    HW2 3141   0.294   3.260   4.275 -1.9870 -0.0748  0.8608
  964SOL     OW 3142   6.158   2.807   1.900 -0.1442  0.1630  0.7741
  964SOL    HW1 3143   6.158   2.819   1.805 -0.4762  2.7288  1.0404
  964SOL    HW2 3144   6.215   2.731   1.914 -0.4536 -0.5716 -1.4835
  965SOL     OW 3145   2.174   4.254   5.040  0.2617 -0.3265 -0.1080
  965SOL    HW1 3146   2.194   4.285   5.129  0.2237 -0.4776 -0.0460
  965SOL    HW2 3147   2.090   4.295   5.019  0.9856  0.9205 -0.6716
  966SOL     OW 3148   0.567   3.101   6.094  0.0759 -0.3821  0.1787
  966SOL    HW1 3149   0.570   3.014   6.056 -1.4698 -1.1483  1.7040
  966SOL    HW2 3150   0.478   3.132   6.077  0.0233  0.1218  1.2824
  967SOL     OW 3151   0.098   5.710   6.165 -0.1803 -0.0470  0.0586
  967SOL    HW1 3152   0.030   5.665   6.114  0.0463 -0.4635  0.1147
  967SOL    HW2 3153   0.180   5.679   6.127 -0.0148  1.2139 -0.6708
  968SOL     OW 3154   1.496   1.079   3.516 -0.0014 -0.0318 -0.0307
  968SOL    HW1 3155   1.585   1.109   3.498  0.1426 -0.2831  0.2519
  968SOL    HW2 3156   1.459   1.148   3.571 -0.6607  1.0558 -1.7621
  969SOL     OW 3157   1.482   2.282   4.249 -0.3427 -0.4803  0.0223
  969SOL    HW1 3158   1.511   2.261   4.160 -0.1434 -0.0062 -0.0256
  969SOL    HW2 3159   1.556   2.326   4.289 -0.5371 -0.4275  0.3249
  970SOL     OW 3160   1.008   4.655   3.149 -0.2382 -0.1624 -0.0809
  970SOL    HW1 3161   1.046   4.739   3.176  1.9172 -0.3286 -2.1785
  970SOL    HW2 3162   0.917   4.675   3.130  0.3645  1.9413 -1.1705
  971SOL     OW 3163   1.066   1.120   4.090  0.2106 -0.0537 -0.0665
  971SOL    HW1 3164   1.135   1.152   4.032 -1.6257  0.9532 -1.8211
  971SOL    HW2 3165   1.010   1.196   4.106  0.4433 -0.3734  2.8371
  972SOL     OW 3166   3.476   3.503   0.771  0.0914 -0.2877  0.0957
  972SOL    HW1 3167   3.508   3.474   0.686  0.6319  0.4538  0.0300
  972SOL    HW2 3168   3.496   3.597   0.773 -1.9177  0.1795  0.1383
  973SOL     OW 3169   2.501   3.785   5.238 -0.0637 -0.3693 -0.3633
  973SOL    HW1 3170   2.428   3.754   5.292 -1.1395 -0.5453 -1.8540
  973SOL    HW2 3171   2.495   3.732   5.159  1.2483  0.1390 -0.8155
  974SOL     OW 3172   0.440   3.247   5.025 -0.4323 -0.7723  0.5266
  974SOL    HW1 3173   0.463   3.159   4.995  1.6389 -0.3907  0.8189
  974SOL    HW2 3174   0.424   3.236   5.119 -2.5267 -1.1984  0.1673
  975SOL     OW 3175   5.094   1.988   4.742  0.0618 -0.3695  0.3337
  975SOL    HW1 3176   5.160   1.974   4.810 -1.4289  0.4789  2.0133
  975SOL    HW2 3177   5.097   2.082   4.724  0.5669 -0.6064 -0.9566
  976SOL     OW 3178   2.531   6.137   3.562  0.3142  0.4363  0.2519
  976SOL    HW1 3179   2.504   6.098   3.479 -1.5022  1.1007  0.4828
  976SOL    HW2 3180   2.573   6.219   3.538 -0.5040  0.7878 -0.0303
  977SOL     OW 3181   6.059   5.611   3.686 -0.0381  0.6583  0.1153
  977SOL    HW1 3182   5.992   5.671   3.653  0.4414  2.0643  1.5376
  977SOL    HW2 3183   6.011   5.535   3.718 -0.6513  0.1388 -1.8957
  978SOL     OW 3184   5.718   3.412   2.432  0.2219 -0.0768 -0.7043
  978SOL    HW1 3185   5.711   3.407   2.337 -1.6567 -0.0916 -0.6048
  978SOL    HW2 3186   5.655   3.480   2.458  0.4906 -0.2712  0.5387
  979SOL     OW 3187   0.211   3.594   4.359  0.2150  0.1956  0.3006
  979SOL    HW1 3188   0.241   3.505   4.339  0.8154  0.5048 -0.2142
  979SOL    HW2 3189   0.175   3.587   4.447 -0.7167 -0.7867 -0.1273
  980SOL     OW 3190   0.788   1.942   1.865  0.1097  0.6264 -0.4902
  980SOL    HW1 3191   0.858   1.967   1.804 -0.9146  2.3633 -1.0336
  980SOL    HW2 3192   0.710   1.939   1.810 -0.5181  0.3762  0.4156
  981SOL     OW 3193   0.137   1.323   3.572 -0.5246  0.0548 -0.4403
  981SOL    HW1 3194   0.179   1.271   3.504  1.0452 -0.2805  0.7111
  981SOL    HW2 3195   0.043   1.311   3.558 -0.2171 -1.5098 -1.3954
  982SOL     OW 3196   6.295   5.577   0.243  0.3021  0.6425 -0.5785
  982SOL    HW1 3197   6.345   5.657   0.262 -2.9534  2.3605  1.7527
  982SOL    HW2 3198   6.338   5.509   0.295  1.3008  1.6139 -0.0869
  983SOL     OW 3199   1.509   5.190   2.540 -0.1962 -0.0228 -0.2873
  983SOL    HW1 3200   1.529   5.098   2.522 -1.4439 -0.2040 -0.8593
  983SOL    HW2 3201   1.462   5.220   2.462 -1.3797  0.5923  0.6267
  984SOL     OW 3202   5.131   5.398   3.754 -0.6765  0.0774 -0.1420
  984SOL    HW1 3203   5.052   5.344   3.749 -0.7602 -0.0254  1.6735
  984SOL    HW2 3204   5.106   5.472   3.810  0.5596 -0.0676  0.6290
  985SOL     OW 3205   5.173   2.123   0.726 -0.0504  0.3354 -0.0329
  985SOL    HW1 3206   5.115   2.073   0.783  0.1549 -0.9069 -0.8716
  985SOL    HW2 3207   5.260   2.112   0.763 -0.1317  0.9186  0.3465
  986SOL     OW 3208   3.934   1.354   0.318 -0.2834 -0.1153  0.3084
  986SOL    HW1 3209   3.870   1.286   0.297  0.8643 -1.3851  0.7473
  986SOL    HW2 3210   3.913   1.427   0.260 -2.0096 -0.5638  0.3400
  987SOL     OW 3211   4.605   0.669   0.704 -0.5901  0.3377 -0.6173
  987SOL    HW1 3212   4.556   0.603   0.754 -0.5303 -0.1776 -1.2321
  987SOL    HW2 3213   4.655   0.717   0.770  0.7414 -1.3805 -0.3065
  988SOL     OW 3214   5.125   2.605   4.497  0.3544 -0.0679 -0.1402
  988SOL    HW1 3215   5.172   2.670   4.446  0.2991  0.3749  0.3660
  988SOL    HW2 3216   5.192   2.564   4.551  0.4633 -0.7413 -0.7658
  989SOL     OW 3217   5.024   1.966   3.640 -0.4021  0.0534  0.3877
  989SOL    HW1 3218   5.022   1.999   3.550 -0.6396  0.8628  0.6855
  989SOL    HW2 3219   5.061   1.878   3.632 -0.9344 -0.0982 -0.5736
  990SOL     OW 3220   4.492   1.116   6.208  0.4017 -0.1981  0.8444
  990SOL    HW1 3221   4.493   1.095   6.302  2.1207  1.9854  1.4099
  990SOL    HW2 3222   4.580   1.091   6.178  0.7374  1.3723  0.4367
  991SOL     OW 3223   0.707   6.196   6.213  0.2258 -0.2893  0.1162
  991SOL    HW1 3224   0.660   6.133   6.269 -2.1917 -0.5004 -1.9912
  991SOL    HW2 3225   0.724   6.270   6.270  1.1888 -1.9193  2.0896
  992SOL     OW 3226   2.303   2.874   1.603  0.5264  0.4658 -0.2262
  992SOL    HW1 3227   2.314   2.969   1.610 -0.2198  0.6587 -1.5184
  992SOL    HW2 3228   2.386   2.839   1.636  0.6397  1.5397  0.7067
  993SOL     OW 3229   0.610   2.777   6.018  0.1529  0.0617 -0.4668
  993SOL    HW1 3230   0.555   2.744   6.090 -1.3329  0.6340 -1.2807
  993SOL    HW2 3231   0.699   2.757   6.045 -0.3171  0.6165  1.7311
  994SOL     OW 3232   0.492   0.619   2.899 -0.8773  0.0949 -0.2835
  994SOL    HW1 3233   0.433   0.558   2.943 -1.4134 -0.2883 -1.4712
  994SOL    HW2 3234   0.440   0.697   2.884 -0.5881  0.3601  0.0797
  995SOL     OW 3235   1.688   0.425   4.743  0.4413 -0.7706  0.7133
  995SOL    HW1 3236   1.655   0.349   4.696  1.7386 -1.8208  1.4292
  995SOL    HW2 3237   1.714   0.487   4.674  0.0554 -1.2701  0.1132
  996SOL     OW 3238   6.138   5.072   3.726 -0.0546  0.8026  0.4281
  996SOL    HW1 3239   6.121   5.003   3.663  0.5092  0.7632  0.3141
  996SOL    HW2 3240   6.102   5.039   3.808  0.7346  0.1081  0.5085
  997SOL     OW 3241   6.197   3.585   3.445 -0.3455 -0.6295 -0.4788
  997SOL    HW1 3242   6.147   3.610   3.367 -2.8582  0.2435  1.2352
  997SOL    HW2 3243   6.169   3.495   3.464 -1.6702 -0.0282  0.6685
  998SOL     OW 3244   3.561   1.314   2.461 -0.4399 -0.1211  0.2509
  998SOL    HW1 3245   3.526   1.394   2.424  1.0526 -0.7397 -2.8759
  998SOL    HW2 3246   3.628   1.343   2.523 -0.8793  1.0040  0.2184
  999SOL     OW 3247   1.093   1.149   1.265  0.5913 -0.1320 -0.1650
  999SOL    HW1 3248   0.999   1.137   1.254  0.6449 -0.0999 -0.7233
  999SOL    HW2 3249   1.107   1.243   1.261  0.3390  0.1001  2.7666
 1000SOL     OW 3250   4.072   2.761   6.073  0.8956 -0.5157  0.0944
 1000SOL    HW1 3251   3.999   2.800   6.121  0.8109 -0.7526  0.1608
 1000SOL    HW2 3252   4.144   2.824   6.082  0.4569  0.1171 -0.6620
 1001SOL     OW 3253   2.833   3.413   3.139 -0.0538 -0.5889 -0.3039
 1001SOL    HW1 3254   2.791   3.497   3.154 -1.9298 -1.4920 -0.1496
 1001SOL    HW2 3255   2.883   3.396   3.219  0.6510  0.5262 -0.4917
 1002SOL     OW 3256   3.811   1.608   1.241 -0.2215  0.6970 -0.1999
 1002SOL    HW1 3257   3.852   1.690   1.212  1.6265 -0.4820 -1.0624
 1002SOL    HW2 3258   3.828   1.546   1.170 -0.8687 -0.6697  0.8010
 1003SOL     OW 3259   0.136   2.395   3.962 -0.1364  0.7609 -0.2180
 1003SOL    HW1 3260   0.050   2.397   3.921  0.4005 -0.9387 -1.5665
 1003SOL    HW2 3261   0.178   2.477   3.935 -0.2514  0.2361 -2.1574
 1004SOL     OW 3262   2.724   2.136   0.873  0.1631 -0.1990 -0.2962
 1004SOL    HW1 3263   2.755   2.194   0.942  0.0629  0.2767 -0.6449
 1004SOL    HW2 3264   2.790   2.067   0.868  2.0737  1.6321 -2.0945
 1005SOL     OW 3265   1.228   1.881   3.658 -0.3187  0.3536  0.1377
 1005SOL    HW1 3266   1.252   1.794   3.626 -1.4363  0.2715 -0.5573
 1005SOL    HW2 3267   1.138   1.870   3.691  0.0120  0.9528  1.2916
 1006SOL     OW 3268   2.548   2.486   1.791 -0.0420 -0.1284  0.1693
 1006SOL    HW1 3269   2.520   2.417   1.730  1.1009  0.5654 -1.1747
 1006SOL    HW2 3270   2.623   2.448   1.837 -0.4235 -0.3628  0.6108
 1007SOL     OW 3271   2.616   1.203   1.995  0.6372  0.0444 -0.1520
 1007SOL    HW1 3272   2.538   1.197   1.939  0.5958  0.0506 -0.0949
 1007SOL    HW2 3273   2.658   1.284   1.967  0.7523 -0.0809 -0.3492
 1008SOL     OW 3274   0.614   3.997   4.766  0.1281 -0.0086 -0.4955
 1008SOL    HW1 3275   0.532   3.986   4.814  1.0975 -0.0577  1.2353
 1008SOL    HW2 3276   0.640   3.908   4.742  0.8450 -0.2377  1.0470
 1009SOL     OW 3277   4.771   5.084   1.436 -0.6431 -0.5974  0.7483
 1009SOL    HW1 3278   4.711   5.115   1.368  0.5370 -1.4222 -0.7220
 1009SOL    HW2 3279   4.820   5.161   1.462  0.7291 -0.7157 -1.2883
 1010SOL     OW 3280   4.981   6.337   0.157  0.6901  0.4196  0.3126
 1010SOL    HW1 3281   4.909   6.291   0.200  0.5269  0.5121  0.1398
 1010SOL    HW2 3282   5.040   6.362   0.229 -0.4459  2.1226  0.7165
 1011SOL     OW 3283   0.483   1.248   0.692  0.2504  0.0032 -0.3168
 1011SOL    HW1 3284   0.428   1.172   0.676  3.2355 -2.2014 -0.9890
 1011SOL    HW2 3285   0.488   1.293   0.608 -1.2279  0.7846 -0.0097
 1012SOL     OW 3286   4.760   5.807   2.496 -0.0700 -0.1563 -0.0588
 1012SOL    HW1 3287   4.843   5.816   2.449 -0.1925 -0.3556 -0.3201
 1012SOL    HW2 3288   4.742   5.713   2.495 -0.5827 -0.0640 -0.5117
 1013SOL     OW 3289   4.406   3.438   0.970  0.3154 -0.7354 -0.1266
 1013SOL    HW1 3290   4.316   3.409   0.981 -0.1267  0.6320  0.1055
 1013SOL    HW2 3291   4.399   3.518   0.917  1.4621 -1.0364 -0.7798
 1014SOL     OW 3292   1.224   2.684   1.703 -0.4335  0.1429  0.3895
 1014SOL    HW1 3293   1.246   2.756   1.643 -0.4934 -0.5920 -0.5292
 1014SOL    HW2 3294   1.305   2.667   1.751 -0.5088  1.0370  0.8543
 1015SOL     OW 3295   0.738   4.462   2.100  0.1916 -0.1380  0.0727
 1015SOL    HW1 3296   0.823   4.419   2.098 -0.3040 -1.1235 -1.3466
 1015SOL    HW2 3297   0.756   4.551   2.131  1.8846 -0.0158 -1.1850
 1016SOL     OW 3298   4.213   4.857   3.385  0.2689  0.5935  0.1251
 1016SOL    HW1 3299   4.215   4.768   3.419 -1.7169  0.0477 -1.0042
 1016SOL    HW2 3300   4.286   4.901   3.427  1.2850 -1.5596  0.7310
 1017SOL     OW 3301   4.541   0.657   4.939 -0.4528 -0.0715 -0.2171
 1017SOL    HW1 3302   4.475   0.646   5.007 -0.8872  0.0021 -0.6182
 1017SOL    HW2 3303   4.591   0.576   4.940 -0.9259 -0.3628 -0.3062
 1018SOL     OW 3304   0.990   5.882   0.327  0.9114  0.2457 -0.1591
 1018SOL    HW1 3305   0.958   5.905   0.414  0.8916 -1.5247  0.3360
 1018SOL    HW2 3306   0.932   5.929   0.267  0.2941  0.6986  0.7693
 1019SOL     OW 3307   3.927   1.902   0.217 -0.8157 -0.5811  0.1849
 1019SOL    HW1 3308   3.910   1.878   0.126  0.4037 -0.3851 -0.1174
 1019SOL    HW2 3309   3.871   1.845   0.268 -1.2784 -0.9208 -0.6819
 1020SOL     OW 3310   5.504   0.113   2.916  0.0741  0.5405  0.2296
 1020SOL    HW1 3311   5.518   0.043   2.852  0.3941 -0.7278  1.6330
 1020SOL    HW2 3312   5.410   0.107   2.937  0.2392  0.0363  0.8687
 1021SOL     OW 3313   4.111   4.197   5.794  0.8282 -0.5960 -0.4352
 1021SOL    HW1 3314   4.148   4.284   5.813 -1.6329  0.9033 -1.9885
 1021SOL    HW2 3315   4.048   4.181   5.864 -1.0359  0.4107 -1.8003
 1022SOL     OW 3316   5.728   5.032   1.650 -0.7665  0.0900 -0.2373
 1022SOL    HW1 3317   5.639   5.045   1.681 -2.1582 -2.3080 -2.7703
 1022SOL    HW2 3318   5.727   4.947   1.607  2.2544  0.7862 -2.0588
 1023SOL     OW 3319   5.883   1.173   0.122  0.0356  0.7471  0.0493
 1023SOL    HW1 3320   5.816   1.238   0.145  0.1956  0.8613  0.1985
 1023SOL    HW2 3321   5.909   1.197   0.033 -1.2881 -0.2961 -0.6435
 1024SOL     OW 3322   3.036   3.194   0.978  0.2539 -0.1332 -0.3500
 1024SOL    HW1 3323   2.949   3.210   1.015  0.9106  2.0925  0.3924
 1024SOL    HW2 3324   3.028   3.110   0.932 -2.1818 -0.1311 -0.0418
 1025SOL     OW 3325   2.572   3.889   2.762 -0.4875  0.2683  0.7102
 1025SOL    HW1 3326   2.485   3.884   2.802 -1.0364  2.6445 -0.0461
 1025SOL    HW2 3327   2.566   3.830   2.686 -1.2834  0.0343  0.9371
 1026SOL     OW 3328   6.237   4.158   2.503  0.4527  0.3069 -0.7078
 1026SOL    HW1 3329   6.281   4.243   2.507 -0.2901  0.6563  0.3659
 1026SOL    HW2 3330   6.279   4.113   2.430 -0.1826  2.1906 -2.3298
 1027SOL     OW 3331   0.345   2.666   5.218  0.5069 -0.4266 -0.6959
 1027SOL    HW1 3332   0.421   2.608   5.220  1.4740  0.8069 -0.5897
 1027SOL    HW2 3333   0.335   2.695   5.309  1.2580  1.1007 -1.0814
 1028SOL     OW 3334   0.774   5.106   2.035 -0.0663  0.1698 -0.1635
 1028SOL    HW1 3335   0.863   5.085   2.006 -1.5104 -3.6246 -2.5722
 1028SOL    HW2 3336   0.736   5.158   1.964 -0.3299  0.2098  0.0035
 1029SOL     OW 3337   2.265   4.396   0.272  0.2675  0.2181 -0.5436
 1029SOL    HW1 3338   2.341   4.433   0.317 -0.5949  0.8509  0.4414
 1029SOL    HW2 3339   2.269   4.432   0.183  0.9162  0.5383 -0.3856
 1030SOL     OW 3340   3.815   4.019   3.425  0.2225  0.1196 -0.1712
 1030SOL    HW1 3341   3.806   3.943   3.368  1.5942 -0.0732 -0.1785
 1030SOL    HW2 3342   3.879   3.993   3.491  0.5605  1.1859 -0.0484
 1031SOL     OW 3343   5.829   1.584   1.595 -0.2157  0.0260  0.5541
 1031SOL    HW1 3344   5.905   1.599   1.651  0.8281  1.1444 -1.0808
 1031SOL    HW2 3345   5.778   1.665   1.602 -1.7960 -1.0387  2.3335
 1032SOL     OW 3346   2.047   0.676   4.277  0.0272  0.3046 -0.1133
 1032SOL    HW1 3347   1.991   0.697   4.351  0.5513  2.2048 -0.2100
 1032SOL    HW2 3348   2.118   0.739   4.281  2.0475 -1.8192 -0.1821
 1033SOL     OW 3349   3.233   1.337   3.625 -0.1636  0.5441 -0.1407
 1033SOL    HW1 3350   3.210   1.258   3.674  0.5599  0.0493 -0.5743
 1033SOL    HW2 3351   3.152   1.388   3.621 -0.4478  0.1814  0.7977
 1034SOL     OW 3352   0.920   4.777   6.248 -0.6438 -0.4219  0.2137
 1034SOL    HW1 3353   0.932   4.737   6.334  0.2884  1.6281  1.1031
 1034SOL    HW2 3354   0.953   4.866   6.258 -0.1853 -0.2217 -2.3853
 1035SOL     OW 3355   2.346   0.246   4.095 -0.1792 -0.1512 -0.0361
 1035SOL    HW1 3356   2.337   0.199   4.012  1.1146 -0.6030  0.0496
 1035SOL    HW2 3357   2.344   0.338   4.070 -0.3973 -0.2725 -0.4928
 1036SOL     OW 3358   0.152   1.208   2.169 -0.5599  0.1614 -0.6566
 1036SOL    HW1 3359   0.071   1.171   2.133  0.3875 -1.9791 -0.6761
 1036SOL    HW2 3360   0.216   1.201   2.098  0.6631 -1.8049  0.5600
 1037SOL     OW 3361   0.419   4.255   4.874 -0.7581 -0.2008 -0.5400
 1037SOL    HW1 3362   0.392   4.337   4.834  0.1422  0.7431  0.7018
 1037SOL    HW2 3363   0.365   4.188   4.832  0.3926  0.6469 -3.5993
 1038SOL     OW 3364   4.227   3.088   0.914 -0.3928  0.2857 -0.1295
 1038SOL    HW1 3365   4.278   3.068   0.835  0.1521  0.8007  0.0898
 1038SOL    HW2 3366   4.139   3.106   0.881 -0.3367 -0.1990 -0.5510
 1039SOL     OW 3367   1.117   5.035   3.911  0.4003  0.4675 -0.3016
 1039SOL    HW1 3368   1.115   4.950   3.954 -0.2368  0.2858 -0.6763
 1039SOL    HW2 3369   1.055   5.027   3.839 -0.4027  1.5572  0.2455
 1040SOL     OW 3370   1.051   2.478   1.836  0.0196  0.5859  0.4522
 1040SOL    HW1 3371   0.999   2.438   1.767 -3.0448  3.2762  0.9448
 1040SOL    HW2 3372   1.091   2.555   1.794  0.9473  0.3482  0.8795
 1041SOL     OW 3373   5.673   1.839   1.633  0.0028 -0.6243  0.4591
 1041SOL    HW1 3374   5.617   1.862   1.707  1.2455  0.9630  0.9653
 1041SOL    HW2 3375   5.617   1.850   1.556 -0.0435  2.5412  0.8090
 1042SOL     OW 3376   6.014   2.901   4.752 -0.3162 -0.7320  0.4765
 1042SOL    HW1 3377   5.971   2.985   4.740 -0.3899 -0.6276  1.4063
 1042SOL    HW2 3378   6.108   2.921   4.745 -0.2974 -0.4281  1.4372
 1043SOL     OW 3379   2.688   2.056   6.335 -0.1510 -0.0160  0.4714
 1043SOL    HW1 3380   2.661   2.099   6.416  0.0891 -0.7021  0.9243
 1043SOL    HW2 3381   2.715   1.969   6.362 -1.6063 -0.8342 -0.5572
 1044SOL     OW 3382   1.847   3.309   0.548  0.2247 -0.1257 -0.2136
 1044SOL    HW1 3383   1.771   3.318   0.606  1.3261 -0.0615  1.2707
 1044SOL    HW2 3384   1.898   3.238   0.587  0.8702 -0.2484 -1.2652
 1045SOL     OW 3385   4.780   6.043   1.393  0.5773 -0.0561  0.7178
 1045SOL    HW1 3386   4.791   6.076   1.304  1.7111 -0.9376  0.5082
 1045SOL    HW2 3387   4.864   6.002   1.414  0.1557 -0.3089  2.0091
 1046SOL     OW 3388   3.469   5.276   5.866 -0.8060 -0.0379 -0.2515
 1046SOL    HW1 3389   3.520   5.269   5.946 -0.3174  1.5078 -0.3843
 1046SOL    HW2 3390   3.533   5.262   5.796 -0.9577 -0.0259 -0.3923
 1047SOL     OW 3391   5.239   2.502   2.553 -0.1575 -0.2039  0.2921
 1047SOL    HW1 3392   5.332   2.495   2.531  0.8860 -1.5045  4.1817
 1047SOL    HW2 3393   5.201   2.422   2.519  0.4325 -0.2566 -0.2638
 1048SOL     OW 3394   0.908   1.559   0.646 -0.5892 -0.0422  0.5366
 1048SOL    HW1 3395   0.968   1.514   0.586 -1.6083  0.1373 -0.6417
 1048SOL    HW2 3396   0.826   1.568   0.597 -1.2898  0.5782  1.7714
 1049SOL     OW 3397   4.165   6.042   1.041  0.4063  0.5203 -0.5984
 1049SOL    HW1 3398   4.071   6.048   1.062  0.4661  1.3581 -0.5361
 1049SOL    HW2 3399   4.187   6.128   1.005  0.6876 -0.3266 -2.5881
 1050SOL     OW 3400   0.166   2.588   4.432 -0.1923 -0.0683 -0.1550
 1050SOL    HW1 3401   0.105   2.559   4.500 -0.7913  0.0279 -0.6463
 1050SOL    HW2 3402   0.247   2.607   4.480 -1.0798  1.5719  0.7771
 1051SOL     OW 3403   2.386   6.201   4.064 -0.2508 -0.3527 -0.1414
 1051SOL    HW1 3404   2.307   6.224   4.113 -0.8804 -1.2232 -0.7249
 1051SOL    HW2 3405   2.393   6.268   3.997  0.2108  0.4341  0.6777
 1052SOL     OW 3406   4.247   1.359   1.037  0.7566  0.5466 -0.8655
 1052SOL    HW1 3407   4.309   1.287   1.040  1.2869  1.0278  0.7507
 1052SOL    HW2 3408   4.298   1.437   1.060  0.2666  1.5400 -2.8230
 1053SOL     OW 3409   0.996   4.387   3.281  0.3443 -0.0670 -0.4145
 1053SOL    HW1 3410   0.919   4.353   3.235 -0.4820  0.2252  0.7119
 1053SOL    HW2 3411   1.007   4.475   3.245  0.8120 -0.4822 -1.3369
 1054SOL     OW 3412   6.304   2.971   4.126  0.3261 -0.7608  0.6254
 1054SOL    HW1 3413   6.242   2.994   4.195  0.1570 -1.2833  0.6481
 1054SOL    HW2 3414   6.373   3.037   4.134 -1.3260  1.3250 -0.8994
 1055SOL     OW 3415   1.630   0.808   6.339 -0.8580  0.0350  0.0309
 1055SOL    HW1 3416   1.564   0.876   6.324 -1.2426 -0.3354  0.0155
 1055SOL    HW2 3417   1.707   0.837   6.290 -1.7782 -0.6915 -1.9226
 1056SOL     OW 3418   3.732   2.492   4.810 -0.2615  0.0786  0.3266
 1056SOL    HW1 3419   3.755   2.451   4.894  0.3577  1.3140  0.7932
 1056SOL    HW2 3420   3.770   2.435   4.744 -0.9065 -1.0120  0.8645
 1057SOL     OW 3421   4.280   3.820   2.155 -0.2390  0.2684 -0.2602
 1057SOL    HW1 3422   4.189   3.791   2.161  0.3616 -1.7253  0.1041
 1057SOL    HW2 3423   4.313   3.780   2.074  0.3363  0.9000 -0.3506
 1058SOL     OW 3424   4.949   3.285   4.559 -0.0010  0.1796 -0.2056
 1058SOL    HW1 3425   4.982   3.373   4.579  0.3513  0.1133 -0.4769
 1058SOL    HW2 3426   4.925   3.248   4.644  0.2583  0.3770 -0.0469
 1059SOL     OW 3427   0.215   3.918   2.587  0.1517 -0.1232  0.5899
 1059SOL    HW1 3428   0.133   3.903   2.635 -2.2651  2.6055 -2.2245
 1059SOL    HW2 3429   0.248   4.001   2.622  0.9028 -0.4356  0.6425
 1060SOL     OW 3430   4.751   2.745   2.382  0.2226  0.5961 -0.1310
 1060SOL    HW1 3431   4.761   2.657   2.346 -0.4645 -0.1475  1.3818
 1060SOL    HW2 3432   4.658   2.764   2.373  0.0816  0.4936  0.9701
 1061SOL     OW 3433   3.791   0.291   1.231  0.2986 -0.4736 -0.3946
 1061SOL    HW1 3434   3.886   0.289   1.232  0.2978 -0.7767  0.9169
 1061SOL    HW2 3435   3.767   0.354   1.300 -0.4484 -0.6603 -0.4682
 1062SOL     OW 3436   5.052   5.490   0.901 -0.3537 -0.3528  0.3808
 1062SOL    HW1 3437   5.031   5.398   0.889 -1.0906 -0.0381 -0.9039
 1062SOL    HW2 3438   5.006   5.514   0.982 -1.2931 -0.7916 -0.0035
 1063SOL     OW 3439   4.081   0.668   0.094 -0.0397  0.2775 -0.5634
 1063SOL    HW1 3440   4.035   0.746   0.064  1.4469  1.4120 -0.0660
 1063SOL    HW2 3441   4.174   0.692   0.088  0.4633 -1.5293 -0.5532
 1064SOL     OW 3442   0.652   2.479   3.280 -0.0872  0.0829 -0.7725
 1064SOL    HW1 3443   0.677   2.481   3.188  0.2025  0.2119 -0.6913
 1064SOL    HW2 3444   0.673   2.567   3.312  0.9009 -0.3142 -0.2915
 1065SOL     OW 3445   4.600   0.497   2.441  0.1121  0.5051  0.0242
 1065SOL    HW1 3446   4.660   0.543   2.501 -0.0624  0.6307  0.1048
 1065SOL    HW2 3447   4.655   0.474   2.366  0.6605 -0.8687  0.8220
 1066SOL     OW 3448   4.615   0.545   6.257 -0.0393 -0.0300  0.4356
 1066SOL    HW1 3449   4.550   0.614   6.245  0.1487  0.3898  1.6724
 1066SOL    HW2 3450   4.697   0.585   6.229  0.0840  0.2847  1.2374
 1067SOL     OW 3451   3.567   1.519   3.019  0.1608 -0.2107 -0.6436
 1067SOL    HW1 3452   3.479   1.526   3.054  0.4321 -0.0095  0.0057
 1067SOL    HW2 3453   3.625   1.540   3.092  0.7770 -1.1495 -0.8300
 1068SOL     OW 3454   5.273   4.637   5.568  0.2379 -0.3197 -0.3691
 1068SOL    HW1 3455   5.352   4.603   5.610 -0.1090 -0.4445  0.1905
 1068SOL    HW2 3456   5.279   4.606   5.478  0.4117 -1.0316 -0.1182
 1069SOL     OW 3457   4.028   5.015   6.180  0.2059 -0.1012 -0.7773
 1069SOL    HW1 3458   4.104   5.011   6.238  0.5507 -1.3913 -1.2735
 1069SOL    HW2 3459   4.064   5.047   6.097 -0.3792  2.2594 -0.2014
 1070SOL     OW 3460   4.557   1.157   1.826 -0.7859 -0.0265  0.0781
 1070SOL    HW1 3461   4.518   1.244   1.829 -1.1625 -0.1532 -0.9374
 1070SOL    HW2 3462   4.497   1.102   1.877 -1.1028  0.0996 -0.1574
 1071SOL     OW 3463   5.955   0.006   0.467  0.0900  0.5078 -0.1677
 1071SOL    HW1 3464   5.889   0.038   0.405 -0.4802 -1.0490 -0.4204
 1071SOL    HW2 3465   5.974  -0.083   0.437  0.9106  0.2603  1.0323
 1072SOL     OW 3466   3.782   5.360   0.026  0.7868 -0.4605  1.1044
 1072SOL    HW1 3467   3.806   5.272   0.057  1.3475 -0.4841  0.6184
 1072SOL    HW2 3468   3.839   5.375  -0.050  1.2131  0.6111  1.6127
 1073SOL     OW 3469   1.886   4.653   1.673  0.2961 -0.2418 -0.5733
 1073SOL    HW1 3470   1.916   4.683   1.759 -0.1049  0.5290 -0.6877
 1073SOL    HW2 3471   1.829   4.578   1.692  1.0293 -0.7246 -0.2481
 1074SOL     OW 3472   4.647   2.118   1.949 -0.2979 -0.6007 -0.2581
 1074SOL    HW1 3473   4.653   2.102   2.043 -0.8715  0.1905 -0.0838
 1074SOL    HW2 3474   4.620   2.033   1.912 -0.2924 -0.8517  0.3093
 1075SOL     OW 3475   3.581   1.108   1.767 -0.0302 -0.5911 -0.4351
 1075SOL    HW1 3476   3.519   1.178   1.744 -0.4460 -0.2023  1.6563
 1075SOL    HW2 3477   3.666   1.153   1.771 -0.1355 -0.4071 -0.1483
 1076SOL     OW 3478   5.883   0.206   0.960  0.0597  0.0865  0.0881
 1076SOL    HW1 3479   5.840   0.290   0.974  0.4630  0.1905  0.7477
 1076SOL    HW2 3480   5.944   0.222   0.888 -1.0397 -0.0835 -0.9020
 1077SOL     OW 3481   3.424   3.669   0.495  0.2984 -0.1620 -0.1469
 1077SOL    HW1 3482   3.336   3.656   0.462  0.2096 -1.3289  0.4729
 1077SOL    HW2 3483   3.477   3.603   0.450  0.8365  0.4605 -0.4408
 1078SOL     OW 3484   4.484   3.580   2.399  0.1453  0.7786 -0.2704
 1078SOL    HW1 3485   4.404   3.584   2.451  0.5977  0.8292  0.4484
 1078SOL    HW2 3486   4.547   3.633   2.449  1.6130 -1.9765  1.0101
 1079SOL     OW 3487   5.788   4.072   0.653  0.0380 -0.7004 -0.5324
 1079SOL    HW1 3488   5.863   4.131   0.645 -0.7899  0.1049 -3.2280
 1079SOL    HW2 3489   5.778   4.034   0.566 -0.2303 -3.9864  0.7648
 1080SOL     OW 3490   4.134   5.203   5.132  0.0331  0.7034 -0.5339
 1080SOL    HW1 3491   4.057   5.236   5.178  1.1579  0.1189  1.9587
 1080SOL    HW2 3492   4.152   5.119   5.173  1.4878  0.4324 -1.6540
 1081SOL     OW 3493   1.057   0.851   1.774  0.1861  0.2552 -0.2123
 1081SOL    HW1 3494   0.971   0.812   1.755  0.4081 -0.5426  0.3603
 1081SOL    HW2 3495   1.077   0.822   1.863  0.2911  1.8433  0.3018
 1082SOL     OW 3496   2.220   4.342   5.283 -0.3952  0.4756  0.2870
 1082SOL    HW1 3497   2.144   4.400   5.289  1.3040  3.4365 -3.1272
 1082SOL    HW2 3498   2.286   4.382   5.340  0.1260  0.7677 -0.5044
 1083SOL     OW 3499   4.485   0.339   3.413 -0.2375  0.2367 -0.7228
 1083SOL    HW1 3500   4.567   0.382   3.387  0.2433  0.1735  0.6028
 1083SOL    HW2 3501   4.496   0.248   3.386  0.2383  0.1777 -0.3483
 1084SOL     OW 3502   4.244   6.251   4.655 -0.2742  0.1041  0.1961
 1084SOL    HW1 3503   4.183   6.215   4.590  0.4158  0.1854 -0.5227
 1084SOL    HW2 3504   4.299   6.312   4.604  0.8835 -0.5172  0.6506
 1085SOL     OW 3505   5.305   2.785   3.580 -0.1345  0.5946 -0.7122
 1085SOL    HW1 3506   5.340   2.792   3.669 -0.3599 -0.9191 -0.4735
 1085SOL    HW2 3507   5.333   2.866   3.537  0.7376  0.9584  0.4675
 1086SOL     OW 3508   3.210   1.848   3.376  0.2810  0.2891  0.5864
 1086SOL    HW1 3509   3.213   1.938   3.344  0.2167  0.3455  0.7381
 1086SOL    HW2 3510   3.263   1.798   3.314  2.2866  0.8127  1.7592
 1087SOL     OW 3511   3.090   2.750   1.024  0.2539 -0.2484  0.2764
 1087SOL    HW1 3512   3.016   2.719   1.075 -0.8999 -0.8158 -1.6550
 1087SOL    HW2 3513   3.134   2.671   0.993  0.7646  0.0734  0.1563
 1088SOL     OW 3514   2.039   0.418   0.561  0.2405  0.1058 -0.2076
 1088SOL    HW1 3515   2.015   0.446   0.649 -0.3080 -0.4086 -0.1860
 1088SOL    HW2 3516   2.005   0.328   0.554 -1.1818  0.6923 -1.4899
 1089SOL     OW 3517   4.915   1.245   0.604  0.3864  0.1033  0.2648
 1089SOL    HW1 3518   4.901   1.281   0.692 -0.7116 -0.5429  0.3815
 1089SOL    HW2 3519   4.828   1.245   0.565  0.8466  0.2397 -0.7787
 1090SOL     OW 3520   2.989   5.037   3.677  0.1812 -0.1444 -0.4496
 1090SOL    HW1 3521   2.908   4.993   3.704  1.5738 -2.7389 -0.2622
 1090SOL    HW2 3522   3.002   5.105   3.744 -0.5427 -1.3340  0.9462
 1091SOL     OW 3523   0.609   5.699   1.739 -0.9967  0.0596  0.1814
 1091SOL    HW1 3524   0.539   5.717   1.676  0.2015 -0.4052 -1.3265
 1091SOL    HW2 3525   0.668   5.773   1.731 -0.9254  0.0864  0.9055
 1092SOL     OW 3526   4.616   3.079   0.864 -0.4566 -0.4255 -0.2161
 1092SOL    HW1 3527   4.696   3.058   0.913 -1.9370 -1.0414  2.1387
 1092SOL    HW2 3528   4.646   3.122   0.785  2.1715 -0.1214  0.8569
 1093SOL     OW 3529   1.497   5.671   6.008  0.6693  0.8104  0.3150
 1093SOL    HW1 3530   1.447   5.738   5.963  0.3359 -1.1054 -2.3908
 1093SOL    HW2 3531   1.484   5.592   5.956  1.7720 -1.1682  2.8300
 1094SOL     OW 3532   2.173   5.108   4.094 -0.4651 -0.1520 -0.6436
 1094SOL    HW1 3533   2.140   5.019   4.079 -1.1764  0.2884 -1.7957
 1094SOL    HW2 3534   2.098   5.165   4.077 -0.1041  0.6611  0.4143
 1095SOL     OW 3535   6.346   0.165   4.474 -0.4025  0.0300 -0.0498
 1095SOL    HW1 3536   6.319   0.075   4.493  0.9415 -0.8522 -1.9976
 1095SOL    HW2 3537   6.404   0.158   4.398 -1.3774  2.6848 -1.1911
 1096SOL     OW 3538   0.619   6.280   5.344 -0.5014 -0.0291  0.0147
 1096SOL    HW1 3539   0.582   6.357   5.300 -0.8229  0.7052  1.5276
 1096SOL    HW2 3540   0.566   6.268   5.422  0.2287 -1.1501  0.3683
 1097SOL     OW 3541   3.061   0.142   2.456  0.2517 -0.1808  0.0772
 1097SOL    HW1 3542   3.088   0.166   2.368  1.1296 -1.0072  0.0958
 1097SOL    HW2 3543   3.011   0.217   2.488  0.0020  0.1643 -1.0814
 1098SOL     OW 3544   6.307   1.230   5.351  0.0983  0.5133 -0.1054
 1098SOL    HW1 3545   6.352   1.285   5.415 -1.8757  0.9679  0.9664
 1098SOL    HW2 3546   6.253   1.171   5.404 -0.4984 -0.0675 -1.3303
 1099SOL     OW 3547   4.717   6.308   5.041 -0.1452 -0.1116  0.6697
 1099SOL    HW1 3548   4.793   6.278   4.990 -0.3703  1.2448 -0.5083
 1099SOL    HW2 3549   4.746   6.302   5.132  1.7209  1.1417  0.2233
 1100SOL     OW 3550   2.839   5.584   3.245 -0.8236 -0.0266 -0.4048
 1100SOL    HW1 3551   2.763   5.640   3.253 -0.5496  0.1876  1.1530
 1100SOL    HW2 3552   2.911   5.643   3.220 -0.4855  0.4126  1.4603
 1101SOL     OW 3553   3.434   1.446   3.314  0.3114 -0.1766 -0.0719
 1101SOL    HW1 3554   3.489   1.410   3.383 -1.0426 -3.2139 -0.3946
 1101SOL    HW2 3555   3.424   1.374   3.251 -1.6375  1.2003 -1.4732
 1102SOL     OW 3556   1.198   1.036   4.876 -0.3603  0.8131 -0.1796
 1102SOL    HW1 3557   1.182   1.085   4.796 -1.4426 -0.5754 -0.8635
 1102SOL    HW2 3558   1.127   0.972   4.880  1.4374 -1.2825  0.1759
 1103SOL     OW 3559   3.803   4.404   5.618  0.0826  0.0886 -0.5856
 1103SOL    HW1 3560   3.834   4.466   5.685 -1.1568  1.8160 -1.5321
 1103SOL    HW2 3561   3.881   4.353   5.595  0.7583  0.1156  1.4430
 1104SOL     OW 3562   3.403   0.441   5.397 -0.2283  0.0119  0.2687
 1104SOL    HW1 3563   3.463   0.407   5.331  1.1331 -2.2615  2.4742
 1104SOL    HW2 3564   3.329   0.380   5.396 -0.4779  0.3137  0.4121
 1105SOL     OW 3565   6.004   5.526   0.866 -1.0611 -0.4022 -0.2172
 1105SOL    HW1 3566   6.017   5.438   0.902 -2.5341 -0.4580  0.2487
 1105SOL    HW2 3567   5.995   5.583   0.942 -1.2205 -0.0276 -0.5137
 1106SOL     OW 3568   4.626   1.611   2.523  0.0786  0.0837  0.3281
 1106SOL    HW1 3569   4.532   1.598   2.538  0.1541 -1.5921 -0.4520
 1106SOL    HW2 3570   4.642   1.703   2.547 -1.8076  0.4782  0.2053
 1107SOL     OW 3571   4.492   0.564   5.221  0.3980  0.3300 -0.5903
 1107SOL    HW1 3572   4.513   0.657   5.232  1.1073  0.0009  1.3903
 1107SOL    HW2 3573   4.576   0.523   5.198  0.5546 -0.0588  0.5717
 1108SOL     OW 3574   1.878   0.569   5.579  0.2259  0.0081 -0.0658
 1108SOL    HW1 3575   1.788   0.539   5.572  0.2004  0.2928 -1.0184
 1108SOL    HW2 3576   1.887   0.635   5.510  0.9833  0.4283  0.4190
 1109SOL     OW 3577   2.028   4.901   4.819 -0.0951  0.2553 -0.3584
 1109SOL    HW1 3578   2.115   4.895   4.860 -0.2330 -0.3219 -0.1449
 1109SOL    HW2 3579   1.975   4.836   4.864 -0.5536  0.3720 -0.7160
 1110SOL     OW 3580   5.341   4.380   0.649  0.5745 -0.1834  0.2145
 1110SOL    HW1 3581   5.362   4.453   0.707  0.0942  0.1890 -0.0739
 1110SOL    HW2 3582   5.419   4.325   0.651  1.5749  1.1271 -0.7718
 1111SOL     OW 3583   2.100   1.545   2.930  0.3717  1.0244 -0.0555
 1111SOL    HW1 3584   2.087   1.574   3.021 -2.6016  0.4604 -0.1884
 1111SOL    HW2 3585   2.150   1.464   2.938  0.5308  1.2124  1.0571
 1112SOL     OW 3586   5.784   4.650   4.121  0.3437  0.4943 -0.0104
 1112SOL    HW1 3587   5.831   4.723   4.081 -0.4736  0.9643 -0.1277
 1112SOL    HW2 3588   5.776   4.585   4.051  1.4696  0.0801  0.2193
 1113SOL     OW 3589   3.828   5.499   5.846 -0.6698 -0.1513  0.0791
 1113SOL    HW1 3590   3.895   5.439   5.879  0.5892  1.1652  0.0216
 1113SOL    HW2 3591   3.840   5.579   5.897 -2.5842 -0.0573  0.4359
 1114SOL     OW 3592   0.478   1.130   6.054 -0.2350  0.4203  0.1227
 1114SOL    HW1 3593   0.484   1.221   6.085 -1.0961  0.0928  1.3424
 1114SOL    HW2 3594   0.479   1.078   6.134 -0.1904 -0.6241 -0.5501
 1115SOL     OW 3595   4.226   6.324   1.059 -0.2079 -0.3127 -0.5185
 1115SOL    HW1 3596   4.202   6.416   1.045  2.3056  0.2380 -1.9861
 1115SOL    HW2 3597   4.218   6.311   1.153 -1.1675  1.2244 -0.3496
 1116SOL     OW 3598   2.584   1.308   5.139 -0.8364  0.6509  0.2100
 1116SOL    HW1 3599   2.491   1.285   5.135 -1.0082  1.2963  0.4779
 1116SOL    HW2 3600   2.605   1.339   5.051 -0.9884  0.9574  0.2838
 1117SOL     OW 3601   2.332   3.522   4.170 -0.3900 -0.9201 -0.5996
 1117SOL    HW1 3602   2.286   3.447   4.208  2.9486 -2.8296  0.0441
 1117SOL    HW2 3603   2.402   3.542   4.233  1.1241  0.2911 -2.5497
 1118SOL     OW 3604   6.159   2.721   3.703 -0.2233 -0.3431 -0.3028
 1118SOL    HW1 3605   6.121   2.665   3.771  0.3793 -1.1782 -0.6363
 1118SOL    HW2 3606   6.105   2.707   3.626  0.3137 -0.9970 -0.5763
 1119SOL     OW 3607   0.033   0.590   2.083  0.4418  0.7926 -0.0185
 1119SOL    HW1 3608  -0.040   0.531   2.097  0.1179  0.9432 -0.9518
 1119SOL    HW2 3609   0.079   0.594   2.167 -0.1201  0.0242  0.3291
 1120SOL     OW 3610   2.628   0.757   6.302  0.3617  0.0572  0.1177
 1120SOL    HW1 3611   2.659   0.764   6.392  0.4231 -1.4681  0.2423
 1120SOL    HW2 3612   2.708   0.754   6.249  0.3286  2.0142 -0.1291
 1121SOL     OW 3613   3.574   5.783   4.069 -0.3338 -0.7638 -0.1289
 1121SOL    HW1 3614   3.652   5.755   4.021  0.8019 -0.4768  1.4671
 1121SOL    HW2 3615   3.551   5.868   4.029  0.1294 -0.8742 -0.6486
 1122SOL     OW 3616   2.227   1.532   0.747  0.4595 -0.6239  0.1294
 1122SOL    HW1 3617   2.135   1.516   0.725  0.0952  0.5116  0.7237
 1122SOL    HW2 3618   2.264   1.569   0.667  0.0305  0.2094  0.3024
 1123SOL     OW 3619   2.856   5.604   3.630 -0.0697  0.0600 -0.3884
 1123SOL    HW1 3620   2.885   5.660   3.559 -0.7632  0.2283 -0.5435
 1123SOL    HW2 3621   2.772   5.568   3.600 -0.5035  0.3505  0.4492
 1124SOL     OW 3622   2.633   0.258   3.780 -0.4258 -0.3124  0.2821
 1124SOL    HW1 3623   2.717   0.244   3.825  0.7330  0.1105 -1.6012
 1124SOL    HW2 3624   2.631   0.190   3.713 -0.9808  0.4484 -0.4907
 1125SOL     OW 3625   0.533   1.609   1.000 -0.2220 -0.0020  0.0810
 1125SOL    HW1 3626   0.611   1.586   0.950 -0.0457 -0.8824  0.7455
 1125SOL    HW2 3627   0.489   1.526   1.016 -0.0982  0.2138  1.6824
 1126SOL     OW 3628   2.729   3.689   6.337  0.6347  0.3931  0.5467
 1126SOL    HW1 3629   2.795   3.639   6.290 -1.1769  0.1201 -1.8899
 1126SOL    HW2 3630   2.726   3.774   6.292  0.1047  0.8171  1.3513
 1127SOL     OW 3631   1.352   0.729   2.894  0.3919 -0.1697  0.6642
 1127SOL    HW1 3632   1.365   0.737   2.988  1.0469  0.1825  0.5501
 1127SOL    HW2 3633   1.345   0.819   2.863 -0.7133 -0.2974  0.4853
 1128SOL     OW 3634   1.456   2.958   0.941 -0.6660  0.1279  0.1555
 1128SOL    HW1 3635   1.368   2.965   0.977 -0.9083  1.1526 -0.5959
 1128SOL    HW2 3636   1.496   3.044   0.956 -0.0291 -0.1103 -0.1119
 1129SOL     OW 3637   3.568   2.574   0.024  0.7837  0.1332  0.2329
 1129SOL    HW1 3638   3.610   2.576   0.110 -1.2312  1.7152  1.2837
 1129SOL    HW2 3639   3.621   2.632  -0.030  1.1694  0.4143  0.9001
 1130SOL     OW 3640   0.016   4.809   0.998  0.1264 -0.0818  0.4554
 1130SOL    HW1 3641   0.007   4.734   1.056 -0.9084  0.2694  0.7710
 1130SOL    HW2 3642   0.024   4.884   1.057 -1.1033  0.3000  0.1740
 1131SOL     OW 3643   5.076   2.277   3.498  0.1102 -0.5151  0.1447
 1131SOL    HW1 3644   5.091   2.259   3.591  1.4022 -2.0010 -0.3042
 1131SOL    HW2 3645   5.160   2.311   3.467  0.0617 -1.1497 -0.7143
 1132SOL     OW 3646   5.152   1.027   4.622 -0.3735 -0.0165  0.3077
 1132SOL    HW1 3647   5.134   1.078   4.543  0.2604  1.5318  1.1273
 1132SOL    HW2 3648   5.177   0.940   4.589 -1.4347  0.1851 -1.1198
 1133SOL     OW 3649   0.550   3.489   4.601  0.1593 -0.2896 -0.0419
 1133SOL    HW1 3650   0.519   3.400   4.616 -0.7029  0.0611  0.3494
 1133SOL    HW2 3651   0.594   3.486   4.516 -0.5129 -0.9261 -0.3743
 1134SOL     OW 3652   2.543   5.034   3.605  0.0366 -0.8449  0.3351
 1134SOL    HW1 3653   2.609   4.988   3.553  0.0972 -0.1399 -0.2196
 1134SOL    HW2 3654   2.474   5.054   3.542 -1.2694 -2.5849  1.1171
 1135SOL     OW 3655   3.289   4.388   3.506  0.0685  0.2146  0.5995
 1135SOL    HW1 3656   3.351   4.414   3.574  0.5288 -1.4014  0.8324
 1135SOL    HW2 3657   3.319   4.432   3.427  0.7710  0.4355  0.9850
 1136SOL     OW 3658   4.888   4.469   0.028  0.3361  0.4820  0.1590
 1136SOL    HW1 3659   4.805   4.514   0.045  0.8393  0.9682  1.4704
 1136SOL    HW2 3660   4.897   4.407   0.100  0.4372 -0.5948 -0.7563
 1137SOL     OW 3661   6.114   4.276   3.574 -0.0871 -0.2975  0.6104
 1137SOL    HW1 3662   6.024   4.305   3.558  0.0966  0.3148  0.6775
 1137SOL    HW2 3663   6.168   4.342   3.530  0.3120 -1.0975 -0.1252
 1138SOL     OW 3664   2.211   4.855   3.475  0.0643 -0.7393  0.2293
 1138SOL    HW1 3665   2.153   4.807   3.534 -1.6846 -0.7664 -1.4262
 1138SOL    HW2 3666   2.159   4.930   3.446  1.6883  0.5374  0.4426
 1139SOL     OW 3667   0.982   2.613   5.234 -0.0006 -0.2614  0.4146
 1139SOL    HW1 3668   0.928   2.652   5.165  1.3480  1.0918  0.0797
 1139SOL    HW2 3669   1.066   2.596   5.193  0.8284  0.5454  1.6990
 1140SOL     OW 3670   3.819   1.314   2.607  0.3944 -0.3442  0.3571
 1140SOL    HW1 3671   3.900   1.358   2.581  1.0238 -0.8723  1.3695
 1140SOL    HW2 3672   3.817   1.321   2.702  0.4451 -2.3413  0.5525
 1141SOL     OW 3673   0.848   4.890   4.473  0.3232 -0.0106 -0.6658
 1141SOL    HW1 3674   0.801   4.889   4.556  2.0371  1.4325  0.3901
 1141SOL    HW2 3675   0.863   4.798   4.452 -1.0834 -0.4235  0.0376
 1142SOL     OW 3676   0.811   2.007   5.566 -0.0913  0.3713  0.1616
 1142SOL    HW1 3677   0.726   2.045   5.589 -1.1558 -0.3923 -2.2110
 1142SOL    HW2 3678   0.852   2.072   5.508  0.4623  0.2305  0.3818
 1143SOL     OW 3679   2.996   5.901   3.217  0.2396 -0.0578 -0.2678
 1143SOL    HW1 3680   2.924   5.963   3.203  0.7551  0.3305 -1.2924
 1143SOL    HW2 3681   3.032   5.886   3.130  0.2670 -1.6506 -0.0119
 1144SOL     OW 3682   0.332   1.565   0.083  0.5421  0.1750 -0.8713
 1144SOL    HW1 3683   0.424   1.568   0.110 -0.3036  1.2573  2.3028
 1144SOL    HW2 3684   0.284   1.596   0.159 -2.6873 -2.6251 -1.5509
 1145SOL     OW 3685   6.131   1.854   6.319 -0.4560  0.5746  0.2325
 1145SOL    HW1 3686   6.207   1.809   6.354 -0.9428 -1.6852 -1.3730
 1145SOL    HW2 3687   6.098   1.796   6.250 -3.9310  1.1760  1.1868
 1146SOL     OW 3688   1.020   1.243   5.466 -0.3505  0.3323  0.0176
 1146SOL    HW1 3689   1.078   1.258   5.392 -0.5216  2.0156  0.1980
 1146SOL    HW2 3690   0.942   1.203   5.427 -0.5938  1.5399 -0.7836
 1147SOL     OW 3691   3.792   4.639   2.272 -0.0097 -0.1110  0.2035
 1147SOL    HW1 3692   3.815   4.562   2.220  2.1560  0.8898 -0.4266
 1147SOL    HW2 3693   3.727   4.607   2.334  0.0863 -2.2096 -0.6832
 1148SOL     OW 3694   4.740   2.221   4.070  0.3474  0.3762  0.1852
 1148SOL    HW1 3695   4.728   2.234   4.164  1.3320 -0.0552  0.3750
 1148SOL    HW2 3696   4.741   2.126   4.058 -1.7926  0.3919 -0.5433
 1149SOL     OW 3697   0.849   1.194   1.324  0.6300  0.1021  0.1678
 1149SOL    HW1 3698   0.761   1.219   1.351  1.0444 -0.4189  2.1024
 1149SOL    HW2 3699   0.903   1.209   1.401  1.9611 -1.0970 -0.4936
 1150SOL     OW 3700   1.817   4.573   4.653 -1.0235 -0.1824 -0.1366
 1150SOL    HW1 3701   1.761   4.545   4.725  1.4254 -0.8336  1.6800
 1150SOL    HW2 3702   1.904   4.541   4.677  0.5865  2.5919 -1.6622
 1151SOL     OW 3703   0.960   3.200   0.406  0.6013  0.3408 -0.6141
 1151SOL    HW1 3704   0.882   3.144   0.406 -0.3823  1.6469 -1.5486
 1151SOL    HW2 3705   1.033   3.139   0.418 -0.5809 -0.8474  1.0046
 1152SOL     OW 3706   2.770   1.963   1.790 -0.3684 -0.5551  0.3578
 1152SOL    HW1 3707   2.700   1.932   1.733 -0.9861  1.2211  0.0985
 1152SOL    HW2 3708   2.764   2.058   1.787  0.7688 -0.3833  1.9461
 1153SOL     OW 3709   4.880   2.500   4.600 -0.0737  0.0088 -0.0291
 1153SOL    HW1 3710   4.961   2.524   4.555 -0.2492  1.3217  0.2916
 1153SOL    HW2 3711   4.852   2.582   4.642  0.1038 -1.1182  2.4715
 1154SOL     OW 3712   3.664   5.521   3.336  0.2403  0.1390 -0.5333
 1154SOL    HW1 3713   3.729   5.458   3.306  0.6603 -0.2568  1.1087
 1154SOL    HW2 3714   3.714   5.587   3.384 -0.6062 -0.7893  1.7582
 1155SOL     OW 3715   0.738   4.925   4.092  0.7536 -0.5927  0.3029
 1155SOL    HW1 3716   0.798   4.865   4.048  0.5460  1.2252 -2.7097
 1155SOL    HW2 3717   0.651   4.888   4.076  0.7909 -1.1853  1.3513
 1156SOL     OW 3718   5.959   0.466   4.681 -0.2807 -0.2855 -0.1226
 1156SOL    HW1 3719   5.918   0.507   4.758  0.7576 -1.2846  0.9977
 1156SOL    HW2 3720   6.052   0.482   4.693 -0.1288 -0.0994 -1.4197
 1157SOL     OW 3721   0.891   4.554   0.827 -0.2786  0.1972 -0.1135
 1157SOL    HW1 3722   0.838   4.482   0.861  0.4953 -0.1061  0.4853
 1157SOL    HW2 3723   0.860   4.631   0.875  0.3299 -0.1095  0.7905
 1158SOL     OW 3724   1.330   2.007   2.098  0.3602 -0.0909 -0.0708
 1158SOL    HW1 3725   1.409   2.041   2.055  0.2494 -0.3672 -0.4980
 1158SOL    HW2 3726   1.259   2.029   2.039  0.3264 -1.3887 -0.5540
 1159SOL     OW 3727   1.249   3.503   2.186 -0.2951  0.3401 -0.0698
 1159SOL    HW1 3728   1.309   3.471   2.253  1.8408  1.2582 -1.4201
 1159SOL    HW2 3729   1.201   3.574   2.228  0.6555  0.5762  0.6419
 1160SOL     OW 3730   3.778   6.128   5.260  0.2239  0.2794  0.4464
 1160SOL    HW1 3731   3.759   6.187   5.333  0.9663  1.8238 -0.5479
 1160SOL    HW2 3732   3.705   6.139   5.200  0.1707 -0.1237  0.4333
 1161SOL     OW 3733   3.970   5.282   2.467  0.0663 -0.3726 -0.7251
 1161SOL    HW1 3734   4.009   5.239   2.543  1.3589 -2.3689 -2.4087
 1161SOL    HW2 3735   3.876   5.272   2.480  0.2174  0.1086  0.9911
 1162SOL     OW 3736   1.546   6.211   4.973 -0.2091  0.3011 -0.4998
 1162SOL    HW1 3737   1.463   6.202   4.926 -0.3281 -1.7302 -0.0119
 1162SOL    HW2 3738   1.525   6.183   5.062  0.3422  2.6997  0.4487
 1163SOL     OW 3739   1.630   5.537   1.738  0.0336  0.6119  0.1541
 1163SOL    HW1 3740   1.697   5.561   1.802  0.5198  2.0869 -0.8580
 1163SOL    HW2 3741   1.572   5.478   1.785  0.3827  1.6429  1.9427
 1164SOL     OW 3742   0.538   0.768   4.351 -0.1997  0.7760 -0.0560
 1164SOL    HW1 3743   0.484   0.764   4.430  2.3336 -0.3595  1.7417
 1164SOL    HW2 3744   0.546   0.862   4.333 -1.0998  1.0433  0.7973
 1165SOL     OW 3745   2.654   4.708   0.720 -0.0170 -0.2298 -0.0827
 1165SOL    HW1 3746   2.677   4.683   0.810 -0.3553 -0.5259 -0.0775
 1165SOL    HW2 3747   2.658   4.803   0.720  0.1667 -0.2360  0.1991
 1166SOL     OW 3748   0.992   4.027   1.998 -0.2992  0.1386  0.1035
 1166SOL    HW1 3749   1.008   3.943   2.040  1.7615  0.3767 -0.0978
 1166SOL    HW2 3750   0.986   4.089   2.071  0.4854  0.1490  0.1599
 1167SOL     OW 3751   3.278   1.916   3.040 -0.6498  0.7062 -0.0126
 1167SOL    HW1 3752   3.271   1.831   3.083 -1.9154 -0.2391 -1.9539
 1167SOL    HW2 3753   3.372   1.934   3.036 -0.2687 -1.2156 -0.6937
 1168SOL     OW 3754   3.011   5.862   4.849  0.1511  0.3077 -0.3211
 1168SOL    HW1 3755   2.992   5.777   4.810 -0.9327 -0.0865  1.0259
 1168SOL    HW2 3756   3.016   5.845   4.943  1.8717  1.3943 -0.1691
 1169SOL     OW 3757   4.189   5.858   5.697  0.0886  0.0341  0.3012
 1169SOL    HW1 3758   4.223   5.807   5.771  0.1976 -1.0436 -0.4699
 1169SOL    HW2 3759   4.121   5.914   5.736 -1.1313 -1.8139  0.9661
 1170SOL     OW 3760   6.031   4.723   2.153 -0.2745 -0.3841  0.2961
 1170SOL    HW1 3761   5.941   4.703   2.180 -0.2771 -0.6055  0.1293
 1170SOL    HW2 3762   6.032   4.818   2.142 -0.1965 -0.2575  1.3445
 1171SOL     OW 3763   1.609   4.853   1.756 -0.3646  0.2976 -0.1142
 1171SOL    HW1 3764   1.522   4.879   1.727 -0.9334 -0.8062  0.5097
 1171SOL    HW2 3765   1.616   4.760   1.732  1.2661  0.7336 -1.5491
 1172SOL     OW 3766   5.888   4.712   0.692 -0.1571  1.7195 -0.0926
 1172SOL    HW1 3767   5.906   4.717   0.598  2.9154 -1.1444  0.1580
 1172SOL    HW2 3768   5.906   4.800   0.724  5.0776  1.4753 -1.4792
 1173SOL     OW 3769   4.099   0.356   0.068 -0.0727 -0.1627  0.4321
 1173SOL    HW1 3770   4.113   0.445   0.101 -0.8491  0.7068 -1.3934
 1173SOL    HW2 3771   4.185   0.327   0.040  0.0988  0.2472  0.5285
 1174SOL     OW 3772   4.986   1.418   4.816  0.1948  0.0907 -0.0122
 1174SOL    HW1 3773   4.895   1.389   4.805  0.3332  0.2059 -1.7144
 1174SOL    HW2 3774   5.032   1.339   4.844 -0.6162  0.3244  2.2207
 1175SOL     OW 3775   2.761   2.294   1.412 -0.0221  0.3800  0.8573
 1175SOL    HW1 3776   2.758   2.378   1.459 -0.4169 -0.0433  1.6003
 1175SOL    HW2 3777   2.676   2.254   1.429  0.1585 -0.1650  0.4846
 1176SOL     OW 3778   5.963   0.786   3.275 -0.7001  0.3139  0.5947
 1176SOL    HW1 3779   5.894   0.839   3.234 -0.3238  0.0420 -0.4364
 1176SOL    HW2 3780   5.920   0.704   3.299 -0.8606  0.3580  0.4577
 1177SOL     OW 3781   0.320   4.301   5.332  0.2177  0.0678 -0.2328
 1177SOL    HW1 3782   0.374   4.272   5.406 -1.4250  2.2435  1.9800
 1177SOL    HW2 3783   0.365   4.378   5.298 -1.2538  1.8294  1.5564
 1178SOL     OW 3784   4.587   5.769   0.606  0.4713  0.6232 -0.1042
 1178SOL    HW1 3785   4.587   5.703   0.675  2.5176 -1.2227 -1.7366
 1178SOL    HW2 3786   4.495   5.797   0.600  0.0127 -0.0271  2.4626
 1179SOL     OW 3787   2.006   5.104   5.484  0.0680  0.5010 -0.3561
 1179SOL    HW1 3788   2.066   5.122   5.557 -1.0360 -0.9880  0.9778
 1179SOL    HW2 3789   1.933   5.164   5.499 -0.9128 -0.9292  0.7342
 1180SOL     OW 3790   5.334   1.155   5.894  0.3423 -0.7507 -0.0025
 1180SOL    HW1 3791   5.295   1.186   5.812  1.2794  0.8137  0.0999
 1180SOL    HW2 3792   5.415   1.112   5.867  0.7554 -0.0533  0.0929
 1181SOL     OW 3793   3.196   1.673   3.748 -0.4933  0.7982  0.3489
 1181SOL    HW1 3794   3.151   1.755   3.772 -1.5438  0.3708 -0.0899
 1181SOL    HW2 3795   3.140   1.604   3.783 -1.4558  0.1755 -2.2125
 1182SOL     OW 3796   5.839   5.080   5.324  0.2899  0.1192  0.1606
 1182SOL    HW1 3797   5.881   5.123   5.398  0.1510 -1.9552  1.5351
 1182SOL    HW2 3798   5.803   5.151   5.271  0.0526  1.6594  2.2830
 1183SOL     OW 3799   4.842   4.519   2.648 -0.1593  0.2897 -0.2023
 1183SOL    HW1 3800   4.911   4.465   2.685 -1.6798 -0.9387  0.9939
 1183SOL    HW2 3801   4.801   4.465   2.581 -2.2292 -0.4928  1.5692
 1184SOL     OW 3802   5.671   3.697   5.393 -0.3397 -0.6709  0.5452
 1184SOL    HW1 3803   5.741   3.676   5.331 -0.4614 -1.6136  0.7054
 1184SOL    HW2 3804   5.675   3.792   5.402  1.2768 -0.7508  0.9844
 1185SOL     OW 3805   5.686   5.365   1.837 -0.2272  0.1456  0.1422
 1185SOL    HW1 3806   5.677   5.310   1.915 -2.0039 -1.2031 -0.9633
 1185SOL    HW2 3807   5.666   5.454   1.869 -2.5364 -0.5974  0.9604
 1186SOL     OW 3808   0.289   2.528   0.394 -0.7744  0.6508  0.3207
 1186SOL    HW1 3809   0.343   2.468   0.342 -2.0200  0.1779 -0.4929
 1186SOL    HW2 3810   0.207   2.481   0.407 -1.3885  1.7570  0.6068
 1187SOL     OW 3811   5.214   1.054   1.710  0.1222 -0.1075 -0.2725
 1187SOL    HW1 3812   5.281   0.992   1.739  1.1447  1.2850  0.4859
 1187SOL    HW2 3813   5.223   1.059   1.615  1.1340  0.0860 -0.1710
 1188SOL     OW 3814   5.811   5.351   1.297 -0.5474 -0.4777 -0.7739
 1188SOL    HW1 3815   5.869   5.292   1.344  2.1875  1.8980 -0.8598
 1188SOL    HW2 3816   5.781   5.413   1.364 -2.3633 -1.1796 -0.9022
 1189SOL     OW 3817   1.511   0.115   2.954 -0.6857  0.0661 -0.0029
 1189SOL    HW1 3818   1.536   0.045   2.894 -0.7504  2.4823 -3.0923
 1189SOL    HW2 3819   1.511   0.074   3.041  2.5615 -2.8846 -1.1982
 1190SOL     OW 3820   5.009   2.035   3.382 -0.1312  0.2154  0.2841
 1190SOL    HW1 3821   5.039   2.117   3.421 -2.7099  1.1941  0.4395
 1190SOL    HW2 3822   4.925   2.058   3.341 -0.3343 -2.0898 -0.7339
 1191SOL     OW 3823   5.072   5.047   2.664  0.0789 -0.1095 -0.0336
 1191SOL    HW1 3824   5.115   4.989   2.601 -1.5938 -0.5777 -0.8024
 1191SOL    HW2 3825   4.987   5.006   2.680 -0.6895  1.5316  0.3178
 1192SOL     OW 3826   5.067   1.377   1.095 -0.1289 -0.0358 -0.5062
 1192SOL    HW1 3827   5.061   1.438   1.169 -0.1223 -1.1708  0.4763
 1192SOL    HW2 3828   5.074   1.432   1.018 -0.4063  1.1959  0.3264
 1193SOL     OW 3829   3.228   4.173   1.387  0.6523  0.1202  1.1392
 1193SOL    HW1 3830   3.162   4.163   1.318  0.6321  1.1949  0.9787
 1193SOL    HW2 3831   3.232   4.087   1.429 -1.1566  0.1326  1.4314
 1194SOL     OW 3832   5.637   4.423   0.274  0.6546 -0.1344  0.1920
 1194SOL    HW1 3833   5.637   4.441   0.180  1.6929  0.7505  0.3464
 1194SOL    HW2 3834   5.712   4.366   0.288 -0.4766 -1.6730  0.2657
 1195SOL     OW 3835   1.671   1.826   1.475  0.2287 -0.3151  0.5307
 1195SOL    HW1 3836   1.726   1.866   1.542 -0.3741  0.9574  0.2959
 1195SOL    HW2 3837   1.732   1.801   1.405  0.6612 -0.1801  0.8595
 1196SOL     OW 3838   1.242   3.081   5.466 -0.5225  0.6747 -0.1433
 1196SOL    HW1 3839   1.189   3.021   5.413  0.0471  0.4015 -0.4141
 1196SOL    HW2 3840   1.203   3.077   5.553 -1.1578  0.7363 -0.4190
 1197SOL     OW 3841   0.572   3.870   2.617 -0.0480 -0.2217  0.1158
 1197SOL    HW1 3842   0.534   3.815   2.548 -0.7886 -1.0553  1.1565
 1197SOL    HW2 3843   0.569   3.815   2.696  1.3921  0.4708  0.6814
 1198SOL     OW 3844   1.291   2.454   2.521  0.1890  0.2015 -0.3247
 1198SOL    HW1 3845   1.377   2.474   2.484  0.8382 -0.1328  0.9500
 1198SOL    HW2 3846   1.288   2.503   2.603 -1.5707  1.6034 -1.1703
 1199SOL     OW 3847   5.050   2.779   2.071  0.2216  0.1044  0.2104
 1199SOL    HW1 3848   4.978   2.829   2.110 -0.3810 -1.0314  0.6032
 1199SOL    HW2 3849   5.048   2.695   2.116  1.2915 -0.2393 -0.3447
 1200SOL     OW 3850   4.542   2.953   2.546 -0.2410 -0.0393  0.9908
 1200SOL    HW1 3851   4.498   2.994   2.621  1.1833 -0.5611  2.1712
 1200SOL    HW2 3852   4.629   2.992   2.546 -0.5205  0.7036 -1.0711
 1201SOL     OW 3853   4.789   4.726   6.124 -0.3493 -0.1703  0.4292
 1201SOL    HW1 3854   4.780   4.659   6.056  0.3359 -0.2236  0.3871
 1201SOL    HW2 3855   4.874   4.767   6.107 -0.0097 -0.4041  1.4407
 1202SOL     OW 3856   3.803   2.122   2.950 -0.0019 -0.3382 -0.2572
 1202SOL    HW1 3857   3.815   2.177   3.028 -0.0490  2.2688 -1.9644
 1202SOL    HW2 3858   3.891   2.116   2.912 -0.4505  1.1792 -1.6619
 1203SOL     OW 3859   4.107   4.309   0.683 -0.2302 -0.1124  0.6131
 1203SOL    HW1 3860   4.173   4.376   0.700 -1.2792  0.5158  2.5200
 1203SOL    HW2 3861   4.024   4.357   0.682 -0.8864 -1.2034  0.7031
 1204SOL     OW 3862   5.072   5.103   5.704 -0.2652  0.2939 -0.0055
 1204SOL    HW1 3863   5.090   5.009   5.701  0.0727  0.3647 -0.2661
 1204SOL    HW2 3864   5.153   5.144   5.672 -0.3494  0.6793  0.2709
 1205SOL     OW 3865   4.697   2.573   2.174  0.2798  0.1164 -0.7749
 1205SOL    HW1 3866   4.638   2.523   2.231  1.4831  0.0934  0.4989
 1205SOL    HW2 3867   4.640   2.610   2.107 -1.0483 -0.6236 -0.0900
 1206SOL     OW 3868   5.312   3.043   1.916 -0.6012  0.3455  0.1459
 1206SOL    HW1 3869   5.359   2.960   1.910 -1.1100  0.0054  0.7707
 1206SOL    HW2 3870   5.234   3.031   1.862 -0.8218  0.3119  0.4688
 1207SOL     OW 3871   0.555   4.456   2.304 -0.6751 -0.0934  0.7801
 1207SOL    HW1 3872   0.618   4.435   2.373  1.2734  0.5773 -0.6804
 1207SOL    HW2 3873   0.591   4.415   2.225 -1.9777  0.4853 -0.1613
 1208SOL     OW 3874   5.964   2.512   2.244 -0.9968 -0.5006  0.0729
 1208SOL    HW1 3875   5.959   2.464   2.161 -0.7968  0.9647 -0.8343
 1208SOL    HW2 3876   6.028   2.462   2.296 -0.5048 -1.0082 -0.9701
 1209SOL     OW 3877   4.601   3.765   5.197  0.7359  0.0391  0.4273
 1209SOL    HW1 3878   4.628   3.687   5.246  0.1993 -1.1769 -1.1103
 1209SOL    HW2 3879   4.509   3.778   5.221  1.2105  1.0932  1.7696
 1210SOL     OW 3880   5.002   1.968   0.871  0.8777 -0.3163  0.1160
 1210SOL    HW1 3881   4.968   2.011   0.950 -0.6233 -1.7462  0.3196
 1210SOL    HW2 3882   4.924   1.943   0.822  1.7843  1.0383 -2.1702
 1211SOL     OW 3883   5.814   0.473   1.992  0.2563  0.6591  0.6051
 1211SOL    HW1 3884   5.771   0.558   1.998 -1.9204 -0.3522  0.4082
 1211SOL    HW2 3885   5.807   0.436   2.080 -0.0247  0.1430  0.3682
 1212SOL     OW 3886   3.473   2.309   5.535  0.5940  0.4481 -0.0841
 1212SOL    HW1 3887   3.535   2.240   5.512 -0.1355 -0.4406  0.5281
 1212SOL    HW2 3888   3.513   2.389   5.502  0.5701 -0.4697 -2.5663
 1213SOL     OW 3889   2.844   1.699   2.795  0.1701  0.0639  0.5097
 1213SOL    HW1 3890   2.780   1.652   2.849  1.6278 -1.2071  1.2125
 1213SOL    HW2 3891   2.831   1.663   2.708 -0.3598  0.1447  0.5469
 1214SOL     OW 3892   4.022   3.383   4.613  0.1171 -0.5909 -0.3014
 1214SOL    HW1 3893   4.059   3.438   4.544 -2.3773  0.6495 -0.7696
 1214SOL    HW2 3894   4.019   3.440   4.690  0.0159 -0.9710 -0.0182
 1215SOL     OW 3895   0.790   4.398   1.347  0.0505 -0.5104  0.1381
 1215SOL    HW1 3896   0.865   4.403   1.286  0.0760  1.1294  0.2567
 1215SOL    HW2 3897   0.715   4.425   1.294 -0.0200  0.3775  0.6788
 1216SOL     OW 3898   4.718   6.056   1.682  0.1688  0.1507 -0.2434
 1216SOL    HW1 3899   4.746   6.037   1.592  2.1542  0.8502  0.1741
 1216SOL    HW2 3900   4.706   5.969   1.722 -0.3966 -0.1655 -1.0715
 1217SOL     OW 3901   0.451   0.196   1.373 -0.7165 -0.5043  0.1259
 1217SOL    HW1 3902   0.388   0.158   1.311 -1.7139 -0.1259  0.8789
 1217SOL    HW2 3903   0.532   0.205   1.323 -1.2929 -0.8939 -0.9013
 1218SOL     OW 3904   5.008   3.783   2.584  0.4237 -0.0553 -0.0264
 1218SOL    HW1 3905   5.086   3.833   2.560  1.1536 -1.3799 -0.4932
 1218SOL    HW2 3906   4.966   3.836   2.652  1.9788  0.4698  0.5667
 1219SOL     OW 3907   0.453   0.063   5.042  0.2366  0.1555  0.2000
 1219SOL    HW1 3908   0.510   0.122   5.092  0.2383  0.2932  0.0358
 1219SOL    HW2 3909   0.386   0.036   5.105  0.2739  0.2819  0.2947
 1220SOL     OW 3910   5.790   3.549   5.824  0.0893  0.2298 -0.1624
 1220SOL    HW1 3911   5.808   3.557   5.730  1.8468  0.9718  0.2000
 1220SOL    HW2 3912   5.802   3.456   5.844 -1.6445 -0.1896 -0.8902
 1221SOL     OW 3913   4.847   1.027   4.464 -0.1165  0.2554 -0.4603
 1221SOL    HW1 3914   4.819   0.941   4.431 -0.4231  0.0601  0.2633
 1221SOL    HW2 3915   4.937   1.037   4.433 -0.0009 -0.4351 -0.3635
 1222SOL     OW 3916   1.278   4.079   5.874 -0.6981  0.0989 -0.5665
 1222SOL    HW1 3917   1.287   4.068   5.779  1.6035  0.1093 -0.4242
 1222SOL    HW2 3918   1.323   4.002   5.911  0.7661  1.3796  0.4600
 1223SOL     OW 3919   4.134   5.021   3.017  0.5795 -0.2103  0.0339
 1223SOL    HW1 3920   4.129   4.945   3.076 -0.9674 -0.1789 -0.0382
 1223SOL    HW2 3921   4.073   5.084   3.054 -0.2308 -0.0860 -1.4529
 1224SOL     OW 3922   1.500   5.490   3.662 -0.0237 -0.0083 -0.2258
 1224SOL    HW1 3923   1.537   5.410   3.624 -1.1522 -0.5787 -0.1819
 1224SOL    HW2 3924   1.422   5.508   3.609 -2.1620 -1.3297  2.2463
 1225SOL     OW 3925   5.603   5.694   3.151  0.2342 -0.0916  0.3715
 1225SOL    HW1 3926   5.515   5.732   3.154  0.6013  0.7301  1.3278
 1225SOL    HW2 3927   5.598   5.617   3.207 -0.0039 -0.3476  0.0048
 1226SOL     OW 3928   0.331   4.329   1.806 -0.3054 -0.3702  0.2272
 1226SOL    HW1 3929   0.301   4.239   1.791  0.5408 -0.7905  0.9993
 1226SOL    HW2 3930   0.325   4.341   1.901  2.7271 -0.7766  0.5521
 1227SOL     OW 3931   1.729   0.718   3.374  0.2591  0.4356 -0.5491
 1227SOL    HW1 3932   1.637   0.744   3.386 -0.0733  0.4428 -2.6788
 1227SOL    HW2 3933   1.724   0.636   3.326  1.3882 -0.7169  1.2131
 1228SOL     OW 3934   2.330   1.263   5.050  0.0993 -0.3978  0.0808
 1228SOL    HW1 3935   2.304   1.184   5.097  1.6117 -0.4142  0.9503
 1228SOL    HW2 3936   2.320   1.241   4.957 -0.1337 -1.3767  0.3312
 1229SOL     OW 3937   5.730   6.094   4.487 -0.4094 -0.3529 -0.4290
 1229SOL    HW1 3938   5.767   6.019   4.441 -0.5407 -0.6245 -0.0939
 1229SOL    HW2 3939   5.807   6.146   4.511 -0.3184 -0.3739 -0.6649
 1230SOL     OW 3940   0.658   0.176   0.198 -0.9102  0.0803  0.2036
 1230SOL    HW1 3941   0.638   0.172   0.291  1.5808  1.7995  0.9153
 1230SOL    HW2 3942   0.690   0.265   0.184  2.5885 -1.2233 -1.3672
 1231SOL     OW 3943   4.119   4.351   1.040 -0.0934  0.1634  0.0890
 1231SOL    HW1 3944   4.080   4.290   1.104  0.4955 -0.1852  0.1259
 1231SOL    HW2 3945   4.145   4.295   0.967  2.5175 -0.0201  1.0541
 1232SOL     OW 3946   0.460   0.820   0.352 -0.0142 -0.2326  0.5194
 1232SOL    HW1 3947   0.536   0.844   0.403  0.2643  1.3396 -0.5852
 1232SOL    HW2 3948   0.463   0.724   0.348  2.1087 -0.1972  0.1949
 1233SOL     OW 3949   5.244   0.870   2.267  0.4028  0.0335 -0.6521
 1233SOL    HW1 3950   5.275   0.815   2.339  0.5861  0.3736 -0.4684
 1233SOL    HW2 3951   5.206   0.809   2.205  0.8995 -0.3333 -0.6016
 1234SOL     OW 3952   2.047   6.311   2.156  0.1032 -0.0850  0.2836
 1234SOL    HW1 3953   2.119   6.306   2.093 -1.4790 -0.4742 -1.5996
 1234SOL    HW2 3954   2.080   6.366   2.226  1.9359  0.4456 -0.9254
 1235SOL     OW 3955   4.114   3.483   2.900 -0.0736  0.9787  0.0832
 1235SOL    HW1 3956   4.042   3.433   2.940  0.9005  0.4215  1.1917
 1235SOL    HW2 3957   4.079   3.511   2.815 -0.9856 -0.7961 -0.1777
 1236SOL     OW 3958   3.264   0.100   5.578  0.4249 -0.1299 -0.2866
 1236SOL    HW1 3959   3.214   0.042   5.635  1.4076 -0.7473 -0.0191
 1236SOL    HW2 3960   3.244   0.071   5.489  0.7009 -0.7248 -0.1626
 1237SOL     OW 3961   3.955   3.614   0.564  0.3186  0.3290 -0.3639
 1237SOL    HW1 3962   3.954   3.704   0.598 -1.7703  1.2546 -2.6075
 1237SOL    HW2 3963   4.006   3.620   0.483  1.0794 -0.7984  0.0048
 1238SOL     OW 3964   2.328   4.563   4.217  0.0476 -0.3300  0.0111
 1238SOL    HW1 3965   2.372   4.578   4.134 -1.0158 -1.4321 -0.7718
 1238SOL    HW2 3966   2.276   4.484   4.204 -2.6869  1.2509  0.6655
 1239SOL     OW 3967   2.886   4.813   4.679  0.2940  0.3923  0.1285
 1239SOL    HW1 3968   2.949   4.760   4.728  1.8268  1.7294 -0.2966
 1239SOL    HW2 3969   2.800   4.785   4.711  1.0975 -1.2976  0.9338
 1240SOL     OW 3970   0.598   1.117   1.827  0.0371 -0.0606  0.5595
 1240SOL    HW1 3971   0.513   1.159   1.815  0.5982  1.3320  1.2477
 1240SOL    HW2 3972   0.652   1.153   1.757  0.3244 -0.2166  0.7003
 1241SOL     OW 3973   2.388   1.963   2.441 -0.4044 -0.9996 -0.0291
 1241SOL    HW1 3974   2.434   1.945   2.523  2.7683 -1.1012 -1.6782
 1241SOL    HW2 3975   2.398   1.883   2.389 -1.6009 -0.6391 -0.8703
 1242SOL     OW 3976   5.573   2.630   4.716  0.2381 -0.1225  0.0928
 1242SOL    HW1 3977   5.524   2.609   4.796  0.5114  1.6783  0.7759
 1242SOL    HW2 3978   5.662   2.603   4.735  0.3587  0.5504  0.5271
 1243SOL     OW 3979   0.470   4.442   0.648 -0.0834  0.3154 -0.1666
 1243SOL    HW1 3980   0.451   4.438   0.742  0.2673  0.6379 -0.0756
 1243SOL    HW2 3981   0.407   4.383   0.608 -1.3797  1.4483  0.1038
 1244SOL     OW 3982   3.021   6.251   3.603 -0.0566 -0.1216  0.1486
 1244SOL    HW1 3983   3.037   6.200   3.523 -2.7268  0.5506 -0.9170
 1244SOL    HW2 3984   2.973   6.328   3.573 -1.3458  0.0599  2.4264
 1245SOL     OW 3985   3.048   4.886   5.448  0.2077 -0.1844  0.2997
 1245SOL    HW1 3986   3.122   4.920   5.398 -0.3590  1.1830  0.3393
 1245SOL    HW2 3987   2.974   4.941   5.422 -0.3975 -0.3613  1.5682
 1246SOL     OW 3988   4.414   3.777   3.444  0.1504 -0.2370 -0.4260
 1246SOL    HW1 3989   4.340   3.721   3.466  1.7278 -1.8097  1.2746
 1246SOL    HW2 3990   4.470   3.723   3.387  0.5350  0.5124 -0.7860
 1247SOL     OW 3991   0.895   4.097   5.614  0.8152  0.2405  0.1435
 1247SOL    HW1 3992   0.845   4.017   5.600  0.0654  0.6793  0.2272
 1247SOL    HW2 3993   0.922   4.093   5.706 -0.5844  0.8157  0.6061
 1248SOL     OW 3994   3.417   2.284   3.879  0.6585  0.1191  0.0220
 1248SOL    HW1 3995   3.322   2.286   3.873  0.7514 -0.0004 -2.3448
 1248SOL    HW2 3996   3.439   2.352   3.943 -1.0177 -0.4764  1.2943
 1249SOL     OW 3997   1.075   3.673   2.326 -0.7221 -0.2997 -0.3339
 1249SOL    HW1 3998   1.039   3.605   2.383  0.6784 -0.1023  0.8490
 1249SOL    HW2 3999   1.122   3.732   2.385 -2.0307  1.8260 -1.2967
 1250SOL     OW 4000   3.283   5.360   3.290 -0.2627 -0.1712 -0.3921
 1250SOL    HW1 4001   3.328   5.441   3.263  0.4366 -0.4135  0.0298
 1250SOL    HW2 4002   3.249   5.379   3.377  2.5038 -1.2776  1.0478
 1251SOL     OW 4003   1.578   4.853   2.622 -0.4214  0.4501  0.1564
 1251SOL    HW1 4004   1.671   4.843   2.603 -0.4433 -1.0668  0.6362
 1251SOL    HW2 4005   1.574   4.852   2.718 -0.9700 -0.1785  0.1349
 1252SOL     OW 4006   6.344   0.106   5.025 -0.5976 -0.0444 -0.0301
 1252SOL    HW1 4007   6.305   0.133   5.108 -0.4921  0.0593 -0.0130
 1252SOL    HW2 4008   6.281   0.134   4.958 -0.6206 -0.0084  0.0067
 1253SOL     OW 4009   5.504   0.022   3.989  0.1316 -0.6097 -0.3112
 1253SOL    HW1 4010   5.511   0.039   3.895  0.7697 -1.5213 -0.4367
 1253SOL    HW2 4011   5.594   0.004   4.017  0.0327  0.1685  0.5900
 1254SOL     OW 4012   4.510   3.343   1.660  0.0438  0.4802  0.3299
 1254SOL    HW1 4013   4.509   3.419   1.602 -0.6387 -0.0052 -0.3142
 1254SOL    HW2 4014   4.497   3.379   1.748  1.7819  1.2996  0.2935
 1255SOL     OW 4015   1.364   4.291   1.459 -0.0434  0.2857  0.5416
 1255SOL    HW1 4016   1.317   4.213   1.433  0.1413  0.4915 -0.4542
 1255SOL    HW2 4017   1.386   4.335   1.377  0.6438  0.9157  1.0392
 1256SOL     OW 4018   0.536   3.824   0.247  0.2380  0.2746  0.1786
 1256SOL    HW1 4019   0.540   3.871   0.331 -2.6044 -2.0969  1.8474
 1256SOL    HW2 4020   0.485   3.882   0.190  0.9227  1.2722  0.5478
 1257SOL     OW 4021   3.505   2.267   5.974  0.2155  0.2618 -0.2136
 1257SOL    HW1 4022   3.542   2.180   5.958  1.9905  0.9549  0.0145
 1257SOL    HW2 4023   3.521   2.283   6.067 -0.0457  0.8702 -0.2700
 1258SOL     OW 4024   4.338   2.256   3.781 -0.8032 -0.2827  0.9637
 1258SOL    HW1 4025   4.426   2.220   3.787 -0.9924 -1.0554 -0.2951
 1258SOL    HW2 4026   4.280   2.179   3.786 -1.3649  0.1428  1.1268
 1259SOL     OW 4027   5.175   0.937   3.473 -0.3492  0.0681 -0.0975
 1259SOL    HW1 4028   5.216   0.894   3.548 -0.8498  0.6542  0.5426
 1259SOL    HW2 4029   5.185   1.031   3.491 -3.6817  0.3462  1.1977
 1260SOL     OW 4030   1.775   3.459   4.851  0.7516 -0.2399  0.6060
 1260SOL    HW1 4031   1.687   3.430   4.874 -0.1207  1.3272 -0.5433
 1260SOL    HW2 4032   1.814   3.483   4.935  0.0255 -0.7830  1.1160
 1261SOL     OW 4033   0.122   5.093   0.463  0.1115 -0.0641  0.0529
 1261SOL    HW1 4034   0.153   5.135   0.383 -1.0805 -2.0034 -1.5170
 1261SOL    HW2 4035   0.201   5.083   0.517  1.1714  0.1920 -1.3883
 1262SOL     OW 4036   1.675   2.678   0.336 -0.5737  0.0251  0.2558
 1262SOL    HW1 4037   1.736   2.746   0.363 -0.3546 -0.6986  1.6959
 1262SOL    HW2 4038   1.636   2.711   0.255  2.1563  0.2598 -1.0786
 1263SOL     OW 4039   6.294   1.244   6.014  0.4273  0.0600 -0.1345
 1263SOL    HW1 4040   6.239   1.310   6.056  0.8119 -0.3383  1.0237
 1263SOL    HW2 4041   6.373   1.240   6.068  0.9227 -0.4958 -0.8793
 1264SOL     OW 4042   2.585   0.529   3.872 -0.3156 -0.5209 -0.0890
 1264SOL    HW1 4043   2.523   0.545   3.800 -0.9507  0.6323  0.6834
 1264SOL    HW2 4044   2.599   0.434   3.870 -1.6474 -0.7346 -0.6701
 1265SOL     OW 4045   2.497   2.686   1.312 -0.1884 -0.7018 -0.0030
 1265SOL    HW1 4046   2.408   2.679   1.276  0.3983  0.5174 -1.8352
 1265SOL    HW2 4047   2.507   2.779   1.333  0.7772 -0.7497 -0.2109
 1266SOL     OW 4048   5.278   4.138   5.201 -0.5921  0.1181 -0.0621
 1266SOL    HW1 4049   5.226   4.139   5.281 -1.3800  0.0361 -0.5616
 1266SOL    HW2 4050   5.333   4.061   5.208 -0.4403  0.2804  0.5359
 1267SOL     OW 4051   4.926   1.759   1.834 -0.2342  0.6049  0.1898
 1267SOL    HW1 4052   4.871   1.686   1.806  0.6218  0.5702 -1.5383
 1267SOL    HW2 4053   4.903   1.830   1.773  1.9557  0.4190 -0.9662
 1268SOL     OW 4054   2.146   2.110   3.032 -0.1440 -0.2349 -0.0568
 1268SOL    HW1 4055   2.109   2.027   3.003  0.7230 -1.0252  1.0436
 1268SOL    HW2 4056   2.182   2.150   2.953  0.3051 -1.3656 -0.4355
 1269SOL     OW 4057   0.390   1.853   0.952 -0.3758 -0.0548 -0.0110
 1269SOL    HW1 4058   0.403   1.763   0.981 -1.1519 -0.6673 -1.4605
 1269SOL    HW2 4059   0.309   1.880   0.995 -1.0806 -0.6702 -0.9244
 1270SOL     OW 4060   2.387   4.165   5.977  0.2750 -0.2375 -0.3307
 1270SOL    HW1 4061   2.298   4.173   5.944 -0.6157  0.3538  2.0205
 1270SOL    HW2 4062   2.440   4.218   5.917 -1.3016  1.1552 -0.5545
 1271SOL     OW 4063   1.424   0.026   5.245 -0.0097 -0.4678 -0.3988
 1271SOL    HW1 4064   1.459   0.071   5.168  1.2901 -1.4010 -0.3803
 1271SOL    HW2 4065   1.465   0.070   5.319 -0.7417 -0.0142 -0.2488
 1272SOL     OW 4066   1.380   6.226   3.769  0.1771  0.2427  0.2931
 1272SOL    HW1 4067   1.400   6.299   3.828 -1.6036  1.4645 -0.5060
 1272SOL    HW2 4068   1.314   6.175   3.817  2.0172 -1.4063  1.2069
 1273SOL     OW 4069   5.859   1.156   2.859 -0.2734 -0.3737 -0.9526
 1273SOL    HW1 4070   5.826   1.217   2.793  1.5530 -0.3428 -1.8972
 1273SOL    HW2 4071   5.893   1.083   2.809 -1.0441 -1.4936  0.1070
 1274SOL     OW 4072   0.101   3.077   3.442  0.2555  0.0603 -0.8633
 1274SOL    HW1 4073   0.080   3.133   3.516  1.3957  1.9423 -1.9065
 1274SOL    HW2 4074   0.138   2.998   3.482 -1.7006 -0.1852  0.6447
 1275SOL     OW 4075   2.096   0.371   3.776  0.1839 -0.1338  0.2347
 1275SOL    HW1 4076   2.187   0.398   3.765  0.6658 -0.9396  1.8977
 1275SOL    HW2 4077   2.052   0.449   3.810  0.5285 -0.0953  0.5953
 1276SOL     OW 4078   0.744   0.808   4.572  0.0770 -0.0792 -0.0472
 1276SOL    HW1 4079   0.806   0.736   4.561 -1.4152 -1.7357  1.5440
 1276SOL    HW2 4080   0.679   0.794   4.503  0.3616  0.4021 -0.4142
 1277SOL     OW 4081   0.014   1.752   4.163  0.2348 -0.3330  0.1940
 1277SOL    HW1 4082   0.097   1.745   4.211 -0.5993 -0.0170  1.7462
 1277SOL    HW2 4083   0.001   1.664   4.126  1.6588 -0.1636 -0.8168
 1278SOL     OW 4084   5.215   2.987   2.253 -0.2958  0.4186  0.0213
 1278SOL    HW1 4085   5.179   2.898   2.258 -0.5092  0.5556  1.2463
 1278SOL    HW2 4086   5.234   3.000   2.160 -0.6543 -0.7514 -0.2334
 1279SOL     OW 4087   3.753   3.302   5.591 -0.3253  0.2124 -0.1597
 1279SOL    HW1 4088   3.778   3.332   5.504  0.1135 -0.3273 -0.2314
 1279SOL    HW2 4089   3.725   3.211   5.577  1.2841 -0.4163  0.4861
 1280SOL     OW 4090   5.733   4.531   5.084  0.0217  0.4415 -0.0810
 1280SOL    HW1 4091   5.783   4.469   5.032 -1.4723 -1.4975  0.6550
 1280SOL    HW2 4092   5.788   4.548   5.161  0.2117 -0.4722 -0.0011
 1281SOL     OW 4093   2.175   5.536   0.187 -0.1649 -0.1816  0.2532
 1281SOL    HW1 4094   2.157   5.537   0.281  0.8595  0.1889  0.4544
 1281SOL    HW2 4095   2.090   5.517   0.147 -0.8451  0.7384  1.1993
 1282SOL     OW 4096   4.953   5.116   1.771 -0.2715 -0.4358 -0.4584
 1282SOL    HW1 4097   5.004   5.122   1.690 -0.7139  0.3598 -0.6893
 1282SOL    HW2 4098   4.908   5.200   1.778  0.1762 -0.2868  0.9117
 1283SOL     OW 4099   5.049   6.125   4.297  0.0749  0.4381  0.1207
 1283SOL    HW1 4100   5.042   6.075   4.216  0.4373  1.5043 -0.5975
 1283SOL    HW2 4101   5.133   6.170   4.289  0.2961  0.2585  1.2747
 1284SOL     OW 4102   4.492   1.021   0.801 -0.1477  0.5939 -0.3121
 1284SOL    HW1 4103   4.460   1.049   0.715  0.4684 -0.0437 -0.7495
 1284SOL    HW2 4104   4.586   1.034   0.797 -0.1425  0.8426  0.3853
 1285SOL     OW 4105   1.547   3.964   0.934  0.5740 -0.3517 -0.2822
 1285SOL    HW1 4106   1.495   3.963   0.854 -0.0733  0.4109  0.1110
 1285SOL    HW2 4107   1.632   4.001   0.908  0.0599  0.7383 -0.4455
 1286SOL     OW 4108   1.096   3.072   2.296  0.9884  0.2953 -0.4827
 1286SOL    HW1 4109   1.075   3.143   2.234 -1.4396  0.5839  0.5392
 1286SOL    HW2 4110   1.100   2.994   2.242  2.2096  0.9754 -1.4281
 1287SOL     OW 4111   0.741   4.274   3.140 -0.1351 -0.2958 -0.3928
 1287SOL    HW1 4112   0.790   4.269   3.058  0.8499  0.1657  0.1456
 1287SOL    HW2 4113   0.672   4.337   3.122  1.0280  1.0341 -0.4269
 1288SOL     OW 4114   2.811   2.535   3.114 -0.3755 -0.7700  0.9514
 1288SOL    HW1 4115   2.784   2.623   3.087 -2.6615 -1.7670 -0.2769
 1288SOL    HW2 4116   2.731   2.495   3.149  0.8768 -2.0068  2.5864
 1289SOL     OW 4117   0.980   0.140   0.250 -0.4281 -0.0954  0.2221
 1289SOL    HW1 4118   0.991   0.079   0.177 -1.0052 -1.3254  1.1217
 1289SOL    HW2 4119   0.895   0.182   0.234  0.6381  1.6572 -1.1998
 1290SOL     OW 4120   0.435   0.498   1.489  0.4329  0.6509  0.7802
 1290SOL    HW1 4121   0.436   0.433   1.419  0.4826  0.6290  0.8013
 1290SOL    HW2 4122   0.480   0.574   1.451 -0.6415  1.0921  0.3519
 1291SOL     OW 4123   2.206   1.071   3.797 -0.3194 -0.1622 -0.2922
 1291SOL    HW1 4124   2.130   1.128   3.786  0.2418  0.3745 -1.6939
 1291SOL    HW2 4125   2.281   1.127   3.774  0.7187 -0.1607  2.6493
 1292SOL     OW 4126   1.631   3.584   2.677 -0.4980 -0.0772  0.4281
 1292SOL    HW1 4127   1.552   3.576   2.624  0.5296 -0.5938 -1.1082
 1292SOL    HW2 4128   1.689   3.641   2.627  1.0669 -1.7296  0.2211
 1293SOL     OW 4129   1.295   3.754   5.643  0.4136 -0.6229  0.3665
 1293SOL    HW1 4130   1.217   3.800   5.614 -1.1297 -3.3528 -0.0997
 1293SOL    HW2 4131   1.273   3.662   5.637  2.8045 -1.4909  2.6613
 1294SOL     OW 4132   0.033   3.523   5.043 -0.7082 -0.3117 -0.2464
 1294SOL    HW1 4133   0.087   3.448   5.015 -1.5690 -2.0431  2.3847
 1294SOL    HW2 4134  -0.040   3.483   5.090 -1.8006  2.1836  0.2976
 1295SOL     OW 4135   2.297   6.184   3.736  0.2545  0.0775 -0.1184
 1295SOL    HW1 4136   2.224   6.124   3.721  0.1587 -0.2414  1.4832
 1295SOL    HW2 4137   2.347   6.182   3.654 -1.8121  0.7560 -1.4698
 1296SOL     OW 4138   5.928   3.254   0.975 -0.1891 -0.1156 -0.0925
 1296SOL    HW1 4139   5.991   3.324   0.994  0.2754 -0.3915 -0.5775
 1296SOL    HW2 4140   5.891   3.277   0.890  0.0467 -0.5072 -0.3073
 1297SOL     OW 4141   6.228   0.814   4.851 -0.8356  0.0379 -0.6064
 1297SOL    HW1 4142   6.299   0.792   4.911 -1.4337 -0.4219 -0.0556
 1297SOL    HW2 4143   6.235   0.909   4.840 -2.3703  0.6039  2.3732
 1298SOL     OW 4144   1.553   1.521   5.869 -0.0256  0.4583  0.5537
 1298SOL    HW1 4145   1.538   1.433   5.905  1.5504  0.0711  0.3281
 1298SOL    HW2 4146   1.501   1.522   5.788  1.8737 -1.2452 -0.8036
 1299SOL     OW 4147   4.592   1.355   4.376  0.0732 -0.1962 -0.3358
 1299SOL    HW1 4148   4.525   1.375   4.442 -0.3759 -1.0371 -0.5267
 1299SOL    HW2 4149   4.637   1.438   4.362  1.5249 -0.4100  2.4880
 1300SOL     OW 4150   3.631   0.250   4.037  0.4052 -0.0188  0.9820
 1300SOL    HW1 4151   3.564   0.195   3.997 -2.2204  2.6401  1.3650
 1300SOL    HW2 4152   3.683   0.282   3.964 -0.7467  0.2753  0.2575
 1301SOL     OW 4153   1.086   4.264   3.971 -0.6146  0.2475 -0.5422
 1301SOL    HW1 4154   1.179   4.277   3.953 -0.8946  0.0027 -2.3482
 1301SOL    HW2 4155   1.083   4.182   4.021  0.1461  0.3586 -0.2966
 1302SOL     OW 4156   4.393   6.323   1.997 -0.3288  0.3368 -0.4459
 1302SOL    HW1 4157   4.471   6.273   2.020 -1.7390 -0.9715  1.7969
 1302SOL    HW2 4158   4.385   6.314   1.902  1.8274 -0.0729 -0.6215
 1303SOL     OW 4159   5.808   5.378   2.546 -0.0557 -0.3993  0.4558
 1303SOL    HW1 4160   5.723   5.335   2.546 -0.4268  0.3161  0.8553
 1303SOL    HW2 4161   5.861   5.326   2.607 -0.5179 -0.2548  0.9876
 1304SOL     OW 4162   2.558   2.139   1.511 -0.1826  0.0917  0.4793
 1304SOL    HW1 4163   2.548   2.054   1.553  1.3815 -1.9500 -2.8618
 1304SOL    HW2 4164   2.479   2.148   1.457 -1.2592  1.7630  2.2172
 1305SOL     OW 4165   4.840   3.235   1.892 -0.0100  0.1325 -0.1957
 1305SOL    HW1 4166   4.876   3.312   1.936  1.5488 -0.8698  0.3369
 1305SOL    HW2 4167   4.814   3.268   1.805  1.2865  1.1277 -0.2403
 1306SOL     OW 4168   4.165   1.264   3.508 -0.5071  0.2883  0.2284
 1306SOL    HW1 4169   4.225   1.322   3.462 -0.9376  1.3809  0.9931
 1306SOL    HW2 4170   4.109   1.228   3.440  1.1491 -0.9787 -0.5379
 1307SOL     OW 4171   5.933   6.230   0.192 -0.1839  0.3241 -0.0383
 1307SOL    HW1 4172   5.866   6.209   0.127  1.6215  0.8286 -2.1928
 1307SOL    HW2 4173   5.972   6.146   0.216 -0.4222  0.2010 -0.0788
 1308SOL     OW 4174   6.114   2.440   4.423  0.0781  0.2919 -0.0545
 1308SOL    HW1 4175   6.047   2.422   4.356  1.5194 -0.6708 -1.3034
 1308SOL    HW2 4176   6.195   2.403   4.386  1.4548  2.0228  1.1012
 1309SOL     OW 4177   2.632   2.490   3.970  0.4156  0.0178 -0.1137
 1309SOL    HW1 4178   2.672   2.563   4.018  2.1414 -0.3405 -0.9166
 1309SOL    HW2 4179   2.680   2.486   3.888 -0.1351 -1.5675 -0.4016
 1310SOL     OW 4180   2.273   3.663   0.401 -0.6514 -0.3105  0.1060
 1310SOL    HW1 4181   2.227   3.714   0.467  0.8831 -0.3489  1.2487
 1310SOL    HW2 4182   2.364   3.688   0.410  0.2079 -3.2504  0.7621
 1311SOL     OW 4183   3.080   0.762   6.123  0.2990 -0.1814 -0.3793
 1311SOL    HW1 4184   3.154   0.817   6.098 -0.1708  0.5165 -0.2583
 1311SOL    HW2 4185   3.058   0.789   6.212  0.6735 -1.2426  0.0467
 1312SOL     OW 4186   2.612   5.867   4.670  0.3535 -0.0797 -0.1358
 1312SOL    HW1 4187   2.688   5.813   4.648  0.8975  0.3747  0.5607
 1312SOL    HW2 4188   2.546   5.845   4.604  0.7477 -1.1997 -0.1695
 1313SOL     OW 4189   3.494   1.923   1.185 -0.2202  0.4315  0.3753
 1313SOL    HW1 4190   3.485   1.841   1.136 -0.1881  0.3388  0.5225
 1313SOL    HW2 4191   3.427   1.981   1.148  1.3169  1.1892 -1.4069
 1314SOL     OW 4192   6.248   5.775   3.310 -0.0998  0.3516 -0.2365
 1314SOL    HW1 4193   6.182   5.707   3.303 -0.3514  0.2375  2.3697
 1314SOL    HW2 4194   6.331   5.729   3.305 -0.1917  0.3283 -2.0814
 1315SOL     OW 4195   1.884   1.361   0.329 -0.6423 -0.1663  0.0383
 1315SOL    HW1 4196   1.885   1.268   0.306 -0.0181 -0.1868  0.1316
 1315SOL    HW2 4197   1.971   1.393   0.303 -0.0498 -0.1010  1.9302
 1316SOL     OW 4198   2.443   2.158   0.425 -0.6473 -0.2997  0.6846
 1316SOL    HW1 4199   2.378   2.228   0.433 -1.9413 -1.5441  1.4363
 1316SOL    HW2 4200   2.411   2.088   0.482  1.2202 -1.0714  0.8641
 1317SOL     OW 4201   2.727   1.467   0.312  0.5497 -0.1164  0.4193
 1317SOL    HW1 4202   2.674   1.501   0.240 -0.0136 -0.7132  0.5491
 1317SOL    HW2 4203   2.668   1.410   0.361  1.2748 -0.6992  0.6360
 1318SOL     OW 4204   4.668   2.782   2.867  0.2640  0.1216 -0.4905
 1318SOL    HW1 4205   4.581   2.784   2.907  0.3137  1.0237 -0.4068
 1318SOL    HW2 4206   4.652   2.756   2.776  0.0640 -1.0769 -0.1407
 1319SOL     OW 4207   0.337   0.588   5.819 -0.8103  0.0025 -0.4379
 1319SOL    HW1 4208   0.413   0.636   5.852 -1.5695  1.8124 -1.1554
 1319SOL    HW2 4209   0.344   0.596   5.723 -0.6103 -1.9457 -0.6104
 1320SOL     OW 4210   1.708   5.052   0.848  0.1995 -0.5630  0.1948
 1320SOL    HW1 4211   1.714   5.095   0.933  0.4615 -0.4384  0.1138
 1320SOL    HW2 4212   1.697   4.959   0.868  0.3437 -0.5431  0.3638
 1321SOL     OW 4213   2.409   0.752   3.470 -0.4099 -0.1305  0.1211
 1321SOL    HW1 4214   2.442   0.795   3.549 -0.2396  1.1688 -0.6230
 1321SOL    HW2 4215   2.429   0.659   3.483 -1.5273 -0.1302  2.1436
 1322SOL     OW 4216   4.813   6.176   1.092  0.1796 -0.7908  0.1434
 1322SOL    HW1 4217   4.729   6.218   1.110 -0.3452 -1.3505 -0.9377
 1322SOL    HW2 4218   4.821   6.179   0.997  1.6282 -0.3010  0.2566
 1323SOL     OW 4219   2.255   0.048   1.215 -0.0980 -0.5883  0.0294
 1323SOL    HW1 4220   2.229  -0.022   1.275 -0.8596  0.6464  1.1864
 1323SOL    HW2 4221   2.287   0.118   1.272 -0.0260  0.2992 -1.0655
 1324SOL     OW 4222   0.242   1.364   3.839  0.6987  0.5037 -0.0919
 1324SOL    HW1 4223   0.202   1.359   3.752  2.1558 -0.4288 -0.7456
 1324SOL    HW2 4224   0.330   1.398   3.823  0.8493  0.7092  1.0737
 1325SOL     OW 4225   4.305   4.230   4.788  0.6627 -0.1002  0.0832
 1325SOL    HW1 4226   4.324   4.167   4.857 -1.0822 -1.2699 -0.4292
 1325SOL    HW2 4227   4.369   4.211   4.719  0.8063 -0.6265  0.3570
 1326SOL     OW 4228   4.838   4.086   5.263  0.0948  0.2160 -0.2777
 1326SOL    HW1 4229   4.881   4.081   5.349 -0.4785  0.2643  0.0133
 1326SOL    HW2 4230   4.855   4.000   5.224  0.8188  0.3790 -0.3431
 1327SOL     OW 4231   5.897   2.893   1.629 -0.0650  0.5285  0.5625
 1327SOL    HW1 4232   5.885   2.798   1.625 -0.1902  0.3759  3.0115
 1327SOL    HW2 4233   5.808   2.928   1.639  0.0194  0.8739  0.1178
 1328SOL     OW 4234   1.199   4.726   1.484  0.1511  0.0161 -0.8083
 1328SOL    HW1 4235   1.141   4.666   1.437 -3.0461 -0.6079  3.4015
 1328SOL    HW2 4236   1.147   4.805   1.498 -0.1399 -0.6810  3.3821
 1329SOL     OW 4237   3.524   0.956   2.850  0.2342  0.1394  0.3764
 1329SOL    HW1 4238   3.529   0.887   2.784  1.8881  0.4670  0.1199
 1329SOL    HW2 4239   3.609   0.999   2.847 -0.0464  0.8935  1.9549
 1330SOL     OW 4240   1.429   0.089   3.925 -0.1411 -0.1315 -0.3619
 1330SOL    HW1 4241   1.512   0.066   3.966 -0.6137  0.2721  0.8626
 1330SOL    HW2 4242   1.450   0.164   3.870  0.4032 -0.3455 -0.4485
 1331SOL     OW 4243   5.663   2.925   3.054  0.1150  0.5141  0.1412
 1331SOL    HW1 4244   5.624   3.012   3.059 -1.0758 -0.0161  0.7874
 1331SOL    HW2 4245   5.667   2.905   2.960  0.6593  1.3635 -0.0210
 1332SOL     OW 4246   6.097   4.611   4.176  0.3226  0.1710  0.0784
 1332SOL    HW1 4247   6.005   4.636   4.184  0.7404  1.7958  0.1203
 1332SOL    HW2 4248   6.141   4.662   4.243  1.6906  1.9575 -2.0341
 1333SOL     OW 4249   2.697   4.230   1.777 -0.5512  0.7717  0.3764
 1333SOL    HW1 4250   2.775   4.282   1.759  0.5424 -1.1429 -0.7987
 1333SOL    HW2 4251   2.681   4.241   1.871  0.6705  1.8009  0.4811
 1334SOL     OW 4252   3.072   1.742   2.920 -0.2831  0.1716 -0.4790
 1334SOL    HW1 4253   3.046   1.783   3.003 -2.4044 -0.8199 -0.6014
 1334SOL    HW2 4254   2.989   1.718   2.878  0.8135 -1.4443 -1.8243
 1335SOL     OW 4255   1.129   4.048   5.099 -0.1554  0.6987  0.2538
 1335SOL    HW1 4256   1.171   4.090   5.024 -1.8374 -3.4394 -3.4345
 1335SOL    HW2 4257   1.044   4.093   5.106 -0.2492  0.7126 -0.8006
 1336SOL     OW 4258   0.724   4.442   1.619 -0.0583  0.0323  0.7693
 1336SOL    HW1 4259   0.755   4.425   1.529  0.7200 -0.4232  1.1129
 1336SOL    HW2 4260   0.679   4.362   1.645 -0.6457  0.3176  0.6426
 1337SOL     OW 4261   3.756   4.063   1.133  0.0991 -0.7003 -0.3588
 1337SOL    HW1 4262   3.733   4.003   1.205 -3.6163 -0.1605 -0.9250
 1337SOL    HW2 4263   3.751   4.009   1.054 -0.9602 -0.2033 -0.6484
 1338SOL     OW 4264   0.980   1.588   2.423 -0.1362  0.5811 -0.3565
 1338SOL    HW1 4265   0.909   1.622   2.368  1.0047  3.1512 -0.3669
 1338SOL    HW2 4266   0.985   1.495   2.400 -2.5000  0.6464 -1.4283
 1339SOL     OW 4267   0.123   3.253   3.229  0.1684 -0.3890  0.2270
 1339SOL    HW1 4268   0.186   3.256   3.157 -1.0099 -1.0602 -0.8647
 1339SOL    HW2 4269   0.155   3.183   3.286  0.9605 -0.0264  0.2585
 1340SOL     OW 4270   2.710   2.923   2.846  0.2138  0.3318  0.1644
 1340SOL    HW1 4271   2.695   2.879   2.763 -0.2210  1.0311 -0.1423
 1340SOL    HW2 4272   2.719   2.852   2.910 -1.5669 -0.2114 -0.1290
 1341SOL     OW 4273   6.106   4.730   1.251  0.4448 -0.2133 -0.4674
 1341SOL    HW1 4274   6.106   4.663   1.183  1.0950 -1.1229  0.4044
 1341SOL    HW2 4275   6.014   4.752   1.263  0.3782  1.2188 -2.7952
 1342SOL     OW 4276   5.053   2.242   4.048  0.7584  0.1208  0.3108
 1342SOL    HW1 4277   5.088   2.237   4.137 -0.2904 -1.2274  0.6767
 1342SOL    HW2 4278   4.964   2.208   4.055  1.0869 -1.2596 -1.4899
 1343SOL     OW 4279   2.500   3.232   5.411 -0.6905 -0.1124 -0.1485
 1343SOL    HW1 4280   2.507   3.256   5.503 -0.5700  3.7254 -0.9571
 1343SOL    HW2 4281   2.414   3.266   5.384 -0.6126 -0.9103 -1.5228
 1344SOL     OW 4282   3.552   1.294   0.724  0.1425 -0.2849  0.0586
 1344SOL    HW1 4283   3.534   1.388   0.714  0.3175 -0.3680 -1.2809
 1344SOL    HW2 4284   3.646   1.290   0.744  0.3823 -0.2108 -0.9976
 1345SOL     OW 4285   5.884   3.760   5.226 -0.1950 -0.2043 -0.1379
 1345SOL    HW1 4286   5.878   3.856   5.231 -0.9772 -0.3138  1.3985
 1345SOL    HW2 4287   5.915   3.744   5.136  1.1738  1.5250 -0.0480
 1346SOL     OW 4288   4.299   2.769   5.258  0.2654 -0.7774 -0.1728
 1346SOL    HW1 4289   4.276   2.722   5.178  1.7814 -3.0821  0.6539
 1346SOL    HW2 4290   4.293   2.704   5.328  0.2968  0.8275  1.4176
 1347SOL     OW 4291   5.565   0.531   2.630  0.0982  0.3886  0.4416
 1347SOL    HW1 4292   5.635   0.595   2.617 -1.1774  1.9344  0.7936
 1347SOL    HW2 4293   5.610   0.451   2.658  1.7378  1.1533  0.1278
 1348SOL     OW 4294   4.892   0.124   1.809  0.3652 -0.3238  0.1651
 1348SOL    HW1 4295   4.803   0.114   1.842 -0.3403  1.3141 -1.0876
 1348SOL    HW2 4296   4.948   0.116   1.886 -1.0267  0.9081  1.3485
 1349SOL     OW 4297   2.454   4.554   5.330  0.1937 -0.3822  0.8486
 1349SOL    HW1 4298   2.511   4.575   5.404 -0.2783  3.7880  0.2815
 1349SOL    HW2 4299   2.513   4.521   5.262  1.2882 -0.1739  1.6748
 1350SOL     OW 4300   5.984   5.392   0.483  0.0712  0.5504 -0.1349
 1350SOL    HW1 4301   5.942   5.306   0.494  0.3152  0.5299  0.6728
 1350SOL    HW2 4302   5.995   5.401   0.388 -1.1069  0.2475 -0.3204
 1351SOL     OW 4303   3.215   4.638   1.653 -0.0860 -0.0785  0.7449
 1351SOL    HW1 4304   3.239   4.548   1.676  1.7184  0.6277  1.8173
 1351SOL    HW2 4305   3.262   4.655   1.572 -3.1471 -1.1616 -1.4433
 1352SOL     OW 4306   2.239   0.053   5.903  0.2705  0.1028  0.0565
 1352SOL    HW1 4307   2.161   0.016   5.860  0.3342 -1.0965  0.8912
 1352SOL    HW2 4308   2.308   0.049   5.837 -0.3422  1.1034 -0.6680
 1353SOL     OW 4309   3.841   2.563   5.296 -0.1235 -0.3852 -0.6834
 1353SOL    HW1 4310   3.810   2.523   5.377 -1.8446  0.8800 -0.6660
 1353SOL    HW2 4311   3.764   2.564   5.238  0.8848 -0.6123 -2.0933
 1354SOL     OW 4312   1.534   3.146   4.370  0.0654 -0.1470 -0.2237
 1354SOL    HW1 4313   1.557   3.062   4.409 -0.6782 -0.2292  0.0725
 1354SOL    HW2 4314   1.602   3.206   4.399 -0.9826  0.0414  2.1289
 1355SOL     OW 4315   3.576   6.002   1.411 -0.2842  0.0392  0.2394
 1355SOL    HW1 4316   3.578   6.084   1.362 -0.4069  0.0998  0.3365
 1355SOL    HW2 4317   3.526   5.942   1.356 -0.7200  0.2075  0.4447
 1356SOL     OW 4318   4.622   2.655   3.447 -0.1285  0.1842  0.1344
 1356SOL    HW1 4319   4.697   2.646   3.506 -0.7055  0.2736  0.9084
 1356SOL    HW2 4320   4.574   2.573   3.456 -1.4424  1.0489  1.5696
 1357SOL     OW 4321   0.999   2.259   6.109 -0.0140  0.2874 -0.3271
 1357SOL    HW1 4322   0.917   2.224   6.074 -1.0645 -1.1857  3.1651
 1357SOL    HW2 4323   0.971   2.326   6.172  1.4963  0.3485  0.3152
 1358SOL     OW 4324   4.184   2.301   0.206 -0.0231  0.2114 -0.3909
 1358SOL    HW1 4325   4.117   2.299   0.138 -2.9169 -0.1881  2.2161
 1358SOL    HW2 4326   4.193   2.210   0.234 -0.0803  0.5524  0.7932
 1359SOL     OW 4327   6.296   5.228   4.013 -0.0132  0.3610 -0.5132
 1359SOL    HW1 4328   6.388   5.225   4.040 -0.5099  2.5028  1.8469
 1359SOL    HW2 4329   6.277   5.321   4.007 -2.8823  0.1706  2.7123
 1360SOL     OW 4330   6.002   0.954   2.780  0.0085  0.0315 -0.1083
 1360SOL    HW1 4331   6.037   0.867   2.761 -0.6553 -0.5060  1.0564
 1360SOL    HW2 4332   6.015   0.966   2.874  1.0629  1.6476 -0.4102
 1361SOL     OW 4333   5.638   1.345   2.722  0.0068  0.5426  0.6215
 1361SOL    HW1 4334   5.599   1.272   2.675 -0.1661  1.2147 -0.3206
 1361SOL    HW2 4335   5.616   1.330   2.814 -1.3553  0.2280  0.2639
 1362SOL     OW 4336   5.554   3.670   0.354 -0.9094 -0.1832 -0.0442
 1362SOL    HW1 4337   5.530   3.707   0.439 -0.0504  3.5435 -1.2678
 1362SOL    HW2 4338   5.488   3.702   0.293  0.4056  0.1578 -1.3516
 1363SOL     OW 4339   5.128   3.476   2.471  0.3974 -0.3966  0.1075
 1363SOL    HW1 4340   5.038   3.492   2.500  0.4909  1.4763 -0.5239
 1363SOL    HW2 4341   5.126   3.386   2.439 -1.4268 -0.1822 -0.5198
 1364SOL     OW 4342   2.829   1.023   0.877  0.3922 -0.1461  0.0652
 1364SOL    HW1 4343   2.851   0.982   0.960  1.2944 -1.0089 -0.5766
 1364SOL    HW2 4344   2.889   1.097   0.870  2.8212 -2.0852 -1.3576
 1365SOL     OW 4345   0.540   4.443   1.219 -0.3661 -0.4101  0.6169
 1365SOL    HW1 4346   0.470   4.488   1.266  0.7197 -1.2186  3.1973
 1365SOL    HW2 4347   0.500   4.361   1.190 -1.6969  1.0740 -2.0639
 1366SOL     OW 4348   5.656   5.521   5.259 -0.3222 -0.2749  0.2165
 1366SOL    HW1 4349   5.654   5.484   5.171 -0.0333 -2.5749  1.0994
 1366SOL    HW2 4350   5.699   5.606   5.248 -1.8942  0.3293 -2.0813
 1367SOL     OW 4351   5.727   1.649   3.094  0.4627  0.2457  0.0844
 1367SOL    HW1 4352   5.817   1.678   3.108  1.0531 -1.6036  0.4521
 1367SOL    HW2 4353   5.724   1.562   3.134 -1.2857 -0.0236 -0.5592
 1368SOL     OW 4354   2.026   2.181   3.868 -0.2269 -0.2720 -0.2761
 1368SOL    HW1 4355   2.121   2.192   3.867 -0.1602 -0.8527 -1.0943
 1368SOL    HW2 4356   2.011   2.103   3.922 -0.2777  0.1054  0.2622
 1369SOL     OW 4357   2.962   2.765   2.634  0.2929  0.2163  0.0331
 1369SOL    HW1 4358   2.872   2.736   2.653  0.2249  0.2218 -0.2831
 1369SOL    HW2 4359   2.952   2.852   2.598  0.5420  0.9305  1.5944
 1370SOL     OW 4360   3.016   4.906   2.523  0.2832 -0.3001 -0.0540
 1370SOL    HW1 4361   3.047   4.967   2.590 -0.1671  0.9245 -0.9364
 1370SOL    HW2 4362   3.042   4.945   2.440 -0.4681 -1.0438 -0.6625
 1371SOL     OW 4363   4.949   5.189   3.769 -0.2033  0.4499  0.4021
 1371SOL    HW1 4364   4.931   5.171   3.861  0.2118 -1.0965  0.1996
 1371SOL    HW2 4365   4.867   5.227   3.736 -1.1521 -1.0749  0.8876
 1372SOL     OW 4366   2.477   1.367   3.947  0.0748 -0.4472 -0.5811
 1372SOL    HW1 4367   2.507   1.378   4.037  2.9782  0.8347 -1.5705
 1372SOL    HW2 4368   2.408   1.433   3.937  0.0430 -0.2839  0.5835
 1373SOL     OW 4369   5.656   4.173   0.026 -0.5477 -0.3945  0.0559
 1373SOL    HW1 4370   5.705   4.207   0.101 -1.1448 -1.2449  0.8642
 1373SOL    HW2 4371   5.662   4.241  -0.040  0.7439  0.0057  0.5502
 1374SOL     OW 4372   0.703   4.489   4.100 -0.0562 -0.1684 -0.2080
 1374SOL    HW1 4373   0.652   4.533   4.032 -0.0681 -0.7009 -0.5483
 1374SOL    HW2 4374   0.659   4.511   4.182 -0.4416 -0.0761 -0.4393
 1375SOL     OW 4375   5.624   1.170   5.757  0.0422  0.2370 -0.6911
 1375SOL    HW1 4376   5.711   1.174   5.797 -0.5961 -0.0341  0.8221
 1375SOL    HW2 4377   5.607   1.259   5.726 -0.0639  0.8992  1.1351
 1376SOL     OW 4378   2.833   1.327   1.374 -0.2733  0.3383 -0.5956
 1376SOL    HW1 4379   2.775   1.302   1.302 -0.6964 -0.2622 -0.0586
 1376SOL    HW2 4380   2.891   1.252   1.386 -1.1087 -0.1612  0.5760
 1377SOL     OW 4381   6.327   5.418   1.372  0.3907  0.1607 -0.0237
 1377SOL    HW1 4382   6.306   5.332   1.407 -0.5729  0.4813  0.2361
 1377SOL    HW2 4383   6.376   5.462   1.441  0.8491 -0.1603 -0.1418
 1378SOL     OW 4384   4.842   4.607   2.244  0.0623 -0.2276  0.7120
 1378SOL    HW1 4385   4.884   4.691   2.258 -0.4665  0.0104  0.8929
 1378SOL    HW2 4386   4.812   4.609   2.153 -0.0208 -0.1872  0.7402
 1379SOL     OW 4387   0.249   4.823   0.093 -0.0663  0.3159  0.1100
 1379SOL    HW1 4388   0.158   4.853   0.093  0.3993  1.8061 -0.4487
 1379SOL    HW2 4389   0.243   4.730   0.114 -1.6189  0.6445  1.3008
 1380SOL     OW 4390   2.556   6.160   2.013 -0.0148  0.0447 -0.2429
 1380SOL    HW1 4391   2.565   6.246   1.972 -1.9168  1.3242  1.8027
 1380SOL    HW2 4392   2.510   6.107   1.948 -0.3292  1.1022 -0.9116
 1381SOL     OW 4393   3.186   5.248   5.866 -0.0071 -0.2468  0.1220
 1381SOL    HW1 4394   3.113   5.225   5.924 -0.0876  2.5915  1.2795
 1381SOL    HW2 4395   3.261   5.260   5.924  0.3930  0.7277 -0.5576
 1382SOL     OW 4396   0.552   5.348   3.867 -0.6432 -0.3710 -0.1967
 1382SOL    HW1 4397   0.638   5.388   3.853 -0.3781 -0.4468  1.0700
 1382SOL    HW2 4398   0.570   5.267   3.914 -1.4273 -0.1149  0.5925
 1383SOL     OW 4399   2.730   3.270   5.822 -0.0021 -0.2123 -0.5160
 1383SOL    HW1 4400   2.749   3.199   5.884  1.5895  0.7853  0.2047
 1383SOL    HW2 4401   2.733   3.349   5.876  1.1225  0.6572 -1.7960
 1384SOL     OW 4402   4.852   3.653   4.264 -0.2265 -0.3622 -0.4994
 1384SOL    HW1 4403   4.942   3.641   4.296 -0.4585 -1.8150 -0.3022
 1384SOL    HW2 4404   4.816   3.724   4.317 -0.3147 -2.1191  1.9282
 1385SOL     OW 4405   5.138   2.380   4.311 -0.0644  0.2609  0.0850
 1385SOL    HW1 4406   5.233   2.375   4.324 -0.0229  0.7028 -0.0287
 1385SOL    HW2 4407   5.106   2.430   4.387 -0.4914 -1.7416  1.3140
 1386SOL     OW 4408   2.761   4.099   2.835 -0.3197  0.1700 -0.0134
 1386SOL    HW1 4409   2.818   4.054   2.898  0.0040 -0.2414 -0.5858
 1386SOL    HW2 4410   2.695   4.034   2.812 -0.8727  0.5590  0.4441
 1387SOL     OW 4411   3.425   1.817   2.470  0.4444  0.0571  0.3449
 1387SOL    HW1 4412   3.337   1.846   2.444  1.9089  2.0712 -3.0359
 1387SOL    HW2 4413   3.444   1.868   2.549 -1.1618  0.0846  0.7571
 1388SOL     OW 4414   5.346   2.046   2.412 -0.5267 -0.1638 -0.0908
 1388SOL    HW1 4415   5.424   2.000   2.442  0.5992  0.7495 -1.4608
 1388SOL    HW2 4416   5.367   2.074   2.322 -1.7748  1.5296  0.0780
 1389SOL     OW 4417   3.568   3.167   2.668 -0.3358 -0.1878 -0.1701
 1389SOL    HW1 4418   3.618   3.246   2.648  1.6558 -0.8254  1.7732
 1389SOL    HW2 4419   3.488   3.199   2.709 -0.5302  0.8384 -1.3034
 1390SOL     OW 4420   4.906   2.086   1.097  0.2609  0.3161  0.6104
 1390SOL    HW1 4421   4.860   2.170   1.108 -0.5864  0.3793 -2.4450
 1390SOL    HW2 4422   4.838   2.020   1.114  0.5230  0.2495  1.4606
 1391SOL     OW 4423   1.740   2.132   1.719 -0.0774  0.3195 -0.1223
 1391SOL    HW1 4424   1.687   2.053   1.734  1.3074 -0.9558 -1.5512
 1391SOL    HW2 4425   1.781   2.150   1.804 -1.4812  0.3419  0.5654
 1392SOL     OW 4426   4.885   4.640   1.117 -0.5602 -0.5251  0.2241
 1392SOL    HW1 4427   4.798   4.676   1.099 -0.2560 -0.2355 -0.7430
 1392SOL    HW2 4428   4.942   4.717   1.124 -0.0060 -0.7451 -1.3179
 1393SOL     OW 4429   6.181   5.970   2.431 -0.0110  0.7189  0.0491
 1393SOL    HW1 4430   6.157   5.918   2.355  0.1780  0.9097 -0.1423
 1393SOL    HW2 4431   6.225   6.047   2.394  0.9543  0.3411  0.4087
 1394SOL     OW 4432   3.893   5.363   4.480 -0.3040 -0.5098 -0.1503
 1394SOL    HW1 4433   3.890   5.457   4.494  1.2936 -0.5756  0.9032
 1394SOL    HW2 4434   3.868   5.351   4.388 -0.3258  0.9526 -0.3480
 1395SOL     OW 4435   0.982   5.232   1.484  0.1217 -0.3255  0.1425
 1395SOL    HW1 4436   1.051   5.293   1.459  0.0663 -0.7780 -1.2120
 1395SOL    HW2 4437   0.922   5.232   1.410 -1.7323  0.5745  1.5763
 1396SOL     OW 4438   1.400   0.769   3.164  0.5129  0.6729  0.7136
 1396SOL    HW1 4439   1.403   0.776   3.260  0.2009 -1.0476  0.8641
 1396SOL    HW2 4440   1.307   0.770   3.143  0.5882  1.5087  0.3632
 1397SOL     OW 4441   4.624   0.061   0.518  1.2137 -0.5527 -0.2200
 1397SOL    HW1 4442   4.563  -0.012   0.523  1.6813 -0.9453 -0.2431
 1397SOL    HW2 4443   4.574   0.131   0.475 -0.0096 -0.0364  1.9236
 1398SOL     OW 4444   3.606   4.032   4.070  0.4302  0.3249 -0.0008
 1398SOL    HW1 4445   3.580   4.040   3.978  0.3263 -1.5684 -0.1937
 1398SOL    HW2 4446   3.579   4.114   4.110 -0.6841  0.6917 -1.4021
 1399SOL     OW 4447   3.960   1.839   1.983 -0.1729 -0.2497  0.0474
 1399SOL    HW1 4448   3.898   1.904   2.017 -0.5243 -0.4221 -0.2535
 1399SOL    HW2 4449   3.967   1.861   1.890 -0.6395 -0.9123 -0.1534
 1400SOL     OW 4450   3.724   4.040   0.640  0.0509 -0.0310 -0.2252
 1400SOL    HW1 4451   3.630   4.022   0.633  0.1220 -0.3411 -0.3991
 1400SOL    HW2 4452   3.743   4.096   0.565 -0.4673  2.0681  1.1351
 1401SOL     OW 4453   1.148   3.827   1.799  0.0735 -0.0732  0.0495
 1401SOL    HW1 4454   1.084   3.807   1.867 -0.1682 -1.6894 -0.6209
 1401SOL    HW2 4455   1.133   3.919   1.778  0.2463  0.5046  2.2485
 1402SOL     OW 4456   3.928   4.845   5.312  0.5305  0.3904  0.4397
 1402SOL    HW1 4457   3.952   4.753   5.318  1.7344  0.6724  0.1565
 1402SOL    HW2 4458   3.958   4.883   5.395 -0.8537  0.3497  0.9857
 1403SOL     OW 4459   0.463   5.284   2.974  0.0390  0.4533 -0.2572
 1403SOL    HW1 4460   0.377   5.277   3.017 -0.3960 -0.5248 -1.2297
 1403SOL    HW2 4461   0.448   5.342   2.900 -0.2956 -1.2259 -1.5628
 1404SOL     OW 4462   1.185   5.381   3.206  0.0441  0.1228 -0.3895
 1404SOL    HW1 4463   1.151   5.462   3.167 -1.5352 -0.1331  0.3461
 1404SOL    HW2 4464   1.277   5.378   3.181 -0.3066  1.2299 -1.9455
 1405SOL     OW 4465   2.994   2.441   4.171 -0.2714 -0.0586 -0.1388
 1405SOL    HW1 4466   2.995   2.529   4.208  1.3806 -0.2212  0.3088
 1405SOL    HW2 4467   2.926   2.395   4.219 -0.7154  0.7966  0.0662
 1406SOL     OW 4468   3.037   3.758   6.005 -0.4858 -0.0186 -0.5163
 1406SOL    HW1 4469   3.080   3.843   6.015 -0.4684 -0.0756 -0.0762
 1406SOL    HW2 4470   3.019   3.751   5.911 -2.0056  1.2136 -0.3598
 1407SOL     OW 4471   0.757   0.099   1.979  0.2420  0.3994  0.1018
 1407SOL    HW1 4472   0.844   0.078   1.944 -0.3216  0.5084 -1.4731
 1407SOL    HW2 4473   0.774   0.152   2.056  1.5789  0.2979 -0.0947
 1408SOL     OW 4474   4.783   0.827   4.177  0.1193 -0.1060  0.0948
 1408SOL    HW1 4475   4.856   0.871   4.133  0.6943 -0.6756  0.4693
 1408SOL    HW2 4476   4.825   0.762   4.233 -0.7054 -1.0264 -0.3363
 1409SOL     OW 4477   1.790   2.146   3.486  0.6002 -0.3041  0.4028
 1409SOL    HW1 4478   1.861   2.089   3.457 -0.1233 -1.4625  0.8244
 1409SOL    HW2 4479   1.718   2.086   3.506 -0.1417  0.7537  0.9996
 1410SOL     OW 4480   1.495   2.092   3.303  0.2546 -0.1791  0.2734
 1410SOL    HW1 4481   1.467   2.115   3.391  1.0421  2.3443 -0.0523
 1410SOL    HW2 4482   1.423   2.119   3.246  0.0187 -1.2047  0.0629
 1411SOL     OW 4483   2.803   1.520   3.096 -0.0460 -0.2760 -0.2397
 1411SOL    HW1 4484   2.819   1.440   3.146 -1.4308  0.1485  0.9753
 1411SOL    HW2 4485   2.765   1.490   3.014 -1.6248 -0.8644  0.6646
 1412SOL     OW 4486   5.808   4.461   1.608 -0.2492 -0.1676 -0.2704
 1412SOL    HW1 4487   5.738   4.475   1.672 -2.3566 -0.5415 -2.3660
 1412SOL    HW2 4488   5.865   4.537   1.618 -2.9890  2.1685 -0.9340
 1413SOL     OW 4489   1.665   3.114   0.141 -0.7995  0.2718  0.4139
 1413SOL    HW1 4490   1.758   3.131   0.159 -0.4370  1.2393 -2.0139
 1413SOL    HW2 4491   1.655   3.133   0.048 -3.1981 -1.0041  0.3451
 1414SOL     OW 4492   6.309   1.147   4.087 -0.1233  0.2437  0.2545
 1414SOL    HW1 4493   6.312   1.144   3.991  0.5845 -0.0457  0.2795
 1414SOL    HW2 4494   6.395   1.181   4.113 -0.0426 -0.3628  0.8115
 1415SOL     OW 4495   2.133   5.844   2.995 -0.0960 -0.6524  0.0313
 1415SOL    HW1 4496   2.123   5.939   2.986 -0.1843 -0.5511  1.0816
 1415SOL    HW2 4497   2.060   5.807   2.946 -0.0288 -0.1777 -0.4332
 1416SOL     OW 4498   4.618   1.664   2.015  0.0307 -0.1202  0.2642
 1416SOL    HW1 4499   4.586   1.671   1.925  1.1966 -1.4374 -0.2768
 1416SOL    HW2 4500   4.553   1.609   2.059 -0.0189 -0.2973 -0.0309
 1417SOL     OW 4501   0.627   5.946   0.785 -0.1528 -0.3198  0.6332
 1417SOL    HW1 4502   0.709   5.901   0.761 -0.4408 -0.3274 -0.3592
 1417SOL    HW2 4503   0.650   5.997   0.863  1.1014  0.5333 -0.2565
 1418SOL     OW 4504   0.816   2.072   3.266 -0.4463  0.0218  0.5604
 1418SOL    HW1 4505   0.795   1.981   3.247 -1.1308  0.0811  0.9543
 1418SOL    HW2 4506   0.747   2.099   3.327 -0.0728  0.7099  0.6862
 1419SOL     OW 4507   1.475   0.802   1.405 -0.0986 -0.4400  1.1143
 1419SOL    HW1 4508   1.428   0.862   1.347 -1.1030 -2.3432 -0.1479
 1419SOL    HW2 4509   1.565   0.834   1.406 -0.4020  0.5288 -0.2983
 1420SOL     OW 4510   5.987   0.415   3.612  0.2735  0.0986 -0.2286
 1420SOL    HW1 4511   5.970   0.440   3.522 -0.8249 -0.7837 -0.2869
 1420SOL    HW2 4512   5.927   0.343   3.629  1.5135 -0.7489  0.7460
 1421SOL     OW 4513   3.264   2.476   2.169 -0.3146  0.1325 -0.1320
 1421SOL    HW1 4514   3.214   2.438   2.241  0.1811  0.2321  0.2748
 1421SOL    HW2 4515   3.217   2.450   2.090  0.4759 -2.0831  0.0553
 1422SOL     OW 4516   0.613   1.320   2.855 -0.1076 -0.2421  0.0239
 1422SOL    HW1 4517   0.589   1.362   2.937 -0.4242 -0.2139 -0.0821
 1422SOL    HW2 4518   0.551   1.355   2.791  1.7283  1.7455 -0.7853
 1423SOL     OW 4519   3.266   4.882   1.058  0.4054  0.9697  0.5602
 1423SOL    HW1 4520   3.325   4.882   0.982 -0.9009  1.3000 -0.4858
 1423SOL    HW2 4521   3.205   4.953   1.041 -1.1219 -0.1850  0.9513
 1424SOL     OW 4522   2.021   3.263   4.854 -0.3736 -0.5448  0.3669
 1424SOL    HW1 4523   1.932   3.297   4.861  0.3923  1.3666  1.5174
 1424SOL    HW2 4524   2.069   3.330   4.804  0.3554 -1.7130 -0.5559
 1425SOL     OW 4525   1.033   4.941   1.511  0.0793  0.5199  0.2227
 1425SOL    HW1 4526   1.042   5.037   1.508 -0.2687  0.5329 -0.3988
 1425SOL    HW2 4527   0.939   4.925   1.500  0.1972  0.0814 -0.1570
 1426SOL     OW 4528   2.827   4.868   2.912 -0.3928 -0.1078  0.5250
 1426SOL    HW1 4529   2.898   4.927   2.888  0.2417 -1.4283 -1.0079
 1426SOL    HW2 4530   2.788   4.841   2.829 -0.6573 -1.8447  1.1757
 1427SOL     OW 4531   1.713   1.303   2.526  0.0936  0.5846  0.4548
 1427SOL    HW1 4532   1.620   1.312   2.547  0.1576 -1.0526  1.6210
 1427SOL    HW2 4533   1.718   1.322   2.432 -1.6534 -0.6268  0.0612
 1428SOL     OW 4534   1.977   4.338   5.792 -0.4760 -0.5630  0.0512
 1428SOL    HW1 4535   1.899   4.360   5.842  0.2062  0.4967  0.6834
 1428SOL    HW2 4536   1.970   4.389   5.712 -0.4304 -0.4764  0.1029
 1429SOL     OW 4537   2.137   0.399   1.134  0.1845 -0.0947  0.5647
 1429SOL    HW1 4538   2.079   0.325   1.121  0.9134 -0.7226  0.8182
 1429SOL    HW2 4539   2.223   0.360   1.151  1.2047  0.7774 -2.0523
 1430SOL     OW 4540   1.165   2.374   5.942 -0.2388  0.0211 -0.1035
 1430SOL    HW1 4541   1.117   2.423   5.876 -1.5112  0.8790  1.3883
 1430SOL    HW2 4542   1.097   2.340   6.001  0.8434 -0.6540  0.8061
 1431SOL     OW 4543   2.389   4.875   0.629 -0.2177 -0.2596 -0.7955
 1431SOL    HW1 4544   2.349   4.806   0.682  0.4155 -0.1310 -0.1454
 1431SOL    HW2 4545   2.432   4.828   0.557  2.0873 -0.7673  0.8268
 1432SOL     OW 4546   2.883   3.235   4.543  0.3887 -0.0485  0.5808
 1432SOL    HW1 4547   2.832   3.164   4.504  3.7022 -2.0387 -0.5198
 1432SOL    HW2 4548   2.892   3.211   4.635 -0.3137  0.1096  0.6928
 1433SOL     OW 4549   0.168   6.010   1.857  0.0988  0.7327  0.3349
 1433SOL    HW1 4550   0.203   5.991   1.944 -1.9716  0.1153  1.1014
 1433SOL    HW2 4551   0.154   6.104   1.857 -1.9237  0.4865  1.5500
 1434SOL     OW 4552   4.908   3.194   2.326  0.2107  0.0961 -0.1714
 1434SOL    HW1 4553   5.003   3.210   2.322  0.0085  1.8512  0.8955
 1434SOL    HW2 4554   4.893   3.157   2.412 -0.3281  2.2474  0.7234
 1435SOL     OW 4555   3.037   5.539   2.890  0.2339  0.1212 -0.2700
 1435SOL    HW1 4556   3.074   5.627   2.898 -0.3690  0.6456 -2.4771
 1435SOL    HW2 4557   3.108   5.486   2.854 -0.3220  0.5059 -2.0062
 1436SOL     OW 4558   0.387   4.117   2.207  0.0103  0.0856  0.2440
 1436SOL    HW1 4559   0.437   4.117   2.288 -2.0373 -2.6429  1.6648
 1436SOL    HW2 4560   0.436   4.059   2.148  1.3783  1.8961 -0.5211
 1437SOL     OW 4561   0.566   3.400   5.458 -0.2077  0.0000  0.5874
 1437SOL    HW1 4562   0.495   3.444   5.506 -1.0584 -1.0794  0.3457
 1437SOL    HW2 4563   0.528   3.318   5.427  0.2351  0.7442 -2.1784
 1438SOL     OW 4564   2.927   3.842   5.758 -0.8172  0.2678  0.4776
 1438SOL    HW1 4565   2.933   3.920   5.704  0.5338  0.1595  0.4328
 1438SOL    HW2 4566   2.871   3.782   5.708  1.4576 -0.3403 -1.5264
 1439SOL     OW 4567   2.823   6.036   6.242  0.5291  0.3516 -0.2129
 1439SOL    HW1 4568   2.836   6.104   6.309  2.4148  0.1953 -0.3718
 1439SOL    HW2 4569   2.780   6.082   6.170 -0.5402  0.7701  0.6597
 1440SOL     OW 4570   5.738   4.798   1.531  0.4506 -0.2303 -0.4609
 1440SOL    HW1 4571   5.653   4.772   1.566  0.2324  2.9277  1.7821
 1440SOL    HW2 4572   5.801   4.740   1.575 -0.3171 -0.4020  0.4463
 1441SOL     OW 4573   5.415   2.034   5.762 -0.1096  0.7946 -0.5149
 1441SOL    HW1 4574   5.367   1.981   5.700  0.0276 -1.2727  1.0450
 1441SOL    HW2 4575   5.354   2.049   5.834  1.3545 -1.6740  1.3843
 1442SOL     OW 4576   6.223   6.177   1.003  0.1459 -0.5486  0.0069
 1442SOL    HW1 4577   6.150   6.165   1.064  0.4117 -0.3380  0.3722
 1442SOL    HW2 4578   6.195   6.133   0.923 -0.6545  0.0818 -0.0780
 1443SOL     OW 4579   0.237   1.827   2.659  0.9944 -0.4720 -0.7318
 1443SOL    HW1 4580   0.299   1.822   2.732  0.6220  0.0009 -0.3745
 1443SOL    HW2 4581   0.283   1.877   2.592  0.8377  0.2778 -0.2916
 1444SOL     OW 4582   4.628   1.868   4.170 -0.0687 -0.4108  0.2595
 1444SOL    HW1 4583   4.561   1.834   4.229  1.0240 -3.1652  0.0299
 1444SOL    HW2 4584   4.580   1.924   4.109 -1.8657 -0.8780  1.1761
 1445SOL     OW 4585   2.693   0.667   1.898  0.2610  0.1601  0.3767
 1445SOL    HW1 4586   2.773   0.679   1.948 -0.6307 -1.5366  2.3490
 1445SOL    HW2 4587   2.717   0.606   1.828  0.8465  0.1649  0.5718
 1446SOL     OW 4588   0.196   0.286   4.978  0.1583 -0.6031  0.3531
 1446SOL    HW1 4589   0.108   0.270   4.944  0.7150  0.2283 -1.6209
 1446SOL    HW2 4590   0.219   0.205   5.024 -0.0509 -2.5835 -2.7448
 1447SOL     OW 4591   5.479   3.889   6.144 -0.3499 -0.1572  0.5354
 1447SOL    HW1 4592   5.551   3.862   6.086  0.9262  0.3965  1.8074
 1447SOL    HW2 4593   5.467   3.982   6.126 -0.1540 -0.0528  0.9346
 1448SOL     OW 4594   3.284   3.592   1.774 -0.5040  0.3568 -0.0724
 1448SOL    HW1 4595   3.287   3.586   1.678  2.1839  2.1028 -0.2037
 1448SOL    HW2 4596   3.326   3.511   1.804  0.6229  0.7521 -0.4995
 1449SOL     OW 4597   2.064   1.069   5.527 -0.2800 -0.0603 -0.0923
 1449SOL    HW1 4598   2.076   1.138   5.462  0.2324 -1.9650 -2.1383
 1449SOL    HW2 4599   2.151   1.033   5.540 -0.5004 -0.1722  1.1529
 1450SOL     OW 4600   1.953   4.385   0.101 -0.1794  0.3058  0.3123
 1450SOL    HW1 4601   1.985   4.465   0.059 -1.0339 -0.5158 -2.0912
 1450SOL    HW2 4602   2.026   4.324   0.097 -0.0162  0.4645  0.7645
 1451SOL     OW 4603   5.777   2.147   2.365  0.2800  0.1486 -0.1426
 1451SOL    HW1 4604   5.784   2.053   2.347  1.5388  0.3322 -0.7631
 1451SOL    HW2 4605   5.683   2.163   2.375 -0.2797 -0.6360 -3.1196
 1452SOL     OW 4606   4.596   2.226   4.306  0.3726  0.3316 -0.1288
 1452SOL    HW1 4607   4.509   2.226   4.266  0.1647 -1.1250  0.2535
 1452SOL    HW2 4608   4.612   2.318   4.329 -0.3150  0.8989 -1.7714
 1453SOL     OW 4609   2.492   5.706   6.317  0.0470  0.2585  0.5447
 1453SOL    HW1 4610   2.543   5.784   6.338 -0.2890  0.3656  0.9860
 1453SOL    HW2 4611   2.511   5.645   6.388 -0.2120  0.1938  0.5615
 1454SOL     OW 4612   5.977   5.966   4.602 -0.2502  0.0667  0.4016
 1454SOL    HW1 4613   5.943   5.981   4.691 -1.1747 -2.4609  0.5471
 1454SOL    HW2 4614   5.937   5.884   4.574 -0.7390  1.2572 -2.7849
 1455SOL     OW 4615   2.923   2.575   5.989  0.9771 -0.2546 -0.1461
 1455SOL    HW1 4616   2.927   2.576   6.085  1.4635  2.5046 -0.1281
 1455SOL    HW2 4617   3.001   2.621   5.961  0.7036 -0.7800 -1.9002
 1456SOL     OW 4618   2.593   1.489   0.816  0.4129 -0.3291  0.4804
 1456SOL    HW1 4619   2.569   1.424   0.882 -1.3659  1.5092  1.7561
 1456SOL    HW2 4620   2.516   1.496   0.760  0.8958  0.0709 -0.1429
 1457SOL     OW 4621   3.821   6.296   0.589 -0.6018 -0.4763  0.1107
 1457SOL    HW1 4622   3.908   6.327   0.616 -0.2842 -1.4216  0.2067
 1457SOL    HW2 4623   3.764   6.316   0.664 -0.2202 -0.9185  0.5267
 1458SOL     OW 4624   6.240   1.861   0.957  0.5011 -0.0177  0.0777
 1458SOL    HW1 4625   6.285   1.888   0.877  0.9136  0.7707  0.5604
 1458SOL    HW2 4626   6.214   1.770   0.941  2.2330 -0.4917 -0.2403
 1459SOL     OW 4627   1.765   6.078   2.970 -0.1262  1.0960  0.3740
 1459SOL    HW1 4628   1.784   6.121   3.054  0.4612 -0.0372  0.8479
 1459SOL    HW2 4629   1.847   6.083   2.922  0.0957  0.1317  0.6230
 1460SOL     OW 4630   0.249   4.122   6.022 -0.0772  0.2089  0.2855
 1460SOL    HW1 4631   0.171   4.150   6.069  0.6040  2.5794  0.1424
 1460SOL    HW2 4632   0.282   4.202   5.980  0.6094 -1.3478 -2.3774
 1461SOL     OW 4633   4.186   4.929   4.274  0.2261  0.0382 -0.0716
 1461SOL    HW1 4634   4.175   4.835   4.257  1.2087  0.1185 -1.3677
 1461SOL    HW2 4635   4.098   4.960   4.295  0.0217 -1.3203  1.3018
 1462SOL     OW 4636   1.035   0.596   2.185  0.3406 -0.5293  0.6092
 1462SOL    HW1 4637   0.960   0.575   2.240  0.1874  2.0775  1.5320
 1462SOL    HW2 4638   1.106   0.615   2.246  0.9223 -0.1118 -0.1748
 1463SOL     OW 4639   1.136   1.136   1.763  0.0064 -0.2858  0.0824
 1463SOL    HW1 4640   1.102   1.047   1.769 -0.7772 -0.0225 -0.1639
 1463SOL    HW2 4641   1.126   1.172   1.851  0.1087 -0.3678  0.1275
 1464SOL     OW 4642   4.011   4.086   4.016  0.4075  0.3403  0.0751
 1464SOL    HW1 4643   4.099   4.119   4.033  0.3619  0.9871 -0.9215
 1464SOL    HW2 4644   3.956   4.164   4.011 -0.3727 -0.0909  1.4299
 1465SOL     OW 4645   6.233   1.958   0.513 -0.0074  0.5416  0.1664
 1465SOL    HW1 4646   6.144   1.924   0.527 -0.5020  1.3283 -0.9103
 1465SOL    HW2 4647   6.223   2.022   0.443  1.5655  0.0290 -0.5616
 1466SOL     OW 4648   3.390   0.303   0.317 -0.1438  0.2807 -0.0298
 1466SOL    HW1 4649   3.419   0.367   0.382 -1.5641  2.2712 -1.2538
 1466SOL    HW2 4650   3.471   0.257   0.292  0.3530 -1.2227  3.6420
 1467SOL     OW 4651   5.437   4.884   1.357  0.0257  0.4400 -0.3526
 1467SOL    HW1 4652   5.382   4.878   1.435  0.2876 -1.3718 -0.2669
 1467SOL    HW2 4653   5.521   4.917   1.390 -0.3763  1.3303 -0.1748
 1468SOL     OW 4654   5.910   1.107   1.935 -0.3309  0.3129  0.0595
 1468SOL    HW1 4655   5.925   1.057   2.015 -1.7838  1.6129  1.2089
 1468SOL    HW2 4656   5.943   1.195   1.955 -1.3678  0.8455 -0.5032
 1469SOL     OW 4657   3.531   3.131   4.370 -0.5358  0.9333  1.1462
 1469SOL    HW1 4658   3.460   3.070   4.392 -0.7942  1.3318  1.4197
 1469SOL    HW2 4659   3.494   3.188   4.303 -0.3639  0.9266  1.0461
 1470SOL     OW 4660   5.622   1.724   5.919 -0.0714 -0.4440 -0.2252
 1470SOL    HW1 4661   5.644   1.811   5.884 -1.7796  0.1230 -0.0053
 1470SOL    HW2 4662   5.564   1.686   5.853  0.1908 -1.1637 -0.0397
 1471SOL     OW 4663   5.419   3.660   5.490  0.3447  0.5964 -0.4895
 1471SOL    HW1 4664   5.393   3.746   5.525  1.4877  0.8284 -0.1602
 1471SOL    HW2 4665   5.512   3.670   5.470  0.3073 -0.3420 -1.1749
 1472SOL     OW 4666   0.424   2.208   5.986 -0.0350  0.3559 -0.2572
 1472SOL    HW1 4667   0.517   2.202   6.009  0.1353 -0.0425 -1.0184
 1472SOL    HW2 4668   0.401   2.120   5.958  0.1048  1.0448 -2.7738
 1473SOL     OW 4669   5.802   4.466   3.678  0.3464 -0.1108 -0.1089
 1473SOL    HW1 4670   5.707   4.476   3.674 -0.0742 -2.7519  1.3367
 1473SOL    HW2 4671   5.828   4.511   3.758  0.0553 -0.8348  0.3989
 1474SOL     OW 4672   2.098   0.047   5.666  0.2362  0.8791  0.3316
 1474SOL    HW1 4673   2.142   0.100   5.599 -0.7367  0.9835 -0.2347
 1474SOL    HW2 4674   2.017   0.094   5.684 -1.7100 -1.4684 -1.7290
 1475SOL     OW 4675   1.083   4.087   1.764  0.1945 -0.0837 -0.2190
 1475SOL    HW1 4676   1.018   4.151   1.735 -1.0117 -1.5938 -0.9975
 1475SOL    HW2 4677   1.058   4.066   1.854 -1.0818 -1.4096 -0.8410
 1476SOL     OW 4678   5.423   3.687   0.100 -0.4415  0.2364  0.5671
 1476SOL    HW1 4679   5.335   3.704   0.131 -1.1900  0.1364 -1.3452
 1476SOL    HW2 4680   5.442   3.760   0.041 -0.0810 -0.7858 -0.6314
 1477SOL     OW 4681   1.492   1.895   0.380 -0.4527 -0.0620 -0.1559
 1477SOL    HW1 4682   1.417   1.926   0.330 -0.3660  0.6331  0.1296
 1477SOL    HW2 4683   1.568   1.930   0.334 -0.3567  0.2520  0.2348
 1478SOL     OW 4684   2.445   4.177   1.150  0.2580  0.6663  0.2262
 1478SOL    HW1 4685   2.437   4.227   1.069  0.1570  0.8136  0.3262
 1478SOL    HW2 4686   2.383   4.219   1.210 -1.1314 -0.6323 -0.2155
 1479SOL     OW 4687   2.599   0.494   5.951 -0.6047  0.2478 -0.3873
 1479SOL    HW1 4688   2.630   0.583   5.938 -0.5077  0.2775  0.0128
 1479SOL    HW2 4689   2.548   0.498   6.032 -1.5137  0.1656 -0.9376
 1480SOL     OW 4690   4.948   2.232   3.050  0.3484  0.9517  0.3297
 1480SOL    HW1 4691   4.963   2.235   2.956 -0.0229  1.6200  0.2828
 1480SOL    HW2 4692   5.027   2.268   3.089  0.4289  0.8420  0.2682
 1481SOL     OW 4693   3.706   0.634   5.129  0.3921  0.3989  0.4858
 1481SOL    HW1 4694   3.648   0.666   5.060  0.1501 -2.6274 -0.8908
 1481SOL    HW2 4695   3.651   0.575   5.180  1.6058 -0.6029  0.6908
 1482SOL     OW 4696   1.103   2.972   0.483  0.0943  0.1471 -0.1570
 1482SOL    HW1 4697   1.034   2.918   0.521 -1.3872  1.1777 -1.2754
 1482SOL    HW2 4698   1.173   2.970   0.548 -0.9952 -0.8880  1.0435
 1483SOL     OW 4699   5.683   5.772   5.757  0.7414  0.2581  0.5245
 1483SOL    HW1 4700   5.638   5.794   5.839  1.1247  0.0441  0.7945
 1483SOL    HW2 4701   5.626   5.707   5.716  0.2974  0.7327  0.3786
 1484SOL     OW 4702   4.535   2.732   1.110 -0.4028  0.5198  0.0122
 1484SOL    HW1 4703   4.488   2.735   1.193  0.0618  0.2820  0.2873
 1484SOL    HW2 4704   4.628   2.734   1.135 -0.2625  1.1118 -0.5282
 1485SOL     OW 4705   0.271   3.257   3.966  0.6019  0.0987  0.3588
 1485SOL    HW1 4706   0.356   3.292   3.937  1.3406 -0.4432  1.7734
 1485SOL    HW2 4707   0.293   3.179   4.016 -0.7853 -0.3308  0.3363
 1486SOL     OW 4708   3.435   0.777   6.344  0.0910  0.0546  0.4191
 1486SOL    HW1 4709   3.384   0.815   6.415 -1.6659  0.7550 -1.1365
 1486SOL    HW2 4710   3.375   0.715   6.302  0.6222  0.5946 -1.2131
 1487SOL     OW 4711   1.007   0.195   3.855 -0.2148  0.1495 -0.1776
 1487SOL    HW1 4712   0.948   0.266   3.827  1.0151  1.0534 -0.5643
 1487SOL    HW2 4713   1.010   0.136   3.780  1.2018  1.3394 -1.1191
 1488SOL     OW 4714   1.516   6.269   2.260  0.1021 -0.3068 -0.5486
 1488SOL    HW1 4715   1.593   6.306   2.217  1.3804 -0.9330  1.1099
 1488SOL    HW2 4716   1.453   6.255   2.189  0.8983  1.6800 -1.7220
 1489SOL     OW 4717   3.994   2.129   2.370 -0.1872  0.3447 -0.5337
 1489SOL    HW1 4718   4.036   2.088   2.294  0.6016 -1.0605  0.5924
 1489SOL    HW2 4719   3.915   2.076   2.384  0.3668 -0.2516  0.3993
 1490SOL     OW 4720   4.640   6.288   5.339 -0.0158 -0.3212 -0.2974
 1490SOL    HW1 4721   4.660   6.337   5.419  2.7427  1.0256 -1.6682
 1490SOL    HW2 4722   4.708   6.220   5.336 -0.7737 -1.0625 -0.9383
 1491SOL     OW 4723   0.339   0.060   1.690 -0.1746 -0.0413 -0.4663
 1491SOL    HW1 4724   0.410   0.012   1.732  1.0458  0.3387 -2.0111
 1491SOL    HW2 4725   0.361   0.152   1.701 -1.4878  0.1624  0.7596
 1492SOL     OW 4726   4.450   4.175   5.883  0.0721  0.4698  0.4216
 1492SOL    HW1 4727   4.465   4.105   5.946  0.9578  1.0135  0.8208
 1492SOL    HW2 4728   4.432   4.252   5.936 -1.1542  0.5187 -0.0167
 1493SOL     OW 4729   3.815   0.185   3.660  0.1677  0.2851 -0.2628
 1493SOL    HW1 4730   3.786   0.100   3.694  0.7936 -0.7283 -2.1106
 1493SOL    HW2 4731   3.910   0.178   3.655  0.2729  1.3133  0.0637
 1494SOL     OW 4732   1.764   5.737   4.089  0.2265 -0.4217 -0.0948
 1494SOL    HW1 4733   1.821   5.717   4.015 -1.2320 -0.2088 -1.3391
 1494SOL    HW2 4734   1.817   5.790   4.147  1.6968 -1.3428 -0.5350
 1495SOL     OW 4735   1.330   6.089   5.877  0.6612 -0.4177  0.0864
 1495SOL    HW1 4736   1.414   6.088   5.922  1.5382  0.7941 -1.4089
 1495SOL    HW2 4737   1.348   6.132   5.794 -1.6686  0.8885  0.1673
 1496SOL     OW 4738   0.069   1.358   5.579  0.8226  0.3444  0.2128
 1496SOL    HW1 4739   0.159   1.328   5.593  0.7600  0.5329  1.0811
 1496SOL    HW2 4740   0.018   1.310   5.645  0.1073 -0.5704 -0.9597
 1497SOL     OW 4741   0.244   4.239   0.646  0.2601 -0.3155  0.0185
 1497SOL    HW1 4742   0.199   4.154   0.647  0.0239 -0.2069 -0.6026
 1497SOL    HW2 4743   0.174   4.303   0.660  0.2923 -0.1716 -0.4776
 1498SOL     OW 4744   5.806   5.747   5.202  0.2008 -0.3295  0.7248
 1498SOL    HW1 4745   5.857   5.820   5.167  0.8234 -0.4407  1.3654
 1498SOL    HW2 4746   5.720   5.785   5.221  0.7832  0.4923  1.8871
 1499SOL     OW 4747   1.808   0.945   0.866  1.2355  0.4310 -0.0048
 1499SOL    HW1 4748   1.721   0.979   0.846  1.0367 -0.1088 -0.0679
 1499SOL    HW2 4749   1.805   0.853   0.839  0.4994 -0.7854  3.6783
 1500SOL     OW 4750   5.206   5.387   4.113 -0.3629  0.1392 -1.0865
 1500SOL    HW1 4751   5.190   5.481   4.111 -1.1100  0.0364 -0.2962
 1500SOL    HW2 4752   5.298   5.378   4.085 -0.1422  1.1350 -0.7284
 1501SOL     OW 4753   2.303   3.054   3.910  0.0783  0.3737  0.3969
 1501SOL    HW1 4754   2.218   3.014   3.925 -0.1968  0.3330 -1.1015
 1501SOL    HW2 4755   2.344   3.056   3.996 -1.4002  0.3282  1.1350
 1502SOL     OW 4756   5.449   1.594   3.140 -0.1093  0.4980  0.0628
 1502SOL    HW1 4757   5.512   1.541   3.187 -1.1304  0.6547  1.6861
 1502SOL    HW2 4758   5.370   1.540   3.137 -0.0945  0.5231 -1.4412
 1503SOL     OW 4759   4.084   3.159   6.131  0.6675 -0.3200  0.4495
 1503SOL    HW1 4760   4.058   3.084   6.186 -1.7412 -0.0641 -0.2244
 1503SOL    HW2 4761   4.041   3.234   6.172 -0.6861 -0.0289 -1.3758
 1504SOL     OW 4762   1.796   0.898   4.501 -0.1354  0.1457 -0.5703
 1504SOL    HW1 4763   1.793   0.992   4.483  1.5511  0.1187 -1.1056
 1504SOL    HW2 4764   1.853   0.889   4.577 -1.2223 -0.3803  0.2197
 1505SOL     OW 4765   0.911   1.209   0.946  0.0842 -0.2531 -0.4152
 1505SOL    HW1 4766   0.959   1.126   0.945  0.9295  0.2264 -0.7362
 1505SOL    HW2 4767   0.876   1.217   0.857 -1.4918 -1.0895  0.0901
 1506SOL     OW 4768   3.835   3.199   1.992  0.0133 -0.2792 -0.0099
 1506SOL    HW1 4769   3.780   3.147   2.051  0.3595 -1.2421 -0.5100
 1506SOL    HW2 4770   3.916   3.215   2.042  0.6344 -1.7874 -0.4920
 1507SOL     OW 4771   5.408   5.421   5.824  0.6692  0.4873  0.1371
 1507SOL    HW1 4772   5.364   5.366   5.759 -1.2209  1.9164  0.1453
 1507SOL    HW2 4773   5.501   5.397   5.816  0.4295  0.1227 -2.6146
 1508SOL     OW 4774   6.085   1.001   3.015 -0.5097  0.1938 -0.1746
 1508SOL    HW1 4775   6.056   1.091   3.034  0.6780  0.8217 -1.2291
 1508SOL    HW2 4776   6.178   1.001   3.036 -0.8369 -1.3157  1.5121
 1509SOL     OW 4777   1.591   4.106   4.678 -0.5222  0.3135 -0.0647
 1509SOL    HW1 4778   1.671   4.150   4.706  0.4758 -1.3768 -0.1210
 1509SOL    HW2 4779   1.537   4.176   4.641  1.2980  1.3658 -0.8524
 1510SOL     OW 4780   1.619   1.960   1.191  0.0260 -0.2367  0.0832
 1510SOL    HW1 4781   1.538   2.010   1.182  0.6893  0.8234 -0.0859
 1510SOL    HW2 4782   1.615   1.925   1.280 -0.3805  0.2170  0.2463
 1511SOL     OW 4783   1.361   3.346   1.505  0.5506  1.0833 -0.1488
 1511SOL    HW1 4784   1.268   3.354   1.484  0.4915  0.8406  0.0136
 1511SOL    HW2 4785   1.400   3.427   1.474  0.2901  1.1679 -0.2550
 1512SOL     OW 4786   2.609   4.040   3.427 -0.2844  0.4579  0.0480
 1512SOL    HW1 4787   2.618   4.130   3.458 -3.5949  0.2775  1.9397
 1512SOL    HW2 4788   2.521   4.036   3.389 -0.1331 -1.9272 -0.2328
 1513SOL     OW 4789   3.572   4.724   0.620 -0.0804  0.1561  0.4914
 1513SOL    HW1 4790   3.534   4.770   0.545 -0.8970  0.4154  1.0468
 1513SOL    HW2 4791   3.667   4.734   0.609 -0.1664 -0.2296 -0.7519
 1514SOL     OW 4792   6.266   2.802   5.983  0.1008 -0.1659  0.0266
 1514SOL    HW1 4793   6.173   2.825   5.984  0.5997  2.0533  1.4148
 1514SOL    HW2 4794   6.269   2.715   6.024 -1.5433 -1.4135 -2.2809
 1515SOL     OW 4795   3.327   5.197   5.160  0.0018 -0.3881 -0.1284
 1515SOL    HW1 4796   3.378   5.202   5.240  0.1704 -0.2734 -0.2431
 1515SOL    HW2 4797   3.357   5.117   5.116  0.8187  0.2058 -0.6920
 1516SOL     OW 4798   4.505   5.174   6.049  0.6922  0.1889  0.7064
 1516SOL    HW1 4799   4.545   5.173   5.962  0.0585  0.8690  0.3984
 1516SOL    HW2 4800   4.570   5.217   6.105  0.3185  1.5423  0.1529
 1517SOL     OW 4801   0.239   0.257   0.437  0.6969  0.0203  0.1634
 1517SOL    HW1 4802   0.257   0.164   0.444 -0.8113 -0.4336 -1.2419
 1517SOL    HW2 4803   0.277   0.283   0.353 -0.4325  0.2412 -0.2971
 1518SOL     OW 4804   1.566   0.003   3.250  0.4684  0.2287  0.2082
 1518SOL    HW1 4805   1.477   0.030   3.272  0.1047 -0.4924 -0.3433
 1518SOL    HW2 4806   1.579  -0.079   3.297  0.5579 -0.0665 -0.3195
 1519SOL     OW 4807   3.121   3.923   3.549  0.0817 -0.7909 -0.7235
 1519SOL    HW1 4808   3.160   3.944   3.634 -0.1515  2.6062 -1.2980
 1519SOL    HW2 4809   3.035   3.965   3.551  0.0996 -0.5556 -2.6234
 1520SOL     OW 4810   5.366   2.619   0.469  0.7591  0.2546 -0.3130
 1520SOL    HW1 4811   5.317   2.589   0.393 -0.0169 -0.5410  0.4757
 1520SOL    HW2 4812   5.398   2.538   0.511 -2.7026  0.2129  2.7558
 1521SOL     OW 4813   5.188   3.025   2.590 -0.0082  0.3026  0.2136
 1521SOL    HW1 4814   5.270   2.994   2.553 -0.1403  0.1928  0.0076
 1521SOL    HW2 4815   5.124   2.957   2.567 -0.2455  0.6031 -0.0156
 1522SOL     OW 4816   6.002   4.443   6.140  0.0211  0.1056 -0.2946
 1522SOL    HW1 4817   5.968   4.354   6.155 -0.6015  0.4861  0.6198
 1522SOL    HW2 4818   6.095   4.430   6.119  0.5142 -0.6298  2.0474
 1523SOL     OW 4819   0.797   4.778   1.376 -1.3128 -0.4036 -0.2776
 1523SOL    HW1 4820   0.863   4.721   1.338 -1.5627 -0.7434 -0.2030
 1523SOL    HW2 4821   0.728   4.719   1.406 -1.0144 -0.1787  0.9416
 1524SOL     OW 4822   1.644   6.278   1.730  0.0218 -0.1113  0.0870
 1524SOL    HW1 4823   1.602   6.254   1.648 -0.2689  1.0610 -0.1194
 1524SOL    HW2 4824   1.609   6.215   1.794 -1.0776  0.0610 -0.3306
 1525SOL     OW 4825   1.071   5.852   5.973 -0.5503 -0.2620 -0.6185
 1525SOL    HW1 4826   1.067   5.829   5.880  0.1610  1.5521 -1.1564
 1525SOL    HW2 4827   1.148   5.806   6.006  0.2984  0.5368 -1.4208
 1526SOL     OW 4828   5.536   2.288   2.323  0.2303  0.0997 -0.5059
 1526SOL    HW1 4829   5.463   2.278   2.262 -0.2297 -0.5832  0.1373
 1526SOL    HW2 4830   5.514   2.365   2.374  0.3928  0.4070 -0.8992
 1527SOL     OW 4831   5.531   2.664   1.788  0.3254  0.2599  0.2645
 1527SOL    HW1 4832   5.501   2.710   1.866  0.8260 -0.0174  0.6263
 1527SOL    HW2 4833   5.464   2.681   1.722 -0.6935 -0.4596  1.0942
 1528SOL     OW 4834   3.554   3.855   2.603  0.1899 -0.0682 -0.1535
 1528SOL    HW1 4835   3.477   3.896   2.563 -0.9088  0.4713  2.3399
 1528SOL    HW2 4836   3.551   3.764   2.572 -3.0188 -0.7959  1.8213
 1529SOL     OW 4837   3.819   3.082   2.278  0.2627  0.4035  0.4384
 1529SOL    HW1 4838   3.904   3.109   2.244 -0.2473  1.3159 -0.1743
 1529SOL    HW2 4839   3.837   3.003   2.328  1.1676 -0.5685 -1.3487
 1530SOL     OW 4840   5.256   2.075   0.211  0.0353  0.0002  0.5169
 1530SOL    HW1 4841   5.172   2.114   0.184  0.2176  1.1285  1.5071
 1530SOL    HW2 4842   5.279   2.121   0.291  2.7135  1.2678 -0.8823
 1531SOL     OW 4843   2.021   2.106   0.340 -0.3720 -0.6948 -0.1494
 1531SOL    HW1 4844   2.083   2.159   0.290  1.3458 -2.1755  0.2900
 1531SOL    HW2 4845   1.963   2.068   0.274 -0.9958  0.8694 -0.5513
 1532SOL     OW 4846   4.752   6.154   0.213  0.5344  0.0021 -0.1059
 1532SOL    HW1 4847   4.783   6.064   0.212  0.8147  0.0972 -0.0357
 1532SOL    HW2 4848   4.710   6.166   0.127 -0.1578 -0.4191  0.1631
 1533SOL     OW 4849   3.076   0.474   5.172  0.2395 -0.0946  0.1192
 1533SOL    HW1 4850   2.982   0.463   5.166  0.4083 -0.9512 -1.3076
 1533SOL    HW2 4851   3.107   0.396   5.218  0.3120 -0.1500 -0.0211
 1534SOL     OW 4852   1.176   0.418   6.286  0.4052  0.4588  0.6269
 1534SOL    HW1 4853   1.175   0.505   6.246  2.5557  0.7956  1.1593
 1534SOL    HW2 4854   1.255   0.417   6.340  1.3456 -2.3616 -0.5888
 1535SOL     OW 4855   5.967   1.860   4.717  0.2857  0.1133  0.5328
 1535SOL    HW1 4856   6.063   1.861   4.716  0.3152  0.8552 -1.7257
 1535SOL    HW2 4857   5.941   1.941   4.673 -1.3755 -0.1096  1.0281
 1536SOL     OW 4858   4.527   5.620   6.263  0.4316  0.0803 -0.2221
 1536SOL    HW1 4859   4.543   5.693   6.323 -0.0490 -0.9666  1.2164
 1536SOL    HW2 4860   4.612   5.578   6.254  0.1447 -0.8995  1.2975
 1537SOL     OW 4861   0.405   0.112   4.472  0.4452 -0.8317  0.3250
 1537SOL    HW1 4862   0.442   0.027   4.493  3.1568  0.6580  2.1905
 1537SOL    HW2 4863   0.400   0.158   4.557  0.9742  1.5130 -0.8129
 1538SOL     OW 4864   1.959   0.683   0.481  0.5409  0.5233 -0.0177
 1538SOL    HW1 4865   2.036   0.737   0.463  1.7180 -1.0116  0.1811
 1538SOL    HW2 4866   1.890   0.722   0.428  1.7034  1.3505 -0.9970
 1539SOL     OW 4867   5.349   3.490   1.914  0.2083 -0.1698  0.5675
 1539SOL    HW1 4868   5.308   3.430   1.977  1.1780 -1.2030  0.2474
 1539SOL    HW2 4869   5.418   3.438   1.873  0.1763  0.7518 -0.7251
 1540SOL     OW 4870   5.598   0.155   1.808  0.4867  0.4625 -0.9665
 1540SOL    HW1 4871   5.550   0.083   1.765 -0.6330 -0.3901  1.5156
 1540SOL    HW2 4872   5.688   0.123   1.815  0.5654  0.3903 -2.1158
 1541SOL     OW 4873   4.137   4.966   2.492 -0.1421 -0.1522  0.4893
 1541SOL    HW1 4874   4.226   4.993   2.469  1.1712 -1.5341  3.4274
 1541SOL    HW2 4875   4.114   5.024   2.565 -1.3706 -0.3527  0.2760
 1542SOL     OW 4876   5.476   6.040   3.072 -0.1583  0.0533  0.0492
 1542SOL    HW1 4877   5.392   6.078   3.046 -0.5753 -1.2114 -0.5257
 1542SOL    HW2 4878   5.518   6.017   2.990 -0.2372 -1.3742  0.3906
 1543SOL     OW 4879   2.109   4.924   0.741 -0.7918 -1.0463 -0.0773
 1543SOL    HW1 4880   2.070   4.840   0.767  0.6158 -0.9761  2.6394
 1543SOL    HW2 4881   2.147   4.907   0.655 -0.3285 -3.3022  0.5048
 1544SOL     OW 4882   4.207   4.599   4.619 -0.1324 -0.2592 -0.4607
 1544SOL    HW1 4883   4.263   4.636   4.687 -1.8517  1.1546  0.2646
 1544SOL    HW2 4884   4.258   4.527   4.583  2.1199  0.9158  0.1688
 1545SOL     OW 4885   5.282   5.906   4.880 -0.3049  0.0423  0.2793
 1545SOL    HW1 4886   5.252   5.968   4.813  0.1645  0.1621  0.1756
 1545SOL    HW2 4887   5.374   5.928   4.894 -0.2523 -0.3421  0.5668
 1546SOL     OW 4888   0.603   1.291   2.081  0.1939 -0.3168 -0.1797
 1546SOL    HW1 4889   0.557   1.235   2.018  1.5719 -0.0180 -1.4961
 1546SOL    HW2 4890   0.684   1.315   2.037  1.2848 -0.2211  1.7893
 1547SOL     OW 4891   0.867   3.341   2.918  0.4249  0.1718 -0.2543
 1547SOL    HW1 4892   0.922   3.308   2.989 -0.2667  0.0973  0.2662
 1547SOL    HW2 4893   0.927   3.387   2.860  1.6226 -2.7505 -1.5409
 1548SOL     OW 4894   4.171   2.879   2.145  0.4207  0.4400  0.1044
 1548SOL    HW1 4895   4.246   2.915   2.194  0.4282 -0.4927  0.8059
 1548SOL    HW2 4896   4.208   2.806   2.096  0.3687  1.2460 -1.1761
 1549SOL     OW 4897   3.175   3.206   1.698 -0.3722  0.6541  0.2663
 1549SOL    HW1 4898   3.218   3.247   1.623  1.4432  0.0016  0.8944
 1549SOL    HW2 4899   3.138   3.125   1.664 -0.6227  0.9402 -0.1586
 1550SOL     OW 4900   2.247   0.617   5.032 -0.1727  0.2814  0.0588
 1550SOL    HW1 4901   2.212   0.617   5.121 -1.2495  1.2814 -0.3384
 1550SOL    HW2 4902   2.316   0.551   5.033  0.9381  1.3724  2.0718
 1551SOL     OW 4903   6.331   2.891   3.271  0.6430 -0.4511  0.1638
 1551SOL    HW1 4904   6.353   2.819   3.331  1.8709  0.0947  0.3873
 1551SOL    HW2 4905   6.330   2.969   3.327 -0.0587 -0.1910 -0.1969
 1552SOL     OW 4906   2.559   5.835   3.526  0.8607  0.0029 -0.0461
 1552SOL    HW1 4907   2.498   5.763   3.540  1.5807 -0.1447  3.1926
 1552SOL    HW2 4908   2.615   5.805   3.454  2.0725 -3.4733  2.0618
 1553SOL     OW 4909   2.266   4.971   6.111 -0.5259  0.1081  0.0955
 1553SOL    HW1 4910   2.317   4.990   6.032  2.6302 -1.6812  1.4904
 1553SOL    HW2 4911   2.246   4.878   6.104 -1.1747  0.1826  0.8965
 1554SOL     OW 4912   2.085   1.774   0.435 -0.0168  0.1305  0.7994
 1554SOL    HW1 4913   2.086   1.851   0.491  0.7907  0.9096 -0.2497
 1554SOL    HW2 4914   1.995   1.742   0.440 -0.4160  1.2529  1.0920
 1555SOL     OW 4915   5.165   5.074   3.654  0.3750 -0.0528 -0.0013
 1555SOL    HW1 4916   5.079   5.112   3.672  0.4269  0.8385 -1.4724
 1555SOL    HW2 4917   5.212   5.082   3.737 -0.7288  0.0523  0.6422
 1556SOL     OW 4918   5.241   5.358   3.022  0.0418 -0.9132  0.2501
 1556SOL    HW1 4919   5.193   5.438   3.042  2.0516  0.7233 -1.0529
 1556SOL    HW2 4920   5.179   5.304   2.974 -1.0780  0.2687  0.3177
 1557SOL     OW 4921   1.839   0.013   0.357  0.7775  0.2545  0.4390
 1557SOL    HW1 4922   1.930  -0.010   0.337  0.9457  1.0244  0.3000
 1557SOL    HW2 4923   1.789  -0.066   0.336  1.4465 -0.2629  0.7777
 1558SOL     OW 4924   5.692   1.927   4.148 -0.3135 -0.0347 -0.5555
 1558SOL    HW1 4925   5.616   1.877   4.180 -0.4421  0.7922  0.4595
 1558SOL    HW2 4926   5.740   1.864   4.094 -1.2977 -0.8031 -0.5795
 1559SOL     OW 4927   4.719   0.425   0.143 -0.1973 -0.2463 -0.6082
 1559SOL    HW1 4928   4.705   0.480   0.066 -0.7559 -0.3384 -0.5730
 1559SOL    HW2 4929   4.750   0.485   0.210 -1.0003  0.0688 -0.5070
 1560SOL     OW 4930   4.223   0.943   2.763 -0.0405  0.5349  0.2360
 1560SOL    HW1 4931   4.164   0.934   2.688 -1.4244 -2.1145  1.5195
 1560SOL    HW2 4932   4.310   0.928   2.726 -0.6430 -0.2353 -0.9292
 1561SOL     OW 4933   4.818   4.879   4.356  0.3171  0.0774  0.1627
 1561SOL    HW1 4934   4.821   4.974   4.367 -2.6926  0.4876 -1.4897
 1561SOL    HW2 4935   4.784   4.847   4.440 -3.3468  1.0713 -0.7903
 1562SOL     OW 4936   2.729   4.806   6.278 -0.2396  0.2353  0.7712
 1562SOL    HW1 4937   2.643   4.828   6.314 -0.9845  1.3538 -1.4917
 1562SOL    HW2 4938   2.791   4.854   6.334 -1.3239  1.8715  0.6503
 1563SOL     OW 4939   2.673   0.717   3.135 -0.0156  0.5528  0.5671
 1563SOL    HW1 4940   2.697   0.642   3.189  1.0980  1.1490  0.9315
 1563SOL    HW2 4941   2.733   0.787   3.162  1.3725  0.5566 -2.1872
 1564SOL     OW 4942   2.965   0.463   3.197 -0.3408  0.2902 -0.1792
 1564SOL    HW1 4943   2.874   0.490   3.209  0.4346  3.4645 -0.5552
 1564SOL    HW2 4944   2.988   0.490   3.109  0.9242 -0.7171 -0.2015
 1565SOL     OW 4945   5.658   1.843   4.625 -0.0920 -0.0545  0.0621
 1565SOL    HW1 4946   5.673   1.928   4.666 -2.3547  0.1763  0.5448
 1565SOL    HW2 4947   5.609   1.863   4.546 -1.7128 -0.9566  0.7989
 1566SOL     OW 4948   3.737   0.890   1.200 -0.1665  0.0287 -0.0250
 1566SOL    HW1 4949   3.716   0.887   1.293  0.2065 -1.0116  0.0383
 1566SOL    HW2 4950   3.822   0.846   1.194  0.2106  0.8418 -0.7491
 1567SOL     OW 4951   1.334   1.417   1.211 -0.2750 -0.1236  0.8247
 1567SOL    HW1 4952   1.284   1.378   1.140 -0.4734 -0.8350  1.3435
 1567SOL    HW2 4953   1.419   1.438   1.172 -0.4186 -0.4123  0.3505
 1568SOL     OW 4954   1.316   5.134   2.347  0.2616 -0.2311 -0.7167
 1568SOL    HW1 4955   1.223   5.120   2.362  0.5216 -0.8699  0.4032
 1568SOL    HW2 4956   1.328   5.120   2.253 -1.2786  2.9409 -1.5321
 1569SOL     OW 4957   6.234   2.057   1.627  0.4152  0.2233 -0.4935
 1569SOL    HW1 4958   6.188   1.988   1.579  0.1015 -0.0386  0.1672
 1569SOL    HW2 4959   6.275   2.012   1.700  2.2745  0.3426 -1.3947
 1570SOL     OW 4960   5.384   1.460   5.474  0.5219  0.7950  0.0978
 1570SOL    HW1 4961   5.357   1.534   5.419 -0.6246  1.8236  1.9447
 1570SOL    HW2 4962   5.477   1.476   5.492  0.9100  0.4683 -1.4209
 1571SOL     OW 4963   2.496   5.133   0.592  0.0136 -0.3699  0.0296
 1571SOL    HW1 4964   2.424   5.073   0.613  2.2173 -2.3923  2.3500
 1571SOL    HW2 4965   2.540   5.094   0.517 -1.4062  1.0929 -1.6713
 1572SOL     OW 4966   1.259   3.389   5.468  0.0237 -0.1650 -0.2518
 1572SOL    HW1 4967   1.171   3.424   5.480  0.3007  0.6896 -0.6312
 1572SOL    HW2 4968   1.247   3.296   5.452 -1.0383  0.4207 -3.3256
 1573SOL     OW 4969   0.745   0.594   5.817 -0.4796  0.4469  0.0299
 1573SOL    HW1 4970   0.769   0.677   5.776  0.9202 -0.0994 -0.3181
 1573SOL    HW2 4971   0.757   0.529   5.748  0.3099 -0.2777  0.8181
 1574SOL     OW 4972   0.079   2.237   3.693 -0.1528  0.0710 -0.1551
 1574SOL    HW1 4973   0.057   2.248   3.600 -1.4318 -0.4232  0.0696
 1574SOL    HW2 4974   0.151   2.299   3.708 -0.5543  0.8369 -1.2559
 1575SOL     OW 4975   1.779   2.802   4.101 -0.3830  0.3022 -0.1349
 1575SOL    HW1 4976   1.759   2.854   4.023 -1.0964 -0.8323 -0.7318
 1575SOL    HW2 4977   1.747   2.856   4.174  0.8402  1.6436 -0.5530
 1576SOL     OW 4978   2.584   4.973   1.858 -0.3104 -0.0513 -0.8651
 1576SOL    HW1 4979   2.507   4.973   1.916 -0.3407  1.9077 -0.8193
 1576SOL    HW2 4980   2.568   4.902   1.797 -0.4929 -1.9297  1.2206
 1577SOL     OW 4981   1.172   3.740   5.981 -1.0273 -0.2138  0.7251
 1577SOL    HW1 4982   1.136   3.720   5.895 -0.4715  3.9546 -0.6983
 1577SOL    HW2 4983   1.263   3.708   5.977 -0.7354  0.7155 -0.6467
 1578SOL     OW 4984   3.214   5.393   4.536  0.1400 -0.4789 -0.4694
 1578SOL    HW1 4985   3.227   5.384   4.630  1.1947 -0.2668 -0.5800
 1578SOL    HW2 4986   3.199   5.304   4.505  0.0002 -0.5730 -0.1318
 1579SOL     OW 4987   3.943   4.148   5.243  0.2908  0.2705 -0.4340
 1579SOL    HW1 4988   3.970   4.078   5.302 -0.3855  1.8397  1.8690
 1579SOL    HW2 4989   4.025   4.190   5.217  0.5544 -0.0640 -0.1590
 1580SOL     OW 4990   1.729   2.514   4.116 -0.2409 -0.0523  0.1443
 1580SOL    HW1 4991   1.699   2.484   4.030  1.1343  2.7626 -1.4708
 1580SOL    HW2 4992   1.728   2.610   4.109  0.3450  0.2560  3.1498
 1581SOL     OW 4993   5.153   5.258   0.340 -0.5607 -0.2059 -0.5475
 1581SOL    HW1 4994   5.101   5.338   0.344 -0.6142 -0.2616 -0.0601
 1581SOL    HW2 4995   5.169   5.244   0.247 -0.2847  0.5414 -0.6170
 1582SOL     OW 4996   1.469   5.724   2.292 -0.1705 -0.2666 -0.0700
 1582SOL    HW1 4997   1.543   5.681   2.249  0.4880  0.5858  0.1646
 1582SOL    HW2 4998   1.485   5.818   2.279  1.3394  0.2441  3.8843
 1583SOL     OW 4999   4.825   5.144   4.413 -0.1473 -0.0570  0.0001
 1583SOL    HW1 5000   4.897   5.163   4.353 -1.0219 -1.2375 -1.4709
 1583SOL    HW2 5001   4.769   5.221   4.409 -0.4044 -0.2869 -1.0182
 1584SOL     OW 5002   0.908   1.599   6.073 -0.1520  0.1160  0.1043
 1584SOL    HW1 5003   0.834   1.594   6.134  0.6817  1.1224  1.2771
 1584SOL    HW2 5004   0.874   1.647   5.998 -0.9911 -0.4372  0.1146
 1585SOL     OW 5005   2.743   5.845   0.789  0.1912  0.5624 -0.5121
 1585SOL    HW1 5006   2.833   5.867   0.764 -0.0135  1.3538 -0.5793
 1585SOL    HW2 5007   2.734   5.878   0.878 -0.2699  1.2129 -0.7888
 1586SOL     OW 5008   2.415   6.032   5.719  0.1260 -0.3978 -0.1668
 1586SOL    HW1 5009   2.401   6.055   5.811  1.5567  1.8492 -0.4063
 1586SOL    HW2 5010   2.338   6.065   5.673  0.3988  0.5112 -0.0014
 1587SOL     OW 5011   0.046   1.039   1.313 -0.4400 -0.0954 -0.2918
 1587SOL    HW1 5012   0.057   0.976   1.243 -1.9490  0.1168 -0.7603
 1587SOL    HW2 5013  -0.044   1.024   1.345 -0.8617  1.8159 -0.4594
 1588SOL     OW 5014   1.742   1.877   5.089 -0.0663 -0.1770  0.0754
 1588SOL    HW1 5015   1.777   1.965   5.106 -0.0072 -0.1676 -0.0955
 1588SOL    HW2 5016   1.778   1.852   5.004  0.4639 -0.6452  0.4316
 1589SOL     OW 5017   6.286   5.916   6.157  0.3356 -1.3934 -0.1133
 1589SOL    HW1 5018   6.357   5.853   6.163  0.5827 -1.2421 -1.2405
 1589SOL    HW2 5019   6.246   5.899   6.072  0.5156  0.0629 -0.5151
 1590SOL     OW 5020   5.647   1.135   1.841  0.2137 -0.3054 -0.3282
 1590SOL    HW1 5021   5.641   1.207   1.779  0.2510 -1.2216 -1.4333
 1590SOL    HW2 5022   5.735   1.141   1.878  0.9706 -0.9651 -1.9346
 1591SOL     OW 5023   3.905   2.000   4.704  0.1927 -0.1649  0.8913
 1591SOL    HW1 5024   3.889   1.930   4.640 -0.2328  0.0626  0.7479
 1591SOL    HW2 5025   3.825   2.004   4.755  0.3313  0.0211  1.0945
 1592SOL     OW 5026   1.614   6.226   0.200  0.5311  0.1870  0.5925
 1592SOL    HW1 5027   1.681   6.189   0.143 -0.8411  0.5162 -1.3328
 1592SOL    HW2 5028   1.550   6.156   0.210  0.1908  0.5211  0.7761
 1593SOL     OW 5029   3.283   0.574   6.249  0.1906 -0.4807 -0.0250
 1593SOL    HW1 5030   3.192   0.601   6.261  0.1089 -0.4233 -0.7330
 1593SOL    HW2 5031   3.289   0.489   6.293 -0.4542 -0.9234 -0.7555
 1594SOL     OW 5032   2.622   3.076   4.452 -0.0681 -0.5225 -0.1887
 1594SOL    HW1 5033   2.553   3.140   4.435  2.5858  2.8126  0.5141
 1594SOL    HW2 5034   2.636   3.080   4.547  1.2379 -0.9535 -0.3392
 1595SOL     OW 5035   1.276   0.169   5.510 -0.3152  0.2976 -0.0853
 1595SOL    HW1 5036   1.309   0.249   5.471 -0.6782  0.8265  0.6507
 1595SOL    HW2 5037   1.351   0.131   5.555  0.4502 -1.0234 -2.3418
 1596SOL     OW 5038   5.610   1.689   5.050 -0.0120  0.2408 -0.0462
 1596SOL    HW1 5039   5.655   1.641   5.119  0.1371 -0.3502 -0.5404
 1596SOL    HW2 5040   5.609   1.779   5.080  2.0678  0.4022 -0.2808
 1597SOL     OW 5041   1.389   1.712   2.131  0.1633 -0.4765  0.5504
 1597SOL    HW1 5042   1.315   1.747   2.081 -1.4167 -0.6114  2.6939
 1597SOL    HW2 5043   1.465   1.727   2.074 -1.0868  2.2202 -0.5652
 1598SOL     OW 5044   2.785   4.802   2.649  0.4065 -0.3974 -0.4803
 1598SOL    HW1 5045   2.782   4.708   2.635  0.5927 -0.6095  0.8213
 1598SOL    HW2 5046   2.860   4.831   2.597  0.1436 -0.9040 -1.1588
 1599SOL     OW 5047   1.377   4.279   1.147 -0.2930  0.2850 -0.6025
 1599SOL    HW1 5048   1.382   4.184   1.144  0.8694  0.3189 -0.3400
 1599SOL    HW2 5049   1.301   4.301   1.094 -1.6150 -0.8646  0.7279
 1600SOL     OW 5050   1.311   2.303   0.976 -0.5593 -0.0939 -0.0245
 1600SOL    HW1 5051   1.302   2.386   0.930  1.3467  0.3979  0.3874
 1600SOL    HW2 5052   1.321   2.327   1.068 -2.3634 -0.9496  0.4415
 1601SOL     OW 5053   1.965   2.416   6.280  0.1638 -0.6429  0.3457
 1601SOL    HW1 5054   1.894   2.465   6.320  0.2443 -0.5738  0.4037
 1601SOL    HW2 5055   1.928   2.382   6.198 -0.1106 -1.0932  0.6558
 1602SOL     OW 5056   0.104   3.517   3.301  0.1804  0.1734 -0.5691
 1602SOL    HW1 5057   0.102   3.496   3.394  3.6041  0.9774 -0.1812
 1602SOL    HW2 5058   0.128   3.434   3.259  0.4797  0.2223 -0.5010
 1603SOL     OW 5059   2.912   4.282   3.054 -0.0744 -0.3423  0.1017
 1603SOL    HW1 5060   2.892   4.222   3.125  1.6861 -0.9251  0.1632
 1603SOL    HW2 5061   2.918   4.226   2.976 -0.2702  0.0394 -0.1946
 1604SOL     OW 5062   5.297   1.220   2.476 -0.6548 -0.0171 -0.2845
 1604SOL    HW1 5063   5.259   1.275   2.407 -1.3864 -0.2428 -0.0680
 1604SOL    HW2 5064   5.222   1.173   2.513 -0.1158 -0.7337 -0.0852
 1605SOL     OW 5065   1.998   2.839   2.600 -0.1963  0.2042  0.2537
 1605SOL    HW1 5066   2.038   2.910   2.548  1.5524 -0.3348  0.7927
 1605SOL    HW2 5067   1.928   2.882   2.648  0.3957  1.4489  0.0554
 1606SOL     OW 5068   4.055   2.566   4.501 -0.0764 -0.1119  0.3176
 1606SOL    HW1 5069   4.095   2.589   4.585 -0.5323  0.2812  0.4333
 1606SOL    HW2 5070   3.962   2.587   4.512 -0.3565 -1.2021  0.1228
 1607SOL     OW 5071   1.452   0.360   1.705  0.2008  0.2126 -0.0450
 1607SOL    HW1 5072   1.520   0.348   1.638 -0.2482 -0.3939 -0.4086
 1607SOL    HW2 5073   1.396   0.429   1.671 -0.2220 -0.3281 -0.4716
 1608SOL     OW 5074   1.179   2.278   1.302 -0.8311  0.2715  0.5072
 1608SOL    HW1 5075   1.214   2.358   1.342 -0.7440 -0.1797  1.3673
 1608SOL    HW2 5076   1.114   2.309   1.240  0.3401  1.0766 -0.3542
 1609SOL     OW 5077   5.758   2.384   1.317  0.3457  0.4561 -0.0810
 1609SOL    HW1 5078   5.711   2.315   1.362 -2.7701  2.7685  0.5380
 1609SOL    HW2 5079   5.696   2.418   1.252  2.0700  2.0379 -1.0072
 1610SOL     OW 5080   2.353   2.501   1.992  0.5367  0.3412 -0.5065
 1610SOL    HW1 5081   2.334   2.567   2.059  0.5099  0.3149 -0.4881
 1610SOL    HW2 5082   2.429   2.535   1.945 -0.9025  1.5581 -2.0715
 1611SOL     OW 5083   0.511   2.307   3.000 -0.0136 -0.9013  0.0581
 1611SOL    HW1 5084   0.540   2.219   3.024  0.6019 -0.3955  1.1925
 1611SOL    HW2 5085   0.415   2.300   2.996  0.0895 -2.0157 -1.5265
 1612SOL     OW 5086   3.979   2.232   1.142  0.6949  0.6724 -0.1021
 1612SOL    HW1 5087   3.920   2.295   1.101 -1.0558 -1.0005 -0.2763
 1612SOL    HW2 5088   3.976   2.252   1.235  0.2954  0.9789 -0.1798
 1613SOL     OW 5089   0.446   5.141   1.872 -0.2186 -0.2489 -0.6332
 1613SOL    HW1 5090   0.374   5.116   1.931 -0.1179 -0.5579 -0.6432
 1613SOL    HW2 5091   0.501   5.198   1.925 -0.0983 -0.5716 -0.4067
 1614SOL     OW 5092   4.221   5.073   5.407 -0.6691  0.1883 -0.1036
 1614SOL    HW1 5093   4.164   5.110   5.475  0.0418 -0.6117  0.9519
 1614SOL    HW2 5094   4.304   5.121   5.417 -0.0937 -0.9178  0.5625
 1615SOL     OW 5095   5.524   1.709   3.806 -0.3842 -0.1885 -0.1071
 1615SOL    HW1 5096   5.591   1.655   3.765  0.0874  0.3190 -0.0192
 1615SOL    HW2 5097   5.467   1.647   3.851  1.1219 -0.5188  1.4535
 1616SOL     OW 5098   0.521   1.615   3.118 -0.2949 -0.3746 -0.9951
 1616SOL    HW1 5099   0.594   1.642   3.062 -0.3812 -0.9416 -1.3873
 1616SOL    HW2 5100   0.528   1.520   3.123  1.1267 -0.2166  1.9123
 1617SOL     OW 5101   0.553   2.993   0.854  0.1590  0.4376  0.0951
 1617SOL    HW1 5102   0.557   2.897   0.857 -0.3189  0.4214  2.0244
 1617SOL    HW2 5103   0.481   3.012   0.795 -0.5898 -0.4513  0.6842
 1618SOL     OW 5104   3.064   2.137   1.183 -0.1931  0.1495 -0.0155
 1618SOL    HW1 5105   3.056   2.174   1.271 -1.0814  2.1903 -0.8860
 1618SOL    HW2 5106   3.025   2.050   1.190  0.8060 -0.1964  1.8477
 1619SOL     OW 5107   3.512   3.609   2.489  0.3867 -0.1623  0.0167
 1619SOL    HW1 5108   3.465   3.529   2.510  0.1063  0.5129  2.1350
 1619SOL    HW2 5109   3.458   3.652   2.422 -0.5683 -0.7062  0.4302
 1620SOL     OW 5110   1.624   3.035   3.148  0.2196 -0.5069  0.0032
 1620SOL    HW1 5111   1.576   2.981   3.211  0.2153  0.7053  1.0786
 1620SOL    HW2 5112   1.574   3.116   3.143  0.2589 -0.5515 -1.5459
 1621SOL     OW 5113   5.800   4.990   2.145  0.1014 -0.1615 -0.5251
 1621SOL    HW1 5114   5.790   5.062   2.208  0.4049 -0.3399 -0.2691
 1621SOL    HW2 5115   5.714   4.982   2.104  0.2327  0.7551 -1.0024
 1622SOL     OW 5116   0.509   4.060   3.045 -0.4778 -0.4865 -0.1496
 1622SOL    HW1 5117   0.461   3.989   3.002 -2.2527  0.7217 -0.3026
 1622SOL    HW2 5118   0.529   4.121   2.974 -0.5183 -0.0295  0.2252
 1623SOL     OW 5119   1.688   3.393   4.268  0.5261  0.0682 -0.2122
 1623SOL    HW1 5120   1.780   3.400   4.243  1.1763 -2.5342  1.0573
 1623SOL    HW2 5121   1.648   3.343   4.197  0.2459  0.5396 -0.3919
 1624SOL     OW 5122   4.924   0.393   4.084 -0.0465 -0.3006  0.0603
 1624SOL    HW1 5123   4.895   0.303   4.099 -0.9115 -0.0731 -0.1946
 1624SOL    HW2 5124   4.942   0.427   4.172  1.0907 -0.9700  0.1071
 1625SOL     OW 5125   0.425   3.995   0.744 -0.1505  0.1499  0.4223
 1625SOL    HW1 5126   0.395   4.076   0.787 -0.0918  1.1311 -1.3126
 1625SOL    HW2 5127   0.476   3.950   0.812 -0.7844  1.2061  1.6539
 1626SOL     OW 5128   3.686   4.753   3.950 -0.1456  0.7430  0.0960
 1626SOL    HW1 5129   3.682   4.770   4.044  0.4976  0.7134  0.1341
 1626SOL    HW2 5130   3.671   4.658   3.942 -0.0332  0.7178  0.1829
 1627SOL     OW 5131   3.370   4.406   5.614  0.1536 -0.2159  0.2617
 1627SOL    HW1 5132   3.425   4.390   5.537 -2.0690 -0.0598 -1.4662
 1627SOL    HW2 5133   3.315   4.328   5.620 -1.8086  1.0657 -0.2357
 1628SOL     OW 5134   1.826   4.610   1.298  0.6958 -0.4827  0.1269
 1628SOL    HW1 5135   1.900   4.656   1.338  0.0952 -0.6535  1.5039
 1628SOL    HW2 5136   1.835   4.626   1.205  2.6425 -0.7600  0.2296
 1629SOL     OW 5137   1.372   2.796   3.566  0.1019  0.2940 -0.2598
 1629SOL    HW1 5138   1.346   2.705   3.550  0.3433  0.4710 -1.9132
 1629SOL    HW2 5139   1.452   2.789   3.618  0.6853 -0.5060 -1.2036
 1630SOL     OW 5140   1.316   1.085   0.907  0.4654 -0.6460  0.3721
 1630SOL    HW1 5141   1.226   1.051   0.904  0.6088 -1.1022  0.9618
 1630SOL    HW2 5142   1.312   1.168   0.860 -0.6223  0.1288  1.7521
 1631SOL     OW 5143   5.990   0.030   5.214  0.3016 -0.0823  0.0857
 1631SOL    HW1 5144   6.059   0.096   5.219  0.8496 -0.6579  0.1939
 1631SOL    HW2 5145   5.943   0.038   5.297 -0.2692  0.8478 -0.3115
 1632SOL     OW 5146   2.206   1.336   3.618  0.2483  0.0669  0.2401
 1632SOL    HW1 5147   2.164   1.362   3.700 -0.9068 -2.1276  0.4442
 1632SOL    HW2 5148   2.293   1.306   3.644  0.1043 -0.0535  0.5868
 1633SOL     OW 5149   0.649   5.273   1.507  0.0546  0.2698  0.5035
 1633SOL    HW1 5150   0.692   5.304   1.587  1.3739  1.7440 -0.7122
 1633SOL    HW2 5151   0.682   5.184   1.494  1.5502  0.8055  0.4533
 1634SOL     OW 5152   4.376   2.197   0.990  0.0869 -0.0425  0.3416
 1634SOL    HW1 5153   4.343   2.274   0.944  0.2752 -0.4244 -0.4489
 1634SOL    HW2 5154   4.404   2.230   1.075  0.9493  0.9155 -0.2885
 1635SOL     OW 5155   3.161   0.203   4.091  0.0137 -0.0707 -0.0180
 1635SOL    HW1 5156   3.093   0.259   4.129  0.0012  0.3083 -0.5893
 1635SOL    HW2 5157   3.204   0.259   4.026  1.5802  0.0379  1.0658
 1636SOL     OW 5158   0.462   1.374   6.228  0.1599  0.2372 -0.3629
 1636SOL    HW1 5159   0.515   1.330   6.295  0.0146  1.5522  0.6812
 1636SOL    HW2 5160   0.523   1.434   6.186  0.3068 -0.7613 -1.6121
 1637SOL     OW 5161   5.593   0.309   2.071 -0.3541 -0.0215 -0.1893
 1637SOL    HW1 5162   5.640   0.262   2.003  1.5887  1.3092  0.1803
 1637SOL    HW2 5163   5.608   0.402   2.053 -1.2331  0.4027  1.0681
 1638SOL     OW 5164   1.279   6.067   1.030 -1.0029 -0.0102 -0.2334
 1638SOL    HW1 5165   1.279   5.996   1.094 -0.0364 -0.9956 -1.2831
 1638SOL    HW2 5166   1.287   6.147   1.082 -0.0465 -0.7960  0.8765
 1639SOL     OW 5167   3.757   0.107   4.397  0.1866 -0.0848  0.0592
 1639SOL    HW1 5168   3.777   0.195   4.367 -3.0392  1.1067  0.9888
 1639SOL    HW2 5169   3.661   0.102   4.395  0.2130 -3.1553  1.2076
 1640SOL     OW 5170   0.039   3.160   1.284 -0.0934 -0.2982 -0.4780
 1640SOL    HW1 5171   0.004   3.090   1.229 -1.4022  0.7976 -1.1069
 1640SOL    HW2 5172   0.130   3.169   1.256 -0.5526 -0.1921 -2.0296
 1641SOL     OW 5173   2.779   0.461   1.743  0.0296 -0.2891 -0.0957
 1641SOL    HW1 5174   2.833   0.454   1.822 -0.0212 -0.2679 -0.0594
 1641SOL    HW2 5175   2.835   0.428   1.672  0.5393  0.8883 -0.2635
 1642SOL     OW 5176   6.259   2.659   0.109 -0.1914 -0.7147 -0.3736
 1642SOL    HW1 5177   6.344   2.626   0.139 -0.5625 -0.3607  1.1172
 1642SOL    HW2 5178   6.249   2.621   0.022 -0.1943 -3.9166  0.8870
 1643SOL     OW 5179   3.069   0.078   1.042 -0.0254  0.2749  0.1725
 1643SOL    HW1 5180   3.025   0.054   0.961  1.0515  0.6476 -0.5456
 1643SOL    HW2 5181   3.076   0.173   1.038 -1.7956  0.5393  1.7019
 1644SOL     OW 5182   1.773   0.871   2.891  0.4379  0.2134 -0.1979
 1644SOL    HW1 5183   1.803   0.962   2.892  1.0823  0.0062 -0.2404
 1644SOL    HW2 5184   1.723   0.864   2.810 -0.3315  0.7495  0.2144
 1645SOL     OW 5185   0.350   4.107   2.742  0.0965  0.1146  0.0208
 1645SOL    HW1 5186   0.429   4.157   2.760  0.5778 -0.5252 -0.2940
 1645SOL    HW2 5187   0.373   4.017   2.763 -0.8801  0.0613  0.9648
 1646SOL     OW 5188   2.185   1.581   2.479 -0.6820  0.4345  0.5370
 1646SOL    HW1 5189   2.267   1.631   2.485 -0.6629  0.6722 -1.1487
 1646SOL    HW2 5190   2.200   1.505   2.535  0.9209  0.2094 -0.1197
 1647SOL     OW 5191   5.315   4.216   2.116 -0.8185 -0.3904 -0.3798
 1647SOL    HW1 5192   5.365   4.220   2.034  0.9370  1.1861  0.7165
 1647SOL    HW2 5193   5.364   4.155   2.171 -0.4204  0.6640  0.4702
 1648SOL     OW 5194   3.728   0.419   5.814 -0.0266 -0.6380 -0.4305
 1648SOL    HW1 5195   3.748   0.479   5.885  0.5632 -0.3864 -0.8046
 1648SOL    HW2 5196   3.716   0.476   5.737  0.3419 -0.9818 -0.7439
 1649SOL     OW 5197   2.452   3.960   5.562  0.4573  0.1234 -0.5622
 1649SOL    HW1 5198   2.434   3.920   5.477 -1.3615  1.4903 -0.8728
 1649SOL    HW2 5199   2.512   4.031   5.543  1.3083 -0.5430 -0.4410
 1650SOL     OW 5200   3.099   5.263   0.017  1.1416  0.8303 -0.7673
 1650SOL    HW1 5201   3.024   5.216  -0.019  0.9725  1.0399 -0.6884
 1650SOL    HW2 5202   3.066   5.302   0.098  1.2184  1.2817 -0.9520
 1651SOL     OW 5203   5.856   3.161   0.218 -0.1662 -0.7767  1.1944
 1651SOL    HW1 5204   5.862   3.097   0.147  0.5352 -0.0620  0.5903
 1651SOL    HW2 5205   5.766   3.192   0.216 -0.2748 -1.1104  0.9315
 1652SOL     OW 5206   6.053   6.174   6.191 -0.5025  0.2296 -0.1374
 1652SOL    HW1 5207   6.069   6.082   6.210  0.2345  0.3713 -0.0204
 1652SOL    HW2 5208   5.964   6.177   6.156 -1.3702 -0.2490  1.8624
 1653SOL     OW 5209   5.882   0.974   0.320  0.3055  0.0385  0.3308
 1653SOL    HW1 5210   5.911   0.893   0.278  0.1401 -0.0021  0.2943
 1653SOL    HW2 5211   5.868   1.035   0.247  2.1018  0.6585  0.4513
 1654SOL     OW 5212   4.599   3.521   2.174 -0.0713  0.0647  0.4327
 1654SOL    HW1 5213   4.564   3.529   2.263 -0.2862 -0.8791  0.4459
 1654SOL    HW2 5214   4.629   3.609   2.152 -1.0200  0.5555  1.0253
 1655SOL     OW 5215   0.716   5.348   4.578 -0.5260 -0.4349 -0.4139
 1655SOL    HW1 5216   0.786   5.283   4.588 -0.0988  0.0622 -0.1200
 1655SOL    HW2 5217   0.658   5.333   4.653  0.3974  0.5070  0.5399
 1656SOL     OW 5218   3.827   1.793   6.343 -0.5063 -0.2418  0.0634
 1656SOL    HW1 5219   3.736   1.800   6.315 -1.1313 -2.1742  1.3204
 1656SOL    HW2 5220   3.828   1.717   6.402  1.5944  0.7279  1.4283
 1657SOL     OW 5221   1.716   4.177   6.306  0.3428  0.0180 -0.6348
 1657SOL    HW1 5222   1.700   4.219   6.391  0.8127 -0.6511 -0.2122
 1657SOL    HW2 5223   1.704   4.084   6.322 -1.3387 -0.0149 -1.7158
 1658SOL     OW 5224   4.123   4.676   3.102  0.1299 -0.3907  0.0867
 1658SOL    HW1 5225   4.044   4.624   3.087 -0.4831  0.7578 -0.9300
 1658SOL    HW2 5226   4.168   4.677   3.018  1.0243 -0.6854  0.5475
 1659SOL     OW 5227   5.499   2.189   1.845  0.2342  0.2240 -0.1481
 1659SOL    HW1 5228   5.444   2.158   1.773  0.7027 -0.5049 -0.2057
 1659SOL    HW2 5229   5.532   2.274   1.814  0.0194  0.1569 -0.5777
 1660SOL     OW 5230   0.386   3.057   5.777 -0.4804  0.4240  0.0018
 1660SOL    HW1 5231   0.359   3.148   5.775 -0.9202  0.5193  3.4316
 1660SOL    HW2 5232   0.312   3.010   5.815  0.7059 -0.8538  0.8717
 1661SOL     OW 5233   0.965   5.252   4.005 -0.4292 -0.4215 -0.0626
 1661SOL    HW1 5234   1.036   5.285   4.060  0.4360 -0.1216 -1.3098
 1661SOL    HW2 5235   0.995   5.166   3.975 -0.9795 -0.6738  0.0940
 1662SOL     OW 5236   0.229   0.846   0.501  0.2508  0.1426  0.3290
 1662SOL    HW1 5237   0.286   0.835   0.425 -0.4964 -0.1043 -0.2193
 1662SOL    HW2 5238   0.256   0.929   0.540 -0.0136  0.7908 -0.8102
 1663SOL     OW 5239   3.835   3.525   1.166 -0.1021  0.5126  0.1801
 1663SOL    HW1 5240   3.834   3.429   1.175  1.0824  0.3576 -0.9189
 1663SOL    HW2 5241   3.849   3.539   1.072  0.2360  1.7597  0.4056
 1664SOL     OW 5242   0.551   5.793   6.328  0.2418  0.2016 -0.3308
 1664SOL    HW1 5243   0.480   5.788   6.392 -0.2681 -0.6611 -0.9454
 1664SOL    HW2 5244   0.612   5.725   6.356 -0.0948 -0.3347 -0.8804
 1665SOL     OW 5245   2.986   3.560   1.666 -0.7795  0.1142  0.3095
 1665SOL    HW1 5246   3.075   3.585   1.689 -1.0991 -1.6917  4.3592
 1665SOL    HW2 5247   2.931   3.624   1.711 -1.6101  0.7929 -1.5684
 1666SOL     OW 5248   1.301   1.247   3.932 -0.3506  0.1815 -0.0898
 1666SOL    HW1 5249   1.319   1.341   3.924  0.4083  0.0586  0.1641
 1666SOL    HW2 5250   1.353   1.218   4.006 -0.9606 -0.3504  0.1406
 1667SOL     OW 5251   4.643   4.451   5.772  0.2364  0.2036 -0.1155
 1667SOL    HW1 5252   4.721   4.505   5.760  0.8641 -0.7111 -0.2593
 1667SOL    HW2 5253   4.673   4.377   5.825 -0.4283 -0.3639 -0.5123
 1668SOL     OW 5254   4.651   3.042   5.089 -0.2591 -0.1160 -0.1117
 1668SOL    HW1 5255   4.658   2.997   5.173 -0.8396 -0.0856 -0.0435
 1668SOL    HW2 5256   4.588   2.991   5.039 -0.1501  0.0425 -0.4164
 1669SOL     OW 5257   5.852   5.917   0.772 -0.0708  0.1187 -0.2242
 1669SOL    HW1 5258   5.821   5.836   0.815 -1.4975  1.0681  0.6290
 1669SOL    HW2 5259   5.803   5.987   0.816  1.2392  1.4731 -0.8557
 1670SOL     OW 5260   3.944   0.865   0.455  0.4781 -0.0984  0.0791
 1670SOL    HW1 5261   4.005   0.922   0.408 -0.6983  0.4133 -0.8836
 1670SOL    HW2 5262   3.869   0.857   0.396  0.6041 -2.7028  0.1505
 1671SOL     OW 5263   3.552   2.506   3.752 -0.2259 -0.4847  0.0486
 1671SOL    HW1 5264   3.520   2.420   3.777  3.7386 -1.7534  1.5763
 1671SOL    HW2 5265   3.499   2.531   3.677 -2.8031 -3.3446  0.7223
 1672SOL     OW 5266   0.286   2.433   3.699 -0.2216 -0.0489  0.2135
 1672SOL    HW1 5267   0.327   2.434   3.613  1.7437  1.3907  1.0942
 1672SOL    HW2 5268   0.321   2.355   3.742 -0.9085 -0.5592 -0.1380
 1673SOL     OW 5269   5.146   6.280   3.216 -0.5335  0.2489 -0.1984
 1673SOL    HW1 5270   5.162   6.186   3.200 -0.7130  0.3824 -1.2474
 1673SOL    HW2 5271   5.226   6.310   3.260 -0.9743 -0.6394  1.2747
 1674SOL     OW 5272   3.768   3.711   5.378  0.1531  0.0011 -0.4054
 1674SOL    HW1 5273   3.747   3.621   5.403  0.6629 -0.2768 -0.9577
 1674SOL    HW2 5274   3.740   3.763   5.453  1.6582 -0.8116  0.7922
 1675SOL     OW 5275   0.295   2.170   4.397  0.1780 -0.1411 -0.1482
 1675SOL    HW1 5276   0.249   2.236   4.345  0.0570  0.3636  0.5821
 1675SOL    HW2 5277   0.276   2.087   4.353 -1.3227  0.0645  0.0454
 1676SOL     OW 5278   3.424   5.269   4.667 -0.1513 -0.1070  0.0986
 1676SOL    HW1 5279   3.479   5.342   4.637 -1.4950  0.8967 -0.0396
 1676SOL    HW2 5280   3.478   5.192   4.655  0.7934  0.7030 -1.1892
 1677SOL     OW 5281   3.245   0.479   2.624 -0.3263  0.2131 -0.4278
 1677SOL    HW1 5282   3.274   0.469   2.534  1.8819 -0.0726  0.2441
 1677SOL    HW2 5283   3.219   0.571   2.632 -2.6087 -0.2444 -1.8470
 1678SOL     OW 5284   0.799   0.753   0.770 -0.1279 -0.1169  0.1004
 1678SOL    HW1 5285   0.894   0.752   0.767 -0.1476 -0.3836 -0.9876
 1678SOL    HW2 5286   0.775   0.670   0.811  0.1049 -0.1359  0.1980
 1679SOL     OW 5287   3.428   4.533   0.753  0.1612 -0.2513 -0.2433
 1679SOL    HW1 5288   3.462   4.589   0.683  1.2225 -0.7480 -0.1337
 1679SOL    HW2 5289   3.488   4.458   0.756 -0.5681 -0.8292  0.3947
 1680SOL     OW 5290   0.378   5.783   4.576  0.2530 -0.1544  0.3615
 1680SOL    HW1 5291   0.295   5.789   4.529  0.7024  1.8254 -0.2620
 1680SOL    HW2 5292   0.370   5.844   4.649  1.6415  1.1885 -0.5498
 1681SOL     OW 5293   1.084   5.011   1.111 -0.5123 -0.0362  0.6269
 1681SOL    HW1 5294   1.063   5.069   1.184 -1.1190 -0.2486  0.6221
 1681SOL    HW2 5295   1.124   5.068   1.046  1.3597 -0.0511  1.6621
 1682SOL     OW 5296   4.017   2.933   5.529 -0.2076 -0.1832 -0.1861
 1682SOL    HW1 5297   3.990   2.916   5.619  1.5144 -2.7289 -0.0684
 1682SOL    HW2 5298   3.935   2.946   5.481 -1.1761  0.4533  1.5659
 1683SOL     OW 5299   5.047   3.767   1.692 -0.1707  0.0993  0.1647
 1683SOL    HW1 5300   5.026   3.811   1.610  0.7355  0.5643  0.1768
 1683SOL    HW2 5301   5.019   3.828   1.760  1.0399  0.6629  0.1815
 1684SOL     OW 5302   2.143   3.484   3.005  0.4650  0.2589  0.3333
 1684SOL    HW1 5303   2.196   3.510   2.930  1.0183 -0.5307  0.4347
 1684SOL    HW2 5304   2.095   3.406   2.976 -0.0596  0.5185  0.4892
 1685SOL     OW 5305   4.569   0.812   2.076  0.0228  0.4246  0.1615
 1685SOL    HW1 5306   4.602   0.729   2.041 -0.0701  0.3021  0.3622
 1685SOL    HW2 5307   4.542   0.791   2.165  0.4460  0.7821  0.3775
 1686SOL     OW 5308   3.939   3.994   1.788  0.0111 -0.0698  0.0844
 1686SOL    HW1 5309   3.901   3.960   1.707 -0.4682 -0.9299  0.6673
 1686SOL    HW2 5310   4.028   3.957   1.790 -0.3350 -0.8961  0.4639
 1687SOL     OW 5311   0.618   4.290   1.902  0.3675 -0.7927  0.2069
 1687SOL    HW1 5312   0.527   4.304   1.928 -0.0143 -1.3036 -0.7877
 1687SOL    HW2 5313   0.667   4.360   1.945 -0.5081 -0.4765  0.6971
 1688SOL     OW 5314   2.334   1.359   3.168  0.2740 -0.2624  0.2244
 1688SOL    HW1 5315   2.365   1.393   3.253  1.4802  1.9271 -0.9722
 1688SOL    HW2 5316   2.405   1.302   3.139  1.3539  1.3827 -0.5858
 1689SOL     OW 5317   0.587   2.215   6.288 -0.5551 -0.0214 -1.0446
 1689SOL    HW1 5318   0.518   2.155   6.316 -0.0585  0.0696  0.4913
 1689SOL    HW2 5319   0.630   2.170   6.215 -3.5799  0.8947 -3.5457
 1690SOL     OW 5320   2.246   5.032   0.029 -0.0842  0.5324 -0.2092
 1690SOL    HW1 5321   2.259   5.003  -0.061  0.1498  1.1882 -0.3937
 1690SOL    HW2 5322   2.331   5.068   0.055  0.8603 -2.4242  1.3605
 1691SOL     OW 5323   5.066   6.280   1.130 -0.0112 -0.1910  0.0138
 1691SOL    HW1 5324   4.994   6.217   1.118  0.2451 -0.3069 -1.0025
 1691SOL    HW2 5325   5.124   6.265   1.055  0.9671  0.0520  0.7124
 1692SOL     OW 5326   5.728   4.655   0.432 -0.1102 -0.0699 -0.2475
 1692SOL    HW1 5327   5.640   4.627   0.457 -0.6011 -0.3486 -2.1499
 1692SOL    HW2 5328   5.721   4.680   0.340  1.3058  2.1021  0.1457
 1693SOL     OW 5329   3.446   3.662   5.442  0.0221 -0.5722 -0.3444
 1693SOL    HW1 5330   3.441   3.740   5.497 -0.7754 -0.7278 -0.1972
 1693SOL    HW2 5331   3.356   3.645   5.415  0.0491 -1.9620  0.3533
 1694SOL     OW 5332   2.989   4.735   4.364 -0.4820  0.5180  0.2567
 1694SOL    HW1 5333   2.942   4.704   4.441 -1.3896  1.6728  0.2004
 1694SOL    HW2 5334   3.079   4.747   4.395 -0.0673 -2.0742  0.2588
 1695SOL     OW 5335   3.047   1.103   3.679  0.6001 -0.1884 -0.0873
 1695SOL    HW1 5336   3.093   1.086   3.597 -1.0482 -0.0438 -1.0733
 1695SOL    HW2 5337   2.962   1.061   3.668 -0.3000  1.3258  0.8466
 1696SOL     OW 5338   4.373   5.210   4.704  0.2563  0.6893  0.2653
 1696SOL    HW1 5339   4.343   5.239   4.790  0.0127  1.8150 -0.1884
 1696SOL    HW2 5340   4.469   5.217   4.709  0.1976  1.7335  0.1187
 1697SOL     OW 5341   2.113   5.350   3.702  0.1775  0.3170 -0.0422
 1697SOL    HW1 5342   2.045   5.316   3.643 -1.6622  0.5056  1.8471
 1697SOL    HW2 5343   2.095   5.308   3.786  2.3707  0.4862  0.5833
 1698SOL     OW 5344   2.786   2.937   3.811 -0.2706  0.7609 -0.3095
 1698SOL    HW1 5345   2.797   2.975   3.898 -0.2877 -1.2872  0.6306
 1698SOL    HW2 5346   2.692   2.925   3.802 -0.3905  2.1189 -1.1649
 1699SOL     OW 5347   0.302   0.886   4.766 -0.5238  0.0534 -0.3948
 1699SOL    HW1 5348   0.379   0.925   4.724  0.9021 -0.4955  1.5484
 1699SOL    HW2 5349   0.291   0.935   4.847 -1.8610 -0.3006 -0.3319
 1700SOL     OW 5350   5.421   5.578   1.188  0.3197  0.5542 -0.1355
 1700SOL    HW1 5351   5.425   5.484   1.170 -1.3790  0.6832 -1.4711
 1700SOL    HW2 5352   5.501   5.614   1.150  1.6549 -0.4861  1.5806
 1701SOL     OW 5353   5.748   4.407   5.437  0.3703  0.3947 -0.2205
 1701SOL    HW1 5354   5.656   4.410   5.412  0.2843  1.0766  0.1655
 1701SOL    HW2 5355   5.783   4.330   5.392 -0.7122 -0.7009  0.7343
 1702SOL     OW 5356   0.960   1.284   4.827 -0.1887 -0.3427  0.0377
 1702SOL    HW1 5357   1.008   1.344   4.769 -2.0221  0.6038 -0.5602
 1702SOL    HW2 5358   0.876   1.272   4.784 -1.5185  0.1505  2.3833
 1703SOL     OW 5359   3.615   2.854   6.046 -0.3555  0.6541  0.8144
 1703SOL    HW1 5360   3.687   2.803   6.083 -1.6407 -0.6754  1.5092
 1703SOL    HW2 5361   3.652   2.891   5.965  0.0224 -3.1965 -0.9826
 1704SOL     OW 5362   4.279   5.163   3.230 -0.2392 -0.2751  0.2473
 1704SOL    HW1 5363   4.351   5.101   3.241  0.7319  0.8808  0.6471
 1704SOL    HW2 5364   4.274   5.178   3.136  0.0890 -0.3238  0.2203
 1705SOL     OW 5365   4.249   4.463   3.934  0.4454  0.0346  0.0889
 1705SOL    HW1 5366   4.242   4.385   3.878  1.3838  0.4427 -0.6280
 1705SOL    HW2 5367   4.248   4.537   3.872  1.9512  0.4797  0.5518
 1706SOL     OW 5368   0.673   6.219   0.625 -0.3167  0.0945 -0.3946
 1706SOL    HW1 5369   0.730   6.236   0.700 -0.9260  1.0518 -0.1307
 1706SOL    HW2 5370   0.686   6.126   0.606  0.9663  0.1779 -0.0481
 1707SOL     OW 5371   0.381   5.220   5.445 -0.3539  0.2665  0.2732
 1707SOL    HW1 5372   0.304   5.164   5.442  0.1506 -0.5244  1.4069
 1707SOL    HW2 5373   0.390   5.254   5.356 -1.3220 -0.5556 -0.1527
 1708SOL     OW 5374   5.606   1.248   2.180  0.2632  0.2253 -0.2902
 1708SOL    HW1 5375   5.525   1.203   2.153  0.5167 -0.7278  0.4933
 1708SOL    HW2 5376   5.595   1.337   2.148  0.1686 -0.5897 -2.8006
 1709SOL     OW 5377   0.676   5.904   2.236 -0.6240  0.1087  0.4230
 1709SOL    HW1 5378   0.662   5.985   2.284  0.4778 -0.1579  1.2105
 1709SOL    HW2 5379   0.681   5.931   2.144  1.4914  1.1942  0.8019
 1710SOL     OW 5380   1.821   4.250   2.234  0.1155  0.3142  0.0890
 1710SOL    HW1 5381   1.901   4.244   2.182  0.9664  0.4177  1.3523
 1710SOL    HW2 5382   1.765   4.311   2.186  0.7541  0.1777 -0.8485
 1711SOL     OW 5383   6.323   0.431   4.450 -0.1167 -0.0883  0.3167
 1711SOL    HW1 5384   6.301   0.437   4.357  1.3289  0.4237 -0.0194
 1711SOL    HW2 5385   6.319   0.337   4.470 -2.0973 -0.0812  0.2101
 1712SOL     OW 5386   3.757   2.563   1.591 -0.5128  0.6557  0.0513
 1712SOL    HW1 5387   3.800   2.486   1.628  0.4767  0.5987 -1.1739
 1712SOL    HW2 5388   3.685   2.528   1.539 -0.3163  0.5880 -0.1735
 1713SOL     OW 5389   2.734   2.770   5.876  0.2968  0.0795  0.2965
 1713SOL    HW1 5390   2.789   2.823   5.933  0.7595  0.7887 -0.7766
 1713SOL    HW2 5391   2.747   2.807   5.788 -1.5197 -0.0368 -0.0599
 1714SOL     OW 5392   5.611   3.877   4.514 -0.4438 -0.3531 -0.4816
 1714SOL    HW1 5393   5.571   3.940   4.572  0.0951 -1.2026  0.8643
 1714SOL    HW2 5394   5.689   3.921   4.480  0.9363 -0.8457  1.8581
 1715SOL     OW 5395   5.174   0.550   4.947  0.3321 -0.7219  0.4947
 1715SOL    HW1 5396   5.202   0.463   4.920  1.6041 -0.4394  0.8361
 1715SOL    HW2 5397   5.161   0.542   5.042  0.8043 -0.4569  0.5842
 1716SOL     OW 5398   0.367   6.015   0.789 -0.5950  0.0821 -0.0499
 1716SOL    HW1 5399   0.372   6.108   0.771 -0.1906 -0.1853 -1.4900
 1716SOL    HW2 5400   0.457   5.984   0.778 -0.7853 -0.5288  0.0756
 1717SOL     OW 5401   6.050   3.117   3.960  0.2232  0.5356  0.2919
 1717SOL    HW1 5402   6.143   3.136   3.973  0.3702 -1.0503  2.0090
 1717SOL    HW2 5403   6.018   3.094   4.047 -1.5258  0.0295 -0.4455
 1718SOL     OW 5404   1.977   4.476   5.347 -0.0279 -0.1126  0.2409
 1718SOL    HW1 5405   1.927   4.479   5.265 -0.6589 -1.8463  0.5344
 1718SOL    HW2 5406   1.912   4.456   5.414 -0.0642  3.9871  1.7162
 1719SOL     OW 5407   5.476   0.400   2.351  0.4906 -0.1780  0.5833
 1719SOL    HW1 5408   5.457   0.437   2.438  0.4265  0.0831  0.4592
 1719SOL    HW2 5409   5.533   0.465   2.310 -0.9447  0.6036 -0.2622
 1720SOL     OW 5410   1.766   5.776   3.199  0.2546  0.3584  0.2460
 1720SOL    HW1 5411   1.760   5.757   3.106 -0.2291 -0.1845  0.3848
 1720SOL    HW2 5412   1.676   5.793   3.226  0.3302  0.0474  0.7106
 1721SOL     OW 5413   2.937   4.766   1.217  0.1280 -0.3194 -0.0886
 1721SOL    HW1 5414   2.960   4.721   1.298 -2.9389 -1.0403  0.5153
 1721SOL    HW2 5415   2.928   4.858   1.242 -0.7458 -0.5303  0.4142
 1722SOL     OW 5416   0.291   6.217   5.842 -0.0039 -0.0206 -0.0973
 1722SOL    HW1 5417   0.331   6.150   5.897  0.3158  0.8237  0.7222
 1722SOL    HW2 5418   0.321   6.300   5.880 -1.5959  0.6147 -0.1766
 1723SOL     OW 5419   0.164   4.644   3.788 -0.4088 -0.0152  0.1401
 1723SOL    HW1 5420   0.240   4.599   3.825 -0.9448  0.1553  1.5281
 1723SOL    HW2 5421   0.105   4.573   3.761 -0.5400 -0.1662  0.7936
 1724SOL     OW 5422   6.068   1.682   1.767  0.7611 -0.1033  0.4348
 1724SOL    HW1 5423   6.067   1.631   1.848  1.7656  0.5694  0.8833
 1724SOL    HW2 5424   6.053   1.772   1.795  1.8503  0.2395 -0.0345
 1725SOL     OW 5425   5.078   4.367   5.553 -0.1156  0.0171 -0.2264
 1725SOL    HW1 5426   4.993   4.381   5.509 -0.4071 -0.2115  0.2579
 1725SOL    HW2 5427   5.115   4.455   5.560  0.0718  0.0281 -1.1905
 1726SOL     OW 5428   2.805   0.368   2.080  0.1310 -0.0399 -0.3870
 1726SOL    HW1 5429   2.807   0.321   2.163 -1.3025 -1.0772 -0.8975
 1726SOL    HW2 5430   2.871   0.324   2.026  0.0023 -0.3496 -0.2938
 1727SOL     OW 5431   0.000   4.018   3.850 -0.0989  0.4189  0.2897
 1727SOL    HW1 5432  -0.009   4.037   3.757  0.4087  1.2561  0.3958
 1727SOL    HW2 5433   0.067   3.950   3.854  1.7212  2.0780  0.1398
 1728SOL     OW 5434   5.994   0.030   3.023  0.4593  0.2973 -0.1190
 1728SOL    HW1 5435   5.968   0.053   3.112 -0.9903 -0.5862 -0.2866
 1728SOL    HW2 5436   6.090   0.038   3.023  0.4632  0.5436  1.4366
 1729SOL     OW 5437   1.412   4.410   0.720  0.3935  0.1394 -0.3587
 1729SOL    HW1 5438   1.326   4.403   0.762 -0.2410 -0.2650 -1.6840
 1729SOL    HW2 5439   1.398   4.468   0.645  1.5821  1.1170  0.1392
 1730SOL     OW 5440   6.049   0.429   2.459 -0.2073 -0.3307  0.5081
 1730SOL    HW1 5441   6.031   0.335   2.464 -0.6952 -0.2103  1.0052
 1730SOL    HW2 5442   6.090   0.450   2.543 -2.1442  0.3389  1.3250
 1731SOL     OW 5443   3.355   5.615   0.408 -0.0738 -0.1537 -0.4031
 1731SOL    HW1 5444   3.446   5.607   0.434 -0.0294  1.6147  0.1733
 1731SOL    HW2 5445   3.330   5.528   0.376  1.3542 -1.0668  0.8643
 1732SOL     OW 5446   2.198   4.986   1.008  0.0457  0.1276 -0.2695
 1732SOL    HW1 5447   2.232   4.897   1.015 -0.4679  0.0078  1.1066
 1732SOL    HW2 5448   2.167   4.994   0.918  0.4054 -0.9637 -0.4968
 1733SOL     OW 5449   3.969   2.808   4.298  0.2993 -0.6852 -0.1411
 1733SOL    HW1 5450   3.923   2.891   4.309  0.8116 -0.4715  0.4016
 1733SOL    HW2 5451   3.931   2.750   4.364  0.4540 -0.6595 -0.0289
 1734SOL     OW 5452   2.200   5.515   4.972  0.0383  0.3437 -0.5163
 1734SOL    HW1 5453   2.284   5.520   4.926 -0.2220  2.1664 -0.8307
 1734SOL    HW2 5454   2.137   5.553   4.912 -0.6275  1.0527  0.6052
 1735SOL     OW 5455   1.770   6.174   3.965 -0.6001 -0.4749 -0.8626
 1735SOL    HW1 5456   1.718   6.243   4.007  0.3224 -1.7016  2.6633
 1735SOL    HW2 5457   1.855   6.215   3.947 -0.9328  0.0016 -1.3956
 1736SOL     OW 5458   6.057   4.017   1.802 -0.0190 -0.4234  0.0347
 1736SOL    HW1 5459   5.979   4.072   1.794  0.3111  0.1741  0.8625
 1736SOL    HW2 5460   6.102   4.027   1.718  0.3862  1.1202  0.4063
 1737SOL     OW 5461   4.329   5.555   5.508 -0.0743  0.5010  0.1054
 1737SOL    HW1 5462   4.276   5.524   5.435  0.7448 -0.2461 -0.1896
 1737SOL    HW2 5463   4.335   5.480   5.567 -0.0349  0.8382  0.5350
 1738SOL     OW 5464   0.041   1.387   0.317 -0.0886  0.5869 -0.4639
 1738SOL    HW1 5465   0.046   1.338   0.235 -0.2929 -0.6788  0.2621
 1738SOL    HW2 5466   0.016   1.322   0.383 -1.4608  1.8799  0.3431
 1739SOL     OW 5467   4.106   2.942   3.542  0.3340 -0.2186 -0.0551
 1739SOL    HW1 5468   4.019   2.936   3.581  0.5420 -1.8259  0.2273
 1739SOL    HW2 5469   4.141   2.853   3.547  1.9332  0.3587 -0.3134
 1740SOL     OW 5470   1.976   4.380   2.861  0.6985  0.3271  0.8328
 1740SOL    HW1 5471   1.970   4.409   2.770  0.8741 -0.7956  0.4465
 1740SOL    HW2 5472   1.886   4.361   2.886  0.8269 -1.1434  0.2688
 1741SOL     OW 5473   4.476   4.726   3.182 -0.2565  0.0723 -0.0265
 1741SOL    HW1 5474   4.510   4.814   3.169 -0.5945  0.0218 -1.3041
 1741SOL    HW2 5475   4.383   4.733   3.163 -0.1873 -0.6758 -0.6804
 1742SOL     OW 5476   1.434   1.342   4.396 -0.2044  0.0846  0.0802
 1742SOL    HW1 5477   1.399   1.430   4.409 -1.3959 -0.2505 -0.7827
 1742SOL    HW2 5478   1.385   1.287   4.457 -1.6907 -0.4861 -1.5494
 1743SOL     OW 5479   4.822   6.074   5.274 -0.0064 -0.2949  0.6340
 1743SOL    HW1 5480   4.804   5.981   5.285  1.6122 -0.4902  2.1558
 1743SOL    HW2 5481   4.916   6.082   5.291 -0.1939  1.6837  0.9837
 1744SOL     OW 5482   5.795   1.283   4.699 -0.7091  0.3802  1.0888
 1744SOL    HW1 5483   5.792   1.235   4.782  4.3841  0.2153  1.5377
 1744SOL    HW2 5484   5.775   1.218   4.633 -3.3647  0.1535  1.9890
 1745SOL     OW 5485   3.340   2.666   3.257 -0.1368  0.0599  0.3594
 1745SOL    HW1 5486   3.262   2.721   3.247  0.6227  1.0886 -0.0466
 1745SOL    HW2 5487   3.360   2.636   3.168  0.0803  0.0034  0.4276
 1746SOL     OW 5488   3.943   2.182   6.070  0.3221  0.5097  0.9265
 1746SOL    HW1 5489   4.015   2.130   6.034 -1.2798 -1.4482  0.3572
 1746SOL    HW2 5490   3.887   2.201   5.994 -0.7894  0.2436  1.6581
 1747SOL     OW 5491   2.273   4.833   4.255  0.5908 -0.2492  0.2235
 1747SOL    HW1 5492   2.273   4.738   4.264  0.9234 -0.5205 -2.1573
 1747SOL    HW2 5493   2.182   4.856   4.240  0.5825 -0.2344  0.2941
 1748SOL     OW 5494   1.793   0.072   6.158 -0.2515 -0.0492  0.6428
 1748SOL    HW1 5495   1.788   0.147   6.218  0.8592  0.1382  0.5280
 1748SOL    HW2 5496   1.887   0.064   6.138 -0.3969 -1.2474  0.3700
 1749SOL     OW 5497   0.358   6.065   5.352  0.2767  0.2346  0.1226
 1749SOL    HW1 5498   0.282   6.052   5.408  1.0691 -1.4204  0.8897
 1749SOL    HW2 5499   0.372   5.980   5.311  0.9685  0.8569 -0.9774
 1750SOL     OW 5500   2.605   5.723   3.249  0.1057 -0.0060 -0.0506
 1750SOL    HW1 5501   2.509   5.724   3.246  0.1132  0.1884 -2.1691
 1750SOL    HW2 5502   2.630   5.684   3.165  1.8860  2.8233 -0.9597
 1751SOL     OW 5503   2.561   5.639   1.601 -0.3094  0.3345 -0.0356
 1751SOL    HW1 5504   2.553   5.590   1.519 -0.2917  0.5735 -0.1801
 1751SOL    HW2 5505   2.491   5.704   1.597 -0.6368  0.0109  0.3719
 1752SOL     OW 5506   6.073   4.196   0.098  0.4753 -0.4487 -0.1415
 1752SOL    HW1 5507   6.063   4.186   0.003  0.7673 -0.6450 -0.1525
 1752SOL    HW2 5508   6.156   4.243   0.109  0.5676 -0.6490  0.0245
 1753SOL     OW 5509   2.884   0.168   0.313  0.4336  0.1181  0.3371
 1753SOL    HW1 5510   2.798   0.130   0.328 -0.7835  2.3363 -0.5470
 1753SOL    HW2 5511   2.917   0.124   0.234 -0.8899  0.7649 -0.6090
 1754SOL     OW 5512   1.904   1.762   4.843 -0.5811 -0.0897 -0.0805
 1754SOL    HW1 5513   1.899   1.669   4.824  0.3590 -0.1930  0.1254
 1754SOL    HW2 5514   1.849   1.803   4.777 -1.3485 -0.8176  0.0958
 1755SOL     OW 5515   5.796   3.500   4.944 -0.2183  0.5266  1.0710
 1755SOL    HW1 5516   5.754   3.468   4.864 -0.8524  1.4293  1.0280
 1755SOL    HW2 5517   5.860   3.432   4.966 -2.3136 -1.3982  1.6480
 1756SOL     OW 5518   2.801   0.595   1.027  0.5725 -0.0612 -0.4136
 1756SOL    HW1 5519   2.749   0.675   1.038  0.8986  0.1582 -0.4767
 1756SOL    HW2 5520   2.763   0.534   1.090  0.5297  0.2480 -0.1357
 1757SOL     OW 5521   3.143   3.986   3.820  0.1505  0.1307 -0.1382
 1757SOL    HW1 5522   3.115   3.947   3.903  1.5020  2.5355  1.6171
 1757SOL    HW2 5523   3.123   4.079   3.831  2.5479  0.8903 -1.4879
 1758SOL     OW 5524   6.184   4.010   5.441  0.2477  0.0755  0.3787
 1758SOL    HW1 5525   6.273   4.038   5.463  0.2089 -1.3153  2.6365
 1758SOL    HW2 5526   6.194   3.920   5.409 -0.0381  1.1020 -2.9623
 1759SOL     OW 5527   4.921   4.224   4.344 -0.2565  0.3480  0.1085
 1759SOL    HW1 5528   4.843   4.168   4.342  0.0591 -0.1462  0.9971
 1759SOL    HW2 5529   4.905   4.290   4.277  0.4770 -2.2012 -2.7689
 1760SOL     OW 5530   1.116   0.756   2.005 -0.6035 -0.7981  0.9398
 1760SOL    HW1 5531   1.157   0.819   2.064  1.4918 -1.2105  0.0204
 1760SOL    HW2 5532   1.071   0.694   2.063  1.4688 -1.2578  2.1755
 1761SOL     OW 5533   0.023   5.416   4.323 -0.2342 -0.1832 -0.7680
 1761SOL    HW1 5534   0.112   5.395   4.352 -0.1809  0.6596 -0.2651
 1761SOL    HW2 5535   0.035   5.452   4.235  0.2657  2.3428  0.2441
 1762SOL     OW 5536   4.478   0.570   0.469 -0.4077  0.3484 -0.2233
 1762SOL    HW1 5537   4.531   0.595   0.545 -3.4229  2.3936  1.4277
 1762SOL    HW2 5538   4.421   0.500   0.502 -1.4608  0.9616 -0.6951
 1763SOL     OW 5539   1.720   1.366   3.906  0.0706 -0.1265 -0.1246
 1763SOL    HW1 5540   1.663   1.309   3.854  0.0930  0.8033 -1.1944
 1763SOL    HW2 5541   1.673   1.376   3.989  0.2579 -1.9975  0.2611
 1764SOL     OW 5542   1.827   3.003   4.318  0.9551 -0.1155 -0.7624
 1764SOL    HW1 5543   1.821   2.945   4.394  0.2992  0.1775 -0.5799
 1764SOL    HW2 5544   1.847   3.089   4.354 -1.3561  0.4613 -0.6875
 1765SOL     OW 5545   1.916   3.465   1.041 -0.4490 -0.3064  0.0738
 1765SOL    HW1 5546   1.880   3.511   0.965  0.3209 -1.0909 -0.7877
 1765SOL    HW2 5547   1.993   3.516   1.065 -1.2023  0.4791  0.9506
 1766SOL     OW 5548   4.302   6.029   3.862  0.0862 -0.5176 -0.4377
 1766SOL    HW1 5549   4.387   6.063   3.836 -0.0570 -0.1897 -0.4760
 1766SOL    HW2 5550   4.322   5.946   3.906  0.5867  0.3906  1.1363
 1767SOL     OW 5551   2.681   5.827   1.082 -0.0500 -0.3155 -0.0478
 1767SOL    HW1 5552   2.715   5.781   1.158 -0.1749 -0.3148  0.0088
 1767SOL    HW2 5553   2.629   5.761   1.035 -0.2198 -0.2372  0.0273
 1768SOL     OW 5554   4.625   1.074   2.285  0.1828 -0.1098  0.0665
 1768SOL    HW1 5555   4.718   1.097   2.286  0.0272  0.5832 -0.5141
 1768SOL    HW2 5556   4.624   0.978   2.278  0.8519 -0.1115 -0.0504
 1769SOL     OW 5557   0.759   1.367   4.475  0.0833  0.3226  0.4500
 1769SOL    HW1 5558   0.853   1.370   4.458  0.2905 -3.2598  0.3093
 1769SOL    HW2 5559   0.751   1.328   4.562 -1.2752  0.6179  0.4798
 1770SOL     OW 5560   3.323   4.700   1.419 -0.2328 -0.1087  0.0205
 1770SOL    HW1 5561   3.270   4.689   1.340  0.4857 -1.7008 -0.2767
 1770SOL    HW2 5562   3.409   4.663   1.396 -0.0959 -0.8773  1.6135
 1771SOL     OW 5563   3.437   5.146   0.041  0.4910 -0.2835  0.4970
 1771SOL    HW1 5564   3.495   5.113   0.110  1.5997 -0.4448 -0.4728
 1771SOL    HW2 5565   3.430   5.073  -0.020 -1.4568 -0.5728  0.9922
 1772SOL     OW 5566   4.080   0.313   1.327 -0.9315  0.2598  0.3193
 1772SOL    HW1 5567   4.040   0.348   1.406  2.4535  0.3723  2.1555
 1772SOL    HW2 5568   4.073   0.218   1.335 -1.0726  0.2842  0.4727
 1773SOL     OW 5569   3.745   0.566   0.579  0.1345  0.4894 -0.6309
 1773SOL    HW1 5570   3.721   0.645   0.628  1.3015  1.4779 -1.5634
 1773SOL    HW2 5571   3.820   0.594   0.525 -0.2426 -0.9147 -1.9415
 1774SOL     OW 5572   5.162   2.586   0.271 -0.0111  0.0765 -0.2621
 1774SOL    HW1 5573   5.186   2.497   0.298  0.1741  0.6895  1.7791
 1774SOL    HW2 5574   5.085   2.607   0.325  0.6331  1.5450  0.1468
 1775SOL     OW 5575   0.833   1.448   3.780  0.6871  0.1365 -0.0642
 1775SOL    HW1 5576   0.750   1.404   3.799  0.4678 -0.0387 -1.3756
 1775SOL    HW2 5577   0.808   1.525   3.728  1.2923  0.4825  0.1419
 1776SOL     OW 5578   1.615   5.714   2.533  0.0593  0.2838  0.0022
 1776SOL    HW1 5579   1.564   5.697   2.454  0.0857 -1.1146  0.2540
 1776SOL    HW2 5580   1.701   5.741   2.500 -0.0951  0.2419 -0.4462
 1777SOL     OW 5581   2.352   1.931   3.592  0.5406 -0.0574 -0.7645
 1777SOL    HW1 5582   2.270   1.936   3.544 -1.0256 -0.8682  1.6389
 1777SOL    HW2 5583   2.386   2.021   3.591 -0.7298  0.4436 -1.2080
 1778SOL     OW 5584   6.208   1.515   5.797 -0.0887  0.4396  0.1013
 1778SOL    HW1 5585   6.281   1.545   5.743 -0.7114  0.0978 -0.9740
 1778SOL    HW2 5586   6.130   1.551   5.754 -0.6232 -0.0612  0.6257
 1779SOL     OW 5587   5.592   2.901   4.762 -0.2371 -0.6542  0.0856
 1779SOL    HW1 5588   5.551   2.931   4.843  0.2524  1.2400 -0.3035
 1779SOL    HW2 5589   5.568   2.809   4.755  0.1420 -1.0288  2.6379
 1780SOL     OW 5590   4.191   0.575   4.029  0.3186 -0.0290  0.2861
 1780SOL    HW1 5591   4.248   0.629   3.973 -1.4453  2.2800  0.5392
 1780SOL    HW2 5592   4.128   0.537   3.968  0.9647 -1.0336  0.2311
 1781SOL     OW 5593   2.006   3.218   1.903 -0.0769  0.3213 -0.5923
 1781SOL    HW1 5594   1.974   3.179   1.821  0.2046  0.5855 -0.8248
 1781SOL    HW2 5595   1.926   3.245   1.949 -0.2929 -0.6849 -0.3502
 1782SOL     OW 5596   2.701   5.943   5.114  0.0136  0.0418  0.0763
 1782SOL    HW1 5597   2.658   5.879   5.058  0.9776 -0.1009 -0.5203
 1782SOL    HW2 5598   2.754   5.996   5.055 -0.1865  0.9247  0.6562
 1783SOL     OW 5599   5.282   1.390   2.245  0.7153  0.3501 -0.2127
 1783SOL    HW1 5600   5.240   1.430   2.169  0.6361 -0.8784 -0.8302
 1783SOL    HW2 5601   5.375   1.404   2.232  0.6956  0.2317 -0.4793
 1784SOL     OW 5602   5.212   3.655   3.364 -0.3480  0.5846 -0.0025
 1784SOL    HW1 5603   5.184   3.624   3.278 -3.0226 -0.1069  1.0322
 1784SOL    HW2 5604   5.132   3.682   3.408  0.7799 -0.0214  2.6579
 1785SOL     OW 5605   1.294   0.414   0.299 -0.2837 -0.0493 -0.1872
 1785SOL    HW1 5606   1.387   0.399   0.285 -0.4797  0.0654 -1.8117
 1785SOL    HW2 5607   1.258   0.328   0.319  0.0176 -0.2747 -0.6031
 1786SOL     OW 5608   6.084   3.520   2.914 -0.3240  0.1540  0.1883
 1786SOL    HW1 5609   6.178   3.513   2.931 -0.2404  0.5352 -0.1179
 1786SOL    HW2 5610   6.069   3.465   2.838 -0.6571 -1.3437  1.2844
 1787SOL     OW 5611   1.393   5.828   4.745  0.0007  0.0553 -0.5928
 1787SOL    HW1 5612   1.410   5.900   4.805  2.2921 -0.0136 -1.0651
 1787SOL    HW2 5613   1.477   5.813   4.701 -1.3075 -0.6202 -3.0144
 1788SOL     OW 5614   2.941   2.594   1.698 -0.1009  0.0416 -0.0546
 1788SOL    HW1 5615   2.908   2.606   1.787  1.4555  0.2930  0.5329
 1788SOL    HW2 5616   2.897   2.661   1.646  1.2942  2.0278  1.2080
 1789SOL     OW 5617   0.570   0.637   0.022 -0.1483  0.2634 -0.1684
 1789SOL    HW1 5618   0.588   0.730   0.033 -1.4001  0.5671 -0.4544
 1789SOL    HW2 5619   0.484   0.624   0.063 -0.1757 -0.6725 -0.4801
 1790SOL     OW 5620   2.285   6.331   1.746 -0.3340 -0.1054 -0.0493
 1790SOL    HW1 5621   2.303   6.238   1.757 -1.5427 -0.4911 -1.0346
 1790SOL    HW2 5622   2.328   6.354   1.663  0.0922  0.2661  0.2671
 1791SOL     OW 5623   0.248   3.621   5.233 -0.5084 -0.1048  0.8467
 1791SOL    HW1 5624   0.175   3.613   5.171 -0.3318  0.9390  0.4778
 1791SOL    HW2 5625   0.325   3.591   5.183 -0.3140  1.0327  0.4276
 1792SOL     OW 5626   0.422   5.638   5.113 -0.8760  0.2622 -0.4375
 1792SOL    HW1 5627   0.500   5.693   5.114  0.9419 -2.1445  1.0157
 1792SOL    HW2 5628   0.404   5.622   5.021 -0.3524  1.7193 -0.8214
 1793SOL     OW 5629   2.732   3.935   3.210  0.4054  0.0976  0.2717
 1793SOL    HW1 5630   2.710   3.982   3.290  0.1531  0.1982  0.1446
 1793SOL    HW2 5631   2.669   3.966   3.145 -0.1027 -0.7952  0.3204
 1794SOL     OW 5632   4.869   1.385   1.891  0.2876 -0.1228  0.3704
 1794SOL    HW1 5633   4.952   1.338   1.878  0.3306  0.1786 -0.5794
 1794SOL    HW2 5634   4.840   1.406   1.802 -1.1023 -0.7152  0.6652
 1795SOL     OW 5635   2.374   1.405   0.483  0.0674 -0.2231  0.4495
 1795SOL    HW1 5636   2.468   1.412   0.501  0.0537 -0.6137  0.6760
 1795SOL    HW2 5637   2.344   1.496   0.480  0.0570 -0.1106  2.5509
 1796SOL     OW 5638   3.556   1.773   6.307 -0.0637  0.9338  0.0401
 1796SOL    HW1 5639   3.510   1.836   6.362 -0.2915  0.8036  0.0036
 1796SOL    HW2 5640   3.553   1.691   6.358  1.4513  1.2685  0.7187
 1797SOL     OW 5641   0.268   2.533   4.820  0.8004 -0.0679  0.1503
 1797SOL    HW1 5642   0.228   2.541   4.906  0.1045 -0.4102 -0.1293
 1797SOL    HW2 5643   0.337   2.468   4.831  1.7904  1.0350  0.8009
 1798SOL     OW 5644   2.436   1.804   1.025 -0.0800  0.3046 -0.1150
 1798SOL    HW1 5645   2.357   1.778   0.978  0.1136  0.8262 -0.7327
 1798SOL    HW2 5646   2.406   1.873   1.085 -0.2533 -0.1075  0.2859
 1799SOL     OW 5647   1.001   4.590   4.520  0.3851  0.5374  0.0627
 1799SOL    HW1 5648   0.973   4.624   4.435 -0.9666 -0.0890  0.2353
 1799SOL    HW2 5649   0.925   4.544   4.554  1.6426 -1.3048  0.5443
 1800SOL     OW 5650   0.964   0.514   3.042 -0.0243 -0.0821  0.5747
 1800SOL    HW1 5651   1.009   0.548   3.119 -1.9669  2.4247  0.7256
 1800SOL    HW2 5652   0.880   0.561   3.040 -1.6037 -2.6979 -1.0579
 1801SOL     OW 5653   4.329   3.822   0.599  0.6066  0.2148  0.5744
 1801SOL    HW1 5654   4.293   3.902   0.637  0.7548 -0.0155  1.2199
 1801SOL    HW2 5655   4.262   3.793   0.537  0.3107  0.5495  0.7328
 1802SOL     OW 5656   1.617   1.618   5.436  0.7573  0.6862 -0.2363
 1802SOL    HW1 5657   1.542   1.606   5.495  0.8890  1.0793  0.0155
 1802SOL    HW2 5658   1.680   1.669   5.488  1.3931 -0.0422 -0.2740
 1803SOL     OW 5659   5.737   4.813   1.904  0.6225  0.1783 -0.1695
 1803SOL    HW1 5660   5.760   4.738   1.848 -0.6174 -0.4446  0.1388
 1803SOL    HW2 5661   5.764   4.786   1.992 -0.7001 -0.3241  0.1008
 1804SOL     OW 5662   2.564   3.128   1.945  0.3309 -0.6821  0.3096
 1804SOL    HW1 5663   2.566   3.173   1.860  0.1808 -0.4842  0.4088
 1804SOL    HW2 5664   2.492   3.065   1.937 -1.1998  0.8616  1.0335
 1805SOL     OW 5665   0.683   3.594   3.096  0.1742 -0.0700  0.1036
 1805SOL    HW1 5666   0.764   3.643   3.110  1.0718 -1.6667  0.8746
 1805SOL    HW2 5667   0.630   3.612   3.174  0.9090 -1.0206  0.8556
 1806SOL     OW 5668   1.460   2.930   2.293 -0.3788  0.4448 -0.5938
 1806SOL    HW1 5669   1.418   2.938   2.379  0.5156  0.6057 -0.1618
 1806SOL    HW2 5670   1.554   2.929   2.312 -0.1740  0.3233 -1.5610
 1807SOL     OW 5671   4.802   5.150   3.334 -0.4965  0.6381 -0.1194
 1807SOL    HW1 5672   4.875   5.089   3.329 -1.5211 -1.2833  3.8505
 1807SOL    HW2 5673   4.736   5.114   3.276 -0.3973 -1.1085  0.7742
 1808SOL     OW 5674   2.576   2.156   4.308 -0.1040  0.6436 -0.1482
 1808SOL    HW1 5675   2.622   2.146   4.391  0.6984 -2.1581 -0.8026
 1808SOL    HW2 5676   2.489   2.120   4.324  1.0576 -3.1176 -1.1587
 1809SOL     OW 5677   4.406   1.306   1.626 -0.0338  0.1442  0.3109
 1809SOL    HW1 5678   4.395   1.224   1.579 -0.5042 -0.8696  2.1133
 1809SOL    HW2 5679   4.388   1.374   1.560 -1.0309 -1.1945 -0.8529
 1810SOL     OW 5680   2.072   4.022   4.868  0.5029  0.2585 -0.0965
 1810SOL    HW1 5681   2.082   3.939   4.914 -1.1184 -0.0191 -0.1889
 1810SOL    HW2 5682   2.136   4.080   4.909  0.7288 -0.6519  0.8833
 1811SOL     OW 5683   5.541   2.603   0.232 -0.8648 -0.3275 -0.0095
 1811SOL    HW1 5684   5.531   2.674   0.169 -2.6840  1.2666  1.9512
 1811SOL    HW2 5685   5.624   2.621   0.276 -0.1331 -0.8260 -1.1535
 1812SOL     OW 5686   4.983   5.629   2.320  0.2280  0.0012 -0.5333
 1812SOL    HW1 5687   4.929   5.553   2.298  1.6365 -0.8155 -1.3720
 1812SOL    HW2 5688   4.955   5.697   2.260 -1.7279  0.5201  0.8715
 1813SOL     OW 5689   3.670   0.522   5.504 -0.3197 -0.0854  0.2655
 1813SOL    HW1 5690   3.583   0.487   5.486 -0.3698 -0.0506  0.4384
 1813SOL    HW2 5691   3.656   0.593   5.565  0.0268 -1.6237  2.2466
 1814SOL     OW 5692   2.860   4.100   2.573 -0.1771 -0.3199 -0.4719
 1814SOL    HW1 5693   2.929   4.036   2.589  1.3822  1.5698  1.0075
 1814SOL    HW2 5694   2.819   4.113   2.659  0.1387  1.2414 -0.5194
 1815SOL     OW 5695   4.831   5.814   0.501 -0.0033  0.3703  0.2909
 1815SOL    HW1 5696   4.892   5.779   0.566  0.2500  0.5727  0.1603
 1815SOL    HW2 5697   4.744   5.792   0.537  0.0852  1.7301  1.4078
 1816SOL     OW 5698   3.479   0.424   1.367 -0.0023 -0.4754  0.0907
 1816SOL    HW1 5699   3.468   0.357   1.435  1.3693 -0.4556  0.3594
 1816SOL    HW2 5700   3.556   0.473   1.395  1.7798 -1.6458 -2.4411
 1817SOL     OW 5701   4.505   4.217   6.228  0.0537 -0.5587  0.2044
 1817SOL    HW1 5702   4.484   4.145   6.168  0.3397  0.9603 -1.8548
 1817SOL    HW2 5703   4.597   4.237   6.210 -0.6021  1.7539 -0.9873
 1818SOL     OW 5704   4.909   5.883   0.255 -0.6704 -0.2359  0.2824
 1818SOL    HW1 5705   4.947   5.798   0.231  0.4115 -0.1059  1.4419
 1818SOL    HW2 5706   4.854   5.864   0.331 -0.4259  0.1142  0.5437
 1819SOL     OW 5707   3.810   1.780   4.478 -0.9516  0.1906 -0.6761
 1819SOL    HW1 5708   3.804   1.825   4.395 -2.4320 -0.2041 -0.8144
 1819SOL    HW2 5709   3.725   1.797   4.521 -1.0529 -1.3636 -0.1987
 1820SOL     OW 5710   0.822   0.072   0.485 -0.3842 -0.1557 -0.1257
 1820SOL    HW1 5711   0.871   0.025   0.418  0.2643  1.4314 -0.8033
 1820SOL    HW2 5712   0.768   0.005   0.526 -0.2490 -1.3097 -1.7332
 1821SOL     OW 5713   4.733   4.753   4.602 -0.0429  0.1411  0.1532
 1821SOL    HW1 5714   4.698   4.842   4.597 -1.4817 -0.3535  0.7877
 1821SOL    HW2 5715   4.741   4.735   4.696 -1.9230 -1.1440  0.1417
 1822SOL     OW 5716   5.370   1.747   2.613  0.1063  0.4790 -0.3367
 1822SOL    HW1 5717   5.373   1.657   2.581  1.2331  0.0119  0.9740
 1822SOL    HW2 5718   5.451   1.787   2.581  0.8160  0.2635  1.0858
 1823SOL     OW 5719   5.094   3.097   0.373 -0.4723 -0.2320  0.0569
 1823SOL    HW1 5720   5.061   3.186   0.385 -0.8403 -0.3454 -0.1286
 1823SOL    HW2 5721   5.085   3.080   0.279 -1.5782 -0.9245  0.2673
 1824SOL     OW 5722   1.590   2.131   5.529  0.3270  0.3889 -0.7601
 1824SOL    HW1 5723   1.611   2.142   5.622  0.8306  0.2568 -0.8539
 1824SOL    HW2 5724   1.648   2.192   5.484 -0.7879  1.3623 -0.9140
 1825SOL     OW 5725   1.033   5.836   1.597 -0.0055  0.4038 -0.5478
 1825SOL    HW1 5726   1.085   5.895   1.651  0.9590  0.1390 -1.1415
 1825SOL    HW2 5727   0.943   5.847   1.628  0.2374  1.7094 -0.2283
 1826SOL     OW 5728   3.881   2.222   3.998 -0.5316  0.4569  0.1340
 1826SOL    HW1 5729   3.828   2.209   3.919 -0.6014  0.7168  0.1379
 1826SOL    HW2 5730   3.835   2.289   4.047  0.5986  1.8065 -0.5798
 1827SOL     OW 5731   1.282   0.997   2.844 -0.5762 -0.1075 -0.0049
 1827SOL    HW1 5732   1.329   1.050   2.779 -0.4812 -0.2602 -0.0616
 1827SOL    HW2 5733   1.198   0.977   2.802 -0.2402 -0.7915 -0.3660
 1828SOL     OW 5734   3.388   3.808   3.754 -0.1052  0.7148 -0.4869
 1828SOL    HW1 5735   3.401   3.749   3.828 -0.3053  0.1884 -0.8727
 1828SOL    HW2 5736   3.317   3.866   3.782 -1.0878 -0.3215 -0.7693
 1829SOL     OW 5737   3.014   0.539   2.353 -0.1193 -0.0557  0.0141
 1829SOL    HW1 5738   3.081   0.607   2.360  0.1814  0.2051 -3.5202
 1829SOL    HW2 5739   2.990   0.520   2.443  1.6172  2.8960  1.2580
 1830SOL     OW 5740   2.689   5.829   4.269 -0.4234 -0.1226 -0.1560
 1830SOL    HW1 5741   2.662   5.913   4.233  0.2385  0.4442  0.6395
 1830SOL    HW2 5742   2.679   5.767   4.196 -0.3475  0.7518 -0.9199
 1831SOL     OW 5743   5.732   2.005   5.463 -0.1545 -0.2486 -0.8974
 1831SOL    HW1 5744   5.642   2.033   5.447 -0.1037  0.0946 -0.5971
 1831SOL    HW2 5745   5.744   1.929   5.406 -0.9621 -0.9280 -0.1986
 1832SOL     OW 5746   5.920   2.734   0.767  0.3526  0.1873  0.5345
 1832SOL    HW1 5747   5.912   2.695   0.854 -2.7447  0.5570  0.5207
 1832SOL    HW2 5748   5.929   2.828   0.784 -2.3290  0.5242  0.5592
 1833SOL     OW 5749   5.390   2.272   0.827 -0.0516  0.5425  0.1410
 1833SOL    HW1 5750   5.346   2.296   0.908 -1.0553  1.0513 -0.5407
 1833SOL    HW2 5751   5.482   2.293   0.843 -0.3821  1.5588  0.8121
 1834SOL     OW 5752   1.726   0.707   0.726 -0.4904  0.1047  0.2996
 1834SOL    HW1 5753   1.722   0.751   0.641  1.3793 -0.7789 -0.3005
 1834SOL    HW2 5754   1.635   0.707   0.757 -0.9079  2.1690 -0.7737
 1835SOL     OW 5755   1.064   0.964   0.979  0.2782  0.4525 -0.1747
 1835SOL    HW1 5756   1.062   0.885   0.925  0.2909 -0.6421  1.3307
 1835SOL    HW2 5757   1.048   0.932   1.068  0.2975  2.1596  0.4874
 1836SOL     OW 5758   5.575   4.897   2.995  0.2930 -0.1892 -0.0068
 1836SOL    HW1 5759   5.624   4.910   3.076 -1.4460 -0.6600  1.1935
 1836SOL    HW2 5760   5.488   4.932   3.014 -0.1327 -0.2387 -1.7159
 1837SOL     OW 5761   0.192   1.222   1.004  0.5667 -0.3520  0.8824
 1837SOL    HW1 5762   0.275   1.265   0.986  0.3367  0.7848  2.2827
 1837SOL    HW2 5763   0.139   1.290   1.048 -1.1944 -0.9624 -0.1722
 1838SOL     OW 5764   4.298   1.726   1.537 -0.4707  0.0668 -0.3055
 1838SOL    HW1 5765   4.252   1.714   1.454 -0.3862 -0.5576 -0.2624
 1838SOL    HW2 5766   4.306   1.821   1.545 -2.5923  0.2614  0.1557
 1839SOL     OW 5767   2.367   3.126   0.142 -0.2264 -0.0540 -0.1061
 1839SOL    HW1 5768   2.428   3.192   0.174  1.4360 -2.2757  1.6303
 1839SOL    HW2 5769   2.402   3.100   0.057  0.3957 -0.2458  0.2059
 1840SOL     OW 5770   3.858   3.166   3.648  0.4610  0.9454 -0.4039
 1840SOL    HW1 5771   3.860   3.099   3.716  2.1331  0.7657 -0.5739
 1840SOL    HW2 5772   3.833   3.246   3.694 -2.0597  0.1620 -0.2886
 1841SOL     OW 5773   0.019   1.758   1.709  0.1086  0.0124 -0.5968
 1841SOL    HW1 5774  -0.076   1.771   1.703  0.4514  3.1814 -0.6456
 1841SOL    HW2 5775   0.029   1.692   1.778 -2.0979  1.7956  1.6377
 1842SOL     OW 5776   0.505   3.719   4.754 -0.3245  0.1778  0.3845
 1842SOL    HW1 5777   0.497   3.637   4.705 -0.4999 -0.0948  0.8606
 1842SOL    HW2 5778   0.599   3.737   4.757 -0.4096  2.2227 -3.3341
 1843SOL     OW 5779   2.772   2.228   6.151  0.4114  0.1155  0.0122
 1843SOL    HW1 5780   2.691   2.197   6.111  0.6836 -0.2869 -0.2400
 1843SOL    HW2 5781   2.787   2.168   6.224  0.5285  0.1343  0.0042
 1844SOL     OW 5782   1.476   0.608   2.499  0.3132  0.1929 -0.1141
 1844SOL    HW1 5783   1.543   0.641   2.439  1.1752  1.2102  1.3588
 1844SOL    HW2 5784   1.435   0.686   2.535  0.8716 -0.3346  1.7766
 1845SOL     OW 5785   4.245   0.889   1.709 -0.5032  0.7033 -0.2453
 1845SOL    HW1 5786   4.301   0.811   1.711 -2.2533 -0.7144 -1.9384
 1845SOL    HW2 5787   4.275   0.938   1.633  0.4156  1.5860  0.6601
 1846SOL     OW 5788   4.940   4.463   1.339  0.0352 -0.0955  0.5973
 1846SOL    HW1 5789   4.878   4.522   1.381  1.0397  0.8493  0.8232
 1846SOL    HW2 5790   4.951   4.499   1.251  0.1678 -0.3200  0.5211
 1847SOL     OW 5791   2.442   3.533   6.168  0.2599 -0.0619  0.3350
 1847SOL    HW1 5792   2.457   3.620   6.204 -0.0605 -0.1386  0.6567
 1847SOL    HW2 5793   2.493   3.532   6.087  1.3693 -0.0587  1.0236
 1848SOL     OW 5794   0.266   5.363   5.666 -0.3436 -0.1921  0.4663
 1848SOL    HW1 5795   0.233   5.292   5.722  1.3880 -1.3058  0.1761
 1848SOL    HW2 5796   0.310   5.318   5.594 -3.1820  1.1702 -2.3677
 1849SOL     OW 5797   4.480   4.369   1.227  0.1942 -0.0336  0.0252
 1849SOL    HW1 5798   4.548   4.302   1.234 -1.5332 -1.8087  0.5076
 1849SOL    HW2 5799   4.514   4.442   1.279  1.2026 -1.3187  1.2552
 1850SOL     OW 5800   3.463   1.511   4.592  0.0897  0.1477  0.7996
 1850SOL    HW1 5801   3.535   1.548   4.644  0.3956  0.1586  0.3784
 1850SOL    HW2 5802   3.475   1.416   4.599  0.3128  0.1533  0.5018
 1851SOL     OW 5803   6.124   1.867   1.483 -0.5435 -0.1793 -0.0709
 1851SOL    HW1 5804   6.120   1.798   1.416 -0.3595 -1.1157  0.8520
 1851SOL    HW2 5805   6.105   1.821   1.565 -1.3942  1.0664  0.4461
 1852SOL     OW 5806   4.142   5.266   1.078  0.6172  0.3987  0.2501
 1852SOL    HW1 5807   4.143   5.277   0.983  1.8334  0.7345  0.2912
 1852SOL    HW2 5808   4.171   5.176   1.092 -0.1261  0.1552  0.2977
 1853SOL     OW 5809   4.841   5.614   5.813 -0.2246 -0.1487 -0.4066
 1853SOL    HW1 5810   4.852   5.640   5.904  0.2027  0.6716 -0.6875
 1853SOL    HW2 5811   4.749   5.586   5.807 -0.4755  0.5488  0.0892
 1854SOL     OW 5812   6.215   2.728   5.215 -0.1369 -0.0564 -0.0625
 1854SOL    HW1 5813   6.161   2.677   5.276 -2.3218 -0.6622 -2.3189
 1854SOL    HW2 5814   6.188   2.818   5.228  1.5477  0.2303  1.8316
 1855SOL     OW 5815   5.081   5.707   2.720 -0.0485 -0.0219 -0.1495
 1855SOL    HW1 5816   5.037   5.628   2.752  2.1010 -0.1076  2.9602
 1855SOL    HW2 5817   5.153   5.674   2.667 -1.5186  0.0699 -2.3706
 1856SOL     OW 5818   1.558   4.925   2.224 -0.2855 -0.4559 -0.3938
 1856SOL    HW1 5819   1.503   4.888   2.292  0.1433  1.3097  0.9810
 1856SOL    HW2 5820   1.633   4.866   2.219 -0.0951 -0.3666  1.0296
 1857SOL     OW 5821   1.863   5.931   1.412  0.1970  0.2127 -0.0294
 1857SOL    HW1 5822   1.878   6.024   1.425 -0.9867  0.4830 -0.5489
 1857SOL    HW2 5823   1.896   5.913   1.323 -3.0269  0.9803 -1.5144
 1858SOL     OW 5824   6.221   0.497   0.859 -0.0385  0.0672  0.0664
 1858SOL    HW1 5825   6.244   0.468   0.947  1.3628  1.8258  0.3408
 1858SOL    HW2 5826   6.304   0.499   0.811 -0.6697 -0.1478 -1.0698
 1859SOL     OW 5827   1.606   3.815   4.696 -0.2541  0.1170  0.4898
 1859SOL    HW1 5828   1.529   3.793   4.749 -0.0646  1.6190  1.4156
 1859SOL    HW2 5829   1.591   3.905   4.668  1.1431  0.4214  0.6546
 1860SOL     OW 5830   5.920   5.044   3.358  0.7045 -0.2651  0.2765
 1860SOL    HW1 5831   5.938   5.137   3.370  0.5588 -0.2325  0.2362
 1860SOL    HW2 5832   5.994   5.012   3.307  0.6208 -0.1166  0.0617
 1861SOL     OW 5833   2.684   0.188   6.340 -0.1169 -0.1662  0.4506
 1861SOL    HW1 5834   2.763   0.158   6.294 -0.6778 -0.8817 -0.0734
 1861SOL    HW2 5835   2.704   0.277   6.367  0.7954 -0.2675  0.1408
 1862SOL     OW 5836   5.017   2.362   1.549  0.3868 -0.0602  0.3075
 1862SOL    HW1 5837   4.927   2.361   1.583  0.0520 -0.5994 -0.5551
 1862SOL    HW2 5838   5.053   2.445   1.580 -0.9679  0.9645 -0.6980
 1863SOL     OW 5839   3.073   4.052   4.579 -0.2218 -0.1163  0.4004
 1863SOL    HW1 5840   3.147   3.996   4.557 -0.5416 -0.8095  1.0605
 1863SOL    HW2 5841   3.041   4.019   4.663 -0.8172  0.6473  0.4901
 1864SOL     OW 5842   1.926   3.198   0.192 -0.1257 -0.2133 -0.0874
 1864SOL    HW1 5843   1.983   3.163   0.124 -1.3807 -0.9936 -0.7798
 1864SOL    HW2 5844   1.986   3.232   0.258  1.2548  3.0877 -2.7307
 1865SOL     OW 5845   4.692   2.436   3.916 -0.1298 -0.1597 -0.0857
 1865SOL    HW1 5846   4.603   2.445   3.950 -0.2677 -1.1067 -0.1640
 1865SOL    HW2 5847   4.722   2.351   3.949  0.1008 -0.6405 -1.4623
 1866SOL     OW 5848   0.096   4.096   4.457  0.0276  0.0340 -0.0709
 1866SOL    HW1 5849   0.165   4.134   4.402  0.5639  1.3292  1.4319
 1866SOL    HW2 5850   0.133   4.097   4.546 -0.1068 -3.5956  0.1854
 1867SOL     OW 5851   1.243   0.387   2.102 -0.6816 -0.0593 -0.7181
 1867SOL    HW1 5852   1.279   0.372   2.190 -0.9882  0.1044 -0.5628
 1867SOL    HW2 5853   1.150   0.407   2.118 -0.6939  0.1548 -1.0677
 1868SOL     OW 5854   0.391   0.099   5.907 -0.4476 -0.7715  0.0805
 1868SOL    HW1 5855   0.439   0.108   5.824  0.7150  0.3848  0.8398
 1868SOL    HW2 5856   0.366   0.188   5.929  0.7455 -0.8111  1.8072
 1869SOL     OW 5857   0.893   1.904   0.032  0.0072  0.2110 -0.5640
 1869SOL    HW1 5858   0.932   1.819   0.012 -0.6797  0.1791 -1.9020
 1869SOL    HW2 5859   0.859   1.896   0.121  1.6940 -0.2477  0.0716
 1870SOL     OW 5860   6.192   2.922   0.157  0.3043 -0.2123  0.1679
 1870SOL    HW1 5861   6.147   2.912   0.241 -0.6114 -0.2422 -0.3205
 1870SOL    HW2 5862   6.234   2.837   0.143  1.3374  0.1186  1.0760
 1871SOL     OW 5863   6.234   4.973   5.198  0.0142 -0.2967 -0.4477
 1871SOL    HW1 5864   6.305   5.035   5.214 -0.2516 -0.1028 -0.0198
 1871SOL    HW2 5865   6.172   5.021   5.143  0.6145 -0.7494 -1.5659
 1872SOL     OW 5866   0.702   3.958   5.983 -0.1681  0.1836  0.2087
 1872SOL    HW1 5867   0.647   3.898   5.933 -0.9994  1.3461 -0.3173
 1872SOL    HW2 5868   0.654   4.042   5.981  0.7336  0.7523  1.2955
 1873SOL     OW 5869   3.374   3.393   2.902  0.7150 -0.1131 -0.0680
 1873SOL    HW1 5870   3.339   3.465   2.954  1.2659  1.1867 -1.4127
 1873SOL    HW2 5871   3.456   3.368   2.946  0.5556  0.1171  0.3606
 1874SOL     OW 5872   2.225   2.290   4.869  0.2649 -0.0034  0.1992
 1874SOL    HW1 5873   2.139   2.249   4.867 -0.1527  0.8795 -1.6750
 1874SOL    HW2 5874   2.262   2.262   4.953 -2.4997  0.9297  1.8896
 1875SOL     OW 5875   4.195   5.440   3.616  0.4642  0.0026  0.6761
 1875SOL    HW1 5876   4.195   5.499   3.540 -0.5583 -1.4214 -0.4986
 1875SOL    HW2 5877   4.285   5.442   3.648  0.8086  0.9924 -0.2868
 1876SOL     OW 5878   2.640   4.685   5.490 -0.0377  0.1678  0.0491
 1876SOL    HW1 5879   2.684   4.677   5.575  1.1353  1.2395 -0.4233
 1876SOL    HW2 5880   2.709   4.670   5.426 -0.9768 -0.9471 -0.7417
 1877SOL     OW 5881   0.924   0.330   1.210  0.0339 -0.4218  0.1957
 1877SOL    HW1 5882   0.932   0.410   1.157  2.2098  0.8219  2.1608
 1877SOL    HW2 5883   0.935   0.361   1.300 -0.8629 -2.7551  1.1709
 1878SOL     OW 5884   1.759   4.268   3.042  0.1579  0.0448 -0.5707
 1878SOL    HW1 5885   1.806   4.186   3.026  0.4649  0.5030 -2.1135
 1878SOL    HW2 5886   1.733   4.263   3.134 -0.1990 -1.9751 -0.7414
 1879SOL     OW 5887   2.966   4.041   0.163 -0.5901  0.4063 -0.3759
 1879SOL    HW1 5888   2.949   3.949   0.180 -0.1508  0.1046 -1.5030
 1879SOL    HW2 5889   2.879   4.080   0.152 -0.7670  0.0861 -0.1053
 1880SOL     OW 5890   4.267   1.265   1.895  0.1298 -0.2248 -0.0381
 1880SOL    HW1 5891   4.331   1.208   1.939  0.9456  0.6649 -0.0310
 1880SOL    HW2 5892   4.288   1.258   1.802  0.3092  0.1253 -0.0298
 1881SOL     OW 5893   0.086   4.824   3.967 -0.3828 -0.2062  0.2773
 1881SOL    HW1 5894   0.140   4.800   4.043  2.1164  0.1440 -1.2661
 1881SOL    HW2 5895   0.104   4.756   3.902 -1.3191  0.2993 -0.5380
 1882SOL     OW 5896   4.061   0.047   0.614  0.5267 -0.0182 -0.5785
 1882SOL    HW1 5897   4.138  -0.009   0.607  1.4606  1.1404  0.2172
 1882SOL    HW2 5898   4.081   0.122   0.558  0.4026  0.7548  0.4008
 1883SOL     OW 5899   0.854   4.753   3.910 -0.1729 -0.3174  0.1421
 1883SOL    HW1 5900   0.820   4.744   3.820 -0.6690  1.0750  0.1589
 1883SOL    HW2 5901   0.904   4.673   3.925 -0.1881 -0.6380 -1.3373
 1884SOL     OW 5902   1.876   5.275   3.533 -0.7821 -0.3789  0.1523
 1884SOL    HW1 5903   1.837   5.210   3.591 -0.5250 -1.4413 -0.8473
 1884SOL    HW2 5904   1.854   5.246   3.445 -0.1870  0.5828 -0.3359
 1885SOL     OW 5905   6.138   5.679   4.147  0.5313 -0.2963 -0.1964
 1885SOL    HW1 5906   6.135   5.747   4.079 -0.5619 -1.0057 -0.8854
 1885SOL    HW2 5907   6.053   5.684   4.190  1.4133  0.5259  1.5468
 1886SOL     OW 5908   2.282   3.035   3.164  0.6474  0.2225  0.3709
 1886SOL    HW1 5909   2.231   3.112   3.188  1.4964  1.4985 -1.6552
 1886SOL    HW2 5910   2.311   3.052   3.074  3.8042 -0.8534  1.0539
 1887SOL     OW 5911   6.108   4.985   2.095  0.6905  0.0466  0.2650
 1887SOL    HW1 5912   6.147   5.072   2.102  0.2253  0.3113 -0.3812
 1887SOL    HW2 5913   6.047   4.991   2.022 -0.0707 -0.5515  0.8308
 1888SOL     OW 5914   5.825   3.725   4.696 -0.2925 -0.2368 -0.8597
 1888SOL    HW1 5915   5.732   3.713   4.681 -0.1565 -2.5574 -0.1995
 1888SOL    HW2 5916   5.864   3.719   4.609 -0.7611  1.2277 -1.1989
 1889SOL     OW 5917   3.214   3.680   5.786 -0.4777  0.3164  0.6859
 1889SOL    HW1 5918   3.185   3.629   5.862 -2.5830  0.3346 -0.0575
 1889SOL    HW2 5919   3.233   3.767   5.821  1.3410 -0.4133  1.6439
 1890SOL     OW 5920   5.489   2.793   0.042  0.1356  0.1891  0.4392
 1890SOL    HW1 5921   5.532   2.870   0.004 -0.0862 -0.6230 -1.6026
 1890SOL    HW2 5922   5.401   2.825   0.065 -0.1381  0.4577 -0.8848
 1891SOL     OW 5923   3.134   5.157   0.713  0.1226  0.0481 -0.0884
 1891SOL    HW1 5924   3.100   5.210   0.786 -2.4814 -0.8709 -0.5586
 1891SOL    HW2 5925   3.206   5.210   0.678 -0.1350  1.6458  1.6062
 1892SOL     OW 5926   2.029   2.699   4.058  0.0417  0.3977 -0.6470
 1892SOL    HW1 5927   1.954   2.744   4.098 -0.6858 -0.4538 -1.0358
 1892SOL    HW2 5928   2.105   2.742   4.097 -0.6435  0.6063  0.5076
 1893SOL     OW 5929   0.063   3.667   0.265  0.3879 -0.0917  0.0991
 1893SOL    HW1 5930   0.131   3.604   0.240  0.7673  0.9123 -1.5645
 1893SOL    HW2 5931   0.081   3.687   0.357  1.9069 -0.3839 -0.1043
 1894SOL     OW 5932   3.130   4.507   2.004 -0.3250  0.1445 -0.0412
 1894SOL    HW1 5933   3.064   4.452   1.963  0.8981  0.0099 -1.9649
 1894SOL    HW2 5934   3.141   4.581   1.944  1.4613  0.0196  0.0689
 1895SOL     OW 5935   2.227   2.406   2.507 -0.0989 -0.5902 -0.4777
 1895SOL    HW1 5936   2.138   2.436   2.521 -0.2022 -0.6547 -0.9806
 1895SOL    HW2 5937   2.219   2.312   2.495 -0.0386 -0.5200 -1.1145
 1896SOL     OW 5938   1.402   2.599   2.771  0.4087  0.3716  0.0374
 1896SOL    HW1 5939   1.418   2.684   2.812 -1.0165  0.7951 -0.2310
 1896SOL    HW2 5940   1.339   2.556   2.829 -0.3584  0.3005 -0.8278
 1897SOL     OW 5941   4.541   1.262   4.950  0.7556 -0.6059 -0.3543
 1897SOL    HW1 5942   4.488   1.217   5.015  1.3100 -0.5906  0.1256
 1897SOL    HW2 5943   4.481   1.322   4.906  0.3111 -0.8305 -0.0574
 1898SOL     OW 5944   5.318   2.489   5.557  0.5810 -0.3919 -0.2119
 1898SOL    HW1 5945   5.241   2.527   5.600  1.0708 -1.2629  1.5624
 1898SOL    HW2 5946   5.389   2.502   5.620  1.8252  0.0828 -1.6660
 1899SOL     OW 5947   5.088   2.205   5.402  0.3301  0.0663 -0.4165
 1899SOL    HW1 5948   5.175   2.192   5.441 -0.0874  3.1468  1.9001
 1899SOL    HW2 5949   5.103   2.266   5.330  0.0860  1.0616  0.3486
 1900SOL     OW 5950   1.052   2.189   5.009 -0.0348  0.4200 -0.5665
 1900SOL    HW1 5951   1.089   2.182   5.097 -0.3886 -2.8882 -0.5461
 1900SOL    HW2 5952   0.975   2.245   5.019  0.6849  1.1989  0.9168
 1901SOL     OW 5953   3.999   1.895   6.151  0.0042  0.1837  0.0680
 1901SOL    HW1 5954   3.952   1.836   6.209 -0.9110  0.4596 -0.3654
 1901SOL    HW2 5955   4.053   1.948   6.209  1.5892 -1.6867  0.3909
 1902SOL     OW 5956   5.376   2.120   4.236 -0.2879  0.6664  0.6897
 1902SOL    HW1 5957   5.384   2.209   4.270 -3.1180  1.1250  0.3691
 1902SOL    HW2 5958   5.372   2.130   4.141  1.9869 -0.1126  0.4514
 1903SOL     OW 5959   3.052   0.827   3.173 -0.2475 -0.0525 -0.6089
 1903SOL    HW1 5960   3.046   0.802   3.081  0.3371  0.7899 -0.8936
 1903SOL    HW2 5961   3.082   0.918   3.171  1.8309 -0.6557  0.4419
 1904SOL     OW 5962   4.909   1.765   4.474 -0.7956 -0.1945  0.1627
 1904SOL    HW1 5963   4.877   1.790   4.561  0.5437  1.2088  0.2964
 1904SOL    HW2 5964   4.901   1.846   4.422  0.6606 -0.3503 -0.3289
 1905SOL     OW 5965   3.572   3.055   5.457 -0.1918 -0.3362  0.0717
 1905SOL    HW1 5966   3.647   3.013   5.416  1.4289  0.6093  1.9142
 1905SOL    HW2 5967   3.560   3.136   5.407 -0.5052 -0.8534 -0.7072
 1906SOL     OW 5968   5.861   1.136   0.755  0.1934  0.7868 -0.6028
 1906SOL    HW1 5969   5.937   1.130   0.813 -1.3991  0.3765  1.5620
 1906SOL    HW2 5970   5.878   1.070   0.687  2.1038  1.2562 -0.6602
 1907SOL     OW 5971   3.744   3.532   0.250  0.3816  0.1006 -0.5986
 1907SOL    HW1 5972   3.797   3.455   0.230 -0.2066 -0.1550 -1.2086
 1907SOL    HW2 5973   3.657   3.511   0.215  0.3422  1.2485 -1.2191
 1908SOL     OW 5974   1.367   3.414   2.745  0.0547 -0.1217 -0.5088
 1908SOL    HW1 5975   1.355   3.487   2.806 -0.0957  1.0784 -1.9108
 1908SOL    HW2 5976   1.363   3.336   2.800 -2.4784  0.7631  0.7375
 1909SOL     OW 5977   3.181   6.024   5.850  0.0696 -0.6306 -0.0594
 1909SOL    HW1 5978   3.222   5.943   5.880  1.5152 -0.8503 -2.3675
 1909SOL    HW2 5979   3.090   6.001   5.834  0.6983 -2.1695 -1.7179
 1910SOL     OW 5980   0.932   1.105   2.977  0.1335 -0.0861  0.3071
 1910SOL    HW1 5981   0.888   1.104   2.892 -0.6788 -0.9817  0.7105
 1910SOL    HW2 5982   0.922   1.016   3.010  1.2152  0.0159  0.9593
 1911SOL     OW 5983   2.074   3.636   0.682 -0.3592 -0.1895 -0.7837
 1911SOL    HW1 5984   2.051   3.728   0.693 -2.1874 -0.8060  1.4447
 1911SOL    HW2 5985   2.060   3.619   0.589 -0.4489  1.6502 -1.1405
 1912SOL     OW 5986   5.558   3.310   1.864  0.2427  0.6970 -0.8763
 1912SOL    HW1 5987   5.573   3.262   1.946  0.5002  1.3887 -0.5100
 1912SOL    HW2 5988   5.621   3.382   1.867 -0.2314  1.1353 -1.3549
 1913SOL     OW 5989   5.558   0.776   5.920  0.1010  0.1548 -0.2287
 1913SOL    HW1 5990   5.497   0.850   5.927  1.1965  1.3400 -2.3590
 1913SOL    HW2 5991   5.602   0.789   5.836  0.4951 -2.8432 -0.5726
 1914SOL     OW 5992   4.223   3.585   3.377  0.2967  0.2433  0.0929
 1914SOL    HW1 5993   4.226   3.508   3.433 -1.2943  0.4210  0.4747
 1914SOL    HW2 5994   4.130   3.596   3.356  0.6475  1.2648 -1.0683
 1915SOL     OW 5995   1.966   1.424   4.359 -0.2365  0.4572 -0.2680
 1915SOL    HW1 5996   2.002   1.485   4.423  0.3618  2.0546 -2.0056
 1915SOL    HW2 5997   2.038   1.411   4.296 -0.8258 -0.9651 -0.6848
 1916SOL     OW 5998   4.633   5.977   0.920  0.0828  0.5532 -0.6021
 1916SOL    HW1 5999   4.705   5.973   0.983  0.0029  0.8403 -0.4912
 1916SOL    HW2 6000   4.572   5.909   0.949  0.4118  0.1522 -0.8306
 1917SOL     OW 6001   5.032   2.563   4.050 -0.5601 -0.3834  0.3164
 1917SOL    HW1 6002   4.955   2.508   4.044 -1.4253  0.8659 -0.5431
 1917SOL    HW2 6003   5.105   2.502   4.063 -1.1196 -1.9954 -3.0109
 1918SOL     OW 6004   0.476   3.163   1.505  0.4149  0.2628 -0.1274
 1918SOL    HW1 6005   0.432   3.110   1.572 -0.6520  0.9563 -0.2421
 1918SOL    HW2 6006   0.451   3.253   1.527  0.7881  0.5678 -0.9389
 1919SOL     OW 6007   5.667   5.345   5.757 -0.3917 -0.2476 -0.2492
 1919SOL    HW1 6008   5.748   5.372   5.714  0.8071  0.0380  2.0312
 1919SOL    HW2 6009   5.645   5.261   5.718  0.2929  0.2626 -1.7886
 1920SOL     OW 6010   5.450   5.374   4.506  0.3829 -0.0360 -0.1163
 1920SOL    HW1 6011   5.545   5.386   4.506  0.5798 -1.4661  0.0707
 1920SOL    HW2 6012   5.416   5.454   4.547  1.5447  0.1848  0.4563
 1921SOL     OW 6013   0.129   4.676   5.393 -1.1675 -0.6024 -0.4755
 1921SOL    HW1 6014   0.104   4.583   5.395 -2.7313 -0.2168  0.5547
 1921SOL    HW2 6015   0.188   4.684   5.319 -0.5094 -2.5395 -0.2100
 1922SOL     OW 6016   2.069   5.597   4.710  0.6783  0.5660 -0.7008
 1922SOL    HW1 6017   2.014   5.569   4.637  0.0225 -0.4338  0.1522
 1922SOL    HW2 6018   2.018   5.663   4.756  1.6330  2.1995 -1.8667
 1923SOL     OW 6019   5.902   3.986   2.085  0.5410 -0.1133 -0.3167
 1923SOL    HW1 6020   5.833   4.001   2.020 -0.1995  0.2303  0.5370
 1923SOL    HW2 6021   5.983   3.983   2.033  0.1335  1.5983 -1.1242
 1924SOL     OW 6022   0.405   5.422   3.659 -0.1678 -0.1753  0.0137
 1924SOL    HW1 6023   0.452   5.418   3.743  1.9186  0.7438 -1.0243
 1924SOL    HW2 6024   0.323   5.375   3.675  0.7862 -1.2660  2.1538
 1925SOL     OW 6025   5.372   4.016   1.728  0.3249 -0.2723 -0.7521
 1925SOL    HW1 6026   5.365   3.923   1.749 -0.5577  0.1375  0.9725
 1925SOL    HW2 6027   5.353   4.021   1.634 -1.7412 -1.6323 -0.4670
 1926SOL     OW 6028   2.762   6.203   4.987  0.5577 -0.5221  0.2626
 1926SOL    HW1 6029   2.753   6.177   4.895  0.9635  1.1095 -0.2655
 1926SOL    HW2 6030   2.672   6.211   5.019  0.3519  0.9375 -0.6152
 1927SOL     OW 6031   4.185   3.883   3.324  0.1485 -0.4467  0.5075
 1927SOL    HW1 6032   4.268   3.836   3.334 -0.3024 -1.5034 -0.5171
 1927SOL    HW2 6033   4.150   3.888   3.413  0.8835 -0.7952  0.8242
 1928SOL     OW 6034   5.828   4.844   5.539 -0.2020  0.6679  0.2916
 1928SOL    HW1 6035   5.839   4.938   5.529 -0.4365  0.4952 -2.5736
 1928SOL    HW2 6036   5.916   4.807   5.527 -0.1351  0.5075  1.2409
 1929SOL     OW 6037   3.085   4.376   3.279 -0.3839 -0.2756  0.2632
 1929SOL    HW1 6038   3.019   4.309   3.262  0.1953 -1.2590  1.6256
 1929SOL    HW2 6039   3.051   4.424   3.354 -0.1083 -0.0101  0.2185
 1930SOL     OW 6040   4.621   6.175   2.913  0.0974  0.1811  0.1466
 1930SOL    HW1 6041   4.614   6.122   2.993 -2.0090  1.6643  1.0385
 1930SOL    HW2 6042   4.698   6.230   2.928 -0.3358  0.5196  1.2544
 1931SOL     OW 6043   4.159   2.417   5.484 -0.1456 -0.3067 -0.4520
 1931SOL    HW1 6044   4.179   2.511   5.492 -1.5429 -0.0830  0.8071
 1931SOL    HW2 6045   4.187   2.380   5.568 -2.2406 -0.4770  0.2199
 1932SOL     OW 6046   0.932   4.029   0.769  0.1090 -0.1397  0.5243
 1932SOL    HW1 6047   1.015   4.061   0.804  0.0778  0.4573  0.0696
 1932SOL    HW2 6048   0.954   3.995   0.683  0.0077 -0.6515  0.7009
 1933SOL     OW 6049   6.013   4.189   2.665  0.3081  0.1595 -0.0270
 1933SOL    HW1 6050   6.095   4.167   2.621  1.4986  0.3454  1.9915
 1933SOL    HW2 6051   5.955   4.114   2.647  1.0795 -0.1999 -1.0590
 1934SOL     OW 6052   2.850   3.479   5.427  0.3522  0.2974  0.2652
 1934SOL    HW1 6053   2.908   3.493   5.501  0.7526  0.7620 -0.1269
 1934SOL    HW2 6054   2.790   3.554   5.428 -0.3617 -0.2779  0.7786
 1935SOL     OW 6055   1.501   4.993   3.367 -0.0172 -0.0418 -0.2603
 1935SOL    HW1 6056   1.484   4.900   3.383 -0.2429 -0.4968 -2.7870
 1935SOL    HW2 6057   1.424   5.038   3.402 -0.3295 -0.8702  0.1469
 1936SOL     OW 6058   3.468   5.149   2.454  0.4370  0.3886  0.6410
 1936SOL    HW1 6059   3.541   5.154   2.393  0.1067  0.5941  0.2633
 1936SOL    HW2 6060   3.392   5.127   2.400 -0.1563  2.0796  0.7301
 1937SOL     OW 6061   1.696   4.231   3.301 -0.4773  0.3815  0.0406
 1937SOL    HW1 6062   1.600   4.225   3.296 -0.6699  2.9251 -2.3010
 1937SOL    HW2 6063   1.718   4.194   3.386 -3.4309 -1.1166  0.3127
 1938SOL     OW 6064   2.005   4.632   4.456 -0.0652 -0.4594 -0.8441
 1938SOL    HW1 6065   2.028   4.543   4.431  0.3193 -0.7424  0.4839
 1938SOL    HW2 6066   1.920   4.624   4.500  0.9305 -0.4796  1.1483
 1939SOL     OW 6067   2.784   1.753   5.115 -0.0702  0.9112 -0.1071
 1939SOL    HW1 6068   2.861   1.697   5.125  0.9253  2.2963  0.2873
 1939SOL    HW2 6069   2.820   1.839   5.094 -1.6098  1.0807 -2.4554
 1940SOL     OW 6070   1.905   3.527   2.412 -0.5553 -0.3100  0.7931
 1940SOL    HW1 6071   1.838   3.463   2.388  0.6449 -0.9122 -1.2299
 1940SOL    HW2 6072   1.873   3.610   2.377  0.1709 -0.7962 -1.2124
 1941SOL     OW 6073   2.652   0.510   2.314  0.0048  0.0442  0.3884
 1941SOL    HW1 6074   2.666   0.419   2.339 -0.7116 -0.3395 -0.5454
 1941SOL    HW2 6075   2.557   0.522   2.317  0.1653  1.3404  2.4008
 1942SOL     OW 6076   0.949   3.204   5.713 -0.3456  0.7237 -0.6923
 1942SOL    HW1 6077   0.892   3.256   5.657  0.0011  2.1433  0.1974
 1942SOL    HW2 6078   0.914   3.217   5.801  1.8317  2.4448  0.0223
 1943SOL     OW 6079   4.244   4.945   4.981 -0.2478  0.6688 -0.3337
 1943SOL    HW1 6080   4.299   4.871   4.956  0.2272  1.2962 -1.1882
 1943SOL    HW2 6081   4.235   4.996   4.901 -1.1648  1.1595  0.0749
 1944SOL     OW 6082   1.921   5.454   6.335 -0.3354 -0.0225  0.4143
 1944SOL    HW1 6083   1.860   5.474   6.264 -1.5141  0.2023  1.4523
 1944SOL    HW2 6084   1.926   5.359   6.336 -0.8717 -0.0568  0.4650
 1945SOL     OW 6085   5.831   3.961   4.346  0.2491 -0.2434  0.1037
 1945SOL    HW1 6086   5.908   4.003   4.385 -0.0562 -0.9146  1.4860
 1945SOL    HW2 6087   5.832   3.990   4.255  1.0386  1.3196  0.5763
 1946SOL     OW 6088   4.069   2.944   1.284  0.1209 -0.7542  0.2350
 1946SOL    HW1 6089   4.063   2.871   1.223 -1.7590 -0.4625  0.0064
 1946SOL    HW2 6090   4.050   2.906   1.370 -1.1892 -0.5042  0.0709
 1947SOL     OW 6091   3.397   6.250   4.609 -0.5163  0.1930 -0.4128
 1947SOL    HW1 6092   3.331   6.188   4.577  0.1043 -0.9726  0.4702
 1947SOL    HW2 6093   3.351   6.299   4.677 -0.5149 -0.5539  0.1390
 1948SOL     OW 6094   2.678   1.914   2.855  0.0995  0.2601  0.6007
 1948SOL    HW1 6095   2.722   1.970   2.918  0.8640  2.5480 -1.7858
 1948SOL    HW2 6096   2.737   1.839   2.845  1.2027  1.0570  0.8476
 1949SOL     OW 6097   2.407   5.551   4.801  0.0712 -0.2927 -0.2689
 1949SOL    HW1 6098   2.380   5.633   4.759  1.3132  1.0727  1.4488
 1949SOL    HW2 6099   2.474   5.515   4.743  1.2764  1.2037  0.1297
 1950SOL     OW 6100   6.139   5.162   4.273  0.8882 -0.2993  0.2408
 1950SOL    HW1 6101   6.047   5.148   4.253  0.3593  2.0532  0.7247
 1950SOL    HW2 6102   6.163   5.241   4.223  2.6188 -0.8032  0.1958
 1951SOL     OW 6103   0.756   4.451   5.294 -0.3484  0.3548 -0.3912
 1951SOL    HW1 6104   0.795   4.374   5.335 -2.0511 -0.3156  0.0481
 1951SOL    HW2 6105   0.742   4.513   5.365 -3.6340 -0.9467  0.2558
 1952SOL     OW 6106   0.484   3.691   1.332  0.0260 -0.0043 -0.0373
 1952SOL    HW1 6107   0.572   3.727   1.348  0.1053 -0.2922  0.1874
 1952SOL    HW2 6108   0.426   3.748   1.383  0.2793 -0.9315  1.3427
 1953SOL     OW 6109   1.547   1.199   3.801 -0.5434  0.0727 -0.1805
 1953SOL    HW1 6110   1.598   1.118   3.807 -0.8135 -0.0837 -0.0017
 1953SOL    HW2 6111   1.458   1.174   3.825 -0.6643  0.3898 -0.2856
 1954SOL     OW 6112   1.651   5.152   4.529 -0.1459 -0.6307 -0.0292
 1954SOL    HW1 6113   1.569   5.103   4.529 -0.4017 -0.2153 -0.5687
 1954SOL    HW2 6114   1.715   5.092   4.492 -0.3110 -0.7918 -0.0553
 1955SOL     OW 6115   1.307   4.558   1.275 -0.2571 -0.4602  0.4515
 1955SOL    HW1 6116   1.286   4.614   1.350  1.3813 -0.7717  1.1832
 1955SOL    HW2 6117   1.310   4.619   1.201 -1.8256 -0.1396  0.6153
 1956SOL     OW 6118   6.254   4.611   2.762 -0.4733 -0.5891 -0.3553
 1956SOL    HW1 6119   6.163   4.589   2.747 -0.2941 -0.0927 -2.5265
 1956SOL    HW2 6120   6.300   4.527   2.765 -0.7371 -0.7650 -1.2452
 1957SOL     OW 6121   2.666   0.471   1.233  0.0593  0.0843 -0.0664
 1957SOL    HW1 6122   2.641   0.534   1.301 -0.8498 -0.3531  0.0327
 1957SOL    HW2 6123   2.635   0.387   1.267  0.3122 -0.2567 -0.6691
 1958SOL     OW 6124   3.752   3.184   0.049  0.0395 -0.5301 -0.2680
 1958SOL    HW1 6125   3.657   3.170   0.053  0.0803 -0.8547 -0.4019
 1958SOL    HW2 6126   3.778   3.153  -0.037 -0.1191  2.0336 -1.3307
 1959SOL     OW 6127   0.092   5.049   3.808  0.1304 -0.2322 -0.4290
 1959SOL    HW1 6128   0.009   5.086   3.838  0.2663 -0.5231  0.3057
 1959SOL    HW2 6129   0.118   4.988   3.876  1.5532  0.7431 -0.0604
 1960SOL     OW 6130   5.394   5.873   0.263  0.5007  0.6488 -0.0277
 1960SOL    HW1 6131   5.320   5.813   0.250  1.6006 -0.7790  0.0775
 1960SOL    HW2 6132   5.426   5.853   0.351  0.3657  2.0241  0.3552
 1961SOL     OW 6133   2.221   5.861   1.905 -0.5157  0.5585  0.7077
 1961SOL    HW1 6134   2.276   5.929   1.867 -1.5295  1.9377  1.6156
 1961SOL    HW2 6135   2.283   5.794   1.934  0.3920  0.1392 -1.9045
 1962SOL     OW 6136   1.217   6.178   5.245  0.2349 -0.0175  0.3992
 1962SOL    HW1 6137   1.270   6.099   5.252 -1.9491 -1.6098  0.2392
 1962SOL    HW2 6138   1.278   6.250   5.259  2.5769 -1.6513 -0.8065
 1963SOL     OW 6139   4.343   0.746   0.208  0.5811  0.2922  0.0999
 1963SOL    HW1 6140   4.340   0.722   0.301 -1.1327  1.1672  0.3058
 1963SOL    HW2 6141   4.305   0.834   0.205 -0.9092 -0.3592 -1.6050
 1964SOL     OW 6142   0.653   2.923   3.021 -0.5846 -0.1506 -0.0156
 1964SOL    HW1 6143   0.701   2.949   3.100 -1.1137 -2.2173  1.0714
 1964SOL    HW2 6144   0.719   2.885   2.964 -0.5617 -0.9202  0.5106
 1965SOL     OW 6145   3.335   4.923   5.917  0.1747 -0.3782 -0.2145
 1965SOL    HW1 6146   3.268   4.976   5.873 -0.5752 -2.0465 -1.1961
 1965SOL    HW2 6147   3.396   4.900   5.847  2.1339  1.4989  0.7447
 1966SOL     OW 6148   5.893   3.748   5.576  0.1871 -0.1444  0.1764
 1966SOL    HW1 6149   5.857   3.664   5.549  0.6934 -0.0766 -0.7508
 1966SOL    HW2 6150   5.837   3.813   5.532  1.1763 -0.0357 -0.9733
 1967SOL     OW 6151   0.530   5.089   4.453  0.2601  0.1894 -0.0313
 1967SOL    HW1 6152   0.507   5.116   4.542  0.6018 -0.4936  0.2691
 1967SOL    HW2 6153   0.611   5.137   4.435  1.2961 -1.1828  0.7998
 1968SOL     OW 6154   5.951   1.731   2.371 -0.0292 -0.4751  0.1310
 1968SOL    HW1 6155   5.918   1.657   2.319 -0.0590 -1.2853  1.2610
 1968SOL    HW2 6156   5.954   1.804   2.309  0.8866 -1.6317 -1.2700
 1969SOL     OW 6157   5.058   1.126   2.598  0.4250  0.2845 -0.4869
 1969SOL    HW1 6158   5.027   1.099   2.511 -3.4593 -1.7638  1.2442
 1969SOL    HW2 6159   5.036   1.219   2.603 -2.2528 -0.2496 -0.7532
 1970SOL     OW 6160   2.530   2.749   1.693 -0.4401  0.0712  0.1452
 1970SOL    HW1 6161   2.544   2.655   1.696  0.2576  0.1379 -0.7425
 1970SOL    HW2 6162   2.597   2.785   1.751  1.0154  0.1658 -1.5060
 1971SOL     OW 6163   5.578   2.381   2.821  0.2831 -0.5772 -0.0204
 1971SOL    HW1 6164   5.487   2.354   2.830  0.2358 -1.0332 -1.6093
 1971SOL    HW2 6165   5.609   2.337   2.742  1.9737 -0.6587  0.6380
 1972SOL     OW 6166   6.236   4.507   5.745 -0.4383  0.3288 -0.2635
 1972SOL    HW1 6167   6.150   4.499   5.787 -0.5994 -0.1789 -0.6861
 1972SOL    HW2 6168   6.281   4.425   5.768 -0.1118  0.5356 -0.1541
 1973SOL     OW 6169   2.570   4.577   0.129  0.0781  0.2178  0.5343
 1973SOL    HW1 6170   2.589   4.622   0.212  0.2209  1.4549 -0.1416
 1973SOL    HW2 6171   2.647   4.522   0.114  0.3608  0.5079  0.8827
 1974SOL     OW 6172   4.353   4.694   6.314  0.5963  0.0782  0.7420
 1974SOL    HW1 6173   4.390   4.606   6.318  0.7041  0.0764 -0.0880
 1974SOL    HW2 6174   4.265   4.685   6.349 -0.4200 -0.9476 -1.8314
 1975SOL     OW 6175   4.920   0.128   4.172  0.0350 -0.1541 -0.1378
 1975SOL    HW1 6176   4.911   0.050   4.117  0.7794  0.0718 -0.5931
 1975SOL    HW2 6177   4.999   0.111   4.224 -1.3195 -0.9056  1.7787
 1976SOL     OW 6178   2.368   0.362   5.021 -0.4250  0.0098  0.2115
 1976SOL    HW1 6179   2.419   0.310   5.084 -0.0018  0.5565  0.3324
 1976SOL    HW2 6180   2.324   0.297   4.966  1.5393 -0.5251 -0.8255
 1977SOL     OW 6181   5.992   2.264   6.029 -0.5699 -0.5871 -0.1320
 1977SOL    HW1 6182   5.978   2.312   5.948 -0.2089 -1.5816 -0.8005
 1977SOL    HW2 6183   5.932   2.304   6.091 -2.9420 -1.6138 -1.6283
 1978SOL     OW 6184   5.257   2.246   5.083  0.1177 -0.1400 -0.3642
 1978SOL    HW1 6185   5.309   2.312   5.128  1.1215 -0.5944 -0.8321
 1978SOL    HW2 6186   5.166   2.272   5.099  0.4458 -0.1684  1.7023
 1979SOL     OW 6187   6.167   2.454   3.369  0.6540 -0.0934 -0.4433
 1979SOL    HW1 6188   6.210   2.455   3.283  0.4908 -0.2728 -0.5288
 1979SOL    HW2 6189   6.224   2.399   3.423  0.8294  0.1340 -0.3985
 1980SOL     OW 6190   3.607   6.095   4.741 -0.3461  0.0619  0.6023
 1980SOL    HW1 6191   3.564   6.159   4.685 -0.3655 -0.9146 -0.5266
 1980SOL    HW2 6192   3.546   6.081   4.814 -1.2738 -0.1818 -0.2035
 1981SOL     OW 6193   3.207   0.716   5.744 -0.2365  0.2504  0.1182
 1981SOL    HW1 6194   3.207   0.690   5.836 -0.0569 -0.6321 -0.1257
 1981SOL    HW2 6195   3.281   0.669   5.705 -1.4268 -0.8677 -0.8789
 1982SOL     OW 6196   0.298   5.328   4.546 -0.1560 -0.4931  0.2545
 1982SOL    HW1 6197   0.362   5.296   4.609 -0.6789 -1.2686  0.4074
 1982SOL    HW2 6198   0.257   5.403   4.589 -0.1494 -0.7048  0.6303
 1983SOL     OW 6199   3.411   2.780   1.111 -0.5173  0.1560 -0.1103
 1983SOL    HW1 6200   3.341   2.845   1.104 -1.8184 -1.0064  1.3826
 1983SOL    HW2 6201   3.426   2.752   1.021 -3.5622 -1.1298 -0.3485
 1984SOL     OW 6202   3.862   3.603   4.770  0.0271 -0.0649 -0.2128
 1984SOL    HW1 6203   3.853   3.679   4.828 -0.5869 -0.3370  0.0655
 1984SOL    HW2 6204   3.865   3.641   4.682  0.0530  0.3036 -0.0571
 1985SOL     OW 6205   3.448   2.498   4.065 -0.2497  0.1771 -0.0100
 1985SOL    HW1 6206   3.361   2.519   4.030  0.6205  2.8188 -0.8541
 1985SOL    HW2 6207   3.471   2.575   4.117  0.3038 -1.8412  2.9606
 1986SOL     OW 6208   1.427   3.865   1.851 -0.4425 -0.1872  0.3916
 1986SOL    HW1 6209   1.462   3.850   1.763 -0.4677 -1.7279  0.6067
 1986SOL    HW2 6210   1.332   3.867   1.839 -0.4046  1.4802  0.1531
 1987SOL     OW 6211   2.713   4.137   0.154 -0.3945 -0.2184  0.6088
 1987SOL    HW1 6212   2.667   4.124   0.237 -1.5138 -1.6249 -0.1897
 1987SOL    HW2 6213   2.657   4.096   0.089  0.0216  1.6453 -1.0061
 1988SOL     OW 6214   4.320   5.880   0.599 -0.2250 -0.1889  0.0011
 1988SOL    HW1 6215   4.234   5.888   0.557  0.1534  0.0514 -0.7297
 1988SOL    HW2 6216   4.302   5.896   0.692 -1.1665 -1.3318  0.0334
 1989SOL     OW 6217   4.565   4.153   5.229 -0.1235 -0.1840  0.0647
 1989SOL    HW1 6218   4.657   4.127   5.218 -0.6109 -0.9131 -3.7531
 1989SOL    HW2 6219   4.520   4.072   5.252  0.0138 -0.0509  0.8277
 1990SOL     OW 6220   5.431   4.911   5.780  0.0653 -0.1399 -0.3546
 1990SOL    HW1 6221   5.392   4.975   5.839 -0.9796 -1.4205  0.4019
 1990SOL    HW2 6222   5.392   4.827   5.806  1.8605 -1.1970 -0.8890
 1991SOL     OW 6223   6.048   5.039   0.028 -1.0123  0.7900 -0.3012
 1991SOL    HW1 6224   6.005   5.002   0.105 -1.1025 -0.1883 -0.8024
 1991SOL    HW2 6225   6.139   5.049   0.054 -1.3107  1.8501  0.4061
 1992SOL     OW 6226   4.793   3.461   4.105 -0.0155 -0.4122  0.5058
 1992SOL    HW1 6227   4.832   3.526   4.164 -0.2344  0.6767 -0.5039
 1992SOL    HW2 6228   4.828   3.378   4.136 -0.9219 -0.0245  2.8023
 1993SOL     OW 6229   3.106   3.609   4.184 -0.1109  0.1525  0.1965
 1993SOL    HW1 6230   3.101   3.519   4.218  1.2610 -0.7756 -1.8360
 1993SOL    HW2 6231   3.198   3.633   4.194 -0.1136  0.6460 -0.8658
 1994SOL     OW 6232   4.389   2.024   0.807  0.3957 -0.1020  0.2455
 1994SOL    HW1 6233   4.329   2.052   0.737  0.9388 -0.0321 -0.2001
 1994SOL    HW2 6234   4.388   2.097   0.869  0.0941 -0.0599  0.1941
 1995SOL     OW 6235   4.554   1.762   4.691 -0.2871 -0.3121  0.3216
 1995SOL    HW1 6236   4.518   1.794   4.608  1.6739  1.3706  0.0281
 1995SOL    HW2 6237   4.555   1.839   4.748 -0.6506 -1.2028  1.5836
 1996SOL     OW 6238   2.002   2.972   5.957 -0.5886 -0.0832 -0.5187
 1996SOL    HW1 6239   1.954   3.054   5.948 -0.1660  0.1288 -0.8922
 1996SOL    HW2 6240   1.934   2.904   5.955 -0.7896  0.1222 -2.4240
 1997SOL     OW 6241   0.778   0.575   3.933 -0.5893  0.1345 -0.2134
 1997SOL    HW1 6242   0.685   0.554   3.942 -0.7934  0.0335 -2.1682
 1997SOL    HW2 6243   0.784   0.668   3.957 -1.4209  0.4772 -1.2788
 1998SOL     OW 6244   3.739   2.967   2.612 -0.4493 -0.2145  0.0053
 1998SOL    HW1 6245   3.667   3.028   2.628 -1.4113 -0.7364 -1.9717
 1998SOL    HW2 6246   3.731   2.901   2.681 -0.9043  0.5660  0.7196
 1999SOL     OW 6247   1.019   4.864   3.309 -0.1431  0.1211  0.4178
 1999SOL    HW1 6248   1.069   4.946   3.302 -1.7674  1.1215 -0.0277
 1999SOL    HW2 6249   1.022   4.842   3.402  1.1461  0.1260  0.3892
 2000SOL     OW 6250   4.770   0.430   4.360 -0.4597  0.3764  0.4125
 2000SOL    HW1 6251   4.788   0.351   4.411  2.5558  0.0698 -0.8982
 2000SOL    HW2 6252   4.692   0.408   4.310  1.5200 -2.8547 -1.6523
 2001SOL     OW 6253   3.707   5.801   5.976 -0.0534  0.0102  0.3712
 2001SOL    HW1 6254   3.630   5.828   5.925 -0.3954 -0.4097  0.6639
 2001SOL    HW2 6255   3.768   5.875   5.968 -0.3922  0.2472 -0.0520
 2002SOL     OW 6256   0.937   6.121   3.759 -0.0174  0.2401 -0.3042
 2002SOL    HW1 6257   0.873   6.162   3.818 -2.3860  0.6044 -2.9299
 2002SOL    HW2 6258   0.973   6.193   3.708  1.7386 -0.1138  0.3549
 2003SOL     OW 6259   4.236   2.392   1.950 -0.1867  0.4059  0.1494
 2003SOL    HW1 6260   4.297   2.345   1.893  0.2254  0.6848  0.3507
 2003SOL    HW2 6261   4.156   2.340   1.949 -0.9176  1.4537 -2.3047
 2004SOL     OW 6262   0.623   2.040   3.891  0.7587  0.4310  0.2995
 2004SOL    HW1 6263   0.657   1.968   3.944  0.3860  0.0723  0.0586
 2004SOL    HW2 6264   0.698   2.098   3.879  0.5620  1.1860  2.2748
 2005SOL     OW 6265   6.123   2.137   0.338  0.2580 -0.4175  0.7089
 2005SOL    HW1 6266   6.057   2.182   0.391  0.1689  0.6776 -0.2909
 2005SOL    HW2 6267   6.072   2.087   0.274  0.2036  3.4354 -2.6230
 2006SOL     OW 6268   4.150   4.260   5.170  0.0731 -0.2757 -0.2506
 2006SOL    HW1 6269   4.211   4.273   5.242 -0.0398 -0.3629 -0.1394
 2006SOL    HW2 6270   4.155   4.342   5.119 -0.4440  0.1107  0.3038
 2007SOL     OW 6271   3.268   4.969   3.700  0.4906 -0.1789 -0.3167
 2007SOL    HW1 6272   3.183   4.987   3.658 -0.0123 -0.5211  0.5253
 2007SOL    HW2 6273   3.327   5.034   3.663 -0.4648  0.9626  0.0844
 2008SOL     OW 6274   2.681   3.042   4.714  0.3091  0.3545 -0.3152
 2008SOL    HW1 6275   2.612   3.066   4.775 -1.0653 -1.6364 -0.9697
 2008SOL    HW2 6276   2.723   2.966   4.754 -0.3805 -0.7567 -1.5968
 2009SOL     OW 6277   5.635   3.018   6.307  0.3067 -0.2062 -0.1009
 2009SOL    HW1 6278   5.729   2.998   6.314  0.1333 -0.3546  2.9584
 2009SOL    HW2 6279   5.626   3.105   6.346 -0.9344 -0.4953  0.2805
 2010SOL     OW 6280   5.266   0.847   2.892  0.0896 -0.4036  0.0206
 2010SOL    HW1 6281   5.214   0.919   2.928  0.4685 -0.0288 -0.1759
 2010SOL    HW2 6282   5.250   0.851   2.797  0.9738  0.1182 -0.1166
 2011SOL     OW 6283   4.150   1.406   3.142  0.4224 -0.1874  0.2375
 2011SOL    HW1 6284   4.187   1.436   3.225 -0.4255 -1.4425  1.1002
 2011SOL    HW2 6285   4.227   1.387   3.087  0.9912  0.5278  0.7629
 2012SOL     OW 6286   3.010   6.189   0.465 -0.6206 -0.8945  0.1606
 2012SOL    HW1 6287   2.917   6.173   0.483 -0.5222 -3.9886 -1.4009
 2012SOL    HW2 6288   3.038   6.111   0.417  2.6922  0.1749  0.1627
 2013SOL     OW 6289   1.868   2.453   0.941  0.4704  0.5723  0.6384
 2013SOL    HW1 6290   1.892   2.434   1.032  0.0830 -2.5969  0.1804
 2013SOL    HW2 6291   1.772   2.459   0.943  0.4999  1.1373  0.5156
 2014SOL     OW 6292   4.882   2.781   5.749  0.4142 -0.6635  0.7694
 2014SOL    HW1 6293   4.974   2.799   5.769  0.5284 -0.8008  0.3827
 2014SOL    HW2 6294   4.882   2.759   5.656 -0.1210  0.1020  0.5815
 2015SOL     OW 6295   4.062   1.173   5.820 -0.2484 -0.1670 -0.4347
 2015SOL    HW1 6296   4.119   1.220   5.759 -0.1686  1.0987  0.5666
 2015SOL    HW2 6297   3.978   1.168   5.776 -0.1286  0.5194 -0.7611
 2016SOL     OW 6298   5.172   5.437   1.659 -0.4238  0.3530 -0.0107
 2016SOL    HW1 6299   5.238   5.472   1.719 -0.5343 -1.2223  1.0938
 2016SOL    HW2 6300   5.089   5.471   1.693 -0.4711 -0.4121  0.6925
 2017SOL     OW 6301   2.758   1.469   5.578  0.0751  0.2650 -0.3494
 2017SOL    HW1 6302   2.709   1.543   5.613 -0.1287 -0.1007  0.1482
 2017SOL    HW2 6303   2.729   1.462   5.487 -2.7861 -1.5127  0.5681
 2018SOL     OW 6304   1.882   3.546   1.861 -0.2602 -0.1749  0.5503
 2018SOL    HW1 6305   1.912   3.615   1.919  0.2755  0.4798 -0.4660
 2018SOL    HW2 6306   1.830   3.488   1.916  1.5223 -0.4469  2.0199
 2019SOL     OW 6307   3.238   4.121   4.901  0.2380  0.1300 -0.7292
 2019SOL    HW1 6308   3.273   4.133   4.989  1.2878 -3.6747 -0.4599
 2019SOL    HW2 6309   3.315   4.115   4.845 -0.1662 -1.7093 -1.1607
 2020SOL     OW 6310   0.997   6.182   5.912  0.2276 -0.0646  0.2151
 2020SOL    HW1 6311   1.047   6.212   5.988  1.3601 -0.4374 -0.3651
 2020SOL    HW2 6312   1.027   6.092   5.897  0.2721  0.1199 -0.8778
 2021SOL     OW 6313   0.006   2.481   2.237  0.1087 -0.4121 -0.2146
 2021SOL    HW1 6314  -0.017   2.539   2.309  0.8594 -0.9641  0.4817
 2021SOL    HW2 6315  -0.059   2.410   2.241 -0.5679  0.1599 -0.8229
 2022SOL     OW 6316   4.129   0.431   4.471  0.2337  0.4488 -0.4013
 2022SOL    HW1 6317   4.087   0.464   4.550  1.5869 -0.4988  0.7859
 2022SOL    HW2 6318   4.102   0.491   4.402 -2.2805  0.3899  0.4404
 2023SOL     OW 6319   0.349   3.811   2.385  0.5589  0.6898 -0.0843
 2023SOL    HW1 6320   0.406   3.880   2.351 -0.7894  1.9942  0.2012
 2023SOL    HW2 6321   0.297   3.854   2.453 -0.1609 -0.6702  0.2575
 2024SOL     OW 6322   2.838   1.031   1.505  0.0218 -0.2799 -0.0015
 2024SOL    HW1 6323   2.772   0.985   1.557  0.8172 -2.7154 -0.9998
 2024SOL    HW2 6324   2.900   1.064   1.570 -1.7962  1.5349  0.9086
 2025SOL     OW 6325   1.654   1.822   4.756 -0.1022 -0.0974  0.1049
 2025SOL    HW1 6326   1.647   1.766   4.679 -1.9350  0.2559 -0.0430
 2025SOL    HW2 6327   1.572   1.806   4.804 -1.3325  3.2982 -0.5729
 2026SOL     OW 6328   4.946   4.823   2.359 -0.1198  0.0299  0.1612
 2026SOL    HW1 6329   4.903   4.885   2.418 -2.3337 -1.3892  0.1766
 2026SOL    HW2 6330   5.014   4.781   2.412  0.8501  1.8002  0.3790
 2027SOL     OW 6331   0.528   1.374   3.995 -0.1877 -0.0388  0.3233
 2027SOL    HW1 6332   0.478   1.455   3.987 -0.1730 -0.0497  0.1171
 2027SOL    HW2 6333   0.515   1.346   4.086 -1.9567 -0.9530 -0.1732
 2028SOL     OW 6334   3.979   3.298   1.529 -0.0181 -0.1121  0.7534
 2028SOL    HW1 6335   3.927   3.220   1.553  0.9200 -1.0117 -0.0713
 2028SOL    HW2 6336   3.956   3.362   1.596 -1.0409 -0.9924  1.2944
 2029SOL     OW 6337   0.772   3.601   2.222 -0.1436 -0.3145  0.5522
 2029SOL    HW1 6338   0.715   3.536   2.181 -1.3082  1.4437 -0.7428
 2029SOL    HW2 6339   0.714   3.672   2.248  1.3817  1.5370 -0.7732
 2030SOL     OW 6340   6.256   4.952   2.351  0.1003 -0.8331  0.4234
 2030SOL    HW1 6341   6.239   4.948   2.257  0.3375  1.8095  0.1901
 2030SOL    HW2 6342   6.181   4.908   2.391  0.0443 -2.0816 -0.9763
 2031SOL     OW 6343   4.364   1.378   5.799 -0.4296  0.5137  0.0389
 2031SOL    HW1 6344   4.335   1.454   5.749 -0.6727  0.0398 -0.5535
 2031SOL    HW2 6345   4.426   1.414   5.863  0.1929  1.0886 -0.8574
 2032SOL     OW 6346   1.970   1.103   4.244 -0.2824  0.3769  0.2629
 2032SOL    HW1 6347   1.897   1.114   4.305 -0.9700  0.1404 -0.5099
 2032SOL    HW2 6348   1.967   1.011   4.219 -0.3442  0.5938 -0.5491
 2033SOL     OW 6349   5.669   1.335   1.399  0.0287  0.3208 -0.1480
 2033SOL    HW1 6350   5.710   1.269   1.343  0.3169 -0.8078  1.3319
 2033SOL    HW2 6351   5.679   1.417   1.351  3.3038 -0.0148 -0.2708
 2034SOL     OW 6352   5.826   2.762   5.823 -0.0150  0.6311  0.2085
 2034SOL    HW1 6353   5.746   2.723   5.789 -0.4383  0.5730  1.2351
 2034SOL    HW2 6354   5.896   2.704   5.794 -0.5411 -0.3645  0.8803
 2035SOL     OW 6355   5.185   2.363   3.126 -0.5570 -0.3016  0.1688
 2035SOL    HW1 6356   5.204   2.444   3.080  0.0296 -1.4954 -1.8406
 2035SOL    HW2 6357   5.208   2.381   3.217 -1.4290  2.0583 -0.0180
 2036SOL     OW 6358   0.588   3.670   1.668  0.4258 -0.6010 -0.7447
 2036SOL    HW1 6359   0.678   3.671   1.703  0.2146 -0.1853 -0.2106
 2036SOL    HW2 6360   0.596   3.624   1.584  1.3345  0.4480 -1.2500
 2037SOL     OW 6361   4.786   3.810   0.213 -0.0274 -0.1022  0.3824
 2037SOL    HW1 6362   4.840   3.828   0.290  0.8607  0.7588 -0.4108
 2037SOL    HW2 6363   4.778   3.894   0.169  0.1983 -0.7264 -0.9093
 2038SOL     OW 6364   3.514   3.536   5.063 -0.3636 -0.0965 -0.4546
 2038SOL    HW1 6365   3.549   3.614   5.106 -1.7463  0.8471 -0.9881
 2038SOL    HW2 6366   3.592   3.489   5.033  0.5524  0.3722  1.0245
 2039SOL     OW 6367   5.613   3.541   2.131 -0.0921  0.0728 -0.0952
 2039SOL    HW1 6368   5.541   3.604   2.137  1.5114  2.0065 -0.0994
 2039SOL    HW2 6369   5.644   3.548   2.041  2.6168  2.3540  0.8555
 2040SOL     OW 6370   1.634   5.848   0.067 -0.2669  0.6248  0.0352
 2040SOL    HW1 6371   1.664   5.773   0.119 -0.0690 -0.2974 -1.3558
 2040SOL    HW2 6372   1.705   5.912   0.074  0.2013  0.1082  0.0984
 2041SOL     OW 6373   2.682   2.786   3.112 -0.0656 -0.6688 -0.3127
 2041SOL    HW1 6374   2.771   2.820   3.118  0.2341 -1.6865  1.6421
 2041SOL    HW2 6375   2.632   2.840   3.173 -1.2946  1.1553 -2.7515
 2042SOL     OW 6376   3.099   1.367   5.539  0.3324  0.1070 -0.2414
 2042SOL    HW1 6377   3.146   1.319   5.471  1.1911  0.6173 -0.0266
 2042SOL    HW2 6378   3.094   1.457   5.506 -0.2088  0.1272 -0.1140
 2043SOL     OW 6379   2.670   0.022   1.161 -1.0960 -0.0395 -0.2124
 2043SOL    HW1 6380   2.691   0.096   1.104 -1.2144 -0.4598 -0.8027
 2043SOL    HW2 6381   2.578   0.002   1.141 -1.2860  0.1103  0.4692
 2044SOL     OW 6382   0.020   1.783   0.119  0.0181 -1.0452 -0.3389
 2044SOL    HW1 6383   0.034   1.868   0.160 -0.9349 -1.5589  1.1067
 2044SOL    HW2 6384   0.091   1.728   0.154  0.2808 -1.0118 -0.8097
 2045SOL     OW 6385   5.313   2.408   3.417 -0.0113 -0.0978 -0.2288
 2045SOL    HW1 6386   5.287   2.500   3.407 -2.0027 -0.6938 -0.8669
 2045SOL    HW2 6387   5.381   2.410   3.484 -0.9589  1.7076  0.7605
 2046SOL     OW 6388   1.310   5.378   4.416  0.0873  0.1501  0.3793
 2046SOL    HW1 6389   1.401   5.403   4.430  0.7148 -1.8266  0.1455
 2046SOL    HW2 6390   1.270   5.378   4.503  0.2739  1.0750  0.4747
 2047SOL     OW 6391   2.964   2.194   3.609  0.0269  0.4397  0.2048
 2047SOL    HW1 6392   3.005   2.274   3.575 -0.5456  0.6594  0.0293
 2047SOL    HW2 6393   2.871   2.214   3.611 -0.2323 -0.5669 -0.7781
 2048SOL     OW 6394   3.216   3.636   2.772 -0.1415  0.1988 -0.6181
 2048SOL    HW1 6395   3.213   3.659   2.679  1.5110 -0.0321 -0.7550
 2048SOL    HW2 6396   3.292   3.579   2.781 -0.4153  0.0129  0.8470
 2049SOL     OW 6397   4.901   1.984   4.098  0.4481 -0.4740  0.6725
 2049SOL    HW1 6398   4.976   1.944   4.054 -1.0001  0.3764 -2.9704
 2049SOL    HW2 6399   4.837   1.913   4.106 -0.1507 -0.1662 -0.9240
 2050SOL     OW 6400   0.102   1.614   2.778 -0.1929  0.0112  0.3975
 2050SOL    HW1 6401   0.035   1.582   2.717 -1.1963  1.7350  0.5147
 2050SOL    HW2 6402   0.147   1.683   2.729 -0.6846  1.0797  1.4086
 2051SOL     OW 6403   4.905   6.240   4.865  0.2322 -0.4089  0.3789
 2051SOL    HW1 6404   4.992   6.271   4.838  0.1924  0.7322  1.4899
 2051SOL    HW2 6405   4.903   6.149   4.835  1.5750 -0.2858 -0.2015
 2052SOL     OW 6406   2.172   3.767   6.240 -0.1706 -0.3937  0.4678
 2052SOL    HW1 6407   2.207   3.827   6.175 -2.3375 -0.4841 -0.8671
 2052SOL    HW2 6408   2.163   3.820   6.319  1.2275  0.0818  0.3219
 2053SOL     OW 6409   4.393   5.487   1.069 -0.5524 -0.5236  0.1823
 2053SOL    HW1 6410   4.305   5.449   1.073 -0.7999  0.0124 -0.0913
 2053SOL    HW2 6411   4.403   5.531   1.153 -0.8252  0.0112 -0.0591
 2054SOL     OW 6412   3.924   0.849   4.150  0.1443  0.4786 -0.5145
 2054SOL    HW1 6413   3.952   0.815   4.066  0.4361 -0.3703 -0.0782
 2054SOL    HW2 6414   3.836   0.883   4.134 -0.2447 -0.6780 -0.9204
 2055SOL     OW 6415   3.958   5.970   6.249  0.0326  0.3025  0.6162
 2055SOL    HW1 6416   3.885   5.989   6.307 -0.0046  1.1760  0.3023
 2055SOL    HW2 6417   4.025   6.033   6.273 -0.2923  1.2636 -0.8229
 2056SOL     OW 6418   1.693   4.435   3.963 -0.5201  0.5614 -0.1766
 2056SOL    HW1 6419   1.643   4.418   4.042 -1.9614  0.4415 -1.0623
 2056SOL    HW2 6420   1.669   4.364   3.903  0.0214  0.9979 -0.9403
 2057SOL     OW 6421   5.029   2.181   6.175  0.1465 -0.6026 -0.1622
 2057SOL    HW1 6422   5.037   2.087   6.156  0.3382 -0.3184 -1.5563
 2057SOL    HW2 6423   5.019   2.185   6.270 -2.0387 -2.1941 -0.2486
 2058SOL     OW 6424   3.820   2.993   3.859  0.0386 -0.2371  0.1801
 2058SOL    HW1 6425   3.835   2.935   3.784  1.2519  2.5631 -1.9208
 2058SOL    HW2 6426   3.901   2.988   3.910 -0.9674 -2.5121  1.6875
 2059SOL     OW 6427   1.875   2.015   5.405  0.5032 -0.2430 -0.5543
 2059SOL    HW1 6428   1.947   2.040   5.463  0.2898 -0.4688 -0.1840
 2059SOL    HW2 6429   1.808   1.980   5.464  0.9736 -2.1549 -1.0760
 2060SOL     OW 6430   5.944   5.749   6.323 -0.0647  0.1491 -0.3660
 2060SOL    HW1 6431   5.888   5.671   6.332  0.6749 -0.7351 -2.6981
 2060SOL    HW2 6432   6.033   5.715   6.325  0.2626  0.6544 -2.8800
 2061SOL     OW 6433   6.105   3.850   3.169 -0.2947  0.4703  0.4487
 2061SOL    HW1 6434   6.156   3.894   3.101  0.5767 -0.2450  0.6179
 2061SOL    HW2 6435   6.050   3.919   3.206 -1.4526  0.7018 -1.5708
 2062SOL     OW 6436   0.872   2.350   1.673  0.2267  0.0339  0.2857
 2062SOL    HW1 6437   0.925   2.276   1.643 -0.5448 -0.7277  0.7435
 2062SOL    HW2 6438   0.781   2.320   1.662 -0.0915  0.5227  1.4304
 2063SOL     OW 6439   5.032   4.895   1.122 -0.6472 -0.1460 -0.0076
 2063SOL    HW1 6440   5.005   4.944   1.044  1.0890  0.3338 -0.3455
 2063SOL    HW2 6441   5.126   4.909   1.128 -0.4723 -1.5969  1.2141
 2064SOL     OW 6442   0.351   0.327   3.905 -0.0605  0.2291  0.2733
 2064SOL    HW1 6443   0.325   0.243   3.866 -0.9747  1.1468 -1.2226
 2064SOL    HW2 6444   0.359   0.386   3.830  0.8613  1.4133  1.2635
 2065SOL     OW 6445   2.538   1.356   1.044 -0.3635 -0.4006  0.5150
 2065SOL    HW1 6446   2.539   1.432   1.102  0.9999  0.0475 -0.0694
 2065SOL    HW2 6447   2.609   1.300   1.075  0.6997  0.0627 -0.9527
 2066SOL     OW 6448   4.774   1.542   2.891  0.2024 -0.1127  0.0706
 2066SOL    HW1 6449   4.814   1.457   2.875 -0.6794 -0.1618 -2.2316
 2066SOL    HW2 6450   4.698   1.524   2.946  0.5507 -0.6752  0.3677
 2067SOL     OW 6451   4.024   0.426   4.973  0.4196 -0.1274 -0.2232
 2067SOL    HW1 6452   4.095   0.481   4.940  0.4150  0.2656  0.4037
 2067SOL    HW2 6453   4.054   0.336   4.958  0.8327  0.0426 -0.4191
 2068SOL     OW 6454   4.693   1.328   0.271 -0.2807 -0.0431 -0.2140
 2068SOL    HW1 6455   4.779   1.298   0.300 -0.0375 -0.5969 -1.4384
 2068SOL    HW2 6456   4.711   1.405   0.218 -0.6622  0.6170  0.6057
 2069SOL     OW 6457   1.709   3.119   2.540 -0.1700  0.2169 -0.0641
 2069SOL    HW1 6458   1.627   3.094   2.581  0.8320 -2.1686  0.6338
 2069SOL    HW2 6459   1.776   3.097   2.604  1.1864 -0.3742 -1.6047
 2070SOL     OW 6460   3.307   6.076   3.129 -0.2542  0.4049 -0.1916
 2070SOL    HW1 6461   3.293   6.159   3.082 -0.0313  0.0505 -0.8976
 2070SOL    HW2 6462   3.250   6.013   3.084 -1.0489  0.3471  0.8625
 2071SOL     OW 6463   3.037   0.305   6.105 -0.1670 -0.1302  0.4385
 2071SOL    HW1 6464   3.113   0.343   6.062  0.3933 -1.1967  0.4558
 2071SOL    HW2 6465   2.963   0.327   6.047  0.0854  1.1881  0.5898
 2072SOL     OW 6466   6.237   0.743   3.269 -0.1043 -0.2322  0.2354
 2072SOL    HW1 6467   6.262   0.817   3.325 -0.1700  0.9922 -1.2897
 2072SOL    HW2 6468   6.145   0.759   3.248  0.1883 -0.1150 -1.0183
 2073SOL     OW 6469   4.110   2.512   2.235  0.8412  0.1265 -0.2459
 2073SOL    HW1 6470   4.121   2.551   2.148 -0.8904 -0.0897 -0.5929
 2073SOL    HW2 6471   4.199   2.485   2.260  1.2322 -0.9055 -2.4731
 2074SOL     OW 6472   2.780   3.264   3.748  0.1873  0.4077  0.0253
 2074SOL    HW1 6473   2.768   3.196   3.814  0.2911  0.1053 -0.2655
 2074SOL    HW2 6474   2.875   3.268   3.735  0.1520  0.3121 -0.2654
 2075SOL     OW 6475   2.932   3.906   4.364 -0.0200 -0.1735 -0.2998
 2075SOL    HW1 6476   3.002   3.961   4.399 -0.2426 -0.0731 -0.0108
 2075SOL    HW2 6477   2.960   3.816   4.382 -0.7912 -0.1039  1.4505
 2076SOL     OW 6478   3.182   4.506   0.533  0.7039 -0.4905 -0.3034
 2076SOL    HW1 6479   3.133   4.583   0.561  1.9883  0.3854 -0.3770
 2076SOL    HW2 6480   3.225   4.474   0.612 -0.2805 -1.4972 -0.1548
 2077SOL     OW 6481   5.543   3.563   1.009  0.3347 -0.0378  0.2438
 2077SOL    HW1 6482   5.562   3.557   0.915 -0.3926  0.8304  0.0138
 2077SOL    HW2 6483   5.595   3.637   1.039 -0.3870  0.4939  0.2323
 2078SOL     OW 6484   1.601   2.053   0.155  0.0991 -0.2217  0.3503
 2078SOL    HW1 6485   1.518   2.053   0.108  1.2301 -0.5742 -1.7655
 2078SOL    HW2 6486   1.632   2.144   0.150 -0.2453 -0.0390  1.3387
 2079SOL     OW 6487   4.640   4.193   0.975 -0.4417  0.2818 -0.4766
 2079SOL    HW1 6488   4.615   4.114   0.927  1.4253 -1.4228  1.1682
 2079SOL    HW2 6489   4.627   4.170   1.067  0.4992  1.7660  0.0694
 2080SOL     OW 6490   1.378   5.224   1.537 -0.0134 -0.0154  0.0531
 2080SOL    HW1 6491   1.465   5.197   1.566  0.1590 -1.3257 -1.5145
 2080SOL    HW2 6492   1.318   5.168   1.587 -0.1445  1.9731  2.3303
 2081SOL     OW 6493   2.668   4.305   3.499 -0.3933  0.1771  0.0008
 2081SOL    HW1 6494   2.584   4.341   3.527  0.2443  1.9037 -0.1156
 2081SOL    HW2 6495   2.719   4.296   3.580 -1.1600 -2.3656  0.2763
 2082SOL     OW 6496   0.792   5.317   0.234  0.0298  0.2337  0.1647
 2082SOL    HW1 6497   0.777   5.406   0.203 -0.4316  0.5947  1.3682
 2082SOL    HW2 6498   0.711   5.294   0.280 -0.4568 -1.3663 -1.3621
 2083SOL     OW 6499   2.130   3.130   0.014 -0.1801 -0.6490 -0.5926
 2083SOL    HW1 6500   2.151   3.067  -0.056 -1.4716 -0.7797 -0.9009
 2083SOL    HW2 6501   2.202   3.122   0.076  2.0530  0.8834 -2.8143
 2084SOL     OW 6502   4.853   3.907   4.376 -0.1968 -0.1869  0.0466
 2084SOL    HW1 6503   4.853   3.908   4.280  0.0772 -0.6726  0.0397
 2084SOL    HW2 6504   4.779   3.963   4.400 -2.5175 -2.7660 -0.5075
 2085SOL     OW 6505   2.422   4.347   0.950 -0.1613 -0.4533  0.5585
 2085SOL    HW1 6506   2.478   4.376   0.878  0.4594  1.1352  1.6379
 2085SOL    HW2 6507   2.351   4.299   0.907 -0.3774  1.3196 -1.2295
 2086SOL     OW 6508   4.836   2.368   5.678 -0.0006  0.2211  0.1079
 2086SOL    HW1 6509   4.857   2.299   5.614  0.8998 -0.4014  1.0486
 2086SOL    HW2 6510   4.753   2.404   5.647  0.1874 -0.3732 -1.1588
 2087SOL     OW 6511   2.890   3.052   1.719 -0.2968 -0.9073  0.2760
 2087SOL    HW1 6512   2.811   3.054   1.666 -0.8639 -0.8634  1.1039
 2087SOL    HW2 6513   2.954   3.004   1.667 -0.5867 -0.1661 -0.7830
 2088SOL     OW 6514   2.046   4.470   2.244  0.1600 -0.1867  0.0965
 2088SOL    HW1 6515   1.977   4.521   2.287  0.3618  0.0075  0.1900
 2088SOL    HW2 6516   2.013   4.453   2.156 -0.2835 -0.6323  0.3416
 2089SOL     OW 6517   5.056   2.930   0.603  0.7664  0.6122  0.7544
 2089SOL    HW1 6518   5.136   2.891   0.637  0.4252 -1.9080 -1.0240
 2089SOL    HW2 6519   5.086   2.984   0.529  0.8483 -0.4987 -0.0455
 2090SOL     OW 6520   1.622   0.462   0.840 -0.2801  0.3544  0.4738
 2090SOL    HW1 6521   1.614   0.379   0.795 -0.3200  0.4152  0.3695
 2090SOL    HW2 6522   1.707   0.457   0.884 -0.8208 -0.2347  1.4760
 2091SOL     OW 6523   3.489   3.833   3.510  0.0619  0.1011 -0.8298
 2091SOL    HW1 6524   3.437   3.824   3.590  0.1646  0.2048 -0.7498
 2091SOL    HW2 6525   3.526   3.921   3.516  2.5806 -0.9467  0.5574
 2092SOL     OW 6526   2.085   2.457   4.315 -0.1854 -0.5559  0.0014
 2092SOL    HW1 6527   2.153   2.405   4.273 -1.3827 -3.0167  0.8885
 2092SOL    HW2 6528   2.003   2.412   4.292 -1.2940  0.9046  0.9128
 2093SOL     OW 6529   3.726   1.766   0.335  0.0852 -0.5541  0.1512
 2093SOL    HW1 6530   3.764   1.769   0.422 -0.4344 -1.1453  0.4060
 2093SOL    HW2 6531   3.632   1.766   0.350 -0.0084 -0.6006 -0.4164
 2094SOL     OW 6532   6.277   6.227   6.331 -0.3167 -0.3427 -0.2753
 2094SOL    HW1 6533   6.219   6.250   6.258 -0.6716 -0.9208 -0.1866
 2094SOL    HW2 6534   6.285   6.132   6.326  2.8577 -0.1188 -1.9555
 2095SOL     OW 6535   4.900   2.742   1.738 -0.0868 -0.4811 -0.2842
 2095SOL    HW1 6536   4.880   2.829   1.771  0.0263 -0.2664 -0.7729
 2095SOL    HW2 6537   4.972   2.712   1.793 -0.4055 -0.4440  0.1628
 2096SOL     OW 6538   2.430   4.323   4.938 -0.2403 -0.4294 -0.5451
 2096SOL    HW1 6539   2.338   4.304   4.954 -1.0036  2.7593 -0.3368
 2096SOL    HW2 6540   2.476   4.290   5.015 -1.7875  1.1216  1.1438
 2097SOL     OW 6541   2.545   3.726   0.438 -0.1535  0.2477  0.0433
 2097SOL    HW1 6542   2.550   3.688   0.350  0.0178  0.5577 -0.0818
 2097SOL    HW2 6543   2.570   3.655   0.497 -0.0884  0.0928 -0.1720
 2098SOL     OW 6544   4.010   2.991   5.019 -0.1262  0.5129 -0.4677
 2098SOL    HW1 6545   4.039   3.000   5.110  0.0376  2.0809 -0.6434
 2098SOL    HW2 6546   3.937   2.930   5.023 -0.3155  0.7860  0.7688
 2099SOL     OW 6547   3.827   1.760   0.580 -0.2747  0.3118 -0.3162
 2099SOL    HW1 6548   3.784   1.825   0.634 -0.8747  0.8054 -1.3551
 2099SOL    HW2 6549   3.921   1.777   0.592 -0.3108 -0.6999  1.8640
 2100SOL     OW 6550   0.294   6.339   0.288  0.4378 -0.1151  0.2302
 2100SOL    HW1 6551   0.235   6.266   0.273  0.8613 -0.5170  0.5145
 2100SOL    HW2 6552   0.326   6.362   0.200  0.3976 -0.3474  0.1536
 2101SOL     OW 6553   2.924   1.283   0.925 -0.3397 -0.5555  0.1017
 2101SOL    HW1 6554   3.019   1.287   0.921 -0.3300 -0.6669  0.2278
 2101SOL    HW2 6555   2.895   1.328   0.846 -0.1645 -1.7571 -0.6802
 2102SOL     OW 6556   1.655   3.063   5.938 -0.4679 -0.3373 -0.1930
 2102SOL    HW1 6557   1.711   3.066   5.860 -2.0980  0.0207 -1.4083
 2102SOL    HW2 6558   1.699   3.120   6.001 -0.4405  1.5554 -1.8159
 2103SOL     OW 6559   5.076   2.372   0.964  0.1497 -0.1448  0.0295
 2103SOL    HW1 6560   5.053   2.463   0.980  1.3740  0.1376  0.2742
 2103SOL    HW2 6561   5.159   2.360   1.009  0.1558 -1.3018 -0.2572
 2104SOL     OW 6562   6.235   1.532   4.366 -0.6668  0.1137 -0.0634
 2104SOL    HW1 6563   6.263   1.491   4.284 -0.4528  1.4624 -0.6905
 2104SOL    HW2 6564   6.313   1.574   4.400 -0.8901  0.0448  0.5354
 2105SOL     OW 6565   2.222   2.866   3.395 -0.4775 -0.0696 -0.0037
 2105SOL    HW1 6566   2.142   2.819   3.373 -0.3038 -0.1213 -0.5341
 2105SOL    HW2 6567   2.275   2.862   3.315 -0.3646  0.8225  0.0200
 2106SOL     OW 6568   3.331   1.923   0.163  0.6228  0.1135  0.5483
 2106SOL    HW1 6569   3.313   2.007   0.120 -0.7712 -1.4703 -2.2508
 2106SOL    HW2 6570   3.250   1.904   0.212 -0.1230 -0.7489 -0.9629
 2107SOL     OW 6571   0.833   5.185   1.730 -0.2170 -0.1381  0.4286
 2107SOL    HW1 6572   0.900   5.188   1.662  0.4584 -0.5486  1.0578
 2107SOL    HW2 6573   0.833   5.274   1.767 -0.3549 -0.0056  0.1087
 2108SOL     OW 6574   5.300   2.223   5.580 -0.4384 -0.4790 -0.0288
 2108SOL    HW1 6575   5.289   2.202   5.672  0.1501 -1.7179 -0.2246
 2108SOL    HW2 6576   5.285   2.318   5.575 -0.1877 -0.3476  1.3788
 2109SOL     OW 6577   0.946   0.751   0.180 -0.4334  0.0610  0.3353
 2109SOL    HW1 6578   0.967   0.738   0.272 -1.2949 -1.0137  0.4021
 2109SOL    HW2 6579   0.963   0.665   0.139  1.6279  0.9662 -0.8719
 2110SOL     OW 6580   4.939   6.334   1.543  0.9371 -0.6468 -0.1258
 2110SOL    HW1 6581   4.935   6.404   1.608  0.5109 -1.5903  0.8813
 2110SOL    HW2 6582   5.018   6.284   1.566  2.1751  0.3875 -1.8127
 2111SOL     OW 6583   3.038   4.334   0.741 -0.3267 -0.4188  0.0275
 2111SOL    HW1 6584   3.034   4.315   0.647  1.2066  0.2055 -0.1920
 2111SOL    HW2 6585   3.066   4.426   0.745 -0.7210 -0.3413  1.0920
 2112SOL     OW 6586   4.342   3.032   3.370 -0.6011 -0.9769  0.5565
 2112SOL    HW1 6587   4.263   3.027   3.423 -0.8360 -0.6377  0.2517
 2112SOL    HW2 6588   4.406   2.978   3.415 -0.8012 -0.7095  1.1700
 2113SOL     OW 6589   4.522   0.213   2.575 -0.3114 -0.3721 -0.3026
 2113SOL    HW1 6590   4.542   0.302   2.547 -0.8451 -0.1126  0.1314
 2113SOL    HW2 6591   4.550   0.210   2.667 -1.7408 -0.1648  0.1565
 2114SOL     OW 6592   5.467   1.121   2.659 -0.0034 -0.2757  0.2442
 2114SOL    HW1 6593   5.405   1.158   2.597  0.9986  0.2031 -0.5076
 2114SOL    HW2 6594   5.545   1.100   2.606 -0.0353 -2.2323  0.8791
 2115SOL     OW 6595   4.827   4.481   5.478 -0.2952 -0.0782  0.0684
 2115SOL    HW1 6596   4.820   4.562   5.529 -0.8161  0.7928 -1.3477
 2115SOL    HW2 6597   4.737   4.459   5.455  0.0248  0.5761 -2.0063
 2116SOL     OW 6598   1.390   5.801   3.926 -0.0869 -0.2912  0.5554
 2116SOL    HW1 6599   1.443   5.874   3.957  2.0146 -0.8405 -1.4297
 2116SOL    HW2 6600   1.450   5.726   3.925 -1.6485 -1.6008  0.7291
 2117SOL     OW 6601   6.329   1.086   3.812  0.4370 -0.4198  0.0385
 2117SOL    HW1 6602   6.307   1.010   3.759  0.6774 -0.9173  0.6512
 2117SOL    HW2 6603   6.371   1.146   3.750 -2.1561  0.3931 -1.0767
 2118SOL     OW 6604   4.366   5.698   2.963 -0.4399  0.1363 -0.2245
 2118SOL    HW1 6605   4.377   5.649   3.044 -0.8191  1.7422  0.8262
 2118SOL    HW2 6606   4.433   5.662   2.904  0.9642  0.1081  1.3449
 2119SOL     OW 6607   2.672   2.528   1.513  0.5028 -0.0789 -0.4890
 2119SOL    HW1 6608   2.661   2.611   1.465 -1.0027 -1.0048 -1.8881
 2119SOL    HW2 6609   2.702   2.554   1.600  1.9614  1.7962 -1.4774
 2120SOL     OW 6610   0.171   2.537   5.527 -0.2165  0.3660 -0.2625
 2120SOL    HW1 6611   0.252   2.584   5.548  0.5291 -0.7313 -0.6169
 2120SOL    HW2 6612   0.123   2.597   5.469  0.4179  0.9482 -0.1952
 2121SOL     OW 6613   4.154   3.559   4.850  0.0106  1.3421  0.2213
 2121SOL    HW1 6614   4.068   3.583   4.886 -0.4972  0.2378 -0.2041
 2121SOL    HW2 6615   4.195   3.642   4.828 -1.6965  1.8435 -1.2676
 2122SOL     OW 6616   0.155   2.042   1.333 -0.5508  0.8336  0.2573
 2122SOL    HW1 6617   0.192   2.009   1.415  0.9451 -1.0242 -1.0682
 2122SOL    HW2 6618   0.109   1.966   1.295 -2.0384  1.9210 -0.1990
 2123SOL     OW 6619   0.905   3.096   0.756 -0.0488 -0.1457 -0.0271
 2123SOL    HW1 6620   0.884   3.027   0.693  2.0575 -1.8413  1.0100
 2123SOL    HW2 6621   0.844   3.082   0.828  1.1108 -1.7622  0.7036
 2124SOL     OW 6622   1.806   0.615   2.981  0.0314 -0.1957  0.4584
 2124SOL    HW1 6623   1.773   0.701   2.952 -1.1209 -0.6258  0.4370
 2124SOL    HW2 6624   1.901   0.624   2.977 -0.0546  0.4715 -1.4128
 2125SOL     OW 6625   1.606   3.176   0.416 -0.0403 -0.1090 -0.3924
 2125SOL    HW1 6626   1.614   3.121   0.338  0.2118  0.4947 -0.8059
 2125SOL    HW2 6627   1.660   3.134   0.482  2.0578  0.8463 -1.3976
 2126SOL     OW 6628   2.149   3.011   2.484 -0.4033  0.5349 -0.1849
 2126SOL    HW1 6629   2.233   3.001   2.530  0.1825 -1.0642 -1.4758
 2126SOL    HW2 6630   2.121   3.100   2.504  0.2268  0.2300  2.5218
 2127SOL     OW 6631   2.190   4.968   1.594  0.0992  0.5626  0.9358
 2127SOL    HW1 6632   2.096   4.988   1.592  0.1420  0.7993 -1.4808
 2127SOL    HW2 6633   2.229   5.041   1.643 -0.9240  0.5331  1.8472
 2128SOL     OW 6634   2.422   2.761   2.979  0.2862 -0.0975  0.3797
 2128SOL    HW1 6635   2.423   2.853   2.951  0.2393  0.2394  1.4442
 2128SOL    HW2 6636   2.511   2.744   3.010 -0.1790  0.1655  1.9376
 2129SOL     OW 6637   1.276   1.994   0.247 -0.0910  0.4380  0.1013
 2129SOL    HW1 6638   1.235   2.048   0.179  1.7585  0.0555 -1.4076
 2129SOL    HW2 6639   1.255   1.904   0.222  2.1425  0.1788 -1.1622
 2130SOL     OW 6640   3.504   0.911   4.298  0.4661  0.2496 -0.3804
 2130SOL    HW1 6641   3.565   0.912   4.224  0.3014  1.1771 -0.5181
 2130SOL    HW2 6642   3.541   0.974   4.361  3.3061 -3.8939  2.6404
 2131SOL     OW 6643   0.815   4.854   5.979 -0.2096 -0.5920 -0.6794
 2131SOL    HW1 6644   0.844   4.834   6.068 -1.0209 -1.5100 -0.6081
 2131SOL    HW2 6645   0.799   4.949   5.980  1.7311 -0.2224 -0.4484
 2132SOL     OW 6646   5.426   3.775   3.807 -0.9051 -0.5111  0.0617
 2132SOL    HW1 6647   5.333   3.790   3.823 -1.2741 -1.4377 -1.0991
 2132SOL    HW2 6648   5.433   3.764   3.712  0.2333 -1.4882  0.2329
 2133SOL     OW 6649   2.468   5.762   4.461 -0.0010  0.1076 -0.0582
 2133SOL    HW1 6650   2.449   5.838   4.406 -0.6824  0.4334  0.6125
 2133SOL    HW2 6651   2.503   5.697   4.400 -0.8424  0.4222 -0.9032
 2134SOL     OW 6652   2.242   0.850   4.575  0.0366  0.4177 -0.5094
 2134SOL    HW1 6653   2.283   0.861   4.660 -0.7324 -0.1844 -0.0521
 2134SOL    HW2 6654   2.150   0.834   4.594  0.1746 -1.6532 -1.3608
 2135SOL     OW 6655   0.188   4.432   3.208  0.0344  0.1413  0.2763
 2135SOL    HW1 6656   0.260   4.424   3.145  0.3807  1.1650  0.5167
 2135SOL    HW2 6657   0.164   4.525   3.205  0.2738  0.2925  1.8647
 2136SOL     OW 6658   3.636   0.349   3.761 -0.4716 -0.3479 -1.1987
 2136SOL    HW1 6659   3.674   0.434   3.739  0.8833 -0.1284  1.5465
 2136SOL    HW2 6660   3.702   0.286   3.732  0.4938 -0.1572  0.4285
 2137SOL     OW 6661   5.170   2.616   3.022 -0.1693 -0.4373 -0.3003
 2137SOL    HW1 6662   5.085   2.653   2.997 -0.0762  1.4507  1.8418
 2137SOL    HW2 6663   5.234   2.684   3.002  0.5703 -1.0278 -0.0324
 2138SOL     OW 6664   2.157   4.246   3.590  0.0394 -0.4364  0.3693
 2138SOL    HW1 6665   2.160   4.156   3.556 -1.2725 -0.9033  1.4110
 2138SOL    HW2 6666   2.187   4.238   3.681  1.1330  0.4087  0.1144
 2139SOL     OW 6667   0.943   1.672   3.194  0.3476 -0.3093  0.0785
 2139SOL    HW1 6668   0.923   1.583   3.165  0.5844 -0.7948  1.3556
 2139SOL    HW2 6669   0.994   1.661   3.274 -1.3022  0.9643  1.3787
 2140SOL     OW 6670   3.784   2.419   4.176 -0.2854 -0.3551 -0.6300
 2140SOL    HW1 6671   3.705   2.420   4.230  0.5737 -0.3854  0.6662
 2140SOL    HW2 6672   3.787   2.506   4.135  0.8225  0.9934  2.0776
 2141SOL     OW 6673   0.139   2.755   1.110  0.3881 -0.1988  0.6965
 2141SOL    HW1 6674   0.064   2.812   1.095 -0.1887 -0.8435  1.0963
 2141SOL    HW2 6675   0.199   2.808   1.163 -0.1708  0.0103  1.1220
 2142SOL     OW 6676   3.554   5.228   3.361  0.0370 -0.2077  0.3674
 2142SOL    HW1 6677   3.608   5.252   3.437 -0.0227  1.6147 -0.1247
 2142SOL    HW2 6678   3.485   5.295   3.358  1.2527  1.1049 -2.4854
 2143SOL     OW 6679   1.656   3.349   5.494  0.3425  0.3643 -0.0824
 2143SOL    HW1 6680   1.703   3.330   5.413  0.5426  0.0366  0.1088
 2143SOL    HW2 6681   1.593   3.277   5.504  1.8244 -0.8219  1.1938
 2144SOL     OW 6682   6.315   0.853   0.280 -0.1174 -0.2564 -0.6944
 2144SOL    HW1 6683   6.279   0.930   0.323 -0.2627  0.2157 -1.6373
 2144SOL    HW2 6684   6.377   0.817   0.342  1.0049  1.4258 -0.7961
 2145SOL     OW 6685   1.507   4.308   1.681 -0.0628  0.7360  0.0134
 2145SOL    HW1 6686   1.443   4.269   1.740  1.0015 -3.0691 -1.0951
 2145SOL    HW2 6687   1.467   4.301   1.594 -0.5346  3.9303 -0.1581
 2146SOL     OW 6688   6.329   1.853   2.581 -0.4917 -0.3930  0.3361
 2146SOL    HW1 6689   6.304   1.871   2.672 -1.7535 -1.7116  0.2848
 2146SOL    HW2 6690   6.418   1.817   2.587 -0.9782 -1.4939  1.1670
 2147SOL     OW 6691   4.891   5.976   2.639 -0.6491 -0.2616 -0.2076
 2147SOL    HW1 6692   4.825   5.934   2.584  0.6172 -0.8070 -1.3421
 2147SOL    HW2 6693   4.924   5.905   2.695 -0.5567 -0.1310 -0.0953
 2148SOL     OW 6694   2.048   2.918   1.772 -0.0364 -0.4531 -0.2402
 2148SOL    HW1 6695   2.111   2.879   1.711 -0.7977 -0.8925 -0.7615
 2148SOL    HW2 6696   2.011   2.993   1.724 -0.6309 -0.7941 -0.3271
 2149SOL     OW 6697   5.984   4.273   1.600  0.1595 -0.0222 -0.3153
 2149SOL    HW1 6698   6.049   4.327   1.644 -0.1171  0.0997 -0.0541
 2149SOL    HW2 6699   5.915   4.335   1.575 -1.2121 -0.5563  1.9245
 2150SOL     OW 6700   3.803   5.066   3.355 -0.1243  0.7817 -0.7676
 2150SOL    HW1 6701   3.714   5.076   3.322 -1.6253 -1.8317  1.9659
 2150SOL    HW2 6702   3.833   4.983   3.319 -0.0219  0.1537  0.6937
 2151SOL     OW 6703   0.018   6.207   4.577  0.4212  0.1331  0.0023
 2151SOL    HW1 6704  -0.036   6.130   4.559 -0.4785  1.0332 -1.3756
 2151SOL    HW2 6705   0.026   6.209   4.672 -1.5572 -0.3498  0.2171
 2152SOL     OW 6706   1.046   2.384   4.732 -0.2922 -0.0463 -0.2796
 2152SOL    HW1 6707   1.085   2.386   4.819 -1.9394 -0.2586  0.5105
 2152SOL    HW2 6708   0.962   2.429   4.743 -0.5023 -0.0386 -1.7757
 2153SOL     OW 6709   4.652   5.792   1.880  0.3087  0.0277  0.2229
 2153SOL    HW1 6710   4.679   5.764   1.967 -0.6457  0.3080  0.6216
 2153SOL    HW2 6711   4.673   5.717   1.824  0.5417 -0.3203  0.7616
 2154SOL     OW 6712   4.265   4.470   1.730 -0.0896  0.5236  0.0346
 2154SOL    HW1 6713   4.240   4.471   1.638  2.7159 -0.0005 -0.8118
 2154SOL    HW2 6714   4.283   4.561   1.752  3.3537  0.2815 -1.2678
 2155SOL     OW 6715   5.332   2.455   2.151  0.7013  0.0748 -1.0495
 2155SOL    HW1 6716   5.281   2.477   2.072 -0.9508 -0.8353 -0.2870
 2155SOL    HW2 6717   5.350   2.362   2.142 -2.3808 -0.8909  1.0892
 2156SOL     OW 6718   5.238   0.772   4.595  0.2043  0.4230 -0.2909
 2156SOL    HW1 6719   5.318   0.722   4.613  0.8368  0.6445 -2.2913
 2156SOL    HW2 6720   5.207   0.740   4.511  1.0294  3.7684 -2.0598
 2157SOL     OW 6721   6.319   6.015   2.108  0.1957 -0.0988 -0.0806
 2157SOL    HW1 6722   6.312   5.923   2.082  0.0508  0.1233 -0.8644
 2157SOL    HW2 6723   6.390   6.016   2.173  0.6149 -0.6777 -0.5143
 2158SOL     OW 6724   2.265   5.815   3.235  0.1010 -0.5340  0.0530
 2158SOL    HW1 6725   2.231   5.834   3.148  1.3156 -1.6014 -0.6753
 2158SOL    HW2 6726   2.199   5.758   3.275 -1.4112  1.4708  0.6166
 2159SOL     OW 6727   3.890   1.351   3.638  0.4364  0.3506  0.1136
 2159SOL    HW1 6728   3.973   1.317   3.604  0.1432  0.6297 -0.9331
 2159SOL    HW2 6729   3.912   1.437   3.673  0.6415  0.3051  0.0964
 2160SOL     OW 6730   5.198   1.091   6.108  0.0059  0.3273 -0.5596
 2160SOL    HW1 6731   5.190   1.171   6.159 -0.0621 -0.1872  0.2636
 2160SOL    HW2 6732   5.259   1.113   6.037  0.4133  0.9520 -0.0252
 2161SOL     OW 6733   1.393   4.672   4.560  0.2324  0.3488 -0.0496
 2161SOL    HW1 6734   1.392   4.729   4.638  0.0229  0.7872 -0.3689
 2161SOL    HW2 6735   1.335   4.716   4.498 -0.2885 -0.4577 -0.1395
 2162SOL     OW 6736   2.899   1.988   0.538 -0.6064 -0.3521  0.5108
 2162SOL    HW1 6737   2.829   1.936   0.499 -0.0168 -1.0125  0.3058
 2162SOL    HW2 6738   2.855   2.063   0.577 -1.2282  0.4563 -1.6151
 2163SOL     OW 6739   1.942   1.895   2.917  0.4163 -0.7515 -0.0863
 2163SOL    HW1 6740   1.972   1.901   2.827  0.7347  1.4341  0.1254
 2163SOL    HW2 6741   1.943   1.801   2.936  1.9633 -1.1386 -1.7903
 2164SOL     OW 6742   4.014   1.639   5.276 -0.0351  0.7454  0.7684
 2164SOL    HW1 6743   3.993   1.691   5.354  2.6099  1.1490  1.3133
 2164SOL    HW2 6744   4.013   1.702   5.204  0.4146  1.0062  0.9818
 2165SOL     OW 6745   4.566   2.662   2.641  0.8743 -0.3209  0.1382
 2165SOL    HW1 6746   4.610   2.584   2.607 -0.7854 -0.4354 -2.0002
 2165SOL    HW2 6747   4.578   2.728   2.573 -1.2563 -0.0469 -0.0455
 2166SOL     OW 6748   2.654   3.493   0.586  0.5013  0.2096  0.2662
 2166SOL    HW1 6749   2.657   3.534   0.673  2.1576 -2.1167  1.4360
 2166SOL    HW2 6750   2.745   3.473   0.567  0.4237  2.2884 -2.9533
 2167SOL     OW 6751   0.100   3.613   4.605  0.0984 -0.4052 -0.2041
 2167SOL    HW1 6752   0.051   3.653   4.677  0.4780  0.3317 -0.3376
 2167SOL    HW2 6753   0.143   3.537   4.644  1.2163  0.6071  0.6682
 2168SOL     OW 6754   5.397   4.134   2.843 -0.2279  0.2362  0.3765
 2168SOL    HW1 6755   5.453   4.207   2.815  0.1820  0.3922  1.5465
 2168SOL    HW2 6756   5.459   4.067   2.874 -0.6492 -0.0867  0.5249
 2169SOL     OW 6757   0.563   0.449   4.027 -0.3643 -0.3069  0.1697
 2169SOL    HW1 6758   0.488   0.410   3.981 -0.2322 -1.2240  0.7104
 2169SOL    HW2 6759   0.572   0.396   4.106  0.7688 -0.1167  0.1755
 2170SOL     OW 6760   0.935   3.621   3.512 -0.0551  0.5362  0.3076
 2170SOL    HW1 6761   0.960   3.583   3.427  1.3682  1.9555  0.0418
 2170SOL    HW2 6762   0.978   3.565   3.577  1.3840  1.1865 -0.0457
 2171SOL     OW 6763   3.481   5.660   0.668  0.2154 -0.3942 -0.0546
 2171SOL    HW1 6764   3.567   5.663   0.711 -0.6755  0.1500  1.7861
 2171SOL    HW2 6765   3.466   5.749   0.638  0.2840 -0.4838 -0.3548
 2172SOL     OW 6766   5.273   4.954   2.478 -0.6913  0.1497  0.2042
 2172SOL    HW1 6767   5.347   4.956   2.417  0.3528  2.0733  1.4576
 2172SOL    HW2 6768   5.277   4.867   2.518  1.3394  0.4583  0.7581
 2173SOL     OW 6769   5.555   2.294   5.781 -0.1636  0.0972  0.3269
 2173SOL    HW1 6770   5.577   2.283   5.689  0.0476  1.2515  0.2275
 2173SOL    HW2 6771   5.551   2.204   5.815  0.2755 -0.3227 -0.6714
 2174SOL     OW 6772   1.960   5.253   4.425 -0.0524  0.5253 -0.2196
 2174SOL    HW1 6773   2.014   5.223   4.498 -0.6546 -0.7192 -0.2530
 2174SOL    HW2 6774   1.915   5.174   4.395 -1.7179  1.4709 -0.3328
 2175SOL     OW 6775   5.649   3.818   1.070  0.1299  0.1430  0.3206
 2175SOL    HW1 6776   5.695   3.848   0.991  2.1382 -2.4896  0.3422
 2175SOL    HW2 6777   5.712   3.831   1.140 -1.2677  1.4996  1.3875
 2176SOL     OW 6778   0.021   2.293   3.429  0.1674  0.1374  0.4168
 2176SOL    HW1 6779  -0.038   2.231   3.387 -0.9916  1.9464 -0.7661
 2176SOL    HW2 6780   0.108   2.268   3.397 -0.2439 -1.0014  0.1426
 2177SOL     OW 6781   5.138   4.129   5.439 -0.0443 -0.4257 -0.0442
 2177SOL    HW1 6782   5.055   4.092   5.468 -0.7784  0.8189 -0.4864
 2177SOL    HW2 6783   5.144   4.213   5.484  0.9658 -0.4802 -0.0560
 2178SOL     OW 6784   0.139   4.039   3.238  0.5747 -0.4366 -0.1366
 2178SOL    HW1 6785   0.147   4.036   3.142  1.0080  0.2136 -0.1228
 2178SOL    HW2 6786   0.097   3.956   3.260  0.9847 -0.8474 -0.8407
 2179SOL     OW 6787   0.059   0.182   3.637 -0.2875  0.3881  0.1581
 2179SOL    HW1 6788   0.004   0.170   3.715  2.3397  1.3388  2.3459
 2179SOL    HW2 6789   0.039   0.271   3.607  0.8258  1.2631  1.7664
 2180SOL     OW 6790   4.906   2.996   1.570 -0.3716  1.1411 -0.4181
 2180SOL    HW1 6791   4.941   3.010   1.482 -0.6592 -0.1379 -0.7581
 2180SOL    HW2 6792   4.837   3.061   1.579  0.0201  1.6337 -0.9304
 2181SOL     OW 6793   3.131   5.023   1.781  0.1558  0.1222 -0.4147
 2181SOL    HW1 6794   3.187   5.012   1.704  1.3888 -1.6273  0.6636
 2181SOL    HW2 6795   3.109   5.116   1.781  1.2319  0.4212 -2.1154
 2182SOL     OW 6796   4.295   4.612   5.372  0.1720 -0.3916  0.0871
 2182SOL    HW1 6797   4.361   4.629   5.439  1.1518  0.9049 -1.1463
 2182SOL    HW2 6798   4.274   4.698   5.336 -2.4974 -0.7309  0.6744
 2183SOL     OW 6799   6.148   3.049   4.360  0.5271 -0.0306  0.2028
 2183SOL    HW1 6800   6.122   3.106   4.433  0.4841  1.1491 -0.6908
 2183SOL    HW2 6801   6.070   3.044   4.305  1.2321  1.0290 -0.9464
 2184SOL     OW 6802   5.867   2.592   2.957 -0.7889  0.5635 -0.2105
 2184SOL    HW1 6803   5.808   2.667   2.968 -0.1903  0.7627  2.4678
 2184SOL    HW2 6804   5.933   2.603   3.026 -0.7305 -2.4478  0.3671
 2185SOL     OW 6805   1.314   3.565   3.294 -0.2368 -0.0592  0.1025
 2185SOL    HW1 6806   1.260   3.581   3.217 -0.6865 -1.1880  0.1623
 2185SOL    HW2 6807   1.400   3.600   3.272 -0.6969  0.7578 -0.4215
 2186SOL     OW 6808   3.930   5.099   4.551 -0.2484  0.0429 -1.2905
 2186SOL    HW1 6809   4.022   5.075   4.552 -0.0853  0.5381 -2.4662
 2186SOL    HW2 6810   3.930   5.195   4.551 -0.7819  0.0487 -0.6578
 2187SOL     OW 6811   3.952   0.252   5.798  0.5024  0.5096 -0.0549
 2187SOL    HW1 6812   3.995   0.334   5.776 -1.1244  1.4882  0.2398
 2187SOL    HW2 6813   3.858   0.270   5.786  0.0278 -0.9176  1.2010
 2188SOL     OW 6814   1.616   2.556   0.608  0.1166  0.2146  0.0756
 2188SOL    HW1 6815   1.530   2.599   0.609 -0.0163 -0.0267 -0.5979
 2188SOL    HW2 6816   1.647   2.566   0.518  0.4938 -0.2935  0.1465
 2189SOL     OW 6817   5.298   0.261   5.942  0.2134  0.4803  0.7714
 2189SOL    HW1 6818   5.339   0.345   5.964  0.2044  0.9274 -0.7859
 2189SOL    HW2 6819   5.263   0.274   5.854  0.1266 -1.1399  0.5358
 2190SOL     OW 6820   1.841   4.248   3.578  0.1513 -0.1033  0.6498
 2190SOL    HW1 6821   1.804   4.224   3.662  0.8500  0.8743  1.2623
 2190SOL    HW2 6822   1.841   4.344   3.578 -3.1271  0.0762 -1.9352
 2191SOL     OW 6823   3.306   1.292   0.633  0.1041  0.0619  0.7241
 2191SOL    HW1 6824   3.324   1.380   0.602 -0.8812 -0.1735 -0.5962
 2191SOL    HW2 6825   3.392   1.250   0.639  0.5698  1.0763  1.3057
 2192SOL     OW 6826   3.468   0.085   1.798  0.1795 -0.8693 -0.3318
 2192SOL    HW1 6827   3.393   0.055   1.747 -0.0506 -0.7775 -0.0496
 2192SOL    HW2 6828   3.430   0.117   1.880  0.4682 -0.2366 -0.4420
 2193SOL     OW 6829   4.131   4.736   2.645 -0.3467  0.1244  0.0645
 2193SOL    HW1 6830   4.072   4.696   2.580  0.4036 -1.3741  0.2682
 2193SOL    HW2 6831   4.191   4.789   2.592 -0.9385  0.4614 -0.2811
 2194SOL     OW 6832   6.000   0.544   3.022 -0.7620  0.1120 -0.0925
 2194SOL    HW1 6833   6.009   0.449   3.028  0.2996  0.1337 -0.9823
 2194SOL    HW2 6834   5.919   0.564   3.070  0.6078 -0.8781  2.8938
 2195SOL     OW 6835   5.725   3.386   4.695  0.4743  0.2139  0.1160
 2195SOL    HW1 6836   5.745   3.468   4.649 -0.4101  0.1042 -0.5037
 2195SOL    HW2 6837   5.700   3.325   4.625 -0.8177  0.0087  0.7255
 2196SOL     OW 6838   5.779   3.440   5.239 -0.2326 -0.5132 -0.3843
 2196SOL    HW1 6839   5.760   3.347   5.232  2.6324 -1.0897 -2.3963
 2196SOL    HW2 6840   5.747   3.478   5.157  2.7360 -0.7346 -1.7997
 2197SOL     OW 6841   4.911   2.693   0.042  0.1960 -0.1399  0.6336
 2197SOL    HW1 6842   4.820   2.678   0.069  0.5462  1.8193  3.2892
 2197SOL    HW2 6843   4.951   2.606   0.040 -1.3165 -0.8699  1.0525
 2198SOL     OW 6844   6.336   6.337   0.397  0.1744 -0.4360  0.2953
 2198SOL    HW1 6845   6.368   6.273   0.333 -0.3446 -0.6717  0.2673
 2198SOL    HW2 6846   6.278   6.394   0.347 -0.8672 -1.1032  0.7034
 2199SOL     OW 6847   2.901   0.341   1.544  0.0446 -0.1849 -0.2329
 2199SOL    HW1 6848   2.872   0.355   1.454 -0.7322  0.1622  0.0688
 2199SOL    HW2 6849   2.996   0.327   1.537 -0.0498 -0.4070 -1.1259
 2200SOL     OW 6850   3.367   4.579   5.357  0.1131  0.2677  0.5522
 2200SOL    HW1 6851   3.437   4.524   5.392 -0.3393 -1.2418 -0.7821
 2200SOL    HW2 6852   3.332   4.625   5.433  2.0122  0.4617  1.3686
 2201SOL     OW 6853   2.914   0.164   0.578  0.2145  0.4850 -0.1730
 2201SOL    HW1 6854   2.842   0.215   0.613  0.1865 -0.4909  1.2474
 2201SOL    HW2 6855   2.916   0.187   0.485 -1.6452  0.8490 -0.1581
 2202SOL     OW 6856   1.716   6.059   5.990 -0.6563  0.2293  0.0966
 2202SOL    HW1 6857   1.699   6.074   6.083 -0.1327 -0.5624  0.3402
 2202SOL    HW2 6858   1.710   6.145   5.949  0.1398  0.7467  1.0376
 2203SOL     OW 6859   4.839   1.277   2.753 -0.0465 -0.1952  0.6050
 2203SOL    HW1 6860   4.761   1.312   2.709  0.8768  1.2156 -0.0028
 2203SOL    HW2 6861   4.842   1.185   2.727  0.3030  0.4876 -2.1440
 2204SOL     OW 6862   3.307   2.173   0.022 -0.1570 -0.6716 -0.2753
 2204SOL    HW1 6863   3.252   2.246   0.050 -0.6853 -1.5258  1.0060
 2204SOL    HW2 6864   3.392   2.213   0.005 -0.9678  0.5663 -1.6403
 2205SOL     OW 6865   3.501   4.672   0.193  0.1234 -0.6561 -0.2137
 2205SOL    HW1 6866   3.508   4.715   0.278 -0.8391  1.7550 -1.2639
 2205SOL    HW2 6867   3.418   4.624   0.196 -0.8014  0.8727 -0.3497
 2206SOL     OW 6868   0.321   0.589   0.154  0.3918  0.6409 -0.3914
 2206SOL    HW1 6869   0.241   0.641   0.148 -0.1010 -0.1645 -1.1048
 2206SOL    HW2 6870   0.299   0.518   0.214  0.6848  0.6014 -0.3302
 2207SOL     OW 6871   4.349   1.373   3.739  0.7091 -0.0080  0.7522
 2207SOL    HW1 6872   4.309   1.302   3.690  2.1261 -0.6325  0.4497
 2207SOL    HW2 6873   4.379   1.434   3.671 -1.9721  1.8011  1.0256
 2208SOL     OW 6874   4.001   4.136   3.170  0.5052  0.1540  0.1835
 2208SOL    HW1 6875   3.963   4.136   3.257  1.4003  0.4237  0.5827
 2208SOL    HW2 6876   4.054   4.215   3.166  0.4844  0.1418 -0.6002
 2209SOL     OW 6877   3.136   0.781   2.333  0.0281 -0.5533  0.1050
 2209SOL    HW1 6878   3.056   0.832   2.330 -0.7918 -1.8346 -1.4606
 2209SOL    HW2 6879   3.192   0.821   2.266 -1.5498 -2.9797 -2.9457
 2210SOL     OW 6880   3.968   3.854   0.678  0.0715 -0.1589 -0.3479
 2210SOL    HW1 6881   3.889   3.898   0.649  0.7459  0.8724 -0.6725
 2210SOL    HW2 6882   4.012   3.917   0.735  0.7449 -0.6326 -0.3255
 2211SOL     OW 6883   4.667   4.456   0.420  0.2655  0.3205 -0.3469
 2211SOL    HW1 6884   4.736   4.463   0.486  1.9083  0.9278 -2.0400
 2211SOL    HW2 6885   4.704   4.497   0.342 -2.1875  1.0428 -1.2314
 2212SOL     OW 6886   4.379   4.317   2.726  0.4477 -0.1705 -0.2916
 2212SOL    HW1 6887   4.311   4.313   2.793  0.3639 -0.3024 -0.3837
 2212SOL    HW2 6888   4.393   4.411   2.711 -0.0626 -0.1446 -0.6248
 2213SOL     OW 6889   5.857   2.007   6.024 -0.2651  0.2093  0.0187
 2213SOL    HW1 6890   5.887   2.098   6.027 -1.1056  0.4625  0.9337
 2213SOL    HW2 6891   5.877   1.979   5.934 -1.7272  1.8810 -0.8890
 2214SOL     OW 6892   4.655   1.242   0.528  0.3452  0.0252  0.0286
 2214SOL    HW1 6893   4.560   1.246   0.544  0.1502 -1.2326 -0.6541
 2214SOL    HW2 6894   4.662   1.239   0.433  1.0057 -0.9712  0.0984
 2215SOL     OW 6895   4.509   2.097   6.061 -0.0171  0.0789  0.0820
 2215SOL    HW1 6896   4.473   2.181   6.088  1.8841  0.6707  0.9040
 2215SOL    HW2 6897   4.445   2.033   6.093 -0.9527  1.1253  0.3975
 2216SOL     OW 6898   0.873   0.699   5.409 -0.4656 -0.0927 -0.2836
 2216SOL    HW1 6899   0.799   0.646   5.382 -1.7794  0.6991  1.5349
 2216SOL    HW2 6900   0.936   0.692   5.337 -2.8235  0.2627 -2.5246
 2217SOL     OW 6901   0.637   1.744   5.422 -0.1967 -0.1989 -0.1980
 2217SOL    HW1 6902   0.638   1.707   5.334 -0.4945 -0.6504 -0.0118
 2217SOL    HW2 6903   0.619   1.837   5.408  0.5391 -0.1108 -0.6659
 2218SOL     OW 6904   5.981   2.843   6.030 -0.2024  0.2479  0.4577
 2218SOL    HW1 6905   5.926   2.821   5.955 -0.4851  1.1535  0.3942
 2218SOL    HW2 6906   5.963   2.935   6.047 -0.1745  0.0385  1.6755
 2219SOL     OW 6907   0.292   1.624   4.300 -0.0413  0.0330 -0.2369
 2219SOL    HW1 6908   0.374   1.622   4.250  0.4479  1.2566  0.4960
 2219SOL    HW2 6909   0.312   1.578   4.381 -0.0547  0.4199 -0.0148
 2220SOL     OW 6910   0.215   0.533   5.094 -0.3528  0.8411 -0.2737
 2220SOL    HW1 6911   0.234   0.454   5.042 -1.1887  0.8835 -0.6660
 2220SOL    HW2 6912   0.137   0.510   5.144 -1.2001  1.7457 -1.1431
 2221SOL     OW 6913   3.160   1.907   0.569 -0.6116 -0.4432  0.2416
 2221SOL    HW1 6914   3.067   1.930   0.578 -1.1356 -2.2703  0.0335
 2221SOL    HW2 6915   3.166   1.819   0.607  0.5515 -1.2970 -1.7696
 2222SOL     OW 6916   3.999   4.879   5.575 -0.2863 -0.5725 -0.0204
 2222SOL    HW1 6917   4.027   4.966   5.602 -1.6851  0.0668 -0.5449
 2222SOL    HW2 6918   3.934   4.853   5.640  0.6980 -1.6038  0.6042
 2223SOL     OW 6919   4.514   3.324   3.742  0.6447 -1.1449  0.7757
 2223SOL    HW1 6920   4.507   3.264   3.817 -0.8712 -1.2693  0.5716
 2223SOL    HW2 6921   4.559   3.273   3.675 -3.0108 -3.1879 -0.3806
 2224SOL     OW 6922   2.215   2.742   2.734 -0.5321  0.5462  0.0839
 2224SOL    HW1 6923   2.243   2.829   2.761  2.4145  0.4305 -2.1460
 2224SOL    HW2 6924   2.140   2.757   2.677 -0.4946  1.5695  0.2943
 2225SOL     OW 6925   6.274   4.740   3.436  1.0151  0.4681  0.5678
 2225SOL    HW1 6926   6.195   4.709   3.481  1.5767  0.0335  1.2835
 2225SOL    HW2 6927   6.301   4.817   3.486 -0.9803  2.9079 -1.8340
 2226SOL     OW 6928   1.423   1.715   1.478  0.2417 -0.2497  0.4653
 2226SOL    HW1 6929   1.507   1.756   1.497 -0.6359  1.5964  0.5947
 2226SOL    HW2 6930   1.403   1.743   1.388 -0.5334 -0.1378  0.6689
 2227SOL     OW 6931   3.522   5.464   1.426 -0.5332  0.4769  0.0584
 2227SOL    HW1 6932   3.484   5.379   1.450 -0.7288  0.5960  0.1764
 2227SOL    HW2 6933   3.474   5.527   1.480 -1.2490  0.7923 -0.9196
 2228SOL     OW 6934   5.462   4.029   0.784 -0.1197  0.0843 -0.1108
 2228SOL    HW1 6935   5.544   4.024   0.834  0.0595 -1.8878 -0.4924
 2228SOL    HW2 6936   5.469   4.110   0.735  1.5277  0.0721  0.0373
 2229SOL     OW 6937   1.200   0.830   5.540 -0.2053 -0.0624 -0.4713
 2229SOL    HW1 6938   1.259   0.766   5.500  0.1911  0.9151 -1.4663
 2229SOL    HW2 6939   1.181   0.893   5.471  0.6525  1.7766  0.8915
 2230SOL     OW 6940   5.731   2.373   4.625  0.2954 -0.3130 -0.4764
 2230SOL    HW1 6941   5.716   2.287   4.586 -0.6979 -0.9087  1.1106
 2230SOL    HW2 6942   5.764   2.427   4.553 -0.3920 -1.6370 -1.8397
 2231SOL     OW 6943   5.013   0.967   0.558 -0.3276 -0.5613 -0.4136
 2231SOL    HW1 6944   4.979   1.055   0.574  0.2735 -0.5225  0.7841
 2231SOL    HW2 6945   4.938   0.909   0.572 -0.9203 -0.2227 -1.9482
 2232SOL     OW 6946   3.379   2.986   1.985  0.0408  0.1895 -0.7578
 2232SOL    HW1 6947   3.375   2.928   1.909  2.7838 -1.1079 -0.0554
 2232SOL    HW2 6948   3.471   2.981   2.014 -0.4305  2.2582  1.3894
 2233SOL     OW 6949   2.144   0.497   2.946 -0.2900 -0.2415 -0.7047
 2233SOL    HW1 6950   2.141   0.554   2.868 -1.3384  0.7672  0.0374
 2233SOL    HW2 6951   2.227   0.519   2.988 -0.5546  0.5755 -0.5773
 2234SOL     OW 6952   4.930   2.051   2.328 -0.2883 -0.6860  0.2915
 2234SOL    HW1 6953   4.981   1.974   2.305  2.9063  0.7714  1.8236
 2234SOL    HW2 6954   4.945   2.062   2.422 -0.9891  1.5180  0.1941
 2235SOL     OW 6955   1.475   1.138   1.115 -0.5118  0.1292  0.0147
 2235SOL    HW1 6956   1.421   1.108   1.188 -2.1916 -2.4186 -2.1380
 2235SOL    HW2 6957   1.417   1.140   1.040  1.2843  2.1601 -1.4691
 2236SOL     OW 6958   3.554   3.671   6.346  0.0310  0.6712 -0.2327
 2236SOL    HW1 6959   3.594   3.589   6.315  0.5435  0.3214  1.2693
 2236SOL    HW2 6960   3.480   3.643   6.400  0.1676  1.1967  0.2353
 2237SOL     OW 6961   5.016   0.780   5.998  0.5728 -0.0231 -0.7199
 2237SOL    HW1 6962   5.019   0.841   5.925 -0.6531 -0.5656 -1.2574
 2237SOL    HW2 6963   5.105   0.745   6.004  0.5193 -0.5360 -2.4625
 2238SOL     OW 6964   0.720   2.409   3.977 -0.0620 -0.1213  0.1591
 2238SOL    HW1 6965   0.780   2.371   4.040 -1.0397  0.7898  1.6967
 2238SOL    HW2 6966   0.633   2.399   4.016 -0.5362  1.9772 -0.1912
 2239SOL     OW 6967   5.850   5.058   4.176 -0.0813  0.7092 -0.6921
 2239SOL    HW1 6968   5.876   5.149   4.157  1.6797  1.2578  3.3165
 2239SOL    HW2 6969   5.819   5.061   4.266  1.7205 -2.8982  0.2202
 2240SOL     OW 6970   0.477   5.200   2.594  0.2477  0.3760 -0.0988
 2240SOL    HW1 6971   0.457   5.287   2.629 -0.5776  0.0824  0.1894
 2240SOL    HW2 6972   0.567   5.184   2.621  1.0247  1.8489 -1.6306
 2241SOL     OW 6973   6.222   5.764   1.617 -0.0295 -0.4013 -0.0146
 2241SOL    HW1 6974   6.195   5.818   1.543 -0.6944 -0.1644  0.3977
 2241SOL    HW2 6975   6.167   5.685   1.610 -1.6170  0.5071  1.3977
 2242SOL     OW 6976   2.225   5.953   1.174 -0.1333  0.4666  0.2057
 2242SOL    HW1 6977   2.234   6.018   1.244 -0.4927  0.7046  0.0344
 2242SOL    HW2 6978   2.242   6.002   1.093  1.8987 -0.1480  0.2148
 2243SOL     OW 6979   2.086   0.295   5.930  0.6832  0.3784 -0.0253
 2243SOL    HW1 6980   2.028   0.252   5.993 -0.3347 -1.1308 -1.8467
 2243SOL    HW2 6981   2.172   0.255   5.944  0.6296  0.5604  0.8383
 2244SOL     OW 6982   0.156   3.398   0.473  0.3786  0.1557 -0.4463
 2244SOL    HW1 6983   0.147   3.305   0.452 -0.5311 -0.0724  0.8847
 2244SOL    HW2 6984   0.217   3.431   0.407  2.2036 -1.7736  0.1753
 2245SOL     OW 6985   5.762   3.170   0.669 -0.1351  0.0398  0.6164
 2245SOL    HW1 6986   5.745   3.104   0.602 -2.1739  0.7146  0.3949
 2245SOL    HW2 6987   5.839   3.217   0.637  0.2043 -1.0018 -0.1705
 2246SOL     OW 6988   3.323   4.627   3.094 -0.2223  0.7281 -0.0473
 2246SOL    HW1 6989   3.231   4.609   3.073 -0.2073 -0.7339  0.9886
 2246SOL    HW2 6990   3.373   4.573   3.031 -0.1500 -0.9818  1.3862
 2247SOL     OW 6991   5.225   6.273   1.353 -0.0454  0.3427 -0.2879
 2247SOL    HW1 6992   5.160   6.293   1.286 -1.4142 -0.9038  0.6222
 2247SOL    HW2 6993   5.256   6.185   1.331 -1.6604 -0.7523  1.5301
 2248SOL     OW 6994   2.167   1.070   2.639  0.6753 -0.0819 -0.0644
 2248SOL    HW1 6995   2.126   1.101   2.720  3.4184  2.3392  0.5636
 2248SOL    HW2 6996   2.101   1.087   2.571 -1.4677 -1.6554  1.5087
 2249SOL     OW 6997   2.592   1.835   0.590  0.8489 -0.5534 -0.2539
 2249SOL    HW1 6998   2.602   1.854   0.497  0.0195  0.0353 -0.2357
 2249SOL    HW2 6999   2.513   1.883   0.616  1.4163 -0.2026  0.8973
 2250SOL     OW 7000   0.925   4.775   0.205 -0.6717  0.2728 -0.2547
 2250SOL    HW1 7001   0.968   4.691   0.189 -0.0244  0.9085 -2.1323
 2250SOL    HW2 7002   0.842   4.753   0.248 -0.2562 -1.2588 -0.2015
 2251SOL     OW 7003   5.607   0.482   0.531  0.2254 -0.6699 -0.3393
 2251SOL    HW1 7004   5.596   0.403   0.478  1.0576 -0.3058 -1.0748
 2251SOL    HW2 7005   5.687   0.523   0.497 -0.6680  0.9514 -0.5567
 2252SOL     OW 7006   5.576   4.173   4.263  0.3775  0.0450  0.2503
 2252SOL    HW1 7007   5.512   4.240   4.287  0.3667 -0.3155  1.2841
 2252SOL    HW2 7008   5.636   4.170   4.337  0.3831 -1.0751  0.2171
 2253SOL     OW 7009   0.957   4.051   1.222  0.4468 -0.1178 -0.2265
 2253SOL    HW1 7010   1.002   4.045   1.306  1.4732 -0.3452 -0.7699
 2253SOL    HW2 7011   0.941   4.144   1.209 -2.0953 -0.2448  1.4056
 2254SOL     OW 7012   4.272   5.200   3.528 -0.2140 -0.3733  0.0143
 2254SOL    HW1 7013   4.268   5.185   3.433 -1.2171 -0.3719  0.0397
 2254SOL    HW2 7014   4.235   5.288   3.539 -0.9750 -0.7447  0.4831
 2255SOL     OW 7015   1.970   0.864   4.731 -0.3330 -0.1996  0.1117
 2255SOL    HW1 7016   1.959   0.789   4.672  0.7246  0.5043 -1.0450
 2255SOL    HW2 7017   2.055   0.850   4.772  1.2039  1.6144 -2.1566
 2256SOL     OW 7018   0.859   4.809   0.928 -0.7425  0.0611  0.5922
 2256SOL    HW1 7019   0.851   4.869   1.003  2.0936  0.1311  0.9378
 2256SOL    HW2 7020   0.914   4.856   0.866 -1.0395 -0.9816 -0.4853
 2257SOL     OW 7021   5.984   1.336   3.656  0.4234  0.3257  0.4507
 2257SOL    HW1 7022   5.956   1.403   3.594 -0.8825  1.0797  1.7863
 2257SOL    HW2 7023   5.922   1.264   3.644  0.8431  0.0170  0.1243
 2258SOL     OW 7024   0.618   2.570   2.961  0.8228  0.5189 -0.0792
 2258SOL    HW1 7025   0.592   2.494   3.014 -0.0166  1.6399  1.1845
 2258SOL    HW2 7026   0.535   2.609   2.934  1.2302 -0.1386 -2.4532
 2259SOL     OW 7027   3.914   3.369   0.670  0.4598 -0.2709 -0.3774
 2259SOL    HW1 7028   3.865   3.306   0.617 -0.2506  1.8133 -2.3532
 2259SOL    HW2 7029   3.916   3.448   0.617  1.9472  1.1745  1.6928
 2260SOL     OW 7030   5.390   5.148   5.343  0.1453  0.0159 -0.0103
 2260SOL    HW1 7031   5.309   5.156   5.293 -0.3167 -0.1811  0.6916
 2260SOL    HW2 7032   5.374   5.076   5.403 -0.0816  1.5278  1.8277
 2261SOL     OW 7033   5.467   2.833   5.378  0.3460  0.6216 -0.1117
 2261SOL    HW1 7034   5.379   2.860   5.406  0.0891 -0.2564 -0.0309
 2261SOL    HW2 7035   5.520   2.913   5.384 -0.2171  0.9417  0.7848
 2262SOL     OW 7036   4.415   5.513   4.287  0.6732 -0.3139 -0.1180
 2262SOL    HW1 7037   4.493   5.550   4.245  0.3779 -0.4925 -0.8414
 2262SOL    HW2 7038   4.448   5.471   4.366  1.0452  1.2750  0.5947
 2263SOL     OW 7039   0.061   5.267   6.040  0.2165 -0.2905 -0.6627
 2263SOL    HW1 7040   0.083   5.210   5.967 -0.3263  0.1030 -1.1379
 2263SOL    HW2 7041   0.022   5.345   6.000 -2.0973 -0.9659  0.1191
 2264SOL     OW 7042   4.308   4.462   0.471  0.3885  0.6395 -0.1090
 2264SOL    HW1 7043   4.371   4.391   0.484  0.1032  0.2752 -0.7211
 2264SOL    HW2 7044   4.289   4.492   0.560 -0.8980 -1.2807  0.3287
 2265SOL     OW 7045   3.845   0.551   3.733 -0.0159 -0.3774 -0.5532
 2265SOL    HW1 7046   3.899   0.631   3.727  1.4772 -1.3470 -0.5592
 2265SOL    HW2 7047   3.775   0.565   3.671  1.0354  0.3547 -1.6235
 2266SOL     OW 7048   4.082   4.656   4.385  0.2897 -0.3194 -0.1842
 2266SOL    HW1 7049   4.109   4.589   4.322 -2.7199 -3.5549  1.6344
 2266SOL    HW2 7050   4.135   4.640   4.462 -0.2121 -0.4117  0.1457
 2267SOL     OW 7051   0.912   0.842   3.007 -0.3836  0.4330  0.1009
 2267SOL    HW1 7052   1.000   0.804   3.013 -0.5230 -0.2103 -1.3667
 2267SOL    HW2 7053   0.858   0.787   3.064 -0.2254 -0.5322 -0.6388
 2268SOL     OW 7054   3.204   3.216   1.972 -0.7160  0.1819  0.3909
 2268SOL    HW1 7055   3.269   3.146   1.978 -0.7273  0.0213 -1.0448
 2268SOL    HW2 7056   3.193   3.231   1.878 -1.4226  1.4587  0.6517
 2269SOL     OW 7057   4.426   0.373   4.714 -0.0683 -0.2863  0.4702
 2269SOL    HW1 7058   4.429   0.335   4.626 -0.8127  0.0018  0.3091
 2269SOL    HW2 7059   4.495   0.327   4.762  1.9125  1.1250 -0.8605
 2270SOL     OW 7060   6.172   4.294   2.976  0.3972  0.4249 -0.2619
 2270SOL    HW1 7061   6.136   4.382   2.963  1.0871  0.6774 -0.5039
 2270SOL    HW2 7062   6.246   4.289   2.915 -1.4939 -1.4598 -2.6725
 2271SOL     OW 7063   3.852   2.914   5.781 -0.3270  0.4784  0.1347
 2271SOL    HW1 7064   3.884   2.993   5.824  0.7788 -0.5282  1.2356
 2271SOL    HW2 7065   3.918   2.848   5.800 -2.1063 -1.2106  0.8484
 2272SOL     OW 7066   5.992   6.301   1.413 -0.0987  0.2229  0.2373
 2272SOL    HW1 7067   5.979   6.250   1.333  0.4280  0.0409  0.2659
 2272SOL    HW2 7068   5.938   6.258   1.479 -0.1073  0.0489  0.1166
 2273SOL     OW 7069   6.325   4.865   0.104 -0.2637  0.1123 -0.1561
 2273SOL    HW1 7070   6.326   4.943   0.048 -2.2152  0.4340  0.1837
 2273SOL    HW2 7071   6.268   4.804   0.058 -0.6817 -0.1856  0.7381
 2274SOL     OW 7072   4.079   0.501   5.780 -0.2383 -0.7941 -0.4071
 2274SOL    HW1 7073   4.152   0.537   5.830 -1.6626 -1.0588  1.9828
 2274SOL    HW2 7074   4.038   0.578   5.740  0.5040 -0.5107 -0.6478
 2275SOL     OW 7075   2.102   5.586   1.471 -0.6745  0.1748  0.1622
 2275SOL    HW1 7076   2.020   5.625   1.441  0.9109  1.7145 -2.6234
 2275SOL    HW2 7077   2.108   5.503   1.424 -0.2321  0.5256 -0.4223
 2276SOL     OW 7078   4.800   4.925   2.566 -0.0300 -0.4346 -0.0543
 2276SOL    HW1 7079   4.761   4.844   2.534 -0.1124 -0.3506 -0.1682
 2276SOL    HW2 7080   4.795   4.919   2.661 -1.4779  0.1401 -0.0826
 2277SOL     OW 7081   1.063   5.095   2.930  0.5033  0.2445  0.0152
 2277SOL    HW1 7082   1.149   5.127   2.957  0.4753  0.7587 -0.4807
 2277SOL    HW2 7083   1.072   5.079   2.836  0.2251 -0.2734  0.0708
 2278SOL     OW 7084   3.696   5.240   5.733  0.5191 -0.4996  0.1653
 2278SOL    HW1 7085   3.762   5.175   5.709  1.4941  0.3585  0.4477
 2278SOL    HW2 7086   3.728   5.279   5.814 -1.8755 -2.1666  2.0715
 2279SOL     OW 7087   4.760   3.253   0.528  0.3398  0.4523  0.0439
 2279SOL    HW1 7088   4.831   3.270   0.466 -0.7464 -0.2908 -1.4784
 2279SOL    HW2 7089   4.801   3.208   0.601  1.8720  2.3933  0.4627
 2280SOL     OW 7090   0.667   4.416   4.793 -0.1864  0.2439  0.3441
 2280SOL    HW1 7091   0.676   4.421   4.888 -2.0036  0.3536  0.5487
 2280SOL    HW2 7092   0.573   4.420   4.778 -0.0101 -0.9764 -1.4008
 2281SOL     OW 7093   5.456   2.889   0.420  0.2734  0.3430 -0.0738
 2281SOL    HW1 7094   5.436   2.797   0.439  1.3498 -0.1241 -1.0735
 2281SOL    HW2 7095   5.433   2.900   0.327 -0.2008  1.2008  0.1326
 2282SOL     OW 7096   1.900   0.065   1.393  0.2517 -0.0911 -0.4104
 2282SOL    HW1 7097   1.856   0.017   1.322  1.0904 -1.4936 -0.0369
 2282SOL    HW2 7098   1.851   0.041   1.472  0.8970 -0.6485 -0.1695
 2283SOL     OW 7099   1.331   1.798   2.466 -0.0180 -0.1412 -0.6060
 2283SOL    HW1 7100   1.378   1.731   2.516 -0.3945  1.5748  2.2300
 2283SOL    HW2 7101   1.246   1.806   2.511 -0.8089  0.7991 -2.1729
 2284SOL     OW 7102   2.606   5.320   1.200 -0.2251 -0.7512 -0.0649
 2284SOL    HW1 7103   2.656   5.301   1.120 -0.0106 -2.7553  0.4874
 2284SOL    HW2 7104   2.564   5.237   1.222 -2.7842  0.5405  0.2405
 2285SOL     OW 7105   5.284   1.329   3.269  0.1217 -0.9102 -0.0514
 2285SOL    HW1 7106   5.223   1.395   3.301  1.1207 -0.0151  0.0367
 2285SOL    HW2 7107   5.319   1.289   3.349  0.0045 -1.1042 -0.0959
 2286SOL     OW 7108   5.886   5.424   5.614  0.6062 -0.0853 -0.2658
 2286SOL    HW1 7109   5.884   5.498   5.553  2.5051 -0.0657 -0.3694
 2286SOL    HW2 7110   5.919   5.351   5.562 -2.8667 -1.5950 -0.6492
 2287SOL     OW 7111   0.147   4.511   4.429 -0.0191  0.2883 -0.0161
 2287SOL    HW1 7112   0.088   4.586   4.417 -1.3725 -0.3969  1.8408
 2287SOL    HW2 7113   0.145   4.465   4.345 -0.6052  1.3426 -0.6000
 2288SOL     OW 7114   2.328   2.712   0.075 -0.2195  0.2960  0.5201
 2288SOL    HW1 7115   2.356   2.766   0.149  0.0567  0.7863  0.0653
 2288SOL    HW2 7116   2.252   2.664   0.108  0.9163 -0.7956  1.6716
 2289SOL     OW 7117   3.225   5.394   2.759 -0.8716  0.4258 -0.3763
 2289SOL    HW1 7118   3.218   5.422   2.668 -1.5879 -1.1950 -0.8635
 2289SOL    HW2 7119   3.304   5.340   2.762 -1.1529  0.0149 -0.1782
 2290SOL     OW 7120   2.267   1.200   2.287  0.1147 -0.3982 -0.1594
 2290SOL    HW1 7121   2.333   1.267   2.308 -0.5679  0.3195 -0.2320
 2290SOL    HW2 7122   2.317   1.121   2.268  0.9973  0.3357 -0.9706
 2291SOL     OW 7123   0.047   2.730   3.504 -0.3797 -0.5329 -0.0291
 2291SOL    HW1 7124  -0.035   2.713   3.552 -0.2208 -1.1136  0.0404
 2291SOL    HW2 7125   0.115   2.723   3.571 -0.3025  0.3483 -0.0062
 2292SOL     OW 7126   1.605   0.145   0.424  0.1958  0.7087  0.5048
 2292SOL    HW1 7127   1.679   0.094   0.391 -1.1057  0.1119 -1.6466
 2292SOL    HW2 7128   1.625   0.235   0.400  1.0961  0.8554  1.6833
 2293SOL     OW 7129   5.654   0.848   2.317 -1.1457 -0.0524 -0.0563
 2293SOL    HW1 7130   5.596   0.773   2.324  1.6075 -2.2163  1.1521
 2293SOL    HW2 7131   5.740   0.811   2.298  0.6473  2.6490  2.0284
 2294SOL     OW 7132   2.915   4.385   6.064 -0.6963 -0.0938  0.3423
 2294SOL    HW1 7133   2.856   4.457   6.041 -0.6992 -0.0341  0.5294
 2294SOL    HW2 7134   2.995   4.429   6.095  0.4322 -0.1417 -2.2510
 2295SOL     OW 7135   5.035   2.946   3.516 -0.0681 -0.3367  0.1989
 2295SOL    HW1 7136   5.074   2.868   3.554  0.2768 -0.8942 -1.2594
 2295SOL    HW2 7137   4.972   2.976   3.582  0.6132 -1.1732  1.2544
 2296SOL     OW 7138   5.759   5.060   4.464  0.4631  0.4203  1.0168
 2296SOL    HW1 7139   5.819   5.006   4.516  1.3468  1.2787  0.9263
 2296SOL    HW2 7140   5.678   5.009   4.460  0.8084 -0.2552  2.1173
 2297SOL     OW 7141   3.922   5.869   1.238 -0.5449  0.1667 -0.3764
 2297SOL    HW1 7142   3.850   5.813   1.266 -1.3029  1.2317 -0.1536
 2297SOL    HW2 7143   3.960   5.903   1.319 -0.3377  0.2943 -0.5249
 2298SOL     OW 7144   5.515   1.014   2.962 -1.0329  0.1513  0.4679
 2298SOL    HW1 7145   5.456   1.009   2.886 -1.6173 -1.6973  1.0061
 2298SOL    HW2 7146   5.534   1.108   2.970 -1.1312  0.4365 -1.8072
 2299SOL     OW 7147   4.562   3.029   0.402 -0.4273 -0.1925 -0.4828
 2299SOL    HW1 7148   4.557   2.947   0.451  0.0670  0.0755  0.0323
 2299SOL    HW2 7149   4.622   3.084   0.453 -0.4104  0.3312 -1.0503
 2300SOL     OW 7150   1.478   4.295   4.545 -0.2986  0.4945  0.1876
 2300SOL    HW1 7151   1.403   4.257   4.498  0.1566  0.3783 -0.4667
 2300SOL    HW2 7152   1.518   4.355   4.482  1.2112 -0.7733 -0.1466
 2301SOL     OW 7153   5.363   4.729   3.778  0.5718 -0.5402 -0.1566
 2301SOL    HW1 7154   5.416   4.731   3.858 -2.4960  0.2963  2.0230
 2301SOL    HW2 7155   5.385   4.810   3.733  2.7498 -1.2774 -0.5112
 2302SOL     OW 7156   4.057   1.754   3.104 -0.2661  0.1102 -0.3718
 2302SOL    HW1 7157   3.991   1.814   3.139 -0.5429  2.0667 -3.7700
 2302SOL    HW2 7158   4.026   1.667   3.129 -2.0163  1.1315  1.3782
 2303SOL     OW 7159   0.352   0.447   0.577  0.1237  0.0885 -0.2504
 2303SOL    HW1 7160   0.325   0.371   0.526  1.5414 -0.9101  0.4427
 2303SOL    HW2 7161   0.402   0.501   0.516 -0.9553  0.5401 -0.7653
 2304SOL     OW 7162   3.428   4.512   3.313 -0.4388  0.3057 -0.1615
 2304SOL    HW1 7163   3.468   4.453   3.249 -0.6601  0.4426 -0.4302
 2304SOL    HW2 7164   3.394   4.584   3.260  0.1648  0.8646  0.2020
 2305SOL     OW 7165   2.013   2.816   0.127 -0.2775  0.4568  0.4899
 2305SOL    HW1 7166   2.055   2.854   0.050 -1.4127  2.5523  0.8420
 2305SOL    HW2 7167   1.946   2.880   0.152 -2.3887 -1.8173  1.0914
 2306SOL     OW 7168   0.063   2.121   3.931  0.2997  0.1925  0.2012
 2306SOL    HW1 7169   0.069   2.205   3.977 -1.2807  0.4802 -0.0591
 2306SOL    HW2 7170   0.051   2.145   3.839 -4.7789 -0.0250  0.5244
 2307SOL     OW 7171   1.967   3.549   0.455 -0.4644 -0.3474 -0.1492
 2307SOL    HW1 7172   1.927   3.463   0.467 -1.3600  0.1245  0.3350
 2307SOL    HW2 7173   1.940   3.576   0.367 -1.5054  0.1090  0.2995
 2308SOL     OW 7174   5.876   3.176   1.583 -0.4015  0.2532 -0.1904
 2308SOL    HW1 7175   5.917   3.091   1.599  1.6274  1.2803  0.4025
 2308SOL    HW2 7176   5.817   3.160   1.510  0.1929 -1.5875 -0.3425
 2309SOL     OW 7177   4.094   5.175   0.194  0.5507 -0.0633 -0.0907
 2309SOL    HW1 7178   4.025   5.125   0.150 -0.4788  1.9663 -0.9017
 2309SOL    HW2 7179   4.047   5.232   0.255  1.8486 -1.7062  2.6320
 2310SOL     OW 7180   5.081   1.804   0.195 -0.3384 -0.2573 -0.6534
 2310SOL    HW1 7181   5.102   1.823   0.104 -1.0955 -0.9617 -0.9883
 2310SOL    HW2 7182   5.143   1.856   0.246  2.2140 -2.1986 -1.5600
 2311SOL     OW 7183   4.697   5.716   2.165 -0.2577 -0.0442  0.2190
 2311SOL    HW1 7184   4.638   5.747   2.233 -0.2154  0.8505 -0.1357
 2311SOL    HW2 7185   4.773   5.775   2.170  0.1044 -0.4787 -0.0653
 2312SOL     OW 7186   3.407   3.156   3.768  0.5531  0.0848  0.0869
 2312SOL    HW1 7187   3.346   3.230   3.764  0.0547 -0.3809 -1.9566
 2312SOL    HW2 7188   3.447   3.153   3.681  0.3383 -2.2247  0.0070
 2313SOL     OW 7189   4.089   3.879   2.557  0.0949  0.7275 -0.1408
 2313SOL    HW1 7190   3.995   3.865   2.570  0.1195  2.1750  1.9977
 2313SOL    HW2 7191   4.094   3.960   2.505  0.1860 -0.4718 -2.1151
 2314SOL     OW 7192   5.819   0.978   3.856 -0.3364 -0.5815  0.1795
 2314SOL    HW1 7193   5.820   0.888   3.890  0.6460  0.1427  2.2207
 2314SOL    HW2 7194   5.911   1.004   3.856 -0.6098  0.4128 -0.4484
 2315SOL     OW 7195   3.100   4.365   1.520 -0.4863  0.3758 -0.4606
 2315SOL    HW1 7196   3.114   4.296   1.456 -2.0688 -2.8448  2.3639
 2315SOL    HW2 7197   3.188   4.387   1.551  0.0066 -1.8832 -0.0678
 2316SOL     OW 7198   1.539   2.088   1.959 -0.7565  0.8254  0.1041
 2316SOL    HW1 7199   1.627   2.050   1.967 -0.9656  0.3911  0.3658
 2316SOL    HW2 7200   1.554   2.182   1.957 -0.1597  0.7224 -1.3520
 2317SOL     OW 7201   5.413   3.730   2.131  0.3623  0.1406  0.1494
 2317SOL    HW1 7202   5.382   3.771   2.050  0.3825  2.1042  1.0705
 2317SOL    HW2 7203   5.338   3.735   2.191  0.8011  0.0686  0.7144
 2318SOL     OW 7204   3.523   4.908   4.768  0.1689 -0.0481 -0.0863
 2318SOL    HW1 7205   3.590   4.921   4.701  0.6368 -4.1857 -0.7134
 2318SOL    HW2 7206   3.440   4.925   4.722  0.6321  0.8058 -0.6107
 2319SOL     OW 7207   1.604   2.453   0.977  0.5637 -0.5265 -0.3902
 2319SOL    HW1 7208   1.530   2.490   0.930 -0.7039 -1.4977  0.7787
 2319SOL    HW2 7209   1.568   2.424   1.061  2.6432  0.7316  1.0491
 2320SOL     OW 7210   5.445   5.287   3.234 -0.0966 -0.4929  0.5151
 2320SOL    HW1 7211   5.390   5.251   3.304 -0.2049 -1.8374 -0.2271
 2320SOL    HW2 7212   5.385   5.303   3.162  0.1416  0.1532  0.4544
 2321SOL     OW 7213   5.399   6.326   5.840 -0.1284  0.4655 -0.4823
 2321SOL    HW1 7214   5.452   6.306   5.763  2.1199 -0.4577  1.1991
 2321SOL    HW2 7215   5.410   6.420   5.853  0.6358  0.3832 -0.4994
 2322SOL     OW 7216   2.421   3.867   0.636  0.6310 -0.0048  1.0336
 2322SOL    HW1 7217   2.336   3.894   0.601  0.6867  0.1471  1.0186
 2322SOL    HW2 7218   2.472   3.843   0.558  0.2494 -1.1036  1.1062
 2323SOL     OW 7219   1.683   4.069   2.632  0.0553  0.2125 -0.4465
 2323SOL    HW1 7220   1.727   4.137   2.684 -1.5552  1.0707 -0.1366
 2323SOL    HW2 7221   1.623   4.027   2.694  1.9859 -2.5224 -0.2569
 2324SOL     OW 7222   5.969   1.068   3.373  0.2322  0.0476 -0.6764
 2324SOL    HW1 7223   6.002   0.980   3.356 -0.6509 -0.1388 -1.5789
 2324SOL    HW2 7224   5.921   1.091   3.293  0.1275  1.1984 -0.3037
 2325SOL     OW 7225   3.836   2.183   0.693  0.1586 -0.3863  0.2048
 2325SOL    HW1 7226   3.794   2.098   0.707 -1.2279  0.0738 -0.9817
 2325SOL    HW2 7227   3.928   2.168   0.717 -0.4418 -1.6883  1.8769
 2326SOL     OW 7228   1.747   2.546   2.255 -0.9159 -0.2970  0.1334
 2326SOL    HW1 7229   1.667   2.556   2.306 -1.0659  0.8374 -0.2947
 2326SOL    HW2 7230   1.818   2.561   2.317 -0.9151 -2.8794  0.8991
 2327SOL     OW 7231   4.121   4.604   1.137  0.0971 -0.1238 -0.2224
 2327SOL    HW1 7232   4.108   4.510   1.128  1.8280 -0.2789 -1.5835
 2327SOL    HW2 7233   4.061   4.643   1.074 -0.4723 -0.2976  0.1970
 2328SOL     OW 7234   6.300   0.827   1.953 -0.5177 -0.2778  0.2137
 2328SOL    HW1 7235   6.351   0.755   1.990 -0.1944  0.8290  2.1134
 2328SOL    HW2 7236   6.236   0.785   1.896  1.2528 -1.8506 -0.7052
 2329SOL     OW 7237   3.154   0.704   1.960 -0.6696  0.2247  0.2299
 2329SOL    HW1 7238   3.143   0.665   1.873  2.7396 -0.0763 -0.1846
 2329SOL    HW2 7239   3.073   0.682   2.006 -1.6204 -1.6168 -2.1077
 2330SOL     OW 7240   2.810   3.195   1.175  0.0972  0.1485 -0.1138
 2330SOL    HW1 7241   2.809   3.285   1.208 -0.0114 -0.2220  0.9572
 2330SOL    HW2 7242   2.744   3.194   1.106  0.3681  0.9770 -0.3969
 2331SOL     OW 7243   0.203   6.007   1.368  0.6717 -0.0089  0.0558
 2331SOL    HW1 7244   0.196   6.095   1.406  0.7760 -0.2418  0.6196
 2331SOL    HW2 7245   0.240   6.022   1.281  2.4479  0.3559  0.8424
 2332SOL     OW 7246   4.701   5.720   1.504 -0.1661 -0.5381  0.3659
 2332SOL    HW1 7247   4.649   5.639   1.501 -1.3891  0.1748  1.2882
 2332SOL    HW2 7248   4.644   5.786   1.464  1.0513 -0.2154 -0.9231
 2333SOL     OW 7249   1.670   5.001   5.119 -0.2467  1.1016 -0.4239
 2333SOL    HW1 7250   1.645   5.015   5.028 -1.2838  2.0754 -0.0088
 2333SOL    HW2 7251   1.715   5.081   5.145 -1.5585  1.5870  0.4346
 2334SOL     OW 7252   5.219   4.298   1.500  0.0140 -0.4460  0.1207
 2334SOL    HW1 7253   5.306   4.266   1.478  0.7773  1.4213  0.2068
 2334SOL    HW2 7254   5.163   4.269   1.427  1.3496  0.8748 -1.5203
 2335SOL     OW 7255   2.511   1.336   2.269  0.5171 -0.2965  0.3834
 2335SOL    HW1 7256   2.593   1.327   2.317  0.1271 -2.9342  0.7409
 2335SOL    HW2 7257   2.521   1.278   2.193 -0.1794  1.1467 -0.8628
 2336SOL     OW 7258   0.522   1.072   0.218  0.1353 -0.1349 -0.0082
 2336SOL    HW1 7259   0.489   1.014   0.287  0.2051 -0.7026 -0.4448
 2336SOL    HW2 7260   0.497   1.029   0.136 -0.1570  0.6522 -0.3419
 2337SOL     OW 7261   3.725   0.482   6.118 -0.2108  0.1372  0.2512
 2337SOL    HW1 7262   3.662   0.434   6.172 -0.3749 -0.7813 -0.7343
 2337SOL    HW2 7263   3.796   0.421   6.103  0.8529  1.0933  1.1599
 2338SOL     OW 7264   5.076   0.408   4.580  0.4349  0.2057  0.1041
 2338SOL    HW1 7265   5.132   0.330   4.579  0.0392 -0.0830 -1.1208
 2338SOL    HW2 7266   4.988   0.375   4.562  0.3762  1.0106 -1.1572
 2339SOL     OW 7267   2.774   3.487   5.985 -0.3986  0.1412 -0.1375
 2339SOL    HW1 7268   2.783   3.513   6.077 -2.4982  0.4650  0.0188
 2339SOL    HW2 7269   2.724   3.558   5.945  0.4880 -0.0020 -1.5558
 2340SOL     OW 7270   4.369   0.473   0.090 -0.4546 -0.2294  0.1673
 2340SOL    HW1 7271   4.356   0.559   0.130 -1.2325  0.1885 -0.9415
 2340SOL    HW2 7272   4.451   0.480   0.043 -1.0537  0.2806 -0.8301
 2341SOL     OW 7273   3.316   0.110   2.533  0.3246 -0.3199  0.2388
 2341SOL    HW1 7274   3.278   0.125   2.620  0.8500 -0.4545  0.4936
 2341SOL    HW2 7275   3.247   0.136   2.472 -0.2357 -0.7203  0.6982
 2342SOL     OW 7276   3.194   1.785   5.164 -0.1471 -0.7126 -0.2227
 2342SOL    HW1 7277   3.197   1.789   5.069  1.1343 -2.5612 -0.3167
 2342SOL    HW2 7278   3.114   1.737   5.184  0.9205 -2.7502 -0.5525
 2343SOL     OW 7279   6.166   3.140   1.451  0.6137  0.3140  0.7658
 2343SOL    HW1 7280   6.202   3.071   1.507  0.1646 -0.6372 -0.0728
 2343SOL    HW2 7281   6.241   3.176   1.405  0.6370 -0.9952 -0.2591
 2344SOL     OW 7282   0.273   0.298   0.161 -0.1438  0.3191  0.1933
 2344SOL    HW1 7283   0.327   0.227   0.126  2.5902  2.9834 -1.4860
 2344SOL    HW2 7284   0.213   0.320   0.090 -1.1407 -0.3684  0.7931
 2345SOL     OW 7285   5.342   0.412   1.515 -0.1763  0.0774 -0.1967
 2345SOL    HW1 7286   5.298   0.475   1.458 -1.5925 -1.4588 -0.8877
 2345SOL    HW2 7287   5.432   0.410   1.482  0.4693  3.0905  1.0826
 2346SOL     OW 7288   3.374   0.496   5.660 -0.7372 -1.0595  0.4106
 2346SOL    HW1 7289   3.389   0.457   5.574 -2.7406 -3.2089  0.9099
 2346SOL    HW2 7290   3.416   0.436   5.722  0.9959  0.6474  0.9774
 2347SOL     OW 7291   1.110   6.212   0.094 -0.2632  0.0086 -0.6462
 2347SOL    HW1 7292   1.159   6.131   0.110 -2.5667 -1.3215  0.1205
 2347SOL    HW2 7293   1.106   6.219  -0.002 -0.9632 -1.4326 -0.7554
 2348SOL     OW 7294   1.824   4.625   2.287 -0.3609 -0.6560 -0.8534
 2348SOL    HW1 7295   1.742   4.590   2.322  0.1948 -1.9457 -0.7628
 2348SOL    HW2 7296   1.800   4.668   2.205 -1.6618  2.1712  0.8651
 2349SOL     OW 7297   2.125   5.460   0.437 -0.5633 -0.4322  0.2053
 2349SOL    HW1 7298   2.043   5.505   0.457  0.0225  0.5907  0.3726
 2349SOL    HW2 7299   2.121   5.379   0.487 -1.2360 -0.1402  0.6400
 2350SOL     OW 7300   3.864   1.055   0.838 -0.3426  0.6775 -0.1265
 2350SOL    HW1 7301   3.934   1.044   0.903 -1.5156  3.2647  1.7683
 2350SOL    HW2 7302   3.897   1.123   0.779 -1.1792  1.8946  0.7641
 2351SOL     OW 7303   2.540   2.833   3.527 -0.2529  0.4260 -0.4188
 2351SOL    HW1 7304   2.482   2.868   3.596  0.1500 -0.0379  0.1662
 2351SOL    HW2 7305   2.537   2.738   3.540  1.2032  0.4304  0.0838
 2352SOL     OW 7306   0.535   2.028   3.522 -0.7528  0.6229  0.3101
 2352SOL    HW1 7307   0.510   2.056   3.611 -1.8745  0.8083 -0.0414
 2352SOL    HW2 7308   0.562   2.109   3.479 -0.5731  0.5941  0.3692
 2353SOL     OW 7309   1.583   3.368   4.572  0.3405 -0.3456  0.3778
 2353SOL    HW1 7310   1.516   3.301   4.568 -0.8275  0.7854  0.2616
 2353SOL    HW2 7311   1.608   3.372   4.665  0.1099 -0.6490  0.4526
 2354SOL     OW 7312   2.271   3.344   3.205  0.7682  0.2403  0.2127
 2354SOL    HW1 7313   2.268   3.416   3.142  1.2352 -0.2628 -0.4006
 2354SOL    HW2 7314   2.350   3.296   3.182  0.8651 -0.0382  1.1006
 2355SOL     OW 7315   5.380   3.660   4.127 -0.2193 -0.0157 -0.2652
 2355SOL    HW1 7316   5.307   3.698   4.077 -0.0473 -0.8509 -1.1696
 2355SOL    HW2 7317   5.405   3.730   4.188 -1.1817  0.6117 -0.5585
 2356SOL     OW 7318   3.479   0.653   0.858 -0.0894 -0.1026 -0.0819
 2356SOL    HW1 7319   3.564   0.663   0.815  0.3397 -1.4152  0.4047
 2356SOL    HW2 7320   3.482   0.713   0.932  0.1804  0.2987 -0.4165
 2357SOL     OW 7321   2.395   5.639   5.212  1.0181  0.2324  0.8411
 2357SOL    HW1 7322   2.460   5.583   5.169  0.1589  0.1169 -0.3527
 2357SOL    HW2 7323   2.345   5.580   5.268 -0.0806 -0.2885 -0.6421
 2358SOL     OW 7324   0.715   5.592   0.135 -0.5899 -0.2459  0.1267
 2358SOL    HW1 7325   0.649   5.616   0.199  0.3560  0.1737  0.9780
 2358SOL    HW2 7326   0.762   5.673   0.117 -0.1827 -0.5703 -0.3063
 2359SOL     OW 7327   4.097   6.031   4.978  0.0711 -0.1241 -0.4051
 2359SOL    HW1 7328   4.081   6.007   5.070 -0.5800 -1.5070 -0.8506
 2359SOL    HW2 7329   4.009   6.047   4.943  0.4483  3.5268 -0.0560
 2360SOL     OW 7330   4.408   3.206   2.487  0.0064 -0.3480 -0.0282
 2360SOL    HW1 7331   4.460   3.287   2.485 -1.8200  0.9023  0.4228
 2360SOL    HW2 7332   4.401   3.185   2.580 -0.2890 -0.4906 -0.0810
 2361SOL     OW 7333   2.342   3.368   5.000  0.7375 -0.0661 -0.1408
 2361SOL    HW1 7334   2.388   3.344   4.919  1.1827  1.6021 -0.4328
 2361SOL    HW2 7335   2.295   3.448   4.977  0.3175  0.0537  1.0784
 2362SOL     OW 7336   6.152   1.311   2.887 -0.5031 -0.4785 -0.2852
 2362SOL    HW1 7337   6.090   1.263   2.832  0.6715 -2.1542 -0.2085
 2362SOL    HW2 7338   6.210   1.355   2.825 -0.2342 -0.9622 -0.3787
 2363SOL     OW 7339   6.197   3.327   3.132  0.1792  0.0314  0.2329
 2363SOL    HW1 7340   6.152   3.362   3.208 -0.5841  0.1598 -0.2681
 2363SOL    HW2 7341   6.281   3.296   3.166 -0.4149 -0.5172  1.2367
 2364SOL     OW 7342   2.727   3.659   3.262 -0.4224 -0.0357  0.2867
 2364SOL    HW1 7343   2.809   3.653   3.310 -1.0385  0.9099  1.4854
 2364SOL    HW2 7344   2.725   3.748   3.229 -0.3539 -0.4546 -0.9232
 2365SOL     OW 7345   2.009   3.552   3.399  0.0768  0.3800 -0.2559
 2365SOL    HW1 7346   2.007   3.484   3.467  1.7198  0.1531 -0.4036
 2365SOL    HW2 7347   2.000   3.505   3.317 -2.0595  0.6677 -0.2610
 2366SOL     OW 7348   5.575   5.052   4.085 -0.2182 -0.3894 -0.0747
 2366SOL    HW1 7349   5.567   5.128   4.143  0.3292 -1.3857  1.3837
 2366SOL    HW2 7350   5.664   5.058   4.050 -0.9321  0.8303 -1.7609
 2367SOL     OW 7351   5.592   0.466   3.514 -0.2975 -0.2525 -0.2546
 2367SOL    HW1 7352   5.646   0.391   3.540 -0.4152  0.2192  1.5310
 2367SOL    HW2 7353   5.653   0.528   3.476 -0.1720 -1.1586 -1.5844
 2368SOL     OW 7354   1.993   4.042   1.633 -0.8776 -0.1289 -0.3668
 2368SOL    HW1 7355   1.914   4.096   1.641 -0.1743  0.7779  0.7030
 2368SOL    HW2 7356   2.065   4.104   1.636  0.0163 -1.1545  2.1852
 2369SOL     OW 7357   1.129   1.201   4.595 -0.0369  0.4638  0.1080
 2369SOL    HW1 7358   1.153   1.175   4.506  0.5842  0.6146  0.2297
 2369SOL    HW2 7359   1.036   1.177   4.602  0.3052 -1.0186 -0.0435
 2370SOL     OW 7360   5.537   0.536   5.405 -0.2253  0.2147 -0.1660
 2370SOL    HW1 7361   5.539   0.449   5.366  1.8346 -0.4831  1.3653
 2370SOL    HW2 7362   5.559   0.595   5.332  1.6842 -0.8892 -0.5515
 2371SOL     OW 7363   4.540   6.274   1.662  0.2903 -0.1354  0.0628
 2371SOL    HW1 7364   4.629   6.237   1.661 -0.1650 -1.2765 -1.3708
 2371SOL    HW2 7365   4.484   6.200   1.685 -0.3369  0.4842  0.5438
 2372SOL     OW 7366   2.429   1.216   3.725  0.1594  0.5316  0.5434
 2372SOL    HW1 7367   2.474   1.261   3.797  0.1725  2.1186 -0.4031
 2372SOL    HW2 7368   2.498   1.193   3.664  0.1390 -0.7541  0.9795
 2373SOL     OW 7369   0.683   2.839   0.591  0.2304 -0.2518 -0.0726
 2373SOL    HW1 7370   0.642   2.843   0.678 -1.3613  2.6734 -0.8188
 2373SOL    HW2 7371   0.617   2.799   0.535  0.6775 -0.7512 -0.2575
 2374SOL     OW 7372   4.770   5.514   0.312 -0.2883 -0.1849 -0.5843
 2374SOL    HW1 7373   4.788   5.462   0.390  0.1624 -1.6800 -1.6474
 2374SOL    HW2 7374   4.679   5.543   0.323 -0.1692 -0.1923  0.5668
 2375SOL     OW 7375   3.449   2.754   0.537 -0.1222 -0.3186 -0.6689
 2375SOL    HW1 7376   3.494   2.683   0.582 -0.9499 -0.3556  0.1252
 2375SOL    HW2 7377   3.371   2.772   0.591 -0.3223  0.6761 -1.2555
 2376SOL     OW 7378   3.985   2.387   5.029 -0.0223  0.6252 -0.6619
 2376SOL    HW1 7379   4.052   2.326   4.997  0.2577 -1.0167  2.6417
 2376SOL    HW2 7380   3.903   2.337   5.023  0.0454  0.2435  1.0181
 2377SOL     OW 7381   5.132   0.786   4.834  0.3714  0.1555  0.0796
 2377SOL    HW1 7382   5.155   0.698   4.864 -0.4933  0.4610  1.8004
 2377SOL    HW2 7383   5.169   0.793   4.747  0.6679 -1.8282  0.0097
 2378SOL     OW 7384   4.052   6.342   5.915 -0.1295 -0.2322 -0.7375
 2378SOL    HW1 7385   4.020   6.266   5.866  0.0055  0.1755 -1.4753
 2378SOL    HW2 7386   4.008   6.417   5.874  1.1078  0.2552 -1.2126
 2379SOL     OW 7387   3.121   6.195   5.630  0.1315 -0.5018  0.6070
 2379SOL    HW1 7388   3.033   6.180   5.596  0.5668  1.7179 -1.8794
 2379SOL    HW2 7389   3.119   6.159   5.719 -3.8656  1.0635  1.3924
 2380SOL     OW 7390   2.240   6.326   2.913  0.1106  0.2169 -0.6380
 2380SOL    HW1 7391   2.192   6.332   2.996 -0.4205  0.0325 -0.9257
 2380SOL    HW2 7392   2.196   6.388   2.855 -0.4887 -0.7331 -1.2342
 2381SOL     OW 7393   4.642   2.426   2.473  0.1168  0.6766  0.0445
 2381SOL    HW1 7394   4.692   2.378   2.538 -0.8368  1.7137  1.6147
 2381SOL    HW2 7395   4.595   2.359   2.424  2.5556 -0.2982 -1.1708
 2382SOL     OW 7396   5.264   3.148   0.043 -0.1912 -0.1624 -0.3180
 2382SOL    HW1 7397   5.208   3.224   0.060 -0.4044 -0.4960  0.5232
 2382SOL    HW2 7398   5.332   3.153   0.111  1.1125  0.5190 -1.6241
 2383SOL     OW 7399   1.406   2.088   1.131  0.0698  0.4221  0.2458
 2383SOL    HW1 7400   1.426   2.027   1.060  0.1307 -1.6615  1.9699
 2383SOL    HW2 7401   1.318   2.120   1.111  0.1917  0.0869 -0.8997
 2384SOL     OW 7402   1.438   4.744   2.408  0.2412  0.5602  0.1440
 2384SOL    HW1 7403   1.346   4.737   2.435  0.5746  0.3925  1.2862
 2384SOL    HW2 7404   1.481   4.788   2.482  0.6646  2.7721 -1.3326
 2385SOL     OW 7405   0.396   1.428   2.692 -0.4614 -0.3377 -0.6996
 2385SOL    HW1 7406   0.407   1.346   2.643 -1.1235 -0.1426 -1.1810
 2385SOL    HW2 7407   0.314   1.417   2.740 -0.4920 -0.0050 -0.6729
 2386SOL     OW 7408   4.699   0.215   2.782 -0.1945 -0.1582  0.2817
 2386SOL    HW1 7409   4.705   0.144   2.846  3.4264 -2.4058 -2.1462
 2386SOL    HW2 7410   4.787   0.250   2.776 -0.6689  0.8605 -2.4041
 2387SOL     OW 7411   3.474   1.660   1.057 -0.6467  0.3479 -0.1665
 2387SOL    HW1 7412   3.388   1.637   1.023 -0.0843 -0.7374 -0.9366
 2387SOL    HW2 7413   3.530   1.661   0.979  0.3328 -0.5388  0.4982
 2388SOL     OW 7414   5.811   0.412   5.214 -0.4773 -0.4986  0.0580
 2388SOL    HW1 7415   5.722   0.424   5.181 -0.7609 -2.3685  0.0191
 2388SOL    HW2 7416   5.800   0.400   5.309 -0.3350 -1.2149 -0.0100
 2389SOL     OW 7417   3.425   5.587   3.290  0.2422 -0.3351  0.1522
 2389SOL    HW1 7418   3.428   5.613   3.199  0.0978 -0.6978  0.0410
 2389SOL    HW2 7419   3.515   5.562   3.311  0.5548  0.9723  0.4860
 2390SOL     OW 7420   3.460   3.246   0.031  0.7408  0.0138  0.0884
 2390SOL    HW1 7421   3.393   3.195  -0.016  0.1712  0.3795  0.5035
 2390SOL    HW2 7422   3.449   3.335  -0.001  0.3144  0.2782  0.9469
 2391SOL     OW 7423   2.627   6.340   1.429  0.4951 -0.3713  0.3829
 2391SOL    HW1 7424   2.718   6.333   1.457  1.2939  1.1146 -1.7003
 2391SOL    HW2 7425   2.631   6.359   1.336 -1.9310  0.8370  0.4500
 2392SOL     OW 7426   1.789   2.671   2.020  0.2071  0.0197 -0.1143
 2392SOL    HW1 7427   1.783   2.627   1.936  0.6999 -0.2286 -0.0197
 2392SOL    HW2 7428   1.778   2.601   2.085  0.3859  0.1267  0.0322
 2393SOL     OW 7429   3.298   4.380   0.033 -0.3719 -0.0975  0.4205
 2393SOL    HW1 7430   3.384   4.362  -0.007 -0.6022 -1.0137  0.3033
 2393SOL    HW2 7431   3.312   4.458   0.086  0.5711 -0.2883  0.4826
 2394SOL     OW 7432   3.627   3.470   5.355  0.2134 -0.1548  0.7621
 2394SOL    HW1 7433   3.583   3.387   5.339 -0.0628  0.4109 -2.0397
 2394SOL    HW2 7434   3.563   3.522   5.403 -1.4815 -0.0840 -1.3848
 2395SOL     OW 7435   0.806   3.700   1.885 -0.4943 -0.2411 -0.1149
 2395SOL    HW1 7436   0.789   3.784   1.844  0.7692  0.3172  0.4495
 2395SOL    HW2 7437   0.857   3.721   1.963 -0.2055 -1.5201  0.0699
 2396SOL     OW 7438   1.095   3.437   1.766  0.2005 -0.4506  0.2679
 2396SOL    HW1 7439   1.082   3.363   1.707 -0.7027 -0.9328  1.0396
 2396SOL    HW2 7440   1.006   3.465   1.789  0.4557  1.9059 -1.2355
 2397SOL     OW 7441   2.873   5.024   1.285  0.3240  0.6685  0.2983
 2397SOL    HW1 7442   2.924   5.102   1.262  0.6106  0.3822 -0.0427
 2397SOL    HW2 7443   2.789   5.036   1.241  1.0615 -0.1462 -1.4257
 2398SOL     OW 7444   1.540   5.753   2.772  0.4610  0.1084 -0.0728
 2398SOL    HW1 7445   1.569   5.724   2.686 -0.6305 -0.0544 -0.4079
 2398SOL    HW2 7446   1.498   5.838   2.757  0.5588  0.2372  0.3485
 2399SOL     OW 7447   3.131   2.170   4.308  0.3510 -0.0222  0.0281
 2399SOL    HW1 7448   3.136   2.262   4.333  0.2435  0.1000 -0.4007
 2399SOL    HW2 7449   3.067   2.133   4.369  0.2317  0.2337  0.0605
 2400SOL     OW 7450   1.132   2.130   4.600  0.2399 -0.0215  0.4221
 2400SOL    HW1 7451   1.091   2.113   4.516  1.5824 -0.1816 -0.2143
 2400SOL    HW2 7452   1.118   2.224   4.615  1.6968  0.4531 -0.9469
 2401SOL     OW 7453   4.827   3.009   3.729  0.0006  0.3572 -0.2140
 2401SOL    HW1 7454   4.876   3.049   3.801  1.6082  1.2653 -1.7382
 2401SOL    HW2 7455   4.766   2.949   3.772  0.7040  1.0732  1.9045
 2402SOL     OW 7456   5.033   0.251   0.046 -0.1597 -0.3501  0.3501
 2402SOL    HW1 7457   5.050   0.158   0.059  3.1652  0.1722  0.7157
 2402SOL    HW2 7458   5.014   0.284   0.134 -0.1234 -0.4957  0.4144
 2403SOL     OW 7459   0.688   3.064   4.982 -0.0354  0.2694  0.1268
 2403SOL    HW1 7460   0.646   3.037   5.064  2.2665  2.5581  2.2163
 2403SOL    HW2 7461   0.780   3.038   4.993  0.4587  1.2830 -1.4200
 2404SOL     OW 7462   0.921   2.272   3.098  0.2017  0.0316  0.5270
 2404SOL    HW1 7463   0.868   2.211   3.150  0.2910 -0.5597 -0.0488
 2404SOL    HW2 7464   0.924   2.231   3.011  0.3262  0.8327  0.1504
 2405SOL     OW 7465   2.295   6.304   2.051  0.5803  0.2917 -0.0139
 2405SOL    HW1 7466   2.260   6.289   1.963 -0.0393  1.8653 -0.0725
 2405SOL    HW2 7467   2.352   6.381   2.041  0.3652  0.5931  0.9899
 2406SOL     OW 7468   2.920   2.656   0.503 -0.7000 -0.3210 -0.0767
 2406SOL    HW1 7469   2.862   2.598   0.553  0.4624  0.5943  2.5540
 2406SOL    HW2 7470   3.008   2.621   0.519  0.0110  1.9756  1.4697
 2407SOL     OW 7471   3.322   2.393   0.584 -0.2314 -0.4759  0.0667
 2407SOL    HW1 7472   3.233   2.400   0.550 -0.1099  1.1341 -0.0128
 2407SOL    HW2 7473   3.378   2.390   0.506 -0.2446 -2.6968  0.0925
 2408SOL     OW 7474   3.230   2.992   2.720  0.0318  0.2549 -0.6462
 2408SOL    HW1 7475   3.282   2.989   2.640 -0.5730 -1.3142 -1.0111
 2408SOL    HW2 7476   3.283   2.945   2.785 -0.2750 -0.0656 -0.6240
 2409SOL     OW 7477   1.845   3.039   2.781 -0.0998 -0.6144  0.2112
 2409SOL    HW1 7478   1.876   3.061   2.869 -0.4927  0.5181  0.0788
 2409SOL    HW2 7479   1.792   2.960   2.794 -0.4792 -0.2340  1.0680
 2410SOL     OW 7480   0.277   5.417   1.273  0.1071  0.1249 -0.1449
 2410SOL    HW1 7481   0.219   5.379   1.340  1.7629 -0.6299  0.9424
 2410SOL    HW2 7482   0.252   5.509   1.269 -1.7878 -0.3432 -0.4257
 2411SOL     OW 7483   0.341   2.711   2.066 -0.2385  0.2505 -0.3119
 2411SOL    HW1 7484   0.311   2.722   1.975  0.1451  0.5497 -0.4057
 2411SOL    HW2 7485   0.436   2.704   2.059 -0.3593 -2.2691 -0.1695
 2412SOL     OW 7486   4.191   2.468   4.279  0.3707  0.5750  0.1847
 2412SOL    HW1 7487   4.166   2.537   4.218 -2.1251 -0.3803  0.0137
 2412SOL    HW2 7488   4.129   2.476   4.351 -0.5716 -1.9770 -0.2440
 2413SOL     OW 7489   1.604   4.256   2.828 -0.1438 -0.2057  0.1393
 2413SOL    HW1 7490   1.659   4.231   2.903 -0.2361 -0.3055  0.1752
 2413SOL    HW2 7491   1.514   4.248   2.861 -0.1744  0.1290  0.1331
 2414SOL     OW 7492   3.991   3.907   5.404 -0.0101  0.0604  0.4250
 2414SOL    HW1 7493   4.054   3.866   5.463 -0.2834  0.5896  1.0877
 2414SOL    HW2 7494   3.911   3.856   5.416 -0.4328  0.9591  1.4614
 2415SOL     OW 7495   5.836   1.120   2.237 -0.1004  0.2117  0.2087
 2415SOL    HW1 7496   5.795   1.035   2.252 -0.4392  0.4774  0.8044
 2415SOL    HW2 7497   5.763   1.181   2.225  0.1320  0.5028  0.2481
 2416SOL     OW 7498   0.808   2.942   2.083  0.5084  0.3248 -0.5517
 2416SOL    HW1 7499   0.798   3.030   2.047  1.2338  0.0714 -1.4072
 2416SOL    HW2 7500   0.903   2.928   2.087  0.3965 -0.6681 -1.0777
 2417SOL     OW 7501   3.833   6.076   4.944  0.8649  0.2614 -0.3467
 2417SOL    HW1 7502   3.752   6.049   4.901  0.8334  0.7505 -0.6035
 2417SOL    HW2 7503   3.822   6.170   4.960  0.6107 -0.0291  1.3193
 2418SOL     OW 7504   0.750   5.981   3.469 -0.4707  0.4851  0.4046
 2418SOL    HW1 7505   0.812   5.912   3.492 -0.0071  0.7887  0.0805
 2418SOL    HW2 7506   0.685   5.980   3.539 -0.5268 -0.3474  0.3479
 2419SOL     OW 7507   0.740   4.249   0.640  0.2490  0.2851 -0.3420
 2419SOL    HW1 7508   0.672   4.307   0.674  0.1928  0.8997 -1.4677
 2419SOL    HW2 7509   0.822   4.294   0.662  0.2125  0.6835 -0.9794
 2420SOL     OW 7510   0.725   2.107   1.175  0.6625  0.0460 -0.0598
 2420SOL    HW1 7511   0.656   2.045   1.153  1.1145  0.2009 -2.1242
 2420SOL    HW2 7512   0.793   2.053   1.217 -0.5755 -0.1284  1.8202
 2421SOL     OW 7513   5.030   1.473   5.688 -0.8301 -0.5981  0.0237
 2421SOL    HW1 7514   4.956   1.420   5.717 -1.4669  0.8363  1.1364
 2421SOL    HW2 7515   4.992   1.534   5.624 -0.3786 -0.6137 -0.2651
 2422SOL     OW 7516   4.724   1.605   4.959  0.4645 -0.2019 -0.2575
 2422SOL    HW1 7517   4.631   1.607   4.977  0.3691 -0.3702 -0.7000
 2422SOL    HW2 7518   4.730   1.591   4.864  0.9373 -0.8991 -0.1420
 2423SOL     OW 7519   1.265   1.445   1.710 -0.7692 -0.3184 -0.2178
 2423SOL    HW1 7520   1.268   1.466   1.617 -0.3886 -1.7694 -0.5639
 2423SOL    HW2 7521   1.206   1.369   1.715  1.6268 -2.2842  0.2665
 2424SOL     OW 7522   5.425   4.948   4.771  0.1535  0.3217  0.7730
 2424SOL    HW1 7523   5.414   5.029   4.819 -0.4811 -0.1775  1.4879
 2424SOL    HW2 7524   5.354   4.891   4.801  0.5895 -0.5066  0.3020
 2425SOL     OW 7525   1.631   2.001   0.842 -0.7668  0.5342  0.1113
 2425SOL    HW1 7526   1.561   2.055   0.806  1.2010  1.7457 -2.2504
 2425SOL    HW2 7527   1.676   2.058   0.904 -0.3800  0.6582 -0.2761
 2426SOL     OW 7528   5.912   4.810   0.188 -0.5697  0.1756 -0.8756
 2426SOL    HW1 7529   5.990   4.774   0.145 -1.2512 -1.7078 -0.6354
 2426SOL    HW2 7530   5.932   4.805   0.282 -0.0216  2.0562 -0.8618
 2427SOL     OW 7531   0.302   1.357   3.090  0.2085  0.1618  0.0818
 2427SOL    HW1 7532   0.301   1.322   3.180  1.4007 -0.8844 -0.2902
 2427SOL    HW2 7533   0.293   1.452   3.102 -0.7989 -0.0439  1.2365
 2428SOL     OW 7534   1.504   3.130   1.586 -0.4454 -0.0403  0.5354
 2428SOL    HW1 7535   1.471   3.216   1.559  3.1632  1.1690 -0.6019
 2428SOL    HW2 7536   1.551   3.097   1.510 -0.9122 -2.6281  1.2871
 2429SOL     OW 7537   3.256   1.295   0.904 -0.2125 -0.1274  0.0606
 2429SOL    HW1 7538   3.260   1.200   0.918 -1.4597 -0.2933 -0.5237
 2429SOL    HW2 7539   3.251   1.305   0.809 -1.7252  0.4186  0.1733
 2430SOL     OW 7540   5.773   3.782   3.183  1.2260 -0.4510 -0.4976
 2430SOL    HW1 7541   5.724   3.714   3.229  1.3540 -1.0992 -1.2899
 2430SOL    HW2 7542   5.785   3.851   3.248 -0.5123 -0.3766 -0.2006
 2431SOL     OW 7543   2.556   1.549   0.105 -0.0986 -0.1559 -0.1282
 2431SOL    HW1 7544   2.482   1.489   0.101 -1.0081  0.9920 -3.0751
 2431SOL    HW2 7545   2.609   1.527   0.028  1.8070  0.1190  1.0364
 2432SOL     OW 7546   2.248   0.300   3.183  0.4756 -0.2229  0.8055
 2432SOL    HW1 7547   2.268   0.222   3.133  1.0737 -0.0259  0.7290
 2432SOL    HW2 7548   2.289   0.372   3.134 -1.6331  0.4188 -0.1509
 2433SOL     OW 7549   3.687   0.885   5.536 -0.0913 -0.3759 -0.4596
 2433SOL    HW1 7550   3.664   0.976   5.558 -0.1308 -0.0057 -1.9333
 2433SOL    HW2 7551   3.665   0.835   5.615 -1.3870  0.6871 -0.1068
 2434SOL     OW 7552   6.209   1.442   1.324 -0.8879  0.0848 -0.4082
 2434SOL    HW1 7553   6.294   1.414   1.357 -0.4010  0.3420 -1.3961
 2434SOL    HW2 7554   6.147   1.420   1.394 -0.1599 -1.0127 -0.0880
 2435SOL     OW 7555   3.177   2.496   1.581 -0.1567  0.5320 -0.5854
 2435SOL    HW1 7556   3.107   2.533   1.634 -0.8110 -0.5787 -0.6483
 2435SOL    HW2 7557   3.136   2.422   1.536  1.2871 -0.7434  0.1189
 2436SOL     OW 7558   3.141   2.950   0.373  0.0450 -0.0011  0.0691
 2436SOL    HW1 7559   3.205   2.992   0.316 -0.6929  0.6438 -0.3067
 2436SOL    HW2 7560   3.173   2.967   0.462  0.8002 -0.3644 -0.1272
 2437SOL     OW 7561   3.442   4.008   1.174 -0.0339  0.0387  0.3961
 2437SOL    HW1 7562   3.418   4.029   1.084 -0.4944 -0.4336  0.3989
 2437SOL    HW2 7563   3.435   4.091   1.221 -1.6977 -0.0631  0.3948
 2438SOL     OW 7564   1.039   0.467   0.228  0.2433 -0.4847 -0.5629
 2438SOL    HW1 7565   1.130   0.458   0.256  0.5218 -0.1078 -1.3085
 2438SOL    HW2 7566   1.037   0.430   0.140  0.2455  1.6641 -1.5466
 2439SOL     OW 7567   4.475   1.333   2.373  0.1527 -0.4036  0.0274
 2439SOL    HW1 7568   4.558   1.286   2.376  0.2648 -0.1721  1.6838
 2439SOL    HW2 7569   4.409   1.267   2.391  0.0144 -0.4999 -0.8186
 2440SOL     OW 7570   4.657   2.858   5.882  0.7779 -0.0696  0.1051
 2440SOL    HW1 7571   4.610   2.930   5.840 -0.1079 -0.5968  0.1683
 2440SOL    HW2 7572   4.733   2.842   5.825 -0.2158 -0.5434 -1.1367
 2441SOL     OW 7573   0.077   3.003   3.012  0.0092 -0.2573 -0.1452
 2441SOL    HW1 7574   0.004   3.037   2.960  0.6942 -0.1533 -1.0445
 2441SOL    HW2 7575   0.036   2.978   3.095 -0.5986  2.4173  0.4718
 2442SOL     OW 7576   5.088   4.778   5.732  0.3035  0.1779  0.2140
 2442SOL    HW1 7577   5.031   4.814   5.664  0.8428  2.2018  0.7593
 2442SOL    HW2 7578   5.163   4.743   5.684 -0.3537 -0.4812 -0.3562
 2443SOL     OW 7579   3.191   2.147   4.771 -0.1141  0.4044 -0.2186
 2443SOL    HW1 7580   3.245   2.224   4.787  0.1991  0.1290  0.0863
 2443SOL    HW2 7581   3.244   2.093   4.711 -0.9796  1.1060 -1.6585
 2444SOL     OW 7582   1.441   0.891   4.419  0.2260 -0.1230  0.0015
 2444SOL    HW1 7583   1.485   0.879   4.335  0.7140  0.0150  0.2330
 2444SOL    HW2 7584   1.421   0.802   4.448 -0.8157 -0.1445 -0.7014
 2445SOL     OW 7585   1.645   3.971   5.298 -0.0998  0.3724 -0.0571
 2445SOL    HW1 7586   1.713   3.904   5.290 -2.2435 -2.0688  0.7818
 2445SOL    HW2 7587   1.652   4.002   5.388 -0.2559 -0.0888  0.1168
 2446SOL     OW 7588   6.265   0.510   5.014  0.1224 -0.3585 -0.3836
 2446SOL    HW1 7589   6.262   0.567   5.090  2.3488  1.1867 -1.3562
 2446SOL    HW2 7590   6.258   0.569   4.938 -0.2647 -1.6623 -1.4116
 2447SOL     OW 7591   2.888   2.670   1.186  0.3578  0.2855  0.0342
 2447SOL    HW1 7592   2.863   2.761   1.205  0.2732  0.1002  0.8324
 2447SOL    HW2 7593   2.804   2.624   1.176  0.3779  0.5303 -1.6528
 2448SOL     OW 7594   3.142   4.220   0.222 -0.6042  0.1918 -0.5203
 2448SOL    HW1 7595   3.189   4.248   0.143 -1.7260  0.2867 -1.1760
 2448SOL    HW2 7596   3.082   4.153   0.191 -2.5657  1.6978 -0.1814
 2449SOL     OW 7597   5.190   6.000   4.021  0.6670  0.0892 -1.0237
 2449SOL    HW1 7598   5.279   6.035   4.022  1.2931 -1.4016 -1.6413
 2449SOL    HW2 7599   5.157   6.018   3.933  0.3730  0.5893 -0.8139
 2450SOL     OW 7600   6.023   2.095   1.352 -0.8676  0.1988  0.3112
 2450SOL    HW1 7601   6.050   2.089   1.261  0.0958 -1.6687  0.6585
 2450SOL    HW2 7602   6.073   2.026   1.396 -1.8229  0.6005  2.1245
 2451SOL     OW 7603   3.788   5.533   4.205 -0.1311  0.6185 -0.4607
 2451SOL    HW1 7604   3.871   5.565   4.169 -1.2876  1.6327 -2.3819
 2451SOL    HW2 7605   3.754   5.607   4.255 -0.5634  0.7431 -0.9301
 2452SOL     OW 7606   0.776   6.066   4.084  0.3219 -0.3701  0.2813
 2452SOL    HW1 7607   0.835   6.088   4.156  1.6550  2.7130 -1.5597
 2452SOL    HW2 7608   0.730   5.987   4.114  1.6124  0.0822  3.9598
 2453SOL     OW 7609   5.269   0.347   3.050  0.2451  0.0635  0.3539
 2453SOL    HW1 7610   5.252   0.440   3.031  1.2651 -0.2227 -2.4384
 2453SOL    HW2 7611   5.289   0.345   3.144 -1.4518  2.3749  0.8550
 2454SOL     OW 7612   1.180   6.246   1.686 -0.0994 -0.0990  0.1118
 2454SOL    HW1 7613   1.174   6.291   1.771 -2.8160 -0.5504  0.2504
 2454SOL    HW2 7614   1.202   6.156   1.709  2.4195  0.4330  0.0389
 2455SOL     OW 7615   4.157   4.188   1.593 -0.4429 -0.1773  0.2624
 2455SOL    HW1 7616   4.210   4.258   1.554 -0.5968  0.1845  0.6949
 2455SOL    HW2 7617   4.069   4.202   1.557 -0.2089 -0.9158 -0.6351
 2456SOL     OW 7618   0.187   1.375   2.393  0.0852  0.9837  0.1455
 2456SOL    HW1 7619   0.273   1.363   2.431 -0.3173 -0.9170  0.5591
 2456SOL    HW2 7620   0.183   1.311   2.321 -0.4017  2.1726 -0.9250
 2457SOL     OW 7621   2.131   5.189   0.607  0.2227  0.1590 -0.6486
 2457SOL    HW1 7622   2.145   5.114   0.665  0.5510  2.1720  2.0587
 2457SOL    HW2 7623   2.116   5.150   0.521  4.6188 -2.9433 -0.3816
 2458SOL     OW 7624   3.930   2.236   3.160 -0.1978  0.1304  0.0313
 2458SOL    HW1 7625   3.988   2.262   3.232  1.2273 -0.0658 -1.0057
 2458SOL    HW2 7626   3.989   2.218   3.087 -1.3976 -2.1380 -0.4741
 2459SOL     OW 7627   2.139   1.684   1.110 -0.1809  0.5290 -0.1062
 2459SOL    HW1 7628   2.054   1.658   1.145 -0.5078  0.7806 -0.6994
 2459SOL    HW2 7629   2.163   1.614   1.049  0.5723 -0.1079  0.8857
 2460SOL     OW 7630   3.293   2.019   3.941  0.3285 -0.2407 -0.1729
 2460SOL    HW1 7631   3.366   2.081   3.946 -0.4240  0.5481  1.9911
 2460SOL    HW2 7632   3.327   1.937   3.974  0.1444  0.2525  1.2867
 2461SOL     OW 7633   2.388   0.015   0.982 -0.1403  0.0467  0.0319
 2461SOL    HW1 7634   2.339   0.040   1.060  0.3587 -1.7431  0.9718
 2461SOL    HW2 7635   2.376  -0.080   0.975  1.1858 -0.0708 -1.0945
 2462SOL     OW 7636   2.006   0.367   3.272 -0.8006  0.3278  0.4837
 2462SOL    HW1 7637   2.076   0.348   3.211 -0.2150 -1.2446  1.5901
 2462SOL    HW2 7638   2.050   0.396   3.352 -1.5063  1.4136  0.5008
 2463SOL     OW 7639   3.147   1.267   4.277 -0.2868 -0.1081  0.5622
 2463SOL    HW1 7640   3.135   1.200   4.344 -1.4669  0.0667  0.5424
 2463SOL    HW2 7641   3.085   1.244   4.209  0.3230  0.1905 -0.1107
 2464SOL     OW 7642   0.624   6.192   2.427 -0.3141  0.1095  0.2259
 2464SOL    HW1 7643   0.699   6.187   2.367  0.5678 -1.3150  1.3836
 2464SOL    HW2 7644   0.642   6.268   2.482  1.5368 -1.5034  2.0054
 2465SOL     OW 7645   2.970   1.418   3.406 -0.8347  0.1880  0.6612
 2465SOL    HW1 7646   2.966   1.513   3.420 -0.2339  0.3311 -0.1068
 2465SOL    HW2 7647   2.896   1.384   3.457 -0.2572  0.9295  2.0614
 2466SOL     OW 7648   2.132   2.482   3.952 -0.4088  0.2545 -0.1122
 2466SOL    HW1 7649   2.072   2.531   4.008 -0.6416  0.4634 -0.5386
 2466SOL    HW2 7650   2.087   2.476   3.868  0.4732  1.0729 -0.6763
 2467SOL     OW 7651   3.326   4.208   1.016 -0.3206 -0.1353  0.3969
 2467SOL    HW1 7652   3.247   4.259   0.997  0.6661  1.5497  0.5660
 2467SOL    HW2 7653   3.395   4.274   1.027  0.9147 -1.4970  1.2414
 2468SOL     OW 7654   4.133   1.983   5.920 -0.1217  0.1626 -0.0818
 2468SOL    HW1 7655   4.218   1.939   5.923  0.2696  0.8182 -1.1180
 2468SOL    HW2 7656   4.085   1.948   5.995  0.3361 -1.7007 -0.6042
 2469SOL     OW 7657   1.645   1.547   0.234 -0.0665 -0.8790 -0.0005
 2469SOL    HW1 7658   1.728   1.500   0.224  0.6645  0.1387  0.9414
 2469SOL    HW2 7659   1.671   1.638   0.248 -0.9948 -1.0675  4.8545
 2470SOL     OW 7660   3.003   3.278   4.853  0.0078 -0.0069 -0.3285
 2470SOL    HW1 7661   3.070   3.252   4.915 -0.0975 -1.2730 -0.7321
 2470SOL    HW2 7662   2.921   3.244   4.889 -0.0318 -0.9181 -1.2201
 2471SOL     OW 7663   3.036   1.905   3.869 -0.2573 -0.4424  0.0572
 2471SOL    HW1 7664   3.004   1.931   3.782 -0.8676  1.7946  0.8735
 2471SOL    HW2 7665   3.101   1.971   3.891 -0.4099 -0.7350  1.4603
 2472SOL     OW 7666   3.169   0.003   3.816 -0.2254 -0.2424 -0.6532
 2472SOL    HW1 7667   3.108  -0.011   3.743 -0.1248  1.0055 -1.0105
 2472SOL    HW2 7668   3.195  -0.084   3.843 -3.1640 -0.8959  0.3638
 2473SOL     OW 7669   4.483   2.133   2.552 -0.2427 -0.3979  0.2385
 2473SOL    HW1 7670   4.387   2.127   2.559 -0.8885  4.2102 -1.1401
 2473SOL    HW2 7671   4.510   2.177   2.633  0.0292  1.7953 -0.9542
 2474SOL     OW 7672   0.746   3.026   0.416 -0.1211 -0.6934  0.0307
 2474SOL    HW1 7673   0.687   3.002   0.487 -1.8801 -0.3148 -1.2517
 2474SOL    HW2 7674   0.785   2.944   0.387 -1.0699 -1.1309 -0.0054
 2475SOL     OW 7675   3.386   3.632   0.199  0.3942  0.1936  0.0706
 2475SOL    HW1 7676   3.355   3.592   0.280 -2.3699  0.5867 -0.6860
 2475SOL    HW2 7677   3.409   3.721   0.224 -0.7951  0.4291  0.4101
 2476SOL     OW 7678   6.207   5.669   2.225  0.3611  0.0970 -0.2775
 2476SOL    HW1 7679   6.112   5.675   2.241  0.1771 -2.2429 -0.0964
 2476SOL    HW2 7680   6.217   5.700   2.135 -1.0522 -2.1170 -1.3031
 2477SOL     OW 7681   0.904   2.845   4.831  0.0691 -0.2518  0.0800
 2477SOL    HW1 7682   0.960   2.874   4.903  1.9121  1.2857 -1.8457
 2477SOL    HW2 7683   0.965   2.807   4.767 -1.4584 -1.2417 -0.8384
 2478SOL     OW 7684   3.794   1.249   2.312 -0.3772 -0.1831  0.0940
 2478SOL    HW1 7685   3.718   1.272   2.366 -0.1261 -1.0244  0.8260
 2478SOL    HW2 7686   3.866   1.300   2.351 -0.6275  0.9451 -0.8634
 2479SOL     OW 7687   3.622   0.962   3.246  0.9265  0.1366  0.1800
 2479SOL    HW1 7688   3.715   0.951   3.226  0.6684 -0.2583 -0.8558
 2479SOL    HW2 7689   3.608   1.057   3.241  1.2790  0.2008  0.3830
 2480SOL     OW 7690   4.501   3.794   5.838 -0.1159 -0.4472 -0.7349
 2480SOL    HW1 7691   4.514   3.780   5.744  1.5906  0.0366 -0.6157
 2480SOL    HW2 7692   4.548   3.722   5.880 -0.4549 -0.3860 -0.2419
 2481SOL     OW 7693   2.368   2.997   2.668  0.0493 -0.2376 -0.1576
 2481SOL    HW1 7694   2.417   3.006   2.749  0.2983 -1.2404 -0.1855
 2481SOL    HW2 7695   2.432   3.013   2.598  0.2926 -1.2783 -0.1877
 2482SOL     OW 7696   0.796   0.420   6.033  0.4066  0.1442 -0.4501
 2482SOL    HW1 7697   0.760   0.474   5.963 -0.2506  0.5583  0.1875
 2482SOL    HW2 7698   0.772   0.331   6.009 -0.3316  0.3372 -0.4612
 2483SOL     OW 7699   4.676   5.501   3.143 -0.1009  0.1542 -0.3659
 2483SOL    HW1 7700   4.654   5.588   3.109 -0.5400  0.1390 -0.1189
 2483SOL    HW2 7701   4.739   5.517   3.213 -1.0210  0.3568  0.4304
 2484SOL     OW 7702   5.411   5.560   1.456  0.5331 -0.0156  0.0362
 2484SOL    HW1 7703   5.402   5.583   1.364  0.0779 -1.6988 -0.3842
 2484SOL    HW2 7704   5.362   5.478   1.465  1.2653 -0.3259  1.5863
 2485SOL     OW 7705   4.780   1.010   5.294  0.3707  0.2611  0.0738
 2485SOL    HW1 7706   4.861   0.986   5.249  0.2457  1.1571 -0.6533
 2485SOL    HW2 7707   4.799   1.096   5.332 -0.1107  0.3058  0.2150
 2486SOL     OW 7708   1.268   2.384   5.499  0.0859 -0.4584  0.1082
 2486SOL    HW1 7709   1.267   2.330   5.578  0.0852 -2.9604 -1.4986
 2486SOL    HW2 7710   1.345   2.356   5.450  0.0462  0.9707 -0.8570
 2487SOL     OW 7711   5.153   0.711   5.701 -0.7384  0.0834  0.5019
 2487SOL    HW1 7712   5.137   0.801   5.729  1.8774  0.5557  0.6803
 2487SOL    HW2 7713   5.240   0.713   5.661 -1.4912 -1.9567 -1.4899
 2488SOL     OW 7714   4.423   4.470   5.965 -0.3565  0.3701 -0.0416
 2488SOL    HW1 7715   4.471   4.490   5.885 -1.5245  0.3369 -0.7706
 2488SOL    HW2 7716   4.461   4.528   6.031  1.4703 -0.4849 -0.2895
 2489SOL     OW 7717   6.175   1.632   2.501  0.1001  0.1308 -0.2555
 2489SOL    HW1 7718   6.096   1.661   2.456  1.4108  0.7597 -2.3089
 2489SOL    HW2 7719   6.222   1.713   2.522  0.5133 -0.2567  0.3350
 2490SOL     OW 7720   5.441   5.653   3.893 -0.1220  0.1819  0.7586
 2490SOL    HW1 7721   5.499   5.694   3.828 -0.0819 -0.6208  0.2735
 2490SOL    HW2 7722   5.360   5.702   3.886  0.3290  0.9932  1.0854
 2491SOL     OW 7723   4.818   4.721   4.140  0.3247 -0.2322 -0.1776
 2491SOL    HW1 7724   4.785   4.771   4.214  0.3828  0.6357 -0.7210
 2491SOL    HW2 7725   4.908   4.752   4.127  0.5827 -0.9275 -0.1405
 2492SOL     OW 7726   2.148   0.533   5.806  0.1568  0.3956  0.1548
 2492SOL    HW1 7727   2.208   0.596   5.846  0.1204  0.0054  0.8501
 2492SOL    HW2 7728   2.133   0.468   5.875  1.0482 -0.9858 -0.9025
 2493SOL     OW 7729   2.570   0.896   4.197 -0.7270 -0.1936 -0.6364
 2493SOL    HW1 7730   2.579   0.955   4.123 -2.6726 -0.4676 -1.1566
 2493SOL    HW2 7731   2.521   0.821   4.162 -1.6760 -0.3342  0.8804
 2494SOL     OW 7732   4.446   5.327   3.066 -0.3846  0.1224  0.3368
 2494SOL    HW1 7733   4.529   5.369   3.090 -0.4439  0.1692  0.4583
 2494SOL    HW2 7734   4.449   5.242   3.110 -0.7679  0.4595  1.0153
 2495SOL     OW 7735   4.040   2.050   4.285 -0.1422  1.1322  0.5828
 2495SOL    HW1 7736   3.960   2.008   4.253 -0.0454  1.1227  0.3545
 2495SOL    HW2 7737   4.011   2.105   4.358 -0.2873  0.7643  0.8002
 2496SOL     OW 7738   0.326   5.434   6.048 -0.0160 -0.1554 -0.1133
 2496SOL    HW1 7739   0.357   5.344   6.038  0.8708  0.1558 -0.2209
 2496SOL    HW2 7740   0.249   5.439   5.991 -1.2956 -1.3959  1.3922
 2497SOL     OW 7741   3.046   4.283   0.465  0.1200 -0.8808  0.2379
 2497SOL    HW1 7742   3.055   4.255   0.374  1.7970 -0.5224  0.2608
 2497SOL    HW2 7743   3.103   4.359   0.472 -1.2889  0.1388  1.1874
 2498SOL     OW 7744   4.403   0.848   2.484  0.0621 -0.1325 -0.1160
 2498SOL    HW1 7745   4.358   0.815   2.406 -0.1229 -1.1584  0.4060
 2498SOL    HW2 7746   4.390   0.780   2.550  0.0275  0.8230  0.8873
 2499SOL     OW 7747   3.139   1.744   2.028  0.1165 -0.8564  0.4511
 2499SOL    HW1 7748   3.203   1.717   1.962  1.1882 -2.4272  2.0555
 2499SOL    HW2 7749   3.126   1.666   2.082  0.5683  0.7965  3.1067
 2500SOL     OW 7750   0.191   2.688   3.740  0.4227  0.4670  0.3648
 2500SOL    HW1 7751   0.244   2.608   3.731 -1.2879 -0.4917 -2.5644
 2500SOL    HW2 7752   0.169   2.692   3.833  1.8058 -1.6056  0.8562
 2501SOL     OW 7753   2.686   5.365   3.813 -0.0930 -0.1138  0.0506
 2501SOL    HW1 7754   2.727   5.279   3.816 -3.1329 -1.6881  3.7733
 2501SOL    HW2 7755   2.701   5.402   3.900 -2.5334  1.1642  0.0003
 2502SOL     OW 7756   2.734   3.070   5.395  0.1096  0.7192 -0.3070
 2502SOL    HW1 7757   2.648   3.111   5.395  0.4900  1.5385  0.2428
 2502SOL    HW2 7758   2.719   2.983   5.357 -1.2186  0.2930  1.0991
 2503SOL     OW 7759   0.884   4.215   0.386  0.2930  0.1258 -0.0935
 2503SOL    HW1 7760   0.840   4.196   0.469  0.5111  0.3207  0.0651
 2503SOL    HW2 7761   0.944   4.287   0.406 -2.5097  3.0478 -1.2524
 2504SOL     OW 7762   3.271   1.714   4.220  0.4515 -0.4605 -0.3373
 2504SOL    HW1 7763   3.367   1.710   4.217  0.4541 -0.0291 -0.9594
 2504SOL    HW2 7764   3.251   1.760   4.302  0.8405  1.1546 -1.1007
 2505SOL     OW 7765   3.670   1.366   4.393 -0.2631  0.7091  0.0515
 2505SOL    HW1 7766   3.738   1.316   4.439  1.8943  3.1301 -0.2827
 2505SOL    HW2 7767   3.603   1.301   4.372  0.9660 -1.4337  2.2042
 2506SOL     OW 7768   3.382   2.668   1.622 -0.3568 -0.1047  0.0109
 2506SOL    HW1 7769   3.374   2.708   1.535  0.6896 -0.8586 -0.4510
 2506SOL    HW2 7770   3.305   2.612   1.629  0.3508 -1.2778 -1.1157
 2507SOL     OW 7771   4.645   0.950   0.385 -0.9402 -0.4502 -0.3674
 2507SOL    HW1 7772   4.569   0.968   0.439 -0.8853  0.9696 -0.7298
 2507SOL    HW2 7773   4.708   0.909   0.444 -0.7687  1.3380  0.7576
 2508SOL     OW 7774   3.759   5.690   3.073  0.2823  0.4915 -0.2141
 2508SOL    HW1 7775   3.754   5.628   3.146 -0.5696  0.4418 -0.3002
 2508SOL    HW2 7776   3.725   5.641   2.998  0.5503  0.7462 -0.5047
 2509SOL     OW 7777   3.991   5.867   5.964 -0.2395  0.2107 -0.1242
 2509SOL    HW1 7778   3.998   5.883   6.058  0.3537  1.8940 -0.4319
 2509SOL    HW2 7779   4.051   5.793   5.949  2.3949  2.1016  0.3371
 2510SOL     OW 7780   0.296   3.068   1.709 -0.1610  0.0601 -0.3829
 2510SOL    HW1 7781   0.244   3.147   1.697 -2.0777 -1.2551 -1.1673
 2510SOL    HW2 7782   0.267   3.032   1.793 -0.0792 -0.3693 -0.5327
 2511SOL     OW 7783   1.259   0.754   0.637  0.0093 -0.2173 -0.5611
 2511SOL    HW1 7784   1.340   0.753   0.689 -0.1865 -0.0356 -0.2485
 2511SOL    HW2 7785   1.287   0.729   0.550  0.1239 -1.8385 -0.0801
 2512SOL     OW 7786   2.152   3.765   1.744  0.5265  0.2371 -0.3344
 2512SOL    HW1 7787   2.087   3.835   1.753  2.0595  1.5800  1.0223
 2512SOL    HW2 7788   2.196   3.784   1.661 -0.4420 -0.3853 -1.0085
 2513SOL     OW 7789   0.756   3.114   1.020 -0.1337 -0.1836  0.2928
 2513SOL    HW1 7790   0.722   3.167   1.092  0.2086  1.0885 -0.4647
 2513SOL    HW2 7791   0.681   3.099   0.963 -0.4209 -1.2488  0.9053
 2514SOL     OW 7792   3.045   4.970   5.754 -0.0498  0.1832 -0.0395
 2514SOL    HW1 7793   3.028   4.919   5.674 -0.2207  1.0068 -0.5430
 2514SOL    HW2 7794   2.965   5.022   5.766 -0.2184 -0.2950  0.9502
 2515SOL     OW 7795   3.423   2.528   0.791  0.2114 -0.0664 -0.9486
 2515SOL    HW1 7796   3.488   2.471   0.831 -0.1506 -1.1067 -1.8142
 2515SOL    HW2 7797   3.393   2.481   0.713 -0.9292  0.7911 -1.0589
 2516SOL     OW 7798   0.172   1.034   5.268  0.2251 -0.0509  0.3319
 2516SOL    HW1 7799   0.110   1.103   5.295 -1.5525 -0.6385 -1.9174
 2516SOL    HW2 7800   0.167   0.969   5.339 -1.1987  0.2781  0.5794
 2517SOL     OW 7801   2.364   2.921   5.145  0.1051 -0.5213  0.1137
 2517SOL    HW1 7802   2.277   2.963   5.143  0.1611 -0.4370 -0.5299
 2517SOL    HW2 7803   2.371   2.888   5.235  0.4257  1.6294  0.9445
 2518SOL     OW 7804   4.049   0.258   0.443 -0.3026 -0.4794  0.0547
 2518SOL    HW1 7805   3.989   0.265   0.369  1.0572 -2.2068 -1.2895
 2518SOL    HW2 7806   4.124   0.313   0.420 -0.8108  0.7590  1.2091
 2519SOL     OW 7807   2.554   2.817   6.309  0.5683 -0.1537  0.3637
 2519SOL    HW1 7808   2.520   2.893   6.261  2.5955  1.1868  0.9221
 2519SOL    HW2 7809   2.476   2.775   6.344 -0.6274  2.0522  0.5601
 2520SOL     OW 7810   3.499   4.408   4.856  0.6139  0.1002  0.0782
 2520SOL    HW1 7811   3.475   4.408   4.949 -0.0757  1.9230 -0.0638
 2520SOL    HW2 7812   3.547   4.326   4.844 -0.8944 -1.0882  1.6105
 2521SOL     OW 7813   3.110   3.422   0.866  0.2184 -0.1027  0.9795
 2521SOL    HW1 7814   3.080   3.346   0.915  0.6148  0.0505  1.4719
 2521SOL    HW2 7815   3.200   3.436   0.896 -0.4060  1.6003  2.2294
 2522SOL     OW 7816   4.780   6.186   0.810  0.2249  0.4063  0.0918
 2522SOL    HW1 7817   4.717   6.121   0.844  1.1049 -0.1135  0.7765
 2522SOL    HW2 7818   4.738   6.220   0.731  0.3129 -1.9899 -1.0772
 2523SOL     OW 7819   4.157   1.996   6.337 -0.2084 -0.1089  0.1426
 2523SOL    HW1 7820   4.155   1.964   6.427 -1.0868 -0.7155 -0.0776
 2523SOL    HW2 7821   4.152   2.091   6.345  1.3859 -0.0454  0.7705
 2524SOL     OW 7822   1.216   0.410   4.699  0.0229 -0.1298 -0.1132
 2524SOL    HW1 7823   1.194   0.340   4.761 -0.8168  0.4016  0.2106
 2524SOL    HW2 7824   1.281   0.463   4.745 -0.0296 -0.1702  0.0082
 2525SOL     OW 7825   5.850   2.177   0.775  0.4232  0.5241 -0.0673
 2525SOL    HW1 7826   5.845   2.164   0.680 -2.8913  1.8069 -0.2133
 2525SOL    HW2 7827   5.835   2.090   0.812 -0.8584  0.4153 -0.7842
 2526SOL     OW 7828   0.849   0.806   6.023  0.1141 -0.4154 -0.1529
 2526SOL    HW1 7829   0.850   0.885   5.969 -0.2003  0.3463  0.9288
 2526SOL    HW2 7830   0.838   0.735   5.960 -0.9066  0.4905 -1.0621
 2527SOL     OW 7831   0.682   0.523   1.644 -0.0696 -0.3513  0.4300
 2527SOL    HW1 7832   0.603   0.484   1.607 -0.9774  2.0457 -0.3426
 2527SOL    HW2 7833   0.680   0.499   1.736 -1.7882 -0.2547  0.4447
 2528SOL     OW 7834   5.429   3.202   1.096 -0.1658 -0.1448  0.2777
 2528SOL    HW1 7835   5.485   3.154   1.034  1.4059  0.8725  0.8431
 2528SOL    HW2 7836   5.489   3.262   1.139 -1.4132 -0.1800  2.1361
 2529SOL     OW 7837   4.910   4.467   4.191  0.4596 -0.6976  0.2789
 2529SOL    HW1 7838   5.004   4.484   4.188  0.1504  1.3278  0.6933
 2529SOL    HW2 7839   4.871   4.551   4.213 -1.4236 -1.6492  0.7963
 2530SOL     OW 7840   3.823   5.982   3.460 -0.0823  0.2571  0.0753
 2530SOL    HW1 7841   3.774   5.930   3.396 -0.3544  1.7632 -0.9797
 2530SOL    HW2 7842   3.757   6.018   3.519 -0.0195  0.4651  0.0191
 2531SOL     OW 7843   6.074   2.704   1.274 -0.3914  0.4340  0.0533
 2531SOL    HW1 7844   6.005   2.645   1.306  1.3232 -0.7430  1.8184
 2531SOL    HW2 7845   6.050   2.789   1.310 -2.1414  0.5908 -1.3335
 2532SOL     OW 7846   2.110   2.591   0.537  0.5680 -0.4023  0.2674
 2532SOL    HW1 7847   2.027   2.552   0.566 -0.9233  1.4849 -1.1833
 2532SOL    HW2 7848   2.143   2.636   0.614  1.3272 -2.7684  1.4178
 2533SOL     OW 7849   4.957   3.058   0.121 -0.0956 -0.2827  0.0860
 2533SOL    HW1 7850   4.870   3.028   0.145 -2.2988  2.2014 -3.6570
 2533SOL    HW2 7851   4.985   2.998   0.052 -0.4651  0.8037 -1.0616
 2534SOL     OW 7852   5.845   2.009   3.719  0.4699 -0.5437  0.3228
 2534SOL    HW1 7853   5.937   2.028   3.697  0.2335 -1.1285 -1.3460
 2534SOL    HW2 7854   5.825   1.930   3.669 -1.5722  0.8084 -1.1531
 2535SOL     OW 7855   2.025   1.129   5.104 -0.1598 -0.2695 -0.4103
 2535SOL    HW1 7856   1.991   1.117   5.016  2.0317  2.2480 -1.7609
 2535SOL    HW2 7857   2.093   1.063   5.113  0.4828  0.2798 -1.1429
 2536SOL     OW 7858   2.525   2.328   5.532  0.0302  0.4504 -0.1692
 2536SOL    HW1 7859   2.522   2.379   5.451  1.3153 -2.1339 -1.9813
 2536SOL    HW2 7860   2.603   2.272   5.522 -0.4997 -0.8389  2.2837
 2537SOL     OW 7861   6.236   5.983   1.788 -0.2788  0.6432  0.5375
 2537SOL    HW1 7862   6.295   5.938   1.847 -0.2328 -1.2982 -0.9096
 2537SOL    HW2 7863   6.246   5.939   1.704 -1.7677  2.0387 -0.4534
 2538SOL     OW 7864   1.966   3.135   5.492 -0.9148 -0.2910 -0.3404
 2538SOL    HW1 7865   2.050   3.163   5.527 -0.9946 -0.0851 -0.3074
 2538SOL    HW2 7866   1.985   3.056   5.443 -0.7347 -0.3558 -0.1675
 2539SOL     OW 7867   4.931   6.126   2.312  0.2712  0.5393  0.0553
 2539SOL    HW1 7868   4.887   6.172   2.240  0.4389 -0.2959 -0.5827
 2539SOL    HW2 7869   4.924   6.187   2.386 -0.5894  1.0752 -0.4506
 2540SOL     OW 7870   2.580   2.878   2.100  0.2084  0.1059  0.2609
 2540SOL    HW1 7871   2.658   2.894   2.046 -0.0351 -0.4018 -0.2546
 2540SOL    HW2 7872   2.509   2.867   2.037 -0.3990  1.1512  0.7476
 2541SOL     OW 7873   1.944   0.939   1.262 -0.0107  0.1360  0.5444
 2541SOL    HW1 7874   2.013   0.991   1.303  0.9428 -0.8020  0.1690
 2541SOL    HW2 7875   1.987   0.858   1.236 -1.9038 -1.8087  3.0316
 2542SOL     OW 7876   0.731   0.192   5.893  0.1534 -0.3513  0.4896
 2542SOL    HW1 7877   0.814   0.157   5.862 -0.5963  0.2255 -2.4600
 2542SOL    HW2 7878   0.666   0.128   5.864 -0.6990  0.7403 -0.0826
 2543SOL     OW 7879   0.334   3.156   0.092 -0.2155 -0.2616  0.7273
 2543SOL    HW1 7880   0.320   3.107   0.173 -0.4926 -0.6804  0.4305
 2543SOL    HW2 7881   0.348   3.088   0.025 -2.6166 -0.0546 -0.0885
 2544SOL     OW 7882   2.355   5.135   3.436 -0.0330 -0.2097  0.4133
 2544SOL    HW1 7883   2.260   5.137   3.424 -0.0805  0.5131  0.8690
 2544SOL    HW2 7884   2.388   5.205   3.380  0.2748 -0.7333 -0.0679
 2545SOL     OW 7885   2.162   0.609   1.695 -0.0296  0.1578 -0.2711
 2545SOL    HW1 7886   2.110   0.590   1.618 -0.1092  0.1019 -0.2031
 2545SOL    HW2 7887   2.121   0.687   1.733  0.4908  0.6678 -0.7318
 2546SOL     OW 7888   2.921   0.093   2.812  0.0203 -0.1199  0.3277
 2546SOL    HW1 7889   2.863   0.016   2.807 -0.2955  0.1953 -1.5571
 2546SOL    HW2 7890   2.861   0.168   2.810  0.3686  0.2087  1.4819
 2547SOL     OW 7891   0.884   3.295   4.529 -0.1034 -0.0197 -0.1632
 2547SOL    HW1 7892   0.970   3.253   4.521 -0.1618 -0.1483 -0.1217
 2547SOL    HW2 7893   0.854   3.270   4.617 -0.1782  0.0357 -0.1732
 2548SOL     OW 7894   3.088   6.313   4.820  0.1033 -0.6075  0.5245
 2548SOL    HW1 7895   3.140   6.238   4.850  0.6202 -0.9956 -1.2125
 2548SOL    HW2 7896   3.018   6.274   4.768 -2.0598 -0.0939  2.8804
 2549SOL     OW 7897   0.930   6.303   2.529 -0.6782 -0.1435 -0.0402
 2549SOL    HW1 7898   0.898   6.391   2.508 -2.3358 -0.7334 -0.1032
 2549SOL    HW2 7899   0.866   6.268   2.590  1.0081 -0.6097  1.5640
 2550SOL     OW 7900   3.126   2.768   5.737  0.1907 -0.2303  0.4011
 2550SOL    HW1 7901   3.209   2.810   5.760  0.0219  0.0737  0.4532
 2550SOL    HW2 7902   3.133   2.751   5.643 -0.0346  0.5806  0.2294
 2551SOL     OW 7903   1.103   1.263   2.027 -0.2901  0.1926  0.7082
 2551SOL    HW1 7904   1.191   1.242   2.059  1.2984  0.7086 -2.8493
 2551SOL    HW2 7905   1.101   1.358   2.023  0.4203  0.2058 -2.3107
 2552SOL     OW 7906   3.661   3.796   4.187  0.3886 -0.0102 -0.1541
 2552SOL    HW1 7907   3.582   3.743   4.197 -0.1863  0.4221 -1.9585
 2552SOL    HW2 7908   3.631   3.874   4.140  1.2720  1.7900  2.0881
 2553SOL     OW 7909   3.713   0.973   2.309  0.3662  0.6950 -0.1316
 2553SOL    HW1 7910   3.760   1.054   2.292  1.6991 -0.3136 -1.5379
 2553SOL    HW2 7911   3.749   0.941   2.392 -0.5228  1.7552  0.6842
 2554SOL     OW 7912   0.163   5.184   0.953  0.3482 -0.4530 -0.2544
 2554SOL    HW1 7913   0.230   5.118   0.938 -0.4816 -0.8047 -2.8712
 2554SOL    HW2 7914   0.211   5.267   0.954  1.1300 -0.8800  0.9341
 2555SOL     OW 7915   3.025   2.988   4.233  0.1377  0.1924 -0.2716
 2555SOL    HW1 7916   3.093   2.920   4.239 -1.0819 -1.1292 -0.9443
 2555SOL    HW2 7917   2.969   2.973   4.308  0.5774  1.3240  0.3161
 2556SOL     OW 7918   5.610   0.745   0.167  0.1511 -0.2684 -0.0719
 2556SOL    HW1 7919   5.581   0.781   0.251  0.8069 -1.5317  0.7327
 2556SOL    HW2 7920   5.586   0.811   0.102 -1.4107  0.2335  0.9708
 2557SOL     OW 7921   3.771   2.056   2.047  0.4378  0.0835 -0.1312
 2557SOL    HW1 7922   3.778   2.052   2.142  0.0188  1.4272 -0.0220
 2557SOL    HW2 7923   3.709   2.127   2.030  2.4213  1.6509 -1.4380
 2558SOL     OW 7924   2.201   0.057   0.641  0.2797 -0.5463  0.0855
 2558SOL    HW1 7925   2.225   0.003   0.566  0.3096  3.2911 -2.9981
 2558SOL    HW2 7926   2.107   0.073   0.630  0.5745  1.2817 -0.1541
 2559SOL     OW 7927   5.407   2.365   4.325 -0.4946 -0.3123 -0.0534
 2559SOL    HW1 7928   5.450   2.445   4.295 -0.7345 -0.2904 -0.3434
 2559SOL    HW2 7929   5.385   2.381   4.416  0.1925 -0.3539  0.1249
 2560SOL     OW 7930   0.332   1.983   0.743  0.1438  0.0758 -0.2823
 2560SOL    HW1 7931   0.354   1.944   0.828 -1.8933 -0.8073 -0.1106
 2560SOL    HW2 7932   0.236   1.984   0.741  0.1258  2.5979 -1.4514
 2561SOL     OW 7933   4.839   2.749   0.627  0.5824  0.1217  0.1287
 2561SOL    HW1 7934   4.819   2.720   0.716 -1.7221 -0.5683 -0.5291
 2561SOL    HW2 7935   4.896   2.824   0.638  0.4146  0.0030  2.1816
 2562SOL     OW 7936   1.619   3.925   1.661  0.4815 -0.7824 -0.3371
 2562SOL    HW1 7937   1.636   3.968   1.745 -1.5640  0.7294 -0.6201
 2562SOL    HW2 7938   1.657   3.982   1.595 -0.3394 -0.5090 -0.5870
 2563SOL     OW 7939   0.178   3.462   2.754  0.0980 -0.4729 -0.1351
 2563SOL    HW1 7940   0.122   3.472   2.831  0.2318 -0.9008  0.0249
 2563SOL    HW2 7941   0.118   3.472   2.680  0.1258  0.8523  0.0008
 2564SOL     OW 7942   5.494   4.370   2.653  0.0420  0.2528 -0.0680
 2564SOL    HW1 7943   5.557   4.442   2.644  2.4159 -1.6236  0.6513
 2564SOL    HW2 7944   5.527   4.301   2.596 -2.1272 -0.3609 -0.6699
 2565SOL     OW 7945   5.659   4.970   4.943 -0.0260 -0.6825 -0.3510
 2565SOL    HW1 7946   5.599   4.987   4.870  1.0768 -0.1663 -1.1709
 2565SOL    HW2 7947   5.712   5.049   4.950 -1.3029  0.0430  2.2638
 2566SOL     OW 7948   4.427   3.617   5.596  0.1375 -0.4349  0.8731
 2566SOL    HW1 7949   4.357   3.551   5.595  0.2625 -0.5689  0.9754
 2566SOL    HW2 7950   4.508   3.566   5.592  0.2569 -0.3173  1.6502
 2567SOL     OW 7951   1.303   4.617   5.925 -0.1556  0.4818 -0.1302
 2567SOL    HW1 7952   1.217   4.601   5.964  0.1076 -0.7385  0.0018
 2567SOL    HW2 7953   1.346   4.531   5.927  0.1208  0.4984 -2.4866
 2568SOL     OW 7954   4.748   3.714   3.628 -0.2913  0.3776 -0.4628
 2568SOL    HW1 7955   4.728   3.650   3.560 -0.2207 -0.3858  0.2055
 2568SOL    HW2 7956   4.763   3.660   3.707  0.7401  1.1526 -0.1054
 2569SOL     OW 7957   4.046   3.043   0.107 -0.2483 -0.0784  0.7466
 2569SOL    HW1 7958   4.034   3.127   0.150  0.2916  0.7114 -0.5672
 2569SOL    HW2 7959   4.140   3.027   0.111 -0.4269 -1.0588  1.7203
 2570SOL     OW 7960   1.337   3.309   1.824 -0.4969  0.0146  0.0562
 2570SOL    HW1 7961   1.269   3.374   1.808 -1.6850 -1.0652  0.5761
 2570SOL    HW2 7962   1.347   3.263   1.740 -0.6198 -0.0136  0.0563
 2571SOL     OW 7963   2.171   2.574   3.616  0.0191 -0.4357 -0.0521
 2571SOL    HW1 7964   2.253   2.618   3.594  0.8497 -3.3138 -3.6932
 2571SOL    HW2 7965   2.106   2.612   3.557  0.1598 -2.0345 -1.3238
 2572SOL     OW 7966   4.616   3.265   2.200  0.2419 -0.0380 -0.1211
 2572SOL    HW1 7967   4.711   3.250   2.207  0.4802  1.8431  1.2556
 2572SOL    HW2 7968   4.608   3.357   2.175 -1.2530 -0.2173 -0.3879
 2573SOL     OW 7969   1.031   0.828   0.424  0.4669 -0.0234 -0.3209
 2573SOL    HW1 7970   1.113   0.809   0.470 -0.0582  1.7938  1.5256
 2573SOL    HW2 7971   0.976   0.872   0.490 -1.2078  0.6774 -2.0793
 2574SOL     OW 7972   2.405   0.437   3.007  0.0351 -0.0848 -0.0835
 2574SOL    HW1 7973   2.439   0.522   2.978  0.7840 -0.4841 -0.4055
 2574SOL    HW2 7974   2.477   0.377   2.993 -0.8911 -1.0114 -1.0000
 2575SOL     OW 7975   6.009   0.230   4.566 -0.0489 -0.1426  0.2790
 2575SOL    HW1 7976   5.981   0.250   4.477 -0.2795  0.6139  0.5186
 2575SOL    HW2 7977   5.988   0.309   4.617  1.5807  0.0736  0.6670
 2576SOL     OW 7978   1.800   4.889   4.645 -0.1237 -0.1530  0.3103
 2576SOL    HW1 7979   1.806   4.801   4.609 -1.7733 -0.8536  1.6058
 2576SOL    HW2 7980   1.891   4.920   4.648  0.3286 -1.1505 -1.6647
 2577SOL     OW 7981   0.461   3.503   0.582 -0.3047 -0.1432 -0.8254
 2577SOL    HW1 7982   0.452   3.567   0.652 -3.0147 -0.4382 -0.8217
 2577SOL    HW2 7983   0.469   3.419   0.627  1.7763 -0.0222 -0.8649
 2578SOL     OW 7984   3.684   2.562   0.564 -0.0392  0.1100  0.0700
 2578SOL    HW1 7985   3.654   2.483   0.517 -0.1794  1.0199 -1.4397
 2578SOL    HW2 7986   3.774   2.574   0.536  0.3246 -0.0895  1.1227
 2579SOL     OW 7987   3.623   2.603   5.158  0.2736 -0.3975  0.2514
 2579SOL    HW1 7988   3.574   2.543   5.102  0.9061 -1.0805  0.4159
 2579SOL    HW2 7989   3.580   2.687   5.147  0.2122 -0.5833 -1.0409
 2580SOL     OW 7990   0.991   5.507   4.517 -0.7126 -0.3140  0.4401
 2580SOL    HW1 7991   1.061   5.548   4.466  0.2697 -3.9314 -1.4726
 2580SOL    HW2 7992   1.034   5.478   4.598 -0.1680 -1.5637 -0.2599
 2581SOL     OW 7993   3.976   5.761   4.331  0.6434  0.3239 -0.3458
 2581SOL    HW1 7994   3.889   5.776   4.366 -0.3679 -0.6947 -2.2446
 2581SOL    HW2 7995   3.994   5.669   4.349  1.5292  0.6410  0.4323
 2582SOL     OW 7996   6.239   2.487   0.520  0.5572  0.0039  0.0684
 2582SOL    HW1 7997   6.291   2.541   0.580  0.1327 -0.1444  0.5739
 2582SOL    HW2 7998   6.197   2.422   0.577 -0.2353  0.1621 -0.3225
 2583SOL     OW 7999   2.711   2.782   5.303  0.8015 -0.4884 -0.6181
 2583SOL    HW1 8000   2.719   2.727   5.225  0.1802 -2.5776  0.7000
 2583SOL    HW2 8001   2.786   2.757   5.358  1.8403  1.7235 -0.9336
 2584SOL     OW 8002   2.249   1.345   5.687  0.4507  0.0648 -0.3256
 2584SOL    HW1 8003   2.224   1.257   5.716  0.5559 -0.1664 -0.9169
 2584SOL    HW2 8004   2.229   1.346   5.594 -0.1530  0.8940 -0.1966
 2585SOL     OW 8005   1.383   5.263   3.810 -0.6002 -0.4865  0.4752
 2585SOL    HW1 8006   1.381   5.240   3.903  0.4225 -2.6313  0.0374
 2585SOL    HW2 8007   1.385   5.359   3.808  3.6730 -0.3017  2.8723
 2586SOL     OW 8008   0.964   4.315   0.021 -0.4086 -0.1512 -0.5658
 2586SOL    HW1 8009   1.035   4.285   0.078 -1.6022 -1.0953  0.4942
 2586SOL    HW2 8010   0.978   4.268  -0.061 -1.4575 -2.6908  0.6151
 2587SOL     OW 8011   6.030   0.812   5.440 -0.1979  0.8342 -0.3936
 2587SOL    HW1 8012   5.974   0.795   5.515 -0.4840 -1.9259 -1.1336
 2587SOL    HW2 8013   6.095   0.875   5.472 -1.1673  0.8476  1.6898
 2588SOL     OW 8014   1.923   0.981   0.042 -0.5686  0.1616  0.7034
 2588SOL    HW1 8015   1.985   0.912   0.018 -1.6061 -0.3810 -0.5123
 2588SOL    HW2 8016   1.844   0.963  -0.009 -2.7591 -0.6862  4.0439
 2589SOL     OW 8017   4.628   3.194   4.708  0.2361 -0.2047 -0.4248
 2589SOL    HW1 8018   4.550   3.154   4.669  0.1638  0.4165 -0.9367
 2589SOL    HW2 8019   4.696   3.127   4.699 -0.1909 -0.6819 -0.1422
 2590SOL     OW 8020   5.344   2.379   0.259  0.6260 -0.1155  0.0907
 2590SOL    HW1 8021   5.414   2.443   0.244 -0.9408  2.0172  1.2910
 2590SOL    HW2 8022   5.348   2.321   0.183  3.7393 -0.1935  0.1824
 2591SOL     OW 8023   3.278   2.508   4.342 -0.1162  0.0918 -0.2331
 2591SOL    HW1 8024   3.334   2.558   4.401  0.7123  0.8758 -1.6476
 2591SOL    HW2 8025   3.192   2.509   4.385  0.6122  0.0341  1.2893
 2592SOL     OW 8026   5.718   0.571   5.720  0.6230  1.1856  0.1369
 2592SOL    HW1 8027   5.805   0.586   5.758 -0.3597  1.7098  2.4071
 2592SOL    HW2 8028   5.677   0.657   5.723 -0.1686  0.8275 -0.3384
 2593SOL     OW 8029   0.097   4.942   5.927 -0.0043  0.0241 -0.8081
 2593SOL    HW1 8030   0.081   4.858   5.886 -0.5734 -0.6773  0.7662
 2593SOL    HW2 8031   0.167   4.925   5.991  0.4743  0.9430 -1.0672
 2594SOL     OW 8032   1.661   2.373   3.900 -0.5669 -0.1515 -0.1854
 2594SOL    HW1 8033   1.628   2.283   3.906 -1.1570 -0.0068 -1.0214
 2594SOL    HW2 8034   1.730   2.368   3.834 -0.7471  0.0368 -0.3917
 2595SOL     OW 8035   5.068   3.285   3.080 -0.1490 -0.2119  0.5659
 2595SOL    HW1 8036   5.007   3.319   3.145  0.3408  3.3992 -0.6511
 2595SOL    HW2 8037   5.015   3.268   3.002 -0.1371 -0.8367  0.6831
 2596SOL     OW 8038   0.431   5.926   3.005 -0.5426 -0.3029 -0.0885
 2596SOL    HW1 8039   0.437   5.921   3.100  1.0945  1.3067 -0.0418
 2596SOL    HW2 8040   0.521   5.910   2.974 -1.3522 -2.5599 -1.5195
 2597SOL     OW 8041   2.184   4.619   3.026  0.0671  0.4423 -0.3400
 2597SOL    HW1 8042   2.180   4.546   3.088 -0.4999  0.6559 -0.1173
 2597SOL    HW2 8043   2.258   4.672   3.055  1.5964 -0.9448 -1.5277
 2598SOL     OW 8044   2.800   1.352   2.393  0.4773  0.3945 -0.0905
 2598SOL    HW1 8045   2.756   1.278   2.436 -1.0632  0.8599 -0.7765
 2598SOL    HW2 8046   2.838   1.314   2.314 -0.5974  0.3640 -0.6128
 2599SOL     OW 8047   5.947   5.983   4.152 -0.4333  0.0191 -0.5596
 2599SOL    HW1 8048   5.929   5.973   4.058  2.8816 -0.0308 -1.3046
 2599SOL    HW2 8049   5.954   6.078   4.165 -2.2351  0.1211  0.0195
 2600SOL     OW 8050   5.512   2.257   3.693  0.1942 -0.1162  0.5508
 2600SOL    HW1 8051   5.441   2.195   3.679  0.1963 -0.6180  2.4709
 2600SOL    HW2 8052   5.591   2.210   3.666 -0.1040  0.1561 -0.8314
 2601SOL     OW 8053   2.092   0.931   0.424  0.0358  0.8504  0.1324
 2601SOL    HW1 8054   2.062   0.957   0.511  0.0993  2.1002 -0.2035
 2601SOL    HW2 8055   2.024   0.962   0.364  0.0834  0.1693 -0.2940
 2602SOL     OW 8056   4.612   6.223   5.988 -0.3667 -0.1788 -0.1237
 2602SOL    HW1 8057   4.684   6.264   6.036  0.3956  0.1904 -1.5305
 2602SOL    HW2 8058   4.533   6.260   6.026  0.2675  1.2664 -0.1684
 2603SOL     OW 8059   5.896   3.439   0.305  0.6660 -0.2728  0.0113
 2603SOL    HW1 8060   5.884   3.355   0.261 -1.2970 -0.3060  0.4926
 2603SOL    HW2 8061   5.834   3.498   0.262  0.3161  0.2780  1.2143
 2604SOL     OW 8062   2.767   0.983   1.945  0.3296 -0.4944 -0.0253
 2604SOL    HW1 8063   2.775   0.941   2.031  3.3111  0.3727  0.2225
 2604SOL    HW2 8064   2.719   1.064   1.963  0.8315 -0.3675  0.8126
 2605SOL     OW 8065   1.152   0.514   1.541  0.5488  0.3819  0.2664
 2605SOL    HW1 8066   1.221   0.453   1.514 -0.0684 -0.4260  0.4673
 2605SOL    HW2 8067   1.171   0.533   1.633  1.3517  1.3455 -0.0868
 2606SOL     OW 8068   0.457   4.667   2.671  0.5273  0.1265  0.3993
 2606SOL    HW1 8069   0.366   4.673   2.701  0.3488 -2.0120  0.3900
 2606SOL    HW2 8070   0.460   4.725   2.595 -1.0267 -0.2826 -0.0143
 2607SOL     OW 8071   0.740   5.162   3.593  0.6388  0.3238 -1.0309
 2607SOL    HW1 8072   0.698   5.245   3.571  0.2741  0.0471 -1.4062
 2607SOL    HW2 8073   0.670   5.097   3.588  0.5183  0.2265  0.9952
 2608SOL     OW 8074   2.345   1.955   5.934 -0.4478  0.3783 -0.6928
 2608SOL    HW1 8075   2.273   1.930   5.992 -1.0000  0.9554 -1.1114
 2608SOL    HW2 8076   2.369   1.874   5.889 -1.4455  0.3501 -1.2092
 2609SOL     OW 8077   2.338   3.218   4.580  0.3282  0.0557  0.2542
 2609SOL    HW1 8078   2.269   3.264   4.628  0.2038  0.8961 -0.6933
 2609SOL    HW2 8079   2.295   3.140   4.545  0.9313 -1.8065  3.2659
 2610SOL     OW 8080   3.957   1.499   2.976  0.0821  0.0137 -0.2021
 2610SOL    HW1 8081   4.033   1.455   3.014  0.2358  1.4204  1.1975
 2610SOL    HW2 8082   3.989   1.532   2.892  0.4165 -1.1220 -0.5447
 2611SOL     OW 8083   3.892   4.659   1.004  0.4252  0.1476  0.3838
 2611SOL    HW1 8084   3.895   4.690   0.913  0.2215 -0.2975  0.2233
 2611SOL    HW2 8085   3.810   4.611   1.010  0.4123  0.2205  0.8227
 2612SOL     OW 8086   4.395   3.393   5.839  0.1491  0.2260  0.3015
 2612SOL    HW1 8087   4.450   3.412   5.915  0.1717 -2.7122  1.1374
 2612SOL    HW2 8088   4.456   3.362   5.772 -0.2483 -1.6774  0.7517
 2613SOL     OW 8089   2.823   5.372   3.428  0.7032 -0.1549 -0.8380
 2613SOL    HW1 8090   2.844   5.456   3.387 -0.9949  0.1424 -1.1586
 2613SOL    HW2 8091   2.908   5.331   3.442  1.8028  2.5072  1.2733
 2614SOL     OW 8092   2.458   6.163   0.175  0.1484 -0.3386  0.5955
 2614SOL    HW1 8093   2.465   6.131   0.265  0.6091 -0.9724  0.3389
 2614SOL    HW2 8094   2.387   6.227   0.178 -0.2334 -0.7852  1.2875
 2615SOL     OW 8095   5.558   0.419   5.139  0.0329  0.4967 -0.2269
 2615SOL    HW1 8096   5.533   0.327   5.149  0.4480  0.5509  1.7401
 2615SOL    HW2 8097   5.553   0.435   5.045 -1.5520 -1.1063 -0.4812
 2616SOL     OW 8098   5.841   3.725   2.200  0.6772  0.6637  0.0974
 2616SOL    HW1 8099   5.867   3.815   2.177  0.9952  1.0655  1.8483
 2616SOL    HW2 8100   5.750   3.718   2.172  0.6997  1.4805 -0.2028
 2617SOL     OW 8101   1.730   4.542   3.385  0.7707 -0.1829 -0.5713
 2617SOL    HW1 8102   1.822   4.546   3.413  0.8735 -1.5147 -0.6289
 2617SOL    HW2 8103   1.716   4.449   3.364 -0.8344 -0.1487  0.2411
 2618SOL     OW 8104   3.785   4.395   3.602  0.5020  0.3190  0.5077
 2618SOL    HW1 8105   3.830   4.347   3.532 -0.6290  0.3405 -0.2629
 2618SOL    HW2 8106   3.827   4.481   3.603 -0.9869  1.1685 -1.8019
 2619SOL     OW 8107   4.279   3.311   3.154  0.0255  0.5467  0.4485
 2619SOL    HW1 8108   4.216   3.381   3.138 -0.4239  0.0733  0.1153
 2619SOL    HW2 8109   4.336   3.312   3.078  0.5096  1.0584  0.8089
 2620SOL     OW 8110   4.657   3.562   1.476  0.2009  0.1941 -0.1128
 2620SOL    HW1 8111   4.610   3.646   1.469 -2.3008 -1.0359  0.5711
 2620SOL    HW2 8112   4.673   3.536   1.385 -0.8654  0.4680 -0.3979
 2621SOL     OW 8113   4.059   1.628   2.740  0.4114  0.2902  0.1915
 2621SOL    HW1 8114   3.981   1.673   2.707 -1.3038 -1.2439  1.9396
 2621SOL    HW2 8115   4.132   1.668   2.691 -1.2398  3.0218 -0.2743
 2622SOL     OW 8116   2.481   3.335   5.672 -0.6340  0.4283  0.0974
 2622SOL    HW1 8117   2.565   3.314   5.714  1.1323  2.3948 -2.1514
 2622SOL    HW2 8118   2.452   3.416   5.715  0.0713  1.2493 -0.9222
 2623SOL     OW 8119   0.768   2.422   5.640 -0.3854 -0.4491  0.5257
 2623SOL    HW1 8120   0.836   2.375   5.690  1.2967 -0.3390 -1.5197
 2623SOL    HW2 8121   0.708   2.454   5.707  1.0396 -1.3877  2.3739
 2624SOL     OW 8122   3.067   2.416   2.354 -0.4395 -0.1532 -0.4358
 2624SOL    HW1 8123   3.012   2.440   2.279  0.1281  1.1937 -0.4529
 2624SOL    HW2 8124   3.047   2.324   2.370 -2.7070  0.2791 -0.4467
 2625SOL     OW 8125   3.434   5.513   6.071  0.9072 -0.2222 -0.0319
 2625SOL    HW1 8126   3.401   5.508   5.981 -0.7512  0.6752  0.4907
 2625SOL    HW2 8127   3.399   5.435   6.113  0.2655  0.2080  0.2524
 2626SOL     OW 8128   5.489   4.714   1.631  0.0194  0.0271 -0.1215
 2626SOL    HW1 8129   5.493   4.635   1.578 -0.2460 -1.3519  1.8011
 2626SOL    HW2 8130   5.403   4.711   1.673  0.1882  1.0978  0.3329
 2627SOL     OW 8131   5.839   1.923   0.894 -0.1824  0.0253  0.5843
 2627SOL    HW1 8132   5.792   1.840   0.888  0.1861 -0.2738  1.7136
 2627SOL    HW2 8133   5.921   1.902   0.938  0.5373  0.7482 -0.3675
 2628SOL     OW 8134   4.842   4.625   5.217  0.4798 -0.3432  0.3676
 2628SOL    HW1 8135   4.847   4.536   5.252 -1.9456  0.5984  3.6563
 2628SOL    HW2 8136   4.750   4.636   5.192  0.8055  1.1556 -0.3283
 2629SOL     OW 8137   3.240   4.022   0.416 -0.0552  0.1262 -0.3982
 2629SOL    HW1 8138   3.183   4.077   0.362 -1.1390 -1.3229 -0.8135
 2629SOL    HW2 8139   3.182   3.954   0.451  0.9625  0.0393  1.2312
 2630SOL     OW 8140   4.136   2.593   2.923 -0.4443 -0.7237 -0.1034
 2630SOL    HW1 8141   4.063   2.646   2.953 -0.5783 -1.3407  0.7254
 2630SOL    HW2 8142   4.206   2.612   2.986  0.1752 -0.0021 -0.9950
 2631SOL     OW 8143   1.759   6.270   1.199  0.2372  0.3766 -0.2870
 2631SOL    HW1 8144   1.678   6.306   1.162  1.0552  0.4656 -2.1003
 2631SOL    HW2 8145   1.790   6.209   1.132  1.7067  0.4048  0.3388
 2632SOL     OW 8146   2.048   3.082   4.145  0.0588  0.1550  0.3391
 2632SOL    HW1 8147   1.971   3.091   4.202 -0.3541 -1.3861  0.0793
 2632SOL    HW2 8148   2.013   3.090   4.057  0.6237  2.0362  0.2472
 2633SOL     OW 8149   0.229   5.650   0.871  0.2852  0.3314  0.3468
 2633SOL    HW1 8150   0.300   5.683   0.926  1.2893 -1.9808  0.5344
 2633SOL    HW2 8151   0.210   5.563   0.905 -2.4066  0.6919  0.0262
 2634SOL     OW 8152   3.508   2.847   5.159  0.5487 -0.4894 -0.1818
 2634SOL    HW1 8153   3.506   2.930   5.111  0.9515 -0.6749 -0.5255
 2634SOL    HW2 8154   3.442   2.858   5.227 -0.0657 -0.2265 -0.7949
 2635SOL     OW 8155   1.692   4.409   4.827  0.6102 -0.0850  0.7078
 2635SOL    HW1 8156   1.723   4.320   4.848  1.7965  0.3501  0.8411
 2635SOL    HW2 8157   1.616   4.421   4.885 -1.3865 -2.0446 -1.2814
 2636SOL     OW 8158   2.120   4.257   4.419 -0.4498 -0.1051  0.1703
 2636SOL    HW1 8159   2.080   4.178   4.456  0.9840 -0.0535  1.9411
 2636SOL    HW2 8160   2.165   4.298   4.493 -1.0004  2.2984 -0.7478
 2637SOL     OW 8161   0.016   6.142   2.826  0.0566  0.9263 -0.1205
 2637SOL    HW1 8162  -0.054   6.092   2.786  1.4448  0.4852 -2.1502
 2637SOL    HW2 8163   0.067   6.077   2.875 -0.2471  1.0354  0.3473
 2638SOL     OW 8164   4.984   1.108   1.110 -0.0600  0.6167 -0.4330
 2638SOL    HW1 8165   4.992   1.092   1.204 -0.6568 -0.8125 -0.5924
 2638SOL    HW2 8166   5.028   1.192   1.095  3.3642 -0.8410  0.5496
 2639SOL     OW 8167   5.723   0.703   4.804 -0.1023 -0.0548  0.2353
 2639SOL    HW1 8168   5.801   0.733   4.758 -0.3414 -0.1214 -0.2270
 2639SOL    HW2 8169   5.735   0.733   4.894 -0.4453  1.6894 -0.2495
 2640SOL     OW 8170   2.531   4.783   4.560 -0.3335 -0.6771  0.1941
 2640SOL    HW1 8171   2.602   4.721   4.547 -1.0783 -1.4867 -0.0522
 2640SOL    HW2 8172   2.547   4.819   4.647  0.8964 -0.1554 -0.2304
 2641SOL     OW 8173   2.804   2.251   5.477 -0.0557  0.4765 -0.2171
 2641SOL    HW1 8174   2.782   2.174   5.426 -4.2308  0.7877  0.7403
 2641SOL    HW2 8175   2.826   2.218   5.564  1.1707  0.2747 -0.5852
 2642SOL     OW 8176   2.884   2.672   1.968  0.1740  0.3799 -0.0240
 2642SOL    HW1 8177   2.966   2.718   1.986  0.4993  0.6129 -1.9202
 2642SOL    HW2 8178   2.866   2.622   2.048  1.1411  1.8051  1.1334
 2643SOL     OW 8179   4.240   1.344   2.755  0.2979  0.2349  0.2624
 2643SOL    HW1 8180   4.228   1.423   2.806 -1.1369 -0.1856  0.6240
 2643SOL    HW2 8181   4.261   1.375   2.667 -0.4057  1.0207  0.3634
 2644SOL     OW 8182   1.280   5.374   0.465  0.6207 -0.3686 -0.3435
 2644SOL    HW1 8183   1.244   5.296   0.424  1.8611 -0.3876 -1.4281
 2644SOL    HW2 8184   1.256   5.446   0.407 -0.2112  0.0377  0.4679
 2645SOL     OW 8185   6.327   3.720   5.507  0.0214  0.3243  0.4488
 2645SOL    HW1 8186   6.360   3.784   5.571  1.1723  0.9420 -0.7104
 2645SOL    HW2 8187   6.384   3.644   5.519 -0.3349  0.0994  0.7457
 2646SOL     OW 8188   5.986   0.334   5.008 -0.0149  0.0042 -0.4317
 2646SOL    HW1 8189   6.013   0.422   4.983 -1.6347  1.2772  1.8766
 2646SOL    HW2 8190   5.953   0.344   5.098  0.2772 -3.0841  0.1206
 2647SOL     OW 8191   1.006   4.457   2.531 -0.0244 -0.2843 -0.0935
 2647SOL    HW1 8192   0.952   4.521   2.578  0.5863  0.5874 -0.5431
 2647SOL    HW2 8193   1.006   4.488   2.441  1.6478  0.0705 -0.0209
 2648SOL     OW 8194   2.410   3.067   6.232 -0.1324 -0.0948 -0.2581
 2648SOL    HW1 8195   2.381   3.045   6.143  0.3706 -0.0012 -0.4497
 2648SOL    HW2 8196   2.493   3.113   6.219 -0.2391  0.2470  0.2436
 2649SOL     OW 8197   1.197   3.554   4.686 -0.3041  0.1023  0.1530
 2649SOL    HW1 8198   1.150   3.603   4.753 -0.1245  2.2956 -1.2188
 2649SOL    HW2 8199   1.243   3.486   4.734 -2.7429 -0.4713  1.8342
 2650SOL     OW 8200   1.160   2.136   5.688 -0.5126  0.4143 -0.3440
 2650SOL    HW1 8201   1.115   2.053   5.672  1.0913 -0.9002  1.4875
 2650SOL    HW2 8202   1.093   2.192   5.727 -0.8827 -1.1987  1.4994
 2651SOL     OW 8203   3.038   5.101   3.005 -0.2619 -0.4726  0.5885
 2651SOL    HW1 8204   3.007   5.191   3.020  1.4609  0.3471 -0.4899
 2651SOL    HW2 8205   3.101   5.085   3.075 -0.7437 -0.9470  0.9196
 2652SOL     OW 8206   4.317   2.197   3.497 -0.0001 -0.0148 -0.3849
 2652SOL    HW1 8207   4.346   2.207   3.588 -0.8398  0.1614 -0.1228
 2652SOL    HW2 8208   4.244   2.135   3.503 -0.0647  0.0093 -0.9364
 2653SOL     OW 8209   2.062   2.823   3.112  0.2103 -0.1779  0.2117
 2653SOL    HW1 8210   2.137   2.871   3.146  0.9161 -0.2892 -1.1485
 2653SOL    HW2 8211   2.001   2.892   3.085  0.6605 -0.0584 -0.5093
 2654SOL     OW 8212   1.089   5.915   0.821  0.1078 -0.2718 -0.1216
 2654SOL    HW1 8213   1.176   5.910   0.861 -0.1634 -1.7100  0.3249
 2654SOL    HW2 8214   1.028   5.914   0.895 -0.3174 -0.0571 -0.4645
 2655SOL     OW 8215   3.496   4.935   2.883 -0.3431  0.3115 -0.1475
 2655SOL    HW1 8216   3.441   4.917   2.959 -0.7878  3.8032  0.5626
 2655SOL    HW2 8217   3.436   4.968   2.816  0.6001  3.3730  0.3471
 2656SOL     OW 8218   1.083   0.688   6.194 -0.1510 -0.5667  0.6043
 2656SOL    HW1 8219   1.092   0.743   6.272 -0.2047  0.1788  0.0937
 2656SOL    HW2 8220   1.001   0.718   6.153  0.8648  0.4164 -0.7843
 2657SOL     OW 8221   4.908   6.294   2.518  0.2032  0.1936 -0.4938
 2657SOL    HW1 8222   4.908   6.390   2.514 -0.4420  0.2049 -0.2663
 2657SOL    HW2 8223   4.819   6.271   2.543  0.6584 -0.4219  0.5977
 2658SOL     OW 8224   1.079   2.925   3.645  0.6228 -0.1822  0.3676
 2658SOL    HW1 8225   1.160   2.874   3.637  0.6420 -0.1791  0.5328
 2658SOL    HW2 8226   1.099   3.007   3.600  0.7687 -0.1162  0.5501
 2659SOL     OW 8227   1.750   0.126   2.770 -0.0994  0.3590 -0.2932
 2659SOL    HW1 8228   1.762   0.045   2.721  1.3542  1.0358 -1.1190
 2659SOL    HW2 8229   1.826   0.131   2.828  0.2866  1.5442 -0.8718
 2660SOL     OW 8230   2.410   0.280   3.472  0.0717 -0.0881 -0.2838
 2660SOL    HW1 8231   2.327   0.322   3.452 -1.4274 -2.8755 -0.3139
 2660SOL    HW2 8232   2.390   0.187   3.478  3.0482 -0.7948  0.5513
 2661SOL     OW 8233   4.616   5.735   3.341 -0.1028 -0.7748  0.7311
 2661SOL    HW1 8234   4.536   5.685   3.325 -3.2186  3.9789 -0.8478
 2661SOL    HW2 8235   4.603   5.774   3.427  1.0725 -0.8015  0.9324
 2662SOL     OW 8236   3.112   4.370   0.998 -0.1123  0.1359  0.1520
 2662SOL    HW1 8237   3.133   4.450   0.950  1.0462 -0.0133  0.3851
 2662SOL    HW2 8238   3.052   4.323   0.940 -0.5878  1.0293 -0.1071
 2663SOL     OW 8239   5.383   5.578   2.642 -0.2575 -0.0362  0.2897
 2663SOL    HW1 8240   5.427   5.652   2.686  0.3952  0.2683 -0.8173
 2663SOL    HW2 8241   5.447   5.507   2.648  0.2726  0.2973 -0.9924
 2664SOL     OW 8242   0.510   5.253   5.146 -0.2447  0.2358 -0.2215
 2664SOL    HW1 8243   0.481   5.234   5.056  1.5168 -1.8214 -0.4330
 2664SOL    HW2 8244   0.598   5.290   5.136  0.7419 -1.7336  0.6583
 2665SOL     OW 8245   0.243   4.714   0.836 -0.4441 -0.2651 -0.1632
 2665SOL    HW1 8246   0.292   4.674   0.908  1.7120  0.1988 -1.2664
 2665SOL    HW2 8247   0.171   4.761   0.879 -0.0164 -1.0970  1.5554
 2666SOL     OW 8248   3.581   2.941   5.707  0.1163 -0.5278  0.1334
 2666SOL    HW1 8249   3.674   2.925   5.720 -0.3036 -3.1446  0.6595
 2666SOL    HW2 8250   3.574   2.978   5.620  1.7848  1.9558  0.9576
 2667SOL     OW 8251   0.271   1.969   1.913  0.0440 -0.0273 -0.7921
 2667SOL    HW1 8252   0.302   1.881   1.933 -0.5921  0.3010  2.0937
 2667SOL    HW2 8253   0.350   2.022   1.904  0.4211 -0.4212  0.1172
 2668SOL     OW 8254   0.768   2.186   0.424 -0.2158 -0.3441 -0.5235
 2668SOL    HW1 8255   0.798   2.096   0.435 -0.4850 -0.9276 -3.6128
 2668SOL    HW2 8256   0.674   2.182   0.441  0.0997 -0.1370  1.4700
 2669SOL     OW 8257   6.005   4.234   0.638  0.3423  0.6809  0.5756
 2669SOL    HW1 8258   5.978   4.318   0.675 -0.9478 -0.0050  1.2677
 2669SOL    HW2 8259   6.058   4.257   0.562  0.4767  2.1178  1.0841
 2670SOL     OW 8260   4.799   0.757   5.683 -0.4508 -0.3115 -0.4418
 2670SOL    HW1 8261   4.724   0.812   5.665 -1.3121 -0.8612  1.2019
 2670SOL    HW2 8262   4.872   0.798   5.637 -0.7917  2.8918  1.5679
 2671SOL     OW 8263   5.290   0.335   4.856  0.0849 -0.0140 -0.2400
 2671SOL    HW1 8264   5.270   0.262   4.915  2.6084  0.5909  1.5144
 2671SOL    HW2 8265   5.366   0.306   4.806  1.3033  1.4422  0.6749
 2672SOL     OW 8266   0.920   5.441   2.360  0.5775 -0.1554 -0.4113
 2672SOL    HW1 8267   0.854   5.381   2.323 -1.2240 -0.3045  2.7364
 2672SOL    HW2 8268   0.911   5.521   2.308 -3.0261  0.2546  0.5873
 2673SOL     OW 8269   1.340   4.253   2.926  0.6975  0.4315  0.0692
 2673SOL    HW1 8270   1.296   4.271   2.843 -1.4871 -0.8957  0.8603
 2673SOL    HW2 8271   1.314   4.326   2.983 -2.1412 -1.1636  1.0582
 2674SOL     OW 8272   3.620   6.225   2.766  0.1763 -0.3820  0.5903
 2674SOL    HW1 8273   3.587   6.305   2.805 -0.6145 -0.3285 -0.1640
 2674SOL    HW2 8274   3.559   6.157   2.794  0.1184 -0.4960  0.2008
 2675SOL     OW 8275   2.417   2.406   4.325 -0.2896  0.0577 -0.2624
 2675SOL    HW1 8276   2.462   2.328   4.359 -0.8579  0.6369  2.0140
 2675SOL    HW2 8277   2.367   2.375   4.251  0.1185 -1.5924  0.1174
 2676SOL     OW 8278   5.556   4.442   2.115 -0.9985 -0.1996 -0.3202
 2676SOL    HW1 8279   5.535   4.488   2.197 -0.0224 -1.4060  0.6568
 2676SOL    HW2 8280   5.559   4.511   2.049 -1.2369  0.9034  0.7792
 2677SOL     OW 8281   3.373   3.888   1.716 -0.3670 -0.4950  0.4353
 2677SOL    HW1 8282   3.432   3.813   1.709  0.3437  0.1907 -1.4556
 2677SOL    HW2 8283   3.325   3.888   1.633  0.1572  1.5548  0.0954
 2678SOL     OW 8284   6.144   2.340   5.420 -0.3077  0.3005 -0.8518
 2678SOL    HW1 8285   6.090   2.265   5.444  0.1415  0.0879 -0.4904
 2678SOL    HW2 8286   6.084   2.415   5.421 -0.7722 -0.0578 -1.2702
 2679SOL     OW 8287   1.679   4.108   0.444 -0.3900 -0.2349 -0.0075
 2679SOL    HW1 8288   1.729   4.027   0.427 -2.2033 -1.4902  0.3473
 2679SOL    HW2 8289   1.682   4.155   0.361  0.0034 -1.0864 -0.4945
 2680SOL     OW 8290   2.014   0.263   2.399 -0.4238 -0.1073 -0.1095
 2680SOL    HW1 8291   2.092   0.297   2.443 -0.7824 -1.8912  2.0640
 2680SOL    HW2 8292   2.020   0.298   2.310  1.8211  1.3777  0.5310
 2681SOL     OW 8293   2.481   0.100   0.167 -0.5501 -0.1934 -0.0718
 2681SOL    HW1 8294   2.545   0.042   0.209 -1.3432  0.1484  1.6667
 2681SOL    HW2 8295   2.531   0.144   0.098  0.6562 -1.1918  0.1309
 2682SOL     OW 8296   1.954   1.291   3.136 -0.3881 -0.0756  0.1458
 2682SOL    HW1 8297   2.041   1.273   3.173 -0.5277 -0.3647  0.3388
 2682SOL    HW2 8298   1.949   1.237   3.058  0.0007  0.7184 -0.4425
 2683SOL     OW 8299   6.218   0.061   5.873 -0.0286 -0.2710  0.5442
 2683SOL    HW1 8300   6.170  -0.022   5.872 -1.3726  0.4786  1.2212
 2683SOL    HW2 8301   6.155   0.126   5.905 -0.0513  1.6531 -2.8626
 2684SOL     OW 8302   0.809   0.093   3.492 -0.2336  0.0428 -0.0495
 2684SOL    HW1 8303   0.760   0.070   3.571  2.2284 -2.2719  0.9887
 2684SOL    HW2 8304   0.752   0.067   3.419 -1.7614  0.3751  1.0052
 2685SOL     OW 8305   3.993   6.080   2.037  0.6710  0.3508 -0.6707
 2685SOL    HW1 8306   3.963   6.027   1.963  2.1531  0.2675 -1.2434
 2685SOL    HW2 8307   3.924   6.069   2.103 -1.6199  1.8873 -2.6418
 2686SOL     OW 8308   5.886   1.201   3.146 -0.1402 -1.2928 -0.0086
 2686SOL    HW1 8309   5.865   1.210   3.054 -0.8271  0.1618  0.2549
 2686SOL    HW2 8310   5.818   1.250   3.191  2.0266  0.9603  1.0658
 2687SOL     OW 8311   2.280   3.748   5.601  0.4499 -0.0027  0.3576
 2687SOL    HW1 8312   2.184   3.744   5.596  0.4689 -1.3233  0.7813
 2687SOL    HW2 8313   2.299   3.842   5.600 -0.9619  0.3713  2.1051
 2688SOL     OW 8314   4.728   4.182   5.844 -0.4621 -0.1749  0.1397
 2688SOL    HW1 8315   4.649   4.151   5.800  0.0373 -0.4588 -0.5873
 2688SOL    HW2 8316   4.799   4.152   5.787  0.2662 -1.3936  1.6373
 2689SOL     OW 8317   1.671   3.838   2.427 -0.6175  0.1778  0.0422
 2689SOL    HW1 8318   1.697   3.908   2.487 -0.6668 -0.9668  1.4501
 2689SOL    HW2 8319   1.749   3.824   2.372  0.9347 -1.3928  2.4508
 2690SOL     OW 8320   6.178   5.133   0.343  0.1699  0.0728 -0.3327
 2690SOL    HW1 8321   6.216   5.196   0.282  0.0576 -0.1375 -0.6226
 2690SOL    HW2 8322   6.253   5.085   0.378  0.2210  0.0767 -0.4365
 2691SOL     OW 8323   6.096   3.680   3.895 -0.3158 -0.2527  0.0423
 2691SOL    HW1 8324   6.119   3.699   3.804  1.7137 -1.0307  0.3403
 2691SOL    HW2 8325   6.178   3.688   3.942 -1.6218  1.8807  2.1669
 2692SOL     OW 8326   2.480   2.493   2.364  0.1929  0.3395 -0.2494
 2692SOL    HW1 8327   2.509   2.416   2.414 -0.1034  0.3238 -0.1024
 2692SOL    HW2 8328   2.385   2.485   2.360  0.1850  0.5484 -0.4815
 2693SOL     OW 8329   3.159   4.838   5.200  0.5240  0.4580 -0.3768
 2693SOL    HW1 8330   3.207   4.774   5.147  2.8839  1.3315  0.5940
 2693SOL    HW2 8331   3.226   4.890   5.243 -1.3122  2.3344  0.4404
 2694SOL     OW 8332   0.864   6.054   0.155  0.6681 -0.3146 -0.4897
 2694SOL    HW1 8333   0.804   6.124   0.182 -1.2707 -2.5553  1.3911
 2694SOL    HW2 8334   0.948   6.099   0.142 -0.4873  2.3642  0.5866
 2695SOL     OW 8335   3.074   5.147   2.641 -0.3154  0.3463  0.6920
 2695SOL    HW1 8336   2.980   5.129   2.643 -0.1206 -1.5925 -2.0084
 2695SOL    HW2 8337   3.082   5.240   2.663 -2.9943  0.9196 -0.4654
 2696SOL     OW 8338   2.394   1.710   3.115 -0.4244  0.3048  0.6679
 2696SOL    HW1 8339   2.401   1.792   3.067  0.4851 -0.2599 -0.1985
 2696SOL    HW2 8340   2.480   1.698   3.156 -0.5979 -0.1426  0.9200
 2697SOL     OW 8341   4.574   0.181   4.873  0.0263 -0.5849 -0.0846
 2697SOL    HW1 8342   4.590   0.088   4.857 -0.3818 -0.7617  0.4724
 2697SOL    HW2 8343   4.616   0.198   4.957 -2.2539 -0.9778  1.2305
 2698SOL     OW 8344   3.808   0.360   3.136  0.3768  0.0569 -0.3950
 2698SOL    HW1 8345   3.807   0.397   3.224  0.6538 -3.5981  1.3172
 2698SOL    HW2 8346   3.741   0.410   3.088  0.6319  2.5345  1.6179
 2699SOL     OW 8347   5.169   3.952   3.619  0.0548  0.3918  0.2098
 2699SOL    HW1 8348   5.148   4.026   3.561 -1.4493 -0.7180 -0.7403
 2699SOL    HW2 8349   5.250   3.916   3.583  0.5098  1.2525  0.3564
 2700SOL     OW 8350   2.469   2.693   5.566  0.0715  0.0296  0.0933
 2700SOL    HW1 8351   2.484   2.703   5.472 -0.8986 -0.8463 -0.1763
 2700SOL    HW2 8352   2.520   2.617   5.591  0.5002  0.3901  0.3303
 2701SOL     OW 8353   2.672   6.152   6.058  0.3981 -0.4927 -0.1696
 2701SOL    HW1 8354   2.697   6.199   5.979 -0.6778 -1.3337 -1.0494
 2701SOL    HW2 8355   2.581   6.179   6.074  0.1402 -1.4106 -0.0456
 2702SOL     OW 8356   0.468   0.007   2.031  0.0486  0.0242 -0.5143
 2702SOL    HW1 8357   0.559  -0.014   2.014 -0.4734 -3.8308  0.6391
 2702SOL    HW2 8358   0.419  -0.039   1.963 -1.1323  0.2434  0.1619
 2703SOL     OW 8359   1.260   2.850   5.187  1.2875 -0.0053 -0.0401
 2703SOL    HW1 8360   1.208   2.863   5.267  0.8487  1.8959 -0.5702
 2703SOL    HW2 8361   1.319   2.778   5.208  1.1295  0.3928  1.9876
 2704SOL     OW 8362   5.938   5.949   5.110  0.0992  0.7178 -0.4360
 2704SOL    HW1 8363   6.023   5.923   5.146 -0.8360 -0.0312  1.3793
 2704SOL    HW2 8364   5.915   6.028   5.159 -0.4585  0.6406 -0.5701
 2705SOL     OW 8365   6.320   5.343   3.092  0.5008  0.0764 -0.1495
 2705SOL    HW1 8366   6.274   5.413   3.046  1.1272  0.1819 -0.6255
 2705SOL    HW2 8367   6.260   5.268   3.089 -0.6828  0.8829  1.3515
 2706SOL     OW 8368   2.772   5.472   2.833  0.1779 -0.2490  0.5701
 2706SOL    HW1 8369   2.862   5.501   2.848  0.1487 -0.1876  0.6286
 2706SOL    HW2 8370   2.771   5.444   2.742  0.0890  0.3788  0.3726
 2707SOL     OW 8371   4.167   3.863   4.729 -0.2566  0.5679 -0.1197
 2707SOL    HW1 8372   4.129   3.845   4.643 -0.5916 -1.7136  0.4541
 2707SOL    HW2 8373   4.261   3.872   4.712 -0.3832  0.6849 -0.7877
 2708SOL     OW 8374   5.942   5.683   4.482  0.1847 -0.3732 -0.3956
 2708SOL    HW1 8375   6.031   5.688   4.518 -0.3053 -1.2780  1.0179
 2708SOL    HW2 8376   5.946   5.612   4.418  0.3779 -0.7524  0.0291
 2709SOL     OW 8377   1.162   5.396   2.235 -0.4194 -0.5616  0.2461
 2709SOL    HW1 8378   1.074   5.411   2.269 -0.2958  0.6904  0.0610
 2709SOL    HW2 8379   1.220   5.414   2.309 -0.2691 -0.3267  0.0729
 2710SOL     OW 8380   2.738   0.481   5.226  0.8283  0.1460  0.7079
 2710SOL    HW1 8381   2.758   0.510   5.315 -0.9922 -0.5612  1.3887
 2710SOL    HW2 8382   2.694   0.397   5.237  1.3187 -0.3684 -0.9201
 2711SOL     OW 8383   0.135   5.109   5.435 -0.1747  0.1645  0.3077
 2711SOL    HW1 8384   0.097   5.025   5.460  0.1725  0.3550  1.5669
 2711SOL    HW2 8385   0.069   5.174   5.458 -0.4012  0.2491 -0.5666
 2712SOL     OW 8386   2.255   3.003   0.888 -0.0877 -0.2266 -0.4580
 2712SOL    HW1 8387   2.191   3.075   0.886 -1.2058 -0.9017  3.3374
 2712SOL    HW2 8388   2.338   3.045   0.865 -0.8020  2.2017  0.9398
 2713SOL     OW 8389   0.278   0.936   2.598 -0.1046 -0.5141  0.1724
 2713SOL    HW1 8390   0.184   0.949   2.592  0.1743  1.5738 -0.7500
 2713SOL    HW2 8391   0.309   0.945   2.508  0.8775 -2.3526  0.2867
 2714SOL     OW 8392   3.792   0.540   4.560 -0.4795 -0.4514 -0.1841
 2714SOL    HW1 8393   3.712   0.495   4.533 -0.6209 -0.1374 -0.3071
 2714SOL    HW2 8394   3.783   0.628   4.523 -0.6232 -0.0416  0.7747
 2715SOL     OW 8395   4.470   5.856   5.929  0.2858  0.0451 -0.4706
 2715SOL    HW1 8396   4.553   5.883   5.967 -0.2462  0.2061  0.6219
 2715SOL    HW2 8397   4.404   5.880   5.994 -0.7411  0.9087 -1.7634
 2716SOL     OW 8398   5.358   4.325   4.312  0.2749 -0.7014 -0.1983
 2716SOL    HW1 8399   5.279   4.276   4.336  0.5965 -0.9531  0.3547
 2716SOL    HW2 8400   5.324   4.403   4.267 -0.3330 -0.3652  0.8197
 2717SOL     OW 8401   5.251   3.896   2.516 -0.0075  0.0404 -0.0160
 2717SOL    HW1 8402   5.283   3.965   2.458 -0.9743  0.6015  0.0825
 2717SOL    HW2 8403   5.324   3.880   2.576  0.8372 -0.2322 -1.0935
 2718SOL     OW 8404   4.859   5.329   1.578  0.3123  0.7317 -0.1774
 2718SOL    HW1 8405   4.931   5.392   1.586  0.3783  0.6983 -0.4650
 2718SOL    HW2 8406   4.781   5.383   1.567  0.1749  0.7809  0.9596
 2719SOL     OW 8407   0.128   4.957   1.789  0.4634  0.2708 -0.5969
 2719SOL    HW1 8408   0.155   4.939   1.879  1.2575  0.9485 -0.6790
 2719SOL    HW2 8409   0.050   5.011   1.798 -1.1828 -1.9929 -0.3524
 2720SOL     OW 8410   0.628   4.518   3.843 -0.2353 -0.5987 -0.0451
 2720SOL    HW1 8411   0.622   4.427   3.813  0.4150 -0.7845  0.3807
 2720SOL    HW2 8412   0.679   4.562   3.775 -0.0260 -0.6856  0.0575
 2721SOL     OW 8413   1.277   5.553   1.855  0.7087  1.0165 -0.2643
 2721SOL    HW1 8414   1.355   5.503   1.831  0.3227  0.0196  0.4623
 2721SOL    HW2 8415   1.221   5.489   1.900 -0.0664  1.9685  0.1598
 2722SOL     OW 8416   2.320   4.890   3.736 -0.0327  1.0414 -0.3472
 2722SOL    HW1 8417   2.321   4.979   3.770  0.2972  1.6459 -1.8662
 2722SOL    HW2 8418   2.297   4.899   3.644 -2.5190 -0.6684 -0.0100
 2723SOL     OW 8419   6.007   5.666   2.572  0.3439 -0.1498 -0.2336
 2723SOL    HW1 8420   6.012   5.747   2.624  0.4523  0.6062 -1.3780
 2723SOL    HW2 8421   5.919   5.632   2.588 -0.2328  0.9944 -0.8651
 2724SOL     OW 8422   4.750   0.679   2.881  0.7342  0.2602  0.3554
 2724SOL    HW1 8423   4.807   0.754   2.895 -1.2009  2.7112 -3.2902
 2724SOL    HW2 8424   4.664   0.709   2.908  0.0117 -0.8284 -0.6294
 2725SOL     OW 8425   0.017   4.792   2.937 -0.1257 -0.0233 -0.0298
 2725SOL    HW1 8426  -0.046   4.731   2.899 -0.2303 -0.3009  0.5827
 2725SOL    HW2 8427  -0.011   4.878   2.905 -0.7174 -0.1636  0.0949
 2726SOL     OW 8428   5.143   1.988   4.342 -0.0488 -0.2417 -0.0212
 2726SOL    HW1 8429   5.219   2.025   4.296  0.0915  0.6951  0.9286
 2726SOL    HW2 8430   5.078   1.973   4.272  1.3466 -2.0861 -1.0113
 2727SOL     OW 8431   1.581   6.004   5.726  0.4596 -0.4380 -0.0064
 2727SOL    HW1 8432   1.638   5.938   5.687 -1.3485 -1.6976 -0.6303
 2727SOL    HW2 8433   1.604   6.003   5.819 -1.2129 -3.8866  0.5321
 2728SOL     OW 8434   5.595   5.488   4.970 -0.1118  0.6995  1.0909
 2728SOL    HW1 8435   5.509   5.467   5.006 -0.5440  0.5884  0.0036
 2728SOL    HW2 8436   5.581   5.568   4.919  0.3441  0.4670  0.5971
 2729SOL     OW 8437   0.841   5.669   4.277  0.4283  0.0230  0.0075
 2729SOL    HW1 8438   0.852   5.666   4.182 -0.4576 -1.3008 -0.0715
 2729SOL    HW2 8439   0.931   5.673   4.311  0.7900 -0.4366 -0.8667
 2730SOL     OW 8440   2.708   1.642   4.328 -0.0303  0.1553 -0.5282
 2730SOL    HW1 8441   2.630   1.693   4.351 -0.3039 -0.1804 -0.6974
 2730SOL    HW2 8442   2.674   1.570   4.274  0.0285 -1.5744  1.6035
 2731SOL     OW 8443   0.709   0.629   3.088  0.4328  0.0835  0.2114
 2731SOL    HW1 8444   0.636   0.634   3.027 -0.8555  2.8399  1.7806
 2731SOL    HW2 8445   0.679   0.569   3.156  1.7508 -2.7477 -1.5063
 2732SOL     OW 8446   1.054   5.686   5.754 -0.1585 -0.4196  0.6646
 2732SOL    HW1 8447   1.041   5.614   5.816 -1.8248  0.0650  0.9273
 2732SOL    HW2 8448   1.048   5.645   5.668 -0.6958 -0.6603  0.8135
 2733SOL     OW 8449   0.057   4.493   4.931  0.2254  0.5313 -0.2758
 2733SOL    HW1 8450   0.047   4.508   4.837 -1.4405  0.7239 -0.1018
 2733SOL    HW2 8451   0.038   4.578   4.971 -0.5936  0.0962  0.2882
 2734SOL     OW 8452   2.344   1.771   2.260 -0.5617 -0.3247  0.1835
 2734SOL    HW1 8453   2.426   1.787   2.213 -0.6164 -0.8641 -0.0946
 2734SOL    HW2 8454   2.333   1.676   2.258  0.3043 -0.5595  2.7456
 2735SOL     OW 8455   5.546   5.970   4.962 -0.3968  0.5936 -0.0979
 2735SOL    HW1 8456   5.575   5.921   5.038 -0.1665  0.9918  0.0750
 2735SOL    HW2 8457   5.597   6.051   4.965 -1.0885  1.0352 -0.1363
 2736SOL     OW 8458   2.125   5.218   5.714 -0.4000  0.3497 -0.2144
 2736SOL    HW1 8459   2.101   5.308   5.739  0.5356  0.0081  2.1688
 2736SOL    HW2 8460   2.219   5.223   5.695 -0.4187 -0.0529 -0.4175
 2737SOL     OW 8461   0.303   5.404   0.983 -0.0010  0.4648 -0.0970
 2737SOL    HW1 8462   0.290   5.389   1.077  1.6248 -1.7069 -0.1353
 2737SOL    HW2 8463   0.387   5.450   0.978  1.2878 -1.7597 -0.4994
 2738SOL     OW 8464   3.341   4.877   2.407 -0.0607  0.6671  0.4874
 2738SOL    HW1 8465   3.346   4.863   2.312 -0.6368  0.0329  0.5405
 2738SOL    HW2 8466   3.247   4.873   2.426  0.1436 -1.3299  1.3763
 2739SOL     OW 8467   0.542   5.569   5.950  0.1367 -0.0526  0.2685
 2739SOL    HW1 8468   0.468   5.508   5.959  0.4114 -0.3486  0.5785
 2739SOL    HW2 8469   0.619   5.516   5.973  0.4954  0.1266 -0.5088
 2740SOL     OW 8470   5.589   1.974   3.842  0.2767 -0.1865 -0.6148
 2740SOL    HW1 8471   5.581   1.879   3.830  2.2459 -0.6584  1.2001
 2740SOL    HW2 8472   5.678   1.994   3.812  0.5025  0.7587  0.6507
 2741SOL     OW 8473   4.942   3.828   2.908 -0.1034  0.0022 -0.1990
 2741SOL    HW1 8474   4.890   3.882   2.849 -0.4964 -1.7395 -1.5283
 2741SOL    HW2 8475   4.899   3.837   2.993  0.8186  3.0189  0.0823
 2742SOL     OW 8476   5.855   0.043   2.279  0.2797 -0.2400  0.2583
 2742SOL    HW1 8477   5.922   0.090   2.229 -1.2108  1.5775 -0.1856
 2742SOL    HW2 8478   5.841  -0.038   2.230 -0.6512  1.1698 -1.9915
 2743SOL     OW 8479   5.017   5.365   2.594 -0.2178 -0.2870 -0.1171
 2743SOL    HW1 8480   4.928   5.372   2.558  0.2932 -0.0551 -1.3813
 2743SOL    HW2 8481   5.004   5.363   2.689 -1.7467 -2.5296 -0.2766
 2744SOL     OW 8482   3.032   5.575   1.104 -0.6494 -0.4977 -0.2657
 2744SOL    HW1 8483   2.946   5.604   1.135  0.6523  3.0338  0.4529
 2744SOL    HW2 8484   3.086   5.654   1.105  2.2235 -2.2587 -2.1870
 2745SOL     OW 8485   0.778   5.223   5.819  0.1028 -0.3019  0.6203
 2745SOL    HW1 8486   0.714   5.269   5.764  2.1648  0.9690 -0.8456
 2745SOL    HW2 8487   0.845   5.193   5.758  1.5555 -0.4931  2.2430
 2746SOL     OW 8488   3.849   3.608   1.479 -0.2287  0.6194  0.7577
 2746SOL    HW1 8489   3.917   3.605   1.546  0.4971 -3.3133  0.0479
 2746SOL    HW2 8490   3.893   3.645   1.402  0.5146  0.0142  0.8865
 2747SOL     OW 8491   1.162   4.568   1.724 -0.3637 -0.8391  0.0493
 2747SOL    HW1 8492   1.254   4.543   1.732 -0.0279  0.4718  0.5527
 2747SOL    HW2 8493   1.158   4.623   1.646 -0.4300  0.2487  0.7905
 2748SOL     OW 8494   3.138   3.241   2.252 -0.1852 -0.0021  0.0892
 2748SOL    HW1 8495   3.117   3.265   2.162  0.9071 -1.4356 -0.5808
 2748SOL    HW2 8496   3.147   3.146   2.251 -1.2734 -0.1898  1.9759
 2749SOL     OW 8497   3.818   2.568   1.239  0.1652 -0.1732 -0.3772
 2749SOL    HW1 8498   3.839   2.657   1.267  0.3647 -0.4772  0.4714
 2749SOL    HW2 8499   3.723   2.567   1.231 -0.0446 -0.4332  1.6386
 2750SOL     OW 8500   2.407   4.299   1.673  0.1606 -0.0979  0.2820
 2750SOL    HW1 8501   2.494   4.258   1.669  0.5011  0.6600 -0.5638
 2750SOL    HW2 8502   2.386   4.317   1.581 -1.7092 -1.9212  0.2944
 2751SOL     OW 8503   3.297   6.136   1.959 -0.4315  0.0282  0.6365
 2751SOL    HW1 8504   3.382   6.172   1.986 -0.1490 -1.3361  1.6874
 2751SOL    HW2 8505   3.320   6.062   1.902 -0.9755  0.7290 -0.5281
 2752SOL     OW 8506   6.240   5.264   0.916  0.0300 -0.5103  0.6683
 2752SOL    HW1 8507   6.262   5.357   0.917 -0.3107 -0.4105 -0.1255
 2752SOL    HW2 8508   6.324   5.219   0.916  0.2627 -0.1566 -1.3201
 2753SOL     OW 8509   3.804   0.247   4.775  0.3986 -0.3057  0.2849
 2753SOL    HW1 8510   3.889   0.220   4.741 -1.2478 -0.8790 -4.0792
 2753SOL    HW2 8511   3.784   0.328   4.728 -1.0948  0.3329  1.9231
 2754SOL     OW 8512   3.961   0.115   1.103 -0.0734  0.2297 -0.0172
 2754SOL    HW1 8513   3.912   0.119   1.185  1.2330 -1.7065  0.9239
 2754SOL    HW2 8514   3.898   0.084   1.038 -0.3536 -1.3116  0.9633
 2755SOL     OW 8515   2.254   5.022   4.959  0.7913  0.0197  0.0112
 2755SOL    HW1 8516   2.314   5.065   4.898  1.0385 -0.9270 -0.4244
 2755SOL    HW2 8517   2.303   5.015   5.041  0.5496  1.0617  0.2659
 2756SOL     OW 8518   2.132   2.764   4.425  0.1885 -0.3003  0.0311
 2756SOL    HW1 8519   2.222   2.786   4.403 -0.7411  2.2031 -1.7238
 2756SOL    HW2 8520   2.103   2.707   4.354  0.4131 -1.3310  0.7378
 2757SOL     OW 8521   1.583   5.086   0.145 -0.2415  0.4859 -0.0500
 2757SOL    HW1 8522   1.634   5.117   0.070 -0.0538  1.2785  0.3974
 2757SOL    HW2 8523   1.494   5.076   0.110  0.0536 -0.1368 -0.6293
 2758SOL     OW 8524   3.099   5.944   0.340 -0.1028  0.2955 -0.6280
 2758SOL    HW1 8525   3.173   5.945   0.280 -0.0006  1.5003 -0.4964
 2758SOL    HW2 8526   3.133   5.900   0.418  0.6491  1.3070 -0.3675
 2759SOL     OW 8527   5.636   2.861   2.272 -0.1607  0.2181 -0.3184
 2759SOL    HW1 8528   5.649   2.767   2.281 -0.4101  0.3441  2.1495
 2759SOL    HW2 8529   5.710   2.891   2.219  0.1861 -1.2902 -0.7280
 2760SOL     OW 8530   3.436   3.362   4.206  0.1234 -0.4367  0.3310
 2760SOL    HW1 8531   3.478   3.371   4.121  0.1503  2.3450  0.5499
 2760SOL    HW2 8532   3.426   3.452   4.238 -0.3281 -1.3528  3.0569
 2761SOL     OW 8533   4.357   0.225   6.174  0.1088 -0.0229 -0.3397
 2761SOL    HW1 8534   4.318   0.311   6.156 -0.0136 -0.1010 -0.4527
 2761SOL    HW2 8535   4.450   0.237   6.157  0.3034  0.4561  0.9912
 2762SOL     OW 8536   2.335   3.130   1.661 -0.2947 -1.0163 -0.2679
 2762SOL    HW1 8537   2.256   3.156   1.708 -1.4177 -1.4606 -1.8291
 2762SOL    HW2 8538   2.402   3.193   1.690 -1.1229 -0.7800  1.2618
 2763SOL     OW 8539   5.658   1.471   3.680 -0.4661 -0.4866  0.2955
 2763SOL    HW1 8540   5.746   1.489   3.647 -0.4306 -1.2793 -0.0500
 2763SOL    HW2 8541   5.600   1.509   3.614 -0.4206 -3.2526 -1.4980
 2764SOL     OW 8542   0.391   2.437   3.448  0.4535  0.1987  0.2535
 2764SOL    HW1 8543   0.360   2.354   3.411  0.7889 -0.4896  1.4822
 2764SOL    HW2 8544   0.474   2.453   3.403  1.4110 -1.1952  1.4360
 2765SOL     OW 8545   4.383   5.575   3.221 -0.3162  0.3806 -0.1221
 2765SOL    HW1 8546   4.309   5.611   3.269 -1.2457  0.3652 -1.4795
 2765SOL    HW2 8547   4.360   5.483   3.206  1.7215 -0.7300  2.7175
 2766SOL     OW 8548   2.154   1.823   4.580 -0.3455 -0.8646 -0.7013
 2766SOL    HW1 8549   2.217   1.881   4.622 -0.4697 -1.4172  0.2812
 2766SOL    HW2 8550   2.070   1.870   4.586 -0.7091 -1.6657  1.2987
 2767SOL     OW 8551   1.334   5.803   5.830 -0.6032 -0.4032  0.0285
 2767SOL    HW1 8552   1.342   5.898   5.836 -0.2045 -0.3705 -0.8978
 2767SOL    HW2 8553   1.267   5.789   5.763  0.6848 -0.7735 -1.2315
 2768SOL     OW 8554   3.756   5.242   4.236  0.1214  0.6257 -0.0298
 2768SOL    HW1 8555   3.747   5.189   4.157 -1.4086  0.8552 -0.0380
 2768SOL    HW2 8556   3.786   5.327   4.204 -1.7190  1.1216 -0.5505
 2769SOL     OW 8557   5.322   1.722   2.065  0.3737 -0.3606 -0.1059
 2769SOL    HW1 8558   5.285   1.660   2.002  1.4363 -1.0358 -0.0901
 2769SOL    HW2 8559   5.336   1.802   2.014  0.0045 -0.4755 -0.3962
 2770SOL     OW 8560   4.053   1.668   1.673  0.2928  0.0011  0.0861
 2770SOL    HW1 8561   4.128   1.670   1.613  1.5143 -1.0848  1.4977
 2770SOL    HW2 8562   4.050   1.756   1.710 -0.8412  0.8735 -1.9240
 2771SOL     OW 8563   3.044   3.307   2.509  0.6272  0.2724  0.3567
 2771SOL    HW1 8564   3.080   3.286   2.422  0.8861 -0.9517  0.7332
 2771SOL    HW2 8565   3.121   3.321   2.564  0.4605  1.2638  0.3559
 2772SOL     OW 8566   3.660   4.700   2.843  0.4276 -0.0204 -0.0233
 2772SOL    HW1 8567   3.634   4.792   2.840  0.7342  0.0617 -0.2055
 2772SOL    HW2 8568   3.644   4.667   2.754 -2.0747 -0.8170  0.6405
 2773SOL     OW 8569   5.781   2.662   1.346 -0.1180  0.4070  0.2247
 2773SOL    HW1 8570   5.825   2.690   1.427  0.1866  1.9983 -0.4405
 2773SOL    HW2 8571   5.758   2.571   1.361  1.0872  0.2941  1.6156
 2774SOL     OW 8572   1.263   5.637   2.130  0.1696 -0.6223 -0.2683
 2774SOL    HW1 8573   1.219   5.552   2.131  2.2568 -1.7697  0.5993
 2774SOL    HW2 8574   1.343   5.624   2.182  0.1883  2.0910  0.5767
 2775SOL     OW 8575   4.288   4.660   2.366  0.4679  0.4942 -0.3489
 2775SOL    HW1 8576   4.214   4.655   2.427  1.4938  0.1712  0.9322
 2775SOL    HW2 8577   4.361   4.691   2.420  1.5666 -0.3714 -1.2835
 2776SOL     OW 8578   0.176   2.169   1.626  0.1113  0.3259 -0.3555
 2776SOL    HW1 8579   0.147   2.240   1.568 -0.7148  0.0984 -0.2317
 2776SOL    HW2 8580   0.195   2.213   1.709  1.6104  0.7004 -0.8698
 2777SOL     OW 8581   3.191   5.107   3.221 -0.1689 -0.0069 -0.4963
 2777SOL    HW1 8582   3.247   5.180   3.197 -1.0338  0.7003 -0.4003
 2777SOL    HW2 8583   3.127   5.144   3.282 -2.2077 -0.2108 -2.3913
 2778SOL     OW 8584   5.908   4.102   4.097 -0.3339 -0.1740 -0.1023
 2778SOL    HW1 8585   5.828   4.128   4.051  0.1760  0.7546 -0.4802
 2778SOL    HW2 8586   5.963   4.061   4.030 -0.4648 -0.7812  0.1499
 2779SOL     OW 8587   2.705   3.284   4.193  0.3069 -0.0891 -0.8463
 2779SOL    HW1 8588   2.660   3.360   4.156  1.6322  1.1221 -0.0889
 2779SOL    HW2 8589   2.667   3.274   4.281 -1.5273 -1.8209 -1.7483
 2780SOL     OW 8590   0.966   3.783   2.099  0.1847 -0.0680 -0.4011
 2780SOL    HW1 8591   1.047   3.755   2.141 -0.7862 -2.1062  0.2236
 2780SOL    HW2 8592   0.897   3.758   2.160 -0.9457  1.8454 -0.8084
 2781SOL     OW 8593   1.563   4.511   6.177 -0.2206 -0.1996 -0.1607
 2781SOL    HW1 8594   1.477   4.491   6.140 -0.7626 -0.2066  1.0259
 2781SOL    HW2 8595   1.623   4.508   6.103 -1.3153  0.2813 -1.1097
 2782SOL     OW 8596   3.090   6.202   2.455 -0.1994 -0.3335 -0.1191
 2782SOL    HW1 8597   3.109   6.296   2.451  2.0303 -0.7019  0.4920
 2782SOL    HW2 8598   3.132   6.166   2.377  0.2147 -1.0094  0.4050
 2783SOL     OW 8599   5.834   3.976   0.406 -0.6332 -0.1835 -0.5383
 2783SOL    HW1 8600   5.902   3.913   0.429 -1.1853 -0.5813  0.0466
 2783SOL    HW2 8601   5.818   3.961   0.313 -0.8506 -1.0005 -0.3743
 2784SOL     OW 8602   3.191   6.092   4.506 -0.1791 -0.4851  0.4803
 2784SOL    HW1 8603   3.180   6.098   4.411 -0.5830 -1.4393  0.4556
 2784SOL    HW2 8604   3.112   6.047   4.536 -0.5899  0.7739  1.4133
 2785SOL     OW 8605   2.861   4.140   6.161 -0.4292  0.0370  0.7105
 2785SOL    HW1 8606   2.932   4.115   6.220 -1.2347  0.3297  1.8464
 2785SOL    HW2 8607   2.884   4.228   6.131  0.3368 -0.3880  0.0011
 2786SOL     OW 8608   3.510   5.456   1.133  0.3212 -0.1023  0.2830
 2786SOL    HW1 8609   3.539   5.471   1.223 -1.0307 -0.2452  0.7600
 2786SOL    HW2 8610   3.426   5.411   1.142  0.6845 -1.1089 -1.0638
 2787SOL     OW 8611   3.626   4.153   4.894 -0.4054 -0.0901 -0.1733
 2787SOL    HW1 8612   3.664   4.090   4.955 -1.3550  0.7632  1.3632
 2787SOL    HW2 8613   3.556   4.105   4.849 -0.8103 -0.2762  0.6445
 2788SOL     OW 8614   5.739   1.412   0.749  0.1786  0.6018 -0.0590
 2788SOL    HW1 8615   5.782   1.326   0.748  1.3316  1.1677 -0.1464
 2788SOL    HW2 8616   5.646   1.391   0.760  0.1919 -0.7566 -2.0111
 2789SOL     OW 8617   1.792   0.094   2.432 -0.3940 -0.0309 -0.1781
 2789SOL    HW1 8618   1.866   0.154   2.434 -1.9040  1.9147 -0.0162
 2789SOL    HW2 8619   1.804   0.044   2.351  1.7381 -0.7226  0.4802
 2790SOL     OW 8620   5.608   3.292   3.973  0.2271 -0.4322  0.3657
 2790SOL    HW1 8621   5.517   3.264   3.963  0.1591  0.1537 -0.9010
 2790SOL    HW2 8622   5.603   3.387   3.977  0.6576 -0.4566  2.1263
 2791SOL     OW 8623   3.258   4.578   0.235 -0.2069 -0.2297  0.0973
 2791SOL    HW1 8624   3.186   4.618   0.187  0.3463  1.9627  0.9721
 2791SOL    HW2 8625   3.224   4.564   0.323 -0.9284 -3.3930 -0.5784
 2792SOL     OW 8626   4.042   1.146   6.193 -0.3828  0.2034 -0.1244
 2792SOL    HW1 8627   3.988   1.162   6.116 -1.6940 -0.2714  0.6707
 2792SOL    HW2 8628   4.053   1.232   6.233 -2.6211  0.0102  1.0272
 2793SOL     OW 8629   3.045   0.460   4.604  0.1833 -0.1292  0.3805
 2793SOL    HW1 8630   3.061   0.457   4.698  0.4420  3.6177  0.5828
 2793SOL    HW2 8631   3.132   0.452   4.564  0.3151  0.4265  0.5588
 2794SOL     OW 8632   6.189   2.578   1.688 -0.0821  0.0198  1.1215
 2794SOL    HW1 8633   6.229   2.509   1.636  0.4653  0.4055  1.0284
 2794SOL    HW2 8634   6.238   2.578   1.770  0.3437  0.7176  0.8754
 2795SOL     OW 8635   3.349   2.924   4.361 -0.2304 -0.0353  0.6884
 2795SOL    HW1 8636   3.311   2.991   4.303  0.2836 -1.2254 -1.1172
 2795SOL    HW2 8637   3.292   2.923   4.437  0.7422  3.7135  1.6803
 2796SOL     OW 8638   1.465   2.211   0.410  0.2334 -0.0712  0.3214
 2796SOL    HW1 8639   1.506   2.226   0.325 -0.2763  0.1618  0.1116
 2796SOL    HW2 8640   1.532   2.235   0.474  0.2642  0.7659 -0.0106
 2797SOL     OW 8641   2.106   5.509   5.320  0.5745 -0.1121  0.5816
 2797SOL    HW1 8642   2.029   5.527   5.375  0.4480 -0.7085  0.6141
 2797SOL    HW2 8643   2.069   5.471   5.240  0.8979 -1.5946  1.1134
 2798SOL     OW 8644   0.745   3.296   2.480  0.1356  0.2048  0.1733
 2798SOL    HW1 8645   0.683   3.294   2.553  1.0697  0.8289  1.0046
 2798SOL    HW2 8646   0.781   3.207   2.477 -1.0554 -0.2758 -0.5668
 2799SOL     OW 8647   3.739   0.747   4.396 -0.5929  0.0418  0.6233
 2799SOL    HW1 8648   3.803   0.816   4.412  0.3773 -1.1517  2.1113
 2799SOL    HW2 8649   3.690   0.778   4.319  0.8278  1.6346  0.2907
 2800SOL     OW 8650   3.207   4.635   1.169 -0.3883 -0.1189 -0.0383
 2800SOL    HW1 8651   3.213   4.717   1.119 -0.9595 -0.0032  0.0772
 2800SOL    HW2 8652   3.136   4.587   1.127 -0.7671 -0.0917  0.5629
 2801SOL     OW 8653   3.761   2.448   5.525  0.5021 -0.1742 -0.6376
 2801SOL    HW1 8654   3.749   2.355   5.505  0.3997 -0.3875  0.3682
 2801SOL    HW2 8655   3.809   2.449   5.607  1.2893  0.6754 -1.0894
 2802SOL     OW 8656   4.109   3.669   1.605  0.2682  0.2773  0.1641
 2802SOL    HW1 8657   4.145   3.754   1.630  1.4521 -0.3944  0.8554
 2802SOL    HW2 8658   4.176   3.628   1.551  0.0982 -0.5600  0.5544
 2803SOL     OW 8659   0.325   4.801   3.490 -0.1947  0.0253 -0.8870
 2803SOL    HW1 8660   0.317   4.804   3.394  0.9298  0.1888 -0.9987
 2803SOL    HW2 8661   0.320   4.708   3.511 -1.4904  0.0598 -0.9865
 2804SOL     OW 8662   5.303   3.495   4.658 -0.1470  0.1687  0.1189
 2804SOL    HW1 8663   5.210   3.512   4.673 -1.1843 -1.5830 -3.3585
 2804SOL    HW2 8664   5.308   3.465   4.568  3.1535 -4.4047  1.4652
 2805SOL     OW 8665   5.074   2.702   2.375 -0.2387  0.1054  0.3467
 2805SOL    HW1 8666   5.125   2.651   2.438 -0.9387 -0.6368  0.3247
 2805SOL    HW2 8667   5.014   2.753   2.430  0.2085  0.6458  0.3484
 2806SOL     OW 8668   1.476   3.639   2.467 -0.3473  0.9668 -0.1587
 2806SOL    HW1 8669   1.469   3.584   2.389  0.0908  2.8563 -1.6175
 2806SOL    HW2 8670   1.540   3.706   2.443  0.0552  1.4073  1.9745
 2807SOL     OW 8671   4.519   0.922   3.377 -0.3705 -0.4251 -0.6061
 2807SOL    HW1 8672   4.495   1.014   3.370 -0.6169 -0.3636  0.9202
 2807SOL    HW2 8673   4.611   0.920   3.351  0.7462  0.8629  2.7967
 2808SOL     OW 8674   3.772   3.571   2.633  0.0937 -0.8529  0.3619
 2808SOL    HW1 8675   3.681   3.601   2.630  0.4834  0.3879  0.2135
 2808SOL    HW2 8676   3.807   3.611   2.713  1.0794  0.4985 -0.6836
 2809SOL     OW 8677   2.742   2.398   5.205 -0.2122  0.0616  0.4389
 2809SOL    HW1 8678   2.830   2.422   5.178 -0.1647 -1.4117 -0.8961
 2809SOL    HW2 8679   2.756   2.330   5.271 -0.2523 -1.9302 -1.4724
 2810SOL     OW 8680   2.705   4.990   3.379  0.3395 -0.8340 -0.1445
 2810SOL    HW1 8681   2.678   5.002   3.288  1.1039  0.6950 -0.1956
 2810SOL    HW2 8682   2.797   4.963   3.374  1.0662  1.4128  0.1906
 2811SOL     OW 8683   6.168   3.839   1.975 -0.2307 -0.1065 -0.7618
 2811SOL    HW1 8684   6.132   3.892   1.904 -1.2608  0.6646  0.2950
 2811SOL    HW2 8685   6.262   3.835   1.957 -0.0515  2.4561 -0.6698
 2812SOL     OW 8686   4.401   4.426   6.334  0.1130  0.7530  0.1461
 2812SOL    HW1 8687   4.309   4.403   6.320  0.2600 -1.3940  2.1299
 2812SOL    HW2 8688   4.450   4.361   6.283  0.6249  2.5622 -1.8220
 2813SOL     OW 8689   4.544   4.486   1.859 -0.1105  0.1583  0.5699
 2813SOL    HW1 8690   4.472   4.443   1.904  1.1957 -1.0456  1.6170
 2813SOL    HW2 8691   4.523   4.476   1.766 -0.7001 -1.2774  0.8307
 2814SOL     OW 8692   2.652   0.195   4.251 -0.3181 -0.0568  0.3222
 2814SOL    HW1 8693   2.684   0.273   4.296 -0.6821  0.6990 -0.6754
 2814SOL    HW2 8694   2.570   0.223   4.211 -1.0274 -1.2774  0.8616
 2815SOL     OW 8695   0.848   1.751   5.582  0.3374 -0.0036  0.4864
 2815SOL    HW1 8696   0.773   1.711   5.538  1.1665  0.8664 -1.8765
 2815SOL    HW2 8697   0.842   1.844   5.560  2.0564  0.0943  0.3316
 2816SOL     OW 8698   5.939   0.276   3.328 -0.4857 -0.1006  0.0303
 2816SOL    HW1 8699   5.980   0.363   3.333  1.4332 -0.8579 -1.4211
 2816SOL    HW2 8700   6.011   0.217   3.307 -2.3896 -1.3987 -3.6476
 2817SOL     OW 8701   1.416   5.423   5.507  0.1016  0.0331  0.0132
 2817SOL    HW1 8702   1.388   5.418   5.598  1.7637  1.3636  0.6655
 2817SOL    HW2 8703   1.451   5.336   5.488  1.4270  0.2367  1.2933
 2818SOL     OW 8704   0.188   5.010   5.022  0.2671  0.3439 -0.1475
 2818SOL    HW1 8705   0.142   5.091   5.046  1.3428  1.6293 -2.1569
 2818SOL    HW2 8706   0.206   4.967   5.105 -0.8018  1.9068  0.9477
 2819SOL     OW 8707   2.352   4.681   3.243  0.5433 -0.7461 -0.1208
 2819SOL    HW1 8708   2.389   4.606   3.289  1.7473 -0.2529 -0.2409
 2819SOL    HW2 8709   2.311   4.733   3.312  1.2926 -0.6146  0.2353
 2820SOL     OW 8710   0.896   6.164   3.339  0.3578 -0.1316  0.2265
 2820SOL    HW1 8711   0.983   6.136   3.367  1.1608  0.1892 -1.8506
 2820SOL    HW2 8712   0.836   6.112   3.394  1.8221 -0.1959  1.8375
 2821SOL     OW 8713   1.166   2.392   4.200 -0.0781  0.1901 -0.1061
 2821SOL    HW1 8714   1.185   2.419   4.110 -0.3907 -0.2952 -0.3221
 2821SOL    HW2 8715   1.251   2.393   4.244 -0.0141  1.0636 -0.2245
 2822SOL     OW 8716   4.463   1.475   2.120  0.4004  0.4881 -0.2053
 2822SOL    HW1 8717   4.474   1.432   2.204  0.5925  0.2869 -0.3307
 2822SOL    HW2 8718   4.459   1.403   2.057 -2.8963  0.4303 -0.0703
 2823SOL     OW 8719   4.101   0.019   1.934 -0.2615 -0.2237  0.0818
 2823SOL    HW1 8720   4.156  -0.050   1.897 -0.2099 -0.2152  0.1431
 2823SOL    HW2 8721   4.068  -0.017   2.016  1.2135  0.4856  1.0206
 2824SOL     OW 8722   1.374   4.350   5.985  0.1114 -0.1985  0.3748
 2824SOL    HW1 8723   1.432   4.280   6.016 -1.2119 -1.2921  0.4559
 2824SOL    HW2 8724   1.286   4.315   5.995 -0.6037  1.5072  0.4506
 2825SOL     OW 8725   0.635   1.198   0.013 -0.4938  0.1466 -0.2716
 2825SOL    HW1 8726   0.619   1.142   0.089 -1.2801  0.2946 -0.3125
 2825SOL    HW2 8727   0.712   1.160  -0.030  0.3656  0.4483  0.9586
 2826SOL     OW 8728   4.212   0.250   1.064  0.0858 -0.4074 -0.2379
 2826SOL    HW1 8729   4.130   0.238   1.111 -0.2924  0.3473 -0.6783
 2826SOL    HW2 8730   4.188   0.300   0.985  1.1635  1.2024  0.3861
 2827SOL     OW 8731   2.991   2.127   2.326  0.0099  0.2894 -0.4377
 2827SOL    HW1 8732   2.929   2.144   2.256  0.1633 -3.0358 -1.5624
 2827SOL    HW2 8733   3.038   2.049   2.298  0.2398 -1.1095  3.2600
 2828SOL     OW 8734   4.830   2.998   5.395 -0.2242 -0.1963 -0.2658
 2828SOL    HW1 8735   4.747   2.951   5.405 -0.5155  0.1081 -1.1606
 2828SOL    HW2 8736   4.888   2.936   5.350  0.0440 -0.4088  0.3581
 2829SOL     OW 8737   4.711   1.789   2.827 -0.0543  0.1087  0.1422
 2829SOL    HW1 8738   4.712   1.804   2.733  2.5760  1.0748  0.2449
 2829SOL    HW2 8739   4.731   1.696   2.837 -3.2090 -0.7132 -0.2272
 2830SOL     OW 8740   0.447   3.730   1.072  0.3447  0.4746  0.1473
 2830SOL    HW1 8741   0.385   3.675   1.024  1.1941 -0.1575 -0.2501
 2830SOL    HW2 8742   0.462   3.684   1.154  0.9617  0.1679 -0.1334
 2831SOL     OW 8743   2.361   1.281   1.910 -0.0421 -0.3904  0.1506
 2831SOL    HW1 8744   2.316   1.313   1.832 -0.5665 -0.1949  0.5275
 2831SOL    HW2 8745   2.389   1.361   1.955 -0.8353 -0.4623  0.7919
 2832SOL     OW 8746   2.654   4.166   2.049 -0.3748  0.0584 -0.0836
 2832SOL    HW1 8747   2.627   4.074   2.052  0.0231 -0.1124 -1.3392
 2832SOL    HW2 8748   2.744   4.165   2.082 -0.6603  0.1304  0.7207
 2833SOL     OW 8749   4.197   0.475   2.842 -0.6002 -0.0844 -0.1376
 2833SOL    HW1 8750   4.165   0.560   2.872 -1.0597 -1.4604  3.7492
 2833SOL    HW2 8751   4.152   0.461   2.758  0.6512  4.0439 -1.7478
 2834SOL     OW 8752   5.233   2.734   5.035 -0.0950  0.2840  0.5917
 2834SOL    HW1 8753   5.179   2.690   4.970  0.1814 -1.8868  1.7317
 2834SOL    HW2 8754   5.192   2.713   5.119  1.0448  0.7590  1.2940
 2835SOL     OW 8755   3.111   4.014   5.989 -0.0678 -0.0309  0.1541
 2835SOL    HW1 8756   3.081   4.083   5.930  2.2921  0.5691 -0.4259
 2835SOL    HW2 8757   3.094   4.049   6.077  0.7514  1.1515 -0.1370
 2836SOL     OW 8758   5.493   1.679   5.669  0.2854  0.2160 -0.1309
 2836SOL    HW1 8759   5.561   1.615   5.647 -0.1484  0.0987 -1.1821
 2836SOL    HW2 8760   5.475   1.724   5.586 -0.2889  0.8555  0.3343
 2837SOL     OW 8761   2.144   5.207   3.082 -0.7208  0.4173 -0.1171
 2837SOL    HW1 8762   2.063   5.161   3.063 -1.2439  0.2322  2.3145
 2837SOL    HW2 8763   2.187   5.155   3.149  0.9846  1.0049 -0.7003
 2838SOL     OW 8764   3.295   1.558   0.556 -0.2845  0.5490  0.2472
 2838SOL    HW1 8765   3.323   1.604   0.636 -0.9898  1.3386  0.0608
 2838SOL    HW2 8766   3.200   1.568   0.555 -0.2269  1.1627 -1.0516
 2839SOL     OW 8767   4.677   3.560   0.668  0.5472  0.8716  0.1685
 2839SOL    HW1 8768   4.690   3.497   0.739  2.2338 -0.4125 -1.1692
 2839SOL    HW2 8769   4.752   3.619   0.674  0.9265  0.5058 -0.7334
 2840SOL     OW 8770   5.204   4.143   3.821 -0.5652  0.2493 -0.0266
 2840SOL    HW1 8771   5.217   4.091   3.742 -0.1481  1.4182 -0.7606
 2840SOL    HW2 8772   5.109   4.149   3.831 -0.6214  0.2127 -0.5294
 2841SOL     OW 8773   3.034   5.327   4.221  1.0461  0.6352  0.3183
 2841SOL    HW1 8774   3.112   5.379   4.237  1.6784  0.1209 -0.9747
 2841SOL    HW2 8775   3.062   5.236   4.231  0.4838  0.4591  0.3693
 2842SOL     OW 8776   4.142   4.377   3.166  0.4123  0.0094 -0.0889
 2842SOL    HW1 8777   4.171   4.466   3.183 -1.3529  0.4668  0.7488
 2842SOL    HW2 8778   4.204   4.343   3.101  1.5271  1.5828  0.1071
 2843SOL     OW 8779   0.158   3.761   2.189 -0.1757 -0.2087 -0.4431
 2843SOL    HW1 8780   0.227   3.788   2.249 -0.5087 -3.0684  1.4284
 2843SOL    HW2 8781   0.077   3.768   2.240 -0.4673 -2.7435 -0.4198
 2844SOL     OW 8782   1.112   5.254   0.957  0.3352  0.2751 -0.3644
 2844SOL    HW1 8783   1.026   5.216   0.937  0.0521 -0.1307  1.4079
 2844SOL    HW2 8784   1.106   5.345   0.927 -0.5875  0.1477 -0.5961
 2845SOL     OW 8785   0.516   2.728   0.811 -0.0689  0.3082  0.0041
 2845SOL    HW1 8786   0.421   2.731   0.797 -0.8553 -0.5123  3.7889
 2845SOL    HW2 8787   0.536   2.634   0.817  1.0411  0.4677 -0.9802
 2846SOL     OW 8788   6.226   4.741   0.776  0.2325 -0.6132  0.5123
 2846SOL    HW1 8789   6.248   4.792   0.698 -1.3178 -0.5823  0.0468
 2846SOL    HW2 8790   6.280   4.778   0.846 -0.3989  1.2782  0.0631
 2847SOL     OW 8791   3.412   1.303   5.037 -0.4169  0.6701 -0.7475
 2847SOL    HW1 8792   3.455   1.388   5.041 -0.7864  0.8314 -0.1108
 2847SOL    HW2 8793   3.482   1.240   5.052 -0.0799  0.8371 -1.5654
 2848SOL     OW 8794   3.661   0.011   0.806 -0.4544 -0.7566 -0.2347
 2848SOL    HW1 8795   3.658   0.056   0.891  1.7789  0.4378 -0.7261
 2848SOL    HW2 8796   3.575   0.027   0.768 -0.9699 -0.0124  1.1529
 2849SOL     OW 8797   4.227   0.557   4.811  0.3729 -0.0527 -0.3476
 2849SOL    HW1 8798   4.274   0.640   4.819 -1.4127  1.2043 -1.9521
 2849SOL    HW2 8799   4.293   0.496   4.779  2.1007  0.2711  2.2467
 2850SOL     OW 8800   5.015   4.929   0.562  0.0899 -0.7109  0.1054
 2850SOL    HW1 8801   5.085   4.948   0.500  0.6449  0.3607  1.0138
 2850SOL    HW2 8802   5.044   4.970   0.643  0.2473 -3.6373  1.6292
 2851SOL     OW 8803   5.827   4.150   3.011  0.5950 -0.2851 -0.2449
 2851SOL    HW1 8804   5.906   4.203   3.011  0.7967 -0.5774 -0.5658
 2851SOL    HW2 8805   5.819   4.117   3.100  1.6178 -1.3985 -0.5463
 2852SOL     OW 8806   1.911   5.573   3.552 -0.2587 -0.2161  0.3214
 2852SOL    HW1 8807   1.898   5.478   3.558  0.3424 -0.2844  0.6251
 2852SOL    HW2 8808   1.835   5.610   3.599  0.4204 -0.6023  1.8013
 2853SOL     OW 8809   4.922   4.190   2.813 -0.2134 -0.0021  0.7280
 2853SOL    HW1 8810   4.905   4.128   2.884 -1.3316  1.0840  1.4429
 2853SOL    HW2 8811   4.835   4.214   2.781  0.2793 -0.9735 -1.4891
 2854SOL     OW 8812   3.516   2.199   3.637 -0.3796  0.2324 -0.0979
 2854SOL    HW1 8813   3.480   2.224   3.723  0.0728  0.2987  0.0763
 2854SOL    HW2 8814   3.461   2.245   3.574 -0.1213  0.9455  0.1921
 2855SOL     OW 8815   1.345   6.321   2.506 -0.8073 -0.1738 -0.1395
 2855SOL    HW1 8816   1.425   6.335   2.456 -1.6264 -0.3455 -1.5318
 2855SOL    HW2 8817   1.348   6.389   2.574 -0.0051  0.5252 -0.8432
 2856SOL     OW 8818   0.493   4.858   5.112  0.1926 -0.5777 -0.5320
 2856SOL    HW1 8819   0.575   4.902   5.134  0.2605 -0.5858 -0.7679
 2856SOL    HW2 8820   0.483   4.872   5.018 -0.9348  0.8619 -0.2301
 2857SOL     OW 8821   5.063   5.506   5.650 -0.2903  0.0696 -0.1634
 2857SOL    HW1 8822   4.982   5.512   5.701  1.2897  2.0034  2.3494
 2857SOL    HW2 8823   5.088   5.597   5.634  1.5115 -0.4723 -0.6440
 2858SOL     OW 8824   3.347   2.391   1.816 -0.0449 -0.2425 -0.2593
 2858SOL    HW1 8825   3.280   2.452   1.849  0.4286  0.3688 -0.4093
 2858SOL    HW2 8826   3.310   2.356   1.735 -0.8308 -1.0680  0.4427
 2859SOL     OW 8827   3.880   1.936   3.255 -0.5440  0.7488 -0.3093
 2859SOL    HW1 8828   3.839   1.980   3.180 -2.3112  0.3633  0.3625
 2859SOL    HW2 8829   3.863   1.995   3.329 -0.5750  0.2122  0.1181
 2860SOL     OW 8830   3.415   2.905   6.243 -0.1574  0.4529  0.2423
 2860SOL    HW1 8831   3.452   2.866   6.164 -0.9058 -1.5957  0.8464
 2860SOL    HW2 8832   3.375   2.986   6.213  0.7294  0.3827 -1.2291
 2861SOL     OW 8833   5.653   5.316   0.783 -0.3216  0.1203  0.4090
 2861SOL    HW1 8834   5.712   5.389   0.763 -1.0965  1.2119  1.9185
 2861SOL    HW2 8835   5.708   5.252   0.828  0.2095  0.0486 -0.3109
 2862SOL     OW 8836   6.053   5.146   0.718 -0.0153 -0.2205  0.5587
 2862SOL    HW1 8837   6.105   5.193   0.783  0.2640  0.8966 -0.4535
 2862SOL    HW2 8838   6.003   5.214   0.673  0.4780 -0.8502 -1.0148
 2863SOL     OW 8839   2.670   1.153   5.822  0.5632 -0.0625  0.1521
 2863SOL    HW1 8840   2.671   1.218   5.752  0.8457 -1.8492 -1.5682
 2863SOL    HW2 8841   2.596   1.178   5.877 -0.4937  0.6508 -1.5220
 2864SOL     OW 8842   0.097   3.729   0.759 -0.3430 -0.0852 -0.4297
 2864SOL    HW1 8843   0.055   3.755   0.841 -0.9234  0.2468 -0.8284
 2864SOL    HW2 8844   0.097   3.633   0.762 -1.2129 -0.0905 -0.4669
 2865SOL     OW 8845   6.106   0.812   2.352 -0.1159  0.3859  0.1230
 2865SOL    HW1 8846   6.055   0.734   2.375  1.9533 -2.0946 -2.8192
 2865SOL    HW2 8847   6.161   0.828   2.428 -0.6905 -0.9279  0.8511
 2866SOL     OW 8848   3.110   1.467   2.195 -0.1523 -0.3059  0.4222
 2866SOL    HW1 8849   3.170   1.394   2.176  0.3281  0.2258 -0.1289
 2866SOL    HW2 8850   3.148   1.510   2.272 -0.8833 -1.1151  1.2610
 2867SOL     OW 8851   1.548   2.660   3.148 -0.1946 -0.5251  0.3847
 2867SOL    HW1 8852   1.619   2.601   3.126  0.3286  0.0667  0.4496
 2867SOL    HW2 8853   1.496   2.667   3.068 -0.1928 -0.9748  0.3440
 2868SOL     OW 8854   1.128   1.618   3.371 -0.0405 -0.5817 -0.8741
 2868SOL    HW1 8855   1.182   1.682   3.324 -0.9431  1.1087  0.2818
 2868SOL    HW2 8856   1.179   1.596   3.449 -0.2261 -0.3793 -0.6942
 2869SOL     OW 8857   5.070   1.651   2.631 -0.0577 -0.1013 -0.5751
 2869SOL    HW1 8858   5.030   1.695   2.706  1.9625  0.5635  0.2029
 2869SOL    HW2 8859   5.164   1.661   2.646  0.4226  0.3102 -3.3482
 2870SOL     OW 8860   1.364   4.801   4.802  0.6020  0.0697 -0.4376
 2870SOL    HW1 8861   1.332   4.883   4.840 -0.0845 -0.6415  0.5593
 2870SOL    HW2 8862   1.285   4.749   4.787  1.1524 -1.1984  0.8341
 2871SOL     OW 8863   2.713   4.111   3.811  0.5675 -0.3397 -1.0029
 2871SOL    HW1 8864   2.650   4.183   3.817  0.6014 -0.4664  2.6090
 2871SOL    HW2 8865   2.659   4.033   3.799  0.2913 -0.1206 -1.2076
 2872SOL     OW 8866   1.557   4.900   5.625 -0.4759  0.5818  0.4011
 2872SOL    HW1 8867   1.547   4.888   5.530  1.9238  0.7365  0.0863
 2872SOL    HW2 8868   1.598   4.820   5.655  2.3644  2.0082  0.6204
 2873SOL     OW 8869   2.365   3.521   1.549  0.4893 -0.0040  0.1397
 2873SOL    HW1 8870   2.289   3.487   1.597  0.7762 -0.9336 -0.0319
 2873SOL    HW2 8871   2.341   3.611   1.527 -1.5518 -0.9488 -1.8979
 2874SOL     OW 8872   5.654   2.886   2.796  0.4451 -0.1839  0.5398
 2874SOL    HW1 8873   5.605   2.840   2.729 -0.0790  1.3510 -0.1881
 2874SOL    HW2 8874   5.738   2.907   2.754  0.5626 -0.2109  0.7589
 2875SOL     OW 8875   6.319   4.437   4.651  0.2617 -0.1190  0.1689
 2875SOL    HW1 8876   6.410   4.445   4.621  0.4340  3.6457  1.1972
 2875SOL    HW2 8877   6.271   4.407   4.574  2.2256 -1.6338 -0.5630
 2876SOL     OW 8878   3.305   5.680   4.221  0.1475  0.3367  0.0566
 2876SOL    HW1 8879   3.300   5.585   4.208 -3.2496  0.6124 -1.6163
 2876SOL    HW2 8880   3.381   5.707   4.169  0.0003 -1.2614 -1.0746
 2877SOL     OW 8881   5.386   2.047   6.247 -0.3334  0.5340  0.2196
 2877SOL    HW1 8882   5.395   2.140   6.267 -0.7852  0.4333  0.9242
 2877SOL    HW2 8883   5.476   2.014   6.248 -0.0889  1.1162 -0.8592
 2878SOL     OW 8884   5.347   6.036   1.273  0.3239  0.3545 -0.4998
 2878SOL    HW1 8885   5.339   5.966   1.208  1.5307 -1.4744  1.1891
 2878SOL    HW2 8886   5.438   6.065   1.265  0.8473 -0.7381  1.1269
 2879SOL     OW 8887   1.385   3.111   0.180  0.5873  0.0661  0.2662
 2879SOL    HW1 8888   1.480   3.104   0.170  0.5510  1.0991 -1.0583
 2879SOL    HW2 8889   1.370   3.201   0.208 -0.1036  0.5185 -1.4440
 2880SOL     OW 8890   0.971   5.031   3.668 -0.5233 -0.1406  0.1138
 2880SOL    HW1 8891   0.878   5.044   3.649 -0.5547 -1.5829 -0.8874
 2880SOL    HW2 8892   1.013   5.110   3.635 -1.3991  0.6132  0.7510
 2881SOL     OW 8893   5.326   5.018   2.955 -0.5063 -0.1815  0.4285
 2881SOL    HW1 8894   5.270   4.963   3.010 -1.0879 -1.0511 -0.9743
 2881SOL    HW2 8895   5.265   5.076   2.910  0.0350  1.0795  1.2844
 2882SOL     OW 8896   0.507   2.822   1.403  0.1332  0.1934 -0.1209
 2882SOL    HW1 8897   0.548   2.837   1.319  0.2798  0.7083  0.0396
 2882SOL    HW2 8898   0.571   2.852   1.468 -0.2952  0.5582  0.1445
 2883SOL     OW 8899   5.323   1.212   3.529  0.0837  0.1756 -0.1790
 2883SOL    HW1 8900   5.404   1.162   3.542 -0.0829  0.1889  1.0697
 2883SOL    HW2 8901   5.329   1.284   3.593 -0.3566  0.8933 -0.9262
 2884SOL     OW 8902   4.666   4.652   0.011 -0.1518  0.4495  0.0959
 2884SOL    HW1 8903   4.584   4.628  -0.030 -0.1098  0.2969  0.1023
 2884SOL    HW2 8904   4.718   4.691  -0.059  0.6172 -1.4299 -0.4375
 2885SOL     OW 8905   3.919   2.278   4.394 -0.6070 -0.1590 -0.8151
 2885SOL    HW1 8906   3.986   2.291   4.327  0.3819 -1.6951 -0.1654
 2885SOL    HW2 8907   3.838   2.266   4.345 -0.2417  0.7167 -1.6504
 2886SOL     OW 8908   4.236   5.917   2.857 -0.1429 -0.2051  0.2722
 2886SOL    HW1 8909   4.279   5.836   2.885  0.6054 -0.4451 -1.4017
 2886SOL    HW2 8910   4.146   5.890   2.836  0.1083 -0.6399 -0.2979
 2887SOL     OW 8911   2.028   1.547   4.631 -0.2833 -0.4402  0.1039
 2887SOL    HW1 8912   1.947   1.580   4.670  0.6522 -0.1878  1.9468
 2887SOL    HW2 8913   2.071   1.625   4.597  0.1237 -0.2573  0.9960
 2888SOL     OW 8914   1.968   4.771   2.916  0.5546 -0.2036 -0.1557
 2888SOL    HW1 8915   1.877   4.753   2.939  0.4237  1.3046  0.6165
 2888SOL    HW2 8916   2.018   4.703   2.962 -0.1411 -0.8597 -0.3444
 2889SOL     OW 8917   4.848   3.657   6.276  0.1588 -0.2361 -0.4503
 2889SOL    HW1 8918   4.780   3.620   6.332  0.1739 -0.3280 -0.4930
 2889SOL    HW2 8919   4.917   3.685   6.336 -0.7409  1.6519 -0.2127
 2890SOL     OW 8920   1.939   5.646   5.913 -0.4247  0.0771 -0.3333
 2890SOL    HW1 8921   1.962   5.718   5.971 -0.1687  0.2889 -0.6945
 2890SOL    HW2 8922   2.022   5.606   5.890 -0.5430 -0.1403 -0.3790
 2891SOL     OW 8923   3.277   2.763   4.968 -0.1511 -0.0334  0.3367
 2891SOL    HW1 8924   3.275   2.675   5.007 -0.6684  0.7669  2.2620
 2891SOL    HW2 8925   3.335   2.813   5.025 -0.0332  0.9427 -0.6055
 2892SOL     OW 8926   4.387   1.832   5.912 -0.3287  0.1436 -0.0375
 2892SOL    HW1 8927   4.419   1.825   6.002  0.4856 -0.4525 -0.3590
 2892SOL    HW2 8928   4.398   1.744   5.876  0.3632  0.6208 -1.0448
 2893SOL     OW 8929   4.203   3.610   2.487  0.6677  0.0498 -0.1771
 2893SOL    HW1 8930   4.187   3.702   2.508 -3.0999 -0.0473 -1.8044
 2893SOL    HW2 8931   4.144   3.561   2.545  0.5572 -1.1298 -1.2380
 2894SOL     OW 8932   1.948   6.015   5.735  0.0739 -0.2451  0.5052
 2894SOL    HW1 8933   1.932   5.973   5.650 -0.1459 -1.1975  1.0005
 2894SOL    HW2 8934   1.881   5.978   5.793  0.9016 -0.4419  1.3601
 2895SOL     OW 8935   4.912   1.714   2.391  0.4078 -0.1191  0.1076
 2895SOL    HW1 8936   4.997   1.727   2.433 -0.6116 -0.2898  2.4337
 2895SOL    HW2 8937   4.873   1.640   2.439 -1.2484  0.2865 -0.5376
 2896SOL     OW 8938   5.279   5.298   5.603  0.1763  0.0588  0.1183
 2896SOL    HW1 8939   5.225   5.376   5.596 -0.1413 -0.0817  0.8630
 2896SOL    HW2 8940   5.344   5.306   5.532  0.1716  1.0061  0.2126
 2897SOL     OW 8941   5.658   2.910   1.247 -0.2996 -0.3457  0.7891
 2897SOL    HW1 8942   5.690   3.000   1.246 -0.2915 -0.3339  1.7452
 2897SOL    HW2 8943   5.735   2.856   1.261  0.0421 -0.6959 -1.7934
 2898SOL     OW 8944   4.801   0.774   1.710 -0.2841 -0.1418 -0.4810
 2898SOL    HW1 8945   4.709   0.759   1.686 -0.3793  1.3120 -1.1929
 2898SOL    HW2 8946   4.797   0.838   1.781  0.1179 -2.3752  1.6958
 2899SOL     OW 8947   0.685   2.394   2.478 -1.0077  0.9751 -0.3364
 2899SOL    HW1 8948   0.697   2.455   2.405 -0.3108  0.1821 -0.9070
 2899SOL    HW2 8949   0.606   2.345   2.456  0.0057 -0.2707 -1.3174
 2900SOL     OW 8950   2.704   5.345   5.461 -0.0973  0.3011 -0.1062
 2900SOL    HW1 8951   2.675   5.362   5.371 -0.0430  2.2300  0.1856
 2900SOL    HW2 8952   2.695   5.430   5.505 -1.4935 -0.9059  2.1168
 2901SOL     OW 8953   1.339   1.676   3.070  0.4316  0.2101 -0.2005
 2901SOL    HW1 8954   1.365   1.583   3.066 -1.1485 -0.2499 -0.3258
 2901SOL    HW2 8955   1.381   1.709   3.149  0.0951 -0.9270  0.4743
 2902SOL     OW 8956   5.611   2.410   1.712 -0.2068  0.1133 -0.0208
 2902SOL    HW1 8957   5.585   2.391   1.622 -3.4710 -0.4344  0.9285
 2902SOL    HW2 8958   5.591   2.503   1.724  2.4777  0.8352 -0.4676
 2903SOL     OW 8959   0.817   3.432   1.803 -0.3241  0.2838 -0.1804
 2903SOL    HW1 8960   0.724   3.408   1.809 -0.0213 -1.2192 -1.0144
 2903SOL    HW2 8961   0.820   3.523   1.831 -1.7160 -0.3102  2.1715
 2904SOL     OW 8962   4.161   0.739   2.904  0.7671 -0.2504 -0.0480
 2904SOL    HW1 8963   4.196   0.809   2.849 -1.2024  1.7499  1.0293
 2904SOL    HW2 8964   4.208   0.749   2.987  0.4961 -0.1687  0.0996
 2905SOL     OW 8965   3.931   5.757   5.519  0.4857 -0.2728  0.1073
 2905SOL    HW1 8966   3.980   5.751   5.436 -1.3070  0.7133 -1.0785
 2905SOL    HW2 8967   3.921   5.666   5.547 -1.0489 -0.8766 -2.1358
 2906SOL     OW 8968   1.628   3.471   3.606 -0.1335 -0.3736  0.2930
 2906SOL    HW1 8969   1.654   3.507   3.691 -0.7220 -0.4337  0.5060
 2906SOL    HW2 8970   1.650   3.378   3.611  2.4949  0.1225 -0.6961
 2907SOL     OW 8971   0.336   0.576   5.547  0.1063  0.0208  0.2792
 2907SOL    HW1 8972   0.280   0.502   5.526 -0.2564 -0.0247  1.3480
 2907SOL    HW2 8973   0.346   0.623   5.465 -2.4755  0.6936  0.2792
 2908SOL     OW 8974   2.733   0.593   2.765 -0.2971  0.3304 -0.0710
 2908SOL    HW1 8975   2.715   0.611   2.672 -3.1609  1.2143  0.5660
 2908SOL    HW2 8976   2.793   0.663   2.791 -0.8369  1.1226 -0.8673
 2909SOL     OW 8977   4.883   0.357   5.404 -0.3323  0.2940  0.5283
 2909SOL    HW1 8978   4.947   0.422   5.433  1.1015  0.2207 -2.1970
 2909SOL    HW2 8979   4.876   0.370   5.309 -0.4153 -3.1098 -0.0572
 2910SOL     OW 8980   2.380   4.022   5.030 -0.2883  0.1456 -0.0719
 2910SOL    HW1 8981   2.454   3.971   5.065 -0.7577 -1.0377 -0.7305
 2910SOL    HW2 8982   2.385   4.008   4.936 -1.3835  0.0106 -0.1183
 2911SOL     OW 8983   6.341   2.954   0.754  0.2150  0.0686 -0.2997
 2911SOL    HW1 8984   6.279   2.918   0.691 -0.3534 -0.6203  0.6202
 2911SOL    HW2 8985   6.396   2.880   0.779 -0.6388 -0.1027  1.2334
 2912SOL     OW 8986   4.526   4.435   0.899  0.0601  0.5847 -0.3377
 2912SOL    HW1 8987   4.484   4.456   0.983 -0.5808  1.0174 -0.7607
 2912SOL    HW2 8988   4.571   4.351   0.916 -1.2338 -0.0603  0.0516
 2913SOL     OW 8989   5.163   5.766   5.995 -0.0087  0.1311 -0.1746
 2913SOL    HW1 8990   5.086   5.785   6.049  0.9857  1.4866  0.8409
 2913SOL    HW2 8991   5.149   5.677   5.964 -2.6717  0.8252 -1.2235
 2914SOL     OW 8992   6.145   6.041   0.789  0.1174  0.5135 -0.4546
 2914SOL    HW1 8993   6.057   6.008   0.772 -0.2460  0.3234  1.5589
 2914SOL    HW2 8994   6.201   5.964   0.781 -0.0563  0.3915 -0.5164
 2915SOL     OW 8995   5.847   5.546   4.225 -0.6623  0.3156 -0.3158
 2915SOL    HW1 8996   5.819   5.474   4.169 -3.2021 -0.5277  1.8516
 2915SOL    HW2 8997   5.781   5.614   4.212 -1.0626  0.2665  1.2466
 2916SOL     OW 8998   3.548   1.481   6.066 -0.3011  0.1100 -0.4580
 2916SOL    HW1 8999   3.545   1.554   6.004  0.4765 -0.0667 -0.7266
 2916SOL    HW2 9000   3.556   1.403   6.010 -0.1626 -0.0950 -0.1547
 2917SOL     OW 9001   6.248   4.603   2.475 -0.5179 -0.0196  0.3633
 2917SOL    HW1 9002   6.271   4.629   2.564  2.0199  0.6949 -0.4148
 2917SOL    HW2 9003   6.326   4.558   2.442  0.0957  2.8826 -2.6779
 2918SOL     OW 9004   2.059   1.546   5.253 -0.2289  0.7072 -0.3509
 2918SOL    HW1 9005   2.001   1.621   5.261 -1.0126  0.1878 -0.9518
 2918SOL    HW2 9006   2.051   1.518   5.161  0.6711  0.3839 -0.3459
 2919SOL     OW 9007   4.857   4.357   5.243  0.0639 -0.1429 -0.4606
 2919SOL    HW1 9008   4.860   4.374   5.337  2.2728 -1.3764 -0.2293
 2919SOL    HW2 9009   4.844   4.262   5.236 -0.3620 -0.0314 -1.4063
 2920SOL     OW 9010   3.430   1.835   4.881 -0.5835  0.0589  0.0602
 2920SOL    HW1 9011   3.448   1.853   4.973 -0.6217 -1.2176  0.3442
 2920SOL    HW2 9012   3.337   1.811   4.879 -0.8021  0.8979 -0.4604
 2921SOL     OW 9013   2.792   2.523   4.513 -0.5065 -0.0685 -0.0779
 2921SOL    HW1 9014   2.816   2.613   4.533 -1.3393  0.1617 -0.0869
 2921SOL    HW2 9015   2.767   2.524   4.421 -0.5769 -0.2931 -0.0631
 2922SOL     OW 9016   0.106   4.411   4.159 -0.1478  0.0843  0.4877
 2922SOL    HW1 9017   0.017   4.382   4.180 -0.5957 -0.0844 -1.4569
 2922SOL    HW2 9018   0.131   4.356   4.085  0.5648  1.8922 -0.6686
 2923SOL     OW 9019   2.764   4.374   1.322 -0.0903 -0.1677 -0.0174
 2923SOL    HW1 9020   2.790   4.382   1.230  1.9189 -0.0899  0.5044
 2923SOL    HW2 9021   2.835   4.322   1.362 -0.4438  0.5932  1.6681
 2924SOL     OW 9022   1.056   2.865   2.103  0.3450  0.1326  0.8566
 2924SOL    HW1 9023   1.079   2.772   2.096  1.0618  0.2323  1.6565
 2924SOL    HW2 9024   1.131   2.911   2.066  0.7593  0.4221  1.9993
 2925SOL     OW 9025   4.315   5.793   2.303  0.2800 -0.1305 -0.0899
 2925SOL    HW1 9026   4.234   5.785   2.352  0.4924  0.4197  0.3513
 2925SOL    HW2 9027   4.303   5.870   2.248  0.6230  0.1308  0.2010
 2926SOL     OW 9028   2.433   5.533   4.275  0.2227 -1.2250 -0.2147
 2926SOL    HW1 9029   2.432   5.466   4.206 -0.3987 -0.9403 -0.4922
 2926SOL    HW2 9030   2.352   5.517   4.324 -1.0023  0.5955 -1.5396
 2927SOL     OW 9031   0.358   0.974   0.852  0.8788  0.1791  0.3356
 2927SOL    HW1 9032   0.338   1.060   0.891  2.0454  1.2395 -1.2870
 2927SOL    HW2 9033   0.450   0.960   0.871  1.5407  0.8223 -2.0803
 2928SOL     OW 9034   3.969   4.624   3.842  0.1760  0.2268 -0.2494
 2928SOL    HW1 9035   3.906   4.632   3.772  0.2675  0.1137 -0.3452
 2928SOL    HW2 9036   4.045   4.675   3.813  1.4361 -2.2533 -1.6219
 2929SOL     OW 9037   5.012   3.910   0.372  0.6162  0.2785  0.2407
 2929SOL    HW1 9038   4.983   3.936   0.459 -0.1415  0.7149 -0.1346
 2929SOL    HW2 9039   5.100   3.948   0.364  0.4494  0.7486  0.5804
 2930SOL     OW 9040   1.497   3.090   5.517 -0.4479  0.4766  0.3516
 2930SOL    HW1 9041   1.411   3.090   5.476 -0.3907  0.4857  0.2316
 2930SOL    HW2 9042   1.487   3.033   5.593 -1.1405  2.1137  1.5520
 2931SOL     OW 9043   4.900   0.453   6.032 -0.7530  0.0888 -0.5547
 2931SOL    HW1 9044   4.960   0.466   6.106 -2.9098  0.4914  1.2213
 2931SOL    HW2 9045   4.954   0.470   5.955  1.3361  0.7492  0.9542
 2932SOL     OW 9046   0.752   4.580   4.620 -0.1463  0.1861 -0.2369
 2932SOL    HW1 9047   0.685   4.648   4.611 -1.2617 -1.0576 -1.7234
 2932SOL    HW2 9048   0.716   4.519   4.684 -0.0934 -0.1081 -0.4893
 2933SOL     OW 9049   1.713   4.807   4.232  0.3444 -0.0770 -0.1004
 2933SOL    HW1 9050   1.620   4.786   4.225 -0.0834  0.7191  2.3279
 2933SOL    HW2 9051   1.757   4.738   4.182 -1.5220 -0.4498 -1.3254
 2934SOL     OW 9052   2.361   0.302   1.302 -0.2921  0.1510  0.0460
 2934SOL    HW1 9053   2.338   0.383   1.346 -1.6637 -0.1846  0.0121
 2934SOL    HW2 9054   2.444   0.275   1.341  0.2054  1.5797  0.0087
 2935SOL     OW 9055   0.555   2.086   2.232  0.6114  0.3901 -0.2697
 2935SOL    HW1 9056   0.492   2.152   2.262 -0.6872 -0.9964  0.2070
 2935SOL    HW2 9057   0.560   2.098   2.137 -0.5836  0.3609 -0.3479
 2936SOL     OW 9058   6.150   0.437   3.826  0.1817 -0.3456  0.3833
 2936SOL    HW1 9059   6.193   0.352   3.815  0.2663 -0.4454  1.3965
 2936SOL    HW2 9060   6.070   0.430   3.773  1.2902 -0.2257 -1.3784
 2937SOL     OW 9061   3.643   3.858   5.579 -0.2584  0.1081  0.1836
 2937SOL    HW1 9062   3.617   3.950   5.574 -0.9605 -0.0748  0.3740
 2937SOL    HW2 9063   3.675   3.847   5.668 -2.6493 -0.4433  1.0500
 2938SOL     OW 9064   1.053   0.280   2.917 -0.0607 -0.3030  0.3491
 2938SOL    HW1 9065   1.044   0.375   2.909 -0.3349 -0.3595 -0.0043
 2938SOL    HW2 9066   1.051   0.264   3.012 -1.4239 -0.0847  0.3881
 2939SOL     OW 9067   0.709   1.829   3.242 -0.1828  0.4735 -0.5059
 2939SOL    HW1 9068   0.629   1.785   3.272 -0.3830  1.0358 -0.2053
 2939SOL    HW2 9069   0.759   1.760   3.198  0.8424 -0.8150  2.4014
 2940SOL     OW 9070   2.171   4.065   5.273 -0.2846  0.4436  0.7268
 2940SOL    HW1 9071   2.227   4.117   5.215  0.7824 -0.5051  0.8664
 2940SOL    HW2 9072   2.171   4.113   5.356 -0.0869  0.7031  0.5772
 2941SOL     OW 9073   4.782   4.704   5.710 -0.3265  0.0566 -0.6778
 2941SOL    HW1 9074   4.839   4.731   5.638  0.2798  3.0901  0.7830
 2941SOL    HW2 9075   4.724   4.779   5.724  0.0266 -0.1218  2.3946
 2942SOL     OW 9076   3.014   1.999   4.506  0.2160 -0.4971 -0.0474
 2942SOL    HW1 9077   2.963   1.991   4.425  1.0642 -0.7669 -0.5601
 2942SOL    HW2 9078   3.005   1.914   4.548  0.0928 -0.4826 -0.0424
 2943SOL     OW 9079   3.833   1.260   6.047 -0.2137 -0.2711  0.2231
 2943SOL    HW1 9080   3.750   1.219   6.070 -1.6154  1.7125 -0.9658
 2943SOL    HW2 9081   3.833   1.261   5.951  1.1114 -0.0769  0.2043
 2944SOL     OW 9082   0.396   0.742   1.782  0.2956 -0.1565  0.0157
 2944SOL    HW1 9083   0.456   0.678   1.820 -0.4467 -1.4944 -0.9718
 2944SOL    HW2 9084   0.309   0.713   1.811 -0.0697  0.2506 -0.6617
 2945SOL     OW 9085   4.032   3.716   2.233  0.1648 -0.0201 -0.2660
 2945SOL    HW1 9086   4.069   3.726   2.321 -0.4326  2.7065 -0.2320
 2945SOL    HW2 9087   3.941   3.690   2.249  0.3549 -0.6147 -0.1290
 2946SOL     OW 9088   1.150   0.970   5.273 -0.5656  0.4227  0.0636
 2946SOL    HW1 9089   1.106   0.951   5.191  2.4335  1.3353 -1.9269
 2946SOL    HW2 9090   1.185   1.058   5.262  0.0729  0.5129  2.2758
 2947SOL     OW 9091   3.456   2.779   0.841  0.1772  0.4246 -0.2144
 2947SOL    HW1 9092   3.404   2.840   0.788 -1.5229 -0.1112  0.7898
 2947SOL    HW2 9093   3.418   2.693   0.823  1.4099 -0.1332 -0.2521
 2948SOL     OW 9094   3.645   2.136   4.379  0.0869  0.6791  0.1119
 2948SOL    HW1 9095   3.583   2.174   4.317 -0.8887 -2.7856 -1.2298
 2948SOL    HW2 9096   3.616   2.169   4.464 -1.9585  1.2540 -0.7492
 2949SOL     OW 9097   2.625   5.433   4.657  0.2450  0.1091 -0.5252
 2949SOL    HW1 9098   2.712   5.452   4.621 -0.3748  1.1955 -1.5418
 2949SOL    HW2 9099   2.609   5.341   4.636  2.4716 -1.1566  2.6249
 2950SOL     OW 9100   4.433   1.899   5.246  0.2724 -0.0504 -0.1600
 2950SOL    HW1 9101   4.404   1.974   5.193  0.3866  1.1097  1.3449
 2950SOL    HW2 9102   4.351   1.860   5.279  0.2225  1.8985  2.3024
 2951SOL     OW 9103   3.619   4.122   3.781 -0.1236  0.5254  0.5256
 2951SOL    HW1 9104   3.666   4.203   3.760  0.5096  0.3522  1.2185
 2951SOL    HW2 9105   3.536   4.129   3.734 -0.4683  1.9958  1.2718
 2952SOL     OW 9106   3.325   4.399   1.660  0.2479 -0.1983  0.1416
 2952SOL    HW1 9107   3.398   4.459   1.669  0.3265 -0.2896  0.1176
 2952SOL    HW2 9108   3.354   4.318   1.702  0.5517 -0.5665 -0.7378
 2953SOL     OW 9109   5.934   2.987   3.159  0.1062 -0.5521 -0.0039
 2953SOL    HW1 9110   5.945   2.986   3.254  2.4792 -1.6105 -0.2111
 2953SOL    HW2 9111   5.848   2.948   3.144 -1.0029  1.0702  1.7233
 2954SOL     OW 9112   6.167   1.691   1.273 -0.1174 -0.3017  0.4089
 2954SOL    HW1 9113   6.179   1.597   1.285  0.2460 -0.4748 -1.0832
 2954SOL    HW2 9114   6.100   1.698   1.205  1.3571  0.4572 -1.0226
 2955SOL     OW 9115   5.961   1.848   0.544  0.0005  0.3299 -0.5535
 2955SOL    HW1 9116   5.967   1.787   0.470  1.5171  0.2227 -0.3778
 2955SOL    HW2 9117   5.870   1.877   0.544 -0.6825 -1.6801 -0.8436
 2956SOL     OW 9118   3.762   1.016   1.567  0.0872 -0.2021  0.1593
 2956SOL    HW1 9119   3.738   1.096   1.520  1.8667  0.0419 -0.4170
 2956SOL    HW2 9120   3.734   1.032   1.657  0.1350  0.9503 -0.0109
 2957SOL     OW 9121   4.603   2.655   4.143  0.4815  0.3521 -0.1089
 2957SOL    HW1 9122   4.693   2.657   4.110  1.5684 -3.1290  2.0679
 2957SOL    HW2 9123   4.557   2.594   4.086  1.1416 -2.1266  1.8126
 2958SOL     OW 9124   1.128   3.984   4.015  0.0536 -0.2861 -0.0797
 2958SOL    HW1 9125   1.086   3.931   3.947 -1.1656 -1.4226  1.5026
 2958SOL    HW2 9126   1.222   3.964   4.007 -0.1275 -0.7953 -1.0809
 2959SOL     OW 9127   2.730   1.490   5.936 -0.0158 -0.3113  0.0718
 2959SOL    HW1 9128   2.677   1.483   5.857 -0.1664 -1.1807  0.2316
 2959SOL    HW2 9129   2.768   1.578   5.932  1.9210 -1.1155 -2.2337
 2960SOL     OW 9130   4.008   0.781   3.909  0.0163 -0.0430  0.0467
 2960SOL    HW1 9131   4.102   0.783   3.889  0.0042  0.1958  0.0170
 2960SOL    HW2 9132   3.966   0.809   3.828 -0.0679  0.1503  0.1577
 2961SOL     OW 9133   1.760   2.652   6.329 -0.2680 -0.2279 -0.2192
 2961SOL    HW1 9134   1.686   2.699   6.366 -0.8750 -2.3555  1.4284
 2961SOL    HW2 9135   1.829   2.659   6.395  0.6378  0.6528 -1.1951
 2962SOL     OW 9136   2.383   2.316   1.653 -0.4051 -0.4631  0.0954
 2962SOL    HW1 9137   2.449   2.268   1.602  1.8319  1.8111  0.6535
 2962SOL    HW2 9138   2.350   2.382   1.592 -0.6974 -0.3083  0.4216
 2963SOL     OW 9139   5.144   3.987   5.883 -0.3221  0.1728  0.0441
 2963SOL    HW1 9140   5.194   3.906   5.891 -0.1192 -0.1439 -3.2655
 2963SOL    HW2 9141   5.210   4.056   5.881 -0.3606  0.2309  0.5583
 2964SOL     OW 9142   3.579   4.384   5.416 -0.3327 -0.2111 -0.1423
 2964SOL    HW1 9143   3.607   4.305   5.371 -0.2228 -1.3799  1.8740
 2964SOL    HW2 9144   3.658   4.419   5.458 -0.3804  0.9810 -0.9961
 2965SOL     OW 9145   3.349   1.144   2.875  0.1394  0.6066 -0.4233
 2965SOL    HW1 9146   3.280   1.089   2.912  1.2966 -0.1229  0.7147
 2965SOL    HW2 9147   3.419   1.083   2.853 -0.1443  1.1133 -3.0744
 2966SOL     OW 9148   4.971   1.310   0.331 -0.0787 -0.3275  0.0992
 2966SOL    HW1 9149   4.975   1.276   0.420 -0.6214  0.3632  0.3924
 2966SOL    HW2 9150   5.001   1.400   0.338 -0.0708 -0.2825 -0.4317
 2967SOL     OW 9151   1.908   1.660   0.818 -0.5624  0.0966  0.2560
 2967SOL    HW1 9152   1.921   1.597   0.747  0.1780 -0.7258  1.0975
 2967SOL    HW2 9153   1.976   1.726   0.803  0.7981 -1.0235  1.1840
 2968SOL     OW 9154   4.496   4.038   3.601 -0.2778  0.0311 -0.2384
 2968SOL    HW1 9155   4.445   4.015   3.523 -0.6437  1.0691 -0.3263
 2968SOL    HW2 9156   4.529   3.954   3.634 -0.4762 -0.4684 -1.2574
 2969SOL     OW 9157   3.515   0.846   1.030 -0.2046 -0.1597  0.2447
 2969SOL    HW1 9158   3.542   0.906   0.961 -0.4669 -1.3866 -0.9741
 2969SOL    HW2 9159   3.593   0.833   1.083  1.0746 -1.9050 -1.8944
 2970SOL     OW 9160   4.254   3.736   5.926 -0.1118 -0.0054  0.3940
 2970SOL    HW1 9161   4.204   3.655   5.913 -0.5777  0.5534 -1.5477
 2970SOL    HW2 9162   4.330   3.728   5.869  0.5555  0.3741  1.2038
 2971SOL     OW 9163   1.852   5.860   3.796  0.0623  0.1622 -0.4040
 2971SOL    HW1 9164   1.794   5.825   3.728 -1.0580 -0.4258  0.8103
 2971SOL    HW2 9165   1.889   5.782   3.837  0.0449  0.4833  0.2265
 2972SOL     OW 9166   1.356   4.107   2.468  0.0977 -0.0659  0.6341
 2972SOL    HW1 9167   1.379   4.062   2.549 -1.4979 -0.9414  0.6335
 2972SOL    HW2 9168   1.440   4.126   2.426  0.8658 -1.3522  1.5505
 2973SOL     OW 9169   1.400   5.560   0.288  0.4323 -0.2532 -0.3847
 2973SOL    HW1 9170   1.337   5.599   0.228 -0.2976  0.9881  1.1275
 2973SOL    HW2 9171   1.401   5.618   0.364  1.1964 -1.8328  0.8906
 2974SOL     OW 9172   5.682   3.164   4.216  0.2441  0.0359  0.1975
 2974SOL    HW1 9173   5.663   3.218   4.139  0.1081  0.3432  0.4475
 2974SOL    HW2 9174   5.616   3.095   4.214 -0.3479  0.5825  0.5588
 2975SOL     OW 9175   2.505   3.974   3.048 -0.7057 -0.1384  0.0184
 2975SOL    HW1 9176   2.465   4.032   2.984 -0.0330  1.5581  1.0710
 2975SOL    HW2 9177   2.499   3.887   3.008 -2.8931  0.4275 -1.0446
 2976SOL     OW 9178   5.373   6.286   0.482  0.0033  0.5650  0.0441
 2976SOL    HW1 9179   5.462   6.321   0.480  0.2015  0.3529  2.3751
 2976SOL    HW2 9180   5.381   6.204   0.531 -1.0290 -1.0343 -2.3054
 2977SOL     OW 9181   5.124   1.272   3.048  0.0599 -0.3822 -0.0106
 2977SOL    HW1 9182   5.161   1.280   2.960  0.5126  0.9228  0.2753
 2977SOL    HW2 9183   5.188   1.316   3.105 -1.0460  0.2855  0.7450
 2978SOL     OW 9184   5.417   4.340   3.912 -0.2125 -0.5833 -0.0273
 2978SOL    HW1 9185   5.350   4.272   3.910 -1.0101  0.1399  1.1913
 2978SOL    HW2 9186   5.371   4.418   3.943  1.1003  0.0333  0.4166
 2979SOL     OW 9187   1.198   1.940   3.377 -0.0455  0.2701 -0.6152
 2979SOL    HW1 9188   1.186   1.938   3.472  0.2527  1.1917 -0.5406
 2979SOL    HW2 9189   1.140   2.010   3.348 -0.0735  0.0429 -1.1013
 2980SOL     OW 9190   5.041   0.261   0.335  0.3414 -0.0714  1.0440
 2980SOL    HW1 9191   5.098   0.184   0.343 -1.4023 -1.3978  1.4041
 2980SOL    HW2 9192   5.034   0.294   0.425  0.1787 -0.2080  1.0835
 2981SOL     OW 9193   5.153   5.484   2.086  0.0147 -0.5288  0.1550
 2981SOL    HW1 9194   5.192   5.453   2.168  2.1084  0.6950 -0.2901
 2981SOL    HW2 9195   5.133   5.404   2.038  0.6429 -1.2453  1.0379
 2982SOL     OW 9196   5.673   3.663   2.713  0.2880 -0.6521  0.7956
 2982SOL    HW1 9197   5.720   3.670   2.630  1.3950 -0.4696  1.4190
 2982SOL    HW2 9198   5.737   3.691   2.779 -0.4683 -1.1153  1.7435
 2983SOL     OW 9199   3.389   5.162   0.985 -0.1786  0.0946  0.4555
 2983SOL    HW1 9200   3.295   5.144   0.980  0.0723 -1.3237  0.3037
 2983SOL    HW2 9201   3.416   5.175   0.894  0.2799 -2.6239  0.1083
 2984SOL     OW 9202   0.046   3.999   0.720 -0.8697  0.2770 -0.4861
 2984SOL    HW1 9203   0.009   4.030   0.803  1.2213 -0.4390  0.7855
 2984SOL    HW2 9204   0.068   3.907   0.736 -0.6565  0.0616 -1.9186
 2985SOL     OW 9205   5.365   4.056   4.032 -0.7050  0.0502  0.4675
 2985SOL    HW1 9206   5.306   4.055   3.957 -1.0348 -0.8607  0.7293
 2985SOL    HW2 9207   5.444   4.100   4.001 -0.0611 -2.0211 -0.9973
 2986SOL     OW 9208   0.700   1.186   5.740 -0.6523 -0.4081 -0.2252
 2986SOL    HW1 9209   0.617   1.139   5.743  0.2369 -2.0291  0.4402
 2986SOL    HW2 9210   0.718   1.196   5.646 -2.1694  1.1168 -0.4028
 2987SOL     OW 9211   0.638   5.465   2.454 -0.6165 -0.3810  0.3955
 2987SOL    HW1 9212   0.725   5.492   2.482 -1.0475  2.6887 -0.8471
 2987SOL    HW2 9213   0.650   5.377   2.420  1.9708 -0.0856  0.3550
 2988SOL     OW 9214   1.752   1.651   6.072 -0.3565 -0.3113 -0.1343
 2988SOL    HW1 9215   1.684   1.665   6.137 -1.4974  2.6248 -1.7483
 2988SOL    HW2 9216   1.763   1.555   6.068 -1.2608 -0.6669  3.1744
 2989SOL     OW 9217   3.264   1.915   5.623  0.1056 -0.3678 -0.2206
 2989SOL    HW1 9218   3.325   1.922   5.697  0.2961  0.3794 -0.4337
 2989SOL    HW2 9219   3.243   2.006   5.601  0.4348 -0.5581 -1.3992
 2990SOL     OW 9220   4.709   3.516   3.834 -0.2950  0.3103 -0.7569
 2990SOL    HW1 9221   4.738   3.471   3.913  0.5575  0.5177 -0.9356
 2990SOL    HW2 9222   4.646   3.456   3.794 -1.1039  0.4148  0.3103
 2991SOL     OW 9223   2.083   2.044   3.492  0.4595  0.1337 -0.0269
 2991SOL    HW1 9224   2.112   2.051   3.401 -0.1225 -2.1270 -0.4467
 2991SOL    HW2 9225   2.117   2.123   3.534  2.3840  0.3249 -1.7641
 2992SOL     OW 9226   4.999   1.122   5.064 -0.0929 -0.5629 -0.0787
 2992SOL    HW1 9227   4.927   1.180   5.042  1.9472  2.8346  1.3010
 2992SOL    HW2 9228   5.054   1.120   4.985 -1.4425 -3.0546 -1.0889
 2993SOL     OW 9229   1.210   2.503   3.948 -0.1458 -0.6721 -0.4296
 2993SOL    HW1 9230   1.163   2.585   3.963  1.9998  0.4091  0.8542
 2993SOL    HW2 9231   1.194   2.483   3.855 -0.4853  1.3628 -0.8644
 2994SOL     OW 9232   1.590   1.705   3.754  0.0785 -0.4067  0.5546
 2994SOL    HW1 9233   1.546   1.709   3.839  0.2428 -1.2141  0.6899
 2994SOL    HW2 9234   1.584   1.612   3.729  1.7949 -0.5718  0.6391
 2995SOL     OW 9235   2.796   2.241   0.607  0.3516 -0.0745 -0.6248
 2995SOL    HW1 9236   2.736   2.311   0.583 -2.3022 -1.4665  1.3548
 2995SOL    HW2 9237   2.763   2.210   0.692  4.2695 -0.6048  0.8903
 2996SOL     OW 9238   5.928   1.922   2.171  0.2890  0.1350 -0.0539
 2996SOL    HW1 9239   6.023   1.915   2.171  0.3849  1.0992  1.0163
 2996SOL    HW2 9240   5.908   1.992   2.109  0.3431  0.5332  0.3743
 2997SOL     OW 9241   2.931   0.226   5.657 -0.0804  0.4528  0.2960
 2997SOL    HW1 9242   2.990   0.301   5.656  1.0419 -0.3935 -0.8173
 2997SOL    HW2 9243   2.922   0.201   5.565 -1.9364  0.3421  0.4630
 2998SOL     OW 9244   3.817   4.371   4.983  0.0762  0.1375 -0.2880
 2998SOL    HW1 9245   3.771   4.307   4.929  0.4412  0.7678 -1.3697
 2998SOL    HW2 9246   3.900   4.387   4.937  0.7067  0.1828  0.8156
 2999SOL     OW 9247   2.466   4.786   0.377  0.3030  0.3737  0.5555
 2999SOL    HW1 9248   2.383   4.807   0.334 -0.3587  0.1194  1.6641
 2999SOL    HW2 9249   2.517   4.867   0.371 -0.0266  0.5421 -0.1157
 3000SOL     OW 9250   6.113   1.454   3.881 -0.3811  0.6293 -0.0748
 3000SOL    HW1 9251   6.075   1.420   3.800  1.4236 -1.1438 -0.2411
 3000SOL    HW2 9252   6.039   1.459   3.941 -1.5034  0.6579 -1.3961
 3001SOL     OW 9253   0.711   3.770   0.704 -0.3803  0.5309  0.3921
 3001SOL    HW1 9254   0.753   3.688   0.676 -1.2291  0.7378 -1.6325
 3001SOL    HW2 9255   0.779   3.836   0.695 -0.4082  0.4550 -0.4776
 3002SOL     OW 9256   2.746   5.536   0.812  0.2542  0.1810  0.4335
 3002SOL    HW1 9257   2.833   5.538   0.772 -0.5537  1.6116 -1.4302
 3002SOL    HW2 9258   2.712   5.624   0.799 -1.1575 -0.0954  1.9251
 3003SOL     OW 9259   4.585   3.757   2.576  0.1480 -0.3320  0.1719
 3003SOL    HW1 9260   4.516   3.815   2.608 -0.4817 -0.6881 -0.5175
 3003SOL    HW2 9261   4.625   3.721   2.655 -0.3590 -0.0059  0.5792
 3004SOL     OW 9262   5.855   1.463   4.340  0.3117  0.0294  0.3701
 3004SOL    HW1 9263   5.891   1.508   4.416 -1.2864  4.3363 -1.1481
 3004SOL    HW2 9264   5.770   1.430   4.369  0.2803  0.4758  0.7817
 3005SOL     OW 9265   2.793   0.980   3.057  0.2214 -0.0134 -0.0309
 3005SOL    HW1 9266   2.744   1.054   3.020 -1.1950 -1.5519 -1.3551
 3005SOL    HW2 9267   2.846   0.948   2.984  0.9979 -0.1850  0.6033
 3006SOL     OW 9268   3.269   4.347   3.967 -0.1555  0.6642 -0.3525
 3006SOL    HW1 9269   3.208   4.362   3.894 -1.9015  0.5244  1.0062
 3006SOL    HW2 9270   3.281   4.433   4.006 -2.2915  0.2545  1.4360
 3007SOL     OW 9271   1.487   1.128   4.088 -0.2315 -0.1959 -0.0963
 3007SOL    HW1 9272   1.551   1.197   4.102  0.5771 -0.8728 -0.3622
 3007SOL    HW2 9273   1.530   1.048   4.120 -0.1440 -0.9927 -2.0611
 3008SOL     OW 9274   6.076   3.590   3.189 -0.2245 -0.0836 -0.3997
 3008SOL    HW1 9275   6.075   3.685   3.176 -0.5386  0.0163  0.3116
 3008SOL    HW2 9276   6.066   3.554   3.101  1.6385  0.5251 -0.9104
 3009SOL     OW 9277   6.280   2.918   1.060 -0.2525 -0.0042  0.3297
 3009SOL    HW1 9278   6.267   2.926   0.965  0.5995  0.0997  0.2111
 3009SOL    HW2 9279   6.199   2.952   1.098 -0.5606  0.0649 -0.3577
 3010SOL     OW 9280   4.273   4.834   5.575  0.2820  0.3178 -0.3497
 3010SOL    HW1 9281   4.272   4.903   5.509  1.6782 -1.0586 -1.9222
 3010SOL    HW2 9282   4.182   4.807   5.583 -0.1524  1.7152 -0.3587
 3011SOL     OW 9283   5.788   6.208   2.952 -0.6363  0.3357 -0.5529
 3011SOL    HW1 9284   5.859   6.273   2.960 -1.9950  1.7786  0.3401
 3011SOL    HW2 9285   5.742   6.232   2.872  0.1603 -0.9349 -1.4250
 3012SOL     OW 9286   5.133   4.408   5.917 -0.5662 -0.0993  0.2680
 3012SOL    HW1 9287   5.047   4.413   5.958 -1.3894  0.5450 -1.4586
 3012SOL    HW2 9288   5.168   4.497   5.924  0.1351 -0.4371  1.2782
 3013SOL     OW 9289   2.146   5.493   5.684 -0.1456 -0.9003  0.6023
 3013SOL    HW1 9290   2.221   5.466   5.631 -0.6254  0.0613 -0.6046
 3013SOL    HW2 9291   2.185   5.542   5.757  0.3674  1.2093 -0.9870
 3014SOL     OW 9292   4.701   3.944   2.781  0.4673 -0.3155  0.0291
 3014SOL    HW1 9293   4.701   3.862   2.732 -1.6941  0.3760 -1.2999
 3014SOL    HW2 9294   4.743   4.007   2.723 -1.8035  0.4333 -0.9404
 3015SOL     OW 9295   4.652   4.494   4.514  0.0668 -0.0354  0.0152
 3015SOL    HW1 9296   4.658   4.585   4.545  0.4822 -0.5797  1.6505
 3015SOL    HW2 9297   4.637   4.502   4.420 -1.4881  1.7421  0.3448
 3016SOL     OW 9298   3.332   4.114   3.479  0.2494 -0.0166 -0.1538
 3016SOL    HW1 9299   3.292   4.199   3.499  1.2221  0.4406 -0.1022
 3016SOL    HW2 9300   3.264   4.050   3.499  0.1842  0.6199  1.8123
 3017SOL     OW 9301   1.950   2.305   3.089  0.2338  0.4749 -0.3172
 3017SOL    HW1 9302   2.010   2.352   3.147 -1.3794  1.3911  0.7132
 3017SOL    HW2 9303   2.002   2.234   3.052  1.3602 -0.1436  2.2319
 3018SOL     OW 9304   3.127   1.598   1.713 -0.1094 -0.5156  0.1593
 3018SOL    HW1 9305   3.127   1.552   1.629 -0.7641 -1.6046  0.7298
 3018SOL    HW2 9306   3.047   1.651   1.711 -0.6085 -1.2512  0.4620
 3019SOL     OW 9307   0.422   5.122   6.029 -0.0331 -0.0953 -0.8126
 3019SOL    HW1 9308   0.418   5.026   6.029 -2.3746 -0.1297  1.8196
 3019SOL    HW2 9309   0.507   5.142   6.067  0.2705 -1.1372 -0.9021
 3020SOL     OW 9310   1.816   3.975   1.995 -0.5582  0.0412 -0.2805
 3020SOL    HW1 9311   1.766   4.057   1.992 -1.1595 -0.2732  0.8629
 3020SOL    HW2 9312   1.898   3.999   2.037 -0.1240  0.3511 -1.2750
 3021SOL     OW 9313   5.243   3.432   1.406  0.5029 -0.7777 -0.1462
 3021SOL    HW1 9314   5.285   3.350   1.433  1.1423 -0.4043  0.0253
 3021SOL    HW2 9315   5.176   3.447   1.473 -0.0414 -1.4694 -0.5166
 3022SOL     OW 9316   1.162   3.201   3.604  0.0400  0.5473  0.4458
 3022SOL    HW1 9317   1.215   3.238   3.533  1.1901 -2.4705 -0.4331
 3022SOL    HW2 9318   1.206   3.231   3.684  1.1739  0.7049 -0.2072
 3023SOL     OW 9319   2.521   6.184   4.751 -0.3754  0.1748 -0.4017
 3023SOL    HW1 9320   2.497   6.117   4.814  0.9784  0.3019  0.2751
 3023SOL    HW2 9321   2.608   6.159   4.721  1.4563  3.0269  1.9565
 3024SOL     OW 9322   6.037   2.065   5.752  0.4580 -0.3634 -0.3582
 3024SOL    HW1 9323   6.017   1.972   5.756  1.1426 -0.4790  0.5064
 3024SOL    HW2 9324   6.112   2.077   5.810 -0.0725  0.8476  0.1276
 3025SOL     OW 9325   6.269   2.420   5.654 -0.3426 -0.4482  0.0377
 3025SOL    HW1 9326   6.229   2.379   5.577  0.6593  0.0423 -0.7733
 3025SOL    HW2 9327   6.358   2.440   5.627  0.6306 -1.9210  1.9384
 3026SOL     OW 9328   2.764   5.613   4.998  0.0526 -0.2754  0.1794
 3026SOL    HW1 9329   2.830   5.662   5.047 -0.7755 -1.1714  2.3250
 3026SOL    HW2 9330   2.695   5.676   4.980  0.4754  0.1201 -0.0771
 3027SOL     OW 9331   5.493   4.951   3.669  0.3518  0.3476 -0.0540
 3027SOL    HW1 9332   5.581   4.921   3.691 -0.5271 -1.6217  0.9807
 3027SOL    HW2 9333   5.490   5.041   3.701  1.3072 -0.2664  1.8965
 3028SOL     OW 9334   5.988   1.957   0.197  0.6647 -0.4532 -0.0299
 3028SOL    HW1 9335   6.031   1.920   0.121  1.0518 -1.0530  0.4664
 3028SOL    HW2 9336   5.909   1.904   0.208  1.3058 -1.2863  0.7825
 3029SOL     OW 9337   2.231   4.913   2.893 -0.2847  0.1087  0.1770
 3029SOL    HW1 9338   2.240   4.865   2.810  0.7273 -0.4979  0.6237
 3029SOL    HW2 9339   2.157   4.871   2.937 -0.2326 -0.1939 -0.0168
 3030SOL     OW 9340   1.383   5.481   5.802 -0.1104  0.0363 -0.0704
 3030SOL    HW1 9341   1.315   5.549   5.796 -0.6821 -0.5987 -0.9429
 3030SOL    HW2 9342   1.345   5.416   5.862  0.0092 -0.0054 -0.0408
 3031SOL     OW 9343   3.057   0.493   5.655 -0.1688  0.0828 -0.1650
 3031SOL    HW1 9344   3.037   0.585   5.638  0.5527  0.1236 -0.8410
 3031SOL    HW2 9345   3.151   0.485   5.637 -0.2743 -0.8372 -0.3550
 3032SOL     OW 9346   4.171   6.037   3.588 -0.9114  0.0320  0.2845
 3032SOL    HW1 9347   4.196   5.959   3.537  2.3179 -0.4458  2.2917
 3032SOL    HW2 9348   4.094   6.009   3.638 -1.6295 -0.8262 -1.2344
 3033SOL     OW 9349   5.290   3.141   5.446 -0.0357 -0.4504  0.0029
 3033SOL    HW1 9350   5.358   3.140   5.514 -0.1922  0.6314  0.1935
 3033SOL    HW2 9351   5.269   3.049   5.432  1.4134 -0.8118  0.0011
 3034SOL     OW 9352   1.782   1.393   2.770 -0.3060 -0.6486 -0.2389
 3034SOL    HW1 9353   1.759   1.356   2.685 -0.2769 -0.5442 -0.2927
 3034SOL    HW2 9354   1.838   1.327   2.811  0.4050 -0.3156 -0.6660
 3035SOL     OW 9355   0.963   2.985   1.175  0.2271 -0.4474  0.4678
 3035SOL    HW1 9356   0.890   3.014   1.120  1.3200  0.4480 -0.5683
 3035SOL    HW2 9357   0.922   2.955   1.256 -1.5100 -2.4821 -1.0762
 3036SOL     OW 9358   5.193   4.799   3.387 -0.1854 -0.2252 -0.9044
 3036SOL    HW1 9359   5.191   4.704   3.398 -0.0506 -0.1470 -0.1649
 3036SOL    HW2 9360   5.237   4.831   3.465  0.8886  0.3592 -1.7103
 3037SOL     OW 9361   3.087   0.697   3.445  0.3923 -0.1561 -0.1081
 3037SOL    HW1 9362   3.076   0.710   3.350  1.7565 -0.7127 -0.3640
 3037SOL    HW2 9363   3.117   0.781   3.478 -0.2337  0.0833 -0.1371
 3038SOL     OW 9364   5.929   2.580   1.023 -0.1436 -0.4435  0.0257
 3038SOL    HW1 9365   5.955   2.488   1.021  0.9584 -0.2516  2.4362
 3038SOL    HW2 9366   6.007   2.627   1.052 -1.4801  0.8904  1.6730
 3039SOL     OW 9367   2.361   5.693   2.936 -0.4872  0.1645  0.5897
 3039SOL    HW1 9368   2.317   5.616   2.972 -1.0479 -0.4766 -1.3912
 3039SOL    HW2 9369   2.290   5.756   2.920 -0.6223 -0.5009 -1.6829
 3040SOL     OW 9370   3.864   0.628   2.259 -0.0708 -0.1786 -0.1054
 3040SOL    HW1 9371   3.858   0.533   2.276 -0.9296 -0.1857 -0.4159
 3040SOL    HW2 9372   3.784   0.649   2.211  0.9555  0.3743 -1.6679
 3041SOL     OW 9373   5.311   3.084   6.125 -0.3720  0.4332 -0.2864
 3041SOL    HW1 9374   5.229   3.055   6.086  0.6811 -2.3754 -0.6762
 3041SOL    HW2 9375   5.295   3.084   6.219 -1.0478  0.7565 -0.3990
 3042SOL     OW 9376   3.604   6.256   2.111 -0.5648 -0.9754 -0.1320
 3042SOL    HW1 9377   3.613   6.202   2.033  1.1758 -0.8182 -0.0607
 3042SOL    HW2 9378   3.665   6.219   2.174 -2.0905 -1.2380  1.2808
 3043SOL     OW 9379   5.523   3.565   2.959  0.2659 -0.2294  0.8386
 3043SOL    HW1 9380   5.614   3.546   2.982  0.8319 -0.0803 -1.0852
 3043SOL    HW2 9381   5.471   3.523   3.027  1.7947  1.3048  3.0942
 3044SOL     OW 9382   4.784   6.093   4.349 -0.0155  0.1499  0.1966
 3044SOL    HW1 9383   4.784   5.998   4.354 -1.0877  0.0679 -0.8962
 3044SOL    HW2 9384   4.876   6.117   4.349  0.2650 -0.8342  1.1258
 3045SOL     OW 9385   3.619   4.615   2.602 -0.0353  0.0725  0.7196
 3045SOL    HW1 9386   3.645   4.696   2.558  0.0693  0.6278  1.7963
 3045SOL    HW2 9387   3.652   4.546   2.544 -0.4081  0.7747 -0.3809
 3046SOL     OW 9388   1.154   4.038   1.014  0.3975 -0.0357  0.2910
 3046SOL    HW1 9389   1.090   4.033   1.085 -0.0325  0.6875 -0.0325
 3046SOL    HW2 9390   1.188   3.949   1.006 -0.9948 -0.5813  0.0807
 3047SOL     OW 9391   2.895   6.327   1.502  0.3477  0.0497  0.1276
 3047SOL    HW1 9392   2.981   6.291   1.523  0.0862 -1.0197 -0.5215
 3047SOL    HW2 9393   2.864   6.364   1.584  0.8093 -0.8807  0.7461
 3048SOL     OW 9394   4.123   2.375   3.986 -0.1045  0.0355 -0.5327
 3048SOL    HW1 9395   4.141   2.320   3.910  0.5248 -1.2753  0.5302
 3048SOL    HW2 9396   4.047   2.335   4.028  0.3891 -0.0727  0.2789
 3049SOL     OW 9397   0.386   1.130   2.933 -0.4106  0.3662  0.2584
 3049SOL    HW1 9398   0.456   1.165   2.879 -0.7378  0.3238 -0.1989
 3049SOL    HW2 9399   0.348   1.207   2.976 -0.9964  0.5539 -0.5854
 3050SOL     OW 9400   3.780   4.801   5.739 -0.5677 -0.2330  0.6977
 3050SOL    HW1 9401   3.687   4.781   5.740 -0.5575 -0.4499 -0.5441
 3050SOL    HW2 9402   3.823   4.720   5.769 -0.6050 -1.7689 -2.8319
 3051SOL     OW 9403   0.517   3.692   3.697  1.1950  0.4184  0.4451
 3051SOL    HW1 9404   0.530   3.643   3.616  0.8429  0.2812  0.4719
 3051SOL    HW2 9405   0.545   3.781   3.675  0.3409  0.5764 -0.0708
 3052SOL     OW 9406   2.718   4.537   2.525 -0.2109  0.5915 -0.4508
 3052SOL    HW1 9407   2.729   4.483   2.446 -0.4284  0.0338 -0.1020
 3052SOL    HW2 9408   2.738   4.478   2.597 -0.1573  1.0639 -0.0760
 3053SOL     OW 9409   1.958   0.164   0.575 -0.0552  0.3274 -0.2540
 3053SOL    HW1 9410   1.924   0.125   0.495 -0.3374  0.3347 -0.1397
 3053SOL    HW2 9411   1.901   0.131   0.644  0.0998  0.4317 -0.0742
 3054SOL     OW 9412   2.840   1.457   0.746  0.4651 -0.4475 -0.0333
 3054SOL    HW1 9413   2.873   1.547   0.747  1.5558 -0.8375  0.3311
 3054SOL    HW2 9414   2.747   1.465   0.765  0.9376  0.4637  2.1973
 3055SOL     OW 9415   4.988   1.112   2.334  0.0879 -0.3888  0.0655
 3055SOL    HW1 9416   4.991   1.208   2.324  1.9795 -0.4377 -0.3130
 3055SOL    HW2 9417   4.976   1.080   2.245  0.2871 -0.5118  0.0823
 3056SOL     OW 9418   5.877   5.660   1.294 -0.3233 -0.4470  0.1880
 3056SOL    HW1 9419   5.927   5.728   1.340 -1.6559  0.7279 -0.0135
 3056SOL    HW2 9420   5.854   5.597   1.361  1.1616 -0.8665  0.3377
 3057SOL     OW 9421   5.702   0.442   4.553  0.3543 -0.4542  0.3335
 3057SOL    HW1 9422   5.789   0.436   4.593  1.2893  2.0762 -1.0942
 3057SOL    HW2 9423   5.719   0.449   4.459 -1.4016 -0.0634  0.0160
 3058SOL     OW 9424   1.000   2.353   2.791  0.0385 -0.0138 -0.1259
 3058SOL    HW1 9425   1.000   2.389   2.702  0.5555  0.3047 -0.0061
 3058SOL    HW2 9426   0.975   2.262   2.781 -1.1862  0.3474 -0.4557
 3059SOL     OW 9427   5.368   2.811   2.987  0.1570 -0.0863  0.1878
 3059SOL    HW1 9428   5.408   2.863   2.917  1.6926  0.4469  1.4004
 3059SOL    HW2 9429   5.433   2.743   3.006 -0.0409  0.0305  1.3549
 3060SOL     OW 9430   2.935   3.960   3.000  0.4781  0.4950 -0.2769
 3060SOL    HW1 9431   2.904   3.948   3.090 -1.0660  0.2608 -0.8039
 3060SOL    HW2 9432   2.935   3.872   2.962  1.2260  0.5773 -0.4856
 3061SOL     OW 9433   3.995   2.297   2.021 -0.2567  0.5201  0.4559
 3061SOL    HW1 9434   3.909   2.313   2.060  0.0668  0.7854  1.0722
 3061SOL    HW2 9435   4.026   2.217   2.062 -0.3526  0.2260 -0.0286
 3062SOL     OW 9436   5.267   3.920   4.560  0.2162 -0.3078  0.8291
 3062SOL    HW1 9437   5.269   3.921   4.655  1.7479 -0.4953  0.8139
 3062SOL    HW2 9438   5.248   4.011   4.536  3.8531  0.7369  1.3173
 3063SOL     OW 9439   6.341   5.088   6.296 -0.0585  0.2953  0.1887
 3063SOL    HW1 9440   6.370   5.154   6.359  0.3793  0.0444  0.2482
 3063SOL    HW2 9441   6.366   5.124   6.211  1.4224 -0.4060  0.2985
 3064SOL     OW 9442   5.521   3.118   5.958  0.2850  0.2848  0.3425
 3064SOL    HW1 9443   5.455   3.129   6.027 -0.4581 -1.0186 -0.1325
 3064SOL    HW2 9444   5.575   3.197   5.965  0.0533  0.3299  2.2089
 3065SOL     OW 9445   0.803   0.526   2.333 -0.0209  0.4223 -0.3030
 3065SOL    HW1 9446   0.755   0.514   2.252  1.5257 -2.5306 -0.9276
 3065SOL    HW2 9447   0.766   0.462   2.393  1.7514 -0.5655 -0.1817
 3066SOL     OW 9448   4.766   4.886   2.811  0.1402 -0.8703 -0.3087
 3066SOL    HW1 9449   4.778   4.791   2.821  2.7629 -0.8355 -2.1699
 3066SOL    HW2 9450   4.808   4.923   2.889 -1.0228 -1.1938  0.5003
 3067SOL     OW 9451   3.660   5.468   2.574  0.7035  0.1387 -0.2297
 3067SOL    HW1 9452   3.601   5.541   2.555  1.2499  0.5421 -0.3825
 3067SOL    HW2 9453   3.705   5.451   2.491  2.2234  1.1182  0.3559
 3068SOL     OW 9454   3.416   4.155   1.744  0.4044 -0.3510  0.0562
 3068SOL    HW1 9455   3.485   4.154   1.810  0.3369  0.1340  0.1362
 3068SOL    HW2 9456   3.398   4.062   1.728  0.4571 -0.4804  0.6865
 3069SOL     OW 9457   3.180   1.307   6.173 -0.6211  0.2001 -0.1229
 3069SOL    HW1 9458   3.132   1.352   6.242 -0.5592  0.6708 -0.3853
 3069SOL    HW2 9459   3.199   1.375   6.108  0.5733  0.0720  0.0632
 3070SOL     OW 9460   5.476   4.632   4.279 -0.3009  0.1880 -0.5438
 3070SOL    HW1 9461   5.503   4.544   4.254  3.7065  0.5550  1.6594
 3070SOL    HW2 9462   5.441   4.622   4.368  0.5367  0.8211 -0.1314
 3071SOL     OW 9463   2.073   6.037   0.036  0.1444 -0.5800  0.4770
 3071SOL    HW1 9464   2.156   6.057  -0.007 -0.5984  0.6142 -0.4559
 3071SOL    HW2 9465   2.089   5.954   0.081  1.0571 -1.7877 -1.8993
 3072SOL     OW 9466   3.765   4.655   4.326 -0.7580  0.2797  0.0910
 3072SOL    HW1 9467   3.840   4.686   4.275 -0.8345 -1.0967 -0.8881
 3072SOL    HW2 9468   3.788   4.565   4.350 -2.3806 -0.4049 -0.8197
 3073SOL     OW 9469   2.818   2.436   0.891 -0.2266 -0.7908 -0.3476
 3073SOL    HW1 9470   2.759   2.447   0.965 -0.3112 -0.4927 -0.4609
 3073SOL    HW2 9471   2.761   2.429   0.815 -0.1826 -1.9099 -0.3029
 3074SOL     OW 9472   1.879   4.737   3.231  0.2527  0.3399 -0.4003
 3074SOL    HW1 9473   1.827   4.657   3.235  3.2714 -1.7212  1.1592
 3074SOL    HW2 9474   1.852   4.787   3.308  0.4475 -0.6328  0.3159
 3075SOL     OW 9475   0.576   4.214   5.968  0.7547 -0.1235 -0.5173
 3075SOL    HW1 9476   0.482   4.230   5.956  1.0978  2.0078 -0.7188
 3075SOL    HW2 9477   0.599   4.267   6.044  2.4572  2.3201 -2.5891
 3076SOL     OW 9478   0.685   4.936   4.730 -0.0820  0.4547  0.2704
 3076SOL    HW1 9479   0.604   4.894   4.702 -0.4984  0.5911  1.2514
 3076SOL    HW2 9480   0.662   5.029   4.737  1.0877  1.1205 -2.9114
 3077SOL     OW 9481   4.608   3.890   5.492 -0.4382 -0.2440  0.4852
 3077SOL    HW1 9482   4.576   3.880   5.402 -1.1615  1.7394  0.4730
 3077SOL    HW2 9483   4.529   3.912   5.543  0.0812 -0.6109  1.4885
 3078SOL     OW 9484   4.158   4.524   5.006  0.4622 -0.3848  0.0180
 3078SOL    HW1 9485   4.113   4.581   5.069 -0.3044  0.7824 -1.5000
 3078SOL    HW2 9486   4.248   4.557   5.003  0.6284 -0.7498  0.8271
 3079SOL     OW 9487   4.389   4.159   5.610 -0.4165  0.1128 -0.1527
 3079SOL    HW1 9488   4.368   4.171   5.703 -0.6445 -0.0830 -0.1763
 3079SOL    HW2 9489   4.388   4.064   5.598  3.4007 -0.1881  0.5124
 3080SOL     OW 9490   2.727   5.847   2.257  0.1919  0.8718 -0.7935
 3080SOL    HW1 9491   2.792   5.810   2.198 -0.9947  1.2599 -2.4070
 3080SOL    HW2 9492   2.725   5.940   2.236 -0.0907  1.0639  0.0349
 3081SOL     OW 9493   1.864   6.044   4.399  0.0686 -0.1947 -0.1447
 3081SOL    HW1 9494   1.833   6.007   4.481  0.1335 -2.9485 -1.2462
 3081SOL    HW2 9495   1.955   6.067   4.415 -0.0328 -0.3455  0.6705
 3082SOL     OW 9496   5.733   3.631   0.178  0.3390 -0.3028 -0.4788
 3082SOL    HW1 9497   5.653   3.630   0.232  1.0569 -1.3542  0.6189
 3082SOL    HW2 9498   5.746   3.723   0.156 -0.1734  0.1088  0.8483
 3083SOL     OW 9499   3.450   6.050   3.364 -0.1656  0.1562  0.4092
 3083SOL    HW1 9500   3.387   6.093   3.307  1.2893 -0.2746 -1.6210
 3083SOL    HW2 9501   3.497   5.989   3.307  1.1036 -0.5872  2.1496
 3084SOL     OW 9502   2.791   2.162   2.112 -0.0110  0.0753 -0.4857
 3084SOL    HW1 9503   2.697   2.150   2.102  0.0610 -0.2823 -0.7567
 3084SOL    HW2 9504   2.828   2.075   2.096  0.1993 -0.3263  1.8909
 3085SOL     OW 9505   2.325   3.608   1.924  0.2690  0.3386 -0.2676
 3085SOL    HW1 9506   2.373   3.664   1.863  0.8944  0.7052  0.5480
 3085SOL    HW2 9507   2.261   3.563   1.869  0.4241  1.1001 -1.0986
 3086SOL     OW 9508   5.660   2.903   0.764  0.4245 -0.3680 -0.2784
 3086SOL    HW1 9509   5.665   2.810   0.743  1.4514 -0.6286  1.0517
 3086SOL    HW2 9510   5.687   2.947   0.683  1.6912 -1.2708 -0.3706
 3087SOL     OW 9511   3.514   4.271   2.564  0.2337 -0.1504 -0.5403
 3087SOL    HW1 9512   3.478   4.183   2.549  2.8201 -1.6640  1.2730
 3087SOL    HW2 9513   3.441   4.321   2.599 -1.5685 -1.2498 -2.5156
 3088SOL     OW 9514   0.416   1.931   6.315 -0.0695 -0.3093  0.3144
 3088SOL    HW1 9515   0.505   1.897   6.315 -0.1982 -0.6476 -0.0066
 3088SOL    HW2 9516   0.360   1.854   6.304 -0.4597 -0.2519  1.6286
 3089SOL     OW 9517   3.124   0.234   4.944  0.0806 -0.4305  0.0566
 3089SOL    HW1 9518   3.085   0.320   4.958  0.4275 -0.2269 -0.2168
 3089SOL    HW2 9519   3.052   0.172   4.957  0.3314 -0.2675  2.7078
 3090SOL     OW 9520   4.540   6.175   3.799  0.2520 -0.1629 -0.2516
 3090SOL    HW1 9521   4.562   6.139   3.712 -1.3626 -0.1225 -0.7137
 3090SOL    HW2 9522   4.541   6.270   3.787 -0.3132 -0.1629 -0.3285
 3091SOL     OW 9523   5.987   0.213   4.078  0.1640  0.4531  0.8945
 3091SOL    HW1 9524   6.071   0.232   4.036  0.4687 -2.3694 -0.0029
 3091SOL    HW2 9525   5.924   0.266   4.030  1.0492  0.2830 -0.5324
 3092SOL     OW 9526   4.763   0.006   4.645 -0.4825 -0.4063  0.0599
 3092SOL    HW1 9527   4.794  -0.042   4.722 -0.5820 -0.0665  0.3116
 3092SOL    HW2 9528   4.709  -0.058   4.598 -1.0237 -0.3985  0.6533
 3093SOL     OW 9529   0.215   1.957   3.601 -0.3559 -0.4184  0.6809
 3093SOL    HW1 9530   0.272   2.028   3.631  1.4789 -1.0779 -1.0780
 3093SOL    HW2 9531   0.216   1.894   3.673 -1.4230  0.9468  1.9562
 3094SOL     OW 9532   0.838   6.134   5.220 -0.4490  0.2217  0.0140
 3094SOL    HW1 9533   0.842   6.056   5.276 -1.1167 -0.4693 -0.8884
 3094SOL    HW2 9534   0.806   6.203   5.278 -0.7251 -0.3830  0.5920
 3095SOL     OW 9535   3.786   2.639   4.444 -0.1532 -0.9427  0.5509
 3095SOL    HW1 9536   3.728   2.598   4.380 -0.3844 -0.7018  0.6029
 3095SOL    HW2 9537   3.732   2.653   4.521 -0.3917  0.4346  0.1677
 3096SOL     OW 9538   4.416   1.612   0.554 -0.4864 -0.0669 -0.2863
 3096SOL    HW1 9539   4.431   1.549   0.484  0.4988 -0.2496  0.0696
 3096SOL    HW2 9540   4.354   1.570   0.612 -2.0638  0.4655 -1.5155
 3097SOL     OW 9541   1.600   1.343   4.162  0.0630 -0.6250  0.7208
 3097SOL    HW1 9542   1.541   1.335   4.236 -1.5724  0.0861 -0.4538
 3097SOL    HW2 9543   1.662   1.412   4.188 -1.1297  0.3503  1.0349
 3098SOL     OW 9544   1.359   6.085   4.122  0.6064 -0.5217  0.3499
 3098SOL    HW1 9545   1.433   6.048   4.075  0.3414 -2.1508  1.1543
 3098SOL    HW2 9546   1.286   6.082   4.059  0.8255 -0.4411  0.0931
 3099SOL     OW 9547   3.228   4.335   2.974  0.1755 -0.1243  0.3804
 3099SOL    HW1 9548   3.158   4.399   2.959 -1.0794 -1.5150  0.0859
 3099SOL    HW2 9549   3.229   4.323   3.069 -1.6383 -1.7979  0.2556
 3100SOL     OW 9550   5.627   4.181   5.119 -0.5715  0.1006 -0.3508
 3100SOL    HW1 9551   5.603   4.234   5.043 -1.5614  0.3405  0.1173
 3100SOL    HW2 9552   5.544   4.144   5.150 -0.0297 -0.9036 -0.0569
 3101SOL     OW 9553   4.859   3.547   2.560  0.0841 -0.1020  0.4866
 3101SOL    HW1 9554   4.818   3.555   2.646  1.4234 -0.4322  1.1774
 3101SOL    HW2 9555   4.888   3.636   2.539 -0.3344 -0.0024  0.3279
 3102SOL     OW 9556   0.347   2.865   3.051 -0.3848 -0.2469 -0.3286
 3102SOL    HW1 9557   0.442   2.870   3.052 -0.3822 -0.1321 -0.9128
 3102SOL    HW2 9558   0.324   2.823   3.134  0.2323 -1.2175 -0.6347
 3103SOL     OW 9559   5.941   2.339   5.750  0.6284 -0.0836  0.4380
 3103SOL    HW1 9560   5.942   2.245   5.732 -1.5862  0.0064 -0.4127
 3103SOL    HW2 9561   5.919   2.380   5.667 -1.0087  0.9882  1.3590
 3104SOL     OW 9562   1.113   4.391   5.543  0.2230  0.4053  0.0211
 3104SOL    HW1 9563   1.178   4.347   5.598 -0.9948  0.0578  1.2211
 3104SOL    HW2 9564   1.085   4.466   5.594 -0.4978  0.4115 -0.3760
 3105SOL     OW 9565   4.400   5.035   2.893  0.0102  0.0253 -0.4141
 3105SOL    HW1 9566   4.438   5.034   2.981 -2.4619  1.1487  0.7492
 3105SOL    HW2 9567   4.307   5.017   2.907 -0.4011 -0.0357 -2.8536
 3106SOL     OW 9568   6.016   5.255   4.048  0.1927 -0.3905 -0.1727
 3106SOL    HW1 9569   5.968   5.244   3.966  0.0698 -1.1524 -0.0001
 3106SOL    HW2 9570   6.106   5.233   4.026  0.0667 -1.0933  0.0176
 3107SOL     OW 9571   3.562   1.766   4.660  0.1331 -0.5369  0.5437
 3107SOL    HW1 9572   3.523   1.788   4.744 -0.0148  3.7422 -0.4504
 3107SOL    HW2 9573   3.488   1.756   4.600  0.1687  3.7421 -0.4952
 3108SOL     OW 9574   1.588   0.962   2.713  0.2794  0.1409 -0.4979
 3108SOL    HW1 9575   1.662   0.981   2.655 -2.0373  2.7184 -2.9155
 3108SOL    HW2 9576   1.535   0.898   2.665 -0.3272  0.2113  0.0540
 3109SOL     OW 9577   3.890   5.000   1.223 -0.5883  0.0546 -0.2342
 3109SOL    HW1 9578   3.837   4.924   1.243  1.5618 -1.5975 -0.4157
 3109SOL    HW2 9579   3.828   5.065   1.191 -2.4516 -1.7623 -0.5253
 3110SOL     OW 9580   5.050   5.670   3.476  0.3909 -0.0694  0.4320
 3110SOL    HW1 9581   4.993   5.617   3.531 -0.0323  0.7074  0.7714
 3110SOL    HW2 9582   5.038   5.759   3.510  1.2860  0.2005  0.0601
 3111SOL     OW 9583   0.147   5.964   3.870 -0.0074  0.1062  0.4309
 3111SOL    HW1 9584   0.180   5.948   3.958  0.9856  0.4297  0.1296
 3111SOL    HW2 9585   0.203   5.912   3.813 -1.0153 -0.5682  0.0289
 3112SOL     OW 9586   6.244   5.083   1.840  0.4008  0.1959  0.3550
 3112SOL    HW1 9587   6.152   5.082   1.815  0.6685 -1.2566 -0.7541
 3112SOL    HW2 9588   6.244   5.098   1.934 -1.1266 -1.9811  0.7800
 3113SOL     OW 9589   4.338   5.307   5.653 -0.1069 -0.1121 -0.5003
 3113SOL    HW1 9590   4.401   5.245   5.689 -0.3329  0.3220  0.6897
 3113SOL    HW2 9591   4.262   5.253   5.631  0.4715 -0.5590 -1.4757
 3114SOL     OW 9592   0.594   4.915   2.134 -0.2184  0.3012 -0.1290
 3114SOL    HW1 9593   0.670   4.958   2.094 -0.1504  0.0067 -0.3130
 3114SOL    HW2 9594   0.546   4.987   2.176  0.5587  0.3953  0.6384
 3115SOL     OW 9595   6.214   1.094   4.922  0.0610  0.2188 -0.0814
 3115SOL    HW1 9596   6.202   1.185   4.893 -0.2147  0.1227 -0.2723
 3115SOL    HW2 9597   6.154   1.085   4.996  0.8552  0.5012  0.6123
 3116SOL     OW 9598   6.034   5.430   4.613  0.6562  0.0646 -0.7549
 3116SOL    HW1 9599   6.105   5.374   4.581  0.9277 -0.7090  1.0610
 3116SOL    HW2 9600   6.078   5.512   4.638  1.0846 -0.6456  0.9828
 3117SOL     OW 9601   1.235   4.022   0.418 -0.6140  0.6855  0.5469
 3117SOL    HW1 9602   1.272   3.993   0.335  1.3537  3.1266  0.4530
 3117SOL    HW2 9603   1.153   3.973   0.427 -0.3075 -0.4939 -2.2255
 3118SOL     OW 9604   0.653   4.245   3.766  0.5165  0.3755  0.6616
 3118SOL    HW1 9605   0.589   4.236   3.837  0.6058  1.1774  0.8639
 3118SOL    HW2 9606   0.689   4.158   3.755  1.0876  0.3820  2.1822
 3119SOL     OW 9607   1.911   3.477   4.594  0.3991  0.9694  0.1654
 3119SOL    HW1 9608   1.880   3.546   4.535 -1.1034 -0.6767 -1.0724
 3119SOL    HW2 9609   1.855   3.484   4.671 -0.4441  0.5470 -0.3861
 3120SOL     OW 9610   3.488   5.156   0.348 -0.3436  0.0152  0.1049
 3120SOL    HW1 9611   3.553   5.223   0.326 -0.4664 -0.3146 -1.4158
 3120SOL    HW2 9612   3.403   5.199   0.335 -0.4310 -0.0114  0.5626
 3121SOL     OW 9613   0.583   1.309   3.750 -0.2621  0.2035 -0.0781
 3121SOL    HW1 9614   0.563   1.319   3.843 -0.7118 -0.8216 -0.0458
 3121SOL    HW2 9615   0.508   1.350   3.705 -0.9394 -0.8789  0.0317
 3122SOL     OW 9616   4.461   0.034   4.553  0.4716  0.1680 -0.1931
 3122SOL    HW1 9617   4.489  -0.024   4.481  2.2968 -1.6973  1.8693
 3122SOL    HW2 9618   4.498   0.120   4.530  1.6709 -0.5674 -1.1430
 3123SOL     OW 9619   5.574   3.760   1.752  0.0187  0.0472  0.0652
 3123SOL    HW1 9620   5.597   3.787   1.663  0.2446  0.2495  0.1857
 3123SOL    HW2 9621   5.499   3.701   1.740 -0.2266  0.4137 -0.2230
 3124SOL     OW 9622   5.137   1.470   4.578 -0.2630  0.2754 -0.1100
 3124SOL    HW1 9623   5.078   1.399   4.551  1.7834 -2.0594  1.1846
 3124SOL    HW2 9624   5.130   1.473   4.673  1.8354 -0.2501  0.1058
 3125SOL     OW 9625   3.994   3.453   2.560 -0.6253  0.1065  0.1610
 3125SOL    HW1 9626   3.925   3.499   2.608  0.3916  1.9038 -0.0320
 3125SOL    HW2 9627   3.991   3.364   2.595 -2.5221  0.3241  0.7015
 3126SOL     OW 9628   4.986   0.012   5.243  0.1227 -0.3661 -0.2407
 3126SOL    HW1 9629   5.024  -0.076   5.250  1.2078  0.0768 -0.4059
 3126SOL    HW2 9630   5.042   0.058   5.182  0.0771  0.7089  0.4996
 3127SOL     OW 9631   1.916   1.139   4.850 -0.0044  0.0342  0.1579
 3127SOL    HW1 9632   1.902   1.059   4.798 -2.3971 -0.0000  0.7166
 3127SOL    HW2 9633   1.942   1.205   4.786  2.5481 -1.2417 -0.2523
 3128SOL     OW 9634   3.423   2.602   2.752  0.0816  0.3891 -0.0147
 3128SOL    HW1 9635   3.408   2.508   2.744 -1.4265  0.5335  0.8791
 3128SOL    HW2 9636   3.366   2.641   2.685 -0.7770  0.7492  0.9024
 3129SOL     OW 9637   2.173   3.551   5.132 -0.5523 -0.3560 -0.0341
 3129SOL    HW1 9638   2.150   3.599   5.212  1.1718 -2.6453  2.0152
 3129SOL    HW2 9639   2.250   3.597   5.098 -0.2102 -0.3771  0.6824
 3130SOL     OW 9640   1.938   4.983   3.133 -0.6069  0.3943 -0.1844
 3130SOL    HW1 9641   1.904   4.902   3.173 -0.4310 -0.7538 -2.2259
 3130SOL    HW2 9642   1.936   4.966   3.039 -0.1519  2.6416 -0.6570
 3131SOL     OW 9643   0.622   4.945   5.640 -0.6951  0.3712 -0.3339
 3131SOL    HW1 9644   0.567   4.911   5.570 -0.4180 -0.7145 -0.0444
 3131SOL    HW2 9645   0.685   5.002   5.596 -0.1080 -0.8116 -1.0855
 3132SOL     OW 9646   4.127   1.473   5.943 -0.0831  0.3158 -0.2110
 3132SOL    HW1 9647   4.171   1.402   5.990  0.7024  0.4216 -0.7520
 3132SOL    HW2 9648   4.190   1.498   5.875 -0.7865  0.8258 -0.6846
 3133SOL     OW 9649   5.536   1.422   4.168 -0.5627 -0.0550  0.2764
 3133SOL    HW1 9650   5.594   1.376   4.229 -1.0840 -1.9567 -0.5748
 3133SOL    HW2 9651   5.502   1.353   4.112 -1.2461  1.4459 -1.2289
 3134SOL     OW 9652   2.491   3.789   6.214 -0.1692  0.0016  0.2948
 3134SOL    HW1 9653   2.530   3.872   6.241 -0.6614  0.2033  0.4156
 3134SOL    HW2 9654   2.398   3.810   6.201  0.0414 -0.1031 -1.5139
 3135SOL     OW 9655   0.765   2.995   6.278  0.6590  0.0317  0.4910
 3135SOL    HW1 9656   0.729   2.994   6.366  0.5504  0.4494  0.4528
 3135SOL    HW2 9657   0.697   3.035   6.224  0.3247 -1.1181  0.0371
 3136SOL     OW 9658   1.263   1.396   6.338  0.6976 -0.6586  0.0738
 3136SOL    HW1 9659   1.218   1.446   6.269 -0.1707  0.6779  1.5338
 3136SOL    HW2 9660   1.316   1.332   6.290  1.5191  1.3527 -1.9173
 3137SOL     OW 9661   5.057   0.005   6.236 -0.3249  0.1000 -0.0124
 3137SOL    HW1 9662   5.033  -0.043   6.316 -0.6719  2.4000  1.3583
 3137SOL    HW2 9663   5.140   0.048   6.258 -0.6423  1.1150 -0.7355
 3138SOL     OW 9664   5.517   4.059   1.199 -0.6578 -0.3331 -0.3988
 3138SOL    HW1 9665   5.538   4.070   1.106  4.0103 -1.4114  0.2647
 3138SOL    HW2 9666   5.517   3.965   1.213  0.6159 -0.1745  0.9520
 3139SOL     OW 9667   5.365   3.047   3.474  0.5736  0.0619  0.5040
 3139SOL    HW1 9668   5.436   3.110   3.464  0.3456  0.5954  1.9719
 3139SOL    HW2 9669   5.310   3.061   3.398  1.1079  0.8886  0.2525
 3140SOL     OW 9670   4.727   0.114   3.535 -0.7453 -0.1558 -0.2484
 3140SOL    HW1 9671   4.742   0.206   3.515  0.7316 -0.0005  1.3360
 3140SOL    HW2 9672   4.765   0.066   3.461  0.4774  0.4754 -0.0553
 3141SOL     OW 9673   1.011   4.112   3.342 -0.3705 -0.0284  0.4723
 3141SOL    HW1 9674   0.920   4.085   3.356 -0.3947 -0.3690 -0.3001
 3141SOL    HW2 9675   1.004   4.199   3.303 -0.3761 -0.1477  0.2038
 3142SOL     OW 9676   3.376   3.429   6.169 -0.3745 -0.0101  0.7491
 3142SOL    HW1 9677   3.431   3.367   6.121  0.3023 -0.6373  2.2618
 3142SOL    HW2 9678   3.403   3.515   6.136 -0.4350 -0.4398 -0.4780
 3143SOL     OW 9679   0.415   4.919   4.863 -0.2261  0.9142 -0.0509
 3143SOL    HW1 9680   0.341   4.946   4.918  1.9790  1.3214  2.9667
 3143SOL    HW2 9681   0.451   5.002   4.830 -1.0453  0.7166 -1.5246
 3144SOL     OW 9682   5.975   4.343   2.453  0.5128 -0.4255  0.0862
 3144SOL    HW1 9683   5.994   4.295   2.533 -0.2472 -1.2091 -0.1820
 3144SOL    HW2 9684   5.930   4.279   2.397 -0.1857  0.4978 -0.4287
 3145SOL     OW 9685   4.035   0.389   3.868 -0.1735 -0.2600  0.3244
 3145SOL    HW1 9686   4.055   0.312   3.815  1.2850 -0.0679  0.5617
 3145SOL    HW2 9687   3.975   0.440   3.813  1.0162 -0.2401 -1.0172
 3146SOL     OW 9688   1.940   5.813   0.226  0.1223 -0.3178 -0.1060
 3146SOL    HW1 9689   1.982   5.760   0.158  3.8374 -0.4695  1.9981
 3146SOL    HW2 9690   1.909   5.749   0.290  1.3539 -0.1358  0.7159
 3147SOL     OW 9691   1.414   0.559   0.053  0.4130  0.4572 -0.1287
 3147SOL    HW1 9692   1.391   0.608   0.132  0.3836 -0.2874  0.3407
 3147SOL    HW2 9693   1.484   0.609   0.012  0.4069  0.8633  0.3592
 3148SOL     OW 9694   3.579   5.077   2.026 -0.2209 -0.2216 -0.0772
 3148SOL    HW1 9695   3.539   5.160   2.051 -0.5621  0.0374 -1.3902
 3148SOL    HW2 9696   3.505   5.017   2.014 -0.1632 -0.0528 -1.4113
 3149SOL     OW 9697   0.403   2.617   4.539  0.3931 -0.2923 -0.1258
 3149SOL    HW1 9698   0.498   2.606   4.531  0.0822 -2.1602 -2.1288
 3149SOL    HW2 9699   0.385   2.603   4.632  2.1950  1.5703  0.5843
 3150SOL     OW 9700   3.635   6.015   1.078 -0.1049  0.3048  0.2114
 3150SOL    HW1 9701   3.614   5.929   1.114  2.9434 -0.3509  0.7841
 3150SOL    HW2 9702   3.616   6.076   1.149 -1.4129  0.0107  0.1312
 3151SOL     OW 9703   3.119   6.210   1.675 -0.2170 -0.3291  0.0788
 3151SOL    HW1 9704   3.152   6.127   1.639  0.3431 -0.5792  1.1238
 3151SOL    HW2 9705   3.111   6.193   1.769  0.3013  0.9357  0.3648
 3152SOL     OW 9706   2.474   3.097   2.220 -0.0390  0.8087 -0.3701
 3152SOL    HW1 9707   2.379   3.097   2.214 -0.0902 -1.2901 -0.0358
 3152SOL    HW2 9708   2.502   3.014   2.181  1.6395  1.2029 -0.1129
 3153SOL     OW 9709   5.580   0.749   2.959  0.0895 -0.2826  0.1876
 3153SOL    HW1 9710   5.644   0.750   2.888 -1.0582 -1.8726 -0.9728
 3153SOL    HW2 9711   5.542   0.837   2.958 -0.1955 -0.3773 -1.5237
 3154SOL     OW 9712   4.693   1.926   4.897  0.0624  0.3852 -0.2355
 3154SOL    HW1 9713   4.691   1.857   4.964 -2.3096 -0.2038 -0.8041
 3154SOL    HW2 9714   4.645   1.999   4.936 -1.4056  0.0105 -1.2235
 3155SOL     OW 9715   2.339   3.877   4.784 -0.0542 -0.0969 -0.4236
 3155SOL    HW1 9716   2.291   3.849   4.706  0.3184  1.3747 -1.2120
 3155SOL    HW2 9717   2.379   3.961   4.760  1.0898 -0.1995  0.9444
 3156SOL     OW 9718   1.908   0.369   4.950 -0.0891  0.0031 -0.5772
 3156SOL    HW1 9719   1.953   0.408   4.875  1.6781 -1.6844 -0.4850
 3156SOL    HW2 9720   1.815   0.384   4.933  0.3342  0.8405 -2.4113
 3157SOL     OW 9721   2.809   4.671   0.272 -0.3223 -0.1368  0.4489
 3157SOL    HW1 9722   2.842   4.659   0.361  1.4947 -1.5527 -0.3732
 3157SOL    HW2 9723   2.790   4.583   0.240  1.2113  0.1087 -1.3329
 3158SOL     OW 9724   0.603   5.803   4.120  0.6462 -0.1057 -0.0479
 3158SOL    HW1 9725   0.681   5.761   4.085  1.9829  1.9838  0.2128
 3158SOL    HW2 9726   0.628   5.830   4.208  0.5277  2.6277 -0.7468
 3159SOL     OW 9727   1.902   1.783   4.183  0.0794  0.3339 -0.2984
 3159SOL    HW1 9728   1.817   1.823   4.203 -0.3868 -0.7120 -0.1237
 3159SOL    HW2 9729   1.932   1.829   4.104 -0.8885  0.3769 -0.6573
 3160SOL     OW 9730   3.539   0.333   1.100  0.1046 -0.7291 -0.0813
 3160SOL    HW1 9731   3.632   0.317   1.118  0.4188  0.6604 -0.3378
 3160SOL    HW2 9732   3.503   0.359   1.185  0.1681 -0.3688 -0.1613
 3161SOL     OW 9733   6.101   4.874   3.255 -0.5380 -0.3387 -0.2044
 3161SOL    HW1 9734   6.104   4.791   3.303  0.3625  0.2169  0.7300
 3161SOL    HW2 9735   6.178   4.922   3.285 -1.1405  0.9110 -0.5940
 3162SOL     OW 9736   3.808   2.830   5.040  0.3013  0.1451  0.0350
 3162SOL    HW1 9737   3.759   2.848   4.959 -0.6884  0.1277  0.6111
 3162SOL    HW2 9738   3.774   2.745   5.069  2.3002 -0.9835 -0.7269
 3163SOL     OW 9739   0.551   6.266   4.817 -0.1418 -0.3011 -0.2627
 3163SOL    HW1 9740   0.468   6.234   4.779 -0.3476  0.4968 -0.4985
 3163SOL    HW2 9741   0.527   6.298   4.904 -0.0683 -0.1414 -0.3006
 3164SOL     OW 9742   4.767   1.083   1.343 -0.6184  0.3544 -0.1304
 3164SOL    HW1 9743   4.856   1.066   1.372 -0.8562 -0.1813  0.3019
 3164SOL    HW2 9744   4.714   1.078   1.423 -0.8080  2.4397 -0.0767
 3165SOL     OW 9745   4.404   1.630   2.784 -0.1154 -0.3953  0.4261
 3165SOL    HW1 9746   4.389   1.724   2.789  0.0983 -0.3531  0.2618
 3165SOL    HW2 9747   4.377   1.605   2.696  0.4667 -0.3742  0.2405
 3166SOL     OW 9748   5.739   5.861   2.475 -0.0448 -0.9876  0.6427
 3166SOL    HW1 9749   5.818   5.906   2.506  0.5070 -2.5717  1.6498
 3166SOL    HW2 9750   5.739   5.778   2.521 -1.2629 -1.8596 -0.8406
 3167SOL     OW 9751   1.128   2.060   4.105 -0.1653  0.1288  0.4879
 3167SOL    HW1 9752   1.195   2.040   4.170 -1.6611 -0.6117  1.8764
 3167SOL    HW2 9753   1.091   1.974   4.082 -0.1214  0.4491 -0.8689
 3168SOL     OW 9754   5.531   6.101   5.906 -0.4237 -0.0112 -0.4986
 3168SOL    HW1 9755   5.593   6.119   5.976  0.1162 -0.4923 -0.8488
 3168SOL    HW2 9756   5.472   6.177   5.906  0.9415  1.0855 -1.0209
 3169SOL     OW 9757   5.481   2.758   2.632  0.0765  0.0126  0.1706
 3169SOL    HW1 9758   5.440   2.811   2.564 -0.2040  0.0988  0.4045
 3169SOL    HW2 9759   5.453   2.669   2.613  0.6453 -0.0718 -0.2927
 3170SOL     OW 9760   2.696   1.738   1.002  0.2375  0.1660 -0.8476
 3170SOL    HW1 9761   2.607   1.764   0.978 -0.3903 -0.3160  0.7897
 3170SOL    HW2 9762   2.723   1.677   0.934 -0.3904  0.8863 -1.7644
 3171SOL     OW 9763   1.822   4.065   0.984  0.7535 -0.7465  0.5162
 3171SOL    HW1 9764   1.876   3.994   1.020 -0.2452 -1.6739  0.2415
 3171SOL    HW2 9765   1.865   4.088   0.902  1.6988 -0.2678  1.1310
 3172SOL     OW 9766   6.257   6.304   1.463 -0.5297  0.0705 -0.7221
 3172SOL    HW1 9767   6.309   6.384   1.457 -0.3556  0.0450  0.2844
 3172SOL    HW2 9768   6.168   6.332   1.446 -0.2769  0.2265 -1.8148
 3173SOL     OW 9769   5.769   1.538   5.236  0.5885  0.9269 -0.2407
 3173SOL    HW1 9770   5.856   1.502   5.218 -0.0342 -1.6858  1.4352
 3173SOL    HW2 9771   5.744   1.499   5.319 -1.9809  2.0502 -0.4038
 3174SOL     OW 9772   3.783   1.951   4.264 -0.1907 -0.3094 -0.3646
 3174SOL    HW1 9773   3.744   1.945   4.176 -0.3608 -0.3720 -0.2859
 3174SOL    HW2 9774   3.732   2.018   4.308 -0.3050 -0.4968 -0.2119
 3175SOL     OW 9775   1.237   5.448   5.302 -0.1641 -0.0685 -0.3780
 3175SOL    HW1 9776   1.296   5.450   5.377  1.8035 -1.8807 -1.7402
 3175SOL    HW2 9777   1.238   5.537   5.268 -0.3445  0.5459  1.1723
 3176SOL     OW 9778   3.743   0.503   1.427 -0.7329 -0.0971  0.2574
 3176SOL    HW1 9779   3.826   0.473   1.465 -0.5824 -0.2578 -0.2012
 3176SOL    HW2 9780   3.753   0.598   1.420 -0.3637 -0.1783 -0.3380
 3177SOL     OW 9781   3.905   5.859   1.842  0.1565 -0.6711  0.2864
 3177SOL    HW1 9782   3.855   5.885   1.765  0.3472  1.2879  0.7802
 3177SOL    HW2 9783   3.842   5.858   1.914  0.7635  2.0362  0.9575
 3178SOL     OW 9784   3.481   1.484   3.689 -0.8837 -0.1339 -0.0398
 3178SOL    HW1 9785   3.396   1.443   3.704 -0.4746 -0.8884  0.2408
 3178SOL    HW2 9786   3.459   1.575   3.667 -1.7835 -0.4025 -0.3411
 3179SOL     OW 9787   0.592   1.645   2.682  0.3017 -0.7152 -0.4805
 3179SOL    HW1 9788   0.522   1.581   2.669  0.6058 -1.3474  0.7940
 3179SOL    HW2 9789   0.649   1.605   2.748  0.3700  0.9751  0.5446
 3180SOL     OW 9790   1.107   1.177   0.585 -0.2156  0.1880 -0.4936
 3180SOL    HW1 9791   1.042   1.107   0.574  0.3176 -0.3127 -0.5358
 3180SOL    HW2 9792   1.080   1.245   0.524  0.3417 -0.7890 -1.8853
 3181SOL     OW 9793   4.300   2.278   1.483 -0.5845  0.2268  0.4066
 3181SOL    HW1 9794   4.252   2.289   1.401  1.8723 -2.6822 -1.5939
 3181SOL    HW2 9795   4.334   2.366   1.502 -1.4972  1.0484 -1.4471
 3182SOL     OW 9796   5.237   5.029   6.208  0.1930  0.5310 -0.2479
 3182SOL    HW1 9797   5.143   5.023   6.221  0.2144  1.0891  0.2044
 3182SOL    HW2 9798   5.265   4.939   6.195 -0.5942  0.4815 -1.8049
 3183SOL     OW 9799   1.428   1.493   0.699 -0.6864  0.2252  0.1497
 3183SOL    HW1 9800   1.436   1.479   0.605  1.5969 -1.9285  0.5453
 3183SOL    HW2 9801   1.447   1.586   0.712  0.7320  0.1776 -1.3767
 3184SOL     OW 9802   1.996   4.821   4.273  0.4973 -0.1139  0.1966
 3184SOL    HW1 9803   1.996   4.756   4.343 -1.2929  0.7998  1.1115
 3184SOL    HW2 9804   1.951   4.778   4.200 -0.6619  0.0520  0.7916
 3185SOL     OW 9805   1.614   4.429   1.150  0.4334  0.2071 -0.4048
 3185SOL    HW1 9806   1.671   4.352   1.156 -0.1171 -0.1857 -0.1554
 3185SOL    HW2 9807   1.526   4.395   1.166  0.2552  0.9934  0.3059
 3186SOL     OW 9808   5.180   3.887   4.136  0.0204  0.3731  0.3298
 3186SOL    HW1 9809   5.148   3.876   4.046  0.2791 -1.6040  0.4276
 3186SOL    HW2 9810   5.270   3.920   4.125  0.7882 -1.7300 -0.2777
 3187SOL     OW 9811   0.981   3.963   2.989 -0.2994  0.0906 -0.4558
 3187SOL    HW1 9812   1.004   3.913   2.910  0.5466 -0.6953  0.2779
 3187SOL    HW2 9813   0.991   4.055   2.963 -0.1519 -0.1540 -1.2959
 3188SOL     OW 9814   5.630   3.977   3.357 -0.4363  0.1146 -0.4907
 3188SOL    HW1 9815   5.594   4.064   3.337 -0.9191  0.1596  0.5007
 3188SOL    HW2 9816   5.660   3.985   3.447  0.5415 -0.4292 -0.7657
 3189SOL     OW 9817   1.532   0.316   2.162  0.1544  0.1616 -0.3183
 3189SOL    HW1 9818   1.457   0.375   2.161  1.0668  1.3604 -1.8377
 3189SOL    HW2 9819   1.517   0.256   2.090  0.1343 -0.3026  0.0658
 3190SOL     OW 9820   3.141   0.493   5.920  0.2600  0.4332 -0.1385
 3190SOL    HW1 9821   3.236   0.500   5.914  0.3927 -0.3808  0.6936
 3190SOL    HW2 9822   3.112   0.480   5.830  0.9149  0.8101 -0.4166
 3191SOL     OW 9823   0.544   6.157   4.352 -0.0894  0.6942  0.2302
 3191SOL    HW1 9824   0.611   6.225   4.348 -0.2894  0.8465 -1.0087
 3191SOL    HW2 9825   0.592   6.075   4.343  0.1168  0.6659  1.3889
 3192SOL     OW 9826   5.661   5.777   6.044  0.0055 -0.0453  0.0310
 3192SOL    HW1 9827   5.669   5.685   6.021 -0.2105  0.0601 -0.4808
 3192SOL    HW2 9828   5.576   5.784   6.088 -0.3984  0.0735 -0.7626
 3193SOL     OW 9829   6.048   3.161   0.403 -0.3729 -0.6810 -0.2438
 3193SOL    HW1 9830   6.079   3.071   0.411 -1.3932 -1.0992 -0.8361
 3193SOL    HW2 9831   5.984   3.158   0.331 -0.0586  0.6071 -0.5996
 3194SOL     OW 9832   4.166   3.921   1.261 -0.6002  0.9422 -0.5660
 3194SOL    HW1 9833   4.085   3.872   1.255 -0.6825  0.9927  0.0244
 3194SOL    HW2 9834   4.234   3.862   1.229 -0.5577  0.0806  1.0262
 3195SOL     OW 9835   3.822   1.651   0.946 -0.8250  0.5306  0.4178
 3195SOL    HW1 9836   3.749   1.654   0.884 -1.3980 -0.1802  1.0426
 3195SOL    HW2 9837   3.822   1.561   0.979  1.0101  0.2115 -0.3510
 3196SOL     OW 9838   4.810   2.069   0.465  0.4750  0.4911 -0.0559
 3196SOL    HW1 9839   4.857   2.131   0.410 -0.6472  0.7832 -0.7251
 3196SOL    HW2 9840   4.746   2.122   0.512  1.5705  0.2800  1.7426
 3197SOL     OW 9841   1.656   1.267   1.928 -0.6618  0.3168  0.1515
 3197SOL    HW1 9842   1.586   1.332   1.920  0.8768  1.8557 -1.7409
 3197SOL    HW2 9843   1.663   1.229   1.840  0.7217  0.0510  0.3589
 3198SOL     OW 9844   1.709   4.844   6.147  0.3619 -0.2610 -0.2997
 3198SOL    HW1 9845   1.648   4.869   6.077  1.3678  1.9059 -0.4930
 3198SOL    HW2 9846   1.719   4.749   6.138 -2.1823 -0.5286 -0.8756
 3199SOL     OW 9847   4.573   6.196   2.321  0.5898  0.1408 -0.4825
 3199SOL    HW1 9848   4.591   6.136   2.248 -0.0417  0.1120 -0.6210
 3199SOL    HW2 9849   4.594   6.145   2.399  2.1332  0.4661 -0.6544
 3200SOL     OW 9850   6.064   1.119   3.919  0.6278 -0.1349 -0.1077
 3200SOL    HW1 9851   6.047   1.203   3.961  0.2663 -0.7114  0.9406
 3200SOL    HW2 9852   6.157   1.122   3.897  0.2182  1.2984 -1.8875
 3201SOL     OW 9853   5.627   4.377   3.033  0.3271  0.1701  0.2509
 3201SOL    HW1 9854   5.676   4.314   2.980  2.0675  0.7910  1.0430
 3201SOL    HW2 9855   5.694   4.419   3.088 -1.2847  0.0526  2.4395
 3202SOL     OW 9856   2.282   5.755   4.670  0.1003 -0.4802 -0.3261
 3202SOL    HW1 9857   2.331   5.766   4.588  0.2777 -2.1614 -0.4966
 3202SOL    HW2 9858   2.205   5.704   4.644 -0.6216  0.2646  0.3173
 3203SOL     OW 9859   1.607   0.826   5.188  0.4653 -0.3597 -0.6262
 3203SOL    HW1 9860   1.552   0.862   5.118  0.1767 -1.0095 -0.7422
 3203SOL    HW2 9861   1.687   0.880   5.186  0.0691  0.2261 -0.8315
 3204SOL     OW 9862   1.894   1.449   6.270  0.0098 -0.3017  0.0067
 3204SOL    HW1 9863   1.863   1.382   6.209  0.7227 -0.7499  0.1289
 3204SOL    HW2 9864   1.987   1.430   6.281  0.0911  0.3615  0.4892
 3205SOL     OW 9865   4.513   3.851   2.295  0.3339 -0.5247 -0.1420
 3205SOL    HW1 9866   4.420   3.858   2.273  0.0271  0.5371  1.3653
 3205SOL    HW2 9867   4.518   3.772   2.350  0.2161 -0.2668  0.2444
 3206SOL     OW 9868   2.431   1.468   3.399 -0.3929 -0.3559  0.5024
 3206SOL    HW1 9869   2.451   1.407   3.470 -0.0489  0.7804  1.4187
 3206SOL    HW2 9870   2.509   1.524   3.393 -0.7031 -0.0005 -0.3140
 3207SOL     OW 9871   5.294   1.872   3.304 -0.6858 -0.4427  0.0720
 3207SOL    HW1 9872   5.385   1.903   3.307 -0.9203  0.3212 -0.4421
 3207SOL    HW2 9873   5.242   1.947   3.332 -1.1977 -0.6678 -0.2578
 3208SOL     OW 9874   4.744   5.136   2.284  0.4644  0.3415 -0.1592
 3208SOL    HW1 9875   4.682   5.196   2.324 -0.3956 -0.1295 -0.7474
 3208SOL    HW2 9876   4.723   5.050   2.322  0.7125  0.1674 -0.4077
 3209SOL     OW 9877   6.018   1.591   4.574  0.5948  0.0271 -0.4209
 3209SOL    HW1 9878   6.073   1.640   4.512  0.6037 -0.6353 -0.9467
 3209SOL    HW2 9879   6.061   1.506   4.582 -0.0048 -0.2753 -0.3492
 3210SOL     OW 9880   1.784   3.948   4.273 -0.0113 -0.3879 -0.2973
 3210SOL    HW1 9881   1.790   3.976   4.181  0.0454  1.4049  0.2167
 3210SOL    HW2 9882   1.696   3.974   4.300 -0.0122 -0.8721  0.1804
 3211SOL     OW 9883   4.118   0.971   1.012  0.0968  0.2052 -1.3533
 3211SOL    HW1 9884   4.208   0.948   0.992  0.7598  0.2129  1.2720
 3211SOL    HW2 9885   4.124   1.058   1.052 -0.3735 -1.4926  2.9095
 3212SOL     OW 9886   0.138   5.306   2.528 -0.1955 -0.6072 -0.4163
 3212SOL    HW1 9887   0.075   5.300   2.600  0.2062 -2.3370 -0.1470
 3212SOL    HW2 9888   0.179   5.392   2.538 -1.4868 -0.0531  0.2612
 3213SOL     OW 9889   2.202   0.625   6.139  0.1178  0.8215  0.4457
 3213SOL    HW1 9890   2.198   0.667   6.053 -1.7086  0.9725  0.5591
 3213SOL    HW2 9891   2.291   0.592   6.146  0.4099  1.1481 -1.3493
 3214SOL     OW 9892   3.611   5.681   6.196 -0.2230  0.2114 -0.8154
 3214SOL    HW1 9893   3.557   5.623   6.142 -0.6156  0.5437 -0.7898
 3214SOL    HW2 9894   3.667   5.726   6.132  0.9174 -1.0366 -0.7277
 3215SOL     OW 9895   0.937   2.473   0.843  0.8819 -0.3014 -0.2732
 3215SOL    HW1 9896   1.024   2.448   0.810  1.1828 -0.8421  0.8833
 3215SOL    HW2 9897   0.876   2.438   0.778  1.3895 -2.5790  0.3598
 3216SOL     OW 9898   2.548   5.149   5.680  0.8487  0.6982  0.4014
 3216SOL    HW1 9899   2.551   5.098   5.599  0.4488  1.7096 -0.2673
 3216SOL    HW2 9900   2.576   5.237   5.654 -0.2476  1.2928  1.1411
 3217SOL     OW 9901   1.995   2.660   2.921 -0.1486  0.0001  0.5785
 3217SOL    HW1 9902   2.043   2.703   2.991 -0.3793  1.2255  0.0050
 3217SOL    HW2 9903   2.056   2.658   2.847  0.0923 -1.2783  0.7933
 3218SOL     OW 9904   4.815   3.805   3.152 -0.0554 -0.1419  0.1627
 3218SOL    HW1 9905   4.777   3.874   3.207 -0.3429  0.1865 -0.4396
 3218SOL    HW2 9906   4.740   3.750   3.129  0.2998 -1.1759  1.3500
 3219SOL     OW 9907   0.514   2.972   5.534 -0.2606 -0.2040  0.3033
 3219SOL    HW1 9908   0.472   3.029   5.469 -0.6296 -0.2902  0.4629
 3219SOL    HW2 9909   0.466   2.990   5.615  0.4894  0.2455  0.6659
 3220SOL     OW 9910   1.937   3.881   0.615  0.2664 -0.2059 -0.4831
 3220SOL    HW1 9911   1.925   3.976   0.617  0.1689 -0.2100 -0.9182
 3220SOL    HW2 9912   1.849   3.845   0.625  0.4002 -0.2650  0.6625
 3221SOL     OW 9913   4.145   2.989   4.775  0.0410  0.4906  0.3026
 3221SOL    HW1 9914   4.165   2.897   4.757 -0.0542  0.5692 -0.2018
 3221SOL    HW2 9915   4.153   2.997   4.871  1.3682  0.2628  0.2363
 3222SOL     OW 9916   3.952   3.480   1.731 -0.6955 -0.5099  0.5846
 3222SOL    HW1 9917   4.012   3.442   1.795  0.8171 -0.3386 -0.6839
 3222SOL    HW2 9918   3.968   3.574   1.736 -0.9650 -0.4508  0.3402
 3223SOL     OW 9919   0.840   4.949   3.075 -0.1179  0.1176  0.2250
 3223SOL    HW1 9920   0.762   4.991   3.039 -0.6043 -1.3584 -0.5158
 3223SOL    HW2 9921   0.911   5.011   3.056 -0.8547  0.7530 -0.5366
 3224SOL     OW 9922   4.568   4.618   1.317 -0.1103  0.1949  0.9276
 3224SOL    HW1 9923   4.564   4.701   1.269 -0.4882 -0.8236 -0.8537
 3224SOL    HW2 9924   4.639   4.631   1.380 -0.6049  2.1074  1.1661
 3225SOL     OW 9925   5.252   3.154   1.550 -0.1285 -0.3501 -0.2623
 3225SOL    HW1 9926   5.198   3.191   1.620 -0.5647 -3.8246  1.4931
 3225SOL    HW2 9927   5.342   3.164   1.580 -0.2732 -1.1458  0.4628
 3226SOL     OW 9928   4.133   3.835   3.019 -0.0137  0.0341  0.3325
 3226SOL    HW1 9929   4.126   3.875   3.106 -0.1640  0.6263  0.0552
 3226SOL    HW2 9930   4.174   3.903   2.965 -0.2359 -0.2021 -0.1369
 3227SOL     OW 9931   2.855   5.308   4.486  0.5403  0.6081 -0.2991
 3227SOL    HW1 9932   2.777   5.336   4.437  0.7288 -0.3571 -1.1764
 3227SOL    HW2 9933   2.876   5.222   4.451  2.1167  0.9211 -0.1874
 3228SOL     OW 9934   5.085   0.738   2.092  0.3658  0.1286 -0.0522
 3228SOL    HW1 9935   5.120   0.651   2.115 -0.7221 -0.4568 -0.5199
 3228SOL    HW2 9936   5.083   0.739   1.997  0.3564  0.6649 -0.0474
 3229SOL     OW 9937   4.387   5.378   3.790 -0.2792  0.1439  0.2309
 3229SOL    HW1 9938   4.358   5.369   3.881 -0.0263  1.5726  0.4761
 3229SOL    HW2 9939   4.416   5.290   3.765  0.3969 -0.1067  1.7868
 3230SOL     OW 9940   1.567   5.906   0.980  0.2740  0.1133  0.3061
 3230SOL    HW1 9941   1.617   5.826   0.994 -1.0229 -0.5515  1.3810
 3230SOL    HW2 9942   1.485   5.877   0.939 -0.2159  0.8760  0.7035
 3231SOL     OW 9943   1.458   5.234   0.801 -0.3405 -0.2334  0.1071
 3231SOL    HW1 9944   1.468   5.191   0.886 -1.9069 -0.8623  0.0119
 3231SOL    HW2 9945   1.466   5.163   0.737 -3.3026 -0.5700 -0.0354
 3232SOL     OW 9946   2.409   1.660   2.681 -0.5132 -0.2617 -0.1681
 3232SOL    HW1 9947   2.331   1.714   2.693 -1.5595 -1.9070  0.7967
 3232SOL    HW2 9948   2.421   1.615   2.764  2.5074  1.1601  0.3336
 3233SOL     OW 9949   5.850   0.402   5.516  0.3119  0.0613 -0.7404
 3233SOL    HW1 9950   5.781   0.452   5.559  0.1169  0.2539 -1.2667
 3233SOL    HW2 9951   5.920   0.465   5.501  0.7168 -0.1931  0.0286
 3234SOL     OW 9952   2.786   3.824   0.623  0.5238 -0.1041  0.7679
 3234SOL    HW1 9953   2.795   3.754   0.558  0.7788 -0.0493  0.7431
 3234SOL    HW2 9954   2.876   3.843   0.651  0.4819  0.3928  0.5795
 3235SOL     OW 9955   0.094   6.204   1.170  0.0128 -0.1013  0.1723
 3235SOL    HW1 9956   0.019   6.200   1.231 -1.8832 -0.1719 -2.0138
 3235SOL    HW2 9957   0.058   6.175   1.086  2.1801  1.2152 -1.3172
 3236SOL     OW 9958   5.583   0.370   1.337  0.2871 -0.3044 -0.7588
 3236SOL    HW1 9959   5.650   0.438   1.332 -1.1459  1.3550  0.9783
 3236SOL    HW2 9960   5.517   0.397   1.274  0.0504 -0.4882 -0.5918
 3237SOL     OW 9961   0.188   2.248   0.973  0.1416  0.2554  0.3079
 3237SOL    HW1 9962   0.204   2.342   0.963  1.1047 -0.0797 -2.4692
 3237SOL    HW2 9963   0.273   2.212   0.999  0.2227 -0.0026 -0.2920
 3238SOL     OW 9964   2.016   5.947   5.226  0.0822  0.1980  0.0760
 3238SOL    HW1 9965   2.089   5.904   5.182 -0.4727 -2.1209  1.2677
 3238SOL    HW2 9966   2.050   6.032   5.251  1.5807  0.1256 -1.4930
 3239SOL     OW 9967   0.471   6.145   2.211 -0.3762 -0.0221  0.0685
 3239SOL    HW1 9968   0.492   6.227   2.165 -0.6654 -0.2403 -0.4573
 3239SOL    HW2 9969   0.492   6.164   2.303  0.7982  0.2134 -0.2369
 3240SOL     OW 9970   4.163   4.456   5.883  0.5794 -0.1067 -0.6967
 3240SOL    HW1 9971   4.250   4.434   5.917  0.2327 -0.3837  0.0194
 3240SOL    HW2 9972   4.155   4.550   5.897  0.0285 -0.3749  0.9791
 3241SOL     OW 9973   2.099   6.115   5.947 -0.4932  0.1658 -0.0585
 3241SOL    HW1 9974   2.049   6.084   5.872 -0.0449  1.1123 -0.7656
 3241SOL    HW2 9975   2.175   6.056   5.951 -1.7457 -1.4639  1.2023
 3242SOL     OW 9976   4.427   1.962   1.332  0.6276 -0.4707 -0.7011
 3242SOL    HW1 9977   4.369   1.962   1.408  1.3269 -2.4897 -0.0918
 3242SOL    HW2 9978   4.381   1.907   1.268  1.1497 -0.8312 -0.7761
 3243SOL     OW 9979   5.925   1.376   2.394  0.0262 -0.5184 -0.0056
 3243SOL    HW1 9980   5.903   1.439   2.325  0.9187 -0.3617 -0.1558
 3243SOL    HW2 9981   5.939   1.294   2.348  1.2406 -0.2756 -0.1072
 3244SOL     OW 9982   4.581   1.089   4.384  0.6598 -0.4828 -0.3713
 3244SOL    HW1 9983   4.573   1.185   4.380 -2.3506 -0.5128  1.4858
 3244SOL    HW2 9984   4.671   1.074   4.411  0.6534  1.9837  1.4166
 3245SOL     OW 9985   0.640   6.184   3.906 -0.4338  0.3780  0.5587
 3245SOL    HW1 9986   0.694   6.144   3.975 -1.3302 -1.5654  0.1951
 3245SOL    HW2 9987   0.612   6.268   3.943 -0.9429 -0.6376  2.6243
 3246SOL     OW 9988   3.121   3.870   4.077 -0.2389 -0.3481 -0.0578
 3246SOL    HW1 9989   3.032   3.903   4.077 -0.9259 -1.5796 -4.2786
 3246SOL    HW2 9990   3.111   3.775   4.090  0.1294 -0.7708 -2.3912
 3247SOL     OW 9991   2.986   1.608   5.236  0.5411  0.2572 -0.6081
 3247SOL    HW1 9992   2.990   1.522   5.194  1.0703  0.9516 -2.0524
 3247SOL    HW2 9993   2.992   1.590   5.329 -1.2013 -1.4016 -0.7464
 3248SOL     OW 9994   1.489   5.414   1.068 -0.3112 -0.1381  0.3705
 3248SOL    HW1 9995   1.475   5.503   1.101 -2.2228 -0.2710  0.0098
 3248SOL    HW2 9996   1.409   5.393   1.020  1.6949 -0.5517 -3.1317
 3249SOL     OW 9997   1.254   4.785   1.144  0.3090 -0.3728  0.9324
 3249SOL    HW1 9998   1.224   4.872   1.115 -1.7417 -1.9228 -2.1065
 3249SOL    HW2 9999   1.349   4.788   1.132  0.3411  1.5292  1.2782
 3250SOL     OW10000   4.499   3.468   1.900  0.1656 -0.1098 -0.7018
 3250SOL    HW110001   4.509   3.424   1.984  0.0551  0.0437 -0.6076
 3250SOL    HW210002   4.577   3.524   1.892 -1.6896  3.0483  1.2062
 3251SOL     OW10003   1.827   1.124   5.896 -0.3293  0.4957 -0.6679
 3251SOL    HW110004   1.918   1.142   5.871  0.1078 -2.0623 -1.1979
 3251SOL    HW210005   1.779   1.123   5.813 -0.6090  0.5881 -0.5094
 3252SOL     OW10006   2.540   5.089   2.486 -0.3186 -0.0066  0.6650
 3252SOL    HW110007   2.532   5.184   2.480  1.2410  0.1512  0.4754
 3252SOL    HW210008   2.620   5.069   2.437 -0.3816 -1.3666  1.0715
 3253SOL     OW10009   0.985   3.071   6.114  0.3609  0.0202 -0.2540
 3253SOL    HW110010   0.920   3.044   6.179 -1.2341 -1.3340 -2.2966
 3253SOL    HW210011   1.023   2.989   6.083 -0.1242  0.4621 -2.1791
 3254SOL     OW10012   1.091   5.290   3.616 -0.0472 -0.1006  0.3904
 3254SOL    HW110013   1.157   5.340   3.664  3.1310 -1.3861 -2.2557
 3254SOL    HW210014   1.055   5.352   3.552  1.3099 -0.2193 -0.5337
 3255SOL     OW10015   2.111   6.223   5.273 -0.0603  0.1356 -0.1647
 3255SOL    HW110016   2.204   6.201   5.285 -0.1899 -0.4655 -0.2558
 3255SOL    HW210017   2.086   6.264   5.356 -0.2948 -1.7527  0.7377
 3256SOL     OW10018   0.776   3.640   4.445  0.1756  0.3287  0.9100
 3256SOL    HW110019   0.734   3.593   4.373 -1.2495  0.8688  1.3701
 3256SOL    HW210020   0.854   3.587   4.465 -1.3952 -1.9476  1.4775
 3257SOL     OW10021   2.041   0.828   5.753  0.5866 -0.1712  0.3563
 3257SOL    HW110022   2.123   0.850   5.709  0.9273 -1.0920  0.5075
 3257SOL    HW210023   2.004   0.912   5.778  1.4608  0.2625  0.2360
 3258SOL     OW10024   3.953   1.768   5.506 -0.0210  0.0154  0.3221
 3258SOL    HW110025   3.865   1.735   5.526  0.2041 -0.0274  1.2535
 3258SOL    HW210026   3.942   1.863   5.505 -0.4973 -0.0017 -1.5888
 3259SOL     OW10027   4.271   0.058   0.263 -0.9836 -0.2065 -0.1991
 3259SOL    HW110028   4.276   0.146   0.299  2.3645 -0.2809 -0.2411
 3259SOL    HW210029   4.266   0.001   0.339  0.3440 -0.0938 -0.0036
 3260SOL     OW10030   2.688   1.461   2.857  0.0093  0.4512 -0.3732
 3260SOL    HW110031   2.702   1.468   2.763 -1.8707  2.2707 -0.5905
 3260SOL    HW210032   2.596   1.484   2.869  0.2961  0.5881  1.9576
 3261SOL     OW10033   2.630   3.845   1.489 -0.7495 -0.3522 -0.6306
 3261SOL    HW110034   2.568   3.894   1.435 -0.1370  1.0801 -0.0733
 3261SOL    HW210035   2.625   3.886   1.576 -1.1379 -2.0957  0.2229
 3262SOL     OW10036   6.277   0.384   1.092 -0.1489  0.3974  0.2687
 3262SOL    HW110037   6.205   0.396   1.155  0.0436  1.7087  0.2664
 3262SOL    HW210038   6.294   0.289   1.093 -2.3318 -0.0528 -0.2627
 3263SOL     OW10039   1.997   1.473   0.621  0.2861 -0.7564 -0.4169
 3263SOL    HW110040   2.035   1.385   0.618  0.1314 -0.8227 -0.4461
 3263SOL    HW210041   1.916   1.465   0.572 -0.7249 -1.0772  1.2302
 3264SOL     OW10042   4.251   5.816   4.251 -1.0265  0.2518 -1.0973
 3264SOL    HW110043   4.306   5.750   4.293 -0.7860  0.5470 -0.9420
 3264SOL    HW210044   4.166   5.808   4.294 -0.2764  1.8485  0.8718
 3265SOL     OW10045   6.331   0.397   0.421  0.2867  0.5763  0.3293
 3265SOL    HW110046   6.409   0.341   0.429  0.5375  0.8782  0.0665
 3265SOL    HW210047   6.301   0.409   0.511  0.1645 -0.0701  0.3790
 3266SOL     OW10048   2.492   4.908   2.735  0.3053 -0.1735  0.0975
 3266SOL    HW110049   2.497   4.952   2.820 -1.6677 -0.8491  0.6336
 3266SOL    HW210050   2.510   4.816   2.754 -0.6813 -0.4213 -0.0797
 3267SOL     OW10051   3.195   2.075   6.120 -0.0830  0.0362 -0.4522
 3267SOL    HW110052   3.233   2.133   6.185 -1.3324  0.1513  0.1975
 3267SOL    HW210053   3.193   1.989   6.161 -3.9516  0.6630  1.1129
 3268SOL     OW10054   3.083   3.640   2.249  0.6522 -0.0530  0.3769
 3268SOL    HW110055   2.997   3.621   2.286  1.2091  1.2351  2.5395
 3268SOL    HW210056   3.143   3.584   2.299  1.4371  1.7665  1.5978
 3269SOL     OW10057   5.163   6.255   5.913 -0.2416 -0.4781  0.3236
 3269SOL    HW110058   5.145   6.339   5.954 -0.4246 -0.3098 -0.0911
 3269SOL    HW210059   5.257   6.257   5.895 -0.2145 -0.4322  0.4737
 3270SOL     OW10060   2.297   1.504   4.731 -0.2409 -0.2432 -0.3442
 3270SOL    HW110061   2.204   1.501   4.709 -0.5564 -0.8855  0.9808
 3270SOL    HW210062   2.302   1.558   4.810  1.0043  3.0483 -2.4703
 3271SOL     OW10063   4.424   2.837   1.612  0.0488 -0.2344  0.0668
 3271SOL    HW110064   4.355   2.903   1.622 -1.0842 -1.4127  0.3650
 3271SOL    HW210065   4.495   2.868   1.668 -1.0549 -0.0009  1.4274
 3272SOL     OW10066   4.075   0.631   0.379  0.3278 -0.4473  0.2863
 3272SOL    HW110067   4.086   0.724   0.401 -0.9837 -0.3016  0.3758
 3272SOL    HW210068   4.077   0.629   0.283 -0.5924 -0.1816  0.2495
 3273SOL     OW10069   2.144   0.540   5.269 -1.3226  0.1666 -0.2049
 3273SOL    HW110070   2.092   0.462   5.254  0.1237 -1.0130  0.6466
 3273SOL    HW210071   2.230   0.507   5.296 -0.3657  2.0406 -0.7880
 3274SOL     OW10072   5.729   6.269   4.746 -0.4596  0.1023 -0.1874
 3274SOL    HW110073   5.719   6.348   4.800  0.1536  0.8008 -1.0619
 3274SOL    HW210074   5.797   6.219   4.790 -0.1065  0.5696 -0.1952
 3275SOL     OW10075   4.739   5.689   4.542  0.1006 -0.1298  0.3833
 3275SOL    HW110076   4.705   5.703   4.454 -0.4392 -0.9184  0.4584
 3275SOL    HW210077   4.688   5.616   4.576  1.7749 -1.2987  0.5398
 3276SOL     OW10078   3.564   4.504   4.171 -0.4691 -0.5444 -0.0236
 3276SOL    HW110079   3.472   4.533   4.172 -0.4119 -0.3599  0.0795
 3276SOL    HW210080   3.606   4.559   4.237 -0.1315 -0.1332 -0.5767
 3277SOL     OW10081   1.892   4.784   2.651 -0.1461 -1.1353  0.1161
 3277SOL    HW110082   1.953   4.751   2.586 -1.1062 -2.2917 -0.2401
 3277SOL    HW210083   1.941   4.785   2.733  0.3745 -1.9484 -0.1799
 3278SOL     OW10084   3.660   1.359   3.494  0.0175  0.3765 -0.2754
 3278SOL    HW110085   3.745   1.340   3.534 -0.1672 -0.5226 -0.2903
 3278SOL    HW210086   3.613   1.410   3.560  0.5330  0.8089 -0.2339
 3279SOL     OW10087   2.177   4.514   0.519  0.3715  0.0900  0.1199
 3279SOL    HW110088   2.271   4.527   0.505  0.6302  0.5932  2.0306
 3279SOL    HW210089   2.137   4.598   0.496  0.8482  1.0880  2.5912
 3280SOL     OW10090   3.713   3.387   3.331  0.0442 -0.5054  0.1894
 3280SOL    HW110091   3.714   3.368   3.237 -1.5675 -1.1330  0.2657
 3280SOL    HW210092   3.733   3.303   3.372  0.8755 -0.2015  0.4145
 3281SOL     OW10093   3.160   2.172   0.368  0.5849 -0.0713  0.1717
 3281SOL    HW110094   3.110   2.166   0.287  1.6464  0.3496 -0.5345
 3281SOL    HW210095   3.153   2.086   0.408  0.0910 -0.2944 -0.3989
 3282SOL     OW10096   3.002   3.929   0.796 -0.5772 -0.4647 -0.0212
 3282SOL    HW110097   3.046   3.895   0.718 -2.1916 -1.1890 -0.6648
 3282SOL    HW210098   3.068   3.926   0.864  0.4006 -1.4001 -0.9733
 3283SOL     OW10099   5.542   3.107   4.578  0.4603  0.1368  0.2634
 3283SOL    HW110100   5.524   3.168   4.650  1.9726 -0.4709  1.1967
 3283SOL    HW210101   5.554   3.022   4.621  1.4226 -0.2332 -0.6991
 3284SOL     OW10102   2.261   0.898   5.601 -0.1011 -0.8161 -0.7292
 3284SOL    HW110103   2.318   0.967   5.636  0.2133 -1.5836  0.2800
 3284SOL    HW210104   2.312   0.861   5.528  0.5604 -1.2824 -0.0392
 3285SOL     OW10105   5.322   3.405   4.398  0.7122  0.6734 -0.2992
 3285SOL    HW110106   5.352   3.316   4.383 -2.2962 -0.4201 -0.5989
 3285SOL    HW210107   5.267   3.425   4.323 -0.0146  2.1351  0.5703
 3286SOL     OW10108   0.293   3.176   1.198  0.2394 -0.0428 -0.2315
 3286SOL    HW110109   0.296   3.155   1.104 -1.0178  0.5034 -0.4093
 3286SOL    HW210110   0.366   3.236   1.211  2.0384 -2.0744 -0.3108
 3287SOL     OW10111   5.940   3.016   4.200  0.0617 -0.3686  0.3381
 3287SOL    HW110112   5.855   3.060   4.196  0.1068 -0.2406  0.7482
 3287SOL    HW210113   5.924   2.929   4.164 -0.3828 -0.5614  1.0037
 3288SOL     OW10114   4.343   4.032   1.007 -0.3219  0.1062  0.2950
 3288SOL    HW110115   4.338   4.067   1.096 -2.1880 -0.9496  0.6579
 3288SOL    HW210116   4.413   4.082   0.965 -0.5453  1.7976  1.8325
 3289SOL     OW10117   0.769   1.522   0.898  0.0512 -0.2525  0.3491
 3289SOL    HW110118   0.812   1.521   0.812 -1.0258  1.5959 -0.2466
 3289SOL    HW210119   0.837   1.554   0.958  0.5792 -0.8246  0.0660
 3290SOL     OW10120   0.477   5.139   2.323  0.3577 -0.4775  0.4499
 3290SOL    HW110121   0.419   5.201   2.279 -1.2181 -1.4073  1.1166
 3290SOL    HW210122   0.475   5.166   2.415 -0.9813 -1.8944  0.8949
 3291SOL     OW10123   3.615   1.560   2.658 -0.2543  0.8416  0.1628
 3291SOL    HW110124   3.567   1.489   2.701 -0.0157  0.9172  0.5581
 3291SOL    HW210125   3.573   1.640   2.690 -0.4898  0.8831 -0.2422
 3292SOL     OW10126   1.483   1.134   0.081 -0.3417 -0.3292  0.0057
 3292SOL    HW110127   1.513   1.222   0.104  2.0858 -0.9258 -0.6237
 3292SOL    HW210128   1.481   1.134  -0.015 -1.8375 -0.5141  0.0212
 3293SOL     OW10129   0.045   5.822   5.301 -0.7500  0.4107  0.2169
 3293SOL    HW110130   0.139   5.814   5.286 -0.8386  2.7671 -2.4157
 3293SOL    HW210131   0.028   5.766   5.377  2.6932 -0.3062  0.6245
 3294SOL     OW10132   4.392   6.318   0.033  0.1159  0.4006 -0.6274
 3294SOL    HW110133   4.348   6.344   0.114  0.2718 -0.5730 -0.2149
 3294SOL    HW210134   4.414   6.401  -0.010  1.5432  1.0069  1.1394
 3295SOL     OW10135   6.323   3.006   2.351 -1.2317 -0.1036 -0.4374
 3295SOL    HW110136   6.334   3.066   2.424 -1.2776 -1.2225  0.5143
 3295SOL    HW210137   6.306   3.063   2.276 -0.8172  1.0834  0.3380
 3296SOL     OW10138   2.393   2.384   4.675 -0.5062 -0.0240  0.0657
 3296SOL    HW110139   2.320   2.427   4.630 -0.5998 -0.0418  0.2026
 3296SOL    HW210140   2.353   2.333   4.745 -0.4511 -0.9005 -0.5364
 3297SOL     OW10141   2.121   3.859   5.097 -0.2787 -0.6255 -0.3833
 3297SOL    HW110142   2.211   3.881   5.073 -0.2254 -1.6851 -1.2060
 3297SOL    HW210143   2.092   3.932   5.152  1.0231 -0.1981 -0.2458
 3298SOL     OW10144   5.795   6.098   5.334 -0.2316 -0.2123  0.4656
 3298SOL    HW110145   5.812   6.172   5.392  0.4145 -0.2173  0.2949
 3298SOL    HW210146   5.805   6.021   5.390  0.0558 -0.2048  0.4261
 3299SOL     OW10147   3.303   5.395   4.188 -0.7440 -0.1710 -0.0932
 3299SOL    HW110148   3.360   5.363   4.118 -1.0702  1.3445 -1.1061
 3299SOL    HW210149   3.329   5.345   4.265 -0.6429 -2.1830 -1.3634
 3300SOL     OW10150   3.774   2.806   0.683  0.1712  0.2629  0.7616
 3300SOL    HW110151   3.704   2.870   0.689 -0.2096 -0.1881  1.2247
 3300SOL    HW210152   3.730   2.723   0.667  0.7855  0.4645 -2.7358
 3301SOL     OW10153   3.153   4.299   5.313  0.7660 -0.5056 -0.0200
 3301SOL    HW110154   3.226   4.248   5.348  0.1614 -0.5122  1.2679
 3301SOL    HW210155   3.107   4.332   5.390 -0.9815 -1.0288 -0.7930
 3302SOL     OW10156   2.925   2.666   3.402 -0.3771  0.1900  0.1958
 3302SOL    HW110157   2.896   2.739   3.456  0.5475  0.3586  0.4882
 3302SOL    HW210158   2.959   2.706   3.322  0.5682  0.1353  0.5522
 3303SOL     OW10159   0.221   5.156   4.325 -0.2323  0.1967 -0.6650
 3303SOL    HW110160   0.259   5.197   4.402 -0.6222  0.1443 -0.4398
 3303SOL    HW210161   0.296   5.137   4.268 -0.1301  2.1734 -1.2655
 3304SOL     OW10162   0.628   0.906   2.010 -0.1452  0.0730  0.0950
 3304SOL    HW110163   0.705   0.855   1.982  0.8003  2.1173 -1.2635
 3304SOL    HW210164   0.598   0.950   1.930 -1.3362  1.1142  1.0812
 3305SOL     OW10165   1.632   1.357   4.985  0.1063 -0.4633  0.1637
 3305SOL    HW110166   1.574   1.433   4.985 -1.9423 -1.8950 -1.7078
 3305SOL    HW210167   1.610   1.310   5.065 -1.8035 -1.2646 -0.7776
 3306SOL     OW10168   3.625   4.106   1.530 -0.3262 -0.1245  0.1147
 3306SOL    HW110169   3.586   4.115   1.617 -1.8050 -1.6298 -0.3441
 3306SOL    HW210170   3.565   4.150   1.471  0.4308  0.4788 -0.2238
 3307SOL     OW10171   0.757   4.195   4.130  0.2318 -0.5762 -0.3733
 3307SOL    HW110172   0.772   4.148   4.048  1.9740 -0.0744 -0.3838
 3307SOL    HW210173   0.728   4.282   4.103 -0.6726 -0.8712 -0.3988
 3308SOL     OW10174   6.285   3.984   5.756 -0.8329 -0.5978  0.3094
 3308SOL    HW110175   6.326   3.999   5.670  0.7872 -2.2097  0.7307
 3308SOL    HW210176   6.209   3.930   5.736 -0.3092 -1.2033 -0.1225
 3309SOL     OW10177   2.776   6.173   4.666  0.1152 -0.1044  0.0769
 3309SOL    HW110178   2.820   6.098   4.626  2.0930  1.3152 -0.5722
 3309SOL    HW210179   2.759   6.233   4.593  0.3051  0.8784  0.8070
 3310SOL     OW10180   0.289   2.192   3.341  0.1622  0.1729  0.1930
 3310SOL    HW110181   0.253   2.165   3.256  0.2382 -0.4154  0.3412
 3310SOL    HW210182   0.319   2.110   3.380 -0.1313  0.4047  0.9101
 3311SOL     OW10183   5.646   3.920   3.835 -0.2295 -0.7623  0.5732
 3311SOL    HW110184   5.634   3.997   3.891 -1.0169 -1.7511  1.7984
 3311SOL    HW210185   5.559   3.879   3.831 -0.2163 -0.7274 -1.4109
 3312SOL     OW10186   4.806   0.715   6.163  0.1306 -0.0059 -0.2455
 3312SOL    HW110187   4.871   0.659   6.206  0.8484 -0.5090 -1.9136
 3312SOL    HW210188   4.856   0.764   6.097  0.1079  4.6592  2.7251
 3313SOL     OW10189   1.653   1.999   2.655  0.1290  0.8449  0.3353
 3313SOL    HW110190   1.666   1.962   2.568 -0.0467  1.8453 -0.1217
 3313SOL    HW210191   1.625   1.924   2.709  1.2369  0.0092 -0.2097
 3314SOL     OW10192   4.894   5.451   4.387  0.3602  0.0763  0.2960
 3314SOL    HW110193   4.934   5.508   4.453  2.9605  0.1230 -1.1636
 3314SOL    HW210194   4.890   5.505   4.308  0.2402 -0.8970 -0.3861
 3315SOL     OW10195   1.016   6.267   2.137  0.1433 -0.0173  0.3095
 3315SOL    HW110196   1.047   6.328   2.204 -0.0754  1.0072 -0.4808
 3315SOL    HW210197   1.054   6.301   2.056  0.1726 -1.0608 -0.1226
 3316SOL     OW10198   4.977   3.803   4.595 -0.0949 -0.4631  0.3090
 3316SOL    HW110199   4.943   3.839   4.513  2.3014 -1.0003 -1.0092
 3316SOL    HW210200   5.014   3.878   4.641  0.4728 -0.4702 -0.1249
 3317SOL     OW10201   2.255   6.048   2.501 -0.4034  0.1956  0.5697
 3317SOL    HW110202   2.290   6.060   2.414 -0.5815  1.8271  0.6941
 3317SOL    HW210203   2.327   6.071   2.560 -0.2155 -1.0966  0.8773
 3318SOL     OW10204   5.265   5.571   0.189  0.2114 -0.2222 -0.4400
 3318SOL    HW110205   5.171   5.580   0.202  0.4870  3.0488  0.1588
 3318SOL    HW210206   5.300   5.554   0.277  0.1959 -2.1713 -0.7626
 3319SOL     OW10207   3.024   0.815   0.327 -0.2023  0.1466  0.6667
 3319SOL    HW110208   3.059   0.792   0.413  1.2550 -1.4572 -0.2613
 3319SOL    HW210209   3.071   0.756   0.267 -1.1244  1.2569 -1.2198
 3320SOL     OW10210   4.558   1.880   1.798  0.5018  0.5796 -0.1457
 3320SOL    HW110211   4.472   1.922   1.798 -0.0221 -0.4242 -1.2548
 3320SOL    HW210212   4.539   1.787   1.787  1.7553  0.3821 -0.8170
 3321SOL     OW10213   0.951   5.930   2.717 -0.2427  0.0316  0.2023
 3321SOL    HW110214   0.864   5.947   2.681 -1.0473 -2.4348  0.7455
 3321SOL    HW210215   1.011   5.969   2.654 -1.7059  1.1080 -0.6029
 3322SOL     OW10216   4.665   3.353   2.501  0.4326  0.0469 -0.3499
 3322SOL    HW110217   4.692   3.267   2.470  1.7102 -0.2821  1.5167
 3322SOL    HW210218   4.740   3.410   2.483  0.6020  0.1765  0.7043
 3323SOL     OW10219   1.374   2.644   2.354 -0.8858  0.1253 -0.0077
 3323SOL    HW110220   1.404   2.731   2.381 -1.1328 -0.1055  1.0291
 3323SOL    HW210221   1.279   2.646   2.364 -0.7444 -0.9067  2.0523
 3324SOL     OW10222   0.046   5.660   2.996 -1.4268 -0.1246  0.2713
 3324SOL    HW110223   0.035   5.753   3.014 -1.1481 -0.2307  1.0409
 3324SOL    HW210224   0.029   5.617   3.080 -1.1323 -0.7296  0.0271
 3325SOL     OW10225   0.532   2.165   5.034  0.0316 -0.1127  0.4588
 3325SOL    HW110226   0.443   2.198   5.020  0.2660  0.3418  0.0125
 3325SOL    HW210227   0.536   2.084   4.985  0.1790  0.3825 -0.3560
 3326SOL     OW10228   2.652   4.726   2.233 -0.4055  0.1913  0.1158
 3326SOL    HW110229   2.747   4.717   2.242 -0.4384 -0.5503 -0.2544
 3326SOL    HW210230   2.623   4.644   2.194 -1.2862  0.1432  0.8282
 3327SOL     OW10231   5.377   2.600   6.059  0.0289  0.1558 -0.1558
 3327SOL    HW110232   5.419   2.686   6.060  1.7437 -0.5690 -1.8571
 3327SOL    HW210233   5.286   2.617   6.037  0.4972  1.5149 -1.1717
 3328SOL     OW10234   2.668   3.789   2.189 -0.3191 -0.6296  0.0419
 3328SOL    HW110235   2.658   3.738   2.108  1.8302 -0.2312 -0.5590
 3328SOL    HW210236   2.740   3.746   2.235  0.6047  0.9913  0.1899
 3329SOL     OW10237   0.616   1.706   4.504  0.4300 -0.2339 -0.3883
 3329SOL    HW110238   0.582   1.622   4.534  0.0652 -0.2346 -0.7822
 3329SOL    HW210239   0.552   1.770   4.534  0.3831 -0.1696 -0.6185
 3330SOL     OW10240   5.828   0.390   2.694  0.2145  0.7116 -0.4446
 3330SOL    HW110241   5.906   0.359   2.740 -0.1471 -0.1291 -0.3968
 3330SOL    HW210242   5.782   0.311   2.668  0.4468  1.1498 -2.3440
 3331SOL     OW10243   2.570   0.400   0.766  0.0854  0.1077  0.2695
 3331SOL    HW110244   2.478   0.423   0.755  0.7272  2.5618 -0.5352
 3331SOL    HW210245   2.568   0.312   0.804 -2.5581 -0.0945 -0.1480
 3332SOL     OW10246   4.906   5.797   5.282  0.1705  0.4926  0.2394
 3332SOL    HW110247   5.001   5.808   5.279  0.4269 -1.0385  1.4429
 3332SOL    HW210248   4.893   5.709   5.316 -1.6980  0.5585 -0.1686
 3333SOL     OW10249   4.398   1.933   2.302 -0.0752 -0.4249  0.1044
 3333SOL    HW110250   4.488   1.902   2.309 -0.4223 -1.2161  1.2973
 3333SOL    HW210251   4.344   1.856   2.320 -0.9578  0.5835  2.0870
 3334SOL     OW10252   0.453   1.114   5.288 -0.2629 -0.0520  0.1457
 3334SOL    HW110253   0.374   1.062   5.301 -0.5677  0.4795  0.4703
 3334SOL    HW210254   0.421   1.203   5.274  0.2799  0.1757  0.3155
 3335SOL     OW10255   5.947   0.897   0.597 -0.4288  0.4532 -0.1933
 3335SOL    HW110256   6.002   0.818   0.602 -0.4537  0.4976  1.2994
 3335SOL    HW210257   5.935   0.912   0.503  1.5085  0.0241 -0.5620
 3336SOL     OW10258   1.288   0.233   5.861 -0.3124  0.3891  0.1542
 3336SOL    HW110259   1.300   0.233   5.956  1.7423  0.4752 -0.0725
 3336SOL    HW210260   1.341   0.160   5.830 -1.3628  0.0511 -0.9008
 3337SOL     OW10261   0.775   1.676   5.844  0.0845 -0.2406 -0.4038
 3337SOL    HW110262   0.805   1.710   5.759 -2.6837  2.7250 -0.3953
 3337SOL    HW210263   0.739   1.589   5.823  0.0593  0.1397 -2.1522
 3338SOL     OW10264   4.436   3.094   2.749  0.1348  0.2766 -0.4354
 3338SOL    HW110265   4.436   3.006   2.788 -0.7475  0.3353 -0.2792
 3338SOL    HW210266   4.401   3.151   2.818  1.8317  0.9690 -0.0975
 3339SOL     OW10267   2.120   5.988   4.794 -0.0537  0.3062 -0.2525
 3339SOL    HW110268   2.163   5.942   4.721 -0.4690  0.2343 -0.4508
 3339SOL    HW210269   2.043   5.936   4.813 -0.5411  0.9277 -0.4894
 3340SOL     OW10270   4.087   1.243   5.081 -0.3515 -0.1639 -0.2421
 3340SOL    HW110271   4.103   1.337   5.079 -0.0478 -0.2189 -1.6235
 3340SOL    HW210272   4.133   1.209   5.004 -2.1845 -1.1492 -0.9666
 3341SOL     OW10273   4.245   4.616   2.853 -0.0233 -0.0554 -0.8781
 3341SOL    HW110274   4.336   4.608   2.824 -0.0672  0.3347 -1.1370
 3341SOL    HW210275   4.198   4.641   2.774 -0.2589  0.3422 -0.6119
 3342SOL     OW10276   3.579   3.610   1.442  0.0764  0.1091  0.0445
 3342SOL    HW110277   3.529   3.541   1.398 -1.3521  1.7207 -0.9427
 3342SOL    HW210278   3.670   3.585   1.428 -0.3989 -1.4087 -0.5537
 3343SOL     OW10279   3.005   3.373   3.380 -0.1918 -0.4466  0.5623
 3343SOL    HW110280   3.082   3.356   3.434  0.6869 -0.5032 -0.6749
 3343SOL    HW210281   2.951   3.294   3.389 -0.8389  0.1783  2.5930
 3344SOL     OW10282   3.095   4.396   4.254 -0.5938  0.1403 -0.0934
 3344SOL    HW110283   3.105   4.304   4.228 -0.3911  0.3063 -0.6107
 3344SOL    HW210284   3.057   4.439   4.178 -0.3524  0.5588  0.0165
 3345SOL     OW10285   5.541   2.335   3.998  0.2977  0.1246 -0.7247
 3345SOL    HW110286   5.454   2.366   4.025  0.2326 -0.4903 -0.2031
 3345SOL    HW210287   5.523   2.252   3.954  0.6616 -0.2006 -0.2579
 3346SOL     OW10288   3.354   2.251   2.998 -0.3444 -0.2702 -0.4239
 3346SOL    HW110289   3.314   2.324   3.046  2.7316  0.5107  1.2118
 3346SOL    HW210290   3.381   2.290   2.914 -1.1330 -0.2767 -0.6873
 3347SOL     OW10291   4.320   3.259   4.392  0.0214  0.2298  0.0769
 3347SOL    HW110292   4.258   3.330   4.409  0.6958  0.6990  0.6259
 3347SOL    HW210293   4.315   3.204   4.471  0.8452  0.6823  0.4563
 3348SOL     OW10294   3.135   4.843   2.827 -0.3928 -0.1058  0.1664
 3348SOL    HW110295   3.138   4.899   2.905 -2.2796  0.8346 -0.3811
 3348SOL    HW210296   3.181   4.894   2.760  2.3749 -1.4513  0.8749
 3349SOL     OW10297   4.467   4.455   4.827  0.3400  0.0865 -0.0286
 3349SOL    HW110298   4.412   4.387   4.788  1.6388 -1.6547  1.0422
 3349SOL    HW210299   4.555   4.438   4.792  1.5142 -1.3698  3.2554
 3350SOL     OW10300   1.016   4.677   1.214  0.2758  0.2290 -0.0633
 3350SOL    HW110301   1.090   4.733   1.192  1.9539 -0.4235  3.3259
 3350SOL    HW210302   1.049   4.588   1.203 -0.9295 -0.1254 -1.0830
 3351SOL     OW10303   3.019   2.445   4.962  0.3848 -0.2520  0.0867
 3351SOL    HW110304   3.112   2.425   4.970  0.9630  1.9262 -0.4274
 3351SOL    HW210305   2.988   2.387   4.893  2.0856  0.8974 -1.7635
 3352SOL     OW10306   4.445   1.046   0.139  0.3648  0.1827  0.2169
 3352SOL    HW110307   4.375   1.081   0.194 -0.8987 -0.2975 -1.0226
 3352SOL    HW210308   4.508   1.008   0.200 -1.5410 -1.3581  1.3210
 3353SOL     OW10309   6.165   1.269   3.175 -0.0661 -0.3377  0.0824
 3353SOL    HW110310   6.070   1.257   3.185 -0.0820  0.8814  1.8201
 3353SOL    HW210311   6.176   1.302   3.086 -1.0398 -2.3479 -0.8559
 3354SOL     OW10312   4.839   1.308   3.828 -0.2020  0.4114 -0.4859
 3354SOL    HW110313   4.858   1.402   3.819  0.0793  0.3633 -0.4085
 3354SOL    HW210314   4.822   1.279   3.739  2.0881  0.0396 -0.8470
 3355SOL     OW10315   6.204   1.064   1.614  0.3973  0.0142 -0.5098
 3355SOL    HW110316   6.119   1.027   1.638  1.2149 -1.5780  0.0865
 3355SOL    HW210317   6.196   1.084   1.521 -0.5833 -0.2137 -0.4888
 3356SOL     OW10318   3.098   0.621   0.163  0.3671  0.3235  0.0358
 3356SOL    HW110319   3.055   0.582   0.086 -0.4134  0.2308  0.5088
 3356SOL    HW210320   3.127   0.545   0.214  1.8851  0.3814 -0.6964
 3357SOL     OW10321   0.785   5.862   5.296 -0.3992 -0.7888 -0.1432
 3357SOL    HW110322   0.737   5.876   5.378  0.4528 -0.7149  0.3580
 3357SOL    HW210323   0.721   5.879   5.227 -1.0961 -0.7230  0.5085
 3358SOL     OW10324   4.772   3.654   5.595 -0.0403  0.1822 -0.5553
 3358SOL    HW110325   4.702   3.624   5.537  0.4887  0.3310 -1.2749
 3358SOL    HW210326   4.803   3.574   5.638 -1.3137  0.2341  0.5308
 3359SOL     OW10327   3.675   4.514   5.182  0.0054 -0.3459 -0.1840
 3359SOL    HW110328   3.733   4.467   5.123  0.6339 -1.1298  1.0030
 3359SOL    HW210329   3.716   4.504   5.268 -2.0107 -1.2006  0.7505
 3360SOL     OW10330   4.898   6.327   3.308  0.4321  0.0988  0.4928
 3360SOL    HW110331   4.989   6.324   3.280  0.2176 -0.5803 -0.1589
 3360SOL    HW210332   4.879   6.238   3.337  0.2094  0.4305  1.4250
 3361SOL     OW10333   1.235   1.717   1.893 -0.0630 -0.2206  0.1941
 3361SOL    HW110334   1.270   1.789   1.842 -0.1974 -0.4624 -0.2464
 3361SOL    HW210335   1.239   1.642   1.834  0.6975 -0.7226  0.8652
 3362SOL     OW10336   1.196   2.508   6.254 -0.2483 -0.4572  0.0366
 3362SOL    HW110337   1.103   2.486   6.259 -0.7339  1.5319  1.0568
 3362SOL    HW210338   1.227   2.464   6.176 -1.8557 -1.8348  0.1173
 3363SOL     OW10339   6.296   2.096   5.384  0.1547  0.2112 -0.5846
 3363SOL    HW110340   6.255   2.181   5.401  1.9462  0.9229  0.5096
 3363SOL    HW210341   6.326   2.066   5.470  0.6458 -0.9332 -1.1347
 3364SOL     OW10342   3.236   2.186   5.463  0.3279 -0.3063 -0.3175
 3364SOL    HW110343   3.326   2.217   5.472 -0.2293  1.4069 -0.1716
 3364SOL    HW210344   3.200   2.238   5.391 -0.7714 -0.3804  0.1550
 3365SOL     OW10345   4.563   3.531   3.314 -0.0660 -0.1943 -0.1692
 3365SOL    HW110346   4.484   3.488   3.349  0.1889  0.0713  0.7619
 3365SOL    HW210347   4.633   3.504   3.373  0.4387  0.0527 -0.6461
 3366SOL     OW10348   3.964   1.923   3.675  0.4142 -0.7886 -0.1559
 3366SOL    HW110349   3.965   1.875   3.758  0.0738  0.7986  0.8176
 3366SOL    HW210350   3.877   1.963   3.672  0.8622  0.1890 -0.6475
 3367SOL     OW10351   4.246   3.138   1.904  0.1352  0.0183 -0.0860
 3367SOL    HW110352   4.220   3.220   1.862 -1.2827  0.3489  1.3548
 3367SOL    HW210353   4.287   3.165   1.986  0.4089 -0.6934  0.0207
 3368SOL     OW10354   4.149   1.691   1.315  0.1068 -0.1476  0.6620
 3368SOL    HW110355   4.065   1.720   1.280  0.2904  0.7870  0.9555
 3368SOL    HW210356   4.189   1.640   1.244 -1.5510 -2.3501  1.2090
 3369SOL     OW10357   5.859   6.335   5.464  0.1212 -0.0411 -0.0639
 3369SOL    HW110358   5.907   6.296   5.537 -1.0021 -1.6602 -0.1403
 3369SOL    HW210359   5.820   6.414   5.500 -0.7093 -0.9956  1.2453
 3370SOL     OW10360   2.172   5.122   1.990  0.2220  0.1622  0.1836
 3370SOL    HW110361   2.204   5.187   2.053 -1.1634 -0.0026  1.1060
 3370SOL    HW210362   2.238   5.122   1.920  1.8941  0.2565  1.6784
 3371SOL     OW10363   2.284   2.885   3.678  0.6171  0.9425 -0.1745
 3371SOL    HW110364   2.260   2.903   3.587  1.6786  1.5871 -0.3536
 3371SOL    HW210365   2.326   2.966   3.707  0.3654  0.7075  0.8646
 3372SOL     OW10366   1.810   5.408   0.528  0.2278  0.2299  0.5967
 3372SOL    HW110367   1.838   5.316   0.526  0.4587  0.3043 -1.4216
 3372SOL    HW210368   1.717   5.405   0.550  0.5381 -0.3594  1.9707
 3373SOL     OW10369   5.622   2.753   3.688  0.7365 -0.6761 -0.0459
 3373SOL    HW110370   5.671   2.780   3.766  0.7823 -1.1002  0.0791
 3373SOL    HW210371   5.658   2.805   3.617  0.2824  0.1582  0.3163
 3374SOL     OW10372   5.629   1.939   6.219 -0.0850 -0.3880 -0.4256
 3374SOL    HW110373   5.696   1.961   6.154 -1.8702 -0.0568 -2.2577
 3374SOL    HW210374   5.601   1.850   6.195 -0.8248 -0.2245 -0.1851
 3375SOL     OW10375   2.191   0.509   2.484  0.2485  0.2997  0.3128
 3375SOL    HW110376   2.165   0.592   2.524  2.7538  0.6720  1.3351
 3375SOL    HW210377   2.176   0.521   2.391  0.2301  1.7592  0.4864
 3376SOL     OW10378   5.664   1.254   4.362  0.6619 -0.4680 -0.0585
 3376SOL    HW110379   5.582   1.277   4.405  1.1969  0.7809  0.3345
 3376SOL    HW210380   5.698   1.180   4.413  0.6512  0.1526  0.8635
 3377SOL     OW10381   1.216   4.751   2.143  0.2405  0.4427  0.2345
 3377SOL    HW110382   1.291   4.700   2.112  1.0196  1.3678  0.5324
 3377SOL    HW210383   1.203   4.722   2.233 -0.3683 -0.3899 -0.1137
 3378SOL     OW10384   3.892   2.338   1.413 -0.7083 -0.2237 -0.2410
 3378SOL    HW110385   3.937   2.372   1.491 -0.4574 -1.6036  0.2449
 3378SOL    HW210386   3.875   2.416   1.359  0.6591  0.5460  0.3896
 3379SOL     OW10387   1.914   5.884   5.482 -0.0537 -0.0262 -0.5578
 3379SOL    HW110388   1.915   5.913   5.390  1.0978 -0.6963 -0.7703
 3379SOL    HW210389   1.915   5.789   5.477 -0.3867 -0.0690  0.1545
 3380SOL     OW10390   2.587   1.352   4.204  0.3375  0.1535  0.9314
 3380SOL    HW110391   2.536   1.377   4.281  1.9886  0.5787  1.9072
 3380SOL    HW210392   2.619   1.264   4.223 -2.8222 -1.6871 -1.1714
 3381SOL     OW10393   3.129   5.196   1.498 -0.3240  0.4820  0.0833
 3381SOL    HW110394   3.062   5.262   1.518  0.9871  2.2420 -1.0332
 3381SOL    HW210395   3.209   5.232   1.536  0.1917 -1.1560  0.6189
 3382SOL     OW10396   0.529   1.817   2.254  0.0744 -0.0808 -0.0301
 3382SOL    HW110397   0.564   1.770   2.179  1.1134 -3.2594  2.2381
 3382SOL    HW210398   0.555   1.908   2.239  2.5356 -1.0101 -2.2501
 3383SOL     OW10399   3.523   1.650   1.693 -0.1052  0.1650 -0.2453
 3383SOL    HW110400   3.571   1.648   1.611  0.6662  1.3320  0.1540
 3383SOL    HW210401   3.580   1.605   1.756 -0.0367  0.5661 -0.0196
 3384SOL     OW10402   5.684   1.924   0.471 -0.3637  0.4482 -0.6769
 3384SOL    HW110403   5.675   1.895   0.381  0.3899  2.1508 -1.3363
 3384SOL    HW210404   5.700   2.018   0.465 -1.3477  0.7976  1.2839
 3385SOL     OW10405   0.945   5.721   2.918 -0.0335 -0.4434 -0.3428
 3385SOL    HW110406   0.963   5.810   2.889  2.1316 -0.8712 -0.4931
 3385SOL    HW210407   0.953   5.668   2.839  1.8383 -1.1215  0.2620
 3386SOL     OW10408   3.243   3.322   3.498  0.4441  0.0800  1.0183
 3386SOL    HW110409   3.259   3.415   3.487 -1.0874  0.0314 -3.2270
 3386SOL    HW210410   3.327   3.287   3.529  1.5394  2.6122  1.1350
 3387SOL     OW10411   2.413   1.107   5.676 -0.3415 -0.2219  0.1866
 3387SOL    HW110412   2.473   1.092   5.603  0.2586  0.0299  0.6236
 3387SOL    HW210413   2.469   1.108   5.754 -0.8771  0.3060  0.5715
 3388SOL     OW10414   5.101   3.480   1.154 -0.2171 -0.8392 -0.3187
 3388SOL    HW110415   5.156   3.456   1.079  0.2342 -1.7498  0.2884
 3388SOL    HW210416   5.161   3.487   1.227 -0.4366  1.4801 -0.2794
 3389SOL     OW10417   0.161   3.503   5.457  0.2442  0.1185 -0.4296
 3389SOL    HW110418   0.107   3.426   5.438  0.6829 -0.0954 -0.7990
 3389SOL    HW210419   0.196   3.530   5.373 -2.3255  2.5809 -0.8876
 3390SOL     OW10420   3.500   4.955   5.670  0.6291 -0.7108  0.1360
 3390SOL    HW110421   3.431   5.020   5.685  1.0172 -0.1813 -0.3217
 3390SOL    HW210422   3.554   4.992   5.600  1.2524 -1.2160  0.3298
 3391SOL     OW10423   5.819   5.532   0.665  0.3468 -0.6623 -0.0471
 3391SOL    HW110424   5.900   5.527   0.715  0.0979 -1.1842  0.3072
 3391SOL    HW210425   5.841   5.500   0.578  0.7387  0.0791 -0.2285
 3392SOL     OW10426   1.727   2.591   3.660 -0.0101 -0.1356  0.3112
 3392SOL    HW110427   1.770   2.506   3.662 -0.8246 -0.5657  2.8084
 3392SOL    HW210428   1.633   2.571   3.652 -0.1419  0.5889 -0.1298
 3393SOL     OW10429   4.905   3.815   1.470  0.1691 -0.3008  0.1773
 3393SOL    HW110430   4.812   3.836   1.457  0.1027 -0.3132  0.6305
 3393SOL    HW210431   4.926   3.755   1.398  0.3007  1.1150 -1.0250
 3394SOL     OW10432   4.345   2.153   4.651  0.4241 -0.1221  0.2833
 3394SOL    HW110433   4.319   2.160   4.559  0.1661  2.1051  0.4586
 3394SOL    HW210434   4.436   2.126   4.649  0.4180 -0.0853 -0.6243
 3395SOL     OW10435   3.920   3.190   2.592 -0.4166 -0.3246  0.0843
 3395SOL    HW110436   3.839   3.139   2.584 -0.5180 -0.0311 -0.8490
 3395SOL    HW210437   3.972   3.165   2.516 -0.1005  0.3125  0.0815
 3396SOL     OW10438   3.204   0.128   1.651  0.3111 -0.6193 -0.3480
 3396SOL    HW110439   3.193   0.035   1.672  1.8618 -0.7393  0.0373
 3396SOL    HW210440   3.141   0.173   1.707  1.3095 -1.2645  1.3450
 3397SOL     OW10441   6.115   1.087   0.871 -0.2584  0.8923  0.1749
 3397SOL    HW110442   6.165   1.011   0.841 -0.4361  0.1588  1.6135
 3397SOL    HW210443   6.161   1.162   0.834  0.1586  0.1065 -0.9604
 3398SOL     OW10444   0.612   4.457   2.605  0.0921 -0.1402 -0.0607
 3398SOL    HW110445   0.557   4.535   2.614 -0.3248 -0.3689 -0.5866
 3398SOL    HW210446   0.585   4.401   2.678 -0.7237 -0.4552 -0.5933
 3399SOL     OW10447   2.163   1.407   6.256  0.5108  0.1000 -0.0991
 3399SOL    HW110448   2.240   1.384   6.309  1.0419 -1.2438 -1.4167
 3399SOL    HW210449   2.194   1.404   6.166 -0.8145  0.7202 -0.5970
 3400SOL     OW10450   3.354   4.049   2.518  0.3476 -0.6511 -0.6662
 3400SOL    HW110451   3.326   4.054   2.426  0.8898  0.9693 -0.7580
 3400SOL    HW210452   3.273   4.055   2.568  0.1791 -0.0889 -1.0052
 3401SOL     OW10453   4.475   4.141   0.225 -0.0714 -0.1752  0.2363
 3401SOL    HW110454   4.432   4.056   0.212 -2.0398  0.5066  1.7539
 3401SOL    HW210455   4.508   4.165   0.139 -0.1658 -2.1023 -0.3842
 3402SOL     OW10456   1.899   2.331   4.947  1.0203 -0.3016 -0.3191
 3402SOL    HW110457   1.879   2.241   4.971  0.5483  0.2134  1.2943
 3402SOL    HW210458   1.960   2.361   5.014  0.9267  0.6929 -0.6644
 3403SOL     OW10459   0.591   5.202   6.229 -0.4549 -0.1690  0.5647
 3403SOL    HW110460   0.576   5.296   6.239 -1.0310 -0.3259  1.1936
 3403SOL    HW210461   0.567   5.164   6.313 -0.9148 -0.9645  0.0900
 3404SOL     OW10462   3.843   3.446   4.315  0.3032 -0.2123  0.4400
 3404SOL    HW110463   3.884   3.371   4.273 -0.0273 -0.4402  0.5186
 3404SOL    HW210464   3.890   3.456   4.399  1.9825  1.1661 -0.5874
 3405SOL     OW10465   1.119   4.281   3.587  0.2107 -0.5310 -0.5671
 3405SOL    HW110466   1.036   4.279   3.540  0.3554  0.8001 -0.9023
 3405SOL    HW210467   1.133   4.190   3.614 -2.6144 -0.4203  1.7368
 3406SOL     OW10468   0.702   1.325   4.756 -0.5482 -0.0897 -0.0313
 3406SOL    HW110469   0.616   1.295   4.787 -0.0609  0.4075  1.9181
 3406SOL    HW210470   0.699   1.420   4.765  1.2376 -0.1953  3.2130
 3407SOL     OW10471   4.003   2.081   5.125 -0.5671 -0.0882  0.1630
 3407SOL    HW110472   4.003   2.171   5.156 -1.4869  0.2736 -0.8402
 3407SOL    HW210473   3.919   2.045   5.154 -1.5459  0.3162 -1.9669
 3408SOL     OW10474   1.171   5.028   2.658 -0.7837  0.1515  0.1143
 3408SOL    HW110475   1.190   4.944   2.700  1.3563  0.0453 -0.8916
 3408SOL    HW210476   1.254   5.053   2.617 -1.3841  2.7440  0.3188
 3409SOL     OW10477   2.528   4.204   5.172  0.0051  0.5806 -0.1607
 3409SOL    HW110478   2.616   4.205   5.134 -0.6155  0.2141 -1.7127
 3409SOL    HW210479   2.479   4.142   5.117 -1.4128  1.3286  0.2107
 3410SOL     OW10480   3.989   3.272   4.985 -0.2011  0.5453  0.3205
 3410SOL    HW110481   4.064   3.286   4.926  1.1137 -1.5530  1.3917
 3410SOL    HW210482   3.995   3.180   5.010 -3.2369  0.2737  0.3920
 3411SOL     OW10483   4.992   0.585   2.527  0.2360 -0.3431 -0.3171
 3411SOL    HW110484   5.081   0.617   2.510  0.7691 -1.2004  0.7784
 3411SOL    HW210485   4.938   0.627   2.459  1.4275  0.3754 -0.8442
 3412SOL     OW10486   1.542   0.548   5.186  0.1575  0.0993 -0.1976
 3412SOL    HW110487   1.582   0.511   5.107  1.6128  0.7177  0.2104
 3412SOL    HW210488   1.534   0.642   5.168 -3.7254 -0.2747 -1.3184
 3413SOL     OW10489   6.226   0.887   4.094 -0.1736  0.0067  0.4356
 3413SOL    HW110490   6.261   0.975   4.100  1.6199 -0.4082 -2.1415
 3413SOL    HW210491   6.294   0.831   4.132 -1.4667 -0.2838  2.4186
 3414SOL     OW10492   3.685   4.322   1.047 -0.1488 -0.3040 -0.5269
 3414SOL    HW110493   3.695   4.237   1.090  2.4578 -0.8435 -2.0021
 3414SOL    HW210494   3.693   4.386   1.118  0.6126 -1.2499  0.2614
 3415SOL     OW10495   1.601   0.872   4.174  0.2847 -0.0185  0.3766
 3415SOL    HW110496   1.682   0.826   4.153  0.4343 -0.3413  1.5926
 3415SOL    HW210497   1.536   0.835   4.115  0.7204 -0.7702  0.3579
 3416SOL     OW10498   0.113   0.180   1.424  0.1654 -0.3326  0.5274
 3416SOL    HW110499   0.112   0.273   1.443  0.2861 -0.2362  0.0845
 3416SOL    HW210500   0.188   0.169   1.365 -0.4029 -0.5528 -0.1762
 3417SOL     OW10501   1.135   2.212   5.280  0.1961  0.4717  0.1679
 3417SOL    HW110502   1.181   2.296   5.272  1.8211 -0.3348  0.7167
 3417SOL    HW210503   1.201   2.151   5.313  0.4747 -2.2241 -4.4686
 3418SOL     OW10504   3.707   3.911   0.084 -0.2412  0.3246 -0.2934
 3418SOL    HW110505   3.636   3.851   0.061 -0.3652  0.2473  0.2810
 3418SOL    HW210506   3.669   3.998   0.072 -1.3199  0.3508  2.4327
 3419SOL     OW10507   5.166   4.458   2.095 -0.7915  0.3182  0.1092
 3419SOL    HW110508   5.114   4.459   2.176  2.0561 -0.8202  2.0954
 3419SOL    HW210509   5.205   4.371   2.093 -0.4934  0.4467 -2.3778
 3420SOL     OW10510   5.315   3.220   3.905  0.1371 -0.3187  0.0677
 3420SOL    HW110511   5.281   3.175   3.982  0.2611  0.4265  0.5649
 3420SOL    HW210512   5.251   3.202   3.837 -0.2507 -0.5463  0.4880
 3421SOL     OW10513   3.952   1.595   3.435  0.1944  0.7123  0.3249
 3421SOL    HW110514   3.870   1.641   3.454 -0.0971 -0.1634  1.3022
 3421SOL    HW210515   3.994   1.585   3.521 -0.2487 -1.7148  0.3422
 3422SOL     OW10516   5.566   0.139   5.103 -0.1497 -0.7257  0.3169
 3422SOL    HW110517   5.606   0.053   5.117 -0.1905 -0.8489 -0.2762
 3422SOL    HW210518   5.476   0.119   5.078  0.0084 -0.5393 -0.4149
 3423SOL     OW10519   0.736   5.745   4.812  0.7485 -0.0926  0.0370
 3423SOL    HW110520   0.760   5.688   4.739 -3.2024 -0.3093 -1.3760
 3423SOL    HW210521   0.731   5.833   4.773  1.9872  0.4344  0.9855
 3424SOL     OW10522   0.217   3.099   4.206  0.3683 -0.1581 -0.0813
 3424SOL    HW110523   0.265   3.017   4.217 -0.6975 -0.6314  1.4102
 3424SOL    HW210524   0.164   3.107   4.286 -0.9645  1.0435 -1.0249
 3425SOL     OW10525   2.495   5.384   2.041 -0.2667  0.5203 -0.5695
 3425SOL    HW110526   2.590   5.397   2.044 -0.2958  0.9733 -1.3264
 3425SOL    HW210527   2.481   5.299   2.083  0.3120  1.1513  0.9484
 3426SOL     OW10528   2.334   3.170   1.372 -0.0412 -0.2326  0.3399
 3426SOL    HW110529   2.243   3.198   1.361 -0.2918 -0.9766  0.4888
 3426SOL    HW210530   2.348   3.173   1.467  0.7846  1.9991  0.2107
 3427SOL     OW10531   2.347   0.257   2.671  1.0415  0.3822 -0.4887
 3427SOL    HW110532   2.425   0.210   2.701  0.1514 -0.2653  0.9377
 3427SOL    HW210533   2.369   0.349   2.681  1.3326  0.1949  0.7745
 3428SOL     OW10534   6.225   4.009   2.998 -0.2710 -0.0833 -0.1853
 3428SOL    HW110535   6.199   4.097   3.026 -0.6830 -0.0697 -0.5965
 3428SOL    HW210536   6.321   4.011   2.996 -0.2847  0.4752 -0.5634
 3429SOL     OW10537   4.819   3.100   3.998  0.2893  0.1192  0.4905
 3429SOL    HW110538   4.803   3.050   4.078 -2.0014  1.0468  0.6895
 3429SOL    HW210539   4.856   3.183   4.028  1.3400 -0.2937  0.3878
 3430SOL     OW10540   1.582   0.755   0.336  0.6196  0.2297  0.3840
 3430SOL    HW110541   1.609   0.815   0.406 -1.5715 -1.4647  2.9047
 3430SOL    HW210542   1.540   0.810   0.271 -1.0881  1.5494  2.4785
 3431SOL     OW10543   4.641   3.577   5.989  0.6335  0.0780  0.2801
 3431SOL    HW110544   4.578   3.556   6.058  0.1582  0.3301 -0.0806
 3431SOL    HW210545   4.689   3.653   6.024 -0.1811  0.7392 -0.0273
 3432SOL     OW10546   2.021   3.175   1.359 -0.1862  0.3711 -0.6979
 3432SOL    HW110547   1.992   3.139   1.275 -0.2972  0.2461 -0.6059
 3432SOL    HW210548   1.993   3.266   1.358 -0.8382  0.1772 -0.4872
 3433SOL     OW10549   0.570   3.115   3.344 -0.0794  0.1035 -0.3151
 3433SOL    HW110550   0.528   3.118   3.430 -1.3469  0.3577 -0.9270
 3433SOL    HW210551   0.610   3.028   3.340  0.6410  0.3633  0.8158
 3434SOL     OW10552   6.244   5.521   6.124 -0.1125 -0.0257  0.3149
 3434SOL    HW110553   6.270   5.543   6.035 -1.3949 -0.1376 -0.0968
 3434SOL    HW210554   6.149   5.531   6.126 -0.2360 -1.0767  1.3638
 3435SOL     OW10555   4.595   3.901   1.280  0.1649  0.8076 -0.7628
 3435SOL    HW110556   4.539   3.855   1.217  1.0256  0.9730 -1.6743
 3435SOL    HW210557   4.680   3.906   1.237  1.2714 -0.6057  1.1533
 3436SOL     OW10558   3.416   0.436   2.843  0.6264  0.1356 -0.1356
 3436SOL    HW110559   3.352   0.427   2.913  0.1939  0.7106 -0.4475
 3436SOL    HW210560   3.367   0.474   2.770 -0.1208 -4.4767 -2.4105
 3437SOL     OW10561   1.058   1.559   4.711 -0.2393  1.1896 -0.3846
 3437SOL    HW110562   1.093   1.647   4.721  0.1894  0.8871  0.9710
 3437SOL    HW210563   0.964   1.568   4.729 -0.5083  1.6289 -1.8841
 3438SOL     OW10564   5.908   6.320   4.534 -0.1458 -0.1649 -0.2368
 3438SOL    HW110565   5.840   6.318   4.601  0.5956 -3.4029  0.5875
 3438SOL    HW210566   5.968   6.388   4.564 -0.7597 -0.2940  1.4292
 3439SOL     OW10567   4.693   4.992   6.309 -0.5474  0.0271 -0.4414
 3439SOL    HW110568   4.662   4.952   6.228  0.0482 -2.6195  0.5385
 3439SOL    HW210569   4.667   4.931   6.378  1.2103  0.8764  1.0750
 3440SOL     OW10570   0.858   2.194   5.353  0.2364  0.0463 -0.2766
 3440SOL    HW110571   0.845   2.286   5.376 -1.7852 -0.1842 -0.3568
 3440SOL    HW210572   0.949   2.190   5.323 -0.0924  2.3577 -1.8545
 3441SOL     OW10573   4.606   3.852   1.843  0.7336 -0.7199 -0.3451
 3441SOL    HW110574   4.696   3.827   1.822  0.0901 -3.0495 -0.6352
 3441SOL    HW210575   4.578   3.790   1.910 -0.4597  0.3880  0.2344
 3442SOL     OW10576   6.154   1.367   4.808  0.4694  0.6443  0.3265
 3442SOL    HW110577   6.064   1.371   4.839  0.5606  1.0591  0.5410
 3442SOL    HW210578   6.146   1.341   4.716  0.1004  1.1446  0.2095
 3443SOL     OW10579   0.654   5.998   4.698  0.3947 -0.0578 -0.1437
 3443SOL    HW110580   0.594   6.037   4.635  1.6645  0.7849 -0.8720
 3443SOL    HW210581   0.701   6.073   4.736  1.1612 -0.7015  0.2097
 3444SOL     OW10582   3.548   4.253   0.349  0.3614 -0.2343 -0.3786
 3444SOL    HW110583   3.495   4.242   0.428 -0.8973  2.2621 -0.7605
 3444SOL    HW210584   3.632   4.284   0.380  0.1017  0.0623  0.0378
 3445SOL     OW10585   4.415   1.600   6.282  0.0841  0.0156 -0.5742
 3445SOL    HW110586   4.503   1.567   6.266  0.2612  0.3275 -0.2513
 3445SOL    HW210587   4.414   1.621   6.376  0.3841  2.1433 -1.0044
 3446SOL     OW10588   3.780   1.130   0.262 -0.1261 -0.4104  0.2645
 3446SOL    HW110589   3.795   1.037   0.245  0.4031 -0.2111 -0.4226
 3446SOL    HW210590   3.691   1.146   0.231 -0.1303 -0.6346  0.1558
 3447SOL     OW10591   5.909   4.270   4.335 -0.3278 -0.0955 -0.0659
 3447SOL    HW110592   5.997   4.308   4.342 -0.8976  2.1837 -3.1058
 3447SOL    HW210593   5.904   4.238   4.245 -3.1421  1.5348 -0.6139
 3448SOL     OW10594   3.770   4.190   4.642 -0.0037  0.1294  0.1718
 3448SOL    HW110595   3.859   4.160   4.658  0.7653  1.5826 -1.1420
 3448SOL    HW210596   3.727   4.185   4.728  1.3309 -0.5841  0.8140
 3449SOL     OW10597   1.981   0.439   0.848  0.2239  0.1240 -0.5513
 3449SOL    HW110598   1.922   0.442   0.923 -0.6758  1.4280 -1.2643
 3449SOL    HW210599   2.035   0.361   0.862 -1.2120 -0.7253  0.4678
 3450SOL     OW10600   0.303   1.338   4.486  0.6887  0.6396  0.1763
 3450SOL    HW110601   0.241   1.407   4.508  0.3708 -0.0032  1.3989
 3450SOL    HW210602   0.252   1.257   4.494  1.2577  0.2062 -0.4478
 3451SOL     OW10603   0.363   6.161   4.604 -0.1758 -0.1511  0.0837
 3451SOL    HW110604   0.369   6.164   4.508  0.6100 -0.5086  0.1145
 3451SOL    HW210605   0.308   6.236   4.627  1.3860  1.2204 -0.5113
 3452SOL     OW10606   4.168   2.635   1.360  0.4393  0.1725  0.4220
 3452SOL    HW110607   4.192   2.576   1.289  0.3387  0.0238  0.5117
 3452SOL    HW210608   4.112   2.583   1.417 -0.3870  0.6165  0.0323
 3453SOL     OW10609   5.812   0.615   1.572  0.0829  0.1135  0.0024
 3453SOL    HW110610   5.747   0.562   1.618  1.2650 -1.3669  0.0288
 3453SOL    HW210611   5.765   0.696   1.551 -1.8619 -0.9916 -0.2235
 3454SOL     OW10612   4.589   3.085   1.587 -0.4267 -0.0346  0.0829
 3454SOL    HW110613   4.610   3.044   1.671 -2.0807 -1.6860 -0.2390
 3454SOL    HW210614   4.563   3.174   1.610  0.7186  0.0473  1.1325
 3455SOL     OW10615   4.670   1.886   1.154 -0.5318 -0.1874 -0.3395
 3455SOL    HW110616   4.585   1.912   1.191 -0.2312 -1.0858  1.0527
 3455SOL    HW210617   4.690   1.803   1.197  0.1128 -1.0174 -2.1657
 3456SOL     OW10618   3.945   4.637   4.118  0.1030  0.3778  0.2800
 3456SOL    HW110619   3.944   4.634   4.022 -1.5917 -1.5831  0.2804
 3456SOL    HW210620   4.016   4.578   4.143  0.8526  1.2471  0.2725
 3457SOL     OW10621   3.483   0.865   0.501  0.6150  0.3888 -0.7314
 3457SOL    HW110622   3.407   0.885   0.556  1.2527  0.8917 -0.0084
 3457SOL    HW210623   3.549   0.930   0.527  1.2782 -0.0151 -1.3742
 3458SOL     OW10624   1.777   3.118   5.122  0.4932  0.0954  0.1990
 3458SOL    HW110625   1.698   3.065   5.110  0.2108  0.2489  1.2512
 3458SOL    HW210626   1.846   3.068   5.077  0.1848 -1.0459  0.9394
 3459SOL     OW10627   2.962   0.460   1.292 -0.4491 -0.1326  0.2052
 3459SOL    HW110628   2.882   0.458   1.239 -0.6914 -1.4928  0.5707
 3459SOL    HW210629   3.023   0.403   1.245  0.3499  0.9182 -0.0850
 3460SOL     OW10630   4.847   0.336   0.580  0.0260  0.0534 -0.4485
 3460SOL    HW110631   4.803   0.285   0.512 -1.2473 -0.2705  0.5710
 3460SOL    HW210632   4.874   0.271   0.645  2.2982  0.2130 -1.1398
 3461SOL     OW10633   1.499   0.903   5.814  0.1973 -0.0827 -0.0452
 3461SOL    HW110634   1.454   0.819   5.819 -1.0730  0.5158 -0.9257
 3461SOL    HW210635   1.429   0.967   5.804  0.9771  1.3312  2.5486
 3462SOL     OW10636   2.301   0.810   2.038  0.3932  0.0781 -0.2554
 3462SOL    HW110637   2.348   0.735   1.999 -0.4620  0.3817 -1.9242
 3462SOL    HW210638   2.370   0.862   2.079  0.9207 -2.1002  1.8727
 3463SOL     OW10639   3.656   1.569   2.121 -0.6219 -0.4972 -0.0036
 3463SOL    HW110640   3.649   1.587   2.215 -3.2951  0.5308 -0.2917
 3463SOL    HW210641   3.581   1.513   2.102 -0.0754 -0.7633 -1.5118
 3464SOL     OW10642   2.810   1.106   6.321  0.7705  0.3237 -0.3422
 3464SOL    HW110643   2.849   1.158   6.391 -0.2235  1.8805 -0.9024
 3464SOL    HW210644   2.869   1.119   6.246 -0.1926  1.8540 -0.8910
 3465SOL     OW10645   5.990   0.595   4.934 -0.0851  0.0744 -0.1530
 3465SOL    HW110646   6.025   0.622   5.018  0.0357 -1.3675  0.2829
 3465SOL    HW210647   5.964   0.677   4.891  3.0026  1.1806 -0.1692
 3466SOL     OW10648   0.079   3.243   5.943 -0.6554  0.4006  0.6920
 3466SOL    HW110649   0.079   3.306   5.871  1.8292  0.2285  0.4811
 3466SOL    HW210650   0.055   3.160   5.902  0.4720  0.3557  0.1001
 3467SOL     OW10651   4.807   2.452   3.236  0.2513 -0.3756  0.3726
 3467SOL    HW110652   4.845   2.540   3.238  1.5470 -0.8975  0.2300
 3467SOL    HW210653   4.834   2.417   3.151 -0.6079 -0.7671  0.2532
 3468SOL     OW10654   4.845   0.139   2.105  0.2849  0.2103 -1.0570
 3468SOL    HW110655   4.845   0.181   2.191 -1.5024 -3.6121  1.0396
 3468SOL    HW210656   4.769   0.176   2.061  0.9190  1.8300 -0.8684
 3469SOL     OW10657   5.027   1.099   0.187 -0.0717 -0.3709 -0.5312
 3469SOL    HW110658   4.999   1.159   0.256  1.0978 -1.5931  1.1067
 3469SOL    HW210659   4.953   1.095   0.126 -2.0479 -0.8206  1.7350
 3470SOL     OW10660   1.244   5.924   0.595  0.0509 -0.6082  0.0143
 3470SOL    HW110661   1.313   5.966   0.647 -0.4587  0.7703 -0.3742
 3470SOL    HW210662   1.175   5.906   0.659 -0.0184 -0.1941  0.0575
 3471SOL     OW10663   1.993   5.770   1.104  0.5910  0.4319  0.3464
 3471SOL    HW110664   2.084   5.778   1.135  0.5328 -0.5038  0.8041
 3471SOL    HW210665   1.988   5.681   1.069  0.0849  0.7859 -0.5060
 3472SOL     OW10666   0.299   4.034   1.728  0.1451  0.1782  0.1027
 3472SOL    HW110667   0.391   4.061   1.721  0.0921  0.0642 -1.2660
 3472SOL    HW210668   0.303   3.938   1.733  0.1650  0.2363  1.7402
 3473SOL     OW10669   0.133   2.541   5.079 -0.2946 -0.1183  0.6364
 3473SOL    HW110670   0.154   2.459   5.122 -1.1247 -0.4636  0.4074
 3473SOL    HW210671   0.178   2.608   5.130 -1.3357 -0.5012  2.1212
 3474SOL     OW10672   1.724   0.531   1.837 -0.0975  0.1843  0.2351
 3474SOL    HW110673   1.730   0.621   1.806  2.7437 -0.2568 -0.7747
 3474SOL    HW210674   1.630   0.517   1.851 -0.8761  2.5067 -1.8784
 3475SOL     OW10675   1.769   0.621   0.200 -0.6192 -0.5835  0.0925
 3475SOL    HW110676   1.742   0.613   0.109  1.7271  4.0656 -1.2972
 3475SOL    HW210677   1.692   0.658   0.244 -1.1705 -1.1502 -0.3735
 3476SOL     OW10678   1.578   4.496   1.952  0.5560 -0.0459 -0.0949
 3476SOL    HW110679   1.559   4.566   1.889 -0.1733  0.5606  0.7771
 3476SOL    HW210680   1.502   4.495   2.010  0.1669 -2.1310 -0.5771
 3477SOL     OW10681   5.520   4.921   6.334  0.0015 -0.6791 -0.2067
 3477SOL    HW110682   5.432   4.900   6.364 -0.8294  1.8324 -0.6563
 3477SOL    HW210683   5.512   4.928   6.239  0.8775 -1.1303 -0.3295
 3478SOL     OW10684   0.789   0.270   0.929 -0.2826  0.2980 -0.0237
 3478SOL    HW110685   0.757   0.359   0.946  0.2016  0.6478 -0.8607
 3478SOL    HW210686   0.814   0.271   0.837 -0.1865 -0.6889 -0.0170
 3479SOL     OW10687   6.216   4.661   6.271 -0.4343  0.0817 -0.0388
 3479SOL    HW110688   6.198   4.734   6.211  0.0730  0.8653  0.7259
 3479SOL    HW210689   6.180   4.584   6.227 -0.2840  0.6671 -1.2293
 3480SOL     OW10690   0.041   2.075   2.041 -0.2984 -0.1888  0.1259
 3480SOL    HW110691   0.110   2.027   1.996  0.9816  0.8062  0.9408
 3480SOL    HW210692   0.052   2.052   2.134 -1.0300  0.0128  0.2667
 3481SOL     OW10693   3.066   3.292   3.704  0.7371 -0.1771  0.1593
 3481SOL    HW110694   3.113   3.265   3.625 -0.0687  0.7312 -0.6675
 3481SOL    HW210695   3.078   3.387   3.707 -0.2776 -0.0487  0.4192
 3482SOL     OW10696   4.013   1.306   4.075  0.0218 -0.4098 -0.3225
 3482SOL    HW110697   4.061   1.376   4.031  0.0290 -1.2048 -1.6662
 3482SOL    HW210698   3.927   1.343   4.093  0.4340  0.3363  0.1284
 3483SOL     OW10699   2.568   1.715   5.277  0.1754 -0.1230  0.3642
 3483SOL    HW110700   2.531   1.801   5.296  0.8111 -0.0321  1.2530
 3483SOL    HW210701   2.643   1.732   5.220  0.3516 -0.0778  0.6084
 3484SOL     OW10702   0.780   1.587   4.752  0.4210 -0.3524 -0.6355
 3484SOL    HW110703   0.743   1.577   4.664 -0.3054 -1.9286 -0.1867
 3484SOL    HW210704   0.731   1.659   4.791 -1.4263 -1.6311 -0.4787
 3485SOL     OW10705   2.775   2.333   1.878 -0.0563 -0.4005 -0.2127
 3485SOL    HW110706   2.823   2.292   1.806 -0.4245  0.8975 -1.2361
 3485SOL    HW210707   2.798   2.281   1.955  1.0235 -1.3062 -1.1118
 3486SOL     OW10708   0.481   5.008   0.114  0.0954  0.0591  0.2855
 3486SOL    HW110709   0.564   4.969   0.086 -0.7168 -2.4005  0.9523
 3486SOL    HW210710   0.416   4.940   0.095 -1.5313  1.2839  1.2356
 3487SOL     OW10711   5.619   1.614   2.376  0.7269  0.2017 -0.0142
 3487SOL    HW110712   5.645   1.687   2.321 -0.5683 -0.1222 -1.1125
 3487SOL    HW210713   5.632   1.645   2.466 -2.0714  2.7666 -0.3274
 3488SOL     OW10714   1.086   4.978   2.274 -0.2024 -0.3131 -0.0209
 3488SOL    HW110715   1.076   5.014   2.186 -2.2821 -0.2179  0.1834
 3488SOL    HW210716   1.145   4.904   2.264  1.3459  1.0007 -1.0869
 3489SOL     OW10717   0.234   3.449   0.191 -0.1445  0.0451 -0.4362
 3489SOL    HW110718   0.256   3.357   0.179 -0.0813  0.0007  0.0266
 3489SOL    HW210719   0.317   3.491   0.215 -0.0738  0.3104 -1.0978
 3490SOL     OW10720   0.567   5.819   5.886  0.3215  0.4505  0.2461
 3490SOL    HW110721   0.646   5.807   5.835 -1.2773 -0.1617 -2.2551
 3490SOL    HW210722   0.533   5.731   5.901 -1.3398  0.7532 -1.2954
 3491SOL     OW10723   2.938   4.421   4.490  0.4511 -0.9884 -0.3945
 3491SOL    HW110724   3.007   4.383   4.544  1.6095  0.5309 -0.7339
 3491SOL    HW210725   2.977   4.428   4.402  0.8219  2.0903 -0.0865
 3492SOL     OW10726   0.777   1.425   1.177  0.4162 -0.2986 -0.0312
 3492SOL    HW110727   0.845   1.357   1.173 -0.0797 -0.7911 -0.2050
 3492SOL    HW210728   0.733   1.419   1.093 -0.8060 -0.9996  0.6325
 3493SOL     OW10729   4.761   1.571   0.739 -0.6472  0.4098  0.5632
 3493SOL    HW110730   4.746   1.658   0.703  0.6377  0.4511  0.0433
 3493SOL    HW210731   4.710   1.512   0.684 -0.3646  0.6974 -0.0169
 3494SOL     OW10732   2.571   1.048   5.466  0.2073  0.5315 -0.1956
 3494SOL    HW110733   2.583   0.961   5.429 -0.4833  0.6974 -0.8108
 3494SOL    HW210734   2.661   1.081   5.479  0.4961 -0.7289  1.1705
 3495SOL     OW10735   3.264   3.275   2.677 -0.6786  0.0040 -0.1567
 3495SOL    HW110736   3.286   3.322   2.758 -0.5225  0.5986 -0.5332
 3495SOL    HW210737   3.245   3.186   2.705 -1.5466  0.4242  0.6488
 3496SOL     OW10738   0.574   5.466   6.281  0.5399  0.1782  0.1469
 3496SOL    HW110739   0.481   5.487   6.289  0.2035 -1.0525 -0.2479
 3496SOL    HW210740   0.610   5.479   6.369 -0.2548 -0.4228  0.5714
 3497SOL     OW10741   5.923   5.307   1.013 -0.2401 -0.8126 -0.5662
 3497SOL    HW110742   5.890   5.336   1.099 -0.6835  0.7722 -1.2333
 3497SOL    HW210743   5.986   5.238   1.034 -0.5989 -0.7091  1.0185
 3498SOL     OW10744   4.148   4.093   2.404  0.7830 -0.0372  0.1035
 3498SOL    HW110745   4.236   4.118   2.432  1.2883  1.5679 -2.5677
 3498SOL    HW210746   4.148   4.106   2.310 -2.1153 -0.7333 -0.0982
 3499SOL     OW10747   3.492   5.213   1.557 -0.1095 -0.6975  0.5242
 3499SOL    HW110748   3.585   5.191   1.564 -0.1474 -0.5107  1.8157
 3499SOL    HW210749   3.448   5.128   1.559 -0.0614 -0.7168  2.0279
 3500SOL     OW10750   3.999   4.316   2.473  0.0650  0.6628 -0.1562
 3500SOL    HW110751   4.057   4.249   2.438 -0.9798 -1.0206  1.1532
 3500SOL    HW210752   3.984   4.289   2.564 -2.7149  1.0027 -0.4357
 3501SOL     OW10753   1.302   1.512   3.843 -0.9179 -0.7990  0.4636
 3501SOL    HW110754   1.292   1.581   3.909  1.5501  0.2517 -0.1405
 3501SOL    HW210755   1.300   1.559   3.760  1.6315 -1.2672  0.0733
 3502SOL     OW10756   1.014   3.694   4.834 -0.4528  0.1275  0.4366
 3502SOL    HW110757   0.975   3.609   4.853  0.0426 -0.1777  0.1275
 3502SOL    HW210758   0.958   3.758   4.879 -0.6928 -0.3794  0.8619
 3503SOL     OW10759   1.108   5.579   1.633  0.4757 -0.0668 -0.4499
 3503SOL    HW110760   1.085   5.671   1.617  1.5493  0.4761  0.8656
 3503SOL    HW210761   1.165   5.582   1.710 -2.1379 -2.1622  1.7363
 3504SOL     OW10762   3.064   1.854   1.492  0.4259 -0.7173  0.6180
 3504SOL    HW110763   3.025   1.805   1.420  2.8789 -1.9470 -0.0042
 3504SOL    HW210764   3.151   1.878   1.459 -0.1187  2.9325  1.4078
 3505SOL     OW10765   1.423   5.925   3.044 -0.1955  0.8534 -0.0523
 3505SOL    HW110766   1.435   5.934   2.950  0.2297 -0.0700 -0.1055
 3505SOL    HW210767   1.335   5.889   3.054  0.1123  0.0444 -0.1674
 3506SOL     OW10768   0.062   3.117   4.402  0.4113 -0.4347 -0.1399
 3506SOL    HW110769   0.072   3.183   4.470 -2.2102  0.6328 -0.6586
 3506SOL    HW210770  -0.033   3.107   4.393  0.7138 -1.9351 -2.3092
 3507SOL     OW10771   2.427   1.951   2.954 -0.0072  0.1960 -0.0558
 3507SOL    HW110772   2.510   1.942   2.907 -0.4627  0.7486 -1.0098
 3507SOL    HW210773   2.360   1.942   2.885 -0.7003  1.2392  0.4598
 3508SOL     OW10774   3.647   3.334   2.952 -0.2734  0.0476  0.0178
 3508SOL    HW110775   3.705   3.356   2.879  0.1849 -0.3529  0.2529
 3508SOL    HW210776   3.705   3.296   3.018 -0.4449  1.7888  1.2221
 3509SOL     OW10777   5.816   4.741   4.859  0.3245 -0.2730 -0.1234
 3509SOL    HW110778   5.830   4.808   4.792 -1.3983 -0.0619 -0.3128
 3509SOL    HW210779   5.828   4.658   4.813 -0.0410 -0.1180 -0.5072
 3510SOL     OW10780   1.259   3.646   0.552  0.0965 -0.6400  0.2303
 3510SOL    HW110781   1.344   3.615   0.522 -0.4622 -3.1396  0.9801
 3510SOL    HW210782   1.203   3.641   0.475  0.2813 -0.3649  0.0761
 3511SOL     OW10783   5.891   2.464   4.238 -0.1828 -0.4774  0.1811
 3511SOL    HW110784   5.860   2.375   4.223 -1.2966 -0.0327 -0.2607
 3511SOL    HW210785   5.818   2.507   4.283 -0.4095  0.7190 -1.2688
 3512SOL     OW10786   3.918   3.462   3.687  0.3663 -0.1523  0.3118
 3512SOL    HW110787   3.879   3.532   3.740  1.0005 -1.0787  2.0856
 3512SOL    HW210788   3.984   3.423   3.744  0.9647 -1.3313 -1.1302
 3513SOL     OW10789   2.437   0.231   6.221 -0.2047 -0.1205 -0.2413
 3513SOL    HW110790   2.507   0.169   6.241 -0.9162 -0.3689  1.6794
 3513SOL    HW210791   2.480   0.316   6.220  0.1927 -0.3033  0.6035
 3514SOL     OW10792   5.201   3.076   4.079  0.0556  0.6933  1.0323
 3514SOL    HW110793   5.275   3.024   4.110  1.1246  1.3509 -0.2873
 3514SOL    HW210794   5.137   3.011   4.049  0.0554  0.1172  2.2363
 3515SOL     OW10795   6.320   3.294   6.211 -0.1323  0.6388  0.5358
 3515SOL    HW110796   6.336   3.219   6.154 -0.3395  1.0397 -0.0604
 3515SOL    HW210797   6.346   3.370   6.159  0.5630  0.9562  1.3222
 3516SOL     OW10798   3.679   4.983   5.975 -0.1711  0.0999  0.3645
 3516SOL    HW110799   3.668   4.973   5.881 -1.6455  0.7617  0.4441
 3516SOL    HW210800   3.681   5.078   5.989 -1.3556  0.0270  1.1264
 3517SOL     OW10801   4.469   5.842   3.564  0.6345 -0.2620 -0.4036
 3517SOL    HW110802   4.461   5.787   3.643 -1.3600 -0.4508 -0.6683
 3517SOL    HW210803   4.402   5.807   3.505  1.5258  0.4230 -1.8688
 3518SOL     OW10804   1.181   4.232   2.319  0.1759  0.2350  0.4207
 3518SOL    HW110805   1.231   4.194   2.391 -0.0316 -0.7144  0.0741
 3518SOL    HW210806   1.090   4.222   2.345  0.1291  1.0206  0.5812
 3519SOL     OW10807   5.541   6.104   3.700  0.2745  0.2926 -0.2724
 3519SOL    HW110808   5.449   6.132   3.700  0.0044 -0.5571 -0.4579
 3519SOL    HW210809   5.589   6.181   3.671 -0.1638  1.3637  1.6579
 3520SOL     OW10810   2.792   5.539   1.190 -0.0896  0.2187  0.0506
 3520SOL    HW110811   2.797   5.476   1.119  0.2327  0.5948 -0.2655
 3520SOL    HW210812   2.735   5.498   1.255 -0.1559 -0.2473 -0.2999
 3521SOL     OW10813   5.865   1.508   3.450  0.3605  0.0799  0.5879
 3521SOL    HW110814   5.798   1.449   3.417 -1.1879  0.9072  2.0697
 3521SOL    HW210815   5.843   1.593   3.413  1.1729  0.1816  0.3268
 3522SOL     OW10816   6.274   5.307   5.511 -1.0580  0.3275  0.2173
 3522SOL    HW110817   6.353   5.359   5.496 -0.1977 -0.7474  0.8820
 3522SOL    HW210818   6.219   5.323   5.434 -1.2417  2.9085  0.7775
 3523SOL     OW10819   6.032   0.244   5.934  0.1138 -0.1955 -0.2284
 3523SOL    HW110820   6.051   0.296   6.013 -0.1260 -1.6648  0.8407
 3523SOL    HW210821   5.937   0.245   5.928  0.0468 -1.2251  0.3415
 3524SOL     OW10822   2.217   4.599   1.248  0.1477 -0.8074  0.1511
 3524SOL    HW110823   2.173   4.656   1.311  0.1188 -0.0545 -0.5312
 3524SOL    HW210824   2.275   4.658   1.199  2.9992 -1.9309  1.8942
 3525SOL     OW10825   2.413   0.947   2.703  0.6147 -0.3339  0.0087
 3525SOL    HW110826   2.334   0.997   2.681  0.8988  1.4617  2.6277
 3525SOL    HW210827   2.399   0.918   2.793  2.5176 -0.8468  0.1807
 3526SOL     OW10828   5.948   5.236   2.357 -0.4202 -0.3511 -0.0375
 3526SOL    HW110829   5.911   5.298   2.419  0.7571  1.0762 -0.6994
 3526SOL    HW210830   6.042   5.237   2.374 -0.3901 -2.1684  0.0985
 3527SOL     OW10831   1.400   4.893   1.543 -0.5064 -0.3519 -0.5656
 3527SOL    HW110832   1.354   4.819   1.502  0.7124 -2.1630  1.1469
 3527SOL    HW210833   1.478   4.906   1.489 -0.5985 -0.4781 -0.7294
 3528SOL     OW10834   6.159   4.906   1.580 -0.2595 -0.1350  0.1433
 3528SOL    HW110835   6.195   4.936   1.664 -1.9698  0.0342  0.8633
 3528SOL    HW210836   6.152   4.985   1.527  0.7705 -0.2315 -0.1433
 3529SOL     OW10837   1.305   1.597   5.058 -0.2536  0.0460  0.4702
 3529SOL    HW110838   1.238   1.529   5.056 -0.6014  0.3597  1.0509
 3529SOL    HW210839   1.359   1.575   5.133 -0.4825  0.5041  0.7786
 3530SOL     OW10840   5.333   6.139   2.588  0.7317  0.0019  0.0562
 3530SOL    HW110841   5.286   6.134   2.505 -0.4239  0.5251  0.6604
 3530SOL    HW210842   5.279   6.195   2.643  1.9995  0.4996  0.8332
 3531SOL     OW10843   0.095   6.134   0.237  0.5948  0.9919 -0.1055
 3531SOL    HW110844   0.018   6.104   0.189  0.2966  0.2681  0.7838
 3531SOL    HW210845   0.166   6.131   0.173  0.5163 -1.3607 -0.1813
 3532SOL     OW10846   0.226   6.033   5.575  0.7188  0.2265 -0.5217
 3532SOL    HW110847   0.194   6.099   5.636  1.8985  0.1481  0.2083
 3532SOL    HW210848   0.263   5.964   5.630  0.5590 -0.5079 -1.2959
 3533SOL     OW10849   0.724   4.688   3.210  0.4266 -0.6501 -0.7039
 3533SOL    HW110850   0.702   4.671   3.302  0.4908  0.7601 -0.4032
 3533SOL    HW210851   0.676   4.621   3.161 -0.3115 -0.8769  0.3035
 3534SOL     OW10852   4.441   4.418   2.313 -0.6262  0.1918  0.1462
 3534SOL    HW110853   4.438   4.377   2.226  1.1833  1.5436 -0.5992
 3534SOL    HW210854   4.376   4.488   2.309 -0.3185  0.4526 -0.2141
 3535SOL     OW10855   2.513   0.471   5.654 -0.2355 -0.1765  0.3999
 3535SOL    HW110856   2.482   0.414   5.725  0.5894 -2.0487 -0.6838
 3535SOL    HW210857   2.537   0.552   5.698 -3.8549  0.3784  1.6916
 3536SOL     OW10858   3.434   5.924   5.236  0.0137 -0.2285  0.4472
 3536SOL    HW110859   3.487   5.890   5.308 -1.2505  0.4890  1.7719
 3536SOL    HW210860   3.385   5.996   5.275 -1.3141 -0.3412 -0.9328
 3537SOL     OW10861   2.182   5.310   2.208 -0.7819 -0.2781 -0.1293
 3537SOL    HW110862   2.269   5.311   2.249 -0.6766 -1.3135 -0.2845
 3537SOL    HW210863   2.155   5.401   2.207 -0.2667 -0.0870  1.1461
 3538SOL     OW10864   0.316   3.062   0.660 -0.0958  0.5760  0.3876
 3538SOL    HW110865   0.386   3.114   0.621 -1.3721  1.4465 -0.8354
 3538SOL    HW210866   0.237   3.087   0.611 -0.7178 -2.9040 -0.6687
 3539SOL     OW10867   3.899   3.307   0.217  0.1907 -0.3153 -0.2716
 3539SOL    HW110868   3.909   3.254   0.296  1.2096  0.2951  0.0373
 3539SOL    HW210869   3.833   3.261   0.165 -1.1201 -0.2870  1.2847
 3540SOL     OW10870   2.203   4.273   2.957 -0.0887 -0.0943 -0.5526
 3540SOL    HW110871   2.180   4.245   3.045  0.6416 -0.6700 -0.5352
 3540SOL    HW210872   2.128   4.325   2.927 -0.6541 -0.5201  0.1204
 3541SOL     OW10873   2.855   5.403   1.772  0.7043  0.1063  0.2774
 3541SOL    HW110874   2.775   5.353   1.755  0.4018  1.0781 -1.2790
 3541SOL    HW210875   2.829   5.470   1.835  0.5576 -0.2066  0.5551
 3542SOL     OW10876   6.043   4.448   2.766 -0.4315 -0.3449 -0.1500
 3542SOL    HW110877   6.050   4.356   2.741 -0.2417 -0.4223  0.1834
 3542SOL    HW210878   6.003   4.491   2.691 -2.3768 -1.0441  0.4431
 3543SOL     OW10879   1.501   3.210   2.209  0.2528 -0.0672 -0.6002
 3543SOL    HW110880   1.442   3.234   2.280  1.2693 -0.7175  0.4998
 3543SOL    HW210881   1.503   3.114   2.210  2.2924 -0.0824  0.2775
 3544SOL     OW10882   4.075   0.308   2.193  0.2059  0.6154  0.2113
 3544SOL    HW110883   4.169   0.294   2.185  0.6196  1.3474  2.9671
 3544SOL    HW210884   4.057   0.303   2.287 -2.6460 -0.1921 -0.2519
 3545SOL     OW10885   5.788   5.949   6.250  0.4855 -0.3176  0.0636
 3545SOL    HW110886   5.839   5.878   6.291  0.2246  0.0599  1.0828
 3545SOL    HW210887   5.747   5.908   6.174  1.3072 -0.9496 -0.0662
 3546SOL     OW10888   0.664   5.661   2.718 -0.1857 -0.0078  0.1976
 3546SOL    HW110889   0.671   5.723   2.790  1.7549 -0.7717  0.7133
 3546SOL    HW210890   0.749   5.618   2.714 -1.9502 -4.0494  1.1150
 3547SOL     OW10891   6.269   0.861   0.831  0.6009  0.1183  0.1902
 3547SOL    HW110892   6.258   0.816   0.747 -0.3259  3.0825 -1.4440
 3547SOL    HW210893   6.356   0.836   0.860  0.8565 -1.2138 -1.5329
 3548SOL     OW10894   0.004   5.506   3.543 -0.1042 -0.5962  0.1073
 3548SOL    HW110895  -0.083   5.466   3.554 -2.5046  3.4487 -1.9497
 3548SOL    HW210896   0.016   5.559   3.622 -1.5001  1.8486 -1.1841
 3549SOL     OW10897   1.130   6.057   1.374 -0.1230 -0.2375 -0.2457
 3549SOL    HW110898   1.149   5.964   1.386 -2.9542 -0.8500  0.2276
 3549SOL    HW210899   1.154   6.098   1.457 -0.0016 -0.7481 -0.0305
 3550SOL     OW10900   1.217   2.990   1.087  0.0274 -0.0145  0.1966
 3550SOL    HW110901   1.197   3.076   1.050 -1.3832 -1.1953 -1.9929
 3550SOL    HW210902   1.136   2.962   1.129 -0.3555 -1.2833 -1.2995
 3551SOL     OW10903   4.110   0.192   4.826  0.8510 -0.2091  0.1460
 3551SOL    HW110904   4.130   0.208   4.734  1.8659  1.4141  0.6002
 3551SOL    HW210905   4.129   0.099   4.839  2.6850 -0.0240 -0.8384
 3552SOL     OW10906   4.642   5.446   2.600  0.2606  0.6682 -0.1999
 3552SOL    HW110907   4.699   5.386   2.648 -1.3110 -0.3403  0.4996
 3552SOL    HW210908   4.623   5.401   2.518  3.0004  2.4228 -1.9789
 3553SOL     OW10909   2.936   3.024   2.536  0.0182 -0.9249 -0.2443
 3553SOL    HW110910   3.031   3.035   2.547  0.0187 -0.0821 -0.9663
 3553SOL    HW210911   2.898   3.080   2.604  0.0476 -0.3025 -0.7254
 3554SOL     OW10912   0.592   1.487   5.514  0.4153  0.8257 -0.1754
 3554SOL    HW110913   0.640   1.424   5.460 -1.7922 -0.0400 -1.2946
 3554SOL    HW210914   0.611   1.571   5.474  0.5561  0.4386 -0.9531
 3555SOL     OW10915   2.250   5.227   0.333 -0.7922  0.0362  0.1809
 3555SOL    HW110916   2.225   5.198   0.245  0.5697 -0.6277 -0.0110
 3555SOL    HW210917   2.236   5.322   0.331  0.4442  0.2369 -1.2085
 3556SOL     OW10918   0.737   0.832   3.322 -0.2676  0.6137 -0.0921
 3556SOL    HW110919   0.751   0.926   3.309 -0.5493  1.3909  3.9032
 3556SOL    HW210920   0.643   0.820   3.310 -0.2678  0.8897 -0.3853
 3557SOL     OW10921   5.627   2.369   0.863  0.1054  0.2806 -0.1774
 3557SOL    HW110922   5.701   2.319   0.827 -0.9002 -0.0621 -1.8790
 3557SOL    HW210923   5.615   2.441   0.801 -0.7028  0.5877  0.3289
 3558SOL     OW10924   3.802   2.689   4.102  0.2317  0.0710 -0.1450
 3558SOL    HW110925   3.730   2.749   4.123  0.7774  0.5386  0.4096
 3558SOL    HW210926   3.875   2.720   4.155  0.7884 -0.5248 -0.5584
 3559SOL     OW10927   2.621   2.318   4.533 -0.3387  0.0125 -0.0382
 3559SOL    HW110928   2.553   2.337   4.598  0.8862  1.0162  0.9866
 3559SOL    HW210929   2.670   2.399   4.525  0.3853 -0.5195 -1.2154
 3560SOL     OW10930   5.673   3.952   5.451 -0.1328  0.0587  0.1541
 3560SOL    HW110931   5.719   3.998   5.380 -1.8843  1.1391 -0.3522
 3560SOL    HW210932   5.667   4.017   5.521  0.7949 -0.7147  0.9752
 3561SOL     OW10933   5.606   6.164   2.469  0.3289 -0.4448 -0.1626
 3561SOL    HW110934   5.619   6.125   2.382 -0.2680  0.9711 -0.9145
 3561SOL    HW210935   5.536   6.112   2.508  0.7141 -1.1965 -0.4581
 3562SOL     OW10936   0.735   1.860   3.588  0.1432 -0.1306  1.0869
 3562SOL    HW110937   0.814   1.911   3.569  0.2409 -0.7592 -0.2690
 3562SOL    HW210938   0.665   1.904   3.541  0.5995 -2.3786 -1.9663
 3563SOL     OW10939   0.336   5.966   4.802  0.5571 -0.6782  0.6564
 3563SOL    HW110940   0.315   6.010   4.884  0.6501 -0.0674  0.3559
 3563SOL    HW210941   0.347   6.037   4.738  2.8705 -0.9876  0.6380
 3564SOL     OW10942   0.435   4.472   4.452  0.0505 -0.0740  0.1768
 3564SOL    HW110943   0.463   4.402   4.393 -1.5185 -1.2134  0.7156
 3564SOL    HW210944   0.340   4.479   4.438 -0.2653  0.0501  2.0759
 3565SOL     OW10945   1.462   3.463   3.959  0.3080  0.4682  0.1651
 3565SOL    HW110946   1.498   3.381   3.992  1.2943 -0.2993 -2.4929
 3565SOL    HW210947   1.523   3.489   3.890 -0.9843  2.4646 -0.3033
 3566SOL     OW10948   0.646   3.855   4.304 -0.0563 -0.1037 -0.4645
 3566SOL    HW110949   0.679   3.930   4.352 -1.7743  0.6697 -0.4330
 3566SOL    HW210950   0.671   3.779   4.357  0.1239  0.5703  0.4264
 3567SOL     OW10951   0.532   6.064   0.018 -0.2196  0.5873  0.1063
 3567SOL    HW110952   0.437   6.078   0.021 -0.1137  1.5053 -0.3713
 3567SOL    HW210953   0.543   5.975  -0.014 -0.9334  0.0151  1.3730
 3568SOL     OW10954   4.331   1.128   2.486  0.3394 -0.3707  0.0200
 3568SOL    HW110955   4.237   1.116   2.496  0.2579 -1.2554 -1.5038
 3568SOL    HW210956   4.365   1.040   2.469  1.6156 -0.2333  1.6213
 3569SOL     OW10957   3.587   0.380   4.434 -0.0057  0.1317 -0.8005
 3569SOL    HW110958   3.556   0.289   4.429  3.2230 -1.1200 -0.5460
 3569SOL    HW210959   3.581   0.412   4.344  1.2285 -1.3025 -1.4404
 3570SOL     OW10960   3.455   0.492   1.787  0.4015  0.8419  0.8512
 3570SOL    HW110961   3.525   0.544   1.826 -0.0615 -0.1333  3.1453
 3570SOL    HW210962   3.382   0.553   1.777  0.6616  1.2116  1.1790
 3571SOL     OW10963   3.836   5.624   4.590  0.5957 -0.2634  0.2397
 3571SOL    HW110964   3.767   5.689   4.578  0.2726 -0.7206 -0.4103
 3571SOL    HW210965   3.845   5.616   4.685  1.4515  1.5751  0.3491
 3572SOL     OW10966   0.410   1.527   3.732 -0.6428 -0.1540 -0.2716
 3572SOL    HW110967   0.400   1.537   3.637  1.5921  1.7159 -0.3881
 3572SOL    HW210968   0.476   1.591   3.756 -0.9570 -0.7663  2.5509
 3573SOL     OW10969   4.104   2.189   0.744  0.0623 -0.1287  0.1505
 3573SOL    HW110970   4.128   2.192   0.651  0.8727 -1.4070  0.2815
 3573SOL    HW210971   4.175   2.236   0.788  0.5489 -0.9263  0.2427
 3574SOL     OW10972   1.237   5.118   2.037 -0.4762  0.7327 -0.6584
 3574SOL    HW110973   1.260   5.046   1.978  1.1050 -0.4649  1.2706
 3574SOL    HW210974   1.194   5.183   1.982  0.1152 -0.7059 -2.9094
 3575SOL     OW10975   4.114   2.723   1.684 -0.9159 -0.6042 -0.3457
 3575SOL    HW110976   4.198   2.764   1.663 -0.9733  0.5208  1.4037
 3575SOL    HW210977   4.049   2.792   1.669 -1.1450 -0.3690  1.4594
 3576SOL     OW10978   6.129   0.068   0.691  0.3186  0.0664  0.0656
 3576SOL    HW110979   6.191  -0.004   0.703 -0.1126 -0.4530 -0.7845
 3576SOL    HW210980   6.100   0.061   0.600 -0.3109  0.8461  0.1933
 3577SOL     OW10981   2.736   4.420   3.741  0.0377 -0.3891  0.6205
 3577SOL    HW110982   2.757   4.510   3.713  0.0920 -0.1983  1.2676
 3577SOL    HW210983   2.772   4.413   3.829 -1.9605 -0.2854  1.5103
 3578SOL     OW10984   3.278   0.947   4.156  0.4826 -0.2796 -0.2905
 3578SOL    HW110985   3.358   0.946   4.209  0.5833  0.0640 -0.4332
 3578SOL    HW210986   3.214   0.993   4.210 -0.2442 -2.3265  0.6985
 3579SOL     OW10987   1.319   3.862   4.430  0.9431 -0.4769 -0.0977
 3579SOL    HW110988   1.279   3.856   4.517  0.7860 -0.4836 -0.1693
 3579SOL    HW210989   1.244   3.868   4.371  1.0539 -0.2956 -0.2184
 3580SOL     OW10990   0.214   0.444   3.511  0.0526 -0.6264  0.3117
 3580SOL    HW110991   0.119   0.439   3.523 -0.3816  2.5895 -0.8192
 3580SOL    HW210992   0.232   0.382   3.440 -1.4542 -0.3234 -0.3765
 3581SOL     OW10993   3.291   6.095   5.387  0.1144 -0.2257  0.1958
 3581SOL    HW110994   3.256   6.055   5.467  1.5566  0.4847  1.2226
 3581SOL    HW210995   3.285   6.189   5.403  1.2394 -0.0863 -0.1558
 3582SOL     OW10996   4.506   5.098   0.875  0.4055  0.2976  0.5625
 3582SOL    HW110997   4.536   5.033   0.812  1.5835  1.0738  0.2828
 3582SOL    HW210998   4.523   5.059   0.961  0.2890 -0.1120  0.4013
 3583SOL     OW10999   4.312   1.688   3.654  0.0653 -0.0865  0.1856
 3583SOL    HW111000   4.326   1.643   3.571 -1.6384  0.1007 -0.2419
 3583SOL    HW211001   4.223   1.662   3.681  0.3443  0.3446  1.6410
 3584SOL     OW11002   2.593   0.681   1.389  0.1993  0.3650  0.1760
 3584SOL    HW111003   2.599   0.717   1.477 -0.3757  0.7226  0.0727
 3584SOL    HW211004   2.650   0.737   1.336  0.0398  0.5469  0.1968
 3585SOL     OW11005   3.913   3.787   1.237 -0.6014  0.1032 -0.6625
 3585SOL    HW111006   3.826   3.819   1.259 -0.7580 -1.7079  1.7308
 3585SOL    HW211007   3.900   3.696   1.211  0.3944  0.3494 -2.1465
 3586SOL     OW11008   2.183   2.746   1.089  0.3124 -0.1734 -0.6326
 3586SOL    HW111009   2.182   2.828   1.041  1.1641 -0.4147 -1.0818
 3586SOL    HW211010   2.180   2.772   1.181 -0.8954  0.3031 -0.7827
 3587SOL     OW11011   2.463   0.978   4.799  0.1417  0.9090 -0.9438
 3587SOL    HW111012   2.418   1.061   4.783  0.4870  0.9396 -1.7725
 3587SOL    HW211013   2.531   0.974   4.733 -0.2961 -0.3524 -1.3536
 3588SOL     OW11014   5.984   5.008   1.824 -0.2754  0.1980  1.0082
 3588SOL    HW111015   5.999   4.916   1.803  0.6462  0.3323  1.0391
 3588SOL    HW211016   5.890   5.020   1.816 -0.4981 -0.9485  1.7803
 3589SOL     OW11017   3.731   5.656   0.801  0.3599 -0.0176  0.3921
 3589SOL    HW111018   3.783   5.679   0.724  0.8889  1.3160  1.1214
 3589SOL    HW211019   3.763   5.714   0.870 -1.2951  0.0397  1.1607
 3590SOL     OW11020   1.545   2.392   3.336  0.0901  0.5434 -0.5322
 3590SOL    HW111021   1.504   2.306   3.345  0.1244  0.6553  1.0451
 3590SOL    HW211022   1.554   2.405   3.242 -0.6789 -0.8138 -0.8201
 3591SOL     OW11023   1.826   5.021   4.364 -0.2023  0.0273  0.1797
 3591SOL    HW111024   1.771   4.945   4.382 -0.2910  0.2171  0.7398
 3591SOL    HW211025   1.903   4.985   4.319  0.1534 -0.5231  1.1753
 3592SOL     OW11026   2.602   3.683   0.759 -0.1132  0.5502  0.0244
 3592SOL    HW111027   2.671   3.743   0.730 -0.2036  1.0357  0.7925
 3592SOL    HW211028   2.521   3.732   0.749 -0.6732 -0.7263 -2.9174
 3593SOL     OW11029   3.332   2.929   5.814 -0.1428  0.0128 -0.0656
 3593SOL    HW111030   3.337   2.888   5.900  0.2022  0.4387  0.1239
 3593SOL    HW211031   3.421   2.923   5.779 -0.0029  0.8725  0.1054
 3594SOL     OW11032   3.540   1.795   6.024  0.2878 -0.5872 -0.1792
 3594SOL    HW111033   3.630   1.828   6.020  0.0898  0.3019  1.7973
 3594SOL    HW211034   3.526   1.774   6.116 -1.2599 -1.5708 -0.5965
 3595SOL     OW11035   5.186   0.038   0.313  0.0058  0.1316  0.4629
 3595SOL    HW111036   5.243   0.084   0.252 -0.6996  0.9256  0.3923
 3595SOL    HW211037   5.246  -0.003   0.376  0.8013 -1.3403 -1.1632
 3596SOL     OW11038   0.888   4.147   5.132  0.5573  0.2913 -0.5200
 3596SOL    HW111039   0.891   4.203   5.210  0.3623  2.4209 -1.9515
 3596SOL    HW211040   0.797   4.117   5.128 -0.1134  2.2494 -1.2320
 3597SOL     OW11041   2.082   5.259   1.653 -0.5934  0.2410  0.1171
 3597SOL    HW111042   1.999   5.287   1.690 -0.6885  2.3728 -1.5449
 3597SOL    HW211043   2.116   5.336   1.609  2.6115 -0.3716  1.2656
 3598SOL     OW11044   2.255   6.248   0.423  0.0890  0.1618 -0.0546
 3598SOL    HW111045   2.311   6.177   0.453 -1.8511 -0.6976  1.8118
 3598SOL    HW211046   2.173   6.206   0.400 -1.5254  1.7963  2.2010
 3599SOL     OW11047   1.339   5.109   3.580  0.6067  0.1538 -0.6664
 3599SOL    HW111048   1.337   5.163   3.660 -1.3539  0.0965 -0.6271
 3599SOL    HW211049   1.251   5.115   3.545  1.0642 -0.9504 -2.1045
 3600SOL     OW11050   4.126   4.387   6.232  0.0367 -0.5525 -0.1091
 3600SOL    HW111051   4.061   4.320   6.255 -1.1798  0.7872  0.4985
 3600SOL    HW211052   4.110   4.404   6.139  0.2179 -0.9331 -0.2161
 3601SOL     OW11053   1.306   5.458   0.719  0.0549 -0.4654 -0.0714
 3601SOL    HW111054   1.286   5.433   0.628  1.2531  3.0429 -1.4566
 3601SOL    HW211055   1.366   5.390   0.749  2.7477  0.1405 -3.3600
 3602SOL     OW11056   3.361   0.967   5.782 -0.1761 -0.2272 -0.5084
 3602SOL    HW111057   3.348   1.044   5.726  0.7761 -1.3063 -2.3328
 3602SOL    HW211058   3.294   0.906   5.754  0.8577 -1.1102 -1.1763
 3603SOL     OW11059   3.583   3.246   1.600 -0.0162 -0.3580  0.3086
 3603SOL    HW111060   3.657   3.302   1.625  1.3167 -2.4978  1.4473
 3603SOL    HW211061   3.528   3.243   1.679 -0.3059 -0.3365  0.1092
 3604SOL     OW11062   4.819   4.280   0.672  0.1328 -0.2052  0.1022
 3604SOL    HW111063   4.867   4.295   0.754  0.3875 -0.2006 -0.0485
 3604SOL    HW211064   4.883   4.296   0.603 -0.4382  1.1610 -0.1440
 3605SOL     OW11065   5.463   3.727   0.640  0.4153 -0.0083  0.0187
 3605SOL    HW111066   5.490   3.797   0.700  1.7038  1.3422 -1.9988
 3605SOL    HW211067   5.500   3.647   0.677  0.7970  0.7220  1.2464
 3606SOL     OW11068   4.374   0.118   1.533  0.4840 -0.4333  0.6558
 3606SOL    HW111069   4.444   0.070   1.577  0.6769 -0.9334 -0.1585
 3606SOL    HW211070   4.348   0.186   1.595  3.1544  1.1825  0.1531
 3607SOL     OW11071   5.952   4.590   2.534  0.5072  0.1458  0.4216
 3607SOL    HW111072   5.969   4.674   2.492 -2.0734  0.8373  0.5782
 3607SOL    HW211073   5.997   4.526   2.479  0.9603  1.4482 -0.7807
 3608SOL     OW11074   0.981   2.963   4.513  0.0567  0.1691 -0.4991
 3608SOL    HW111075   1.031   2.912   4.577  0.1003  0.8919  0.0655
 3608SOL    HW211076   0.890   2.947   4.535  0.0544  1.8419  0.9768
 3609SOL     OW11077   5.611   6.093   1.304 -0.1913 -0.4948  0.2180
 3609SOL    HW111078   5.639   6.184   1.309 -0.6967 -0.2121 -1.4157
 3609SOL    HW211079   5.675   6.051   1.247 -0.9231 -0.7306 -0.4503
 3610SOL     OW11080   1.176   6.144   2.627 -0.3492  0.0180 -0.2109
 3610SOL    HW111081   1.245   6.181   2.573 -0.1484  0.7054  0.5011
 3610SOL    HW211082   1.130   6.219   2.665 -0.4460 -0.4349  0.6182
 3611SOL     OW11083   1.978   5.585   0.792 -0.2159 -0.0156  0.1803
 3611SOL    HW111084   1.929   5.542   0.722 -0.9531 -0.1961  0.7935
 3611SOL    HW211085   1.939   5.552   0.872  0.4568  0.3789  0.6779
 3612SOL     OW11086   2.462   4.716   4.022  0.0080  0.3697  0.0488
 3612SOL    HW111087   2.498   4.721   3.933 -1.0482  0.5417 -0.3761
 3612SOL    HW211088   2.452   4.807   4.050  1.0559  0.3206  0.6643
 3613SOL     OW11089   2.395   4.746   4.836  0.7254 -0.6421 -0.0252
 3613SOL    HW111090   2.372   4.730   4.928 -0.4463  1.4301  0.1076
 3613SOL    HW211091   2.324   4.705   4.786 -0.4205  0.9918  0.1763
 3614SOL     OW11092   0.103   4.823   2.537  0.3831 -0.2616  0.3842
 3614SOL    HW111093   0.169   4.883   2.573 -0.9626  0.4730  1.7541
 3614SOL    HW211094   0.032   4.881   2.509 -0.9191 -1.1936  1.6704
 3615SOL     OW11095   1.965   0.087   4.872  0.1543  0.3861 -0.1272
 3615SOL    HW111096   1.999   0.175   4.884 -2.2256  1.4092 -0.3710
 3615SOL    HW211097   1.870   0.095   4.886 -0.0924 -2.1989  0.2089
 3616SOL     OW11098   0.015   4.201   1.599 -0.6330 -0.0986  0.2897
 3616SOL    HW111099   0.070   4.196   1.677  1.1385 -0.0379 -0.8965
 3616SOL    HW211100  -0.054   4.263   1.623 -0.6981 -0.8002  2.1044
 3617SOL     OW11101   3.012   0.679   1.475  0.3149 -0.4404  0.1976
 3617SOL    HW111102   2.976   0.743   1.414 -0.2788 -0.5472  0.4369
 3617SOL    HW211103   2.999   0.595   1.431  1.0565 -0.4155 -0.0979
 3618SOL     OW11104   2.835   2.518   2.503  0.7623 -0.4411 -0.4435
 3618SOL    HW111105   2.798   2.431   2.488  0.2324  0.2506 -4.0633
 3618SOL    HW211106   2.921   2.514   2.462  1.1265  0.4957  0.2091
 3619SOL     OW11107   2.667   5.000   0.868 -0.4089  0.0128 -0.4211
 3619SOL    HW111108   2.726   5.045   0.808 -1.1158  1.4347 -0.0973
 3619SOL    HW211109   2.580   5.015   0.832 -0.6559 -1.1938 -0.3477
 3620SOL     OW11110   4.797   0.110   5.829 -0.1670 -0.7812 -0.1210
 3620SOL    HW111111   4.739   0.110   5.905 -0.9050 -2.1789 -0.6444
 3620SOL    HW211112   4.884   0.127   5.865 -0.5011 -1.4067  1.0411
 3621SOL     OW11113   5.125   5.222   1.980 -0.0884  0.0089  0.5177
 3621SOL    HW111114   5.135   5.194   2.071 -1.3031 -0.5882  0.4910
 3621SOL    HW211115   5.055   5.167   1.946  2.5441 -2.1907 -1.8027
 3622SOL     OW11116   3.823   6.120   0.906 -0.6778  0.0582  0.5257
 3622SOL    HW111117   3.777   6.192   0.864 -0.3075  0.4801  0.8265
 3622SOL    HW211118   3.762   6.086   0.971  0.1102  1.9001  2.3176
 3623SOL     OW11119   4.152   3.464   5.912 -0.0582 -0.4842  0.2516
 3623SOL    HW111120   4.240   3.430   5.892 -0.3342 -1.2584  0.3299
 3623SOL    HW211121   4.097   3.428   5.843 -0.0022  1.5997 -0.9825
 3624SOL     OW11122   3.362   2.409   3.509  0.3674  0.3478 -0.0181
 3624SOL    HW111123   3.413   2.372   3.437 -0.4099  3.0377 -2.1424
 3624SOL    HW211124   3.375   2.504   3.501 -1.8269  0.8988  1.7706
 3625SOL     OW11125   1.742   2.213   6.134 -0.4466  0.2066 -0.3417
 3625SOL    HW111126   1.701   2.171   6.210 -0.6289  0.5674 -0.2338
 3625SOL    HW211127   1.799   2.146   6.097  0.9426  0.5278  1.0891
 3626SOL     OW11128   0.067   4.703   5.797  0.2656 -0.5975  0.3312
 3626SOL    HW111129   0.122   4.699   5.718  0.2996 -2.3661  0.4107
 3626SOL    HW211130  -0.002   4.639   5.782 -1.3740  1.0386  0.5754
 3627SOL     OW11131   2.600   0.652   4.516  0.3984  0.3776  0.7020
 3627SOL    HW111132   2.579   0.728   4.461  1.2328  0.7355  0.8614
 3627SOL    HW211133   2.675   0.680   4.567  0.7272 -0.5698  0.7524
 3628SOL     OW11134   1.264   0.348   3.255 -0.3180  0.5651  0.0327
 3628SOL    HW111135   1.238   0.284   3.189 -0.6486  1.3554 -0.6104
 3628SOL    HW211136   1.355   0.369   3.234  0.1051 -0.3986  0.8284
 3629SOL     OW11137   5.737   5.299   4.598 -0.2764  0.8230 -0.4761
 3629SOL    HW111138   5.741   5.224   4.538 -0.7361 -1.1145  1.7817
 3629SOL    HW211139   5.828   5.329   4.603 -0.1504  0.7345 -1.7533
 3630SOL     OW11140   5.355   1.380   1.387 -0.7863  0.1548  0.2593
 3630SOL    HW111141   5.345   1.290   1.419 -0.3751 -0.2424 -0.6823
 3630SOL    HW211142   5.449   1.391   1.376 -0.9041  0.3347 -0.6274
 3631SOL     OW11143   2.649   1.592   3.776  0.4797  0.2635 -0.1534
 3631SOL    HW111144   2.643   1.531   3.850 -0.3704  0.9783  0.3858
 3631SOL    HW211145   2.617   1.675   3.811  0.5281  0.7331 -1.2001
 3632SOL     OW11146   1.174   4.304   0.969  0.0060 -0.1667  0.4414
 3632SOL    HW111147   1.164   4.296   0.874 -1.1037 -0.7188  0.5904
 3632SOL    HW211148   1.182   4.214   1.000  0.4863  0.0183  0.8599
 3633SOL     OW11149   1.976   3.280   3.214 -0.0845  0.0561 -0.0055
 3633SOL    HW111150   1.993   3.249   3.303 -0.0823 -1.3326 -0.4621
 3633SOL    HW211151   2.062   3.302   3.180 -0.0694  0.4575  0.2843
 3634SOL     OW11152   1.338   1.628   3.596 -0.2212 -0.1051  0.3472
 3634SOL    HW111153   1.425   1.669   3.597 -0.3759  0.2185  1.1684
 3634SOL    HW211154   1.357   1.534   3.591  0.1522  0.0007 -0.4131
 3635SOL     OW11155   1.592   0.950   3.132 -0.7164  0.0337 -0.2410
 3635SOL    HW111156   1.548   0.869   3.155  0.8861 -0.9145 -0.3449
 3635SOL    HW211157   1.643   0.928   3.053  0.7215  0.7654  0.4466
 3636SOL     OW11158   0.072   1.552   1.853 -0.3777 -0.0538 -0.4344
 3636SOL    HW111159   0.047   1.524   1.941 -1.1040  0.3969 -0.4912
 3636SOL    HW211160   0.139   1.488   1.826 -0.7083 -0.6560  0.1332
 3637SOL     OW11161   2.562   3.035   2.481  0.0266  0.4775 -0.2296
 3637SOL    HW111162   2.555   3.080   2.397  1.9012  0.4031 -0.4730
 3637SOL    HW211163   2.568   2.942   2.459 -1.0029  0.3260  0.0952
 3638SOL     OW11164   1.104   5.127   3.282  0.1672  0.1567 -0.3032
 3638SOL    HW111165   1.133   5.214   3.255 -0.6685  0.5714  0.1076
 3638SOL    HW211166   1.012   5.139   3.306  0.7217 -0.2540  2.3092
 3639SOL     OW11167   5.647   3.620   3.350  0.0175 -0.0285 -0.0646
 3639SOL    HW111168   5.693   3.611   3.434 -0.6237 -2.7004  0.0827
 3639SOL    HW211169   5.556   3.597   3.370 -0.1863 -0.5043 -1.4567
 3640SOL     OW11170   0.762   0.412   0.133 -0.5041 -0.0689 -0.1504
 3640SOL    HW111171   0.699   0.465   0.084 -0.5403 -0.4105 -0.4808
 3640SOL    HW211172   0.832   0.395   0.070  0.9167  1.9849  0.7889
 3641SOL     OW11173   5.501   1.600   3.492 -0.4787 -0.5908  0.4984
 3641SOL    HW111174   5.507   1.695   3.480 -0.3559 -0.6251  0.2911
 3641SOL    HW211175   5.555   1.564   3.422 -2.3414 -0.8721 -0.8801
 3642SOL     OW11176   4.840   2.022   3.818 -0.4424 -0.0473 -0.1614
 3642SOL    HW111177   4.876   2.033   3.905 -0.4123  1.9064 -0.3915
 3642SOL    HW211178   4.917   2.009   3.762 -0.2316  1.5791 -0.2858
 3643SOL     OW11179   2.857   0.897   3.312  0.1670 -0.3949  0.5435
 3643SOL    HW111180   2.805   0.940   3.244  0.6614 -1.5309 -0.6039
 3643SOL    HW211181   2.939   0.873   3.268  0.2525 -1.6967  1.3545
 3644SOL     OW11182   0.817   5.492   1.686 -0.4683  0.0728  0.1022
 3644SOL    HW111183   0.898   5.531   1.654 -0.3525  0.6868  1.0994
 3644SOL    HW211184   0.752   5.562   1.680 -1.0591 -0.5518 -1.1311
 3645SOL     OW11185   0.762   5.440   6.084 -0.0265 -0.1036  0.0567
 3645SOL    HW111186   0.697   5.476   6.143 -0.7872 -3.2180  1.3323
 3645SOL    HW211187   0.813   5.379   6.138  0.8334 -1.2784 -1.9398
 3646SOL     OW11188   1.132   6.301   0.650  0.0625  0.3121 -0.7275
 3646SOL    HW111189   1.217   6.278   0.613 -0.9215 -2.4967 -1.5348
 3646SOL    HW211190   1.070   6.289   0.578 -1.1671  1.1303  0.1435
 3647SOL     OW11191   5.051   5.659   4.516 -0.2811  0.1111 -0.1431
 3647SOL    HW111192   5.115   5.722   4.549  0.9920 -0.8393 -0.7451
 3647SOL    HW211193   4.966   5.699   4.536  0.3700  0.0556  3.3788
 3648SOL     OW11194   5.583   0.597   2.193 -0.3613 -0.5886  0.0149
 3648SOL    HW111195   5.510   0.606   2.131 -0.0719  2.3082  0.0002
 3648SOL    HW211196   5.641   0.670   2.173  0.4569 -0.3905  2.7821
 3649SOL     OW11197   0.020   2.128   5.717  0.9734 -0.1893  0.4640
 3649SOL    HW111198  -0.001   2.220   5.735  0.6268 -0.6933  3.0602
 3649SOL    HW211199   0.105   2.131   5.674  0.6350  1.3701 -0.1695
 3650SOL     OW11200   3.569   3.433   0.485  0.4584 -0.2298  0.0170
 3650SOL    HW111201   3.574   3.350   0.438 -0.5205 -0.6203  0.5578
 3650SOL    HW211202   3.659   3.466   0.485  1.3704 -2.4415  1.8476
 3651SOL     OW11203   5.489   4.786   4.048 -0.3008 -0.1382 -0.1176
 3651SOL    HW111204   5.507   4.877   4.068 -0.0390 -0.1479 -0.2965
 3651SOL    HW211205   5.503   4.739   4.130  0.1430 -0.0951 -0.1669
 3652SOL     OW11206   1.254   3.742   3.503  0.3187 -0.6882 -0.4445
 3652SOL    HW111207   1.228   3.826   3.466  1.8429  0.0717  0.0893
 3652SOL    HW211208   1.267   3.685   3.428  0.7576  0.0292 -0.9220
 3653SOL     OW11209   4.505   3.072   6.045  0.1705  0.3826 -0.5304
 3653SOL    HW111210   4.595   3.049   6.068  0.0552 -1.2807 -1.5952
 3653SOL    HW211211   4.506   3.081   5.950 -1.3969 -2.8986 -0.9640
 3654SOL     OW11212   4.094   6.005   0.518  0.1083 -0.5227  0.4527
 3654SOL    HW111213   4.053   5.968   0.440  2.1553 -2.7735  0.3140
 3654SOL    HW211214   4.021   6.034   0.572 -1.4095  0.1141 -1.8019
 3655SOL     OW11215   0.461   3.479   3.299  0.0024 -0.4942  0.2145
 3655SOL    HW111216   0.391   3.449   3.356  0.0217  2.0655  1.7363
 3655SOL    HW211217   0.416   3.525   3.228  0.0974 -0.3977  0.2169
 3656SOL     OW11218   5.114   0.857   0.291 -0.5532  0.3498 -0.0012
 3656SOL    HW111219   5.085   0.878   0.380  2.5066  1.5698  0.8509
 3656SOL    HW211220   5.094   0.935   0.240 -0.7611  0.3227  0.0385
 3657SOL     OW11221   4.324   6.207   2.442 -0.0036 -0.2103 -0.1924
 3657SOL    HW111222   4.346   6.197   2.534  1.1725 -0.9570 -0.5272
 3657SOL    HW211223   4.406   6.234   2.400 -0.4850 -0.0005 -1.0363
 3658SOL     OW11224   4.184   3.439   1.922 -0.1623  0.1250 -0.0178
 3658SOL    HW111225   4.209   3.384   1.996 -1.7390  0.5796  0.8784
 3658SOL    HW211226   4.268   3.466   1.884  0.7112  0.6813  2.1757
 3659SOL     OW11227   3.227   0.282   5.302  0.4247 -0.2977  0.8081
 3659SOL    HW111228   3.217   0.203   5.249 -2.2334  1.5876 -1.8498
 3659SOL    HW211229   3.157   0.276   5.366  0.7743 -0.4683  1.1796
 3660SOL     OW11230   0.634   4.179   1.479 -0.2913 -0.4182  0.1371
 3660SOL    HW111231   0.666   4.247   1.420 -0.0511 -0.7409 -0.1087
 3660SOL    HW211232   0.631   4.100   1.424  1.4659 -1.0941  0.9453
 3661SOL     OW11233   0.967   0.624   4.582  0.3347 -0.0393  0.3725
 3661SOL    HW111234   1.034   0.650   4.645 -1.8616  1.8796  2.0740
 3661SOL    HW211235   0.944   0.534   4.607  1.0245 -0.0777  0.8977
 3662SOL     OW11236   5.432   4.160   6.079  0.1374 -0.1361 -0.0845
 3662SOL    HW111237   5.395   4.218   6.146  0.3823  0.7221 -0.6664
 3662SOL    HW211238   5.385   4.182   5.999  0.9106 -0.0249 -0.5250
 3663SOL     OW11239   5.847   2.380   5.268 -0.5810  0.6949  0.1639
 3663SOL    HW111240   5.902   2.367   5.191 -2.8019 -0.5190 -1.3404
 3663SOL    HW211241   5.834   2.475   5.272 -0.1139  0.8103 -0.7502
 3664SOL     OW11242   6.080   3.129   3.663 -0.3463 -0.4514  0.3390
 3664SOL    HW111243   6.024   3.177   3.724  0.1528  0.4120  0.1415
 3664SOL    HW211244   6.159   3.110   3.714 -0.4960 -0.9850  0.3819
 3665SOL     OW11245   3.158   3.758   3.321  0.1561  0.0225  0.4961
 3665SOL    HW111246   3.151   3.822   3.392  0.5631  1.5437 -0.7717
 3665SOL    HW211247   3.178   3.810   3.243 -0.9993 -1.4844 -0.9017
 3666SOL     OW11248   3.383   3.213   5.734  0.3246 -0.3377  0.2698
 3666SOL    HW111249   3.308   3.227   5.676  0.9115  0.2089 -0.3622
 3666SOL    HW211250   3.366   3.127   5.773 -1.1051  0.1737  0.8636
 3667SOL     OW11251   2.219   2.686   2.125  0.1522 -0.0372 -0.4220
 3667SOL    HW111252   2.170   2.661   2.203 -0.5557 -1.5120 -1.2896
 3667SOL    HW211253   2.175   2.764   2.091  2.2206  2.4854  2.1886
 3668SOL     OW11254   1.812   2.330   2.130  0.3177  0.3038 -0.2921
 3668SOL    HW111255   1.746   2.323   2.060 -1.8742 -2.2426  1.7820
 3668SOL    HW211256   1.784   2.405   2.182 -0.6544 -0.3775  0.2114
 3669SOL     OW11257   5.918   5.506   5.063 -0.0108  0.6827 -0.1584
 3669SOL    HW111258   5.876   5.489   4.979  0.4344  1.3382 -0.5216
 3669SOL    HW211259   5.894   5.596   5.085  1.2672  1.1164 -0.4322
 3670SOL     OW11260   4.902   2.712   3.238  0.2235 -0.3095 -0.0567
 3670SOL    HW111261   4.923   2.804   3.227  0.0039 -0.3644 -0.9869
 3670SOL    HW211262   4.970   2.678   3.297 -0.1888  0.6276  0.9857
 3671SOL     OW11263   2.319   3.081   4.188 -0.2921  0.2925 -0.0865
 3671SOL    HW111264   2.225   3.071   4.207 -0.2583  0.2984  0.0868
 3671SOL    HW211265   2.353   2.991   4.189  0.4185  0.4407  3.5708
 3672SOL     OW11266   2.895   0.627   2.112 -0.3034  0.1617 -0.1213
 3672SOL    HW111267   2.951   0.610   2.187 -1.9768  0.7443  1.3334
 3672SOL    HW211268   2.847   0.545   2.100  2.2780 -1.1444 -2.7820
 3673SOL     OW11269   5.074   3.823   0.994  0.2997  0.4879 -0.3136
 3673SOL    HW111270   5.148   3.870   1.033  0.1135  0.5173  0.0134
 3673SOL    HW211271   5.107   3.735   0.978  0.5133  0.6019 -0.5029
 3674SOL     OW11272   2.994   1.246   5.776  0.3065 -0.1503  0.4235
 3674SOL    HW111273   2.906   1.220   5.747 -0.3495  0.9718  1.3198
 3674SOL    HW211274   3.031   1.291   5.701  0.4489 -1.3113 -0.2355
 3675SOL     OW11275   1.555   2.217   2.775 -0.1535  0.4503 -0.4193
 3675SOL    HW111276   1.581   2.131   2.741  0.7306  1.1048 -1.4642
 3675SOL    HW211277   1.469   2.234   2.735 -0.0580  0.3145 -0.6822
 3676SOL     OW11278   4.335   3.246   6.160  0.2981  0.6782  0.3743
 3676SOL    HW111279   4.243   3.220   6.153  0.4146  0.6592 -1.6420
 3676SOL    HW211280   4.384   3.171   6.127  0.9763  1.1069  0.3884
 3677SOL     OW11281   1.103   1.728   2.645  0.0445  0.0851  0.2121
 3677SOL    HW111282   1.064   1.669   2.580  2.3949 -0.0180 -1.1958
 3677SOL    HW211283   1.120   1.673   2.721 -1.4293 -0.1025  0.4404
 3678SOL     OW11284   1.948   1.929   2.219 -0.3077 -0.2935  0.1460
 3678SOL    HW111285   2.029   1.979   2.205 -1.3017  0.5991 -3.5874
 3678SOL    HW211286   1.977   1.844   2.252  1.9626  0.5764  0.5520
 3679SOL     OW11287   6.270   0.966   6.169 -0.6061 -0.3684 -0.0811
 3679SOL    HW111288   6.317   0.884   6.181  0.9885  0.0652 -2.5195
 3679SOL    HW211289   6.255   1.000   6.257  2.0121 -1.4872  0.8679
 3680SOL     OW11290   2.643   1.543   2.572 -0.6257  0.2786  0.0308
 3680SOL    HW111291   2.692   1.572   2.495 -0.0813 -1.5969 -0.3901
 3680SOL    HW211292   2.560   1.590   2.566 -0.2378  0.8613 -1.2021
 3681SOL     OW11293   4.295   2.896   6.195  0.3347 -0.3336  0.6993
 3681SOL    HW111294   4.325   2.871   6.282 -0.2822 -0.1929  0.9633
 3681SOL    HW211295   4.369   2.940   6.155  0.2774  0.5984  1.5754
 3682SOL     OW11296   5.968   1.292   5.670 -0.2380  0.1643 -0.2707
 3682SOL    HW111297   5.927   1.258   5.749 -1.1031  0.0421 -0.7602
 3682SOL    HW211298   5.902   1.350   5.631  1.0850  2.2523  0.4097
 3683SOL     OW11299   2.119   3.653   0.989  0.4157 -0.3442 -0.4912
 3683SOL    HW111300   2.137   3.646   0.895  2.8323  1.6114 -0.2746
 3683SOL    HW211301   2.192   3.704   1.024 -1.0235  0.0083  2.2878
 3684SOL     OW11302   0.066   4.302   5.571  0.6219 -0.1371  0.1370
 3684SOL    HW111303   0.110   4.231   5.526 -0.8277 -1.7941  1.1907
 3684SOL    HW211304   0.013   4.345   5.503 -0.3723 -1.6415 -0.0914
 3685SOL     OW11305   6.177   2.146   3.285 -0.3925  0.3571 -0.0319
 3685SOL    HW111306   6.227   2.089   3.226  0.8322  1.4635 -0.1217
 3685SOL    HW211307   6.133   2.208   3.227 -0.2970  0.5926  0.1445
 3686SOL     OW11308   0.032   0.474   0.154  0.1400 -0.2959  0.6252
 3686SOL    HW111309   0.028   0.449   0.247 -0.3933 -2.0721  0.1579
 3686SOL    HW211310   0.001   0.397   0.107  0.1837  0.6576 -1.0393
 3687SOL     OW11311   1.460   1.431   0.427  0.0329  0.5683  0.2956
 3687SOL    HW111312   1.387   1.414   0.367  0.8217 -3.1516  0.1403
 3687SOL    HW211313   1.528   1.466   0.371 -0.3180  0.2089 -0.3755
 3688SOL     OW11314   3.830   1.185   4.509  0.5864 -0.1861 -0.2884
 3688SOL    HW111315   3.859   1.217   4.594  0.1768 -2.2523  0.7059
 3688SOL    HW211316   3.776   1.108   4.530 -1.5552  0.6427 -2.2897
 3689SOL     OW11317   6.165   1.610   0.280 -0.8961 -0.6849 -0.4354
 3689SOL    HW111318   6.225   1.541   0.308 -0.7376  0.0081  0.9952
 3689SOL    HW211319   6.215   1.662   0.218  0.1993  0.2036  1.1470
 3690SOL     OW11320   4.924   2.233   4.677 -0.5732 -0.6202  0.5793
 3690SOL    HW111321   4.937   2.322   4.645  2.5763 -1.1121  0.2193
 3690SOL    HW211322   4.906   2.181   4.598  1.0159 -0.8269  0.3337
 3691SOL     OW11323   3.906   3.715   2.845  0.2585  0.2059 -0.1812
 3691SOL    HW111324   3.835   3.746   2.902 -0.6463 -2.1861  0.0848
 3691SOL    HW211325   3.985   3.752   2.885 -0.5444  0.3820  1.3634
 3692SOL     OW11326   2.278   3.887   5.996  0.0154 -0.0391 -0.8329
 3692SOL    HW111327   2.363   3.912   5.961  0.3801 -0.2391 -0.1041
 3692SOL    HW211328   2.215   3.936   5.943  0.6581  1.4702 -0.2418
 3693SOL     OW11329   4.890   5.715   6.077 -0.3651  0.1881  0.2521
 3693SOL    HW111330   4.825   5.785   6.068 -1.1763 -0.6809 -1.0992
 3693SOL    HW211331   4.871   5.676   6.162 -1.1421  0.4074  0.1900
 3694SOL     OW11332   6.091   5.346   6.317 -0.0008 -0.9322  0.5704
 3694SOL    HW111333   6.078   5.259   6.280  0.8706 -0.1787 -1.6750
 3694SOL    HW211334   6.021   5.399   6.278  1.4316  0.0672 -0.7738
 3695SOL     OW11335   2.637   0.708   5.770  0.8630 -0.0561  0.5403
 3695SOL    HW111336   2.598   0.787   5.806  0.3058  0.6967 -1.5437
 3695SOL    HW211337   2.716   0.739   5.725  1.2605 -0.8561  0.6722
 3696SOL     OW11338   5.893   4.491   3.314 -0.0890  0.1034  0.2710
 3696SOL    HW111339   5.830   4.523   3.250 -0.1626 -0.3383  0.1135
 3696SOL    HW211340   5.954   4.437   3.263 -1.5291 -2.2600  0.8654
 3697SOL     OW11341   4.991   0.973   4.058 -0.4398  0.4072  0.3968
 3697SOL    HW111342   5.035   0.889   4.071  0.0584  0.6838  0.5442
 3697SOL    HW211343   4.993   0.987   3.963 -0.9158  0.0494  0.3314
 3698SOL     OW11344   4.121   2.166   2.942 -0.6279 -0.1730  0.2698
 3698SOL    HW111345   4.153   2.078   2.922  0.0827  0.3362 -0.9927
 3698SOL    HW211346   4.201   2.216   2.961 -0.9454  0.3721  0.1949
 3699SOL     OW11347   4.344   1.513   2.537 -0.2674  0.1398  0.0063
 3699SOL    HW111348   4.407   1.458   2.490 -1.9818 -1.6097 -0.3706
 3699SOL    HW211349   4.269   1.519   2.478 -1.0657  0.9214  1.0651
 3700SOL     OW11350   3.629   5.611   0.421  0.2111 -0.6467  0.0656
 3700SOL    HW111351   3.684   5.630   0.345  0.6466 -0.9639  0.2924
 3700SOL    HW211352   3.627   5.693   0.470  0.7810 -0.7283  0.2359
 3701SOL     OW11353   1.111   2.473   3.181 -0.0040  0.0005 -0.0702
 3701SOL    HW111354   1.145   2.493   3.094 -1.2860  0.6776 -0.4421
 3701SOL    HW211355   1.052   2.399   3.167 -0.0568 -0.0195  0.2523
 3702SOL     OW11356   6.120   4.357   3.849  0.4514  0.2402  0.5087
 3702SOL    HW111357   6.207   4.379   3.817  0.1913  0.7281  0.1258
 3702SOL    HW211358   6.087   4.292   3.786  0.0591  0.9726 -0.0477
 3703SOL     OW11359   1.898   0.704   2.130 -0.5278 -0.2477  0.1502
 3703SOL    HW111360   1.950   0.700   2.210  0.6554  0.2837 -0.5605
 3703SOL    HW211361   1.860   0.616   2.122  0.3283 -0.6873  0.6648
 3704SOL     OW11362   3.455   5.149   0.700  0.0509 -0.1250 -0.2370
 3704SOL    HW111363   3.402   5.224   0.674  0.0526  0.0305  0.1972
 3704SOL    HW211364   3.535   5.156   0.647 -0.1306 -0.0637 -0.5061
 3705SOL     OW11365   5.185   5.193   5.104  0.6663  0.2164  0.0650
 3705SOL    HW111366   5.189   5.288   5.111  2.1816  0.3684 -1.6862
 3705SOL    HW211367   5.234   5.174   5.023 -2.3692 -1.8206 -1.4804
 3706SOL     OW11368   3.251   3.152   6.212 -0.1546  0.0159 -0.0585
 3706SOL    HW111369   3.258   3.220   6.146  0.2935 -1.1152 -1.2049
 3706SOL    HW211370   3.158   3.128   6.212 -0.0066 -0.5775 -0.9036
 3707SOL     OW11371   0.263   1.951   3.930  0.2566  0.0880 -0.4227
 3707SOL    HW111372   0.184   2.005   3.934  0.1745 -0.0382 -0.3224
 3707SOL    HW211373   0.238   1.875   3.879  0.5197  0.3854 -1.0056
 3708SOL     OW11374   4.152   3.494   4.403  0.1497  0.0824  0.4107
 3708SOL    HW111375   4.221   3.553   4.432  0.5393  0.0022 -0.3235
 3708SOL    HW211376   4.161   3.491   4.308  1.6808 -2.9268  0.5046
 3709SOL     OW11377   1.082   0.153   2.306 -0.2839  0.1895  0.3489
 3709SOL    HW111378   1.151   0.219   2.299 -0.1892 -0.0565 -1.9819
 3709SOL    HW211379   1.100   0.107   2.388  1.7118  0.7837  0.2995
 3710SOL     OW11380   2.616   4.521   5.097 -0.3371 -0.2388  0.3460
 3710SOL    HW111381   2.560   4.533   5.020 -0.0115 -1.0556 -0.0312
 3710SOL    HW211382   2.692   4.473   5.064  0.1365  0.0163  1.0467
 3711SOL     OW11383   3.400   2.003   5.922 -0.1470  0.1769  0.5774
 3711SOL    HW111384   3.452   1.937   5.968 -0.3918 -0.0418  0.5427
 3711SOL    HW211385   3.337   2.033   5.987 -1.0532 -0.7435  0.1542
 3712SOL     OW11386   2.386   5.876   2.296  0.0520 -0.5563  0.2949
 3712SOL    HW111387   2.454   5.811   2.282  1.0245  0.5074 -0.0256
 3712SOL    HW211388   2.432   5.959   2.300 -1.3426  0.3752 -1.3639
 3713SOL     OW11389   4.726   5.120   0.377  0.2519  0.1297 -0.7372
 3713SOL    HW111390   4.654   5.170   0.415 -1.3923 -1.4893 -1.6116
 3713SOL    HW211391   4.742   5.049   0.439 -0.9053 -1.1903 -1.8815
 3714SOL     OW11392   4.477   1.838   3.021 -0.0264 -0.5034 -0.0973
 3714SOL    HW111393   4.489   1.785   3.100 -2.0156 -1.4346 -0.3610
 3714SOL    HW211394   4.549   1.810   2.963 -1.0131 -3.0589 -0.2468
 3715SOL     OW11395   0.357   2.973   0.297  0.6431 -0.3764  0.0679
 3715SOL    HW111396   0.354   2.917   0.220 -0.7608  0.2129 -0.3297
 3715SOL    HW211397   0.423   2.932   0.354  2.2309 -0.4186 -1.7189
 3716SOL     OW11398   0.104   5.500   5.434  0.1292 -0.5540 -0.4677
 3716SOL    HW111399   0.158   5.489   5.355  0.0884 -0.9938 -0.4349
 3716SOL    HW211400   0.167   5.507   5.505  0.1427 -1.5338 -0.3701
 3717SOL     OW11401   5.885   4.185   6.130 -0.1896 -0.4727 -0.1220
 3717SOL    HW111402   5.907   4.143   6.047  1.3403  0.4427 -0.2022
 3717SOL    HW211403   5.866   4.112   6.189  0.1356 -1.1817 -0.8723
 3718SOL     OW11404   1.098   2.800   2.964  0.4099  0.3595  0.4088
 3718SOL    HW111405   1.029   2.738   2.940 -0.2393  0.5071  1.7809
 3718SOL    HW211406   1.098   2.800   3.059  1.7943  0.9539  0.4322
 3719SOL     OW11407   3.975   2.838   0.468 -0.0946  0.5151  0.5668
 3719SOL    HW111408   3.911   2.870   0.403 -1.8789 -1.0600  1.4402
 3719SOL    HW211409   3.945   2.874   0.551 -1.3195 -2.0503  1.3483
 3720SOL     OW11410   1.500   1.302   6.200  0.2544 -0.1902  0.6983
 3720SOL    HW111411   1.504   1.282   6.107 -1.0272  0.9176  0.3726
 3720SOL    HW211412   1.590   1.327   6.223  0.5591 -0.3595 -0.2526
 3721SOL     OW11413   1.535   3.013   3.942 -0.4255  0.3030  0.1863
 3721SOL    HW111414   1.511   2.967   4.023  0.3218 -0.2730  0.0980
 3721SOL    HW211415   1.544   2.943   3.877  0.7607  0.5475  0.0560
 3722SOL     OW11416   1.120   3.547   3.118 -0.6310 -0.1887  0.4600
 3722SOL    HW111417   1.048   3.610   3.115 -0.9816 -0.6102 -1.4131
 3722SOL    HW211418   1.079   3.463   3.098  0.0884 -0.7535  1.3036
 3723SOL     OW11419   5.341   6.110   0.141  0.0618  0.1234  0.3142
 3723SOL    HW111420   5.366   6.027   0.181 -1.7003  0.1637  1.6138
 3723SOL    HW211421   5.314   6.165   0.215  2.3965  2.3817 -0.3357
 3724SOL     OW11422   1.315   2.263   0.183  0.8752 -0.0100 -0.3097
 3724SOL    HW111423   1.346   2.354   0.185 -1.0850  0.7780 -1.9214
 3724SOL    HW211424   1.333   2.233   0.095 -2.9930  0.6777 -1.5631
 3725SOL     OW11425   0.129   5.789   5.031  0.0595  0.1792 -0.2862
 3725SOL    HW111426   0.219   5.757   5.023 -0.3996 -0.7832 -2.1025
 3725SOL    HW211427   0.114   5.795   5.125  2.4073  1.5548  0.0864
 3726SOL     OW11428   3.797   3.248   5.268  0.0207 -0.0665 -0.6373
 3726SOL    HW111429   3.869   3.305   5.240 -1.2174  1.4937 -0.7407
 3726SOL    HW211430   3.718   3.293   5.239 -1.0034 -2.4777 -1.9227
 3727SOL     OW11431   4.185   2.654   1.971 -0.2321  0.3035  0.6943
 3727SOL    HW111432   4.205   2.562   1.954 -0.4092 -0.5259  4.1476
 3727SOL    HW211433   4.134   2.682   1.895 -0.4673 -2.5431 -0.3297
 3728SOL     OW11434   0.516   5.631   0.303  0.3363 -0.2100  0.5484
 3728SOL    HW111435   0.441   5.683   0.274  0.7226 -0.6508 -1.3707
 3728SOL    HW211436   0.552   5.680   0.376 -0.0882  1.5380 -0.3610
 3729SOL     OW11437   4.282   2.374   0.818 -0.0693 -0.4904  0.0717
 3729SOL    HW111438   4.219   2.446   0.819  1.4206  0.8855  0.6172
 3729SOL    HW211439   4.316   2.373   0.729 -0.6863 -1.0805 -0.1607
 3730SOL     OW11440   4.260   1.609   2.280  0.0001 -0.0757 -0.1411
 3730SOL    HW111441   4.197   1.543   2.254 -0.5429  0.6418 -0.6885
 3730SOL    HW211442   4.337   1.593   2.225 -0.4646  0.3023 -0.9120
 3731SOL     OW11443   6.281   4.660   1.587 -0.2774 -0.0682  0.0886
 3731SOL    HW111444   6.335   4.688   1.661  0.8832  0.8049 -1.0478
 3731SOL    HW211445   6.228   4.736   1.564 -1.8257 -0.8254  0.9990
 3732SOL     OW11446   4.523   2.431   0.021  0.1049  0.3177 -0.0978
 3732SOL    HW111447   4.449   2.459   0.075 -0.0823 -1.1499  0.4539
 3732SOL    HW211448   4.595   2.486   0.048 -0.4055  0.7189  0.4716
 3733SOL     OW11449   1.324   4.855   5.173 -0.1097 -0.0838  0.1967
 3733SOL    HW111450   1.349   4.927   5.116  1.1321 -0.1901  0.5720
 3733SOL    HW211451   1.235   4.832   5.146 -0.5559  1.6108  0.1025
 3734SOL     OW11452   5.301   4.965   1.140 -0.3755 -0.1892  0.3191
 3734SOL    HW111453   5.347   4.947   1.222 -0.7817 -0.1474  0.5616
 3734SOL    HW211454   5.365   4.949   1.072  0.1938  0.5035  0.6788
 3735SOL     OW11455   5.461   3.452   0.040 -0.3314 -0.1514  0.7708
 3735SOL    HW111456   5.394   3.441  -0.028  0.2554 -1.1640  0.3250
 3735SOL    HW211457   5.455   3.544   0.065 -1.2963 -0.0189  0.1214
 3736SOL     OW11458   5.279   1.864   5.577 -0.1831  0.0686 -0.7075
 3736SOL    HW111459   5.289   1.771   5.599 -2.3437 -0.0305  0.1330
 3736SOL    HW211460   5.241   1.864   5.489  1.9217  0.2615 -1.6551
 3737SOL     OW11461   0.349   4.350   5.949 -0.4975  0.2988  0.0793
 3737SOL    HW111462   0.339   4.383   5.859  1.5174 -0.3018 -0.4257
 3737SOL    HW211463   0.308   4.416   6.004 -1.1111  1.0573 -1.2388
 3738SOL     OW11464   1.905   0.576   3.834 -0.4399  0.2009  0.3481
 3738SOL    HW111465   1.822   0.535   3.861 -0.4187  0.9907  1.7055
 3738SOL    HW211466   1.879   0.662   3.802 -0.1420  0.4735  0.8343
 3739SOL     OW11467   4.981   2.861   4.553 -0.0614  0.5355  0.6684
 3739SOL    HW111468   5.030   2.907   4.485 -0.3727 -0.3494 -0.1862
 3739SOL    HW211469   5.027   2.778   4.564 -2.5050 -1.3198 -1.7783
 3740SOL     OW11470   3.043   1.190   2.536  0.2271  0.3800  0.0538
 3740SOL    HW111471   3.116   1.141   2.498 -0.4349  0.4020 -1.3125
 3740SOL    HW211472   3.074   1.281   2.539  0.0258  0.5090 -1.1985
 3741SOL     OW11473   6.192   3.179   0.842  0.0614  0.4670 -0.1816
 3741SOL    HW111474   6.256   3.117   0.808 -0.2038  0.0758  0.0237
 3741SOL    HW211475   6.237   3.222   0.915 -0.4180 -0.9225  0.9834
 3742SOL     OW11476   4.705   5.296   3.748  0.5847 -0.2808  0.3005
 3742SOL    HW111477   4.628   5.240   3.737  1.3149 -1.6336  1.6617
 3742SOL    HW211478   4.686   5.348   3.827  0.4983  0.3963 -0.1592
 3743SOL     OW11479   1.036   3.509   2.780  0.4875  0.2412 -0.2144
 3743SOL    HW111480   1.111   3.562   2.805 -0.3111  1.1217  0.3915
 3743SOL    HW211481   0.974   3.571   2.741 -0.1618 -0.3720 -0.1877
 3744SOL     OW11482   0.978   3.379   4.865 -0.4916 -0.2465 -0.5314
 3744SOL    HW111483   1.045   3.318   4.835 -1.0672 -1.3831  0.3936
 3744SOL    HW211484   0.895   3.335   4.846 -0.9409  0.4974 -0.3541
 3745SOL     OW11485   2.029   6.137   0.312 -0.4446 -0.8742 -0.1641
 3745SOL    HW111486   1.985   6.066   0.358 -2.2988  1.1839  1.4417
 3745SOL    HW211487   2.000   6.128   0.221 -1.8083 -1.3258  0.2923
 3746SOL     OW11488   6.337   4.529   1.100  0.5236  0.2882  0.0220
 3746SOL    HW111489   6.390   4.481   1.037 -1.0681 -0.8294 -0.5440
 3746SOL    HW211490   6.347   4.481   1.182 -1.0948 -1.1332 -0.5523
 3747SOL     OW11491   0.028   2.083   0.226  0.0077  0.4289  0.5657
 3747SOL    HW111492  -0.054   2.118   0.260 -0.9145 -1.7604  0.7121
 3747SOL    HW211493   0.085   2.078   0.303 -0.7859 -0.9242  1.0928
 3748SOL     OW11494   4.085   5.568   0.629 -0.4556 -0.4612  0.4758
 3748SOL    HW111495   4.099   5.594   0.720  0.1468  1.2012 -0.0584
 3748SOL    HW211496   4.024   5.633   0.594 -0.8221 -1.1850 -0.2776
 3749SOL     OW11497   3.585   0.125   6.072 -0.3087 -0.6589 -0.7333
 3749SOL    HW111498   3.631   0.066   6.132  0.1341 -0.6975 -1.1003
 3749SOL    HW211499   3.654   0.157   6.013 -0.6236 -0.1176 -0.8083
 3750SOL     OW11500   2.165   5.505   3.012 -0.7506 -0.4798 -0.3759
 3750SOL    HW111501   2.151   5.536   3.102 -0.9583 -0.1631 -0.5193
 3750SOL    HW211502   2.144   5.411   3.017  0.7795 -0.8112  0.2631
 3751SOL     OW11503   3.956   0.761   3.479 -0.0015 -0.0316 -0.1239
 3751SOL    HW111504   3.889   0.735   3.416 -0.8761  3.4320 -0.8825
 3751SOL    HW211505   3.995   0.840   3.441  0.7001  1.1719  2.7959
 3752SOL     OW11506   3.556   3.238   0.296 -0.2897 -0.4832 -0.6839
 3752SOL    HW111507   3.532   3.255   0.205 -0.3003  2.2781 -0.2640
 3752SOL    HW211508   3.502   3.164   0.322  0.4339 -1.9887 -3.1717
 3753SOL     OW11509   4.032   1.575   3.720 -0.3722  0.3373 -0.5050
 3753SOL    HW111510   3.952   1.614   3.754 -0.1038  0.2801  0.2264
 3753SOL    HW211511   4.076   1.541   3.798  1.2868  2.0455 -0.6322
 3754SOL     OW11512   2.987   0.853   1.078  0.1929  0.1446 -0.4478
 3754SOL    HW111513   3.020   0.870   1.167 -2.8877  0.0593  0.8469
 3754SOL    HW211514   3.026   0.770   1.054  2.6752  1.1080 -0.0790
 3755SOL     OW11515   3.566   0.117   2.423  0.5120 -0.0256  0.2781
 3755SOL    HW111516   3.483   0.102   2.467  0.4777 -0.7279 -0.0256
 3755SOL    HW211517   3.542   0.157   2.340  0.4961 -0.0522  0.2702
 3756SOL     OW11518   1.349   2.076   5.366 -0.0278  0.2304  0.1370
 3756SOL    HW111519   1.403   2.092   5.444  0.2162 -0.9525  0.2312
 3756SOL    HW211520   1.392   2.002   5.323 -0.8039  0.1608 -0.5251
 3757SOL     OW11521   5.206   4.926   1.545 -0.0910  0.1027  0.2194
 3757SOL    HW111522   5.145   4.885   1.484 -1.0095 -1.3851  2.0314
 3757SOL    HW211523   5.192   5.020   1.535  0.4921 -0.0240 -2.4834
 3758SOL     OW11524   2.236   3.291   3.718  0.2118 -0.0020 -0.5999
 3758SOL    HW111525   2.285   3.215   3.687 -0.1688 -0.2097 -0.6974
 3758SOL    HW211526   2.294   3.333   3.782 -0.6306 -1.9159  1.5485
 3759SOL     OW11527   4.152   3.373   2.326 -0.0411 -0.4973  0.0755
 3759SOL    HW111528   4.089   3.384   2.397  1.2288  1.2773  0.9964
 3759SOL    HW211529   4.175   3.462   2.301 -0.1117 -1.0680 -2.3112
 3760SOL     OW11530   3.790   3.558   4.077 -0.1472 -0.2776  0.1013
 3760SOL    HW111531   3.782   3.499   4.152 -1.8343 -0.9755 -0.5841
 3760SOL    HW211532   3.771   3.645   4.113 -1.1537 -0.6333  0.4407
 3761SOL     OW11533   1.893   3.600   0.124 -0.2154  0.0044  0.2065
 3761SOL    HW111534   1.861   3.612   0.035 -1.1391  0.8830  0.6360
 3761SOL    HW211535   1.840   3.528   0.159  0.9217 -1.1018 -0.3033
 3762SOL     OW11536   5.772   3.796   6.097 -0.2893 -0.2669  0.2732
 3762SOL    HW111537   5.789   3.850   6.175  1.9270 -0.4638  0.0055
 3762SOL    HW211538   5.802   3.709   6.122 -3.0506 -1.2767  0.4070
 3763SOL     OW11539   3.466   0.858   2.344 -0.2852  0.4459  0.3436
 3763SOL    HW111540   3.407   0.853   2.269 -1.3855  0.4062  1.1637
 3763SOL    HW211541   3.528   0.928   2.323 -0.1125 -0.0709 -0.8984
 3764SOL     OW11542   6.062   3.081   1.962  0.0248 -0.0338 -0.0072
 3764SOL    HW111543   6.070   2.987   1.979 -1.9110 -0.4062 -0.8385
 3764SOL    HW211544   5.979   3.089   1.915  1.0967  1.8641 -1.7319
 3765SOL     OW11545   2.720   0.259   2.345 -0.3736  0.1969 -0.3225
 3765SOL    HW111546   2.706   0.176   2.299 -0.3926 -0.2505  0.4721
 3765SOL    HW211547   2.712   0.237   2.438  0.8237  0.8451 -0.0376
 3766SOL     OW11548   2.148   0.715   3.447 -0.0595  0.2980 -0.7626
 3766SOL    HW111549   2.242   0.719   3.467 -0.7655 -1.3824  4.3604
 3766SOL    HW211550   2.115   0.800   3.476 -0.6840 -1.1125  3.2585
 3767SOL     OW11551   0.044   3.202   2.109 -0.2989 -0.1594 -0.0243
 3767SOL    HW111552   0.050   3.280   2.165 -1.2789 -0.2167  0.1750
 3767SOL    HW211553   0.134   3.169   2.104 -0.1924 -0.1966  1.6030
 3768SOL     OW11554   2.384   4.116   2.855  0.2162 -0.4098 -0.1747
 3768SOL    HW111555   2.338   4.190   2.893 -0.9542 -1.3822  0.3653
 3768SOL    HW211556   2.416   4.149   2.771  0.5420  0.9685  0.4574
 3769SOL     OW11557   4.102   5.798   2.553 -0.1147  0.0249 -0.5681
 3769SOL    HW111558   4.087   5.891   2.540 -1.4030 -0.2609 -1.3790
 3769SOL    HW211559   4.052   5.777   2.632  0.6439  0.1157 -0.0529
 3770SOL     OW11560   1.745   5.112   3.684 -0.0799  0.6092  0.0694
 3770SOL    HW111561   1.744   5.023   3.649 -0.4713  0.5043  0.3382
 3770SOL    HW211562   1.660   5.149   3.658 -0.6220  0.3413  1.3673
 3771SOL     OW11563   0.016   6.223   4.845  0.0277  0.1700 -0.3186
 3771SOL    HW111564  -0.031   6.141   4.862 -0.7298  0.5070 -0.7617
 3771SOL    HW211565  -0.027   6.287   4.901 -0.0880  0.4951 -0.7734
 3772SOL     OW11566   0.950   0.395   4.137 -0.1457  0.4028  0.0982
 3772SOL    HW111567   0.881   0.424   4.197 -0.0110 -0.8637  0.8838
 3772SOL    HW211568   0.920   0.425   4.051 -1.6025  0.0383  0.4464
 3773SOL     OW11569   4.205   1.706   0.409 -0.7087  0.2704  0.5421
 3773SOL    HW111570   4.215   1.698   0.314 -0.2002  1.2780  0.4994
 3773SOL    HW211571   4.277   1.655   0.445  0.4829  1.7318  0.3319
 3774SOL     OW11572   0.003   3.856   2.776 -0.1476  0.0072 -0.4043
 3774SOL    HW111573  -0.061   3.913   2.819 -0.0002  0.0256 -0.2046
 3774SOL    HW211574  -0.048   3.806   2.713 -0.3035  0.2515 -0.4722
 3775SOL     OW11575   0.817   0.000   2.851 -0.5170 -0.0713 -0.2036
 3775SOL    HW111576   0.909   0.025   2.841 -0.9792  1.4415 -0.9508
 3775SOL    HW211577   0.790   0.044   2.932 -0.1908 -1.8202  0.9008
 3776SOL     OW11578   2.657   6.302   0.384  0.4369  0.6197 -0.5290
 3776SOL    HW111579   2.680   6.226   0.437  0.5535  1.2558  0.3533
 3776SOL    HW211580   2.623   6.366   0.447  1.6442  1.8225 -1.0325
 3777SOL     OW11581   0.283   3.126   2.515 -0.3864 -0.5592 -0.0802
 3777SOL    HW111582   0.291   3.202   2.572  0.0143 -0.4104 -0.3331
 3777SOL    HW211583   0.189   3.122   2.493 -0.2192  0.6293 -1.1164
 3778SOL     OW11584   4.045   1.327   2.442  0.5493 -0.0062  0.1827
 3778SOL    HW111585   4.102   1.312   2.366  0.1282  1.3723 -0.4479
 3778SOL    HW211586   4.000   1.409   2.422 -1.2052 -0.7290  0.9528
 3779SOL     OW11587   5.326   4.743   0.635 -0.0588  0.1854  0.1192
 3779SOL    HW111588   5.356   4.656   0.608  0.3379 -0.1954  1.6365
 3779SOL    HW211589   5.405   4.798   0.631 -0.1047  0.2455  0.0408
 3780SOL     OW11590   0.675   0.026   1.516 -0.1839 -0.2922 -0.6068
 3780SOL    HW111591   0.593   0.069   1.491 -0.5776 -0.6642  0.0210
 3780SOL    HW211592   0.690  -0.039   1.447 -1.4673 -1.5809  0.2555
 3781SOL     OW11593   4.248   0.490   5.214  0.1372  0.1716  0.1893
 3781SOL    HW111594   4.259   0.407   5.168  1.4358  0.5626 -0.2520
 3781SOL    HW211595   4.337   0.526   5.220 -0.1647  0.7204  1.8948
 3782SOL     OW11596   5.778   0.889   1.527 -0.1809  0.2690 -0.3928
 3782SOL    HW111597   5.705   0.939   1.562  0.1482  0.8562 -0.5267
 3782SOL    HW211598   5.851   0.907   1.587  1.0169  3.0457 -2.4678
 3783SOL     OW11599   3.281   2.107   2.539 -0.0049  0.0729 -0.6761
 3783SOL    HW111600   3.209   2.154   2.497  0.4043  0.6141 -0.7903
 3783SOL    HW211601   3.240   2.063   2.614 -0.4944  0.1924 -0.8667
 3784SOL     OW11602   4.290   5.472   4.580 -0.5239 -0.4231  0.1308
 3784SOL    HW111603   4.385   5.477   4.589 -0.5529 -0.4313  0.4706
 3784SOL    HW211604   4.260   5.436   4.664 -0.6374 -2.6179 -0.7816
 3785SOL     OW11605   4.106   5.448   2.114 -0.3934  0.4041  0.2699
 3785SOL    HW111606   4.114   5.522   2.054  1.6107 -0.4271 -0.5655
 3785SOL    HW211607   4.154   5.475   2.192  0.6978 -0.1461 -0.1965
 3786SOL     OW11608   6.108   6.257   2.540 -0.1216 -0.4787 -0.2342
 3786SOL    HW111609   6.165   6.246   2.464  0.2902 -2.3611  0.2765
 3786SOL    HW211610   6.038   6.193   2.527 -0.4536 -0.3053  0.6034
 3787SOL     OW11611   1.959   2.868   1.348  0.2057 -0.3027  0.2159
 3787SOL    HW111612   1.916   2.914   1.276  2.2338  1.4631  0.0235
 3787SOL    HW211613   1.937   2.920   1.426  0.4514 -0.4774  0.4026
 3788SOL     OW11614   1.121   3.378   1.154 -0.0691 -0.0572 -0.0111
 3788SOL    HW111615   1.184   3.376   1.081 -0.0952 -1.5305 -0.0094
 3788SOL    HW211616   1.062   3.451   1.132  0.2435 -0.1418 -1.1957
 3789SOL     OW11617   1.441   2.506   3.545  0.5326 -0.2900 -0.0772
 3789SOL    HW111618   1.490   2.469   3.471 -0.3102 -1.2209 -0.1980
 3789SOL    HW211619   1.354   2.466   3.538  0.3551 -0.1714  1.2560
 3790SOL     OW11620   3.617   0.521   2.656 -0.1776 -0.2202 -0.2916
 3790SOL    HW111621   3.578   0.476   2.731  0.5991  0.2613  0.4225
 3790SOL    HW211622   3.571   0.605   2.651 -0.6599 -0.5115 -0.7452
 3791SOL     OW11623   0.499   1.313   4.268 -0.1907  0.4542  0.4121
 3791SOL    HW111624   0.436   1.301   4.339  0.5370 -1.4568  0.7895
 3791SOL    HW211625   0.585   1.310   4.311  0.2138  1.6506 -0.2655
 3792SOL     OW11626   1.258   6.279   3.259 -0.1778  0.0703  0.0069
 3792SOL    HW111627   1.291   6.248   3.175 -0.0407  0.7346 -0.1921
 3792SOL    HW211628   1.177   6.326   3.238 -0.4211 -0.2064  0.3103
 3793SOL     OW11629   4.223   1.900   2.913  0.2756  0.7450 -0.3308
 3793SOL    HW111630   4.167   1.847   2.970  0.6630 -0.6129 -1.1472
 3793SOL    HW211631   4.308   1.900   2.957 -0.1714  2.2936  0.6013
 3794SOL     OW11632   3.065   5.363   0.896  0.2795  0.6199  0.1935
 3794SOL    HW111633   3.056   5.424   0.823 -2.1864 -0.2213 -0.3041
 3794SOL    HW211634   3.053   5.417   0.974 -0.8137  0.9731 -0.2009
 3795SOL     OW11635   4.190   5.586   1.767 -0.3700  0.0055  0.6704
 3795SOL    HW111636   4.225   5.503   1.800  0.8362  0.0340 -0.4633
 3795SOL    HW211637   4.239   5.653   1.815  0.2409  0.0433  0.0149
 3796SOL     OW11638   1.259   5.064   1.698  0.1077  0.3903 -0.2701
 3796SOL    HW111639   1.297   4.984   1.662  0.0472  0.7476 -1.1372
 3796SOL    HW211640   1.198   5.033   1.765 -0.3485 -0.3169 -1.0000
 3797SOL     OW11641   2.766   5.380   2.074  0.1181  0.5923 -0.1729
 3797SOL    HW111642   2.824   5.309   2.047  0.5494  1.0893 -0.6024
 3797SOL    HW211643   2.822   5.439   2.124 -0.7804 -0.5565  2.3600
 3798SOL     OW11644   0.736   0.279   3.003  0.0501  0.5636  0.0276
 3798SOL    HW111645   0.652   0.240   2.977  0.4317 -0.3492  0.1423
 3798SOL    HW211646   0.757   0.238   3.087  0.1006  1.5781  0.5280
 3799SOL     OW11647   6.321   4.466   1.376 -0.5316 -0.3584  0.5648
 3799SOL    HW111648   6.308   4.525   1.450  1.3008  1.5800 -0.5341
 3799SOL    HW211649   6.252   4.400   1.385 -1.1068  0.4927  3.2777
 3800SOL     OW11650   5.277   3.480   0.589 -0.2549 -0.9858 -0.3173
 3800SOL    HW111651   5.289   3.490   0.495 -0.2441 -2.2624 -0.4656
 3800SOL    HW211652   5.341   3.414   0.615  0.1770 -0.2060  0.7102
 3801SOL     OW11653   4.030   4.263   5.534 -0.4286 -0.2547 -0.1247
 3801SOL    HW111654   4.063   4.243   5.621  0.8020 -0.5365 -0.6382
 3801SOL    HW211655   4.108   4.265   5.478 -1.2049 -0.2192 -1.2475
 3802SOL     OW11656   5.246   2.135   0.472 -0.6010 -0.2127 -0.0029
 3802SOL    HW111657   5.203   2.141   0.558  0.2891 -0.8331  0.4952
 3802SOL    HW211658   5.294   2.053   0.475 -0.7476 -0.3613 -1.2006
 3803SOL     OW11659   0.913   1.962   2.132 -0.1660  0.8685 -0.2220
 3803SOL    HW111660   0.830   1.949   2.085  0.8861  0.4210 -2.0574
 3803SOL    HW211661   0.932   2.055   2.122 -0.0402  0.8107 -0.5477
 3804SOL     OW11662   1.991   4.331   0.631 -0.7055  0.2486  0.8065
 3804SOL    HW111663   2.062   4.396   0.623 -0.7026  0.1371 -0.1887
 3804SOL    HW211664   1.922   4.364   0.574 -0.1668 -1.3135 -0.8254
 3805SOL     OW11665   6.193   1.047   2.298 -0.1302  0.0201 -0.3113
 3805SOL    HW111666   6.188   1.085   2.386  0.3957  0.0102 -0.2794
 3805SOL    HW211667   6.172   0.955   2.310  1.4218 -0.3012  0.0227
 3806SOL     OW11668   5.672   6.070   0.898 -0.2507 -0.1472  0.4093
 3806SOL    HW111669   5.701   6.156   0.868  0.6791 -0.8620 -0.8686
 3806SOL    HW211670   5.585   6.085   0.934 -0.0348  1.3539  0.3897
 3807SOL     OW11671   4.129   0.528   1.969 -0.4284  0.1975 -0.2375
 3807SOL    HW111672   4.175   0.468   2.029 -1.1100 -0.5527 -0.4462
 3807SOL    HW211673   4.043   0.488   1.957 -0.4923  0.6246 -1.2970
 3808SOL     OW11674   3.432   6.181   4.229  0.0031  0.1554 -0.2909
 3808SOL    HW111675   3.397   6.105   4.276 -0.7957 -0.1823 -1.4213
 3808SOL    HW211676   3.374   6.254   4.254  1.4359  0.7204  1.7133
 3809SOL     OW11677   5.274   1.351   3.787  0.1174 -0.7106 -0.3365
 3809SOL    HW111678   5.319   1.405   3.852  1.4255 -2.2437  0.1100
 3809SOL    HW211679   5.214   1.411   3.743  2.6290  1.5432 -0.9969
 3810SOL     OW11680   6.249   0.182   3.857 -0.3740 -0.2449 -0.0952
 3810SOL    HW111681   6.298   0.163   3.938  1.4031 -0.2837 -1.1258
 3810SOL    HW211682   6.201   0.102   3.839 -0.3058 -0.4518  0.5929
 3811SOL     OW11683   0.753   5.269   0.623  0.4923  0.4272 -0.0018
 3811SOL    HW111684   0.820   5.289   0.557  0.3850  0.0537 -0.2298
 3811SOL    HW211685   0.744   5.173   0.619  3.2650 -0.1681  3.2023
 3812SOL     OW11686   1.483   0.068   5.790 -0.7740  0.3174  0.4440
 3812SOL    HW111687   1.540   0.040   5.718 -2.1608  0.0416 -0.5820
 3812SOL    HW211688   1.537   0.058   5.868  0.3511 -0.6084 -0.4090
 3813SOL     OW11689   3.873   2.306   5.757  0.0583  0.0841  0.2808
 3813SOL    HW111690   3.819   2.232   5.731 -0.4288 -0.7889  3.3865
 3813SOL    HW211691   3.963   2.273   5.756  0.3120  0.6844 -2.0770
 3814SOL     OW11692   1.249   5.923   2.285 -0.0807 -0.3476 -0.3772
 3814SOL    HW111693   1.338   5.949   2.310 -0.1544 -0.1774 -0.2831
 3814SOL    HW211694   1.253   5.829   2.273  0.5534 -0.1024 -2.2428
 3815SOL     OW11695   2.842   0.753   0.748 -0.3468  0.0048 -0.0838
 3815SOL    HW111696   2.882   0.829   0.789 -1.7691  0.7900 -0.0719
 3815SOL    HW211697   2.750   0.757   0.776 -0.9163 -0.5350 -1.7434
 3816SOL     OW11698   5.735   0.195   5.623  0.0882 -0.1479 -1.0091
 3816SOL    HW111699   5.649   0.211   5.584 -0.6961  0.5321  0.8633
 3816SOL    HW211700   5.787   0.271   5.598 -0.3722  0.2360 -0.8313
 3817SOL     OW11701   1.915   4.046   5.517 -0.5480  0.0797  0.3323
 3817SOL    HW111702   1.919   3.968   5.462 -1.1080  0.2961 -0.0254
 3817SOL    HW211703   2.006   4.067   5.535 -0.3920 -1.5561  1.7297
 3818SOL     OW11704   4.386   4.182   2.481  0.2530  0.4473 -0.8802
 3818SOL    HW111705   4.371   4.228   2.564  1.3037 -0.4693 -0.1616
 3818SOL    HW211706   4.390   4.252   2.415  0.6636  1.2885  0.0210
 3819SOL     OW11707   4.427   2.459   2.970  0.4492 -0.3636 -0.2388
 3819SOL    HW111708   4.432   2.534   3.029 -0.3146  0.5097 -1.2419
 3819SOL    HW211709   4.393   2.388   3.024 -1.1007  0.6614  0.1777
 3820SOL     OW11710   0.890   1.007   0.588  0.5580  0.5264  0.3484
 3820SOL    HW111711   0.863   1.009   0.496 -0.0635 -1.0031  0.4648
 3820SOL    HW211712   0.844   1.081   0.628  0.3420  0.8293 -0.4443
 3821SOL     OW11713   3.084   1.954   3.597 -0.7036 -0.2240  0.5980
 3821SOL    HW111714   3.027   2.030   3.583  0.4186  0.6883  0.8235
 3821SOL    HW211715   3.137   1.950   3.517 -0.7081 -0.7337  0.6199
 3822SOL     OW11716   4.654   1.579   4.045  0.1774 -0.5085  0.2531
 3822SOL    HW111717   4.697   1.642   4.102 -1.6754  0.0314  1.1142
 3822SOL    HW211718   4.606   1.632   3.982 -1.1381 -1.0183  0.7839
 3823SOL     OW11719   0.178   4.787   1.299  0.4329 -0.0995  0.4100
 3823SOL    HW111720   0.152   4.780   1.391  0.0627 -0.0608  0.3106
 3823SOL    HW211721   0.128   4.718   1.256  0.4706 -0.0011  0.2102
 3824SOL     OW11722   3.477   3.810   6.104  0.0331 -0.0503 -0.4035
 3824SOL    HW111723   3.496   3.744   6.038  0.1467 -1.3953  0.9164
 3824SOL    HW211724   3.543   3.795   6.173 -0.8010  0.5282  0.5537
 3825SOL     OW11725   4.034   3.917   3.628 -0.2753  0.6288  0.2029
 3825SOL    HW111726   3.974   3.940   3.699  1.3233  2.6844  0.9782
 3825SOL    HW211727   4.112   3.882   3.672  0.4956  1.3480 -0.5432
 3826SOL     OW11728   0.560   4.277   2.850 -0.3057  0.4142  0.4306
 3826SOL    HW111729   0.655   4.284   2.863  0.0576 -0.8981 -1.2209
 3826SOL    HW211730   0.524   4.355   2.894  1.2760 -0.2880  3.2050
 3827SOL     OW11731   1.230   4.049   3.730  0.3582  0.6309 -0.3205
 3827SOL    HW111732   1.157   3.987   3.733  0.0146  1.0556  0.1717
 3827SOL    HW211733   1.291   4.018   3.797  0.8231  0.0567 -0.9854
 3828SOL     OW11734   1.778   1.367   6.046 -0.0579 -0.1621 -0.6125
 3828SOL    HW111735   1.761   1.283   6.005 -1.5981 -0.0026 -0.3860
 3828SOL    HW211736   1.839   1.412   5.987 -1.1175 -0.4816 -1.9912
 3829SOL     OW11737   3.093   2.437   1.976 -0.2615 -0.8230  0.6129
 3829SOL    HW111738   3.084   2.341   1.974  1.1775 -1.0224 -2.4050
 3829SOL    HW211739   3.013   2.470   1.936  0.5266 -1.0329 -1.2635
 3830SOL     OW11740   6.061   5.554   5.851  0.3798 -0.5091  0.1860
 3830SOL    HW111741   6.035   5.577   5.762  1.2310  0.6170  0.1903
 3830SOL    HW211742   6.099   5.467   5.844  0.0018 -0.6238 -0.4696
 3831SOL     OW11743   5.769   0.445   1.028  0.0048 -0.3458 -0.2354
 3831SOL    HW111744   5.767   0.463   1.122 -0.9896  1.8501 -0.6094
 3831SOL    HW211745   5.680   0.414   1.009 -0.3216  0.8260 -0.6935
 3832SOL     OW11746   2.801   6.035   3.670 -0.4579 -0.2275  0.0945
 3832SOL    HW111747   2.815   6.122   3.634 -0.9503  0.8913  2.4389
 3832SOL    HW211748   2.886   5.992   3.662  0.0824  0.8514 -0.1187
 3833SOL     OW11749   1.542   2.010   3.031 -0.1404 -0.0188 -0.1454
 3833SOL    HW111750   1.525   2.105   3.029  1.7343  0.3407 -0.6407
 3833SOL    HW211751   1.515   1.980   2.944 -0.6915  0.0527 -0.0059
 3834SOL     OW11752   0.323   2.730   3.314  0.1968 -0.0506  0.0310
 3834SOL    HW111753   0.288   2.772   3.392 -0.2234 -1.5099  0.6775
 3834SOL    HW211754   0.285   2.642   3.316  1.7766 -0.7855 -0.7131
 3835SOL     OW11755   0.013   1.502   4.048 -0.2025  0.0935 -0.3033
 3835SOL    HW111756   0.086   1.469   3.996  0.1809  2.3044 -1.3015
 3835SOL    HW211757  -0.065   1.470   4.002  0.1385 -0.2118 -0.6766
 3836SOL     OW11758   0.238   5.672   2.049  0.2323  0.2422  0.3044
 3836SOL    HW111759   0.308   5.681   2.114  0.2607  0.6464  0.2165
 3836SOL    HW211760   0.228   5.759   2.012  0.7117 -0.1210 -0.7341
 3837SOL     OW11761   5.178   1.662   1.769 -0.4438 -0.0876 -0.3831
 3837SOL    HW111762   5.094   1.698   1.798 -0.3201  1.8241 -2.1989
 3837SOL    HW211763   5.155   1.586   1.716 -1.0047  0.1936 -0.5455
 3838SOL     OW11764   4.188   0.565   1.137 -0.2603 -0.5318 -0.2828
 3838SOL    HW111765   4.176   0.474   1.163  1.2558 -0.4990  0.6434
 3838SOL    HW211766   4.225   0.608   1.214 -1.9044  1.1352 -0.3416
 3839SOL     OW11767   4.700   3.222   3.583 -0.2288  0.0631 -0.2185
 3839SOL    HW111768   4.678   3.165   3.510  0.3740  1.1536 -1.2715
 3839SOL    HW211769   4.738   3.163   3.649 -0.3711 -0.8616 -0.9554
 3840SOL     OW11770   0.196   0.118   3.088  0.2355 -0.4819 -0.0766
 3840SOL    HW111771   0.138   0.043   3.098  0.7295 -1.0285 -1.1141
 3840SOL    HW211772   0.168   0.159   3.006  0.2436  0.2187  0.2686
 3841SOL     OW11773   0.578   1.025   3.708  0.1745 -0.2583  0.1546
 3841SOL    HW111774   0.602   1.115   3.729  0.5492 -0.8692  2.6909
 3841SOL    HW211775   0.656   0.989   3.665  0.3211  0.3861 -0.1255
 3842SOL     OW11776   4.396   2.871   2.897  0.1680 -0.7103  0.3994
 3842SOL    HW111777   4.323   2.869   2.835  0.2684 -1.1159  0.2956
 3842SOL    HW211778   4.392   2.787   2.942  0.3914 -0.6115  0.6030
 3843SOL     OW11779   4.626   2.776   3.178 -0.4813  0.3110 -0.1389
 3843SOL    HW111780   4.720   2.767   3.164 -0.6565 -0.9297 -0.6786
 3843SOL    HW211781   4.612   2.742   3.266 -0.4733  0.0814 -0.2248
 3844SOL     OW11782   2.357   2.211   2.712 -0.2698  0.2738 -0.1200
 3844SOL    HW111783   2.405   2.214   2.630 -1.7333 -0.4351 -1.0334
 3844SOL    HW211784   2.339   2.303   2.733 -3.1529  0.4367 -2.6421
 3845SOL     OW11785   1.321   0.333   5.032  0.6840 -0.3051  0.6592
 3845SOL    HW111786   1.342   0.262   4.971 -0.6923 -0.2259  0.0468
 3845SOL    HW211787   1.392   0.396   5.021  0.8124 -0.6048 -0.3821
 3846SOL     OW11788   2.764   0.915   4.827  0.3727 -0.2991  0.6364
 3846SOL    HW111789   2.839   0.968   4.853  0.4789  0.4311 -1.0908
 3846SOL    HW211790   2.747   0.859   4.904  3.1342 -1.0251  0.8109
 3847SOL     OW11791   5.332   2.873   1.608 -0.3934 -0.0790  0.0205
 3847SOL    HW111792   5.272   2.819   1.659  0.0890 -0.8116 -0.1835
 3847SOL    HW211793   5.275   2.932   1.559 -0.9473 -0.7246 -0.1210
 3848SOL     OW11794   0.904   3.742   3.143  0.3704 -0.3806  0.3230
 3848SOL    HW111795   0.874   3.784   3.224 -1.3620 -0.5801 -0.1916
 3848SOL    HW211796   0.941   3.814   3.092  0.4948 -0.0764  0.8290
 3849SOL     OW11797   0.677   4.080   2.068  0.5706  0.8263 -0.0499
 3849SOL    HW111798   0.647   4.149   2.009  0.7244  1.3470  0.4717
 3849SOL    HW211799   0.725   4.126   2.136  2.0892  0.0660 -0.5643
 3850SOL     OW11800   3.316   4.463   2.617  0.3354  0.3822  0.2236
 3850SOL    HW111801   3.353   4.544   2.580  0.6675 -0.3365 -1.0913
 3850SOL    HW211802   3.223   4.468   2.596  0.2488  0.6800  0.6578
 3851SOL     OW11803   1.205   5.950   3.621 -0.2305  0.4176  0.4857
 3851SOL    HW111804   1.300   5.940   3.623 -0.2737  0.0469  1.8095
 3851SOL    HW211805   1.171   5.862   3.635 -0.7676  0.5437 -0.0045
 3852SOL     OW11806   1.475   4.909   3.973  0.2736  0.2833  0.1510
 3852SOL    HW111807   1.457   4.834   4.029  2.0811 -2.6878 -2.9133
 3852SOL    HW211808   1.556   4.946   4.008 -0.1777  0.3653  1.1684
 3853SOL     OW11809   2.009   1.039   0.656  1.0439 -0.4221  0.5555
 3853SOL    HW111810   2.063   1.114   0.630  0.9388 -0.0537  1.3669
 3853SOL    HW211811   1.969   1.066   0.738 -0.6299 -0.5684 -0.1805
 3854SOL     OW11812   0.880   5.122   5.514  0.0188 -0.2856 -0.5816
 3854SOL    HW111813   0.901   5.047   5.459 -0.1136 -0.9145  0.2110
 3854SOL    HW211814   0.797   5.155   5.480  1.1630  0.9393 -2.3987
 3855SOL     OW11815   6.147   2.349   2.821 -0.4462 -0.0774  0.4785
 3855SOL    HW111816   6.163   2.436   2.784  0.4291 -0.1252  0.7220
 3855SOL    HW211817   6.088   2.307   2.759 -0.1788  0.3735 -0.0891
 3856SOL     OW11818   6.012   3.587   0.990 -0.4494 -0.2450  0.3996
 3856SOL    HW111819   5.979   3.562   0.903  0.5580 -0.6698  0.1173
 3856SOL    HW211820   6.042   3.677   0.979 -1.3226  0.0712  0.6025
 3857SOL     OW11821   1.720   2.176   4.493 -0.1905 -0.1068 -0.2337
 3857SOL    HW111822   1.749   2.261   4.461 -0.0267 -0.5043 -1.1541
 3857SOL    HW211823   1.717   2.187   4.589  0.5452  0.7001 -0.2891
 3858SOL     OW11824   0.938   5.319   6.331 -0.0704 -0.3291 -0.0776
 3858SOL    HW111825   0.877   5.312   6.404 -0.2804 -0.5157 -0.2718
 3858SOL    HW211826   1.002   5.249   6.347  0.8829  0.7051  0.8587
 3859SOL     OW11827   2.518   4.344   3.220 -0.4207  0.3221  0.3098
 3859SOL    HW111828   2.581   4.405   3.182  2.1914 -1.5272  1.3611
 3859SOL    HW211829   2.499   4.380   3.307 -1.3213  1.1773 -0.2205
 3860SOL     OW11830   4.613   0.319   0.369  0.3857 -0.1689  0.5802
 3860SOL    HW111831   4.640   0.336   0.279 -1.0362 -2.3633 -0.3302
 3860SOL    HW211832   4.605   0.406   0.408 -1.6241  1.0773 -2.2500
 3861SOL     OW11833   5.451   4.916   0.916  0.3007  0.1856 -0.5155
 3861SOL    HW111834   5.496   4.938   0.834  0.9387 -1.4856 -0.6455
 3861SOL    HW211835   5.416   4.828   0.901  2.6914 -1.3062  1.8831
 3862SOL     OW11836   4.536   5.248   4.418 -0.0162  0.1047  0.0969
 3862SOL    HW111837   4.516   5.236   4.511 -1.2784 -0.1927 -0.1879
 3862SOL    HW211838   4.490   5.176   4.375  1.3290 -0.3147 -0.6908
 3863SOL     OW11839   1.835   3.397   2.722 -0.3599  0.5218 -0.6233
 3863SOL    HW111840   1.745   3.426   2.737  0.0661  1.8711 -0.6098
 3863SOL    HW211841   1.862   3.442   2.642 -0.1543 -0.9902 -1.4515
 3864SOL     OW11842   0.698   1.575   3.586 -0.2325  0.5447  0.7008
 3864SOL    HW111843   0.703   1.652   3.530  0.8295  0.7274  1.0314
 3864SOL    HW211844   0.658   1.507   3.531 -1.6458  1.4448  0.5640
 3865SOL     OW11845   4.294   1.287   6.093  0.8703 -0.1803  0.1576
 3865SOL    HW111846   4.366   1.255   6.040 -0.8246 -2.3036 -1.0287
 3865SOL    HW211847   4.324   1.276   6.183  1.2684 -3.3265 -0.2250
 3866SOL     OW11848   3.723   1.206   3.281 -0.2278 -0.0938  0.3269
 3866SOL    HW111849   3.700   1.232   3.370 -1.2047  0.5051 -0.0892
 3866SOL    HW211850   3.747   1.288   3.238  3.3690 -0.6678  0.8591
 3867SOL     OW11851   6.052   3.570   5.366  0.4717  0.2542 -0.5806
 3867SOL    HW111852   6.048   3.652   5.318  1.4304  0.3622 -0.4973
 3867SOL    HW211853   5.969   3.527   5.347 -1.0175  2.1701  1.0791
 3868SOL     OW11854   0.655   2.611   0.196 -0.8394 -0.0965 -0.3915
 3868SOL    HW111855   0.619   2.524   0.213 -0.9048  0.1365  0.7446
 3868SOL    HW211856   0.721   2.597   0.129 -1.3502 -0.9100 -0.7433
 3869SOL     OW11857   3.637   5.478   5.414 -0.0593  0.1005  0.4356
 3869SOL    HW111858   3.550   5.517   5.406 -0.4193 -0.9392 -0.9483
 3869SOL    HW211859   3.662   5.495   5.506 -3.1730 -2.5635  1.9677
 3870SOL     OW11860   4.147   1.542   6.241  0.1426 -0.1224  0.3515
 3870SOL    HW111861   4.145   1.526   6.146  0.4661 -2.8293  0.7322
 3870SOL    HW211862   4.240   1.541   6.264  0.0511  0.2224  0.7501
 3871SOL     OW11863   1.050   3.949   0.049  0.1726 -0.1962 -0.0109
 3871SOL    HW111864   1.016   3.939  -0.040  0.5508 -3.0323  0.0679
 3871SOL    HW211865   0.972   3.959   0.104 -0.4467 -2.6974 -0.2781
 3872SOL     OW11866   2.506   2.172   5.108  0.4853  0.3250  0.5332
 3872SOL    HW111867   2.433   2.182   5.169  1.1225 -0.5525  1.4693
 3872SOL    HW211868   2.481   2.098   5.053 -0.3599  1.4819 -0.7236
 3873SOL     OW11869   1.237   5.983   1.746  0.3056  0.0133  0.0067
 3873SOL    HW111870   1.274   5.912   1.798  0.0481 -1.0318 -1.1898
 3873SOL    HW211871   1.283   5.977   1.662 -0.8651  0.2200 -0.6698
 3874SOL     OW11872   4.016   6.082   3.864  0.0922  0.0170 -0.1068
 3874SOL    HW111873   3.991   6.037   3.944 -0.9027 -0.7637 -0.8338
 3874SOL    HW211874   4.111   6.071   3.859  0.7309  2.7733  2.5620
 3875SOL     OW11875   4.271   4.692   2.092 -0.5204  0.2039  0.1061
 3875SOL    HW111876   4.277   4.686   2.188 -1.8273 -1.0903  0.1327
 3875SOL    HW211877   4.219   4.771   2.077 -1.0465 -0.0637  0.4953
 3876SOL     OW11878   6.344   2.647   2.753 -0.0487  0.1723  0.5021
 3876SOL    HW111879   6.306   2.643   2.841 -1.9102 -1.5325 -0.2908
 3876SOL    HW211880   6.403   2.572   2.748 -1.2334 -0.7452 -0.2059
 3877SOL     OW11881   3.909   5.763   0.565 -0.1326  0.3505  0.3282
 3877SOL    HW111882   3.906   5.853   0.597 -0.4883  0.7176 -0.7242
 3877SOL    HW211883   3.897   5.770   0.470  1.0216 -0.7023  0.0706
 3878SOL     OW11884   0.648   2.901   0.157 -0.1487 -0.3469 -0.2937
 3878SOL    HW111885   0.569   2.871   0.111 -0.3685  0.9787 -0.8179
 3878SOL    HW211886   0.691   2.820   0.184 -2.0973 -1.1214  0.7341
 3879SOL     OW11887   3.512   2.460   5.784  0.3934 -0.1466 -0.6113
 3879SOL    HW111888   3.500   2.386   5.844 -0.5714 -0.4951 -1.1975
 3879SOL    HW211889   3.518   2.420   5.697  1.2765  0.3793 -0.8025
 3880SOL     OW11890   2.931   1.933   2.008  0.6214 -0.1874 -0.3911
 3880SOL    HW111891   2.999   1.865   2.000 -0.6875 -1.4765 -1.0565
 3880SOL    HW211892   2.878   1.923   1.928 -0.9379  0.0910  0.5721
 3881SOL     OW11893   5.781   4.668   2.161  0.3537 -0.1247 -0.2046
 3881SOL    HW111894   5.786   4.590   2.106 -1.5669 -0.7079  0.3549
 3881SOL    HW211895   5.744   4.636   2.243  0.3783  1.2327  0.3559
 3882SOL     OW11896   3.938   0.286   6.185  0.3226  0.1379 -0.9796
 3882SOL    HW111897   4.004   0.307   6.251  0.1533  1.7951 -1.2734
 3882SOL    HW211898   3.927   0.191   6.190  1.5573  0.0287  0.1690
 3883SOL     OW11899   5.403   5.764   6.151 -0.4151 -0.4191  0.1835
 3883SOL    HW111900   5.321   5.782   6.103 -0.1587 -2.0940 -0.9975
 3883SOL    HW211901   5.396   5.671   6.175  1.1592 -0.6006  0.0135
 3884SOL     OW11902   2.576   1.352   1.566  0.2743 -0.1590 -0.2745
 3884SOL    HW111903   2.526   1.358   1.485  0.4360  2.0405 -0.2708
 3884SOL    HW211904   2.561   1.262   1.597 -2.0062 -0.2089 -1.3100
 3885SOL     OW11905   6.120   2.920   5.558 -0.0808 -0.2494 -0.6954
 3885SOL    HW111906   6.174   2.864   5.613  1.2597  1.2967 -0.3655
 3885SOL    HW211907   6.111   3.002   5.607 -0.1077  0.6384 -2.1090
 3886SOL     OW11908   6.136   3.692   1.597 -0.0279  0.0593 -0.5546
 3886SOL    HW111909   6.224   3.700   1.633 -0.0683  2.0396 -0.7521
 3886SOL    HW211910   6.122   3.598   1.586  2.6373 -0.2592 -1.9511
 3887SOL     OW11911   2.566   3.670   5.930 -0.0110 -0.3892  0.1336
 3887SOL    HW111912   2.566   3.759   5.895  1.5025  0.0118  1.0604
 3887SOL    HW211913   2.484   3.632   5.898 -0.4040  1.1252 -0.7799
 3888SOL     OW11914   4.755   3.836   4.776 -0.0189  0.0585  0.7097
 3888SOL    HW111915   4.813   3.790   4.716 -0.5817 -0.2215  0.3796
 3888SOL    HW211916   4.815   3.885   4.833  0.5180  2.6873 -1.8736
 3889SOL     OW11917   1.232   5.716   5.294  0.4704 -0.6244  0.0152
 3889SOL    HW111918   1.246   5.746   5.204  0.5918 -2.1067 -0.4775
 3889SOL    HW211919   1.177   5.785   5.333 -0.3630 -0.3953 -1.4639
 3890SOL     OW11920   5.878   1.908   1.821 -0.3069 -0.0078 -0.1670
 3890SOL    HW111921   5.795   1.861   1.820  1.1953 -2.9345 -1.4136
 3890SOL    HW211922   5.872   1.972   1.750 -1.7570  0.4322  0.3318
 3891SOL     OW11923   5.610   5.072   5.628  0.1811  0.9365 -0.3565
 3891SOL    HW111924   5.571   5.016   5.695  0.6251  0.3895 -0.5461
 3891SOL    HW211925   5.603   5.021   5.547 -1.3834  2.0413 -0.9726
 3892SOL     OW11926   1.061   5.733   1.917 -0.9029 -0.0454  0.2308
 3892SOL    HW111927   1.085   5.820   1.947 -1.7062 -0.0444  0.8996
 3892SOL    HW211928   1.138   5.679   1.935 -0.1759  0.6381 -0.7456
 3893SOL     OW11929   0.630   0.754   4.844  0.3042 -0.5632 -0.2160
 3893SOL    HW111930   0.637   0.663   4.871 -0.5042 -0.6764 -0.3517
 3893SOL    HW211931   0.680   0.759   4.763  0.4045 -0.8717 -0.1747
 3894SOL     OW11932   0.424   0.946   0.002 -0.3705  0.0276 -0.8672
 3894SOL    HW111933   0.352   0.953   0.064 -0.2746  1.4652 -0.8912
 3894SOL    HW211934   0.390   0.891  -0.069 -0.2169 -2.3609  0.7634
 3895SOL     OW11935   3.772   2.639   3.823  0.2544 -0.0015 -0.1270
 3895SOL    HW111936   3.685   2.609   3.798 -1.6608  3.5123  1.4948
 3895SOL    HW211937   3.769   2.643   3.919  2.4753 -0.4068  0.0057
 3896SOL     OW11938   3.661   5.587   5.665 -0.5611 -0.2856  0.5462
 3896SOL    HW111939   3.721   5.545   5.727 -0.0245  0.9866  0.9479
 3896SOL    HW211940   3.575   5.576   5.704 -0.2911 -0.0025  1.2419
 3897SOL     OW11941   3.350   3.128   3.256  0.4316  0.7660  0.7783
 3897SOL    HW111942   3.305   3.209   3.281  0.4804  1.5329 -1.4113
 3897SOL    HW211943   3.389   3.096   3.338  1.1817  3.4449  1.5785
 3898SOL     OW11944   3.801   1.667   3.807  0.1963  0.4310  0.1036
 3898SOL    HW111945   3.850   1.735   3.853  0.0185  0.7259 -0.1368
 3898SOL    HW211946   3.713   1.670   3.846  0.4425 -0.2919  0.7343
 3899SOL     OW11947   3.003   4.645   5.698 -0.1293 -0.1555  0.1464
 3899SOL    HW111948   2.907   4.637   5.705 -0.0045 -2.8761 -0.3786
 3899SOL    HW211949   3.033   4.640   5.789 -0.4313  0.0034  0.2604
 3900SOL     OW11950   1.225   0.486   5.791 -0.4345 -0.3752 -0.0523
 3900SOL    HW111951   1.152   0.502   5.731  1.9730  1.7402 -2.6579
 3900SOL    HW211952   1.230   0.390   5.796 -0.6510 -0.6981 -3.4787
 3901SOL     OW11953   2.252   1.444   6.003 -0.6594  0.3190  0.2592
 3901SOL    HW111954   2.311   1.492   6.062  0.3386 -1.1485  0.5164
 3901SOL    HW211955   2.215   1.511   5.946  2.1812  1.1993 -0.7120
 3902SOL     OW11956   3.433   4.463   1.163  0.9804  0.4071 -0.1855
 3902SOL    HW111957   3.356   4.520   1.163 -0.1605 -1.0860 -0.4256
 3902SOL    HW211958   3.499   4.513   1.114 -0.5067  0.8463 -1.8295
 3903SOL     OW11959   3.376   4.721   3.777  0.0960  0.1031  0.1415
 3903SOL    HW111960   3.416   4.680   3.700 -3.5319 -1.1380 -1.2701
 3903SOL    HW211961   3.324   4.793   3.742  0.0582  0.8871  1.7098
 3904SOL     OW11962   2.719   2.274   1.127  0.0188  0.0243 -0.4699
 3904SOL    HW111963   2.629   2.241   1.130  0.3459 -0.8508  0.0236
 3904SOL    HW211964   2.735   2.309   1.214 -0.5550  2.1921 -1.1739
 3905SOL     OW11965   4.826   5.184   5.740  0.2229 -0.5704 -0.4589
 3905SOL    HW111966   4.902   5.142   5.699  1.3951  1.1841 -0.1874
 3905SOL    HW211967   4.861   5.224   5.820 -1.0489  0.0701 -0.1972
 3906SOL     OW11968   1.663   1.132   2.162 -0.4653 -0.1785  0.5097
 3906SOL    HW111969   1.689   1.205   2.219  0.1263 -0.3889  0.5103
 3906SOL    HW211970   1.664   1.169   2.074 -0.3301 -0.1396  0.5274
 3907SOL     OW11971   1.718   0.460   6.260  0.4918 -0.4686  0.6793
 3907SOL    HW111972   1.812   0.444   6.263  0.2109 -2.2093  1.1321
 3907SOL    HW211973   1.679   0.379   6.291 -1.2004 -0.1394 -0.4490
 3908SOL     OW11974   3.758   4.764   1.995  0.3670 -0.2079  0.1324
 3908SOL    HW111975   3.792   4.686   1.950  2.2744  1.7172 -2.0367
 3908SOL    HW211976   3.804   4.765   2.079  1.4600 -0.6661 -0.4381
 3909SOL     OW11977   5.334   4.664   5.894  0.2432 -0.2503 -0.1948
 3909SOL    HW111978   5.371   4.645   5.981  1.3684 -1.2373 -0.8415
 3909SOL    HW211979   5.400   4.629   5.833  0.6474  2.5708 -1.5008
 3910SOL     OW11980   0.992   4.200   4.266 -0.2354 -0.3928 -0.2563
 3910SOL    HW111981   0.914   4.202   4.210 -1.5144 -1.9267  1.3307
 3910SOL    HW211982   0.962   4.156   4.346  1.4744  1.7726  1.6905
 3911SOL     OW11983   6.170   4.904   6.145 -0.3372  0.1881  0.7086
 3911SOL    HW111984   6.128   4.970   6.200 -0.7226 -0.5903  1.3735
 3911SOL    HW211985   6.102   4.877   6.084 -0.8472 -1.0569  1.7713
 3912SOL     OW11986   3.243   6.154   2.225 -0.2899 -0.3073 -0.7061
 3912SOL    HW111987   3.304   6.227   2.217 -3.2048  2.4963  0.4344
 3912SOL    HW211988   3.240   6.115   2.137  3.8761 -1.4364 -0.5436
 3913SOL     OW11989   2.937   5.624   4.694 -0.3865 -0.3184  0.2955
 3913SOL    HW111990   2.902   5.650   4.608 -0.5606  0.7701  0.6767
 3913SOL    HW211991   2.860   5.600   4.745 -0.2346 -1.5403 -0.0174
 3914SOL     OW11992   5.963   0.173   2.501  0.7456  0.0536 -0.2990
 3914SOL    HW111993   5.919   0.114   2.439 -0.3039 -1.1115  1.4570
 3914SOL    HW211994   6.018   0.116   2.554 -0.2854  0.6046  1.4434
 3915SOL     OW11995   0.932   4.919   5.334 -0.0301  0.4426 -0.6831
 3915SOL    HW111996   0.929   4.835   5.379 -2.0530 -0.1415 -1.7836
 3915SOL    HW211997   0.974   4.900   5.250  0.0859  0.6582 -0.6739
 3916SOL     OW11998   2.727   2.092   5.249  0.2917 -0.3241 -0.6092
 3916SOL    HW111999   2.646   2.130   5.215  1.1007  1.2599 -0.8630
 3916SOL    HW212000   2.759   2.036   5.178 -0.6103 -1.0293 -0.4721
 3917SOL     OW12001   1.661   4.072   5.043  1.0679 -0.3115  0.4810
 3917SOL    HW112002   1.677   4.074   5.137  0.6133 -0.4158  0.5623
 3917SOL    HW212003   1.614   3.990   5.029 -0.7824  0.7084  0.4760
 3918SOL     OW12004   3.307   0.814   4.612 -0.1689  0.9672 -0.2446
 3918SOL    HW112005   3.306   0.758   4.534 -0.5413  2.3975 -1.3062
 3918SOL    HW212006   3.390   0.793   4.655 -0.5790 -0.8490 -0.2393
 3919SOL     OW12007   1.819   0.004   0.757 -0.4384  0.2459  0.0627
 3919SOL    HW112008   1.788  -0.082   0.732 -0.6683  0.1654  0.5956
 3919SOL    HW212009   1.811   0.005   0.853 -1.4677  1.2392 -0.0149
 3920SOL     OW12010   5.941   2.579   0.154  0.9397  0.3320 -0.4207
 3920SOL    HW112011   5.975   2.624   0.076  0.1017 -0.0269 -1.0113
 3920SOL    HW212012   6.009   2.515   0.175  1.7773  1.3055 -0.0510
 3921SOL     OW12013   0.782   2.688   5.075  0.4926 -0.9071 -0.1786
 3921SOL    HW112014   0.764   2.730   4.991  1.7735 -1.8717 -0.9655
 3921SOL    HW212015   0.728   2.736   5.138 -1.4027 -0.9103 -1.7127
 3922SOL     OW12016   3.866   6.084   0.134 -0.0820  0.9827 -0.3660
 3922SOL    HW112017   3.771   6.092   0.137  0.0043  2.4570 -0.7693
 3922SOL    HW212018   3.898   6.163   0.179  0.9651 -0.3630  1.3693
 3923SOL     OW12019   0.094   6.306   0.661  0.0073  0.4909 -0.0890
 3923SOL    HW112020   0.185   6.274   0.662  0.5933  2.0595 -0.5347
 3923SOL    HW212021   0.069   6.304   0.569  0.5284  2.4986 -0.3183
 3924SOL     OW12022   0.184   1.268   4.852  0.3345  0.7297 -0.2530
 3924SOL    HW112023   0.119   1.262   4.783  0.4770 -1.3719 -0.2549
 3924SOL    HW212024   0.134   1.279   4.932 -0.1126 -1.5340 -0.1752
 3925SOL     OW12025   2.734   2.703   0.153  0.1013 -0.3630 -0.0125
 3925SOL    HW112026   2.760   2.774   0.211 -0.6359  0.2311 -0.3879
 3925SOL    HW212027   2.686   2.746   0.083  0.9612 -1.0709 -1.0686
 3926SOL     OW12028   3.231   0.012   0.531  0.1732  0.1900 -0.1145
 3926SOL    HW112029   3.145  -0.011   0.495 -0.5439 -0.2536  1.7557
 3926SOL    HW212030   3.253  -0.061   0.588  2.7176 -0.6204 -1.9320
 3927SOL     OW12031   5.480   3.271   0.668 -0.4017  0.3724  0.1466
 3927SOL    HW112032   5.420   3.197   0.656 -0.6452  0.7009 -0.7393
 3927SOL    HW212033   5.567   3.231   0.674 -0.5640 -0.0036 -0.0056
 3928SOL     OW12034   2.777   5.591   0.464 -0.3125  0.3435 -0.3693
 3928SOL    HW112035   2.734   5.505   0.460  0.7658 -0.1918 -0.7532
 3928SOL    HW212036   2.864   5.573   0.498  0.1092  1.2119 -0.9510
 3929SOL     OW12037   4.943   4.616   0.514 -0.5558  0.1887 -0.0165
 3929SOL    HW112038   5.005   4.685   0.539  1.1543 -1.4578  0.5102
 3929SOL    HW212039   4.892   4.655   0.442  0.2164  2.0433  0.3812
 3930SOL     OW12040   6.118   5.361   2.738  0.4277  0.6869  0.2272
 3930SOL    HW112041   6.156   5.293   2.682  0.1819  0.0130  0.8509
 3930SOL    HW212042   6.140   5.443   2.695 -0.0108  0.1812 -1.0203
 3931SOL     OW12043   5.693   6.213   5.114 -0.1197 -0.7070  0.1222
 3931SOL    HW112044   5.769   6.270   5.119  1.4678 -2.6329 -0.4749
 3931SOL    HW212045   5.699   6.157   5.191 -1.5107 -0.2700  0.5832
 3932SOL     OW12046   2.120   5.556   2.079 -0.4202  0.3945 -0.3921
 3932SOL    HW112047   2.175   5.632   2.098 -2.7799  2.1013  0.0009
 3932SOL    HW212048   2.159   5.518   2.000  0.9906  1.8127 -0.4365
 3933SOL     OW12049   2.051   1.071   2.350  0.3182  0.3410 -0.3465
 3933SOL    HW112050   2.025   1.026   2.269 -0.4443  0.2081 -0.0328
 3933SOL    HW212051   2.133   1.115   2.327  1.7654 -2.1463 -0.3543
 3934SOL     OW12052   0.575   4.652   4.296  0.4149  0.0920  0.5360
 3934SOL    HW112053   0.514   4.725   4.302 -0.9101 -0.6878 -2.1060
 3934SOL    HW212054   0.531   4.580   4.340  0.6551  0.2075  0.9812
 3935SOL     OW12055   0.597   2.142   5.754 -0.7798 -0.2298 -0.1352
 3935SOL    HW112056   0.574   2.050   5.741 -1.5752 -0.0161 -0.2831
 3935SOL    HW212057   0.646   2.143   5.837 -0.2847 -0.8535 -0.4044
 3936SOL     OW12058   0.209   1.743   3.760 -0.4026 -0.0161  0.0108
 3936SOL    HW112059   0.121   1.705   3.766 -0.2918 -0.0485  1.7708
 3936SOL    HW212060   0.267   1.667   3.759 -0.3209  0.0417  0.4281
 3937SOL     OW12061   0.460   5.551   1.914  0.0120  0.1032  0.7188
 3937SOL    HW112062   0.391   5.601   1.958 -1.2937 -0.9217 -0.0743
 3937SOL    HW212063   0.507   5.616   1.861  0.1427  0.9438  1.8316
 3938SOL     OW12064   1.322   4.348   0.173  0.0011 -0.0449 -0.7374
 3938SOL    HW112065   1.375   4.418   0.135  0.7078  0.6635  1.4300
 3938SOL    HW212066   1.349   4.269   0.126  3.7296  0.1171  0.8682
 3939SOL     OW12067   6.114   2.019   3.703 -0.5939  0.4076 -0.1630
 3939SOL    HW112068   6.108   1.938   3.754 -1.6106  0.7102  0.2250
 3939SOL    HW212069   6.192   2.063   3.738 -1.3400  0.6654  1.2490
 3940SOL     OW12070   3.695   2.417   2.778 -0.3618 -0.0974 -0.0574
 3940SOL    HW112071   3.687   2.510   2.757 -2.4181 -0.3849 -0.6887
 3940SOL    HW212072   3.688   2.372   2.694  0.5617 -0.8617  0.2464
 3941SOL     OW12073   5.023   4.423   2.356  0.2111  0.6644 -0.0655
 3941SOL    HW112074   5.083   4.459   2.421 -2.1561  0.5644  2.3997
 3941SOL    HW212075   4.960   4.494   2.341  0.0720  0.2770 -1.4348
 3942SOL     OW12076   3.381   5.719   2.081  0.4861  0.1514 -0.4098
 3942SOL    HW112077   3.436   5.657   2.129  1.2860  0.2378 -1.1807
 3942SOL    HW212078   3.335   5.768   2.149  0.0184 -1.1134  0.2140
 3943SOL     OW12079   1.619   0.686   5.507 -0.0447  1.0414 -0.3209
 3943SOL    HW112080   1.608   0.680   5.412 -1.6937  2.2891 -0.2476
 3943SOL    HW212081   1.532   0.670   5.543  0.7149 -0.3350  1.0691
 3944SOL     OW12082   6.220   3.720   0.059  0.0523  0.4395  0.4173
 3944SOL    HW112083   6.290   3.680   0.111 -0.6418 -1.4790 -0.0597
 3944SOL    HW212084   6.157   3.650   0.044 -2.1083  2.1364  0.9728
 3945SOL     OW12085   5.490   1.391   0.115  0.5273  0.0273  0.3840
 3945SOL    HW112086   5.555   1.362   0.179 -1.0742  0.1495  2.1464
 3945SOL    HW212087   5.422   1.324   0.117  0.1234  0.3788 -0.7102
 3946SOL     OW12088   1.923   1.255   0.824 -0.2472 -0.1402 -0.6689
 3946SOL    HW112089   1.877   1.250   0.741  0.8148  0.1160 -1.2932
 3946SOL    HW212090   1.871   1.316   0.877 -1.5150 -1.1180 -0.7294
 3947SOL     OW12091   1.905   2.462   2.702 -0.0044 -0.4350  0.1603
 3947SOL    HW112092   1.897   2.378   2.657 -0.9633 -0.0450 -0.4409
 3947SOL    HW212093   1.815   2.496   2.705  0.3256  0.4361  0.6556
 3948SOL     OW12094   5.270   3.449   0.315 -0.5940  0.2058  0.1172
 3948SOL    HW112095   5.355   3.413   0.289 -0.4570 -0.3357  1.2463
 3948SOL    HW212096   5.236   3.490   0.236  0.9356  0.8563 -0.2422
 3949SOL     OW12097   4.033   5.324   5.911  0.5820 -0.6228  0.0625
 3949SOL    HW112098   4.023   5.282   5.825 -0.1497  1.6656 -1.0757
 3949SOL    HW212099   4.117   5.370   5.905  0.4138 -0.2525  0.4622
 3950SOL     OW12100   2.628   3.346   2.345 -0.4708 -0.2075 -0.2376
 3950SOL    HW112101   2.687   3.344   2.420 -0.3137  0.0809 -0.3524
 3950SOL    HW212102   2.558   3.407   2.370 -0.0458  0.4431 -0.5955
 3951SOL     OW12103   0.333   5.684   3.291 -0.4605 -0.5303  0.0478
 3951SOL    HW112104   0.377   5.703   3.208 -0.1437  1.9399  0.6834
 3951SOL    HW212105   0.263   5.623   3.268  1.5809 -2.4494 -1.4353
 3952SOL     OW12106   6.257   2.115   4.357 -0.3722  0.0669 -0.1534
 3952SOL    HW112107   6.214   2.037   4.323  1.1422 -0.5285 -0.8200
 3952SOL    HW212108   6.351   2.097   4.348  0.0556  1.2112  1.4009
 3953SOL     OW12109   5.036   1.113   3.824  0.5861 -0.4906  0.4840
 3953SOL    HW112110   4.990   1.195   3.806  1.5110 -0.1302 -0.3305
 3953SOL    HW212111   5.128   1.134   3.810  0.8406 -1.6558  0.3299
 3954SOL     OW12112   4.653   5.461   3.960 -0.2598 -0.2032  0.0411
 3954SOL    HW112113   4.567   5.485   3.995 -0.3498  0.1265 -0.3898
 3954SOL    HW212114   4.705   5.541   3.967 -1.0410  0.6691 -2.8754
 3955SOL     OW12115   0.130   0.709   3.132  0.2887  0.2096  0.1114
 3955SOL    HW112116   0.147   0.803   3.122 -0.9226  0.4026 -0.2598
 3955SOL    HW212117   0.052   0.704   3.187 -0.9240 -0.5059 -1.6083
 3956SOL     OW12118   2.607   0.258   1.412  0.1943 -0.0956  0.6309
 3956SOL    HW112119   2.588   0.292   1.499  0.3059 -1.4718  1.2089
 3956SOL    HW212120   2.620   0.164   1.424 -1.8022 -0.7096 -1.1561
 3957SOL     OW12121   3.629   5.807   2.622 -0.3478 -0.6606  0.0673
 3957SOL    HW112122   3.694   5.871   2.595 -0.8255 -0.8629 -1.6293
 3957SOL    HW212123   3.598   5.839   2.707  1.2370 -0.0462  0.4493
 3958SOL     OW12124   3.521   2.795   4.163  0.0596 -0.7041  0.4802
 3958SOL    HW112125   3.473   2.875   4.139  0.0150 -0.5970  0.9041
 3958SOL    HW212126   3.522   2.797   4.259 -0.7019 -1.6614  0.5235
 3959SOL     OW12127   0.634   2.269   1.435 -0.1292 -0.1292  0.6194
 3959SOL    HW112128   0.686   2.299   1.360 -1.7538  0.7515 -0.2196
 3959SOL    HW212129   0.662   2.179   1.449 -0.3499 -0.6100 -1.6026
 3960SOL     OW12130   0.284   0.058   4.747 -0.4595 -0.0796 -0.4651
 3960SOL    HW112131   0.324   0.066   4.834 -0.6991  0.9266 -0.4253
 3960SOL    HW212132   0.194   0.090   4.759 -1.2662 -2.1448 -0.5919
 3961SOL     OW12133   2.526   6.339   5.075 -0.2644 -0.4701 -0.1549
 3961SOL    HW112134   2.541   6.413   5.134  1.2915 -1.5654  0.8790
 3961SOL    HW212135   2.479   6.378   5.000 -1.1166  1.1909  1.1660
 3962SOL     OW12136   1.050   0.088   1.896 -0.1955  0.2249 -0.4984
 3962SOL    HW112137   1.014   0.106   1.810  1.1821  3.1723 -0.5783
 3962SOL    HW212138   1.121   0.152   1.907 -0.8359  0.5527  3.1226
 3963SOL     OW12139   0.946   5.491   3.054  0.0706 -0.0623  0.0010
 3963SOL    HW112140   0.947   5.568   2.997  0.2403  0.7312  1.0443
 3963SOL    HW212141   0.894   5.518   3.130  2.6650  0.1255  1.8400
 3964SOL     OW12142   1.902   5.049   3.926 -0.9776  0.2399  0.0522
 3964SOL    HW112143   1.948   4.966   3.936 -0.4521  0.6807  1.4763
 3964SOL    HW212144   1.855   5.041   3.843 -1.2564 -1.6222  0.3638
 3965SOL     OW12145   4.731   2.474   0.776 -0.0805  0.5986 -0.2679
 3965SOL    HW112146   4.801   2.420   0.814  0.5324  0.0786 -2.0530
 3965SOL    HW212147   4.740   2.558   0.821  0.4750 -0.0374  0.8702
 3966SOL     OW12148   6.047   3.841   1.288 -0.0281 -0.7111  0.1895
 3966SOL    HW112149   6.046   3.748   1.269  0.6661 -1.1968  2.2822
 3966SOL    HW212150   6.051   3.846   1.384  1.5964  1.4378  0.0909
 3967SOL     OW12151   1.830   2.423   3.385 -0.1025  0.0050 -0.1388
 3967SOL    HW112152   1.810   2.375   3.466 -1.5629  1.7935  0.6300
 3967SOL    HW212153   1.769   2.388   3.320 -0.6561  0.3004  0.2184
 3968SOL     OW12154   5.051   4.817   5.142  0.1322 -0.6541 -0.0552
 3968SOL    HW112155   4.982   4.755   5.165  1.0876 -1.7178  0.0147
 3968SOL    HW212156   5.045   4.886   5.208  1.4198 -2.5462  2.1412
 3969SOL     OW12157   4.250   2.965   3.129 -0.4486 -0.6313 -0.5371
 3969SOL    HW112158   4.273   2.981   3.221  0.2787  0.3134 -0.8592
 3969SOL    HW212159   4.313   3.018   3.080 -1.4171 -0.3942 -1.5558
 3970SOL     OW12160   2.637   3.271   3.515  0.2903  0.3025 -0.3278
 3970SOL    HW112161   2.626   3.367   3.514  1.1752  0.4054 -0.6172
 3970SOL    HW212162   2.705   3.256   3.581  0.0099 -0.1503 -0.1402
 3971SOL     OW12163   0.376   4.476   4.717 -0.1973 -0.1567 -0.4341
 3971SOL    HW112164   0.332   4.555   4.746  0.0188 -0.3554  0.4760
 3971SOL    HW212165   0.385   4.486   4.623 -2.2321 -0.1358 -0.6619
 3972SOL     OW12166   2.847   2.298   2.808 -0.0790  0.3781  0.0054
 3972SOL    HW112167   2.766   2.349   2.809 -0.0047  0.4937  0.1121
 3972SOL    HW212168   2.855   2.263   2.896 -0.3381 -0.1486 -0.1771
 3973SOL     OW12169   4.297   2.209   0.534  0.5933  0.1039 -0.0011
 3973SOL    HW112170   4.232   2.157   0.485  0.6946 -1.3707  1.3398
 3973SOL    HW212171   4.380   2.188   0.492  0.7674 -1.6763  1.1455
 3974SOL     OW12172   6.041   1.396   1.528 -0.4620 -0.5271  0.0305
 3974SOL    HW112173   6.091   1.412   1.608  2.6342  0.6453 -1.9840
 3974SOL    HW212174   5.958   1.442   1.542  0.1378 -0.0395  2.3944
 3975SOL     OW12175   4.946   0.949   5.554 -0.5584 -0.1070 -0.5677
 3975SOL    HW112176   4.916   1.030   5.513  0.9345  1.7504  1.7105
 3975SOL    HW212177   5.008   0.912   5.492  1.5948  2.5554 -0.1843
 3976SOL     OW12178   6.021   1.251   6.224  0.3286 -0.4572 -0.5085
 3976SOL    HW112179   5.934   1.224   6.193  0.4277 -1.0956 -0.2531
 3976SOL    HW212180   6.051   1.314   6.159 -0.0632 -0.7126 -0.9442
 3977SOL     OW12181   1.522   5.784   5.102 -0.0846 -0.0876  0.0719
 3977SOL    HW112182   1.519   5.722   5.175  0.7168  0.6550  0.7637
 3977SOL    HW212183   1.575   5.741   5.036 -1.7934 -1.2682 -0.5895
 3978SOL     OW12184   2.221   0.903   5.146 -0.3444 -0.0092 -0.0745
 3978SOL    HW112185   2.302   0.852   5.135  0.9824  2.0612 -0.6501
 3978SOL    HW212186   2.249   0.982   5.193 -2.0388  0.7893 -0.3335
 3979SOL     OW12187   3.501   4.731   1.941  0.3397  0.8304 -0.3191
 3979SOL    HW112188   3.592   4.758   1.939  0.3618  1.2245  2.3044
 3979SOL    HW212189   3.499   4.648   1.894  2.2266  0.4007  0.2977
 3980SOL     OW12190   1.114   4.073   1.480  0.2211  0.1019 -0.1094
 3980SOL    HW112191   1.080   4.093   1.567 -1.1451 -0.5979 -0.4561
 3980SOL    HW212192   1.159   3.989   1.491  1.5671  0.8407  0.2648
 3981SOL     OW12193   3.165   1.395   3.231  0.1408  0.0365 -0.2545
 3981SOL    HW112194   3.236   1.411   3.293  0.0811  0.6778 -0.3355
 3981SOL    HW212195   3.085   1.409   3.281  0.0254 -1.8343  0.1384
 3982SOL     OW12196   1.105   1.860   4.755  0.9590  0.5008  0.1880
 3982SOL    HW112197   1.074   1.863   4.846  0.1075 -0.6200 -0.0372
 3982SOL    HW212198   1.128   1.951   4.734 -1.7147  1.3708  0.5694
 3983SOL     OW12199   3.586   6.182   5.468 -0.2149 -0.2285 -0.2529
 3983SOL    HW112200   3.575   6.276   5.454 -1.1331 -0.1539  0.8180
 3983SOL    HW212201   3.498   6.145   5.452 -0.6249 -0.4943  2.2216
 3984SOL     OW12202   2.142   1.362   1.266  0.1520  0.2781  0.0312
 3984SOL    HW112203   2.148   1.408   1.183 -1.9154  3.7546  1.5969
 3984SOL    HW212204   2.049   1.368   1.291  0.5637 -1.2303  2.2979
 3985SOL     OW12205   0.171   4.287   2.560 -0.0739 -0.8819  0.0947
 3985SOL    HW112206   0.234   4.340   2.511  0.1937 -1.3284 -0.0520
 3985SOL    HW212207   0.225   4.240   2.624 -0.4667 -0.0004  1.0911
 3986SOL     OW12208   5.787   0.916   6.113 -0.3767 -0.1391  0.7646
 3986SOL    HW112209   5.748   0.853   6.052  1.8794 -1.6749  0.7683
 3986SOL    HW212210   5.840   0.862   6.172 -0.4618  1.5489  2.5070
 3987SOL     OW12211   3.874   4.962   0.648 -0.1270  0.2418 -0.7571
 3987SOL    HW112212   3.804   5.015   0.610 -1.1410  0.2157  0.9352
 3987SOL    HW212213   3.916   5.020   0.712 -0.3368 -0.5423  0.1124
 3988SOL     OW12214   0.715   4.973   5.193  0.3171  0.3985  0.3083
 3988SOL    HW112215   0.792   4.960   5.249  2.1890  0.2687 -2.1323
 3988SOL    HW212216   0.742   5.039   5.129 -2.4873  2.1664  0.7983
 3989SOL     OW12217   5.968   0.886   4.203 -0.3544  1.0046  0.2050
 3989SOL    HW112218   5.951   0.792   4.202  1.0678  0.7171 -1.4198
 3989SOL    HW212219   6.060   0.894   4.178 -0.9407  2.8994 -1.5928
 3990SOL     OW12220   4.754   3.226   6.241  0.2098  0.0808  0.2041
 3990SOL    HW112221   4.824   3.271   6.194 -1.5778  0.6884 -2.0405
 3990SOL    HW212222   4.767   3.133   6.220  2.7543 -0.4415  3.2878
 3991SOL     OW12223   0.139   4.020   2.964  0.0995  0.5553  0.1327
 3991SOL    HW112224   0.194   4.081   2.914 -0.9220  1.1742 -0.2494
 3991SOL    HW212225   0.125   3.947   2.904  0.6791  0.2844  0.3148
 3992SOL     OW12226   3.918   3.709   1.912 -0.3264  0.8933  0.7565
 3992SOL    HW112227   3.981   3.694   1.982  0.0265  1.6787  0.6104
 3992SOL    HW212228   3.901   3.803   1.913 -0.0054  0.9854 -0.4671
 3993SOL     OW12229   1.434   0.601   1.599 -0.2647  0.1090 -0.4799
 3993SOL    HW112230   1.426   0.641   1.512 -0.7134  0.6798 -0.1877
 3993SOL    HW212231   1.408   0.671   1.660  1.1484  0.0855  0.1883
 3994SOL     OW12232   2.314   4.511   2.231 -0.1593 -0.8254  0.8685
 3994SOL    HW112233   2.331   4.495   2.324 -2.3799 -2.8574  1.0258
 3994SOL    HW212234   2.219   4.504   2.222  0.0881 -2.1368 -1.7845
 3995SOL     OW12235   6.010   2.321   2.061 -0.4788  0.8036  0.2055
 3995SOL    HW112236   5.923   2.284   2.053 -0.7047  1.3378  0.1719
 3995SOL    HW212237   6.062   2.278   1.993 -0.8832  0.9746 -0.2126
 3996SOL     OW12238   5.356   3.392   3.125 -0.5163  0.4434 -0.1030
 3996SOL    HW112239   5.268   3.356   3.115 -0.4295 -0.3111  1.5948
 3996SOL    HW212240   5.357   3.430   3.213  1.3081 -0.9322  0.5378
 3997SOL     OW12241   3.129   6.169   6.266  0.3506 -0.1025  0.7790
 3997SOL    HW112242   3.164   6.251   6.300  1.5865  0.2984 -1.2540
 3997SOL    HW212243   3.090   6.194   6.182  1.1505 -1.6448 -0.0844
 3998SOL     OW12244   1.090   3.442   5.097 -0.0013 -0.5439  0.6835
 3998SOL    HW112245   1.172   3.399   5.072  1.2010  1.6361  0.6266
 3998SOL    HW212246   1.035   3.433   5.019  0.4720 -1.3226  0.4180
 3999SOL     OW12247   0.432   5.730   2.234  0.7075 -0.3087 -0.0927
 3999SOL    HW112248   0.506   5.790   2.228  1.0226 -0.5399  1.1863
 3999SOL    HW212249   0.423   5.712   2.328 -0.6433 -0.6931 -0.2725
 4000SOL     OW12250   3.701   5.511   2.855 -1.0348  0.3380 -0.2243
 4000SOL    HW112251   3.630   5.468   2.901  0.2333 -2.1299 -0.4020
 4000SOL    HW212252   3.677   5.507   2.762 -1.5911  1.4135 -0.1441
 4001SOL     OW12253   2.089   5.385   1.300 -0.2808  0.4405  0.4974
 4001SOL    HW112254   2.064   5.298   1.330 -0.9682  0.9462  1.4383
 4001SOL    HW212255   2.143   5.369   1.223 -0.6995 -0.8028  0.4388
 4002SOL     OW12256   6.059   6.147   4.415 -0.0518  0.0043  0.7614
 4002SOL    HW112257   6.007   6.219   4.451 -2.1151 -0.4718 -1.0210
 4002SOL    HW212258   6.043   6.074   4.475 -1.8104 -0.2179  0.1014
 4003SOL     OW12259   1.080   6.011   2.043  0.0026  0.1121 -0.2483
 4003SOL    HW112260   1.160   6.003   2.096  1.0006  0.9901 -1.5375
 4003SOL    HW212261   1.058   6.104   2.047 -1.1353 -0.1643  0.3044
 4004SOL     OW12262   1.780   4.414   1.783 -0.2488 -0.8287  0.4647
 4004SOL    HW112263   1.790   4.321   1.763 -1.1711 -1.1585  1.4281
 4004SOL    HW212264   1.685   4.425   1.795 -0.6934  1.0046 -3.2565
 4005SOL     OW12265   3.224   1.469   2.482 -0.5790 -0.3479 -0.0559
 4005SOL    HW112266   3.211   1.562   2.496  0.7536  0.0591 -1.3084
 4005SOL    HW212267   3.289   1.444   2.548 -1.7786 -0.6946  1.0565
 4006SOL     OW12268   0.825   0.450   3.697  0.2308  0.1862  0.3311
 4006SOL    HW112269   0.920   0.465   3.691  0.5183 -1.5670 -0.1105
 4006SOL    HW212270   0.801   0.487   3.782  0.9309  2.2901 -0.3008
 4007SOL     OW12271   0.543   4.121   1.708 -0.0052 -0.1323  0.0607
 4007SOL    HW112272   0.572   4.193   1.763  0.6135 -0.4282  0.1347
 4007SOL    HW212273   0.564   4.149   1.619 -0.6386  0.1767  0.0042
 4008SOL     OW12274   2.393   0.953   6.291  0.2946 -0.2718  0.2974
 4008SOL    HW112275   2.323   0.931   6.352  2.0536 -2.3479  1.7092
 4008SOL    HW212276   2.460   0.886   6.306  2.2283  1.1154 -1.5812
 4009SOL     OW12277   0.168   6.168   4.340 -0.1850  0.1208  0.2744
 4009SOL    HW112278   0.149   6.205   4.426 -2.0818 -0.5372  0.1785
 4009SOL    HW212279   0.093   6.191   4.286  0.5203 -0.3307 -0.9500
 4010SOL     OW12280   1.332   0.680   0.404  0.0256 -0.3209  0.1301
 4010SOL    HW112281   1.321   0.589   0.378 -0.0349 -0.6649  1.3319
 4010SOL    HW212282   1.425   0.699   0.385 -0.0590 -0.4917 -0.4940
 4011SOL     OW12283   3.299   1.276   0.314 -0.4221  0.1599  1.0616
 4011SOL    HW112284   3.345   1.203   0.274 -0.2765  0.6331  0.3310
 4011SOL    HW212285   3.280   1.248   0.403  0.5267 -0.3733  1.1065
 4012SOL     OW12286   0.430   3.010   2.316  0.5537  0.4017  0.5082
 4012SOL    HW112287   0.383   3.056   2.386  0.2484 -1.1468  1.3841
 4012SOL    HW212288   0.376   3.021   2.238  0.8556  2.0895  0.5110
 4013SOL     OW12289   5.706   1.818   2.849 -0.3118 -0.2233  0.0855
 4013SOL    HW112290   5.795   1.848   2.869  0.4743 -1.5759 -1.1893
 4013SOL    HW212291   5.705   1.806   2.754 -1.7305 -0.6386  0.1322
 4014SOL     OW12292   1.770   5.967   4.652  0.2911 -0.2462 -0.6795
 4014SOL    HW112293   1.745   6.022   4.727 -0.0129 -0.3181 -0.7236
 4014SOL    HW212294   1.752   5.878   4.681  1.0908 -0.3532 -0.4919
 4015SOL     OW12295   0.306   2.852   3.566 -0.5484  0.5443 -0.1801
 4015SOL    HW112296   0.258   2.796   3.627 -1.3432  0.1303 -1.1752
 4015SOL    HW212297   0.398   2.826   3.577 -0.7159  0.2637  0.6094
 4016SOL     OW12298   1.342   5.565   2.869 -0.0506 -0.2948 -0.2071
 4016SOL    HW112299   1.419   5.619   2.848  0.8452 -1.3048  0.3774
 4016SOL    HW212300   1.326   5.515   2.789  0.4009 -0.6653 -0.0671
 4017SOL     OW12301   2.313   3.611   3.423 -0.4630 -0.3280  0.2327
 4017SOL    HW112302   2.353   3.590   3.339 -0.6487 -1.9734  0.5394
 4017SOL    HW212303   2.220   3.590   3.413 -0.6659  0.3306  0.5784
 4018SOL     OW12304   3.533   4.091   2.942 -0.1733 -0.1030  0.2831
 4018SOL    HW112305   3.507   4.094   3.034 -1.9193  1.8580 -0.2144
 4018SOL    HW212306   3.477   4.024   2.903  0.3696 -0.7330  0.5660
 4019SOL     OW12307   5.374   3.838   3.479  0.0531  0.4748 -0.2307
 4019SOL    HW112308   5.321   3.765   3.446 -0.0392  0.0365  0.8273
 4019SOL    HW212309   5.427   3.865   3.404  0.0631 -0.6624 -0.6611
 4020SOL     OW12310   0.831   5.697   3.988 -0.4751 -0.2865  0.2957
 4020SOL    HW112311   0.831   5.622   3.928 -0.2734 -1.6142  1.8831
 4020SOL    HW212312   0.916   5.739   3.975  0.6543 -2.0861  1.3959
 4021SOL     OW12313   3.604   1.173   1.156 -0.1923  0.0353  0.2785
 4021SOL    HW112314   3.634   1.089   1.192  1.6202  0.1152 -0.9599
 4021SOL    HW212315   3.589   1.156   1.063 -0.3089  0.9608  0.1183
 4022SOL     OW12316   0.095   3.452   0.743 -0.2131  0.7028  0.2498
 4022SOL    HW112317  -0.000   3.441   0.744 -0.1994  0.5766  0.0721
 4022SOL    HW212318   0.120   3.445   0.651 -0.0346  0.7607  0.2932
 4023SOL     OW12319   1.986   2.874   2.050  0.2546 -0.4706  0.6746
 4023SOL    HW112320   1.928   2.797   2.053 -2.7990  1.6433  0.2979
 4023SOL    HW212321   1.997   2.892   1.957 -0.1892  0.3062  0.7628
 4024SOL     OW12322   4.125   2.706   0.254  0.2661  0.5677  0.0486
 4024SOL    HW112323   4.048   2.736   0.302 -0.4749  0.0755 -0.7936
 4024SOL    HW212324   4.165   2.786   0.221  0.6207  0.8886  1.2145
 4025SOL     OW12325   4.758   4.036   3.289  0.4580  0.8577  0.5512
 4025SOL    HW112326   4.784   4.012   3.377 -1.2684  1.0868  1.1552
 4025SOL    HW212327   4.686   4.098   3.301  1.0237  1.8761 -1.0119
 4026SOL     OW12328   0.083   1.882   6.110  0.1211 -0.9537  0.5842
 4026SOL    HW112329   0.157   1.836   6.148  0.7275 -2.9054 -2.6185
 4026SOL    HW212330   0.019   1.813   6.092 -0.0091 -0.2589 -2.0077
 4027SOL     OW12331   6.222   1.209   5.759  0.2014 -0.0567 -0.0329
 4027SOL    HW112332   6.248   1.224   5.849 -0.1699  0.4779 -0.0152
 4027SOL    HW212333   6.151   1.270   5.743  0.7736  0.4008 -0.9271
 4028SOL     OW12334   1.183   2.411   0.707 -0.1160  0.0252  0.0413
 4028SOL    HW112335   1.225   2.494   0.685 -0.4526 -0.2203 -1.6481
 4028SOL    HW212336   1.210   2.351   0.637 -1.6283 -0.6961  0.0310
 4029SOL     OW12337   4.474   5.119   3.779 -0.2888 -0.4124  0.1510
 4029SOL    HW112338   4.437   5.088   3.862  2.8257 -0.4397  1.7027
 4029SOL    HW212339   4.497   5.040   3.731 -0.6598 -0.4099 -0.0320
 4030SOL     OW12340   0.719   6.188   5.938 -0.4669  0.1112  0.0949
 4030SOL    HW112341   0.712   6.186   6.033 -0.2607 -1.8547  0.1048
 4030SOL    HW212342   0.810   6.214   5.921 -1.2619  3.5606  0.3028
 4031SOL     OW12343   2.177   4.272   1.818 -0.0647  0.3209 -0.6663
 4031SOL    HW112344   2.201   4.251   1.908 -3.5538  2.1756  0.8937
 4031SOL    HW212345   2.259   4.267   1.769  2.2356  0.5277  2.8401
 4032SOL     OW12346   2.459   0.527   6.249 -1.1669  0.7696 -0.5286
 4032SOL    HW112347   2.422   0.484   6.327 -0.2835 -0.9849 -1.0214
 4032SOL    HW212348   2.527   0.585   6.284 -0.7692 -0.0114  0.0286
 4033SOL     OW12349   2.060   0.149   4.026 -0.8243 -0.0792  0.1152
 4033SOL    HW112350   2.092   0.090   4.094 -3.2966 -0.4954  1.0445
 4033SOL    HW212351   2.119   0.225   4.029 -0.0265 -0.7205  1.7330
 4034SOL     OW12352   2.043   3.183   0.948 -0.4523  0.1987 -0.9105
 4034SOL    HW112353   2.018   3.270   0.981 -0.3197  0.6271 -1.9169
 4034SOL    HW212354   2.030   3.189   0.854  0.5735 -0.5433 -1.1072
 4035SOL     OW12355   6.070   4.381   4.751  0.0278 -0.1646  0.1180
 4035SOL    HW112356   6.071   4.291   4.782  1.8804  0.6461  2.6556
 4035SOL    HW212357   6.153   4.392   4.705 -1.4374 -0.4800 -2.9055
 4036SOL     OW12358   3.560   2.137   0.915 -0.5416  0.5680 -0.2981
 4036SOL    HW112359   3.504   2.146   0.992  1.3417 -1.4329  1.4296
 4036SOL    HW212360   3.594   2.225   0.900  0.0854  0.7843  2.0311
 4037SOL     OW12361   3.686   1.999   4.854 -0.4939  0.0816 -0.0578
 4037SOL    HW112362   3.721   1.918   4.892  0.3000  0.6288  0.3981
 4037SOL    HW212363   3.591   1.987   4.856 -0.4124 -0.4877  0.7835
 4038SOL     OW12364   5.938   0.092   3.640  0.4672 -0.0536 -0.0411
 4038SOL    HW112365   5.918   0.012   3.591 -1.6977 -0.7166  1.7754
 4038SOL    HW212366   6.033   0.089   3.653  0.8073 -0.9244 -2.2692
 4039SOL     OW12367   5.715   5.299   3.091 -0.2992  0.0793 -0.0570
 4039SOL    HW112368   5.626   5.299   3.128 -0.2487 -0.9093  0.0834
 4039SOL    HW212369   5.772   5.297   3.168 -0.1769 -0.6832 -0.1636
 4040SOL     OW12370   5.963   4.692   1.638  0.1514  0.5945  0.1606
 4040SOL    HW112371   6.006   4.711   1.721  0.2532 -0.9194  0.4742
 4040SOL    HW212372   6.032   4.699   1.572  0.6823 -0.8555  0.5437
 4041SOL     OW12373   2.264   3.844   3.908 -0.4652 -0.3831  0.0128
 4041SOL    HW112374   2.329   3.804   3.965  1.1052  0.7141 -0.9206
 4041SOL    HW212375   2.213   3.770   3.874  1.6739 -1.5390 -0.8809
 4042SOL     OW12376   3.203   3.679   2.517  0.7773 -0.6749  0.2191
 4042SOL    HW112377   3.279   3.624   2.497 -0.0757 -1.9641  0.3845
 4042SOL    HW212378   3.181   3.722   2.434  1.3429 -0.7234  0.0402
 4043SOL     OW12379   0.472   2.334   5.527  0.0150  0.0190 -0.2298
 4043SOL    HW112380   0.520   2.282   5.591 -2.3576 -1.9842  0.0762
 4043SOL    HW212381   0.433   2.405   5.577  2.1145  1.4127 -0.4099
 4044SOL     OW12382   5.015   5.737   4.960 -0.4601  0.1173 -0.3277
 4044SOL    HW112383   4.949   5.786   5.008 -0.0671  1.2851 -0.9473
 4044SOL    HW212384   4.965   5.687   4.895 -0.8109  0.1841 -0.1126
 4045SOL     OW12385   0.987   3.669   5.256 -0.5066  0.3806 -0.6481
 4045SOL    HW112386   1.065   3.723   5.243  0.0261  0.5720  2.4709
 4045SOL    HW212387   1.003   3.590   5.204  1.9293  0.2941  0.1182
 4046SOL     OW12388   3.229   2.410   3.213  0.2031 -0.1392 -0.5618
 4046SOL    HW112389   3.134   2.408   3.220  0.2199 -0.0177 -0.2815
 4046SOL    HW212390   3.255   2.492   3.254  0.3842  0.1400 -1.2124
 4047SOL     OW12391   1.766   2.139   1.029  0.2326 -0.0405 -0.3027
 4047SOL    HW112392   1.739   2.088   1.105  0.0285  0.7791  0.1812
 4047SOL    HW212393   1.712   2.218   1.033 -0.3793 -0.3482 -1.7546
 4048SOL     OW12394   0.142   1.890   1.069 -0.4402  0.2482  0.6384
 4048SOL    HW112395   0.054   1.905   1.034  0.0053 -1.1728 -1.3070
 4048SOL    HW212396   0.132   1.816   1.129 -0.7163  0.6977  1.1505
 4049SOL     OW12397   0.716   1.890   2.483 -0.1814  0.9127  0.9738
 4049SOL    HW112398   0.660   1.836   2.427  4.3932 -1.1038 -2.3059
 4049SOL    HW212399   0.718   1.844   2.567 -1.9781  0.1025  0.6105
 4050SOL     OW12400   5.116   4.170   4.533  0.0787  0.2456 -0.3215
 4050SOL    HW112401   5.065   4.158   4.614  0.8121 -0.2431  0.0759
 4050SOL    HW212402   5.051   4.162   4.463 -0.5076  0.2959  0.2016
 4051SOL     OW12403   6.265   0.503   1.716 -0.0604 -0.2239  0.4354
 4051SOL    HW112404   6.290   0.546   1.634  0.6362  0.4536  0.9956
 4051SOL    HW212405   6.178   0.467   1.698 -1.2396  2.4305  0.2732
 4052SOL     OW12406   5.465   3.435   5.742  0.0552 -0.1594 -0.2180
 4052SOL    HW112407   5.525   3.364   5.716 -1.0522 -0.7218 -1.3232
 4052SOL    HW212408   5.480   3.504   5.678  0.8451  0.4784  0.6241
 4053SOL     OW12409   0.807   4.404   3.577  0.3879 -0.2168  0.4620
 4053SOL    HW112410   0.764   4.321   3.601 -0.8537  0.3687  0.3410
 4053SOL    HW212411   0.802   4.407   3.482  0.0182  0.2078  0.4931
 4054SOL     OW12412   0.005   5.403   0.554 -0.1240 -0.3624 -0.0818
 4054SOL    HW112413   0.096   5.401   0.583  0.8655 -0.5196 -2.8384
 4054SOL    HW212414  -0.019   5.311   0.544  0.0484 -0.3231 -0.9899
 4055SOL     OW12415   1.198   5.910   4.233  0.8325  0.3499 -0.2807
 4055SOL    HW112416   1.138   5.974   4.271  0.4863  0.6114 -1.2302
 4055SOL    HW212417   1.277   5.960   4.213  0.8608  0.3065 -0.2777
 4056SOL     OW12418   1.738   1.620   1.740 -0.1327  0.1393  0.3104
 4056SOL    HW112419   1.807   1.561   1.769  2.3541  1.5207 -2.3882
 4056SOL    HW212420   1.681   1.566   1.686  0.1936 -0.4888  0.5893
 4057SOL     OW12421   3.750   5.647   1.377 -0.4597 -0.7423 -0.1046
 4057SOL    HW112422   3.665   5.606   1.387  0.1981 -2.3024 -0.6394
 4057SOL    HW212423   3.805   5.580   1.337  0.9575  0.3073 -0.0067
 4058SOL     OW12424   5.592   0.349   3.091 -0.6572  0.7569  0.1244
 4058SOL    HW112425   5.510   0.367   3.136 -0.2685  1.9821  0.3960
 4058SOL    HW212426   5.568   0.290   3.020 -1.1241 -2.1372  2.4901
 4059SOL     OW12427   3.393   1.095   5.417  0.0135 -0.4067 -0.3350
 4059SOL    HW112428   3.343   1.017   5.438  0.6419 -0.5165  0.8255
 4059SOL    HW212429   3.330   1.153   5.374 -1.2155 -0.4388  1.3007
 4060SOL     OW12430   3.781   5.829   5.266 -0.3232  0.4346 -0.2937
 4060SOL    HW112431   3.762   5.914   5.224  2.4454  2.3497  1.9337
 4060SOL    HW212432   3.726   5.829   5.344  0.8224  0.9692  0.5328
 4061SOL     OW12433   5.007   2.472   0.550 -0.1487 -0.5681  0.2639
 4061SOL    HW112434   4.950   2.544   0.578 -1.1002 -1.4580  0.6968
 4061SOL    HW212435   5.028   2.425   0.630  0.9442 -0.4504  0.0597
 4062SOL     OW12436   5.226   4.441   4.591  0.6057  0.4786  0.3878
 4062SOL    HW112437   5.138   4.407   4.576 -0.0426  2.2207 -0.0639
 4062SOL    HW212438   5.282   4.387   4.535 -0.5003  0.7709 -1.0865
 4063SOL     OW12439   5.786   0.776   0.992  0.5174  0.1535 -0.4895
 4063SOL    HW112440   5.829   0.691   0.981  0.3011 -0.0556  0.2327
 4063SOL    HW212441   5.773   0.784   1.087  2.8061  2.1123 -0.2507
 4064SOL     OW12442   4.012   5.774   2.256 -0.5980  0.2797 -0.0621
 4064SOL    HW112443   3.921   5.794   2.279 -0.7958 -1.6133  1.0230
 4064SOL    HW212444   4.044   5.721   2.329  0.7892 -0.6483 -1.2854
 4065SOL     OW12445   5.034   0.167   5.970 -0.4085  0.4311 -0.6635
 4065SOL    HW112446   4.976   0.207   6.035 -0.7323  0.8741 -1.2101
 4065SOL    HW212447   5.119   0.207   5.986 -0.2216 -0.2901  0.2026
 4066SOL     OW12448   1.656   6.289   5.646  0.6522 -0.0268 -0.6693
 4066SOL    HW112449   1.633   6.196   5.639 -0.3487 -0.0416  2.0429
 4066SOL    HW212450   1.738   6.289   5.696  0.3443  0.5930 -0.1728
 4067SOL     OW12451   4.918   5.866   2.193 -0.3513 -0.4414 -0.3732
 4067SOL    HW112452   4.918   5.956   2.227 -2.2765 -0.0152 -1.3310
 4067SOL    HW212453   4.986   5.866   2.126 -1.1542  0.6799 -1.2196
 4068SOL     OW12454   4.735   5.295   6.191  0.1984  0.3181  0.4576
 4068SOL    HW112455   4.722   5.291   6.286  3.6067 -1.4080  1.0276
 4068SOL    HW212456   4.813   5.350   6.180  2.5520 -2.9068 -0.7877
 4069SOL     OW12457   0.275   0.265   3.288 -0.4937 -0.4710 -0.0961
 4069SOL    HW112458   0.327   0.206   3.342  1.9310  0.6633 -1.0532
 4069SOL    HW212459   0.238   0.209   3.220 -1.9063 -1.5536  1.4686
 4070SOL     OW12460   4.674   3.781   2.113 -0.4845  1.3433  0.5226
 4070SOL    HW112461   4.750   3.838   2.127  0.2947  0.5485 -0.3248
 4070SOL    HW212462   4.609   3.812   2.175  0.1724  2.7085  0.5682
 4071SOL     OW12463   4.237   2.370   1.224  0.1570 -0.1767 -0.5383
 4071SOL    HW112464   4.298   2.431   1.183 -0.0509  1.3642  1.2973
 4071SOL    HW212465   4.193   2.327   1.151  2.8806 -0.8327 -1.9334
 4072SOL     OW12466   1.339   6.196   3.017  0.0995 -0.0191 -0.8323
 4072SOL    HW112467   1.385   6.116   3.045 -0.3649 -0.1567 -0.4648
 4072SOL    HW212468   1.381   6.218   2.934  3.5981  2.0523  1.2201
 4073SOL     OW12469   6.133   0.488   3.318  0.0864 -0.0364  0.2453
 4073SOL    HW112470   6.157   0.418   3.257 -2.2231 -0.3281 -0.4271
 4073SOL    HW212471   6.180   0.565   3.286  2.5032 -1.1616  0.8673
 4074SOL     OW12472   0.222   5.728   1.336 -0.0521  0.2955 -0.0335
 4074SOL    HW112473   0.166   5.694   1.407  2.0757  0.2756  1.7515
 4074SOL    HW212474   0.226   5.822   1.352  0.6666  0.2545  0.0708
 4075SOL     OW12475   4.918   2.260   0.769  0.1559  0.2159 -0.4393
 4075SOL    HW112476   4.984   2.206   0.727 -0.0088 -0.3764  0.0452
 4075SOL    HW212477   4.958   2.288   0.851 -0.4864 -0.8728  0.2801
 4076SOL     OW12478   4.894   4.263   2.153  0.2805 -0.2131  0.0013
 4076SOL    HW112479   4.814   4.226   2.188  1.6575 -0.8904  2.6783
 4076SOL    HW212480   4.935   4.307   2.227  2.5375 -0.1618 -1.1792
 4077SOL     OW12481   1.140   2.599   2.060 -0.1341  0.4963 -0.3245
 4077SOL    HW112482   1.236   2.605   2.053  0.0113 -0.1185  0.8795
 4077SOL    HW212483   1.113   2.554   1.980  0.8730 -1.6583  0.4648
 4078SOL     OW12484   2.632   5.641   2.991 -0.3740 -0.7220 -0.0903
 4078SOL    HW112485   2.687   5.595   2.927  0.3167 -0.9536  0.6576
 4078SOL    HW212486   2.546   5.647   2.948  0.2218 -0.3579 -1.2685
 4079SOL     OW12487   5.365   1.546   3.971 -0.1774 -0.3151 -0.4592
 4079SOL    HW112488   5.313   1.609   4.021 -1.0323 -1.2377 -0.1478
 4079SOL    HW212489   5.425   1.509   4.035 -0.8656 -1.0670 -0.2421
 4080SOL     OW12490   4.757   2.344   5.328 -0.3369 -0.3538 -0.2385
 4080SOL    HW112491   4.794   2.290   5.398 -0.8922 -1.9738 -1.1602
 4080SOL    HW212492   4.663   2.327   5.332 -0.9096  2.4509  1.0001
 4081SOL     OW12493   0.891   3.733   2.623  0.3439 -0.6467  0.7446
 4081SOL    HW112494   0.819   3.784   2.585  1.2532  0.8954  0.9955
 4081SOL    HW212495   0.900   3.658   2.565 -1.0864 -0.5774  0.3865
 4082SOL     OW12496   5.686   5.683   0.848 -0.6564  0.2907 -0.1107
 4082SOL    HW112497   5.736   5.623   0.792 -0.3752  1.9912 -1.7916
 4082SOL    HW212498   5.599   5.643   0.853  0.3891 -2.0251  1.7611
 4083SOL     OW12499   3.515   5.158   3.102 -0.1849  0.3712  0.0586
 4083SOL    HW112500   3.460   5.080   3.106 -0.5834  0.6846  1.0442
 4083SOL    HW212501   3.527   5.183   3.194  0.0334  1.4025 -0.2406
 4084SOL     OW12502   1.774   0.032   2.163  0.2565  0.1772  0.6001
 4084SOL    HW112503   1.866   0.016   2.141 -0.1287 -2.3499  0.4691
 4084SOL    HW212504   1.734   0.059   2.080  0.6574  0.0727  0.3667
 4085SOL     OW12505   5.521   5.377   2.332  0.8685  0.2803  0.4190
 4085SOL    HW112506   5.427   5.381   2.311  0.8932 -0.9099 -0.0061
 4085SOL    HW212507   5.539   5.459   2.377 -0.7953 -0.2637  2.2074
 4086SOL     OW12508   1.076   0.477   1.038  0.5629 -0.2932  0.0122
 4086SOL    HW112509   1.140   0.548   1.039 -1.0263  1.2541  2.4293
 4086SOL    HW212510   1.088   0.435   0.953  3.0851  1.4419 -0.6044
 4087SOL     OW12511   3.010   2.133   0.101 -0.0561  0.1654 -0.8103
 4087SOL    HW112512   3.008   2.138   0.005  0.5983  0.9187 -0.7933
 4087SOL    HW212513   2.955   2.206   0.130 -0.7984 -0.4619 -0.6041
 4088SOL     OW12514   4.315   5.036   6.239  0.0556  0.2295  0.1041
 4088SOL    HW112515   4.353   5.081   6.164 -0.1771  0.5914  0.2007
 4088SOL    HW212516   4.385   5.035   6.304  0.7664 -1.4187 -0.6409
 4089SOL     OW12517   3.299   1.505   2.998  0.4869  0.2105  0.2352
 4089SOL    HW112518   3.268   1.447   3.067 -1.5306 -0.4161 -1.0973
 4089SOL    HW212519   3.239   1.580   3.001 -0.0328 -0.1165 -1.1843
 4090SOL     OW12520   3.649   6.342   3.709 -0.6499  0.4608 -0.7604
 4090SOL    HW112521   3.685   6.321   3.795  1.5857 -0.3595 -1.8236
 4090SOL    HW212522   3.605   6.262   3.680 -1.5888  0.8068 -0.2991
 4091SOL     OW12523   2.896   6.240   1.245  0.3799  0.6031 -0.4258
 4091SOL    HW112524   2.907   6.296   1.322 -1.1315 -1.0326  1.0855
 4091SOL    HW212525   2.822   6.278   1.198 -0.1797  0.3250  0.2098
 4092SOL     OW12526   5.074   3.148   4.849 -0.2342  0.1329  0.1971
 4092SOL    HW112527   5.055   3.122   4.939  0.9085 -0.0576  0.4035
 4092SOL    HW212528   5.002   3.113   4.797 -1.2775  0.8496  1.1188
 4093SOL     OW12529   1.529   0.368   5.704 -0.4139 -0.2162 -0.7493
 4093SOL    HW112530   1.460   0.434   5.695  0.0071  0.6120  1.5421
 4093SOL    HW212531   1.490   0.299   5.757 -0.2384 -0.9173 -1.5164
 4094SOL     OW12532   0.635   5.177   5.404  0.1373  0.0342 -0.1762
 4094SOL    HW112533   0.545   5.187   5.434  0.0692  2.6484 -0.9285
 4094SOL    HW212534   0.627   5.155   5.311 -0.1133  5.8765 -1.9759
 4095SOL     OW12535   3.973   0.684   2.517 -0.0131 -0.1224  0.1871
 4095SOL    HW112536   3.924   0.653   2.440  0.8120  0.0226 -0.4091
 4095SOL    HW212537   3.913   0.671   2.590 -0.6118 -0.7817 -0.4053
 4096SOL     OW12538   1.243   1.110   4.356  0.1402  0.1226  0.0714
 4096SOL    HW112539   1.272   1.130   4.267 -2.1297  1.2131 -0.4817
 4096SOL    HW212540   1.281   1.024   4.375 -0.2159 -0.6398 -2.3777
 4097SOL     OW12541   4.487   2.855   4.983 -0.1826 -0.7686  0.1737
 4097SOL    HW112542   4.398   2.842   4.951  0.0518  0.1266 -0.9057
 4097SOL    HW212543   4.542   2.804   4.923  0.1632 -0.0413 -0.1406
 4098SOL     OW12544   0.368   3.159   3.103 -0.1574  0.3399  0.0214
 4098SOL    HW112545   0.438   3.148   3.167  0.1835 -0.0691 -0.4147
 4098SOL    HW212546   0.403   3.221   3.040 -0.0957 -0.0368 -0.3204
 4099SOL     OW12547   5.121   4.438   3.109 -0.3040  0.1509 -0.2216
 4099SOL    HW112548   5.195   4.400   3.155  0.3371  1.5576 -0.0438
 4099SOL    HW212549   5.051   4.440   3.174  0.6232  2.2073  0.7940
 4100SOL     OW12550   6.157   1.063   0.458  0.7137  0.1847 -0.5283
 4100SOL    HW112551   6.102   1.115   0.400  0.5929  1.3563  0.5852
 4100SOL    HW212552   6.099   0.994   0.491  0.4606  0.2249 -0.8828
 4101SOL     OW12553   0.395   1.999   0.269  0.2889  0.6564  0.1764
 4101SOL    HW112554   0.376   1.990   0.176 -1.3476  0.5566  0.4834
 4101SOL    HW212555   0.477   1.951   0.282  0.0595 -0.1075 -1.0378
 4102SOL     OW12556   0.626   4.057   6.313  0.0346  0.6619 -0.4867
 4102SOL    HW112557   0.560   4.035   6.378  0.3259 -0.5059 -0.5705
 4102SOL    HW212558   0.602   4.006   6.236 -0.2403  1.9327 -1.2790
 4103SOL     OW12559   6.234   4.923   0.558 -0.1026  0.1776 -0.6263
 4103SOL    HW112560   6.324   4.947   0.535  0.1102 -0.4730 -0.5010
 4103SOL    HW212561   6.195   5.004   0.590  1.0457  0.0957  1.1559
 4104SOL     OW12562   1.756   0.459   2.146 -0.1332  0.1052  0.2332
 4104SOL    HW112563   1.749   0.475   2.051  1.9996 -0.1285 -0.0076
 4104SOL    HW212564   1.685   0.399   2.165  0.1212 -0.8027 -1.4676
 4105SOL     OW12565   1.036   5.983   2.425 -0.7790  0.0190 -0.0388
 4105SOL    HW112566   1.045   6.065   2.473 -0.6193 -0.1442  0.2138
 4105SOL    HW212567   1.121   5.969   2.384  0.0414 -1.2704  1.9433
 4106SOL     OW12568   3.588   3.426   3.932  0.4853  0.4212  0.0444
 4106SOL    HW112569   3.646   3.502   3.937  1.0132  0.0330 -0.0077
 4106SOL    HW212570   3.642   3.353   3.964 -0.4091  0.2850  1.3430
 4107SOL     OW12571   0.095   0.635   4.089  0.2102 -0.2265 -0.4797
 4107SOL    HW112572   0.190   0.646   4.095  0.2863 -0.8341 -0.5619
 4107SOL    HW212573   0.076   0.636   3.995 -0.0556  1.4346 -0.4323
 4108SOL     OW12574   5.754   0.670   2.760 -0.3363  0.5258  0.5047
 4108SOL    HW112575   5.830   0.719   2.792 -0.8212 -0.8480  4.2350
 4108SOL    HW212576   5.783   0.579   2.761 -0.8997  0.2541 -1.8888
 4109SOL     OW12577   1.028   2.202   0.305 -0.1322  0.4205 -0.0769
 4109SOL    HW112578   1.017   2.170   0.216  0.5158 -0.2496  0.0798
 4109SOL    HW212579   0.939   2.201   0.342 -0.1546 -1.0810 -0.1132
 4110SOL     OW12580   2.133   2.386   2.840 -0.3923 -0.1952 -0.1096
 4110SOL    HW112581   2.125   2.417   2.750 -0.5500 -0.8417 -0.3276
 4110SOL    HW212582   2.086   2.450   2.893  0.3576  0.6098 -0.3926
 4111SOL     OW12583   4.303   4.493   0.748 -0.1224  0.1269  0.3527
 4111SOL    HW112584   4.387   4.475   0.789  0.5792 -1.9806 -1.7710
 4111SOL    HW212585   4.280   4.581   0.777  1.8368  0.0259  2.5310
 4112SOL     OW12586   5.154   3.309   0.788  0.4060 -0.1532  0.2575
 4112SOL    HW112587   5.183   3.369   0.720  1.4694  1.1589  1.8038
 4112SOL    HW212588   5.212   3.326   0.862 -0.1331 -2.1620  1.2178
 4113SOL     OW12589   0.746   4.395   0.977 -0.1275 -0.3070  0.7024
 4113SOL    HW112590   0.680   4.427   1.038  0.4769  1.2760  0.5600
 4113SOL    HW212591   0.726   4.302   0.968 -3.2267  0.3705 -0.4646
 4114SOL     OW12592   3.920   5.822   0.953 -0.0868  0.1149  0.1984
 4114SOL    HW112593   3.901   5.900   0.901  0.1423 -0.0362 -0.1170
 4114SOL    HW212594   3.929   5.854   1.043 -1.2826  0.2652  0.2802
 4115SOL     OW12595   4.171   5.184   4.058 -0.4419 -0.4851 -0.3420
 4115SOL    HW112596   4.221   5.104   4.040 -2.8020 -2.6885  1.9356
 4115SOL    HW212597   4.107   5.157   4.124 -0.7578  3.5869  1.2983
 4116SOL     OW12598   6.237   1.927   3.111 -0.1845  0.2190  0.1035
 4116SOL    HW112599   6.279   1.854   3.157 -0.0047 -0.1326 -0.6050
 4116SOL    HW212600   6.279   1.928   3.025 -0.0921  1.2471  0.1558
 4117SOL     OW12601   1.764   0.804   1.801 -0.1085 -0.5341  0.7141
 4117SOL    HW112602   1.733   0.830   1.714  0.1484  0.2632  0.8516
 4117SOL    HW212603   1.859   0.813   1.796 -0.1382  0.2761  1.3007
 4118SOL     OW12604   2.668   5.099   4.389  0.1875 -0.5361 -0.0107
 4118SOL    HW112605   2.691   5.120   4.298 -0.1275 -1.2387 -0.2583
 4118SOL    HW212606   2.597   5.036   4.382 -2.2259  1.8916  0.7207
 4119SOL     OW12607   3.468   2.669   3.505  0.0699 -0.1080 -0.0609
 4119SOL    HW112608   3.429   2.683   3.418  0.1969 -0.0043 -0.1024
 4119SOL    HW212609   3.431   2.739   3.559 -2.2398 -1.8185  0.7277
 4120SOL     OW12610   5.194   1.223   5.247 -0.2420  0.5201  0.4527
 4120SOL    HW112611   5.149   1.174   5.178  1.6166 -0.0485 -0.4153
 4120SOL    HW212612   5.135   1.296   5.267 -0.4708  1.2043 -2.3449
 4121SOL     OW12613   2.175   1.774   4.176  0.4649  0.2306  0.5911
 4121SOL    HW112614   2.204   1.708   4.239  0.7956  1.6191  1.9460
 4121SOL    HW212615   2.079   1.763   4.173  0.5063 -0.2632  0.8467
 4122SOL     OW12616   6.068   3.464   5.664  0.3017  0.3866  0.0694
 4122SOL    HW112617   6.003   3.481   5.596  0.6675 -0.6253 -0.5578
 4122SOL    HW212618   6.130   3.536   5.657  0.9659 -0.2960 -1.4586
 4123SOL     OW12619   3.544   1.582   0.765 -0.1889 -0.0271  0.0445
 4123SOL    HW112620   3.471   1.642   0.782 -0.7471 -0.3505 -1.1504
 4123SOL    HW212621   3.596   1.627   0.698  0.4683 -0.0180  0.5438
 4124SOL     OW12622   1.123   0.797   3.203 -0.2190  0.5734 -1.1323
 4124SOL    HW112623   1.108   0.716   3.252  2.2910 -0.4012 -1.7929
 4124SOL    HW212624   1.152   0.860   3.269  2.2591 -0.4725 -1.1065
 4125SOL     OW12625   0.259   0.414   2.413 -0.1697  0.1444  0.0777
 4125SOL    HW112626   0.187   0.355   2.435  0.2621 -0.2549  0.4279
 4125SOL    HW212627   0.338   0.366   2.436  0.1857  0.8936  0.4497
 4126SOL     OW12628   2.649   2.579   1.110  0.1223 -0.0647  0.1869
 4126SOL    HW112629   2.591   2.541   1.044  2.5284 -0.0093 -2.0832
 4126SOL    HW212630   2.589   2.619   1.174 -2.3376 -1.4993 -1.0675
 4127SOL     OW12631   1.516   4.869   5.931 -0.1053  0.3417 -0.0729
 4127SOL    HW112632   1.473   4.805   5.987  0.5839 -0.3701 -0.3476
 4127SOL    HW212633   1.461   4.873   5.853  0.2280 -0.4488 -0.3575
 4128SOL     OW12634   2.064   4.917   5.826  0.4271  0.1659 -0.0874
 4128SOL    HW112635   2.006   4.929   5.901  0.7953  0.5297  0.1448
 4128SOL    HW212636   2.035   4.983   5.762 -1.0889 -1.3558 -1.0324
 4129SOL     OW12637   2.381   2.005   0.647 -0.3906 -0.0958  0.8580
 4129SOL    HW112638   2.410   2.051   0.725 -1.1351  1.4164  0.3032
 4129SOL    HW212639   2.285   2.015   0.647 -0.4695 -0.6870  0.1324
 4130SOL     OW12640   3.193   1.942   2.741 -0.1426  0.0601  0.6020
 4130SOL    HW112641   3.168   1.868   2.796 -0.1665 -0.7278 -0.4427
 4130SOL    HW212642   3.171   2.019   2.793 -1.9842 -0.6379  0.9435
 4131SOL     OW12643   2.351   2.378   5.859  0.3439  0.2395  0.0077
 4131SOL    HW112644   2.416   2.346   5.922  0.7657 -0.3306 -0.7056
 4131SOL    HW212645   2.275   2.401   5.913  0.2805 -1.3128  0.6269
 4132SOL     OW12646   3.405   4.972   3.957  0.0093  0.2147  0.0611
 4132SOL    HW112647   3.457   4.891   3.956 -0.3560 -0.0600  1.2936
 4132SOL    HW212648   3.342   4.960   3.886 -1.1037 -1.3438  1.2154
 4133SOL     OW12649   1.377   2.654   0.609 -0.5870  0.1061  0.0369
 4133SOL    HW112650   1.347   2.624   0.523  0.4864  0.4649 -0.4866
 4133SOL    HW212651   1.349   2.745   0.614  1.4802  0.8738 -1.0385
 4134SOL     OW12652   5.161   2.203   3.782 -0.3613 -0.1295 -0.0863
 4134SOL    HW112653   5.081   2.204   3.835 -0.8033 -0.6345 -0.7247
 4134SOL    HW212654   5.194   2.293   3.787  0.2153 -0.4027  1.9036
 4135SOL     OW12655   4.933   4.463   3.334 -0.1833  0.0953 -0.3068
 4135SOL    HW112656   4.850   4.502   3.306 -0.5130 -0.8660 -0.7143
 4135SOL    HW212657   4.908   4.383   3.380  0.4043  1.0391  1.8109
 4136SOL     OW12658   0.801   2.965   3.690  0.4453 -0.1552  0.2348
 4136SOL    HW112659   0.839   2.986   3.775  0.0918 -1.2345  0.6737
 4136SOL    HW212660   0.876   2.959   3.631  0.6756  0.8152  0.4152
 4137SOL     OW12661   0.566   2.300   2.741  0.5236  0.2035 -0.2216
 4137SOL    HW112662   0.551   2.295   2.835 -0.1996  0.4999 -0.3149
 4137SOL    HW212663   0.624   2.375   2.729  1.5481 -0.5158  0.0820
 4138SOL     OW12664   4.154   4.830   3.797 -0.1247 -0.6224  0.0272
 4138SOL    HW112665   4.195   4.872   3.873 -1.1992 -0.4573  0.5408
 4138SOL    HW212666   4.130   4.903   3.739  1.6324 -0.8121 -0.9830
 4139SOL     OW12667   1.991   4.061   4.595  0.1294 -0.2114 -0.2416
 4139SOL    HW112668   1.939   3.982   4.577  1.0687 -0.8545 -0.2040
 4139SOL    HW212669   2.008   4.058   4.689 -0.1657  0.2565 -0.1695
 4140SOL     OW12670   1.263   4.798   0.087 -0.2705 -0.5608  0.3762
 4140SOL    HW112671   1.243   4.888   0.112 -0.5669 -0.0219 -1.6487
 4140SOL    HW212672   1.359   4.795   0.086 -0.2190  0.2350 -1.0217
 4141SOL     OW12673   2.485   0.961   2.231 -0.3781 -0.5057  0.7252
 4141SOL    HW112674   2.518   0.999   2.312 -0.3356 -0.8313  0.8586
 4141SOL    HW212675   2.563   0.933   2.184 -0.2897  0.9195 -0.0546
 4142SOL     OW12676   3.123   1.488   1.431  0.4782 -0.0301 -0.0704
 4142SOL    HW112677   3.130   1.410   1.377 -0.0271  0.5528 -1.0125
 4142SOL    HW212678   3.207   1.533   1.421  1.3059 -1.1022  1.5717
 4143SOL     OW12679   5.778   6.070   5.797 -0.5307 -0.6894 -0.1447
 4143SOL    HW112680   5.796   6.161   5.822  0.8512 -1.2486  1.0275
 4143SOL    HW212681   5.683   6.061   5.809 -0.5804  0.3933  0.4340
 4144SOL     OW12682   2.416   6.149   0.632  0.5038  0.5329  0.3110
 4144SOL    HW112683   2.493   6.169   0.579  0.6886  0.6767  0.6289
 4144SOL    HW212684   2.441   6.070   0.682  0.2465  0.2607  0.0139
 4145SOL     OW12685   5.165   4.502   0.030  0.1140 -0.2259  0.2054
 4145SOL    HW112686   5.189   4.550   0.109  0.0383  0.6397 -0.2811
 4145SOL    HW212687   5.071   4.488   0.038 -0.0427  0.5914 -0.1073
 4146SOL     OW12688   2.995   5.958   0.737  0.2749 -0.0743  0.6803
 4146SOL    HW112689   3.032   6.046   0.745 -0.6186  0.4802 -0.8991
 4146SOL    HW212690   3.067   5.905   0.703  0.6012  0.2242  0.9048
 4147SOL     OW12691   0.096   2.335   0.445  0.0867  0.4290 -0.5544
 4147SOL    HW112692   0.010   2.378   0.445 -0.8313 -1.2985  0.4201
 4147SOL    HW212693   0.103   2.296   0.532  1.6297  0.0647 -0.8205
 4148SOL     OW12694   2.490   3.644   4.376 -0.4577  0.1772 -0.2146
 4148SOL    HW112695   2.570   3.693   4.355  1.6478 -1.9659  2.1199
 4148SOL    HW212696   2.431   3.711   4.411  0.5132  1.7436 -1.4015
 4149SOL     OW12697   1.084   1.809   3.012 -0.0376  0.0671  0.2896
 4149SOL    HW112698   1.172   1.775   3.027 -0.2541 -0.2793  0.7892
 4149SOL    HW212699   1.028   1.758   3.070 -0.3680  1.3257  1.1247
 4150SOL     OW12700   2.098   1.136   1.623 -0.1103  0.2029  0.7115
 4150SOL    HW112701   2.146   1.076   1.681  0.2851  0.4473  0.6458
 4150SOL    HW212702   2.129   1.223   1.649 -0.6537  0.3752  0.7818
 4151SOL     OW12703   5.800   4.106   1.482  0.3586 -0.4305  0.6592
 4151SOL    HW112704   5.852   4.176   1.520  0.1806 -0.4915  1.0243
 4151SOL    HW212705   5.717   4.148   1.457 -0.4618 -0.8453  2.5311
 4152SOL     OW12706   4.074   1.996   1.027  0.5268 -0.4057 -0.7116
 4152SOL    HW112707   4.049   2.080   1.065 -2.0681 -0.7275 -1.5474
 4152SOL    HW212708   4.096   2.016   0.936  2.6047 -0.2923 -0.2514
 4153SOL     OW12709   0.144   5.131   4.689  0.0292  0.3727  0.0842
 4153SOL    HW112710   0.093   5.212   4.680 -1.3258 -0.1919  1.9688
 4153SOL    HW212711   0.222   5.157   4.737 -0.9268  0.4247  1.6714
 4154SOL     OW12712   5.737   0.249   3.668  0.3760 -0.3947 -0.5871
 4154SOL    HW112713   5.814   0.192   3.664  0.7317 -0.0694  0.9535
 4154SOL    HW212714   5.730   0.273   3.761 -1.0820  0.2718 -0.8445
 4155SOL     OW12715   0.403   3.428   1.237  0.0276  0.6983  1.1471
 4155SOL    HW112716   0.310   3.447   1.254  0.2653  0.6873  2.5087
 4155SOL    HW212717   0.448   3.508   1.264  0.1946  2.1301 -2.7104
 4156SOL     OW12718   3.703   4.186   6.091  0.1369 -0.2614 -0.1286
 4156SOL    HW112719   3.664   4.246   6.028  1.3183  0.3729 -0.2734
 4156SOL    HW212720   3.628   4.137   6.126 -0.7854  0.9201 -0.3779
 4157SOL     OW12721   5.526   3.510   1.467  0.0186 -0.2490  0.0117
 4157SOL    HW112722   5.571   3.593   1.483  1.2951 -1.1099  1.2189
 4157SOL    HW212723   5.433   3.531   1.472  0.3202  0.8014  2.1910
 4158SOL     OW12724   2.284   1.867   1.280 -0.1941  0.5151 -0.0283
 4158SOL    HW112725   2.244   1.827   1.357 -1.0840  0.5125 -0.4805
 4158SOL    HW212726   2.244   1.821   1.206  2.0531 -0.8345 -0.5005
 4159SOL     OW12727   5.534   4.492   5.277 -0.3486  0.5537  0.0636
 4159SOL    HW112728   5.446   4.472   5.246  0.1808 -3.6732  0.5705
 4159SOL    HW212729   5.587   4.493   5.197 -0.7285  2.6225 -0.1974
 4160SOL     OW12730   4.214   3.229   5.177 -0.4293 -0.2528  0.3255
 4160SOL    HW112731   4.177   3.143   5.197  0.9795 -0.8153  0.6523
 4160SOL    HW212732   4.287   3.210   5.117  0.0489  0.6824  0.5987
 4161SOL     OW12733   0.210   1.480   1.259  0.1876  0.7177  0.0968
 4161SOL    HW112734   0.304   1.470   1.246  0.1026 -4.3732  1.1512
 4161SOL    HW212735   0.172   1.474   1.171  0.7840  1.1239 -0.1909
 4162SOL     OW12736   2.859   2.180   1.665 -0.2615 -0.5091 -0.4018
 4162SOL    HW112737   2.822   2.191   1.577 -0.5011 -3.0763 -0.6972
 4162SOL    HW212738   2.954   2.178   1.651 -0.1699  1.4252 -0.2536
 4163SOL     OW12739   2.761   1.219   5.408  0.0354 -0.1210  0.0157
 4163SOL    HW112740   2.773   1.313   5.420 -0.2001 -0.2009  0.9483
 4163SOL    HW212741   2.699   1.212   5.335 -3.0823  0.6121  2.3741
 4164SOL     OW12742   5.852   3.598   6.253  0.3856  0.5207  0.0415
 4164SOL    HW112743   5.817   3.603   6.342 -0.1805 -3.8611  0.2892
 4164SOL    HW212744   5.947   3.596   6.266  0.3392  0.8687  0.4703
 4165SOL     OW12745   0.156   1.533   4.594 -0.0662  0.3615  0.3011
 4165SOL    HW112746   0.146   1.618   4.635  1.0511  0.7774 -0.2703
 4165SOL    HW212747   0.132   1.470   4.663 -1.8581  1.1293  0.4315
 4166SOL     OW12748   5.503   3.267   1.597  0.1261  0.2265  0.0252
 4166SOL    HW112749   5.508   3.361   1.580 -1.9768  0.3887  0.0557
 4166SOL    HW212750   5.547   3.255   1.681  2.5477  0.7693 -1.0642
 4167SOL     OW12751   5.707   4.782   5.881  0.0691 -0.2601 -0.1195
 4167SOL    HW112752   5.687   4.822   5.796  2.1535 -0.2348 -0.6326
 4167SOL    HW212753   5.669   4.841   5.945 -1.0459  0.0162 -0.9954
 4168SOL     OW12754   4.143   5.549   4.385 -0.1382  0.0837  0.3170
 4168SOL    HW112755   4.223   5.543   4.333  1.7119  1.5050  2.7704
 4168SOL    HW212756   4.168   5.514   4.471 -1.7833  1.6040  1.4889
 4169SOL     OW12757   4.584   4.843   2.206 -0.1897 -0.0887  0.1294
 4169SOL    HW112758   4.622   4.756   2.193 -0.0278  0.0095 -0.0635
 4169SOL    HW212759   4.594   4.886   2.121  1.5213  0.8090  0.7270
 4170SOL     OW12760   3.491   5.658   2.461  0.3524  0.4264 -0.1756
 4170SOL    HW112761   3.436   5.727   2.425  0.1579  0.0591 -0.5882
 4170SOL    HW212762   3.548   5.703   2.524  0.1978  0.9518 -0.4064
 4171SOL     OW12763   2.425   3.317   2.912  0.0124 -0.2116  0.0642
 4171SOL    HW112764   2.516   3.338   2.892  0.5879  1.6364  3.7039
 4171SOL    HW212765   2.375   3.358   2.842  1.8962 -1.0926 -1.9113
 4172SOL     OW12766   0.174   0.380   5.526 -0.1171  1.0075 -0.4596
 4172SOL    HW112767   0.122   0.321   5.582  1.9495  0.1826  0.6829
 4172SOL    HW212768   0.171   0.339   5.440  0.4219 -0.2409  0.0883
 4173SOL     OW12769   2.388   2.498   2.709 -0.2490  0.0930  0.6336
 4173SOL    HW112770   2.351   2.457   2.631  2.5932  0.7827 -1.2055
 4173SOL    HW212771   2.332   2.574   2.725 -1.9804 -1.0890  0.4572
 4174SOL     OW12772   2.354   6.081   0.961  1.0172  0.2809  0.2030
 4174SOL    HW112773   2.379   6.033   0.881  0.4463  1.9850 -1.0561
 4174SOL    HW212774   2.432   6.081   1.015  1.3992 -0.9732 -0.3081
 4175SOL     OW12775   2.011   2.057   4.866 -0.2397  0.4226  0.0067
 4175SOL    HW112776   2.014   1.964   4.889  1.3799  0.4569  0.0424
 4175SOL    HW212777   2.023   2.059   4.771  4.1579  0.6718  0.3568
 4176SOL     OW12778   3.265   1.277   1.298 -0.4099  0.3506  0.1451
 4176SOL    HW112779   3.330   1.284   1.368  0.5672  1.9769 -0.8408
 4176SOL    HW212780   3.305   1.218   1.234 -1.1794 -0.9100  0.7868
 4177SOL     OW12781   3.196   1.428   4.916 -0.3110 -0.0477 -0.0985
 4177SOL    HW112782   3.197   1.438   4.821 -0.2390  1.8358  0.0602
 4177SOL    HW212783   3.284   1.398   4.938 -1.1590 -3.4958 -0.8202
 4178SOL     OW12784   5.524   3.890   2.965 -0.1869  0.2158  0.2715
 4178SOL    HW112785   5.452   3.885   3.027  0.7704 -0.5409  1.3596
 4178SOL    HW212786   5.602   3.867   3.016  0.6521 -0.3146 -1.1827
 4179SOL     OW12787   2.696   5.963   1.489 -0.5184  0.3330 -0.7269
 4179SOL    HW112788   2.602   5.971   1.472 -0.7603  1.2579  0.8567
 4179SOL    HW212789   2.712   6.021   1.563  1.5434  1.1830 -1.7388
 4180SOL     OW12790   4.811   1.531   1.672 -0.4130  0.2427  0.2932
 4180SOL    HW112791   4.785   1.616   1.636 -0.0946  0.6429  0.9954
 4180SOL    HW212792   4.844   1.482   1.596  1.8728  1.6937  0.2768
 4181SOL     OW12793   1.825   1.087   0.282 -0.3629 -0.5048  0.1247
 4181SOL    HW112794   1.733   1.084   0.256 -0.2922  0.9530 -0.4010
 4181SOL    HW212795   1.872   1.050   0.208 -0.2592  2.5032 -1.4917
 4182SOL     OW12796   4.291   2.000   1.561 -0.0803 -0.8459  0.0801
 4182SOL    HW112797   4.268   2.088   1.533 -3.6335 -1.8644 -0.5948
 4182SOL    HW212798   4.300   2.007   1.656 -0.6928  0.1671  0.0810
 4183SOL     OW12799   4.777   2.562   3.675  0.2331 -0.6708 -0.6410
 4183SOL    HW112800   4.794   2.507   3.599 -2.7397  0.7539 -2.5202
 4183SOL    HW212801   4.755   2.500   3.745 -0.6818 -1.9617 -2.0118
 4184SOL     OW12802   1.158   0.907   0.079 -0.0722  0.4432 -0.1313
 4184SOL    HW112803   1.230   0.912   0.142  0.7984 -1.6204 -0.8402
 4184SOL    HW212804   1.084   0.874   0.130 -0.1059  1.1587  0.2967
 4185SOL     OW12805   5.960   0.918   5.728  0.7149  0.2763  0.3859
 4185SOL    HW112806   6.001   0.951   5.809  0.2494  0.1222  0.6844
 4185SOL    HW212807   5.943   0.826   5.746 -1.0344  0.6391  0.7961
 4186SOL     OW12808   4.769   1.078   0.096  0.0919  0.4218 -0.3139
 4186SOL    HW112809   4.728   0.994   0.075  1.5565  0.0547 -1.9452
 4186SOL    HW212810   4.765   1.083   0.192  0.6017 -1.8471 -0.1158
 4187SOL     OW12811   5.663   5.982   3.946  0.1187  0.2197 -0.0774
 4187SOL    HW112812   5.615   5.991   4.028  1.6205 -0.2292  0.8968
 4187SOL    HW212813   5.605   6.019   3.880 -1.9920 -1.2436  0.8545
 4188SOL     OW12814   1.368   5.915   5.489 -0.3229 -0.0438  0.1716
 4188SOL    HW112815   1.459   5.887   5.499 -0.2680  0.0272 -0.1178
 4188SOL    HW212816   1.368   5.970   5.411 -0.5506  0.2393  0.3654
 4189SOL     OW12817   5.174   4.208   2.707  0.3120  0.1285  0.1595
 4189SOL    HW112818   5.098   4.201   2.764 -0.2739 -0.6289 -0.6810
 4189SOL    HW212819   5.246   4.169   2.757 -0.1520 -0.3455  0.4672
 4190SOL     OW12820   2.604   1.057   2.498  0.2455  0.5887  0.2275
 4190SOL    HW112821   2.532   1.039   2.558  0.1627 -0.6683 -0.2156
 4190SOL    HW212822   2.683   1.043   2.550  0.1823 -1.0234 -0.0552
 4191SOL     OW12823   6.019   4.714   3.046  0.3673 -0.3351 -0.8255
 4191SOL    HW112824   5.988   4.775   2.979 -0.5755 -0.0280 -0.1194
 4191SOL    HW212825   6.072   4.767   3.105 -0.2579 -0.2334 -0.3448
 4192SOL     OW12826   2.182   1.755   1.537  0.7425  0.0619  0.2323
 4192SOL    HW112827   2.133   1.675   1.554 -0.0923  0.1053 -1.7934
 4192SOL    HW212828   2.272   1.733   1.563  0.2493 -1.0036  1.1343
 4193SOL     OW12829   6.311   2.281   4.979  0.0142 -0.6803  0.4959
 4193SOL    HW112830   6.388   2.288   5.035 -0.6713  0.4518  1.3398
 4193SOL    HW212831   6.343   2.305   4.892  0.8799 -1.4784  0.5754
 4194SOL     OW12832   2.082   1.284   5.319 -0.2328  0.4150  0.8450
 4194SOL    HW112833   2.083   1.230   5.240 -0.0576  1.0448  0.4091
 4194SOL    HW212834   2.072   1.373   5.287 -0.5951  0.6376  1.5619
 4195SOL     OW12835   1.099   5.479   3.878  0.1420  0.0808  0.1188
 4195SOL    HW112836   1.143   5.509   3.958 -0.5270  2.9920 -0.4973
 4195SOL    HW212837   1.038   5.411   3.909  2.0924 -1.1334  1.5557
 4196SOL     OW12838   5.127   1.178   4.844 -0.5463 -0.2389 -0.2282
 4196SOL    HW112839   5.222   1.191   4.839 -0.4923 -0.9820 -1.3359
 4196SOL    HW212840   5.104   1.130   4.764 -1.6440 -1.3966  0.7387
 4197SOL     OW12841   0.823   5.143   3.333 -0.1107  0.3303 -0.5299
 4197SOL    HW112842   0.787   5.223   3.294  0.1746  0.4015 -0.6503
 4197SOL    HW212843   0.812   5.155   3.427 -2.2381 -0.5175 -0.6071
 4198SOL     OW12844   1.813   4.319   1.397  0.2056 -0.1527  0.3938
 4198SOL    HW112845   1.798   4.413   1.383  0.2831  0.1890  2.3278
 4198SOL    HW212846   1.779   4.278   1.317 -1.2008  1.4005  0.1103
 4199SOL     OW12847   0.237   3.107   0.949 -0.0406  0.7396 -0.6080
 4199SOL    HW112848   0.147   3.124   0.922  0.0054  0.4817 -0.9307
 4199SOL    HW212849   0.285   3.092   0.867  0.4555  1.5975 -0.4910
 4200SOL     OW12850   0.734   0.850   2.771 -0.3377  0.1776 -0.0132
 4200SOL    HW112851   0.658   0.839   2.827  0.7311  0.9660  1.6500
 4200SOL    HW212852   0.800   0.791   2.807  0.1687  0.2079 -0.8457
 4201SOL     OW12853   1.267   3.037   4.958  0.3876  0.8120 -0.0372
 4201SOL    HW112854   1.177   3.008   4.972  0.1572  1.0436 -0.9417
 4201SOL    HW212855   1.319   2.956   4.960  0.3320  0.7901  1.6206
 4202SOL     OW12856   4.804   4.063   0.099 -0.9400  0.6313  0.1248
 4202SOL    HW112857   4.879   4.108   0.061  0.0503  0.5361  1.8533
 4202SOL    HW212858   4.801   4.095   0.190 -1.9923 -0.5965  0.5429
 4203SOL     OW12859   3.968   5.328   1.530 -0.4901  0.7180  1.3157
 4203SOL    HW112860   3.954   5.348   1.438 -0.0630 -0.7583  0.9056
 4203SOL    HW212861   3.954   5.412   1.575 -2.7960  1.0279  0.1680
 4204SOL     OW12862   6.065   0.099   4.823 -0.1137 -0.0516  0.2859
 4204SOL    HW112863   6.086   0.144   4.741  0.1358 -0.6734  0.0037
 4204SOL    HW212864   6.030   0.168   4.880 -0.6897  0.3123 -0.4857
 4205SOL     OW12865   1.419   3.589   6.011 -0.2303  0.1864  0.2307
 4205SOL    HW112866   1.361   3.528   5.965  0.8669  0.0791 -1.0460
 4205SOL    HW212867   1.493   3.601   5.953 -0.2574  2.5142  0.5859
 4206SOL     OW12868   4.793   1.269   3.565  0.2207  0.3229 -0.5547
 4206SOL    HW112869   4.758   1.350   3.529  1.9353  1.0701 -0.6225
 4206SOL    HW212870   4.836   1.226   3.491  0.6597  0.1228 -0.1920
 4207SOL     OW12871   5.445   1.069   4.717 -0.2875 -0.3933 -0.1168
 4207SOL    HW112872   5.370   1.035   4.669  0.6605  0.6147 -2.4870
 4207SOL    HW212873   5.514   1.004   4.702 -0.4025 -0.8785  1.3112
 4208SOL     OW12874   5.101   4.647   4.731  0.1571  0.3680 -0.3565
 4208SOL    HW112875   5.136   4.572   4.683 -0.6739 -0.7451  0.7169
 4208SOL    HW212876   5.063   4.703   4.664  0.9847 -0.0628 -1.1970
 4209SOL     OW12877   5.730   3.518   1.859 -0.1858 -0.2436 -0.2769
 4209SOL    HW112878   5.719   3.608   1.830 -1.6528 -0.4686 -0.4824
 4209SOL    HW212879   5.800   3.483   1.804  0.9538  0.9635  0.3238
 4210SOL     OW12880   5.685   0.418   1.757  0.2512 -0.1361 -0.0819
 4210SOL    HW112881   5.631   0.341   1.774 -0.3662  0.3810  0.3507
 4210SOL    HW212882   5.733   0.432   1.839  2.3752 -1.5921 -0.9855
 4211SOL     OW12883   5.536   4.908   4.449 -0.1959 -0.2606 -0.1848
 4211SOL    HW112884   5.478   4.840   4.414 -1.8369  0.8482  0.2550
 4211SOL    HW212885   5.506   4.921   4.539 -0.4192  1.5594 -0.4950
 4212SOL     OW12886   2.667   1.408   4.903  0.2039  0.0623 -0.0119
 4212SOL    HW112887   2.677   1.384   4.811 -1.4715  1.1075 -0.5087
 4212SOL    HW212888   2.756   1.429   4.932  0.6180  0.8305 -1.7136
 4213SOL     OW12889   1.073   2.858   5.420 -0.1508  0.0169 -0.2034
 4213SOL    HW112890   1.001   2.798   5.402 -0.2310  0.1067 -0.1851
 4213SOL    HW212891   1.129   2.812   5.483 -0.6987  0.3281  0.5297
 4214SOL     OW12892   0.781   6.073   2.990  0.2286 -0.0833  0.1292
 4214SOL    HW112893   0.872   6.092   3.010  0.8040  0.7452 -2.7961
 4214SOL    HW212894   0.767   6.111   2.903 -2.3243 -2.0056 -0.4144
 4215SOL     OW12895   5.096   4.652   3.779 -0.0117  0.3925 -0.4207
 4215SOL    HW112896   5.178   4.650   3.828 -0.5735  2.4209  0.7046
 4215SOL    HW212897   5.065   4.742   3.788 -2.5588 -0.4125 -0.5322
 4216SOL     OW12898   4.813   2.350   2.677 -0.2339 -0.8349 -0.3390
 4216SOL    HW112899   4.872   2.425   2.678 -1.2181  0.0325  2.4046
 4216SOL    HW212900   4.867   2.277   2.709  0.0229 -0.6727 -0.3952
 4217SOL     OW12901   5.315   0.558   0.947 -0.2813  0.4135 -0.5372
 4217SOL    HW112902   5.399   0.571   0.902  1.0963  1.0280  2.0010
 4217SOL    HW212903   5.251   0.601   0.891  1.0361 -0.2537 -2.6727
 4218SOL     OW12904   6.031   1.281   0.396 -0.2560  0.3930 -0.3509
 4218SOL    HW112905   5.967   1.315   0.458 -0.3407  1.0533 -0.7895
 4218SOL    HW212906   6.012   1.326   0.314 -1.1241 -1.5889 -1.2914
 4219SOL     OW12907   2.610   1.048   3.976 -0.1153  0.4491  0.3332
 4219SOL    HW112908   2.557   1.090   3.909  0.5607  0.2915 -0.3180
 4219SOL    HW212909   2.690   1.021   3.930 -0.1644 -0.7804  0.9149
 4220SOL     OW12910   4.476   2.423   0.609  0.2366 -0.1212 -0.3170
 4220SOL    HW112911   4.520   2.353   0.562 -0.5453  0.3891 -1.8665
 4220SOL    HW212912   4.546   2.470   0.654  0.8760 -1.2879 -0.0537
 4221SOL     OW12913   0.599   2.751   3.373  0.0167  0.2603  0.4547
 4221SOL    HW112914   0.512   2.752   3.331  1.0086 -1.1896 -1.8357
 4221SOL    HW212915   0.582   2.781   3.462 -2.8804 -0.1664  0.1636
 4222SOL     OW12916   4.352   3.511   3.647 -0.3289  0.0308  0.4025
 4222SOL    HW112917   4.347   3.461   3.565  0.7171  0.6303 -0.0380
 4222SOL    HW212918   4.407   3.458   3.704  1.0964  0.8232 -0.1955
 4223SOL     OW12919   0.320   6.147   2.873  0.3473  0.2152  0.2282
 4223SOL    HW112920   0.333   6.059   2.908 -0.4256  0.5416  1.3944
 4223SOL    HW212921   0.285   6.133   2.785 -0.6421 -0.6639  0.7428
 4224SOL     OW12922   5.361   5.059   0.364 -0.7252  0.5236  0.3984
 4224SOL    HW112923   5.452   5.072   0.390 -0.4061 -0.8763  0.0223
 4224SOL    HW212924   5.312   5.121   0.419  0.3261  0.5087  1.4004
 4225SOL     OW12925   2.315   4.672   5.090 -0.2162 -0.1277  0.1386
 4225SOL    HW112926   2.266   4.722   5.156  1.9495 -0.5301  2.1828
 4225SOL    HW212927   2.394   4.644   5.135 -0.1249 -3.2606 -1.6945
 4226SOL     OW12928   2.441   3.522   2.497 -0.1060 -0.0230  0.1276
 4226SOL    HW112929   2.347   3.507   2.502  0.1056 -1.6608 -0.2151
 4226SOL    HW212930   2.479   3.458   2.558  0.7784  0.6975  0.3613
 4227SOL     OW12931   2.186   3.326   5.590 -0.0371  0.4932  0.7355
 4227SOL    HW112932   2.203   3.346   5.497 -0.4164 -2.4825 -0.0701
 4227SOL    HW212933   2.271   3.296   5.623 -0.5089 -1.2266  0.4899
 4228SOL     OW12934   5.408   4.003   1.440 -0.1789  0.3536  0.1740
 4228SOL    HW112935   5.451   4.043   1.364  1.1922  0.0816  0.7693
 4228SOL    HW212936   5.385   3.915   1.411 -0.4326  0.5354 -0.1848
 4229SOL     OW12937   5.197   3.614   0.830  0.0207 -0.2249  0.2761
 4229SOL    HW112938   5.234   3.602   0.742  2.0236 -0.1889  1.0704
 4229SOL    HW212939   5.269   3.595   0.890 -0.1132  3.3932  1.8644
 4230SOL     OW12940   2.992   0.377   2.602  0.3216  0.0874 -0.2466
 4230SOL    HW112941   3.080   0.378   2.638  0.1569 -1.5167  0.2708
 4230SOL    HW212942   2.935   0.395   2.677  0.2144  1.9931 -0.7360
 4231SOL     OW12943   1.150   2.080   2.956 -0.0994  0.7291  0.0769
 4231SOL    HW112944   1.129   1.988   2.974  0.6838  0.2117 -1.4595
 4231SOL    HW212945   1.156   2.085   2.861  0.3346  2.2786  0.1585
 4232SOL     OW12946   2.989   3.334   0.641 -0.1474 -0.4482 -0.3141
 4232SOL    HW112947   3.040   3.378   0.709  3.8877 -1.0025 -2.6853
 4232SOL    HW212948   2.986   3.397   0.569  0.6448 -1.8550 -1.6286
 4233SOL     OW12949   2.956   5.916   5.765 -0.0699  0.2500  0.3999
 4233SOL    HW112950   2.909   5.936   5.684  0.7333 -2.0116 -0.7352
 4233SOL    HW212951   2.888   5.910   5.832 -0.9570  0.4693 -0.4668
 4234SOL     OW12952   4.997   2.729   1.462 -0.4797 -0.0498  0.0115
 4234SOL    HW112953   4.977   2.762   1.550  2.1688 -0.4679  0.8462
 4234SOL    HW212954   5.041   2.802   1.418 -1.6075  0.0892 -0.9469
 4235SOL     OW12955   0.804   0.199   2.577 -0.0835  0.3512  0.1202
 4235SOL    HW112956   0.736   0.265   2.561  0.1714  0.8898  1.1987
 4235SOL    HW212957   0.844   0.225   2.660  2.2344  0.7418 -1.0158
 4236SOL     OW12958   3.432   5.296   2.102 -0.5980 -0.2970 -0.4276
 4236SOL    HW112959   3.432   5.383   2.140 -0.0796 -0.1128 -0.8332
 4236SOL    HW212960   3.359   5.295   2.040  0.1742  0.2900 -1.3804
 4237SOL     OW12961   4.855   2.086   5.152 -0.0094 -0.1170  0.0652
 4237SOL    HW112962   4.906   2.014   5.115  0.6910 -0.5722  1.8020
 4237SOL    HW212963   4.798   2.044   5.217 -0.9438  0.6827 -0.2078
 4238SOL     OW12964   4.648   2.080   2.986 -0.4518  0.1955  0.9358
 4238SOL    HW112965   4.583   2.030   3.036 -1.6926 -0.1830 -0.9660
 4238SOL    HW212966   4.596   2.131   2.924  0.9803  1.5318  0.7856
 4239SOL     OW12967   1.398   2.467   2.109  0.1200 -0.2920 -0.4533
 4239SOL    HW112968   1.343   2.389   2.103  0.8346 -0.7640 -0.9276
 4239SOL    HW212969   1.364   2.514   2.185 -0.2686 -1.1039 -0.1160
 4240SOL     OW12970   2.792   2.877   3.533 -0.8171  0.0165 -0.1281
 4240SOL    HW112971   2.703   2.843   3.530 -0.2480 -1.7159  0.9230
 4240SOL    HW212972   2.809   2.889   3.627  0.3695 -0.6239 -0.2455
 4241SOL     OW12973   1.306   2.055   1.530 -0.4411  0.0037  0.0204
 4241SOL    HW112974   1.364   2.110   1.477 -1.5893  1.3737  0.1471
 4241SOL    HW212975   1.230   2.040   1.475 -1.2637  0.7219  0.9201
 4242SOL     OW12976   6.045   4.661   5.046 -0.0583 -0.0154 -0.2508
 4242SOL    HW112977   5.965   4.688   5.002  0.3780  1.1234 -0.3632
 4242SOL    HW212978   6.021   4.580   5.092 -0.4741 -1.4424 -2.7576
 4243SOL     OW12979   4.918   0.845   3.045 -0.5588  0.3359 -0.7501
 4243SOL    HW112980   4.992   0.863   3.102 -0.1862 -0.2165 -1.0575
 4243SOL    HW212981   4.904   0.927   2.997  0.3200  0.2153 -1.2255
 4244SOL     OW12982   6.136   2.325   0.706 -0.1363  0.0886 -0.0260
 4244SOL    HW112983   6.071   2.298   0.641 -0.1892 -0.0669  0.0906
 4244SOL    HW212984   6.084   2.344   0.784  0.1037 -1.5890  0.5624
 4245SOL     OW12985   3.410   2.365   4.759  1.1679 -0.7990 -0.6744
 4245SOL    HW112986   3.397   2.451   4.719  0.1550 -0.5114  0.2165
 4245SOL    HW212987   3.408   2.382   4.854 -3.0892 -2.2159 -0.2945
 4246SOL     OW12988   1.299   0.983   1.335 -0.0023  0.1212  0.2729
 4246SOL    HW112989   1.308   1.040   1.411 -0.7865  2.3709 -1.2032
 4246SOL    HW212990   1.206   0.988   1.312 -0.2810 -2.4500  0.5273
 4247SOL     OW12991   3.904   2.388   2.321 -0.0308  0.6859 -0.1133
 4247SOL    HW112992   3.971   2.442   2.280  2.0090 -0.2600  1.7050
 4247SOL    HW212993   3.953   2.312   2.355 -2.1200 -0.2993  0.8839
 4248SOL     OW12994   2.645   1.037   5.183 -0.5108  0.0250 -0.5782
 4248SOL    HW112995   2.606   1.115   5.144 -3.1769 -1.2947 -0.8013
 4248SOL    HW212996   2.586   0.966   5.157  1.4062 -1.9683  0.2109
 4249SOL     OW12997   5.515   0.054   4.552 -0.7294 -0.3557 -0.5151
 4249SOL    HW112998   5.508  -0.009   4.481  2.0242 -0.8579 -0.4561
 4249SOL    HW212999   5.574   0.012   4.616 -2.9963  0.1026  2.0744
 4250SOL     OW13000   1.741   2.620   4.620 -0.3640 -0.3244  0.1784
 4250SOL    HW113001   1.793   2.696   4.596  0.0320 -0.4521  0.5981
 4250SOL    HW213002   1.806   2.555   4.649 -0.7904 -0.1820  1.5545
 4251SOL     OW13003   5.089   3.528   0.071 -0.4843 -0.1059  0.2225
 4251SOL    HW113004   5.131   3.483  -0.002 -2.2672 -1.0837 -0.2377
 4251SOL    HW213005   5.015   3.472   0.095 -1.1494  1.2270  1.4273
 4252SOL     OW13006   5.756   3.978   3.593  0.4154 -0.1392  0.0634
 4252SOL    HW113007   5.698   3.964   3.668 -0.1193 -1.4841 -0.5727
 4252SOL    HW213008   5.802   4.060   3.613 -0.4872  0.0768  1.3552
 4253SOL     OW13009   6.001   1.607   5.644  0.8840 -0.5331  0.6452
 4253SOL    HW113010   5.913   1.576   5.620  0.7613 -0.6566  1.2329
 4253SOL    HW213011   6.024   1.670   5.576 -0.8860  1.7638  2.0159
 4254SOL     OW13012   6.048   2.742   3.102  0.0753  0.1485 -0.2821
 4254SOL    HW113013   6.032   2.831   3.133 -0.1745 -0.0328  0.1152
 4254SOL    HW213014   5.998   2.686   3.161  0.3479 -0.2684 -0.4380
 4255SOL     OW13015   0.593   3.860   2.208  0.3080 -0.1942  0.2010
 4255SOL    HW113016   0.565   3.789   2.151  1.5549 -1.3765  0.9827
 4255SOL    HW213017   0.629   3.926   2.149 -1.5556  0.1632 -0.5967
 4256SOL     OW13018   0.066   1.202   4.580  0.1665  0.0110 -0.1925
 4256SOL    HW113019   0.062   1.107   4.588 -1.4292  0.0685 -0.0762
 4256SOL    HW213020  -0.022   1.232   4.600  0.6472  1.5300 -0.2121
 4257SOL     OW13021   0.892   5.695   2.261  0.2932  0.0469  0.0316
 4257SOL    HW113022   0.903   5.722   2.170 -1.1196 -0.3605 -0.2879
 4257SOL    HW213023   0.805   5.728   2.285  0.5163 -0.1308  1.1224
 4258SOL     OW13024   2.665   4.975   3.103  0.3049  0.3495 -0.1818
 4258SOL    HW113025   2.656   5.067   3.076 -0.9673  0.5125  0.7399
 4258SOL    HW213026   2.711   4.933   3.029  0.6914  1.6645 -0.7137
 4259SOL     OW13027   2.479   2.558   0.889 -0.3190 -0.5069  0.2008
 4259SOL    HW113028   2.480   2.494   0.818 -2.9059  0.4460 -0.8110
 4259SOL    HW213029   2.407   2.530   0.946 -0.6257  0.7547  0.4660
 4260SOL     OW13030   0.652   1.833   0.782 -0.1811 -0.2431  0.1611
 4260SOL    HW113031   0.593   1.850   0.856 -0.6130  1.1176 -0.4730
 4260SOL    HW213032   0.619   1.752   0.743 -0.3591 -0.6061  1.0447
 4261SOL     OW13033   0.539   0.424   1.037 -0.4179  0.5918  0.5274
 4261SOL    HW113034   0.554   0.508   0.993 -0.0833  1.3775  2.0517
 4261SOL    HW213035   0.565   0.441   1.128 -0.3648 -1.1696  0.8623
 4262SOL     OW13036   5.732   0.575   3.104 -0.2130 -0.2545  0.6404
 4262SOL    HW113037   5.686   0.491   3.091  0.6256 -0.3810 -2.0255
 4262SOL    HW213038   5.681   0.638   3.053 -0.4558  0.7842  2.0970
 4263SOL     OW13039   4.659   2.111   3.512 -0.0339 -0.5713 -0.2321
 4263SOL    HW113040   4.714   2.179   3.550  0.9353 -2.3959  1.8908
 4263SOL    HW213041   4.656   2.131   3.418 -0.0061  2.4535  0.3094
 4264SOL     OW13042   0.355   5.849   5.733  0.2447  0.7538 -0.2098
 4264SOL    HW113043   0.391   5.804   5.657 -1.7100 -1.3993  0.0241
 4264SOL    HW213044   0.424   5.847   5.798 -0.1655 -3.6249  0.4048
 4265SOL     OW13045   5.329   5.265   6.288  0.4445 -0.1758  0.2677
 4265SOL    HW113046   5.251   5.292   6.337  0.6289 -0.1086  0.5288
 4265SOL    HW213047   5.309   5.178   6.255  0.8367 -0.8005  1.6220
 4266SOL     OW13048   1.478   1.799   4.971 -0.0939  0.5988 -0.6685
 4266SOL    HW113049   1.402   1.752   5.003  0.9151 -0.1997  0.6511
 4266SOL    HW213050   1.552   1.742   4.992  1.0448  2.1764 -0.2025
 4267SOL     OW13051   0.971   4.264   4.745  0.7972 -0.0376  0.1746
 4267SOL    HW113052   0.948   4.171   4.754  0.4554 -0.0789 -1.0022
 4267SOL    HW213053   0.886   4.308   4.740  0.9430  0.4504  1.6197
 4268SOL     OW13054   2.989   0.026   6.104 -0.0144 -0.6288  0.1578
 4268SOL    HW113055   2.920   0.037   6.038  0.8248  0.1141 -0.6140
 4268SOL    HW213056   3.035   0.110   6.105  1.6280 -1.4789 -0.2196
 4269SOL     OW13057   1.358   0.397   5.331 -0.0693  0.4278 -0.1755
 4269SOL    HW113058   1.343   0.334   5.261 -0.4063  0.8750 -0.5101
 4269SOL    HW213059   1.428   0.454   5.299 -2.0927  2.4011 -1.3962
 4270SOL     OW13060   0.546   3.647   5.974  0.1587  0.2429 -0.2648
 4270SOL    HW113061   0.475   3.701   6.008  0.5383  0.3659  0.3441
 4270SOL    HW213062   0.509   3.560   5.966 -0.0338  0.2854  0.1539
 4271SOL     OW13063   1.787   5.319   3.086  0.0441  0.3417 -0.4922
 4271SOL    HW113064   1.799   5.397   3.033  1.3101 -0.4047 -1.3384
 4271SOL    HW213065   1.824   5.248   3.034  1.1705 -0.4437  1.2808
 4272SOL     OW13066   0.266   5.784   0.526  0.1842  0.0583  0.2836
 4272SOL    HW113067   0.226   5.793   0.439 -0.7444 -0.6857  0.6159
 4272SOL    HW213068   0.223   5.707   0.564  1.4534 -0.3522  0.9332
 4273SOL     OW13069   4.752   2.282   1.180 -0.7843 -0.2863  0.2100
 4273SOL    HW113070   4.775   2.366   1.220 -0.4222 -0.3957  0.2379
 4273SOL    HW213071   4.686   2.245   1.237 -0.4499 -0.3289  0.5723
 4274SOL     OW13072   0.280   3.857   4.634 -0.0104 -0.1224 -0.2070
 4274SOL    HW113073   0.360   3.812   4.663  1.0440  0.6061 -1.8643
 4274SOL    HW213074   0.210   3.792   4.648  0.8998 -0.9071  0.9203
 4275SOL     OW13075   5.261   3.912   1.972  0.1024 -0.5103 -0.1958
 4275SOL    HW113076   5.209   3.970   2.027  0.5477 -0.1612 -0.1345
 4275SOL    HW213077   5.275   3.961   1.891  0.8343 -0.3588  0.0181
 4276SOL     OW13078   0.332   6.340   2.614 -0.5745  0.8191  0.3853
 4276SOL    HW113079   0.340   6.266   2.554  0.0400  0.6635  0.6505
 4276SOL    HW213080   0.416   6.343   2.660 -0.4192  1.9537  0.0669
 4277SOL     OW13081   6.199   4.406   1.691 -0.7264 -0.4199 -0.1059
 4277SOL    HW113082   6.196   4.501   1.679  0.8898 -0.5596 -2.1190
 4277SOL    HW213083   6.234   4.395   1.779 -1.3032  0.8153  0.3180
 4278SOL     OW13084   4.844   5.418   1.117 -0.2010  0.3636  0.1723
 4278SOL    HW113085   4.837   5.500   1.166  0.0778 -0.6490  1.9794
 4278SOL    HW213086   4.780   5.427   1.046 -0.4478  1.9732  0.5506
 4279SOL     OW13087   1.975   1.290   4.032 -0.1049 -0.2956 -0.3827
 4279SOL    HW113088   1.971   1.222   4.099  0.2426  2.2958  2.4683
 4279SOL    HW213089   1.884   1.300   4.003 -0.4163 -0.8273  0.3792
 4280SOL     OW13090   2.511   0.484   2.624 -0.0454  0.0303  0.0047
 4280SOL    HW113091   2.496   0.550   2.556 -2.2995 -1.1362 -0.7132
 4280SOL    HW213092   2.588   0.516   2.671 -0.6766  2.8409 -0.6836
 4281SOL     OW13093   3.362   3.425   4.846  0.0127  0.2777  0.5064
 4281SOL    HW113094   3.411   3.490   4.897 -0.9291  0.6937  0.9074
 4281SOL    HW213095   3.273   3.461   4.840 -0.0039  0.0558 -1.1111
 4282SOL     OW13096   0.488   4.880   4.020 -0.4132 -0.5220  0.5329
 4282SOL    HW113097   0.433   4.826   4.077  0.0467 -1.4883  0.0830
 4282SOL    HW213098   0.448   4.871   3.933  0.0480 -0.6634  0.3363
 4283SOL     OW13099   2.198   0.629   2.232 -0.9496 -0.0505 -0.2646
 4283SOL    HW113100   2.177   0.553   2.178 -1.2870  0.6488 -1.1465
 4283SOL    HW213101   2.225   0.697   2.169  0.4688  0.2122  0.5795
 4284SOL     OW13102   3.751   0.842   0.259 -0.3315  0.2007  0.5094
 4284SOL    HW113103   3.778   0.786   0.186  0.3860 -0.5383  1.3217
 4284SOL    HW213104   3.688   0.789   0.308 -0.5605  0.5670  0.6168
 4285SOL     OW13105   1.624   5.182   1.688 -0.0569  0.0045 -0.7014
 4285SOL    HW113106   1.700   5.230   1.655  0.7255  0.5789  1.7590
 4285SOL    HW213107   1.660   5.123   1.755 -1.7596  0.2920  0.5269
 4286SOL     OW13108   6.294   0.407   3.517 -0.0265  0.4493  0.7326
 4286SOL    HW113109   6.231   0.421   3.587 -1.6318 -2.5833  0.0802
 4286SOL    HW213110   6.247   0.431   3.437 -0.2061 -1.1874  0.3006
 4287SOL     OW13111   2.900   1.761   1.692 -0.2562  0.3690 -0.3143
 4287SOL    HW113112   2.938   1.784   1.607 -0.3266  1.3822 -0.0861
 4287SOL    HW213113   2.863   1.844   1.725  1.3916  0.4310  1.5306
 4288SOL     OW13114   5.488   1.967   4.823  0.2511  0.3297  0.1048
 4288SOL    HW113115   5.544   1.892   4.805  0.7034  0.5365  0.5964
 4288SOL    HW213116   5.549   2.035   4.852 -0.2412  0.6088  0.5051
 4289SOL     OW13117   3.176   4.583   0.832 -0.2997  0.0837 -0.7037
 4289SOL    HW113118   3.152   4.675   0.836  0.9242  0.3753  1.3328
 4289SOL    HW213119   3.272   4.583   0.836 -0.2837 -1.2478  2.4693
 4290SOL     OW13120   3.637   3.189   4.653 -0.1167  0.0512  0.3203
 4290SOL    HW113121   3.730   3.171   4.651 -0.1048  0.1173  0.2556
 4290SOL    HW213122   3.613   3.201   4.561  0.1435  1.7061  0.4350
 4291SOL     OW13123   4.692   2.200   0.661  0.8871  0.3808 -0.2282
 4291SOL    HW113124   4.626   2.260   0.697  0.0289 -0.7433  0.1289
 4291SOL    HW213125   4.772   2.222   0.709  1.1296  2.5404 -1.4617
 4292SOL     OW13126   5.235   0.090   3.913  0.0030 -0.3528 -0.1228
 4292SOL    HW113127   5.320   0.093   3.958 -0.3475  0.9686  0.4764
 4292SOL    HW213128   5.171   0.083   3.983 -0.5104  0.9892 -0.4397
 4293SOL     OW13129   3.558   2.550   1.250 -0.1052  0.5435  0.5203
 4293SOL    HW113130   3.517   2.499   1.319 -1.1963 -1.7778 -1.7125
 4293SOL    HW213131   3.488   2.604   1.214  0.4198  1.6064  1.0119
 4294SOL     OW13132   1.392   0.589   4.835  0.0209 -0.0729  0.4046
 4294SOL    HW113133   1.379   0.607   4.928  1.1880  1.2751  0.3583
 4294SOL    HW213134   1.482   0.618   4.818  0.2506 -1.4282 -0.8922
 4295SOL     OW13135   6.290   3.306   1.060 -0.0438  0.2820  0.3563
 4295SOL    HW113136   6.336   3.389   1.053  0.9477 -0.2318  0.5276
 4295SOL    HW213137   6.242   3.313   1.142  1.7412 -0.0885  1.5066
 4296SOL     OW13138   1.951   2.426   0.697  0.2645  0.2361 -0.4514
 4296SOL    HW113139   1.901   2.347   0.678  0.0203  0.7380 -2.0036
 4296SOL    HW213140   1.941   2.439   0.792  0.4021 -1.6310 -0.1521
 4297SOL     OW13141   5.928   4.461   3.026  0.3703  0.0632 -0.0015
 4297SOL    HW113142   5.973   4.538   3.062 -1.2169  0.9647  0.1714
 4297SOL    HW213143   5.949   4.463   2.933 -1.4193  2.0704 -0.4460
 4298SOL     OW13144   2.336   1.417   5.330  0.2221  0.2337  0.1343
 4298SOL    HW113145   2.242   1.431   5.336  0.1408 -0.6937  1.1596
 4298SOL    HW213146   2.364   1.477   5.261 -1.1235  0.4689 -0.2383
 4299SOL     OW13147   4.326   6.304   6.046 -0.7989  0.1671  0.6380
 4299SOL    HW113148   4.322   6.363   6.122 -0.2022  0.7855  0.2033
 4299SOL    HW213149   4.237   6.304   6.012 -0.6512  1.4897  0.1685
 4300SOL     OW13150   5.235   1.294   5.683  0.0907  0.2824  0.2643
 4300SOL    HW113151   5.169   1.362   5.695  0.9324  0.8651  1.7840
 4300SOL    HW213152   5.301   1.335   5.628  1.0329  1.0613  1.9013
 4301SOL     OW13153   1.923   5.831   4.888 -0.4661 -0.4988 -0.5063
 4301SOL    HW113154   1.860   5.900   4.905 -2.3670 -2.0937 -0.6405
 4301SOL    HW213155   1.902   5.762   4.952  1.1773 -1.0878 -0.5362
 4302SOL     OW13156   1.138   1.983   2.639 -0.2168 -0.5572  0.5289
 4302SOL    HW113157   1.070   2.018   2.581  1.2857 -0.0421 -1.0242
 4302SOL    HW213158   1.119   1.890   2.645 -0.6043 -0.5724 -0.5807
 4303SOL     OW13159   0.655   3.858   0.954 -0.3991 -0.1034 -0.2182
 4303SOL    HW113160   0.581   3.812   0.994  1.3480 -2.3446  0.6810
 4303SOL    HW213161   0.670   3.812   0.872  0.2788 -0.0007 -0.1569
 4304SOL     OW13162   5.570   3.551   3.961  0.3419  0.1788  0.1659
 4304SOL    HW113163   5.541   3.585   3.877 -0.1582  1.9627  1.0124
 4304SOL    HW213164   5.501   3.577   4.022  1.1176 -0.3041  1.2710
 4305SOL     OW13165   2.833   5.474   4.128 -0.7126 -0.5836 -0.4649
 4305SOL    HW113166   2.777   5.473   4.206  0.2542 -1.5673  0.2445
 4305SOL    HW213167   2.905   5.415   4.150 -0.2955 -0.6856 -2.0209
 4306SOL     OW13168   5.527   4.465   3.682  0.6014  0.2295  0.0449
 4306SOL    HW113169   5.463   4.531   3.655 -0.3599 -0.3847  0.7346
 4306SOL    HW213170   5.480   4.410   3.745  1.2944 -1.2677 -0.6780
 4307SOL     OW13171   0.499   0.746   1.372 -0.4220 -0.2639  0.3926
 4307SOL    HW113172   0.453   0.752   1.288 -2.6983 -1.9405  1.3941
 4307SOL    HW213173   0.477   0.827   1.417 -1.7196 -0.6591  0.5047
 4308SOL     OW13174   4.763   2.016   4.380  0.3393  0.3983  0.1456
 4308SOL    HW113175   4.699   1.956   4.341  0.4331  0.2494  0.2217
 4308SOL    HW213176   4.736   2.102   4.349  0.5804  0.2502 -0.4735
 4309SOL     OW13177   2.143   4.875   2.152 -0.9736 -0.0224  0.1149
 4309SOL    HW113178   2.215   4.816   2.132  0.2584  1.2784  0.5120
 4309SOL    HW213179   2.150   4.944   2.086 -0.2249  1.4715  1.6844
 4310SOL     OW13180   1.389   3.938   3.947 -0.0051  0.2249 -0.2186
 4310SOL    HW113181   1.480   3.940   3.975 -0.2731 -0.5350  0.7667
 4310SOL    HW213182   1.368   3.845   3.942 -0.6297  0.3901 -0.7672
 4311SOL     OW13183   4.326   2.266   3.137 -0.2346 -0.2477 -0.0222
 4311SOL    HW113184   4.242   2.268   3.182 -1.0952 -2.3402 -1.3877
 4311SOL    HW213185   4.382   2.210   3.193 -0.2689 -0.2049  0.0551
 4312SOL     OW13186   0.291   4.513   3.485 -0.4131  0.0263  0.4193
 4312SOL    HW113187   0.328   4.489   3.400 -1.9146 -0.4044 -0.1484
 4312SOL    HW213188   0.295   4.433   3.537  2.3003  0.7705  1.4866
 4313SOL     OW13189   4.569   2.844   5.295  0.0914 -0.2307 -0.4827
 4313SOL    HW113190   4.613   2.768   5.257 -0.9039 -1.4314  0.6516
 4313SOL    HW213191   4.479   2.837   5.263 -0.0255  0.4452 -0.3099
 4314SOL     OW13192   0.959   4.120   2.739 -0.3932 -0.1296 -0.1530
 4314SOL    HW113193   1.021   4.049   2.723  0.4014  0.5961 -0.3563
 4314SOL    HW213194   0.875   4.076   2.748  0.4462 -1.4304  2.6637
 4315SOL     OW13195   1.995   2.885   5.388 -0.2973 -0.5189  0.5308
 4315SOL    HW113196   2.021   2.831   5.462 -0.0111  0.8392  1.4509
 4315SOL    HW213197   1.907   2.853   5.365  0.7074 -2.8249 -0.4016
 4316SOL     OW13198   5.498   3.977   0.438  0.0349  0.4076  0.4422
 4316SOL    HW113199   5.590   3.997   0.454  0.3427 -0.2764 -0.3611
 4316SOL    HW213200   5.484   4.003   0.347 -0.8624  1.4876  0.8655
 4317SOL     OW13201   5.941   5.996   2.592  0.2436 -0.3904  0.0201
 4317SOL    HW113202   6.028   5.974   2.559  0.6068  2.1611 -0.9893
 4317SOL    HW213203   5.949   5.988   2.687  1.8160  0.4519 -0.0133
 4318SOL     OW13204   6.129   3.752   5.695  0.3243 -0.0222 -0.0171
 4318SOL    HW113205   6.046   3.748   5.648  0.6486  1.3801 -0.7742
 4318SOL    HW213206   6.196   3.738   5.627  0.7979  1.9760 -0.0423
 4319SOL     OW13207   4.453   4.854   2.443 -0.5820 -0.3316  0.1704
 4319SOL    HW113208   4.462   4.866   2.348  1.1801 -2.0231  0.0564
 4319SOL    HW213209   4.519   4.788   2.465 -2.1616 -1.3131  2.3088
 4320SOL     OW13210   1.944   5.213   2.298  0.1035  0.0970 -0.2765
 4320SOL    HW113211   2.020   5.259   2.263  0.1951  1.0994  1.1538
 4320SOL    HW213212   1.977   5.167   2.375 -0.6924  0.3768  0.2366
 4321SOL     OW13213   3.089   2.456   3.487  0.2338  0.2826  0.2890
 4321SOL    HW113214   3.177   2.438   3.519  0.3226  0.9579  0.4415
 4321SOL    HW213215   3.065   2.539   3.529 -1.5587 -1.2097  2.4770
 4322SOL     OW13216   0.448   6.302   6.156  0.4559 -0.0632 -0.2320
 4322SOL    HW113217   0.490   6.222   6.123 -0.3687  0.0600 -1.6641
 4322SOL    HW213218   0.422   6.349   6.077 -1.0377  0.5709  0.6007
 4323SOL     OW13219   2.451   1.951   5.382 -0.3589  0.4431  0.2044
 4323SOL    HW113220   2.480   1.986   5.466  1.2918  2.7426 -1.1921
 4323SOL    HW213221   2.391   2.018   5.348  1.2463  1.0241 -1.6420
 4324SOL     OW13222   0.585   3.235   0.308 -0.0432 -0.1490  0.8240
 4324SOL    HW113223   0.635   3.154   0.317 -0.2754 -0.4142 -0.0991
 4324SOL    HW213224   0.560   3.237   0.215 -0.8919  0.4751  1.0556
 4325SOL     OW13225   1.916   0.669   5.993 -0.1086 -0.2463  0.4683
 4325SOL    HW113226   1.947   0.732   6.058  0.2821 -0.3165  0.3505
 4325SOL    HW213227   1.824   0.654   6.017 -0.2709  0.5388  0.3506
 4326SOL     OW13228   3.344   0.062   6.172 -0.3627 -0.2369  0.2232
 4326SOL    HW113229   3.309  -0.014   6.125  2.4686 -2.7054  1.8068
 4326SOL    HW213230   3.432   0.075   6.136  0.5081  0.0748  2.3367
 4327SOL     OW13231   5.489   3.224   0.364  0.5761 -0.0371  0.1742
 4327SOL    HW113232   5.567   3.230   0.419  0.3822  0.0752  0.4373
 4327SOL    HW213233   5.418   3.200   0.424  0.1728  1.0088  0.1521
 4328SOL     OW13234   2.797   4.603   1.901  0.1153  0.0364 -0.1053
 4328SOL    HW113235   2.705   4.578   1.912  0.4061 -1.2717 -0.4427
 4328SOL    HW213236   2.802   4.692   1.935 -1.4147  0.3801 -0.6793
 4329SOL     OW13237   1.563   2.818   0.124 -0.1687  0.3421  0.1962
 4329SOL    HW113238   1.599   2.907   0.127 -0.5751  0.5059  0.3794
 4329SOL    HW213239   1.488   2.825   0.065  0.1912 -0.0335 -0.3151
 4330SOL     OW13240   4.339   1.034   1.500 -0.1563 -0.0718 -0.2289
 4330SOL    HW113241   4.304   1.122   1.491 -0.7362 -0.3158 -0.3785
 4330SOL    HW213242   4.362   1.008   1.411 -0.9381 -0.4591 -0.3221
 4331SOL     OW13243   1.938   3.105   1.619  0.0391 -0.2707  0.3283
 4331SOL    HW113244   1.961   3.113   1.526 -2.5584 -0.7713 -0.4380
 4331SOL    HW213245   1.886   3.182   1.638 -0.1154 -0.5715  1.1615
 4332SOL     OW13246   4.834   2.705   5.508  0.3075 -0.0047 -0.0913
 4332SOL    HW113247   4.878   2.709   5.423 -0.4614  1.1498 -0.4698
 4332SOL    HW213248   4.754   2.655   5.492  1.0177 -1.3210  0.3835
 4333SOL     OW13249   5.659   1.930   5.718 -0.0797  0.2532  0.0747
 4333SOL    HW113250   5.676   1.955   5.628 -1.8172  1.6742  0.0795
 4333SOL    HW213251   5.571   1.963   5.736  0.2136 -0.0026  2.2818
 4334SOL     OW13252   0.329   4.743   5.680 -0.0854 -0.7368  0.0459
 4334SOL    HW113253   0.399   4.800   5.712  1.1280 -2.4776  0.6438
 4334SOL    HW213254   0.350   4.729   5.588  1.0890 -2.2187  0.5091
 4335SOL     OW13255   1.794   2.230   0.444 -0.2659 -0.5478  0.0102
 4335SOL    HW113256   1.833   2.297   0.386  1.9816  0.3282  2.3120
 4335SOL    HW213257   1.861   2.162   0.450  0.2344  0.0665  2.6020
 4336SOL     OW13258   3.084   3.465   4.635  0.1287 -0.1458  0.2154
 4336SOL    HW113259   3.022   3.400   4.667 -2.4085  1.4821 -0.9895
 4336SOL    HW213260   3.128   3.497   4.713 -0.0097 -1.8599  1.0438
 4337SOL     OW13261   6.290   5.895   0.526  0.8779  0.1433  0.1350
 4337SOL    HW113262   6.350   5.871   0.597  0.5100 -0.1024  0.3745
 4337SOL    HW213263   6.211   5.843   0.544  0.1253  1.3693  0.5451
 4338SOL     OW13264   4.930   2.274   2.012  0.1256 -0.3254 -0.6382
 4338SOL    HW113265   4.835   2.268   2.003  0.2210 -0.9134 -1.2683
 4338SOL    HW213266   4.943   2.334   2.086 -0.7235  0.1485 -0.8680
 4339SOL     OW13267   6.311   2.714   3.033 -0.7993  1.0451  0.3791
 4339SOL    HW113268   6.346   2.776   3.097 -1.0579  0.8914  0.6768
 4339SOL    HW213269   6.217   2.713   3.050 -0.7499  0.2541  0.6656
 4340SOL     OW13270   0.808   5.087   4.296  0.1677  0.3108 -0.1277
 4340SOL    HW113271   0.800   5.036   4.216  0.0133 -0.5776  0.4397
 4340SOL    HW213272   0.818   5.022   4.365  2.5427  1.0657  0.3555
 4341SOL     OW13273   3.847   6.049   5.569  0.5069  0.0748  0.5217
 4341SOL    HW113274   3.856   5.955   5.552 -1.3645  0.2945 -2.3521
 4341SOL    HW213275   3.757   6.069   5.541  0.5423  2.5775  1.9421
 4342SOL     OW13276   4.529   6.211   4.333  0.1021 -0.0798  0.5270
 4342SOL    HW113277   4.492   6.136   4.286 -1.2714 -0.3827  1.9939
 4342SOL    HW213278   4.617   6.183   4.358 -0.2717 -1.0951  0.7593
 4343SOL     OW13279   2.637   4.074   0.654 -0.3616  0.1521  0.0445
 4343SOL    HW113280   2.710   4.015   0.672 -1.5885 -2.3321 -2.3346
 4343SOL    HW213281   2.561   4.029   0.692 -1.6165 -0.9857 -3.3480
 4344SOL     OW13282   1.848   1.439   5.481  0.2877 -0.0594  0.0855
 4344SOL    HW113283   1.791   1.491   5.425 -1.3863 -3.4403 -1.6614
 4344SOL    HW213284   1.925   1.420   5.428 -0.5375 -1.8657 -0.5371
 4345SOL     OW13285   3.965   4.139   6.007 -0.1973  0.1713 -0.7155
 4345SOL    HW113286   4.014   4.085   6.069 -0.6445 -0.3828 -0.8245
 4345SOL    HW213287   3.877   4.146   6.045 -0.5421 -0.3626 -1.3728
 4346SOL     OW13288   0.401   4.336   2.060 -0.2010 -0.5368  0.3930
 4346SOL    HW113289   0.357   4.405   2.108 -0.3393 -0.5762  0.3227
 4346SOL    HW213290   0.408   4.264   2.122  0.4473 -0.2621  0.6442
 4347SOL     OW13291   1.712   1.702   1.014 -0.5331 -0.1252 -0.7217
 4347SOL    HW113292   1.671   1.789   1.024 -0.1753 -0.1531  1.4208
 4347SOL    HW213293   1.775   1.714   0.944  0.4118  1.7483  0.3556
 4348SOL     OW13294   5.437   1.352   4.509  0.4769 -0.3790  0.2015
 4348SOL    HW113295   5.434   1.448   4.506  1.7067 -0.3322 -1.8746
 4348SOL    HW213296   5.374   1.328   4.577  0.4819  1.9040  1.1092
 4349SOL     OW13297   2.973   5.178   6.022 -0.2822  0.0047  0.1842
 4349SOL    HW113298   2.932   5.174   6.109  0.7199  0.0770  0.6766
 4349SOL    HW213299   2.905   5.147   5.962 -0.5056 -1.5633  1.1690
 4350SOL     OW13300   6.245   5.706   0.015  0.0621  0.4410  0.4919
 4350SOL    HW113301   6.227   5.630   0.071  0.9303  0.2252  0.4820
 4350SOL    HW213302   6.319   5.678  -0.040 -1.6085  0.1041 -1.7565
 4351SOL     OW13303   1.212   1.681   0.162 -0.0611 -0.4329  0.0500
 4351SOL    HW113304   1.145   1.677   0.094 -0.2690  1.3173  0.1120
 4351SOL    HW213305   1.265   1.602   0.147 -0.4602 -0.4155 -1.7678
 4352SOL     OW13306   5.412   5.520   6.288  0.2205 -0.2892 -0.5385
 4352SOL    HW113307   5.353   5.549   6.358  0.8778 -1.6994  0.6456
 4352SOL    HW213308   5.387   5.429   6.273  0.6228 -0.2351 -1.6116
 4353SOL     OW13309   4.793   4.275   3.543  0.4356  0.8871  0.0840
 4353SOL    HW113310   4.818   4.183   3.548  2.6644  1.3659 -1.0673
 4353SOL    HW213311   4.838   4.316   3.617  0.4742  1.2718 -0.1521
 4354SOL     OW13312   6.344   4.915   4.771 -0.7251  0.0751  0.0675
 4354SOL    HW113313   6.394   4.986   4.732 -1.6046  1.2683  1.0299
 4354SOL    HW213314   6.388   4.898   4.855 -0.1935 -0.9141 -0.3950
 4355SOL     OW13315   5.692   1.614   2.632 -0.4460 -0.7118  0.1403
 4355SOL    HW113316   5.771   1.560   2.624  1.3151  1.7135  0.2101
 4355SOL    HW213317   5.647   1.578   2.708  0.0612 -2.7439 -0.4441
 4356SOL     OW13318   3.026   2.853   4.717 -0.1339  0.0710 -0.1425
 4356SOL    HW113319   3.104   2.797   4.719 -0.1136  0.0700 -0.8146
 4356SOL    HW213320   3.051   2.927   4.661  0.2212  1.3358  1.6130
 4357SOL     OW13321   4.683   3.114   3.310  0.1175  0.0767 -0.1741
 4357SOL    HW113322   4.609   3.059   3.282 -0.7899  0.6288  1.0421
 4357SOL    HW213323   4.761   3.064   3.286 -0.6656 -0.8894 -0.7728
 4358SOL     OW13324   5.543   5.650   2.349  0.3232  0.1272 -0.1802
 4358SOL    HW113325   5.506   5.720   2.296 -1.9949 -1.4585 -0.7971
 4358SOL    HW213326   5.528   5.677   2.440 -1.5821 -0.0366 -0.4151
 4359SOL     OW13327   1.934   3.932   0.036 -0.1905 -0.0899 -0.1409
 4359SOL    HW113328   1.975   3.859   0.083 -0.2882  1.3418  2.3499
 4359SOL    HW213329   1.843   3.905   0.027  0.2386 -1.2328 -1.3575
 4360SOL     OW13330   6.112   5.253   3.435  0.0238  0.2953 -0.3852
 4360SOL    HW113331   6.114   5.255   3.530 -0.7763 -1.1919 -0.3070
 4360SOL    HW213332   6.159   5.173   3.411 -1.2302 -0.2503 -1.1368
 4361SOL     OW13333   5.056   3.678   3.149  0.1364  0.3309  0.1601
 4361SOL    HW113334   5.059   3.644   3.059  1.2259  2.5176 -0.7274
 4361SOL    HW213335   4.969   3.717   3.156 -0.8610 -1.9332  0.9490
 4362SOL     OW13336   6.122   0.687   0.627  0.1737 -0.5262 -0.3375
 4362SOL    HW113337   6.130   0.646   0.713 -1.3477 -2.6385 -1.1143
 4362SOL    HW213338   6.141   0.617   0.565 -2.5270 -0.1376 -1.7591
 4363SOL     OW13339   1.421   1.767   3.330 -0.2460  0.2726 -0.2082
 4363SOL    HW113340   1.358   1.838   3.343  1.5973  2.0180 -0.3614
 4363SOL    HW213341   1.493   1.788   3.389  0.7315 -1.0343 -0.8801
 4364SOL     OW13342   2.716   4.600   5.759  0.0500  0.7345  0.2336
 4364SOL    HW113343   2.728   4.509   5.787 -1.3007  0.7127  0.8320
 4364SOL    HW213344   2.633   4.627   5.799  1.0318  2.6454  1.1446
 4365SOL     OW13345   5.427   5.283   2.844  0.1892 -0.3869 -0.1014
 4365SOL    HW113346   5.443   5.191   2.864 -2.1603 -1.3703 -2.1895
 4365SOL    HW213347   5.357   5.309   2.904  0.7287  0.0082  0.3646
 4366SOL     OW13348   2.330   1.112   5.328  0.1674 -0.5806  0.2302
 4366SOL    HW113349   2.410   1.096   5.378  0.9731  0.9014 -0.5152
 4366SOL    HW213350   2.314   1.206   5.338 -1.3564 -0.8020  0.1558
 4367SOL     OW13351   1.148   2.618   1.030 -0.1024  0.1628 -0.3413
 4367SOL    HW113352   1.129   2.616   1.124 -1.3667 -0.5305 -0.5905
 4367SOL    HW213353   1.129   2.708   1.003 -3.7572 -0.5581 -0.6575
 4368SOL     OW13354   4.391   1.232   0.594 -0.8390 -0.4584  0.1411
 4368SOL    HW113355   4.297   1.221   0.607 -0.7307  0.2304  1.7105
 4368SOL    HW213356   4.417   1.299   0.658  0.2008  1.5907 -2.2260
 4369SOL     OW13357   0.271   1.233   3.332 -0.4330 -0.0449  0.0393
 4369SOL    HW113358   0.207   1.166   3.312  0.4677 -0.1635 -2.8995
 4369SOL    HW213359   0.347   1.185   3.366 -0.1270 -0.4701 -1.1941
 4370SOL     OW13360   5.035   1.392   2.601  0.1052 -0.3377  0.1916
 4370SOL    HW113361   4.949   1.384   2.641 -0.3765  0.3717 -0.6628
 4370SOL    HW213362   5.047   1.486   2.587 -0.0212 -0.5812 -1.8480
 4371SOL     OW13363   3.547   4.723   6.150  0.5524  0.3763  0.2963
 4371SOL    HW113364   3.568   4.763   6.066  1.7628 -0.0084  0.4034
 4371SOL    HW213365   3.452   4.710   6.147  0.2369  2.4772 -0.0540
 4372SOL     OW13366   4.198   2.522   6.163 -0.1257 -0.1353 -0.3956
 4372SOL    HW113367   4.155   2.577   6.097 -1.1975 -0.9131 -0.3718
 4372SOL    HW213368   4.237   2.585   6.223  0.1034  0.5940 -1.2749
 4373SOL     OW13369   3.527   0.319   4.810 -0.2431 -0.1200 -0.2385
 4373SOL    HW113370   3.448   0.265   4.806 -0.8252  0.7172 -0.4546
 4373SOL    HW213371   3.598   0.261   4.784 -0.6026 -1.2145  1.1341
 4374SOL     OW13372   2.136   3.059   4.470 -0.2067 -0.2219  0.4500
 4374SOL    HW113373   2.133   2.964   4.481  0.6675 -0.2682  0.3563
 4374SOL    HW213374   2.050   3.089   4.501  0.6437 -0.7077  3.7362
 4375SOL     OW13375   1.892   3.766   4.690 -0.3085 -0.4919 -0.0143
 4375SOL    HW113376   1.909   3.764   4.784  0.4902 -1.5889 -0.1556
 4375SOL    HW213377   1.797   3.769   4.683 -0.3515  0.8287  0.8135
 4376SOL     OW13378   4.568   4.598   5.237  0.3055  0.0615  0.2730
 4376SOL    HW113379   4.538   4.620   5.325 -0.6137 -0.1261  0.0159
 4376SOL    HW213380   4.522   4.518   5.215  0.6311  0.0334 -0.3298
 4377SOL     OW13381   6.073   1.438   6.012  0.5149 -0.2833 -0.4188
 4377SOL    HW113382   5.994   1.468   5.966  0.5629 -0.1446 -0.4129
 4377SOL    HW213383   6.145   1.466   5.955  0.5101 -1.5155 -1.0530
 4378SOL     OW13384   1.823   4.571   6.055  0.4489 -0.1565 -0.7977
 4378SOL    HW113385   1.865   4.485   6.063  1.6477  0.4839  0.1361
 4378SOL    HW213386   1.890   4.626   6.013  0.5173  0.8599  0.6060
 4379SOL     OW13387   0.621   3.543   3.500 -0.0103 -0.1113  0.2665
 4379SOL    HW113388   0.705   3.499   3.488  0.7141  1.3770 -0.4203
 4379SOL    HW213389   0.568   3.513   3.426  0.3002 -0.1891  0.0739
 4380SOL     OW13390   3.400   1.999   0.662  0.5645  0.3270  0.4750
 4380SOL    HW113391   3.324   1.993   0.603  0.3706 -2.3852  0.8881
 4380SOL    HW213392   3.384   2.079   0.713 -1.8852 -0.0105  0.3650
 4381SOL     OW13393   2.665   3.249   0.384 -0.3466  1.1867 -0.0584
 4381SOL    HW113394   2.745   3.241   0.332  0.2014 -1.0028  0.9984
 4381SOL    HW213395   2.601   3.289   0.324  0.9800  1.1931 -1.5368
 4382SOL     OW13396   0.926   4.493   3.963  0.0050 -0.3315  0.0708
 4382SOL    HW113397   0.961   4.405   3.975  1.1105  0.1671  0.7768
 4382SOL    HW213398   0.849   4.497   4.020  0.4746 -0.5669  0.7354
 4383SOL     OW13399   0.947   5.729   5.070  0.3669  0.4483 -0.1342
 4383SOL    HW113400   0.883   5.690   5.010  0.3367 -1.3880  1.0322
 4383SOL    HW213401   0.894   5.762   5.143  0.6793 -1.3048  0.9598
 4384SOL     OW13402   1.380   2.568   0.891 -0.3089  0.4111  0.2765
 4384SOL    HW113403   1.383   2.602   0.802 -0.1747 -1.0072 -0.2899
 4384SOL    HW213404   1.297   2.600   0.927 -0.6790  0.4396 -0.5895
 4385SOL     OW13405   5.402   4.309   0.372  0.0664  1.0086 -0.1054
 4385SOL    HW113406   5.447   4.333   0.453  1.9901 -0.3942 -0.6807
 4385SOL    HW213407   5.463   4.333   0.303 -0.4339 -0.1377 -0.9802
 4386SOL     OW13408   6.198   5.145   1.453  0.4088 -0.0060 -0.0374
 4386SOL    HW113409   6.129   5.187   1.401 -0.5426 -0.2737  0.9832
 4386SOL    HW213410   6.255   5.104   1.388 -0.4222  0.1725 -0.8991
 4387SOL     OW13411   6.009   3.405   4.298  0.3353  0.5180 -0.6379
 4387SOL    HW113412   6.097   3.436   4.320 -0.0517  0.9178  0.4033
 4387SOL    HW213413   5.986   3.453   4.219  0.1222  2.2373  0.4172
 4388SOL     OW13414   1.152   2.992   5.709  0.3990 -0.1465 -0.2810
 4388SOL    HW113415   1.079   3.054   5.717  0.2201 -0.4901  1.0085
 4388SOL    HW213416   1.210   3.014   5.782  0.8262 -0.8556 -0.3978
 4389SOL     OW13417   5.830   4.231   0.230  0.3021 -0.4222 -0.2456
 4389SOL    HW113418   5.831   4.160   0.294 -1.2627 -2.3755 -2.2113
 4389SOL    HW213419   5.917   4.229   0.190  0.8794  0.0242  0.9523
 4390SOL     OW13420   4.569   2.784   6.256 -0.3066  0.5311 -0.3955
 4390SOL    HW113421   4.569   2.739   6.340 -0.1267  2.5348  0.7510
 4390SOL    HW213422   4.497   2.744   6.207 -0.3209 -0.7771  0.6346
 4391SOL     OW13423   5.594   1.393   1.010  0.2640 -0.5933  0.5595
 4391SOL    HW113424   5.505   1.414   0.981 -0.0482 -3.3807 -0.8476
 4391SOL    HW213425   5.615   1.462   1.072 -2.0296  1.3966 -0.6717
 4392SOL     OW13426   4.924   4.017   4.109 -0.2088 -0.2420  0.5521
 4392SOL    HW113427   4.911   4.103   4.068  0.8120 -0.3347  0.0086
 4392SOL    HW213428   5.019   4.008   4.118 -0.2544 -1.6510 -0.1252
 4393SOL     OW13429   3.639   3.107   1.349  0.0798  0.0516  0.2924
 4393SOL    HW113430   3.618   3.173   1.415  0.2475  0.1866  0.2140
 4393SOL    HW213431   3.715   3.143   1.303 -0.2990  0.1609 -0.2567
 4394SOL     OW13432   0.159   0.015   2.395 -0.2813  0.2626  0.2959
 4394SOL    HW113433   0.204   0.066   2.328 -0.5802  0.8380  0.5275
 4394SOL    HW213434   0.225   0.006   2.465  0.6260 -1.7784 -0.7233
 4395SOL     OW13435   2.647   5.234   1.742 -0.4322  0.2226 -0.3649
 4395SOL    HW113436   2.647   5.156   1.798 -2.5528  0.1841 -0.3097
 4395SOL    HW213437   2.662   5.200   1.654 -0.4184 -0.1413 -0.2240
 4396SOL     OW13438   3.394   1.594   1.336 -0.2321  0.3321 -0.5153
 4396SOL    HW113439   3.417   1.571   1.246 -0.0368  0.0942 -0.4044
 4396SOL    HW213440   3.478   1.605   1.381 -0.2520  2.8970 -0.9508
 4397SOL     OW13441   0.269   2.904   1.311  0.0919  0.3918 -0.1840
 4397SOL    HW113442   0.278   2.996   1.289 -2.0871  0.8557  0.5373
 4397SOL    HW213443   0.355   2.878   1.344  1.2297  1.6690 -1.9560
 4398SOL     OW13444   5.423   2.306   6.289 -0.2803 -0.1385  0.2906
 4398SOL    HW113445   5.376   2.390   6.295 -1.1856 -0.5851 -0.3341
 4398SOL    HW213446   5.487   2.320   6.219 -1.2436 -0.3333 -0.6522
 4399SOL     OW13447   3.206   5.961   2.594 -0.1869 -0.0470  0.2178
 4399SOL    HW113448   3.168   6.037   2.550 -0.5196 -0.9986 -1.2020
 4399SOL    HW213449   3.167   5.961   2.681 -1.8223  0.2222 -0.4742
 4400SOL     OW13450   1.057   4.791   3.561  0.7251  0.3524 -0.2538
 4400SOL    HW113451   1.016   4.865   3.606 -0.1822  1.4301 -2.6837
 4400SOL    HW213452   1.150   4.800   3.582  0.3544  0.7739  1.3691
 4401SOL     OW13453   1.869   3.028   3.082 -0.1926 -0.4316 -0.1877
 4401SOL    HW113454   1.776   3.025   3.104 -0.8986 -0.1146 -2.7576
 4401SOL    HW213455   1.901   3.107   3.124 -1.8078  1.0065 -1.4997
 4402SOL     OW13456   5.193   3.083   1.149  0.2595 -0.3822 -0.3960
 4402SOL    HW113457   5.265   3.145   1.154  0.4069 -0.6111  0.5561
 4402SOL    HW213458   5.223   3.015   1.089  0.6326 -0.2118 -0.4020
 4403SOL     OW13459   0.688   4.618   5.525 -0.5938  0.5096  0.7059
 4403SOL    HW113460   0.655   4.588   5.609 -2.4439 -0.7446 -0.3950
 4403SOL    HW213461   0.617   4.672   5.489  0.1860  1.0709 -0.0483
 4404SOL     OW13462   2.563   0.177   0.508  0.6977 -0.1148  0.1969
 4404SOL    HW113463   2.569   0.260   0.461  1.4856 -0.3407 -0.0984
 4404SOL    HW213464   2.502   0.196   0.580 -0.5511  0.2197 -0.8984
 4405SOL     OW13465   6.184   2.400   0.235  0.7017 -0.1305  0.0898
 4405SOL    HW113466   6.235   2.326   0.268  0.9362 -0.8268 -1.7230
 4405SOL    HW213467   6.233   2.477   0.265  2.4334 -0.7712 -0.9198
 4406SOL     OW13468   0.784   2.463   5.358  0.0621 -0.2277 -0.2618
 4406SOL    HW113469   0.856   2.518   5.326  0.8059 -0.6997  0.5341
 4406SOL    HW213470   0.784   2.477   5.453 -1.2660  0.1812 -0.3065
 4407SOL     OW13471   0.424   3.513   2.664  0.1214 -0.2938  0.1894
 4407SOL    HW113472   0.472   3.431   2.679  0.3729 -0.1392  0.2283
 4407SOL    HW213473   0.335   3.493   2.693  0.5900 -0.0001  1.9539
 4408SOL     OW13474   5.170   3.820   3.865 -0.1276  0.2060 -0.1697
 4408SOL    HW113475   5.137   3.842   3.778 -1.5320  0.6417  0.4301
 4408SOL    HW213476   5.135   3.733   3.883  0.2327  0.0787 -0.0732
 4409SOL     OW13477   6.101   2.972   5.270 -0.8930  0.2001  0.3579
 4409SOL    HW113478   6.122   2.962   5.363  1.2570  2.7338  0.2823
 4409SOL    HW213479   6.013   3.009   5.268  0.6897  4.7290  1.8658
 4410SOL     OW13480   2.737   1.109   4.265  0.0255 -0.2259 -0.1193
 4410SOL    HW113481   2.743   1.083   4.357 -1.8371  2.2422  0.8009
 4410SOL    HW213482   2.691   1.036   4.223  1.1117 -1.4992  0.7822
 4411SOL     OW13483   2.496   3.553   1.290 -0.2770  0.0157  0.4022
 4411SOL    HW113484   2.465   3.520   1.374 -1.0517  1.1049  0.5745
 4411SOL    HW213485   2.589   3.570   1.302 -0.4682  0.5390  1.1740
 4412SOL     OW13486   1.058   5.340   2.579  0.7145 -0.0677  0.1298
 4412SOL    HW113487   1.019   5.393   2.510  0.1244  0.0484  0.5469
 4412SOL    HW213488   1.026   5.251   2.563 -1.2429  0.3085  1.5023
 4413SOL     OW13489   3.738   2.668   2.221 -0.5840 -0.3301 -0.0742
 4413SOL    HW113490   3.816   2.717   2.196 -1.0706 -0.2389 -1.5375
 4413SOL    HW213491   3.677   2.735   2.254 -0.8737 -0.0625 -1.1111
 4414SOL     OW13492   3.724   2.931   4.797  0.1465 -0.3345 -0.8511
 4414SOL    HW113493   3.795   2.988   4.768  0.0165 -0.1352 -0.7811
 4414SOL    HW213494   3.656   2.992   4.830  0.4996 -0.5579  0.3467
 4415SOL     OW13495   3.210   0.006   5.272  0.0277 -0.6468  0.2745
 4415SOL    HW113496   3.293  -0.009   5.226  0.1398 -0.3002  0.3590
 4415SOL    HW213497   3.145  -0.043   5.221 -0.1157  0.9180 -1.1153
 4416SOL     OW13498   5.029   2.442   5.986 -0.1193  0.0271 -0.0525
 4416SOL    HW113499   4.963   2.375   5.965 -0.8501 -0.0567  2.2302
 4416SOL    HW213500   5.112   2.396   5.978 -0.5218 -0.7427  0.0293
 4417SOL     OW13501   0.010   3.732   4.843 -0.2332  0.1970  0.4510
 4417SOL    HW113502   0.085   3.785   4.870  2.3132 -0.6462 -3.9829
 4417SOL    HW213503  -0.000   3.667   4.913  2.3334  1.1229  1.8258
 4418SOL     OW13504   5.310   0.963   4.008 -0.1386 -0.0989 -0.3676
 4418SOL    HW113505   5.339   0.935   3.921 -0.7076  0.4323 -0.7364
 4418SOL    HW213506   5.275   0.883   4.048 -1.1993 -0.0551 -1.1778
 4419SOL     OW13507   5.662   5.049   0.195  0.2102 -0.4186 -0.2768
 4419SOL    HW113508   5.600   5.122   0.188  0.6324  0.1316  1.3083
 4419SOL    HW213509   5.640   4.992   0.121  0.0137  1.4087 -1.7247
 4420SOL     OW13510   0.822   2.677   1.150  0.0261 -0.6255 -0.1477
 4420SOL    HW113511   0.828   2.588   1.186 -0.0503 -0.4548  0.2926
 4420SOL    HW213512   0.905   2.718   1.174 -0.1396 -0.4215  0.0819
 4421SOL     OW13513   2.079   2.413   3.315  0.8629 -0.2128  0.0451
 4421SOL    HW113514   2.108   2.323   3.331  0.0823 -0.5031 -0.1664
 4421SOL    HW213515   1.986   2.413   3.335  0.6397  0.3086 -0.9287
 4422SOL     OW13516   1.497   5.521   3.932  0.0368  0.0474  0.3800
 4422SOL    HW113517   1.542   5.452   3.981  2.0627  0.7058 -0.4344
 4422SOL    HW213518   1.525   5.507   3.841 -1.2262  0.6896 -0.1411
 4423SOL     OW13519   3.819   2.968   0.278  0.1545  0.0953  0.0169
 4423SOL    HW113520   3.732   2.961   0.237 -0.2076  1.0618  0.5980
 4423SOL    HW213521   3.874   3.008   0.210  0.0376 -0.1097 -0.2007
 4424SOL     OW13522   2.199   4.256   3.858 -0.1203 -0.5018 -0.0364
 4424SOL    HW113523   2.286   4.225   3.885 -0.0878 -1.0234 -0.7217
 4424SOL    HW213524   2.144   4.241   3.935  0.8428  1.9668  1.2735
 4425SOL     OW13525   5.489   4.627   3.254 -0.0186 -0.4908 -0.2870
 4425SOL    HW113526   5.505   4.671   3.338 -1.9309 -1.4910  0.6646
 4425SOL    HW213527   5.560   4.658   3.197 -1.4905  4.3402  0.0747
 4426SOL     OW13528   2.072   2.641   1.581  0.6802  0.1700 -0.2525
 4426SOL    HW113529   2.038   2.694   1.653  0.1617  0.8757 -1.0001
 4426SOL    HW213530   2.000   2.584   1.557  0.5899  0.4692 -0.7076
 4427SOL     OW13531   5.082   0.856   5.347  0.0666 -0.4669  0.5047
 4427SOL    HW113532   5.174   0.876   5.333 -0.2461  0.9025  0.3196
 4427SOL    HW213533   5.045   0.847   5.259 -0.7360  2.7489  0.3917
 4428SOL     OW13534   2.329   4.429   2.507 -0.6662 -0.1128  0.0627
 4428SOL    HW113535   2.380   4.353   2.536 -0.4104 -0.3161 -0.8853
 4428SOL    HW213536   2.321   4.484   2.586  0.6012 -0.3107  0.3546
 4429SOL     OW13537   6.324   3.295   4.077 -0.1634 -0.4253 -0.2400
 4429SOL    HW113538   6.311   3.316   4.169 -0.5828 -2.3041  0.1598
 4429SOL    HW213539   6.405   3.244   4.075  1.3903  1.9120 -1.3133
 4430SOL     OW13540   4.491   3.067   5.761  0.3450  0.3688  0.3039
 4430SOL    HW113541   4.567   3.097   5.711  0.6849  0.7726  1.0479
 4430SOL    HW213542   4.418   3.070   5.699  0.6397  1.4289  0.0005
 4431SOL     OW13543   2.477   1.194   5.989 -0.7058 -0.9376 -0.1070
 4431SOL    HW113544   2.438   1.281   5.990  0.7639 -0.2584  0.2464
 4431SOL    HW213545   2.515   1.184   6.076  0.6654 -1.1980 -0.7112
 4432SOL     OW13546   0.056   0.251   5.746 -0.0246 -0.0025  0.1501
 4432SOL    HW113547   0.012   0.179   5.790  0.5983 -0.9041 -0.6513
 4432SOL    HW213548   0.115   0.288   5.812 -0.4898 -0.0932  0.6206
 4433SOL     OW13549   2.518   0.325   1.689  0.2590  0.6226  0.0181
 4433SOL    HW113550   2.465   0.311   1.767  1.9172 -0.7138  0.9584
 4433SOL    HW213551   2.599   0.363   1.721  1.8636 -1.9534 -0.6735
 4434SOL     OW13552   0.508   6.031   1.567 -0.0448 -0.7354 -0.3757
 4434SOL    HW113553   0.507   5.935   1.574  1.1136 -0.6749  1.0954
 4434SOL    HW213554   0.458   6.049   1.488  1.5015 -2.6795 -1.9232
 4435SOL     OW13555   0.520   2.806   4.151  0.8949 -0.2274 -0.6180
 4435SOL    HW113556   0.501   2.868   4.221  1.0512  0.2736 -1.0107
 4435SOL    HW213557   0.481   2.723   4.180 -1.5902  0.6520 -1.2003
 4436SOL     OW13558   4.846   3.024   4.714 -0.4237 -0.2377 -0.2425
 4436SOL    HW113559   4.889   2.976   4.643  1.1156  0.5071  0.1417
 4436SOL    HW213560   4.817   2.957   4.775 -0.5618 -0.8073 -0.9268
 4437SOL     OW13561   0.941   4.546   4.863  0.4252 -0.1272  0.1632
 4437SOL    HW113562   0.968   4.555   4.955  0.1081  1.6738  0.1220
 4437SOL    HW213563   0.956   4.454   4.842  1.3288 -0.3757  1.7615
 4438SOL     OW13564   3.258   3.521   5.157  0.1129  0.2641 -0.0235
 4438SOL    HW113565   3.253   3.425   5.158 -1.4701  0.2907 -0.8772
 4438SOL    HW213566   3.346   3.540   5.124 -0.8586 -1.0323 -3.9883
 4439SOL     OW13567   4.211   1.079   4.870 -0.7043 -0.2213 -0.0046
 4439SOL    HW113568   4.185   1.085   4.778  2.4004 -2.6797 -1.2378
 4439SOL    HW213569   4.160   1.005   4.904  0.7737 -1.7331 -0.9272
 4440SOL     OW13570   6.052   1.031   5.164  0.0263  0.5672  0.2569
 4440SOL    HW113571   6.029   0.946   5.203 -1.4169  0.5385 -0.5816
 4440SOL    HW213572   6.061   1.090   5.238 -1.9517  0.3473  0.7337
 4441SOL     OW13573   5.833   2.488   3.647 -0.4256  0.0002  0.0917
 4441SOL    HW113574   5.754   2.494   3.594 -0.7815 -0.1973  0.5944
 4441SOL    HW213575   5.804   2.505   3.736  0.2459  0.7661  0.1686
 4442SOL     OW13576   1.351   3.622   5.079 -0.4816 -0.4430 -0.0990
 4442SOL    HW113577   1.414   3.612   5.150 -0.3811  1.5983  0.1599
 4442SOL    HW213578   1.268   3.595   5.118 -0.0149 -1.8952 -0.0464
 4443SOL     OW13579   1.418   2.378   5.021 -0.5120  0.8535  0.6890
 4443SOL    HW113580   1.504   2.336   5.025 -0.1934  1.5116  0.9467
 4443SOL    HW213581   1.371   2.330   4.952  0.2729  0.8801  0.1190
 4444SOL     OW13582   0.271   3.067   2.103  0.0750  0.5265 -0.3039
 4444SOL    HW113583   0.341   3.124   2.073  0.7459  0.2865  0.7361
 4444SOL    HW213584   0.279   2.988   2.050  0.6113  0.5000 -0.1927
 4445SOL     OW13585   4.383   2.805   3.837 -0.5314  0.2441  0.0393
 4445SOL    HW113586   4.476   2.795   3.854 -0.4014 -1.7561 -1.4154
 4445SOL    HW213587   4.340   2.770   3.915  0.0201 -2.3661 -0.7177
 4446SOL     OW13588   1.587   0.270   4.562  0.3443 -0.4808 -0.0114
 4446SOL    HW113589   1.578   0.175   4.572  2.7525 -0.7636 -0.0257
 4446SOL    HW213590   1.518   0.294   4.499  0.2024 -2.3326 -0.6289
 4447SOL     OW13591   1.557   3.225   0.977  0.0820 -0.0434 -0.5616
 4447SOL    HW113592   1.610   3.269   1.043  0.1118  0.3794 -0.8589
 4447SOL    HW213593   1.467   3.244   1.002 -0.0453 -2.2468  0.9736
 4448SOL     OW13594   2.676   5.921   5.595 -0.4556  0.4850 -0.0572
 4448SOL    HW113595   2.586   5.952   5.587 -0.1932  0.8289 -3.1076
 4448SOL    HW213596   2.671   5.842   5.648 -2.7707 -0.2346 -1.2332
 4449SOL     OW13597   1.209   1.529   2.792  0.6863  0.1478 -0.1400
 4449SOL    HW113598   1.246   1.510   2.879  3.3735 -0.1657 -1.2436
 4449SOL    HW213599   1.181   1.444   2.758 -3.2602  0.5972  1.4673
 4450SOL     OW13600   5.257   3.825   3.070  0.5885 -0.0539 -0.0776
 4450SOL    HW113601   5.228   3.844   2.980  0.7486  2.0193  0.2480
 4450SOL    HW213602   5.193   3.761   3.103 -1.3493  1.4720 -0.6822
 4451SOL     OW13603   4.310   2.538   0.143  0.5378 -0.0927 -0.2084
 4451SOL    HW113604   4.254   2.460   0.146  0.0966  0.2330  0.3114
 4451SOL    HW213605   4.259   2.606   0.189  1.4020  0.1759  0.3858
 4452SOL     OW13606   2.328   3.744   1.147 -0.4839  0.1517 -0.3381
 4452SOL    HW113607   2.376   3.686   1.206 -2.5464  0.0921  1.4275
 4452SOL    HW213608   2.390   3.813   1.125  0.6746 -0.3556  1.1445
 4453SOL     OW13609   4.412   5.223   0.381 -0.5920  0.0458  0.5421
 4453SOL    HW113610   4.375   5.298   0.428 -1.8811  0.2625 -0.7336
 4453SOL    HW213611   4.360   5.148   0.410  0.0282 -0.1808  1.0650
 4454SOL     OW13612   5.838   4.499   4.695 -0.2306  0.0455 -0.1273
 4454SOL    HW113613   5.922   4.458   4.715 -0.9586 -2.1312 -1.2134
 4454SOL    HW213614   5.847   4.531   4.606 -0.1283  1.0767  0.2375
 4455SOL     OW13615   1.328   5.339   2.694  0.1965 -0.1884 -0.2506
 4455SOL    HW113616   1.248   5.360   2.646  0.9240  0.6884 -1.1168
 4455SOL    HW213617   1.385   5.299   2.629  0.3213 -1.2076  0.4618
 4456SOL     OW13618   4.425   3.016   1.156 -0.1811 -0.7701 -0.1960
 4456SOL    HW113619   4.398   3.059   1.074 -1.9756  0.6154  1.0277
 4456SOL    HW213620   4.368   2.940   1.163 -1.6973  0.3937  0.8281
 4457SOL     OW13621   0.379   2.721   5.496 -0.5242  0.2425  0.2332
 4457SOL    HW113622   0.381   2.816   5.493 -2.6325  0.3972  1.9036
 4457SOL    HW213623   0.428   2.699   5.575  1.1825 -0.1984 -0.8895
 4458SOL     OW13624   0.642   1.453   5.818 -0.2809  0.3263  0.2361
 4458SOL    HW113625   0.681   1.367   5.832  1.4484  0.6752 -1.9844
 4458SOL    HW213626   0.548   1.436   5.811  0.1251 -1.5725 -1.2726
 4459SOL     OW13627   4.384   1.595   5.316  0.8562 -0.0520 -1.0420
 4459SOL    HW113628   4.316   1.536   5.283  0.1846  0.2634 -0.2625
 4459SOL    HW213629   4.337   1.659   5.369  1.7886  0.0091 -0.2543
 4460SOL     OW13630   2.699   6.057   2.493  0.0586 -0.0144  0.0648
 4460SOL    HW113631   2.752   6.131   2.523  0.5844 -0.4984  0.3701
 4460SOL    HW213632   2.695   6.067   2.398  2.6828 -1.1909 -0.2800
 4461SOL     OW13633   3.785   0.350   0.754 -0.1661 -0.5474  0.1116
 4461SOL    HW113634   3.764   0.269   0.709 -1.2110  0.6919 -1.7794
 4461SOL    HW213635   3.773   0.418   0.688 -0.8474  1.3071  2.0214
 4462SOL     OW13636   4.912   5.590   1.616  0.0305 -0.3453 -0.3611
 4462SOL    HW113637   4.926   5.622   1.705 -0.9312  0.1347 -0.3652
 4462SOL    HW213638   4.836   5.639   1.585 -0.4237 -1.4129 -0.9918
 4463SOL     OW13639   5.101   5.997   4.566 -0.4649  0.1849  0.2997
 4463SOL    HW113640   5.188   5.964   4.541 -0.4970  0.8507 -0.7351
 4463SOL    HW213641   5.076   6.055   4.494 -1.2993  0.8567  1.1207
 4464SOL     OW13642   6.005   6.280   5.688  0.4048 -0.7245  0.1125
 4464SOL    HW113643   5.943   6.326   5.745 -0.5759 -2.0432  0.1711
 4464SOL    HW213644   6.045   6.214   5.745  0.7570 -0.8624 -0.2896
 4465SOL     OW13645   1.493   2.691   4.566  0.9184 -0.0528  0.3215
 4465SOL    HW113646   1.579   2.661   4.593  1.5238 -1.2691 -2.5544
 4465SOL    HW213647   1.431   2.638   4.616  1.8145  0.2565  1.8032
 4466SOL     OW13648   2.280   4.971   3.167 -0.2651 -0.0658  0.1174
 4466SOL    HW113649   2.263   4.948   3.076  0.7300 -0.7284  0.0876
 4466SOL    HW213650   2.360   4.923   3.190  1.1210  2.2372  0.4732
 4467SOL     OW13651   3.017   3.185   1.398 -0.2133 -0.4520 -0.0409
 4467SOL    HW113652   2.983   3.162   1.312 -1.7616 -1.1693  0.7219
 4467SOL    HW213653   2.947   3.236   1.439  1.5704  2.3577 -0.1798
 4468SOL     OW13654   2.045   4.707   1.448  0.3041  0.2498  0.5710
 4468SOL    HW113655   1.979   4.674   1.509  0.8478  2.1573  2.2950
 4468SOL    HW213656   2.097   4.768   1.500  2.6691 -0.2472 -1.0611
 4469SOL     OW13657   1.891   0.772   4.025 -0.0400  0.0466  0.2599
 4469SOL    HW113658   1.970   0.826   4.016  1.2728 -1.4578  2.0803
 4469SOL    HW213659   1.918   0.684   3.999 -0.8317 -0.6969  1.7984
 4470SOL     OW13660   3.213   3.171   0.582  0.3731  0.0404  0.1385
 4470SOL    HW113661   3.216   3.216   0.498  1.3289  0.0609  0.1671
 4470SOL    HW213662   3.139   3.210   0.629 -0.0789  0.1203 -0.6339
 4471SOL     OW13663   0.316   3.363   3.495 -0.3614 -0.1674 -0.8605
 4471SOL    HW113664   0.371   3.310   3.553 -0.3036  0.3301 -0.4510
 4471SOL    HW213665   0.236   3.379   3.546 -0.1613  0.5762 -0.7776
 4472SOL     OW13666   0.475   1.410   1.217 -0.0322  0.0212 -0.8508
 4472SOL    HW113667   0.509   1.364   1.140 -1.8086 -0.3281 -1.4866
 4472SOL    HW213668   0.493   1.351   1.290 -0.4804 -0.7853 -1.3707
 4473SOL     OW13669   4.816   3.463   4.852 -0.0267  0.0742  0.2101
 4473SOL    HW113670   4.766   3.526   4.904  2.0021  0.2183  2.1603
 4473SOL    HW213671   4.828   3.388   4.911  1.9903  0.0651 -0.1461
 4474SOL     OW13672   4.534   3.464   4.192  0.2878 -0.4359  0.3900
 4474SOL    HW113673   4.628   3.470   4.175 -0.2005 -0.9484 -3.1735
 4474SOL    HW213674   4.519   3.372   4.209  0.5169 -0.1940  2.0764
 4475SOL     OW13675   6.107   0.707   1.784 -0.1613  0.3209  0.5619
 4475SOL    HW113676   6.061   0.683   1.703  0.6505  1.3488 -0.2339
 4475SOL    HW213677   6.157   0.628   1.807  0.8793  0.5287 -0.8652
 4476SOL     OW13678   6.136   5.154   3.045  0.0532 -0.0181  0.4268
 4476SOL    HW113679   6.148   5.065   3.080  0.2023 -0.2182 -0.1239
 4476SOL    HW213680   6.055   5.150   2.995 -1.4546  0.8656  2.6117
 4477SOL     OW13681   0.170   2.893   4.574  0.0633 -0.1850  0.4235
 4477SOL    HW113682   0.111   2.853   4.510  0.0876  0.5847 -0.1019
 4477SOL    HW213683   0.151   2.987   4.568  1.3923  0.0881  0.1647
 4478SOL     OW13684   1.318   3.269   5.068  0.1132  0.1391 -0.1381
 4478SOL    HW113685   1.358   3.256   5.154  1.5642  1.9197 -0.4654
 4478SOL    HW213686   1.313   3.182   5.030  1.1913 -0.4579  1.0252
 4479SOL     OW13687   3.713   3.120   3.400 -0.2244  0.4143 -0.1656
 4479SOL    HW113688   3.721   3.027   3.378  2.1475  0.4452  0.3352
 4479SOL    HW213689   3.754   3.129   3.485 -2.0554  1.6755  0.6615
 4480SOL     OW13690   0.368   1.312   5.515 -0.5272  0.8143  0.0884
 4480SOL    HW113691   0.432   1.383   5.518  1.0362 -0.4879 -0.8664
 4480SOL    HW213692   0.410   1.241   5.563 -0.2258 -0.8192 -2.4203
 4481SOL     OW13693   0.466   1.324   0.366 -0.0901  0.2149 -0.4462
 4481SOL    HW113694   0.480   1.287   0.279  1.2058  2.8385 -1.4752
 4481SOL    HW213695   0.547   1.371   0.386 -0.9968  1.1241  1.4113
 4482SOL     OW13696   4.687   0.534   1.491  0.0171  0.0794 -0.1858
 4482SOL    HW113697   4.609   0.528   1.437 -0.3476 -1.5461  0.4478
 4482SOL    HW213698   4.755   0.566   1.432 -0.2206 -2.1793 -1.8371
 4483SOL     OW13699   5.714   5.545   3.886  0.0670  0.1276  0.5227
 4483SOL    HW113700   5.676   5.583   3.807  0.5650  1.2638  0.8149
 4483SOL    HW213701   5.713   5.616   3.950 -0.6824 -0.8701  1.6770
 4484SOL     OW13702   4.344   0.472   2.345 -0.2863 -0.2770 -0.4193
 4484SOL    HW113703   4.337   0.377   2.352  2.3703 -0.4714  0.9871
 4484SOL    HW213704   4.430   0.492   2.382 -1.0600  2.7569 -0.0216
 4485SOL     OW13705   0.103   4.246   3.394 -0.1895  0.3448  0.5106
 4485SOL    HW113706   0.149   4.301   3.331 -0.2860 -0.5212 -0.3451
 4485SOL    HW213707   0.096   4.161   3.351 -0.8097 -0.0989  1.4455
 4486SOL     OW13708   4.929   6.185   2.817  0.0129  0.0171  0.5846
 4486SOL    HW113709   4.991   6.250   2.785  0.5857 -0.8130 -0.0406
 4486SOL    HW213710   4.922   6.121   2.746 -0.0842 -0.9182  1.4062
 4487SOL     OW13711   4.092   2.034   2.137 -0.0274 -0.7373  0.0128
 4487SOL    HW113712   4.188   2.038   2.138 -0.0108 -1.0924  0.2914
 4487SOL    HW213713   4.072   1.949   2.176 -0.5190  0.5272  2.7786
 4488SOL     OW13714   1.748   4.394   5.509  0.2715  0.1001 -0.0125
 4488SOL    HW113715   1.673   4.365   5.457  0.0039  0.3496  0.2285
 4488SOL    HW213716   1.710   4.455   5.572  0.5820 -0.2414  0.5092
 4489SOL     OW13717   1.237   2.910   0.266 -0.0773 -0.2736  0.1963
 4489SOL    HW113718   1.291   2.983   0.236  0.6105 -0.7615  0.2280
 4489SOL    HW213719   1.198   2.942   0.347  2.2983 -0.8094  1.6732
 4490SOL     OW13720   4.440   4.971   3.487 -0.4366 -0.0937  0.5641
 4490SOL    HW113721   4.424   5.064   3.503  1.2816  0.2877  0.2784
 4490SOL    HW213722   4.475   4.967   3.398 -2.8323 -1.3527 -0.4350
 4491SOL     OW13723   5.336   2.349   1.083  0.2118  0.6797 -0.2577
 4491SOL    HW113724   5.423   2.310   1.077  0.5330  1.2467  0.5444
 4491SOL    HW213725   5.325   2.369   1.176 -0.5936  1.0251 -0.4194
 4492SOL     OW13726   1.254   2.527   4.593  0.3469  0.3304 -0.9094
 4492SOL    HW113727   1.220   2.444   4.626  3.8423 -1.7786 -2.0242
 4492SOL    HW213728   1.215   2.536   4.506  1.9191 -1.6985 -1.9212
 4493SOL     OW13729   4.930   2.486   1.316 -0.0473  0.0537  0.4379
 4493SOL    HW113730   4.917   2.566   1.366 -0.1418  0.9906 -1.0342
 4493SOL    HW213731   4.919   2.416   1.381 -2.4598  1.1014  1.2977
 4494SOL     OW13732   1.192   4.347   4.498 -0.0292  0.0219  0.3213
 4494SOL    HW113733   1.169   4.439   4.514 -0.2604  0.3076 -1.5023
 4494SOL    HW213734   1.124   4.297   4.545 -1.9122  0.8328 -1.3910
 4495SOL     OW13735   0.670   5.608   1.227  0.1800  0.0795 -0.0365
 4495SOL    HW113736   0.645   5.700   1.225 -1.6480 -0.3911 -2.1995
 4495SOL    HW213737   0.622   5.571   1.301 -0.8590  0.4394 -0.5154
 4496SOL     OW13738   6.270   4.937   1.218  0.3667 -0.0375  0.6332
 4496SOL    HW113739   6.323   4.930   1.298 -2.1139 -1.7164  2.2600
 4496SOL    HW213740   6.222   4.855   1.213 -1.8090  1.2196 -0.9326
 4497SOL     OW13741   2.743   5.659   0.142 -0.1659 -0.0035  0.3867
 4497SOL    HW113742   2.803   5.625   0.209 -0.5745  1.0386  1.3290
 4497SOL    HW213743   2.757   5.754   0.145 -1.1237  0.1587 -0.1010
 4498SOL     OW13744   5.274   3.076   0.869 -0.4426 -0.0591  0.3308
 4498SOL    HW113745   5.282   3.039   0.781 -0.5706  1.1781 -0.2225
 4498SOL    HW213746   5.221   3.154   0.857 -0.7504 -0.0654  1.5794
 4499SOL     OW13747   3.733   2.388   2.074 -0.1860  0.0154 -0.0171
 4499SOL    HW113748   3.679   2.323   2.030 -0.1550 -0.0911  0.1018
 4499SOL    HW213749   3.729   2.465   2.017 -1.1945  0.3160  0.4306
 4500SOL     OW13750   0.950   0.730   4.333  0.2396  0.1076 -0.0632
 4500SOL    HW113751   1.018   0.689   4.279 -0.1906  0.6130 -1.0249
 4500SOL    HW213752   0.961   0.691   4.419  0.9637 -0.7274 -0.5115
 4501SOL     OW13753   0.145   0.985   1.611 -0.5330  0.6484 -0.1309
 4501SOL    HW113754   0.145   0.893   1.585 -1.2158  0.7941 -0.6887
 4501SOL    HW213755   0.052   1.010   1.612 -0.3196  1.5068 -0.6559
 4502SOL     OW13756   3.585   0.349   5.211  0.3321 -0.2121 -0.6203
 4502SOL    HW113757   3.634   0.346   5.129 -2.5824 -2.9460 -2.5414
 4502SOL    HW213758   3.613   0.271   5.259  0.1709 -0.0350 -0.2278
 4503SOL     OW13759   4.545   5.917   2.345 -0.5643  0.3079 -0.0471
 4503SOL    HW113760   4.466   5.872   2.314 -0.7725 -0.5463  1.6109
 4503SOL    HW213761   4.548   5.898   2.438  1.1385  1.0774  0.0862
 4504SOL     OW13762   6.026   0.503   4.039  0.8328  0.0396 -0.5214
 4504SOL    HW113763   5.948   0.545   4.003 -0.8283 -2.1717  0.2815
 4504SOL    HW213764   6.086   0.496   3.964 -1.0058 -0.9981 -1.9772
 4505SOL     OW13765   3.051   4.904   6.276 -0.7638 -0.4159  1.0401
 4505SOL    HW113766   3.018   4.856   6.200  1.0802 -0.5540  0.2764
 4505SOL    HW213767   3.003   4.987   6.274 -0.7346 -0.4040 -0.3043
 4506SOL     OW13768   0.053   2.949   6.243 -0.9331 -0.0017 -0.1350
 4506SOL    HW113769   0.003   2.902   6.309  0.0095 -1.9029 -0.6918
 4506SOL    HW213770   0.016   2.920   6.160  0.5081 -0.8439 -0.5261
 4507SOL     OW13771   1.051   3.183   4.037 -0.3354  0.8160 -0.1307
 4507SOL    HW113772   1.114   3.234   3.986  1.9249 -1.5855  0.0572
 4507SOL    HW213773   1.043   3.231   4.120  1.9899  0.7850  0.1791
 4508SOL     OW13774   5.830   5.907   5.569 -0.2614  0.9222 -0.2067
 4508SOL    HW113775   5.769   5.858   5.624  2.4417 -1.3188  1.0551
 4508SOL    HW213776   5.850   5.986   5.620  0.4530 -0.0052  0.9908
 4509SOL     OW13777   3.685   5.280   6.034  0.4885  0.1207 -0.1271
 4509SOL    HW113778   3.737   5.270   6.114 -2.2671  0.7299  1.8875
 4509SOL    HW213779   3.663   5.373   6.031 -2.7598 -0.4693  0.8138
 4510SOL     OW13780   3.863   5.079   0.054 -0.6667 -0.7770  0.0075
 4510SOL    HW113781   3.915   5.040  -0.016  0.9791 -1.2063  1.3949
 4510SOL    HW213782   3.785   5.024   0.060 -0.3252 -1.3620 -0.7670
 4511SOL     OW13783   4.660   0.816   2.397  0.6157 -0.4380  0.0256
 4511SOL    HW113784   4.568   0.818   2.421  0.9820  0.3963  1.5277
 4511SOL    HW213785   4.702   0.770   2.471  1.5357  0.1980 -0.0873
 4512SOL     OW13786   5.057   4.179   1.928  0.2389 -0.1714  0.5239
 4512SOL    HW113787   5.020   4.208   1.845  2.8610  0.9865 -0.3374
 4512SOL    HW213788   5.004   4.223   1.995 -2.7450 -2.1247 -0.3738
 4513SOL     OW13789   0.769   5.653   3.192 -0.2411  0.0103 -0.7035
 4513SOL    HW113790   0.713   5.670   3.268  0.4577  0.1402 -0.2015
 4513SOL    HW213791   0.843   5.713   3.204  0.4768 -0.8356 -0.8299
 4514SOL     OW13792   4.434   0.112   5.826  0.0257  0.3967  0.1685
 4514SOL    HW113793   4.468   0.157   5.904 -0.0226  0.0929  0.3673
 4514SOL    HW213794   4.382   0.039   5.862 -1.3834  1.2199 -0.1057
 4515SOL     OW13795   3.696   5.122   2.875 -0.3753  0.4920 -0.2298
 4515SOL    HW113796   3.640   5.142   2.950  0.1349 -0.2371  0.3566
 4515SOL    HW213797   3.645   5.059   2.824 -0.8920  1.2872 -0.7246
 4516SOL     OW13798   2.044   5.055   3.373  0.7800 -0.3387  0.4704
 4516SOL    HW113799   1.986   5.128   3.394 -1.2148 -2.1214  1.5061
 4516SOL    HW213800   2.037   5.045   3.278  1.6012  1.1803  0.2206
 4517SOL     OW13801   3.806   6.270   6.194 -0.1437 -0.4472 -0.2053
 4517SOL    HW113802   3.841   6.193   6.150 -1.0640 -1.0941  0.1735
 4517SOL    HW213803   3.882   6.310   6.237  0.6242 -0.2378 -1.6942
 4518SOL     OW13804   6.298   0.863   2.601  0.0498 -0.4950  0.0454
 4518SOL    HW113805   6.295   0.803   2.675  0.8531 -0.9450 -0.2780
 4518SOL    HW213806   6.326   0.946   2.639  1.3945 -0.9588  0.1130
 4519SOL     OW13807   2.848   4.136   5.400 -0.1199 -0.0835  0.1601
 4519SOL    HW113808   2.926   4.117   5.451  0.4898  1.5255 -0.1043
 4519SOL    HW213809   2.881   4.155   5.312 -0.8256  0.3592 -0.0192
 4520SOL     OW13810   3.576   3.467   4.668 -0.3516 -0.6655 -0.9474
 4520SOL    HW113811   3.652   3.516   4.635 -0.5856  2.2118  2.1608
 4520SOL    HW213812   3.502   3.503   4.620 -0.5837  2.8271  1.5982
 4521SOL     OW13813   4.240   5.801   5.437 -0.2518  0.1243  0.5524
 4521SOL    HW113814   4.219   5.835   5.524  0.1683 -2.2696  1.6755
 4521SOL    HW213815   4.278   5.714   5.454  0.9531  0.0752 -1.9562
 4522SOL     OW13816   5.053   1.943   6.022 -0.5247 -0.3682 -0.2922
 4522SOL    HW113817   5.096   1.877   5.968 -0.1043 -1.6312  1.5183
 4522SOL    HW213818   4.960   1.935   6.000 -0.7471 -2.9695  1.2833
 4523SOL     OW13819   2.924   1.950   5.001  0.3070 -0.0465 -0.2450
 4523SOL    HW113820   2.929   2.008   4.925 -2.4572  1.6873  0.7359
 4523SOL    HW213821   2.992   1.982   5.060 -0.0994  1.1823 -0.4119
 4524SOL     OW13822   4.743   0.661   2.619  0.5170  0.1185 -0.4873
 4524SOL    HW113823   4.838   0.659   2.631  0.3121 -0.4377  1.2048
 4524SOL    HW213824   4.707   0.670   2.707 -0.9809  2.1886 -1.2280
 4525SOL     OW13825   1.387   2.893   3.290 -0.0665 -0.1440  0.3388
 4525SOL    HW113826   1.405   2.809   3.247  2.2074 -0.1455  1.1549
 4525SOL    HW213827   1.369   2.870   3.381 -0.0257  0.2110  0.4378
 4526SOL     OW13828   1.677   0.430   3.864  0.2826  0.5623  0.0414
 4526SOL    HW113829   1.595   0.400   3.824  0.2884  1.5485 -0.7667
 4526SOL    HW213830   1.729   0.350   3.876 -0.3101  0.0707 -0.5871
 4527SOL     OW13831   1.737   2.785   2.824 -0.8174 -0.2914 -0.0253
 4527SOL    HW113832   1.809   2.734   2.859 -0.8672 -1.4850 -1.5676
 4527SOL    HW213833   1.674   2.790   2.896  0.4739  0.1960  1.1199
 4528SOL     OW13834   4.517   4.804   2.812  0.4201  0.5447  0.2954
 4528SOL    HW113835   4.599   4.840   2.779  0.3623  2.0946  1.7436
 4528SOL    HW213836   4.471   4.878   2.851 -1.8978 -0.1809 -0.8372
 4529SOL     OW13837   3.305   4.123   5.613 -0.4461 -0.3980 -0.4042
 4529SOL    HW113838   3.355   4.081   5.543  0.4364 -0.5330  0.2846
 4529SOL    HW213839   3.329   4.074   5.692 -0.4538  0.5353  0.1890
 4530SOL     OW13840   1.086   5.327   4.259  0.3732  0.3474 -0.1966
 4530SOL    HW113841   1.153   5.368   4.314  0.2414  1.3099 -0.7324
 4530SOL    HW213842   1.070   5.242   4.301  1.9517  0.0666 -0.0779
 4531SOL     OW13843   0.078   0.946   4.592 -0.3917  0.1171  0.5781
 4531SOL    HW113844   0.092   0.904   4.507  0.9103  0.4396  0.6153
 4531SOL    HW213845   0.142   0.905   4.650  0.2707  1.4761  0.8373
 4532SOL     OW13846   3.443   4.898   0.461  0.2222 -0.0672 -0.1826
 4532SOL    HW113847   3.359   4.895   0.416  0.0742 -0.8682  0.1388
 4532SOL    HW213848   3.497   4.958   0.409  0.0137 -0.8717 -1.3323
 4533SOL     OW13849   4.309   5.320   4.952 -0.0092  0.3555 -0.6439
 4533SOL    HW113850   4.240   5.273   4.998 -0.1867  0.1155 -1.1459
 4533SOL    HW213851   4.368   5.350   5.021 -1.5340  2.1212 -0.0097
 4534SOL     OW13852   2.724   4.886   4.062 -0.5207 -0.3987  0.1398
 4534SOL    HW113853   2.731   4.832   4.141  0.0656  0.0314  0.3883
 4534SOL    HW213854   2.630   4.898   4.050 -0.7232 -2.2763 -0.4704
 4535SOL     OW13855   1.806   1.686   4.544 -0.4411  0.6141  0.2957
 4535SOL    HW113856   1.721   1.691   4.501 -0.2297 -0.3729 -0.2572
 4535SOL    HW213857   1.870   1.702   4.475 -0.1027 -0.8752  0.2216
 4536SOL     OW13858   1.012   2.391   1.083 -0.4531 -0.1464 -0.2463
 4536SOL    HW113859   0.967   2.387   0.998  1.4754 -0.2644 -1.3118
 4536SOL    HW213860   1.077   2.459   1.072  1.2778 -1.6212  0.3808
 4537SOL     OW13861   4.744   5.554   0.803 -0.3949  0.2574  0.3093
 4537SOL    HW113862   4.801   5.506   0.743  0.2104 -0.3176  1.3108
 4537SOL    HW213863   4.675   5.491   0.826 -1.3600  0.8903 -0.7537
 4538SOL     OW13864   4.227   1.862   5.458  0.3861  0.0054  0.2469
 4538SOL    HW113865   4.266   1.899   5.538  0.5997  0.9650 -0.2926
 4538SOL    HW213866   4.140   1.833   5.486  0.7520 -0.4133  1.0127
 4539SOL     OW13867   1.609   4.115   2.386  0.6213 -0.2529  0.5784
 4539SOL    HW113868   1.680   4.166   2.348  1.4301 -0.5982  1.5623
 4539SOL    HW213869   1.635   4.104   2.478 -0.9559  0.0472  1.0855
 4540SOL     OW13870   0.637   5.913   0.312  0.0289 -0.1321 -0.2560
 4540SOL    HW113871   0.671   5.921   0.223  0.4362 -0.1813 -0.1059
 4540SOL    HW213872   0.574   5.985   0.320 -1.4389 -1.2400 -1.2210
 4541SOL     OW13873   4.968   4.312   4.994 -0.1454 -0.0217  0.0320
 4541SOL    HW113874   5.047   4.365   5.003 -0.2908  0.5851 -1.8517
 4541SOL    HW213875   4.924   4.320   5.079  0.2277  2.2701  0.0837
 4542SOL     OW13876   2.456   3.627   3.196 -0.0402  0.3989 -0.1475
 4542SOL    HW113877   2.547   3.647   3.215 -0.4631  0.7967  1.5917
 4542SOL    HW213878   2.453   3.620   3.100  1.7378  0.6631 -0.2595
 4543SOL     OW13879   5.530   5.307   0.156  0.1322  0.0282  0.1233
 4543SOL    HW113880   5.447   5.315   0.109 -0.6114  1.2256  1.5243
 4543SOL    HW213881   5.582   5.382   0.126  1.0617 -1.1466 -1.3272
 4544SOL     OW13882   0.361   6.248   3.619  0.3879  0.0517 -0.0781
 4544SOL    HW113883   0.289   6.233   3.558  0.4995 -0.7718 -0.0203
 4544SOL    HW213884   0.416   6.171   3.611  1.3906  0.7768 -0.2727
 4545SOL     OW13885   0.039   3.240   2.452 -0.3614  0.4529  0.0440
 4545SOL    HW113886   0.008   3.302   2.517 -1.2398  0.2214 -0.1338
 4545SOL    HW213887   0.076   3.294   2.382  0.3624  0.7061  0.6184
 4546SOL     OW13888   5.876   4.849   4.583 -0.2209 -0.0982  0.5517
 4546SOL    HW113889   5.965   4.820   4.606 -0.4841  0.2309  2.0797
 4546SOL    HW213890   5.840   4.776   4.533  0.8783 -0.2656 -0.0371
 4547SOL     OW13891   5.759   0.194   4.916  0.4012 -0.2363  0.4001
 4547SOL    HW113892   5.836   0.242   4.947 -0.2444  1.5183 -0.5778
 4547SOL    HW213893   5.692   0.210   4.982 -0.4201  1.9944 -0.8488
 4548SOL     OW13894   1.335   4.789   0.683 -0.6108  0.1510  0.0330
 4548SOL    HW113895   1.295   4.703   0.696 -0.3880  0.2936  1.8623
 4548SOL    HW213896   1.370   4.813   0.769  0.6486  1.4183 -0.7859
 4549SOL     OW13897   5.489   3.683   4.678 -0.1526 -0.3056 -0.1637
 4549SOL    HW113898   5.513   3.695   4.586  1.9433  0.1072  0.3927
 4549SOL    HW213899   5.416   3.621   4.675 -0.2406 -0.1721 -2.1114
 4550SOL     OW13900   3.704   4.473   0.088  0.5531 -0.1841 -0.0635
 4550SOL    HW113901   3.766   4.470   0.161  2.7321 -0.2813 -1.7959
 4550SOL    HW213902   3.640   4.539   0.114  2.1768  0.9721  1.2835
 4551SOL     OW13903   0.314   3.727   1.742  0.0756  0.0091  0.9973
 4551SOL    HW113904   0.275   3.687   1.665  0.9966 -2.9251  1.9126
 4551SOL    HW213905   0.408   3.713   1.732  0.3385  0.8841  1.9804
 4552SOL     OW13906   3.784   3.939   0.907  0.3044  0.9091  0.0375
 4552SOL    HW113907   3.876   3.916   0.897  0.0297  0.3071 -1.2479
 4552SOL    HW213908   3.757   3.970   0.821 -1.2867 -1.1672 -0.3111
 4553SOL     OW13909   1.426   1.427   3.083  0.5754 -0.3438  0.3480
 4553SOL    HW113910   1.437   1.338   3.049 -0.8878 -0.5898  0.4392
 4553SOL    HW213911   1.415   1.416   3.177  0.8725 -0.0151  0.4236
 4554SOL     OW13912   2.423   3.307   1.137  0.1048  0.0647  0.0758
 4554SOL    HW113913   2.455   3.386   1.182 -2.1997  0.1378  1.7770
 4554SOL    HW213914   2.392   3.250   1.208 -0.9287 -1.1098 -1.2687
 4555SOL     OW13915   4.802   3.360   1.651 -0.0799  0.3787 -0.1295
 4555SOL    HW113916   4.866   3.419   1.611  0.9501 -0.9186 -0.4547
 4555SOL    HW213917   4.727   3.362   1.592 -0.4818  2.0764  0.3578
 4556SOL     OW13918   3.316   0.927   6.113  0.2620 -0.0216  0.3363
 4556SOL    HW113919   3.368   0.963   6.041  0.2560  1.6342  1.1254
 4556SOL    HW213920   3.380   0.897   6.177  0.2576 -0.7190  0.0213
 4557SOL     OW13921   5.820   3.734   2.935 -0.0777  0.5113  0.0097
 4557SOL    HW113922   5.807   3.770   3.022  1.3806 -1.4061  1.0884
 4557SOL    HW213923   5.913   3.710   2.932 -0.5889 -1.6201 -1.1712
 4558SOL     OW13924   4.893   0.663   4.359 -0.3378 -0.5717  0.0689
 4558SOL    HW113925   4.847   0.579   4.368 -1.5270  0.0729  0.2881
 4558SOL    HW213926   4.986   0.640   4.359 -0.6462 -2.0417 -1.6017
 4559SOL     OW13927   4.678   1.300   5.937  0.1325 -0.0383  0.0178
 4559SOL    HW113928   4.623   1.343   6.003  0.7789  1.8936 -0.6201
 4559SOL    HW213929   4.726   1.233   5.985 -1.4408 -0.5536  0.9369
 4560SOL     OW13930   1.571   4.528   4.410 -0.1157 -0.2278 -0.2330
 4560SOL    HW113931   1.513   4.566   4.475  0.8056 -0.1600  0.5705
 4560SOL    HW213932   1.656   4.570   4.425  0.1739 -0.3994 -1.3060
 4561SOL     OW13933   1.480   3.016   2.697 -0.0024 -0.1472  0.1165
 4561SOL    HW113934   1.413   3.041   2.633  0.0924 -0.1949 -0.0023
 4561SOL    HW213935   1.470   3.079   2.768 -1.7644 -1.5812  1.2203
 4562SOL     OW13936   1.230   4.947   5.427  0.4292  0.1088  0.3410
 4562SOL    HW113937   1.143   4.908   5.434 -0.1209  1.5007  2.4558
 4562SOL    HW213938   1.257   4.930   5.337 -2.2633  0.0842 -0.5642
 4563SOL     OW13939   3.457   0.104   0.671  0.0217  0.0923  0.3206
 4563SOL    HW113940   3.428   0.152   0.749 -2.2403 -1.9603  0.8829
 4563SOL    HW213941   3.376   0.082   0.625  1.1767 -0.5344 -1.5156
 4564SOL     OW13942   1.657   4.314   0.677 -0.4217  0.2856  0.4528
 4564SOL    HW113943   1.667   4.297   0.584 -2.6729 -0.4327  0.3032
 4564SOL    HW213944   1.569   4.351   0.687 -0.2334  0.3645  2.2978
 4565SOL     OW13945   5.848   3.025   5.351  0.0831  0.3219  0.5560
 4565SOL    HW113946   5.790   3.026   5.274  0.4794 -0.4556  0.2332
 4565SOL    HW213947   5.799   3.073   5.418 -0.8799 -0.1854  0.2484
 4566SOL     OW13948   4.461   4.370   5.098  0.1016 -0.4079 -0.0280
 4566SOL    HW113949   4.475   4.283   5.136  0.6263 -0.7105 -0.8838
 4566SOL    HW213950   4.470   4.356   5.004  0.2650  0.5985 -0.1670
 4567SOL     OW13951   4.893   5.767   3.284  0.7040  0.0415 -0.8619
 4567SOL    HW113952   4.800   5.753   3.298  0.6507  0.1133 -1.1461
 4567SOL    HW213953   4.936   5.706   3.344  0.4799  0.4656 -0.2517
 4568SOL     OW13954   3.905   2.158   3.444 -0.2313  0.1273 -0.2898
 4568SOL    HW113955   3.935   2.237   3.400  0.9254 -1.5821 -2.8713
 4568SOL    HW213956   3.983   2.102   3.449 -1.1243 -1.0772  0.9132
 4569SOL     OW13957   6.134   4.029   1.551  0.1559  0.2672 -0.0441
 4569SOL    HW113958   6.230   4.029   1.555  0.1271  0.3071  2.4741
 4569SOL    HW213959   6.109   4.121   1.562 -0.1897  0.2827 -0.8767
 4570SOL     OW13960   1.786   5.321   5.940  0.4440  0.2930 -0.1673
 4570SOL    HW113961   1.715   5.257   5.935  0.7535 -0.0418 -0.3413
 4570SOL    HW213962   1.860   5.272   5.975  0.4446  0.7703  0.5221
 4571SOL     OW13963   5.028   2.250   0.375 -0.4168  0.2733 -0.1858
 4571SOL    HW113964   4.996   2.325   0.424  0.0072  1.2139 -1.3027
 4571SOL    HW213965   5.110   2.227   0.417 -1.0147 -0.1850  0.7553
 4572SOL     OW13966   1.624   3.190   6.212  0.3537 -0.4600 -0.7026
 4572SOL    HW113967   1.644   3.272   6.167  0.7571 -1.4228 -2.3472
 4572SOL    HW213968   1.528   3.184   6.210  0.0953  1.1615  1.7361
 4573SOL     OW13969   2.846   0.775   3.968 -0.1214  0.1750 -0.8406
 4573SOL    HW113970   2.925   0.744   4.013 -0.6564  1.4051  1.0703
 4573SOL    HW213971   2.859   0.869   3.959 -1.1512  0.3087 -0.9666
 4574SOL     OW13972   2.860   3.122   3.403 -0.1098  0.3314  0.3813
 4574SOL    HW113973   2.778   3.146   3.360 -0.5856  0.2419  1.2099
 4574SOL    HW213974   2.844   3.035   3.439  0.2013  0.4941  0.9223
 4575SOL     OW13975   4.575   3.706   3.068 -0.2477 -0.2031  0.6522
 4575SOL    HW113976   4.492   3.670   3.033 -0.6151  0.1700  1.1344
 4575SOL    HW213977   4.585   3.664   3.153  1.1828 -1.9165 -0.2814
 4576SOL     OW13978   3.165   3.559   3.697  0.0113  0.1453  0.0340
 4576SOL    HW113979   3.222   3.580   3.623  0.4621 -1.4328 -0.0992
 4576SOL    HW213980   3.223   3.560   3.773 -0.3264  1.1266  0.2954
 4577SOL     OW13981   0.752   6.337   3.157 -0.5359 -0.2091 -0.4323
 4577SOL    HW113982   0.708   6.295   3.084 -0.8874 -0.2300 -0.2102
 4577SOL    HW213983   0.789   6.265   3.208  0.7344 -0.1420 -1.2259
 4578SOL     OW13984   4.652   1.898   2.569 -0.0572 -0.3988 -0.0112
 4578SOL    HW113985   4.576   1.954   2.580  0.9746  0.8054  1.4218
 4578SOL    HW213986   4.723   1.958   2.544  0.8793 -1.1615  0.7188
 4579SOL     OW13987   2.740   3.180   0.897  0.1971  0.7945 -0.7180
 4579SOL    HW113988   2.645   3.189   0.902  0.3589  2.7883 -0.4773
 4579SOL    HW213989   2.757   3.153   0.807 -0.6780 -1.4401 -0.2535
 4580SOL     OW13990   3.811   4.429   0.571  0.3716 -0.3641  0.0909
 4580SOL    HW113991   3.739   4.402   0.628 -2.1322  0.1407 -2.6019
 4580SOL    HW213992   3.833   4.517   0.600  0.4825 -0.8006  1.4181
 4581SOL     OW13993   3.409   3.377   2.166 -0.3020 -0.5418  0.3539
 4581SOL    HW113994   3.478   3.413   2.110  0.0183 -0.8235  0.5658
 4581SOL    HW213995   3.354   3.327   2.106  0.6020 -1.6761  0.4236
 4582SOL     OW13996   1.267   3.817   3.009  0.0305  0.0891 -0.0643
 4582SOL    HW113997   1.183   3.845   3.047  0.1254 -0.2139  0.3781
 4582SOL    HW213998   1.330   3.883   3.040 -0.2746  1.1341 -1.5588
 4583SOL     OW13999   2.459   0.069   5.661 -0.9143  0.4730 -0.3196
 4583SOL    HW114000   2.424   0.135   5.602 -0.5497 -1.4125 -2.8273
 4583SOL    HW214001   2.494   0.001   5.602  2.8494  0.1366  1.9826
 4584SOL     OW14002   1.066   6.185   5.027  0.2867 -0.2453 -0.3939
 4584SOL    HW114003   1.133   6.161   5.091 -0.9785  2.2791  2.0736
 4584SOL    HW214004   0.983   6.168   5.071 -0.6829  0.0118 -2.0261
 4585SOL     OW14005   0.014   2.613   0.756  0.1442 -0.3627 -0.0829
 4585SOL    HW114006  -0.027   2.571   0.831 -0.4973 -1.8246 -1.1992
 4585SOL    HW214007   0.105   2.627   0.782  0.2258 -1.9158  0.5609
 4586SOL     OW14008   1.743   0.801   5.712 -0.2280 -0.0508 -0.3748
 4586SOL    HW114009   1.723   0.770   5.624  0.7124  0.9992 -0.9853
 4586SOL    HW214010   1.660   0.834   5.747 -0.3767  0.6221 -1.3340
 4587SOL     OW14011   4.480   2.241   5.449 -0.0171  0.3292  0.4218
 4587SOL    HW114012   4.406   2.258   5.390  1.1070  0.6109 -0.9548
 4587SOL    HW214013   4.482   2.146   5.457  0.1801  0.2367 -0.5230
 4588SOL     OW14014   2.521   1.443   5.736 -0.2806 -0.0556 -0.0200
 4588SOL    HW114015   2.437   1.397   5.742 -0.9221  0.7192 -2.0377
 4588SOL    HW214016   2.512   1.497   5.657  1.9721  0.3581 -0.0428
 4589SOL     OW14017   2.220   4.586   5.471 -0.5094  0.2664 -0.7715
 4589SOL    HW114018   2.275   4.606   5.395 -0.2366  1.1402 -0.3511
 4589SOL    HW214019   2.131   4.598   5.440 -0.3690  1.7017 -0.6708
 4590SOL     OW14020   5.161   5.733   5.596  0.5275  0.3152  0.4543
 4590SOL    HW114021   5.214   5.791   5.650  1.1460 -0.9004  1.1958
 4590SOL    HW214022   5.204   5.734   5.511  0.6788  0.7525  0.5339
 4591SOL     OW14023   1.907   1.978   4.585 -0.2057  0.5736  0.6384
 4591SOL    HW114024   1.944   2.025   4.510 -0.7415  1.2779  0.7982
 4591SOL    HW214025   1.812   1.986   4.574 -0.3712 -1.6765 -0.0627
 4592SOL     OW14026   4.639   4.999   4.588  0.2093 -0.1322  0.1475
 4592SOL    HW114027   4.630   5.042   4.673  0.2809  0.3240 -0.0694
 4592SOL    HW214028   4.724   5.030   4.554 -0.4982  0.9135 -0.7546
 4593SOL     OW14029   2.355   3.689   4.987  0.4527  0.1807 -0.2460
 4593SOL    HW114030   2.355   3.751   4.914  0.8426 -1.9783 -2.1914
 4593SOL    HW214031   2.440   3.645   4.981  0.0397 -0.8071  0.8046
 4594SOL     OW14032   0.002   1.866   5.778  0.4039  0.1711  0.1643
 4594SOL    HW114033   0.022   1.957   5.758 -0.0370  0.0889 -0.7027
 4594SOL    HW214034  -0.073   1.870   5.838  0.8192  0.3833  0.6818
 4595SOL     OW14035   4.811   0.019   6.105 -0.3800 -0.1853  0.3713
 4595SOL    HW114036   4.788   0.094   6.160 -2.5731 -0.9629  0.6147
 4595SOL    HW214037   4.890  -0.017   6.146 -2.3558 -1.2296  3.6315
 4596SOL     OW14038   2.755   6.078   0.549 -0.6303 -0.3886  0.5557
 4596SOL    HW114039   2.725   5.987   0.548 -0.9578 -0.2832  0.1080
 4596SOL    HW214040   2.790   6.091   0.636 -1.0652 -0.7947  0.7977
 4597SOL     OW14041   2.358   4.504   6.338  0.1022 -0.0260 -0.3958
 4597SOL    HW114042   2.388   4.529   6.251  0.8245 -0.7088 -0.3554
 4597SOL    HW214043   2.435   4.513   6.394 -0.2012 -0.1700  0.0564
 4598SOL     OW14044   3.967   5.351   0.333  0.0471 -0.0978  0.2786
 4598SOL    HW114045   3.991   5.427   0.386  0.2568  0.6193 -0.8125
 4598SOL    HW214046   3.872   5.344   0.344 -0.3038  1.5887 -1.1717
 4599SOL     OW14047   5.188   0.658   0.697  0.2913  0.1213 -0.3570
 4599SOL    HW114048   5.269   0.653   0.646 -0.6920 -0.9004 -1.9132
 4599SOL    HW214049   5.118   0.652   0.632 -1.0472 -1.7463  1.1240
 4600SOL     OW14050   2.605   4.024   0.390 -0.6720  0.5915  0.9163
 4600SOL    HW114051   2.616   4.060   0.478 -0.3385 -1.8075  1.9224
 4600SOL    HW214052   2.625   3.931   0.399  0.3936  0.4447 -1.9259
 4601SOL     OW14053   5.280   1.980   5.012  0.7761  0.3737  0.6306
 4601SOL    HW114054   5.282   2.070   5.044 -1.7202  1.4261 -1.8028
 4601SOL    HW214055   5.352   1.974   4.950 -1.4718  2.1687 -2.3876
 4602SOL     OW14056   1.701   0.618   1.371 -0.0038 -0.1661  0.5666
 4602SOL    HW114057   1.614   0.646   1.397 -0.2696 -1.5649  1.2843
 4602SOL    HW214058   1.739   0.694   1.328 -0.6503  1.3172  2.4518
 4603SOL     OW14059   0.667   6.231   0.207  0.4279 -0.4586 -0.4066
 4603SOL    HW114060   0.608   6.198   0.139  1.0735  0.4953 -1.4544
 4603SOL    HW214061   0.649   6.325   0.211  2.1745 -0.0602 -1.0843
 4604SOL     OW14062   6.108   0.426   5.742 -0.3315 -0.4150 -0.4753
 4604SOL    HW114063   6.194   0.448   5.777 -0.6359 -0.3517  0.2459
 4604SOL    HW214064   6.078   0.352   5.795 -1.4062  0.5880  0.3682
 4605SOL     OW14065   1.297   5.200   1.232  0.1905  0.1806 -0.4048
 4605SOL    HW114066   1.338   5.228   1.314 -1.5523  0.8919  0.2798
 4605SOL    HW214067   1.249   5.277   1.201 -1.1693 -0.7726 -0.7837
 4606SOL     OW14068   2.617   3.577   5.025 -0.0234 -0.1362 -0.2798
 4606SOL    HW114069   2.616   3.526   5.106  0.9887 -0.2076 -0.2947
 4606SOL    HW214070   2.670   3.525   4.965  0.0882  0.4021 -0.6522
 4607SOL     OW14071   3.981   4.952   2.241 -0.3004  0.4687  0.4861
 4607SOL    HW114072   4.004   4.942   2.334 -0.4049 -0.8407  0.3835
 4607SOL    HW214073   4.026   5.033   2.214  2.9672 -1.1126  0.7000
 4608SOL     OW14074   5.681   4.767   1.062 -0.0813  0.0434 -0.4604
 4608SOL    HW114075   5.671   4.691   1.004  0.6992  0.1498 -0.7516
 4608SOL    HW214076   5.689   4.841   1.002  0.0455  0.2415 -0.1989
 4609SOL     OW14077   4.880   3.528   5.859 -0.4121  0.6460 -0.6207
 4609SOL    HW114078   4.928   3.608   5.837  0.3356  0.6726  0.9823
 4609SOL    HW214079   4.805   3.558   5.910 -1.8485  0.5444 -2.5615
 4610SOL     OW14080   0.022   0.904   3.471  0.5095  0.2771 -0.4537
 4610SOL    HW114081   0.063   0.855   3.543 -0.4102 -1.2389 -0.9124
 4610SOL    HW214082  -0.059   0.938   3.508 -1.9558 -3.6806 -1.5726
 4611SOL     OW14083   4.656   5.246   4.763  0.0841  0.1048  0.1071
 4611SOL    HW114084   4.654   5.272   4.855  0.3647  1.3317 -0.2033
 4611SOL    HW214085   4.749   5.243   4.741  0.1179 -2.1588  0.3496
 4612SOL     OW14086   3.999   1.823   3.926  0.4895  0.0005  0.1872
 4612SOL    HW114087   4.068   1.883   3.954 -0.2708  1.3715 -0.7781
 4612SOL    HW214088   3.974   1.777   4.006  3.4997 -1.6816  0.3372
 4613SOL     OW14089   2.170   1.029   6.126 -0.1173  0.1279  0.0682
 4613SOL    HW114090   2.152   1.054   6.217 -2.7358 -1.4814  0.1174
 4613SOL    HW214091   2.242   0.967   6.132  1.1249  1.5722  0.7634
 4614SOL     OW14092   2.285   0.191   4.530 -0.8303  0.2626  0.5857
 4614SOL    HW114093   2.197   0.198   4.492  0.2638  1.5201 -1.9218
 4614SOL    HW214094   2.299   0.097   4.542 -2.2175 -0.0027  0.3037
 4615SOL     OW14095   3.863   4.145   0.407  0.7673 -0.0709  0.0551
 4615SOL    HW114096   3.840   4.113   0.319  0.1776 -0.5257  0.3677
 4615SOL    HW214097   3.947   4.189   0.395 -0.7301  2.6464 -1.3607
 4616SOL     OW14098   5.473   5.538   0.872 -0.0016 -0.5402  0.2619
 4616SOL    HW114099   5.400   5.541   0.810 -0.9709  0.9878  1.4092
 4616SOL    HW214100   5.456   5.460   0.925 -1.0572  0.0176  0.7779
 4617SOL     OW14101   0.829   3.018   4.198  0.5684 -0.4530 -0.0434
 4617SOL    HW114102   0.849   3.062   4.281 -0.3612  2.0046 -1.0066
 4617SOL    HW214103   0.813   3.090   4.136 -0.7847 -2.1828 -1.8565
 4618SOL     OW14104   1.305   2.986   4.665  0.4578 -0.4099 -0.2599
 4618SOL    HW114105   1.373   2.983   4.732  0.6372 -2.8903 -0.4578
 4618SOL    HW214106   1.353   2.989   4.582  0.2444  1.4670 -0.3548
 4619SOL     OW14107   0.516   3.573   4.213  0.0668  0.2271  0.1458
 4619SOL    HW114108   0.437   3.621   4.188 -0.0433  0.0988  0.2490
 4619SOL    HW214109   0.484   3.498   4.262  0.2553  0.1889  0.2102
 4620SOL     OW14110   1.104   0.549   3.340 -0.0294  0.3919 -0.4507
 4620SOL    HW114111   1.032   0.495   3.373  0.1188  0.1744 -0.4776
 4620SOL    HW214112   1.169   0.485   3.308  0.1792  0.5844 -0.4144
 4621SOL     OW14113   3.632   5.908   0.574 -0.1202 -0.1716  0.0844
 4621SOL    HW114114   3.621   5.929   0.481  0.3094 -1.2379 -0.2213
 4621SOL    HW214115   3.549   5.934   0.614 -0.1621  0.6697 -0.5180
 4622SOL     OW14116   1.526   4.503   3.067 -0.3719  0.4464  0.1636
 4622SOL    HW114117   1.455   4.450   3.104 -0.8161 -0.8549 -2.3159
 4622SOL    HW214118   1.606   4.467   3.106 -0.7865 -1.1636 -0.3736
 4623SOL     OW14119   6.321   5.981   5.831  0.2046 -0.7707 -0.0081
 4623SOL    HW114120   6.325   6.061   5.780 -1.9404  1.5228  3.0681
 4623SOL    HW214121   6.404   5.978   5.879 -0.1929  0.3993  0.8070
 4624SOL     OW14122   0.223   2.711   0.870 -0.0490 -0.2459 -0.2391
 4624SOL    HW114123   0.195   2.752   0.952 -1.3669 -2.6992  0.6548
 4624SOL    HW214124   0.262   2.628   0.898 -0.1647 -0.9473 -2.0782
 4625SOL     OW14125   2.635   0.416   0.405 -0.3152 -0.3116 -0.3847
 4625SOL    HW114126   2.580   0.493   0.394 -0.4500 -0.3566 -0.0179
 4625SOL    HW214127   2.724   0.449   0.395 -0.1903  0.3935  2.3165
 4626SOL     OW14128   4.725   1.570   4.684 -0.2397 -0.1113 -0.1741
 4626SOL    HW114129   4.773   1.572   4.602 -1.4792 -0.9846 -0.9664
 4626SOL    HW214130   4.680   1.654   4.688  1.9840  1.1154  1.0365
 4627SOL     OW14131   0.773   2.340   0.083  0.0118  0.2498 -0.7158
 4627SOL    HW114132   0.705   2.305   0.025 -1.2567  0.9121  0.3203
 4627SOL    HW214133   0.799   2.266   0.137 -1.8083  0.5476  0.6599
 4628SOL     OW14134   0.526   1.028   4.652 -0.6793 -0.0142  0.1384
 4628SOL    HW114135   0.538   1.051   4.560 -0.6030  2.0477  0.6131
 4628SOL    HW214136   0.614   1.000   4.681 -0.7307 -0.7902 -0.4089
 4629SOL     OW14137   6.248   5.154   2.593  0.0192 -0.3958 -0.2433
 4629SOL    HW114138   6.256   5.176   2.500 -1.2725  0.0466 -0.2746
 4629SOL    HW214139   6.167   5.103   2.599  0.3040 -0.7675  0.5800
 4630SOL     OW14140   0.686   5.005   0.662 -0.3765 -0.2393  0.0676
 4630SOL    HW114141   0.641   4.973   0.583  0.0503  0.1557 -0.3395
 4630SOL    HW214142   0.650   4.952   0.733  0.3352 -1.6652 -0.5969
 4631SOL     OW14143   6.094   1.148   4.320 -0.5514 -1.2428  0.2728
 4631SOL    HW114144   6.018   1.140   4.262  0.2641  1.3211 -1.2933
 4631SOL    HW214145   6.169   1.134   4.262  0.2699  0.7125  0.7888
 4632SOL     OW14146   6.235   3.402   5.239 -0.4410 -0.1049  0.6806
 4632SOL    HW114147   6.188   3.336   5.187  0.0445 -0.0118  0.1141
 4632SOL    HW214148   6.167   3.443   5.293 -1.3153  1.1586 -1.2872
 4633SOL     OW14149   2.993   5.967   2.009  0.0506  0.6608  0.1467
 4633SOL    HW114150   3.063   5.941   2.069  0.4071  1.0954 -0.0712
 4633SOL    HW214151   2.996   6.063   2.010 -0.8521  0.6939  0.4929
 4634SOL     OW14152   1.699   3.342   2.396 -0.0933  0.0745 -0.2785
 4634SOL    HW114153   1.605   3.330   2.384 -0.5880  1.2695  1.8923
 4634SOL    HW214154   1.727   3.269   2.451  1.0949 -2.3747 -3.7693
 4635SOL     OW14155   5.194   1.597   1.291  0.3047  0.1605  0.0816
 4635SOL    HW114156   5.163   1.638   1.372 -0.7342 -0.1637 -0.1336
 4635SOL    HW214157   5.240   1.518   1.321  1.5950  1.0210  0.4454
 4636SOL     OW14158   2.030   0.169   4.407 -0.2479 -0.8221 -0.3331
 4636SOL    HW114159   1.988   0.098   4.359  0.2164 -0.7635 -0.8379
 4636SOL    HW214160   1.967   0.240   4.406 -0.4288 -0.9837 -0.4472
 4637SOL     OW14161   2.716   4.500   3.067 -0.1116 -0.7296  0.2491
 4637SOL    HW114162   2.767   4.581   3.063 -0.3462 -0.5521  0.7221
 4637SOL    HW214163   2.781   4.431   3.063  0.1137 -0.5134  0.1263
 4638SOL     OW14164   0.138   0.821   3.711  0.0669 -0.1097  0.2877
 4638SOL    HW114165   0.213   0.848   3.764 -1.1140  1.9585  1.0073
 4638SOL    HW214166   0.086   0.767   3.770 -1.0571  1.8870  1.2272
 4639SOL     OW14167   1.117   0.293   4.348  0.1074 -0.5869 -0.2286
 4639SOL    HW114168   1.058   0.263   4.417  1.3813  0.0045  1.1485
 4639SOL    HW214169   1.058   0.316   4.275 -1.3616 -0.0418  1.0786
 4640SOL     OW14170   5.026   5.238   4.271 -0.1869 -0.6991 -0.2486
 4640SOL    HW114171   4.987   5.316   4.310  1.7525 -0.4339  1.3295
 4640SOL    HW214172   5.093   5.272   4.213  1.4794 -1.1284  1.3408
 4641SOL     OW14173   0.608   5.838   5.046 -0.1744  0.0319  0.3663
 4641SOL    HW114174   0.596   5.930   5.020 -2.8835 -0.4483 -0.4186
 4641SOL    HW214175   0.663   5.801   4.977  1.0880  1.0786  0.7800
 4642SOL     OW14176   1.018   0.133   5.543  0.5897 -0.7106  0.4128
 4642SOL    HW114177   1.004   0.120   5.636 -0.6049 -0.2535  0.3142
 4642SOL    HW214178   1.112   0.150   5.535  0.3590  1.7458  1.8503
 4643SOL     OW14179   2.962   4.394   1.769  0.0934 -0.4864  0.1889
 4643SOL    HW114180   2.901   4.464   1.790  0.5413 -0.3052  0.9253
 4643SOL    HW214181   3.008   4.424   1.691  0.5011  0.1792  0.6830
 4644SOL     OW14182   1.606   5.332   4.878  0.1049  0.2367 -0.0511
 4644SOL    HW114183   1.558   5.396   4.826  0.7670 -0.0365 -1.0318
 4644SOL    HW214184   1.683   5.311   4.825 -0.6256 -2.1709 -0.2488
 4645SOL     OW14185   2.625   4.714   1.221 -0.3102 -0.0465  0.0342
 4645SOL    HW114186   2.582   4.653   1.280 -1.2088 -0.0350 -0.5823
 4645SOL    HW214187   2.713   4.724   1.256 -0.1233 -1.7368  0.1134
 4646SOL     OW14188   1.813   0.490   1.080 -0.0698  0.7599  0.9227
 4646SOL    HW114189   1.753   0.454   1.145 -0.4042 -0.7433 -0.1754
 4646SOL    HW214190   1.889   0.520   1.130 -0.5462  0.1252  2.0396
 4647SOL     OW14191   4.185   3.151   5.513 -0.0927  0.2341  0.2499
 4647SOL    HW114192   4.130   3.072   5.516  2.1680 -1.4300  0.5125
 4647SOL    HW214193   4.274   3.117   5.503  0.8747  2.8262 -0.4636
 4648SOL     OW14194   2.212   3.543   2.746  0.4402 -0.0564 -0.3357
 4648SOL    HW114195   2.126   3.569   2.780  0.9432 -0.0113  0.9807
 4648SOL    HW214196   2.203   3.547   2.651 -1.6682 -2.1322 -0.2979
 4649SOL     OW14197   3.514   3.497   1.943 -0.2370  0.0467  0.1698
 4649SOL    HW114198   3.583   3.461   1.888  0.8397 -0.3715  1.7417
 4649SOL    HW214199   3.498   3.585   1.907  3.0042  1.2443  1.3227
 4650SOL     OW14200   0.610   4.319   6.221  0.2669 -0.2279 -0.2336
 4650SOL    HW114201   0.621   4.232   6.257  1.2597 -0.1742 -0.3792
 4650SOL    HW214202   0.635   4.378   6.292 -2.2778  0.0273  0.5334
 4651SOL     OW14203   0.021   2.306   1.897  0.4975 -0.6855  0.3315
 4651SOL    HW114204  -0.032   2.282   1.822  0.7106 -0.2233  0.0277
 4651SOL    HW214205   0.016   2.230   1.956 -0.9726 -0.4276  0.5789
 4652SOL     OW14206   3.936   3.783   3.262  0.0198  0.2168 -0.4413
 4652SOL    HW114207   4.023   3.804   3.298 -0.3581  0.8829  0.1005
 4652SOL    HW214208   3.912   3.701   3.305 -0.2193  0.7609  0.4982
 4653SOL     OW14209   5.340   2.441   4.594  0.4337  0.0691 -0.7116
 4653SOL    HW114210   5.431   2.451   4.621  0.2705  0.5408 -0.3015
 4653SOL    HW214211   5.292   2.427   4.676  0.0922  0.2388 -0.8779
 4654SOL     OW14212   0.747   0.532   4.279 -0.2878 -0.1009 -0.0408
 4654SOL    HW114213   0.713   0.557   4.193 -0.4721  0.4644  0.1849
 4654SOL    HW214214   0.784   0.614   4.314 -2.4819  0.3595  1.4710
 4655SOL     OW14215   3.601   5.467   4.584  0.0203  0.2593 -0.4252
 4655SOL    HW114216   3.679   5.502   4.540 -1.1906  0.9291 -2.1843
 4655SOL    HW214217   3.528   5.506   4.536 -1.4054 -0.6680  0.9089
 4656SOL     OW14218   4.335   0.205   2.369 -0.0752  0.2028  0.0607
 4656SOL    HW114219   4.298   0.116   2.370  0.0324  0.1475 -0.7535
 4656SOL    HW214220   4.389   0.208   2.448  0.9387 -0.8986 -0.5476
 4657SOL     OW14221   0.614   3.817   5.095  0.4530 -0.4246  0.0761
 4657SOL    HW114222   0.576   3.739   5.135 -1.6670 -0.9068 -2.6147
 4657SOL    HW214223   0.547   3.884   5.106  1.0805  0.2493 -0.1258
 4658SOL     OW14224   0.601   2.240   1.708  0.0338  0.6374  0.3195
 4658SOL    HW114225   0.565   2.327   1.723 -2.2338  0.0641 -1.2574
 4658SOL    HW214226   0.548   2.204   1.637  0.0041 -2.5293  1.7849
 4659SOL     OW14227   0.421   3.122   3.575  0.6809  0.1283  1.1372
 4659SOL    HW114228   0.451   3.094   3.662  3.1633 -4.2965 -0.7934
 4659SOL    HW214229   0.348   3.063   3.555 -0.3387  1.5766  0.4164
 4660SOL     OW14230   2.069   0.382   5.591 -0.4758  0.3528 -0.4389
 4660SOL    HW114231   2.005   0.446   5.559  0.0069  0.6967 -0.7334
 4660SOL    HW214232   2.105   0.421   5.670 -1.8470 -0.6090  0.7135
 4661SOL     OW14233   4.166   2.472   4.773  0.3565  0.2589 -0.2067
 4661SOL    HW114234   4.248   2.426   4.791 -0.2156  0.1030  2.5422
 4661SOL    HW214235   4.101   2.403   4.765  0.2864  0.4276 -1.1579
 4662SOL     OW14236   0.281   2.027   3.089  0.0162  0.4727 -0.1754
 4662SOL    HW114237   0.259   1.945   3.045  1.0469 -1.5765  2.7784
 4662SOL    HW214238   0.376   2.036   3.076 -0.2054  1.6378 -1.0984
 4663SOL     OW14239   2.224   5.786   0.109 -0.3164 -0.2180 -0.2554
 4663SOL    HW114240   2.311   5.788   0.148 -0.4454 -1.3729  0.1286
 4663SOL    HW214241   2.201   5.693   0.106 -1.5196  0.0638 -0.3716
 4664SOL     OW14242   2.733   1.054   4.569 -0.3131  0.2758  0.2033
 4664SOL    HW114243   2.751   0.994   4.642  0.9974 -0.8887 -1.0158
 4664SOL    HW214244   2.765   1.139   4.599  0.5791 -0.2715  0.8452
 4665SOL     OW14245   4.958   6.260   4.008  0.2317 -0.1492  0.2031
 4665SOL    HW114246   4.948   6.279   3.915  2.0697  0.5674  0.0943
 4665SOL    HW214247   4.880   6.212   4.032 -1.5054  1.8421 -1.1227
 4666SOL     OW14248   1.536   5.573   3.321  0.6039 -0.2966  0.4565
 4666SOL    HW114249   1.620   5.584   3.366  0.1744  0.3131  1.1366
 4666SOL    HW214250   1.513   5.662   3.293  1.2781 -0.7446 -1.7989
 4667SOL     OW14251   5.307   1.001   4.969 -0.1334  0.0091  0.4256
 4667SOL    HW114252   5.365   0.996   4.893 -1.9657  1.3573 -1.1577
 4667SOL    HW214253   5.238   0.937   4.950 -0.3426 -0.0064  1.2137
 4668SOL     OW14254   1.953   0.153   3.663 -0.6340  0.0239  0.4909
 4668SOL    HW114255   1.933   0.157   3.570 -1.2930 -0.7467  0.5929
 4668SOL    HW214256   2.001   0.234   3.680 -0.6070  0.2306 -0.4885
 4669SOL     OW14257   6.129   3.576   1.227  0.7928  0.1023 -0.0927
 4669SOL    HW114258   6.093   3.501   1.275  2.8752  0.1764  1.7338
 4669SOL    HW214259   6.091   3.568   1.139 -0.8905 -1.7271  0.7108
 4670SOL     OW14260   3.256   3.778   1.174 -1.2833 -0.1827  0.4737
 4670SOL    HW114261   3.348   3.752   1.162 -1.0450  0.7412  0.2344
 4670SOL    HW214262   3.208   3.695   1.178 -0.6120 -0.6533 -0.8136
 4671SOL     OW14263   4.527   2.930   3.547  0.0298 -0.3504 -0.3943
 4671SOL    HW114264   4.562   2.850   3.506  0.4251 -1.2887  1.6697
 4671SOL    HW214265   4.551   2.923   3.639 -1.4796  1.3146  0.1907
 4672SOL     OW14266   1.095   1.379   1.056  0.0873 -0.5249  0.1585
 4672SOL    HW114267   1.143   1.385   0.973  0.2381 -2.7856  0.0128
 4672SOL    HW214268   1.019   1.324   1.035 -1.3984  1.1541  0.9132
 4673SOL     OW14269   1.061   2.818   6.062  0.1660 -0.0181  0.0169
 4673SOL    HW114270   0.987   2.764   6.031  1.0781 -0.5928 -1.2627
 4673SOL    HW214271   1.138   2.763   6.049  0.7120 -0.0731  2.9317
 4674SOL     OW14272   0.293   3.997   5.731 -0.3291 -0.3062  0.1338
 4674SOL    HW114273   0.388   3.982   5.726 -0.3693 -0.1430 -1.4953
 4674SOL    HW214274   0.281   4.040   5.816  0.8399 -1.7126  1.0748
 4675SOL     OW14275   3.474   4.082   3.224  0.8473 -1.1035  0.3131
 4675SOL    HW114276   3.482   4.172   3.194 -1.1986 -1.5802 -1.9845
 4675SOL    HW214277   3.445   4.089   3.315  0.4074  0.5647  0.0739
 4676SOL     OW14278   4.202   3.205   1.218  0.1577 -0.2758  0.5413
 4676SOL    HW114279   4.236   3.154   1.145  0.1659 -1.4212  1.3142
 4676SOL    HW214280   4.140   3.147   1.262 -2.3211  1.4869 -0.3790
 4677SOL     OW14281   4.448   0.318   1.743 -0.0371 -0.4646 -0.1236
 4677SOL    HW114282   4.529   0.368   1.754 -0.6713  0.8621 -1.2218
 4677SOL    HW214283   4.403   0.361   1.670 -1.3131 -1.7368 -0.1239
 4678SOL     OW14284   3.583   5.843   5.454 -0.0995  0.0455  0.3454
 4678SOL    HW114285   3.514   5.880   5.510 -2.5512  0.3297 -2.6287
 4678SOL    HW214286   3.627   5.778   5.510 -2.8822 -0.2676  2.3791
 4679SOL     OW14287   1.786   3.398   3.068 -0.2700 -0.3385  0.7452
 4679SOL    HW114288   1.824   3.378   2.983 -2.7884 -2.0029 -0.0966
 4679SOL    HW214289   1.853   3.371   3.131  2.0458  1.7989 -0.6034
 4680SOL     OW14290   1.567   2.400   6.257  0.1097 -0.1105 -0.4878
 4680SOL    HW114291   1.597   2.476   6.207  0.3998  0.3018  0.2861
 4680SOL    HW214292   1.521   2.345   6.194  0.0236  0.6431 -1.0870
 4681SOL     OW14293   2.004   1.238   1.973  0.1435  0.1033  0.1563
 4681SOL    HW114294   2.071   1.185   1.932 -0.9011  0.1309 -1.6796
 4681SOL    HW214295   1.959   1.179   2.034  0.8268 -0.3094  0.2637
 4682SOL     OW14296   1.826   1.024   2.607 -0.0400  0.0248 -0.5211
 4682SOL    HW114297   1.798   1.099   2.555 -4.5410  0.0947  1.5002
 4682SOL    HW214298   1.871   1.062   2.682 -1.9561  0.8187  0.2954
 4683SOL     OW14299   4.968   0.529   6.303 -0.1335 -0.1152 -0.3451
 4683SOL    HW114300   5.022   0.555   6.377  2.1235 -0.5549 -1.7174
 4683SOL    HW214301   4.972   0.433   6.303  0.8375 -0.1113 -1.6090
 4684SOL     OW14302   2.179   2.516   4.565 -0.1428 -0.0183 -0.0675
 4684SOL    HW114303   2.161   2.609   4.554 -0.5125  0.1827  1.8197
 4684SOL    HW214304   2.163   2.477   4.479 -1.2664  1.4617 -0.5579
 4685SOL     OW14305   5.159   2.808   5.723  0.0571 -0.4599 -0.2933
 4685SOL    HW114306   5.250   2.813   5.753  0.4345 -0.5803 -1.3857
 4685SOL    HW214307   5.140   2.715   5.723 -0.0182 -0.4447 -0.2273
 4686SOL     OW14308   3.883   4.466   0.297 -0.5332 -0.1522 -0.2088
 4686SOL    HW114309   3.842   4.454   0.382  1.0625 -1.0630  0.4745
 4686SOL    HW214310   3.955   4.526   0.312 -1.0945  0.8264 -1.2369
 4687SOL     OW14311   0.551   2.137   1.968 -0.2724 -0.1836 -0.0043
 4687SOL    HW114312   0.497   2.209   1.935 -0.9826 -1.0925 -0.8897
 4687SOL    HW214313   0.621   2.128   1.903 -0.1893 -0.3001  0.1020
 4688SOL     OW14314   6.164   3.264   4.563  0.2561  0.0196  0.0553
 4688SOL    HW114315   6.254   3.262   4.597 -0.5552  1.0676  2.5128
 4688SOL    HW214316   6.161   3.342   4.508  0.8663 -0.0747 -0.1232
 4689SOL     OW14317   1.139   2.077   1.908 -0.4831  0.2012 -0.5959
 4689SOL    HW114318   1.083   2.149   1.936 -0.7923 -0.3361  0.2386
 4689SOL    HW214319   1.084   2.026   1.849 -0.8906 -0.3114  0.2024
 4690SOL     OW14320   2.497   0.850   5.056  0.1930  0.0643 -0.1003
 4690SOL    HW114321   2.494   0.755   5.045 -0.4073 -0.1801  1.8029
 4690SOL    HW214322   2.510   0.884   4.968 -0.6721 -1.7329 -0.9716
 4691SOL     OW14323   6.133   2.307   2.342  0.2422  0.0030 -0.7289
 4691SOL    HW114324   6.086   2.247   2.283 -0.4636 -0.1049 -0.0634
 4691SOL    HW214325   6.166   2.250   2.411  1.3793  0.0772 -1.1884
 4692SOL     OW14326   4.413   4.063   1.883  0.1302 -0.0839 -0.6404
 4692SOL    HW114327   4.482   3.997   1.888  0.7473  0.6124  0.3744
 4692SOL    HW214328   4.443   4.123   1.815  0.4580  0.1437 -0.2959
 4693SOL     OW14329   0.933   3.589   1.096  0.0487 -0.0084 -0.0811
 4693SOL    HW114330   0.954   3.625   1.009 -0.9224  0.2172 -0.2273
 4693SOL    HW214331   0.906   3.665   1.147  0.6284 -0.1407  0.4379
 4694SOL     OW14332   0.733   3.700   5.356  0.2857  0.4930 -0.2198
 4694SOL    HW114333   0.820   3.700   5.316  0.5088 -1.2706  0.1937
 4694SOL    HW214334   0.687   3.627   5.313 -0.6415  0.7434  0.3146
 4695SOL     OW14335   4.009   1.262   1.200 -0.3063 -0.1717 -0.3464
 4695SOL    HW114336   4.077   1.320   1.166 -1.5266  1.1750 -0.6196
 4695SOL    HW214337   4.053   1.210   1.268  0.9693  0.6894 -0.4816
 4696SOL     OW14338   5.963   3.388   1.717  0.7143  0.4997 -0.0287
 4696SOL    HW114339   6.052   3.364   1.745  1.6532  0.1804 -2.9868
 4696SOL    HW214340   5.927   3.308   1.679  0.5616  1.4640 -2.0508
 4697SOL     OW14341   0.563   0.277   4.237 -0.1079 -0.2311 -0.0859
 4697SOL    HW114342   0.615   0.313   4.308 -1.5419  1.1598  0.3132
 4697SOL    HW214343   0.488   0.236   4.281 -0.4567 -0.3081 -0.7410
 4698SOL     OW14344   6.303   5.053   3.325 -0.0420  0.1286  0.0148
 4698SOL    HW114345   6.369   5.115   3.294  0.2643  0.4463  1.2276
 4698SOL    HW214346   6.345   5.010   3.400 -0.6891 -0.7043 -0.0917
 4699SOL     OW14347   1.717   0.901   1.407  0.0898 -0.4631  0.3356
 4699SOL    HW114348   1.744   0.961   1.477  1.4686 -0.2748 -0.3174
 4699SOL    HW214349   1.790   0.903   1.345 -0.8268 -1.1140 -0.7977
 4700SOL     OW14350   1.763   1.201   3.489  0.0657  0.0756 -0.3211
 4700SOL    HW114351   1.738   1.274   3.433  1.8333 -0.4937 -1.9703
 4700SOL    HW214352   1.855   1.186   3.468  0.0544 -1.8937  0.8110
 4701SOL     OW14353   1.284   6.329   1.463  0.6512 -0.4836  0.2383
 4701SOL    HW114354   1.241   6.325   1.548  2.4017  1.2994  1.2995
 4701SOL    HW214355   1.364   6.277   1.474  0.8979 -0.2275 -0.3035
 4702SOL     OW14356   2.593   0.087   1.915 -0.2897  0.1905  0.2671
 4702SOL    HW114357   2.519   0.147   1.906 -0.0692  0.5323  0.7052
 4702SOL    HW214358   2.655   0.115   1.847 -0.6852 -0.2885 -0.3015
 4703SOL     OW14359   1.990   1.908   2.638  0.4381  0.1730 -0.2309
 4703SOL    HW114360   1.964   1.816   2.639 -0.9234  0.5421  0.9381
 4703SOL    HW214361   1.939   1.947   2.567  0.4791  0.1793 -0.2571
 4704SOL     OW14362   5.613   2.172   1.498  0.4023  0.0979 -0.2387
 4704SOL    HW114363   5.558   2.103   1.461 -0.6793  0.3045  0.9233
 4704SOL    HW214364   5.551   2.238   1.530  1.3139  0.4224  0.9486
 4705SOL     OW14365   5.763   4.438   0.772 -0.3998  0.7725  0.5919
 4705SOL    HW114366   5.825   4.452   0.843 -0.3934 -1.8119  1.1824
 4705SOL    HW214367   5.812   4.458   0.692  0.1744  1.8554  1.1906
 4706SOL     OW14368   6.117   3.499   6.284 -0.3014 -0.1597  0.0518
 4706SOL    HW114369   6.155   3.522   6.199  0.3330  0.9426  0.5972
 4706SOL    HW214370   6.148   3.410   6.301  0.2641 -0.0791 -0.5042
 4707SOL     OW14371   2.765   5.143   2.681  0.3021 -0.1688  0.2026
 4707SOL    HW114372   2.740   5.222   2.632  0.6156 -0.3386 -0.2316
 4707SOL    HW214373   2.714   5.073   2.641  0.9272 -0.3937 -0.2187
 4708SOL     OW14374   3.913   3.119   4.646 -0.1158  0.1083 -0.0155
 4708SOL    HW114375   3.936   3.209   4.667 -1.0619  0.4854 -0.4952
 4708SOL    HW214376   3.993   3.069   4.658  0.5483  1.1024 -0.2241
 4709SOL     OW14377   1.266   3.627   1.672  0.3775 -0.5110 -0.3097
 4709SOL    HW114378   1.207   3.560   1.705  1.7742 -1.1936  0.9316
 4709SOL    HW214379   1.253   3.701   1.732  1.0108 -0.7916  0.1857
 4710SOL     OW14380   2.407   2.453   3.364 -0.3755 -0.0464 -0.1224
 4710SOL    HW114381   2.427   2.491   3.449 -0.1699  0.6210 -0.4613
 4710SOL    HW214382   2.312   2.438   3.366 -0.4006  0.1459  0.1540
 4711SOL     OW14383   1.861   0.182   3.401  0.2762 -0.2468 -0.3541
 4711SOL    HW114384   1.900   0.265   3.371  0.5962 -0.5650 -0.8267
 4711SOL    HW214385   1.815   0.149   3.325  0.1874 -0.5295 -0.1766
 4712SOL     OW14386   4.800   5.059   6.027 -0.6074 -0.3096  0.0342
 4712SOL    HW114387   4.841   5.019   6.103 -0.0854 -0.4233 -0.2979
 4712SOL    HW214388   4.779   5.148   6.054  1.8027  0.4782 -0.4140
 4713SOL     OW14389   0.887   0.470   1.459  0.0008  0.0413  0.0985
 4713SOL    HW114390   0.976   0.475   1.491 -0.2884  0.0333  0.9189
 4713SOL    HW214391   0.832   0.475   1.537 -0.7562  1.2934 -0.4848
 4714SOL     OW14392   5.478   0.487   5.936 -0.3923  0.3553  0.1828
 4714SOL    HW114393   5.453   0.446   5.853 -1.3966  2.3401 -0.5783
 4714SOL    HW214394   5.520   0.569   5.909 -0.0013  0.6622  1.6554
 4715SOL     OW14395   6.179   0.486   2.701 -0.0118 -0.4592  0.4363
 4715SOL    HW114396   6.273   0.501   2.713  0.3122 -1.4599 -0.6832
 4715SOL    HW214397   6.157   0.419   2.765 -0.1767  0.4242  1.3267
 4716SOL     OW14398   2.534   3.390   4.462  0.2167  0.3113 -0.1641
 4716SOL    HW114399   2.512   3.482   4.449  0.4367  0.3393 -0.3334
 4716SOL    HW214400   2.450   3.346   4.474  0.1503  0.6665  0.7756
 4717SOL     OW14401   2.692   2.491   0.570 -0.5194 -0.2939 -0.1553
 4717SOL    HW114402   2.698   2.491   0.474 -1.8275  0.5508 -0.2650
 4717SOL    HW214403   2.598   2.486   0.588 -0.2553 -1.4603  1.1208
 4718SOL     OW14404   1.497   1.798   2.826 -0.6963 -0.2240 -0.2925
 4718SOL    HW114405   1.430   1.787   2.893 -1.2827  0.3809 -0.7533
 4718SOL    HW214406   1.514   1.710   2.793 -0.2259 -0.5555  0.8011
 4719SOL     OW14407   3.813   5.422   1.897 -0.6449  0.6021  0.4257
 4719SOL    HW114408   3.868   5.462   1.829 -0.5223  0.4143  0.4136
 4719SOL    HW214409   3.842   5.462   1.978  0.8283 -0.8568  0.6715
 4720SOL     OW14410   3.508   3.790   4.651  0.2200  0.0400  0.3321
 4720SOL    HW114411   3.449   3.721   4.619  0.0176  0.9941 -1.5159
 4720SOL    HW214412   3.591   3.772   4.606 -0.1254  1.5346 -1.0070
 4721SOL     OW14413   0.858   2.909   1.417 -0.2141  0.4795  0.4298
 4721SOL    HW114414   0.810   2.829   1.438  0.0859  0.0769 -0.3754
 4721SOL    HW214415   0.932   2.909   1.478 -0.7320  0.6448  1.0739
 4722SOL     OW14416   3.508   5.173   5.368  0.0563  0.2061  0.1968
 4722SOL    HW114417   3.603   5.174   5.374  0.1807  3.1132 -0.6651
 4722SOL    HW214418   3.480   5.254   5.412 -2.0450 -0.6079  0.5033
 4723SOL     OW14419   4.032   0.292   2.464  0.0500  0.3143  0.1103
 4723SOL    HW114420   4.082   0.364   2.503  0.6069 -0.3166  0.5832
 4723SOL    HW214421   4.044   0.219   2.525 -2.6290  0.5228  1.0134
 4724SOL     OW14422   5.904   5.200   1.502  0.1589 -0.0678 -0.3056
 4724SOL    HW114423   5.853   5.129   1.541 -0.5184 -0.4950 -1.8772
 4724SOL    HW214424   5.948   5.241   1.576 -0.4038 -1.3469  0.7914
 4725SOL     OW14425   2.205   4.703   4.637 -0.0650  0.2265  0.1872
 4725SOL    HW114426   2.116   4.701   4.601 -0.3070 -2.1047  0.7459
 4725SOL    HW214427   2.252   4.765   4.582 -1.1643 -1.0403 -2.3390
 4726SOL     OW14428   3.969   1.822   5.032 -0.6128 -0.3096  0.1662
 4726SOL    HW114429   4.003   1.912   5.025 -1.0359  0.0014  1.6686
 4726SOL    HW214430   3.981   1.785   4.945 -1.1170  1.4433 -0.6955
 4727SOL     OW14431   3.795   3.172   3.136  0.1297 -0.2289  0.0719
 4727SOL    HW114432   3.835   3.107   3.192  0.7670  0.5408  0.5386
 4727SOL    HW214433   3.869   3.218   3.096 -0.2107  1.7870  1.6061
 4728SOL     OW14434   3.665   4.189   5.239  0.7659  0.3207 -0.5391
 4728SOL    HW114435   3.741   4.141   5.272  0.6446  0.4784 -0.0331
 4728SOL    HW214436   3.676   4.187   5.144  1.5369  0.5695 -0.4637
 4729SOL     OW14437   4.509   2.832   0.849  0.2724  0.5645  0.0218
 4729SOL    HW114438   4.536   2.918   0.882  0.8771  0.3979 -0.0209
 4729SOL    HW214439   4.495   2.780   0.928  0.6747  0.4781  0.0399
 4730SOL     OW14440   0.605   4.951   0.396  0.0924 -0.4227 -0.6245
 4730SOL    HW114441   0.650   4.869   0.376 -1.1051 -1.0109 -1.0178
 4730SOL    HW214442   0.580   4.986   0.310  0.2141  0.1429 -0.4366
 4731SOL     OW14443   1.537   4.590   5.667  0.2814 -0.5556  0.1133
 4731SOL    HW114444   1.520   4.613   5.575  1.3605  0.7006  0.1971
 4731SOL    HW214445   1.491   4.507   5.679  1.1472 -1.4078 -1.9302
 4732SOL     OW14446   3.252   2.985   2.253 -0.3522 -0.3170 -0.4940
 4732SOL    HW114447   3.280   2.971   2.343 -0.3954 -0.8062 -0.5574
 4732SOL    HW214448   3.304   2.924   2.201 -0.6542 -0.3614 -0.7513
 4733SOL     OW14449   4.769   0.817   0.878 -0.6506 -0.0741  0.1419
 4733SOL    HW114450   4.781   0.855   0.791 -0.0518  0.4245  0.4329
 4733SOL    HW214451   4.857   0.814   0.915 -0.4547 -3.0488 -0.3674
 4734SOL     OW14452   0.403   2.063   4.137  0.7323  0.4897 -0.3330
 4734SOL    HW114453   0.357   2.023   4.062  1.1289 -0.0358 -0.3016
 4734SOL    HW214454   0.484   2.013   4.144  1.0767  1.0805 -0.0648
 4735SOL     OW14455   5.522   6.239   5.540 -0.3562  0.7569  0.1957
 4735SOL    HW114456   5.585   6.168   5.553 -1.4024 -0.0681  0.9458
 4735SOL    HW214457   5.498   6.233   5.447  0.3247  0.7986  0.0119
 4736SOL     OW14458   1.832   1.529   3.170 -0.1233  0.2701  0.3203
 4736SOL    HW114459   1.912   1.580   3.184  1.1824  0.2515 -4.9017
 4736SOL    HW214460   1.862   1.439   3.158 -1.4724 -0.4399  1.8754
 4737SOL     OW14461   1.403   0.022   4.591 -0.3653  0.2366  0.5502
 4737SOL    HW114462   1.422  -0.066   4.561 -0.3113  0.0634  1.0757
 4737SOL    HW214463   1.341   0.057   4.527 -0.6334 -0.2943  0.5155
 4738SOL     OW14464   4.011   5.728   3.725  0.0907  0.1489 -0.1867
 4738SOL    HW114465   4.046   5.720   3.636 -2.0451 -0.3389 -1.0447
 4738SOL    HW214466   3.991   5.638   3.751 -0.8876  0.4402  0.0968
 4739SOL     OW14467   6.218   4.275   4.416 -0.2337  0.0861  0.0373
 4739SOL    HW114468   6.241   4.182   4.418 -1.3974 -0.2913 -1.7756
 4739SOL    HW214469   6.221   4.299   4.323  0.4786  1.9937  0.4947
 4740SOL     OW14470   5.152   3.851   4.858 -0.4253  0.2170  0.1299
 4740SOL    HW114471   5.158   3.774   4.801  1.2740  1.4609 -1.4907
 4740SOL    HW214472   5.161   3.816   4.947 -0.7721 -1.5360 -0.4853
 4741SOL     OW14473   0.422   4.870   4.327 -0.3207 -0.0524  0.2900
 4741SOL    HW114474   0.351   4.859   4.390 -0.5159  0.3214  0.1329
 4741SOL    HW214475   0.464   4.952   4.353 -1.5999  1.1341 -1.2391
 4742SOL     OW14476   5.149   4.820   3.106 -0.1581  0.1781  0.0008
 4742SOL    HW114477   5.183   4.788   3.190  1.9946 -0.0258 -0.8996
 4742SOL    HW214478   5.089   4.751   3.077 -0.4092 -0.0659  1.0532
 4743SOL     OW14479   5.828   5.966   4.839  0.0685 -0.8479  0.4410
 4743SOL    HW114480   5.851   5.909   4.912  1.5226 -0.2510  0.4808
 4743SOL    HW214481   5.830   6.054   4.877 -0.5608 -0.6423  0.0050
 4744SOL     OW14482   3.851   4.718   1.270  0.8498 -0.6520  0.2672
 4744SOL    HW114483   3.893   4.704   1.185  0.9468 -1.2713  0.4134
 4744SOL    HW214484   3.888   4.650   1.327 -0.0285 -0.9402  0.5140
 4745SOL     OW14485   2.203   0.825   4.859 -0.3018 -0.2480  0.1577
 4745SOL    HW114486   2.220   0.748   4.914  2.6828 -0.0769 -0.3512
 4745SOL    HW214487   2.213   0.899   4.920  0.7664 -0.1524 -0.1101
 4746SOL     OW14488   2.598   4.473   4.326 -0.6040  0.4057  0.2795
 4746SOL    HW114489   2.653   4.522   4.388 -0.9720  0.4577  0.5709
 4746SOL    HW214490   2.520   4.528   4.314 -0.1260  0.8416 -0.9621
 4747SOL     OW14491   6.069   4.143   0.902 -0.1485 -0.1662  0.0454
 4747SOL    HW114492   6.009   4.208   0.938 -0.4588 -0.1447 -0.5088
 4747SOL    HW214493   6.062   4.153   0.807 -1.5844 -2.2131 -0.1320
 4748SOL     OW14494   0.032   4.659   1.860  0.5672 -0.0961 -0.1620
 4748SOL    HW114495   0.056   4.567   1.853  0.0581 -0.1737 -1.0756
 4748SOL    HW214496   0.094   4.695   1.923  1.9723 -0.6697 -1.1682
 4749SOL     OW14497   0.341   5.879   3.509 -0.5824  0.2689 -0.1288
 4749SOL    HW114498   0.342   5.806   3.447 -2.2805 -0.8768  1.1205
 4749SOL    HW214499   0.325   5.839   3.594  0.7359  1.9088  0.9563
 4750SOL     OW14500   4.323   0.317   0.333 -0.0934 -0.2496  0.0784
 4750SOL    HW114501   4.349   0.362   0.253  0.1600 -0.2994  0.1312
 4750SOL    HW214502   4.405   0.300   0.378 -0.1953 -0.6858  0.1017
 4751SOL     OW14503   4.322   3.308   2.887  0.2192 -0.4194 -0.0543
 4751SOL    HW114504   4.385   3.335   2.819 -0.1955 -0.7991 -0.6022
 4751SOL    HW214505   4.259   3.380   2.891 -0.2551 -0.7829 -0.7164
 4752SOL     OW14506   0.063   1.236   0.103 -0.1086 -0.0178  0.2336
 4752SOL    HW114507   0.087   1.302   0.039 -0.2936 -0.4750 -0.3120
 4752SOL    HW214508  -0.019   1.199   0.070 -1.0092  0.7549  1.4871
 4753SOL     OW14509   6.292   2.535   1.270  0.0260 -0.0142  0.5419
 4753SOL    HW114510   6.211   2.586   1.277 -0.7848 -1.3164  1.1440
 4753SOL    HW214511   6.264   2.445   1.286  1.4506 -0.6215 -0.2205
 4754SOL     OW14512   2.968   2.833   5.122 -0.3396 -0.1937 -0.7169
 4754SOL    HW114513   3.023   2.911   5.128 -1.5342  0.6345  0.1779
 4754SOL    HW214514   2.882   2.866   5.094 -1.2291 -0.9518  0.9133
 4755SOL     OW14515   5.723   1.534   1.237  0.0492 -0.1132 -0.4602
 4755SOL    HW114516   5.818   1.544   1.233  0.2641 -1.9115 -1.1353
 4755SOL    HW214517   5.689   1.622   1.248  1.7330  0.7356 -1.6813
 4756SOL     OW14518   3.879   6.017   0.660  0.6483  0.2420 -0.1308
 4756SOL    HW114519   3.878   6.054   0.748 -1.2898 -0.0575  0.0352
 4756SOL    HW214520   3.789   6.029   0.628  0.8896 -1.0659 -1.4510
 4757SOL     OW14521   3.796   0.658   0.047  0.4032 -0.0001  0.3425
 4757SOL    HW114522   3.887   0.645   0.019  0.0057 -0.4194 -0.8502
 4757SOL    HW214523   3.756   0.571   0.039 -0.0518  0.1414  1.0445
 4758SOL     OW14524   3.414   2.326   2.742 -0.1299  0.3091  0.0605
 4758SOL    HW114525   3.366   2.285   2.670 -0.9046  1.9250 -0.4097
 4758SOL    HW214526   3.506   2.315   2.719 -0.3011 -1.1967  0.0104
 4759SOL     OW14527   6.025   1.170   5.400 -0.0285 -0.2911  0.3893
 4759SOL    HW114528   5.931   1.169   5.384  0.1141 -1.3899 -0.4758
 4759SOL    HW214529   6.034   1.214   5.485 -1.1023  2.3399 -0.7249
 4760SOL     OW14530   5.684   2.271   5.515 -0.0081  0.5495 -0.5671
 4760SOL    HW114531   5.748   2.299   5.449  1.0807 -2.4896 -0.9542
 4760SOL    HW214532   5.614   2.229   5.466 -0.6087  0.7677  0.0768
 4761SOL     OW14533   5.615   2.527   3.446  0.4491 -0.3092  0.0192
 4761SOL    HW114534   5.625   2.609   3.398  0.5699 -0.9588 -1.1043
 4761SOL    HW214535   5.550   2.546   3.514  1.4847  1.0730  0.6596
 4762SOL     OW14536   4.216   3.378   0.404 -0.5744  0.0208  0.1780
 4762SOL    HW114537   4.228   3.355   0.496  0.6791  0.9564  0.2690
 4762SOL    HW214538   4.252   3.466   0.396 -1.1895  0.1797 -1.0988
 4763SOL     OW14539   5.894   5.877   5.945  0.1491  0.1384  0.0766
 4763SOL    HW114540   5.858   5.942   5.885 -0.6834 -1.7996 -1.6662
 4763SOL    HW214541   5.817   5.828   5.975  0.8296 -0.6910  0.5037
 4764SOL     OW14542   2.184   1.152   3.198 -0.3710  0.4151 -0.1717
 4764SOL    HW114543   2.248   1.219   3.178 -0.4602  0.2973 -0.8891
 4764SOL    HW214544   2.210   1.077   3.145  0.6516 -0.6908  1.7883
 4765SOL     OW14545   1.237   0.532   1.811  0.5017  0.6398  0.8901
 4765SOL    HW114546   1.173   0.568   1.871 -0.4054  0.3602  0.1217
 4765SOL    HW214547   1.303   0.490   1.867 -0.1579  0.6546  1.6812
 4766SOL     OW14548   2.772   4.051   5.905 -0.4364  0.4292 -0.3552
 4766SOL    HW114549   2.839   3.986   5.885 -0.1409  0.5363  0.2772
 4766SOL    HW214550   2.787   4.074   5.997 -0.7241  1.1760 -0.4917
 4767SOL     OW14551   0.398   0.719   2.434 -0.1018  0.6166 -0.0410
 4767SOL    HW114552   0.366   0.758   2.353  0.0510  3.0223  0.9752
 4767SOL    HW214553   0.489   0.747   2.441  0.5119 -1.2377  0.0170
 4768SOL     OW14554   2.679   1.963   1.245 -0.1657  0.4229 -0.2003
 4768SOL    HW114555   2.673   1.911   1.325 -1.0214  0.7494 -0.0344
 4768SOL    HW214556   2.653   1.903   1.175  2.3082 -0.3828 -0.4986
 4769SOL     OW14557   4.093   2.573   5.188  0.7706 -0.1739  0.2423
 4769SOL    HW114558   4.060   2.504   5.130  0.8861 -0.6848  0.7684
 4769SOL    HW214559   4.015   2.615   5.223  0.6943 -0.3223  0.2507
 4770SOL     OW14560   3.361   1.759   0.785 -0.5282 -0.5179  0.2082
 4770SOL    HW114561   3.381   1.842   0.743  0.8150 -0.4169  1.0002
 4770SOL    HW214562   3.290   1.779   0.846 -0.8452 -0.1607 -0.2730
 4771SOL     OW14563   4.552   2.794   0.575  0.3802  0.8788  0.0393
 4771SOL    HW114564   4.498   2.809   0.653  0.0154  1.0476 -0.2423
 4771SOL    HW214565   4.634   2.759   0.609 -0.3300 -0.4955  0.3965
 4772SOL     OW14566   5.088   4.024   3.213  0.0470 -0.0760  0.7013
 4772SOL    HW114567   5.099   3.932   3.188  1.2603  0.0456  0.7434
 4772SOL    HW214568   5.146   4.072   3.154  1.9529  0.3436  2.7723
 4773SOL     OW14569   0.430   5.130   4.121 -0.5207  0.1869  0.2972
 4773SOL    HW114570   0.438   5.039   4.090  0.1978  0.0297  0.9061
 4773SOL    HW214571   0.515   5.169   4.102 -0.1306  0.1455  1.8492
 4774SOL     OW14572   1.596   3.079   1.280 -0.3988 -0.4570 -0.1038
 4774SOL    HW114573   1.541   3.155   1.261 -0.1894 -0.8189 -2.5547
 4774SOL    HW214574   1.679   3.097   1.236  1.8112  0.2933  3.8978
 4775SOL     OW14575   2.174   1.668   0.177  0.1105 -0.1021 -0.5221
 4775SOL    HW114576   2.158   1.694   0.268 -0.5100  0.2127 -0.7144
 4775SOL    HW214577   2.190   1.574   0.181 -0.7461 -0.2374 -0.1826
 4776SOL     OW14578   5.775   5.881   4.339  0.4072  0.2033 -0.1314
 4776SOL    HW114579   5.824   5.804   4.367  1.2006  0.6826 -0.2002
 4776SOL    HW214580   5.821   5.913   4.262 -1.5386 -0.8968 -1.8792
 4777SOL     OW14581   1.447   3.395   0.482  0.3166  0.2721 -0.3295
 4777SOL    HW114582   1.425   3.384   0.389 -0.3179 -2.5736  0.0737
 4777SOL    HW214583   1.519   3.335   0.497  2.5893  2.9672  0.4283
 4778SOL     OW14584   0.407   4.406   0.942  0.6251  0.1810 -0.0904
 4778SOL    HW114585   0.428   4.333   1.000  2.0203  0.2524 -0.4773
 4778SOL    HW214586   0.409   4.483   0.999  0.3240  0.0665  0.0804
 4779SOL     OW14587   0.160   3.135   0.414  0.2186 -0.2251 -0.3240
 4779SOL    HW114588   0.090   3.122   0.351  2.6830  1.0677 -3.6436
 4779SOL    HW214589   0.235   3.089   0.376  1.5485 -0.6064  2.4732
 4780SOL     OW14590   1.079   4.572   6.086  0.1186  0.1473 -0.1238
 4780SOL    HW114591   1.017   4.500   6.082  0.0492  0.0665  1.8778
 4780SOL    HW214592   1.039   4.636   6.145  1.0129  1.0174 -0.4236
 4781SOL     OW14593   4.993   4.794   0.071  0.0986  0.2103 -0.5332
 4781SOL    HW114594   4.930   4.767   0.137  0.2674 -1.1976 -0.9082
 4781SOL    HW214595   5.073   4.746   0.092  0.7283  1.1490 -0.6985
 4782SOL     OW14596   2.846   2.344   4.723  0.0457  0.3328  0.0068
 4782SOL    HW114597   2.819   2.393   4.645 -2.1527 -2.0721 -0.8799
 4782SOL    HW214598   2.767   2.336   4.776  0.3973 -1.7828  0.3082
 4783SOL     OW14599   3.818   1.413   1.041 -0.1824 -0.1448  0.0318
 4783SOL    HW114600   3.780   1.374   0.962 -2.6589 -0.1053  1.1020
 4783SOL    HW214601   3.862   1.340   1.085 -1.0037 -0.7843 -0.1637
 4784SOL     OW14602   3.001   1.568   5.712 -0.7386 -0.8151 -0.1749
 4784SOL    HW114603   2.935   1.637   5.713 -1.3255 -1.3741  0.2517
 4784SOL    HW214604   2.952   1.487   5.694 -0.2260 -1.2886  0.5063
 4785SOL     OW14605   1.800   5.422   1.567 -0.3289 -0.4114  0.1752
 4785SOL    HW114606   1.717   5.451   1.604 -0.7671 -0.5837 -0.6550
 4785SOL    HW214607   1.821   5.487   1.500  1.4390  0.9921  1.9606
 4786SOL     OW14608   4.097   3.795   4.491 -0.2862  0.1056  0.0550
 4786SOL    HW114609   4.044   3.719   4.514  1.2717 -1.1517 -0.3079
 4786SOL    HW214610   4.057   3.828   4.410 -2.2835  1.0430  1.3632
 4787SOL     OW14611   1.259   0.142   6.261 -0.2544  0.3072 -0.3090
 4787SOL    HW114612   1.226   0.231   6.251 -0.2912  0.4333  0.7962
 4787SOL    HW214613   1.283   0.135   6.353 -0.4833 -0.9006 -0.3175
 4788SOL     OW14614   0.190   0.772   0.786 -0.1629  0.2386  0.3814
 4788SOL    HW114615   0.217   0.862   0.800 -3.1146  1.1981  0.4392
 4788SOL    HW214616   0.192   0.760   0.691 -0.8862  0.7719  0.2917
 4789SOL     OW14617   5.110   1.275   1.813  0.5064 -0.1496 -0.0075
 4789SOL    HW114618   5.111   1.306   1.722  2.2927  0.2343  0.1129
 4789SOL    HW214619   5.133   1.183   1.807 -0.7746 -0.4985 -0.0212
 4790SOL     OW14620   4.303   0.271   1.980  0.0076  0.3044 -0.0772
 4790SOL    HW114621   4.251   0.191   1.982 -0.0609  0.3652  1.0396
 4790SOL    HW214622   4.336   0.276   1.890  0.5042 -1.2948 -0.0018
 4791SOL     OW14623   0.631   3.930   1.365  0.4458 -0.3631 -0.3914
 4791SOL    HW114624   0.681   3.919   1.446  1.1327 -2.3647 -1.0305
 4791SOL    HW214625   0.690   3.900   1.296 -0.9922 -1.1065 -1.3605
 4792SOL     OW14626   3.490   2.559   5.396 -0.5294  0.2832  0.0667
 4792SOL    HW114627   3.455   2.539   5.309 -0.0810  1.0504 -0.2992
 4792SOL    HW214628   3.566   2.614   5.379  1.0420 -1.5386  0.8235
 4793SOL     OW14629   5.300   2.601   0.909  0.5697  0.2404  0.1904
 4793SOL    HW114630   5.357   2.553   0.969 -0.4288 -1.3845 -0.0822
 4793SOL    HW214631   5.228   2.632   0.965 -0.8005 -1.9960 -0.2085
 4794SOL     OW14632   2.858   2.453   2.166  0.2242  0.0338 -0.0140
 4794SOL    HW114633   2.777   2.504   2.173  0.0249 -0.3871  1.0740
 4794SOL    HW214634   2.828   2.362   2.159  0.5389  0.0813 -3.2230
 4795SOL     OW14635   3.236   1.480   1.096 -0.4259  0.4477 -0.4862
 4795SOL    HW114636   3.274   1.425   1.164 -1.8118  0.6091  0.4673
 4795SOL    HW214637   3.245   1.428   1.016  2.5238  0.8442 -0.5259
 4796SOL     OW14638   4.874   2.919   4.968  0.2599  0.2361 -0.1892
 4796SOL    HW114639   4.881   2.857   5.041  2.5569  0.9638  0.2991
 4796SOL    HW214640   4.802   2.978   4.993 -0.3315 -0.7460  0.4931
 4797SOL     OW14641   0.390   5.044   0.581  0.3139 -0.4202 -0.2473
 4797SOL    HW114642   0.441   5.089   0.648 -2.0684  1.4828  0.4032
 4797SOL    HW214643   0.436   5.063   0.500  0.1533  2.1848  0.1709
 4798SOL     OW14644   2.770   3.056   6.001  0.0604 -0.3670 -0.1977
 4798SOL    HW114645   2.822   3.002   5.941 -0.5689 -1.5065  0.2621
 4798SOL    HW214646   2.775   3.011   6.085 -0.8179  0.0545  0.0947
 4799SOL     OW14647   1.666   5.733   3.605 -0.3223 -0.2630 -0.2985
 4799SOL    HW114648   1.620   5.816   3.601 -0.9103 -0.4332  1.7259
 4799SOL    HW214649   1.599   5.669   3.630  0.7821 -0.6505  1.9605
 4800SOL     OW14650   5.073   1.524   0.849  0.0446 -0.5210  0.3630
 4800SOL    HW114651   4.984   1.554   0.829  0.5030  0.6583  0.0111
 4800SOL    HW214652   5.117   1.520   0.764  0.7643  0.3944  0.6752
 4801SOL     OW14653   0.456   0.769   2.140  0.7757 -0.0749 -1.2437
 4801SOL    HW114654   0.533   0.816   2.108  0.2501  1.3831 -0.4439
 4801SOL    HW214655   0.382   0.819   2.106  0.2026  0.8534  1.1580
 4802SOL     OW14656   5.028   5.623   0.287 -0.3129 -0.1823 -0.3145
 4802SOL    HW114657   5.053   5.624   0.379 -0.5978  1.2179 -0.2376
 4802SOL    HW214658   4.969   5.547   0.279  0.9668 -1.2694  0.2889
 4803SOL     OW14659   4.281   5.332   0.075  0.4386 -0.5088 -0.5059
 4803SOL    HW114660   4.208   5.289   0.119  1.0700  0.9314  2.1251
 4803SOL    HW214661   4.357   5.277   0.094  0.6235 -0.1672 -0.2466
 4804SOL     OW14662   1.440   5.727   1.626 -0.3091  0.3503  0.0959
 4804SOL    HW114663   1.509   5.663   1.641 -1.1388 -0.9965 -1.5407
 4804SOL    HW214664   1.391   5.729   1.709  0.2999 -0.4111  0.4893
 4805SOL     OW14665   3.923   4.538   3.330  0.2846  0.1974  0.1200
 4805SOL    HW114666   3.914   4.443   3.319 -1.0547  0.3332 -0.1018
 4805SOL    HW214667   3.939   4.571   3.241 -0.9350  0.3338 -0.0626
 4806SOL     OW14668   3.814   0.858   3.749 -0.0825 -0.1820  0.4141
 4806SOL    HW114669   3.790   0.825   3.663  2.6631  0.4455 -0.7046
 4806SOL    HW214670   3.781   0.948   3.751 -2.8191 -1.0995  1.3331
 4807SOL     OW14671   3.429   2.069   2.082  0.4172 -0.4738  0.1029
 4807SOL    HW114672   3.456   1.981   2.053 -2.4971 -1.6462  0.5945
 4807SOL    HW214673   3.477   2.129   2.024  2.1367 -2.3725 -0.5714
 4808SOL     OW14674   5.490   0.085   0.776 -0.1328 -0.1075 -0.4970
 4808SOL    HW114675   5.403   0.073   0.813 -0.0675 -0.2749 -0.3972
 4808SOL    HW214676   5.511   0.001   0.736  0.1997 -0.2257 -0.0694
 4809SOL     OW14677   0.913   2.185   5.792 -0.4501 -0.1446 -0.0362
 4809SOL    HW114678   0.880   2.125   5.725 -0.6849 -0.7335  0.5869
 4809SOL    HW214679   0.856   2.169   5.868 -1.2872  1.7145 -0.2147
 4810SOL     OW14680   0.532   3.650   2.044 -0.4478 -0.0207 -0.8917
 4810SOL    HW114681   0.462   3.598   2.006 -1.3174 -0.6592  1.4174
 4810SOL    HW214682   0.598   3.656   1.975 -1.5560 -1.7597 -2.1774
 4811SOL     OW14683   0.908   3.599   0.651 -0.5800 -0.3870  0.0243
 4811SOL    HW114684   0.966   3.532   0.686 -2.0545 -0.8741  1.7043
 4811SOL    HW214685   0.870   3.560   0.572  1.8256  0.2245 -1.5292
 4812SOL     OW14686   1.161   3.147   0.858 -0.2346  0.3933  0.6882
 4812SOL    HW114687   1.078   3.131   0.813  0.8466 -2.3696 -0.5908
 4812SOL    HW214688   1.191   3.232   0.823 -2.6698  1.7046  1.5794
 4813SOL     OW14689   2.845   0.696   4.656  0.4623  0.5540  0.5241
 4813SOL    HW114690   2.810   0.619   4.700 -0.2892  0.8095  0.3721
 4813SOL    HW214691   2.847   0.764   4.724 -0.6870  0.9450  0.1729
 4814SOL     OW14692   3.550   5.939   0.318 -0.1668  0.1590 -0.5948
 4814SOL    HW114693   3.457   5.954   0.304 -0.1319 -0.0189 -1.0385
 4814SOL    HW214694   3.593   5.987   0.247  0.0797  0.2821 -0.3624
 4815SOL     OW14695   2.940   5.790   4.082 -0.3577  0.2939 -0.5066
 4815SOL    HW114696   3.019   5.757   4.040  0.3590  0.3243  0.7612
 4815SOL    HW214697   2.874   5.722   4.067  0.4994 -0.7227  0.2111
 4816SOL     OW14698   6.279   3.146   2.835  0.2067  0.3820  0.0697
 4816SOL    HW114699   6.233   3.141   2.751 -1.1668 -0.3129  0.8489
 4816SOL    HW214700   6.211   3.166   2.899  0.9470 -0.7955  1.2736
 4817SOL     OW14701   3.233   0.585   4.960  0.3773  0.3355 -0.6386
 4817SOL    HW114702   3.184   0.542   5.030 -0.2668  0.8689 -0.7625
 4817SOL    HW214703   3.173   0.649   4.923  1.1498  0.9747 -0.8212
 4818SOL     OW14704   2.718   0.939   0.436 -0.1357 -0.1244  0.1740
 4818SOL    HW114705   2.752   1.026   0.415 -0.5429  0.0423  0.1907
 4818SOL    HW214706   2.770   0.910   0.511  0.1272  0.0260  0.0518
 4819SOL     OW14707   4.788   0.990   3.260  0.2278 -0.0785  0.2212
 4819SOL    HW114708   4.815   1.080   3.241  1.0516  0.1056  2.0878
 4819SOL    HW214709   4.800   0.943   3.177  1.4118  1.1555 -0.3352
 4820SOL     OW14710   1.791   0.911   6.133 -0.7015 -0.4469  0.1906
 4820SOL    HW114711   1.788   1.000   6.097 -1.0317  0.1922  1.7075
 4820SOL    HW214712   1.713   0.868   6.098 -0.8641  0.0515 -0.0660
 4821SOL     OW14713   3.214   6.067   4.882 -0.2194  0.0182 -0.4767
 4821SOL    HW114714   3.169   5.997   4.834 -0.4893 -1.2361  1.4963
 4821SOL    HW214715   3.287   6.024   4.926  0.0557  1.1165  0.1991
 4822SOL     OW14716   0.613   3.591   0.033  0.3922 -0.4110 -0.5381
 4822SOL    HW114717   0.615   3.502   0.068  0.9948 -0.5870 -1.0086
 4822SOL    HW214718   0.585   3.645   0.107 -1.1807 -1.1326 -0.5735
 4823SOL     OW14719   3.481   1.952   2.725 -1.0726  0.7978 -1.3258
 4823SOL    HW114720   3.468   1.876   2.781  0.0232 -0.0095 -2.1229
 4823SOL    HW214721   3.397   1.996   2.724 -1.0146  1.1001  1.3048
 4824SOL     OW14722   2.201   3.415   0.280  0.0097 -0.2650 -0.9928
 4824SOL    HW114723   2.191   3.446   0.189 -1.1756  0.8252 -0.5228
 4824SOL    HW214724   2.222   3.494   0.330  0.1026 -0.7651 -0.2293
 4825SOL     OW14725   1.138   1.913   0.873 -0.3938 -0.3890 -0.1666
 4825SOL    HW114726   1.129   1.830   0.827  0.9639 -0.4886 -0.3212
 4825SOL    HW214727   1.070   1.969   0.837 -2.8004 -2.0670  1.5212
 4826SOL     OW14728   4.364   3.639   0.065 -0.2290 -0.1635  0.1810
 4826SOL    HW114729   4.302   3.569   0.086 -0.3256 -0.0554  0.2528
 4826SOL    HW214730   4.328   3.681  -0.013  0.3279 -0.8126 -0.4406
 4827SOL     OW14731   5.154   1.953   2.609 -0.1154 -0.1060  0.2122
 4827SOL    HW114732   5.211   1.879   2.630  1.3010  1.1996  1.1520
 4827SOL    HW214733   5.202   2.003   2.543 -0.2296  0.9056  0.8668
 4828SOL     OW14734   0.145   1.475   5.972  0.2983 -0.6129  0.1738
 4828SOL    HW114735   0.169   1.554   5.924  1.0026 -0.8118  0.1735
 4828SOL    HW214736   0.051   1.464   5.957 -0.0468  0.8220  1.0709
 4829SOL     OW14737   5.650   0.836   0.537 -0.3168 -0.4361 -0.0083
 4829SOL    HW114738   5.674   0.894   0.609  0.6750 -0.7997 -0.0228
 4829SOL    HW214739   5.732   0.790   0.515 -0.9440 -1.4127 -0.3778
 4830SOL     OW14740   5.461   3.528   2.496 -0.5592  0.3350  0.0209
 4830SOL    HW114741   5.414   3.595   2.447 -0.5343  1.0710  0.9783
 4830SOL    HW214742   5.426   3.445   2.463 -0.3945  0.7884 -1.3734
 4831SOL     OW14743   5.239   5.455   0.719  0.0891 -0.7547  0.1097
 4831SOL    HW114744   5.256   5.365   0.747  1.1618 -0.2264  1.2470
 4831SOL    HW214745   5.183   5.492   0.788 -0.1221 -0.4720 -0.2107
 4832SOL     OW14746   2.471   5.508   1.342  0.2499 -0.3755  0.1608
 4832SOL    HW114747   2.517   5.442   1.290  1.0817 -0.9397  1.5476
 4832SOL    HW214748   2.410   5.548   1.281 -0.4066 -2.5537 -0.7143
 4833SOL     OW14749   4.844   6.019   3.407 -0.6244 -0.0599 -0.3455
 4833SOL    HW114750   4.921   6.056   3.451 -1.4803 -0.2558  1.3998
 4833SOL    HW214751   4.876   5.941   3.363  0.3545  0.3815 -0.4410
 4834SOL     OW14752   5.287   6.109   1.940 -0.2865  0.0653 -1.0806
 4834SOL    HW114753   5.326   6.172   1.879  2.0636  0.0755  0.2845
 4834SOL    HW214754   5.332   6.125   2.023 -0.9614 -2.1551 -0.1961
 4835SOL     OW14755   4.155   2.135   2.568  0.2885  0.1617  0.3134
 4835SOL    HW114756   4.089   2.146   2.636 -0.1636 -0.7550  0.0389
 4835SOL    HW214757   4.111   2.161   2.487  0.1432 -0.7830  0.0813
 4836SOL     OW14758   3.165   3.253   0.277 -0.4985  0.8218 -0.5804
 4836SOL    HW114759   3.076   3.280   0.254  0.3713  3.7702 -0.8398
 4836SOL    HW214760   3.216   3.267   0.197  0.0770 -2.0722 -0.8568
 4837SOL     OW14761   0.521   4.513   0.208  0.1809  0.1151  0.3010
 4837SOL    HW114762   0.446   4.459   0.231 -0.1901  0.4812 -0.0427
 4837SOL    HW214763   0.593   4.451   0.195 -0.0220 -0.2235  0.7769
 4838SOL     OW14764   3.296   2.947   0.138 -0.4804 -0.1246  0.1819
 4838SOL    HW114765   3.325   2.926   0.050  0.9417  2.0612  0.0458
 4838SOL    HW214766   3.205   2.974   0.128  0.4535  3.0298 -1.2488
 4839SOL     OW14767   4.418   5.775   2.601  0.7174 -0.1642  0.1201
 4839SOL    HW114768   4.339   5.826   2.623  0.8115  0.0032  0.0721
 4839SOL    HW214769   4.384   5.690   2.575  0.6196 -0.5511  1.4210
 4840SOL     OW14770   0.760   4.630   2.846 -0.1711  0.3533  0.1118
 4840SOL    HW114771   0.680   4.601   2.888  0.1590 -0.8659 -0.0723
 4840SOL    HW214772   0.734   4.707   2.794 -0.9774  0.6355  0.9233
 4841SOL     OW14773   4.728   5.418   2.882 -0.5616  0.3508  0.1999
 4841SOL    HW114774   4.636   5.427   2.857 -0.7705 -1.2963  0.2719
 4841SOL    HW214775   4.728   5.426   2.977 -0.3326  2.3747  0.0634
 4842SOL     OW14776   5.560   1.298   2.973  0.3302  0.1239  0.1633
 4842SOL    HW114777   5.471   1.332   2.964  0.6034  0.9418  0.5017
 4842SOL    HW214778   5.592   1.335   3.055  1.3162  0.5865 -0.4121
 4843SOL     OW14779   1.472   3.933   2.765 -0.0168 -0.0257 -0.2315
 4843SOL    HW114780   1.518   3.869   2.820  0.4962  0.3809 -0.1832
 4843SOL    HW214781   1.384   3.897   2.755 -0.8087  0.8924  2.5883
 4844SOL     OW14782   2.776   5.337   0.984  0.3984  0.7798 -0.2962
 4844SOL    HW114783   2.768   5.405   0.918 -0.2356  0.7811 -0.2254
 4844SOL    HW214784   2.842   5.276   0.949  0.3128  0.9593 -0.7635
 4845SOL     OW14785   3.306   2.989   5.485  0.1754 -0.0073  0.1484
 4845SOL    HW114786   3.283   2.935   5.410 -0.0937 -0.6570  0.6855
 4845SOL    HW214787   3.399   3.010   5.472  0.3002 -0.6592 -0.0305
 4846SOL     OW14788   4.334   0.957   1.964 -0.0957  0.4424 -0.2135
 4846SOL    HW114789   4.397   0.893   1.999 -0.1756  0.6393  0.3011
 4846SOL    HW214790   4.285   0.908   1.897  0.4788  0.2386 -0.4869
 4847SOL     OW14791   0.789   6.024   1.918 -0.1770  0.3351  0.4555
 4847SOL    HW114792   0.866   6.026   1.974 -0.0406  2.0163  0.2437
 4847SOL    HW214793   0.788   6.109   1.875 -1.5395 -0.0783 -0.3917
 4848SOL     OW14794   0.916   2.059   2.513 -0.4331 -0.1849 -0.0573
 4848SOL    HW114795   0.897   2.153   2.506  2.2758  0.5476  1.0054
 4848SOL    HW214796   0.837   2.016   2.482 -2.0347  2.4455  0.0641
 4849SOL     OW14797   5.120   4.770   4.175 -0.8681  0.2768 -0.4878
 4849SOL    HW114798   5.124   4.786   4.080 -0.0501 -0.4713 -0.6002
 4849SOL    HW214799   5.144   4.853   4.215 -0.3091  0.3535 -0.9676
 4850SOL     OW14800   3.968   0.117   4.579  0.4302 -0.3134 -0.3324
 4850SOL    HW114801   4.018   0.046   4.538 -1.0034 -1.1085 -0.8016
 4850SOL    HW214802   3.888   0.122   4.527 -0.9590 -0.5953  1.6824
 4851SOL     OW14803   1.071   2.669   1.285  0.3443  0.1469 -0.2786
 4851SOL    HW114804   1.028   2.715   1.357  0.3401  1.2237 -0.9559
 4851SOL    HW214805   1.142   2.620   1.327  1.5224  2.2254  0.2681
 4852SOL     OW14806   1.540   3.380   4.969  0.1722 -0.3035  0.2448
 4852SOL    HW114807   1.457   3.337   4.988  0.1190 -0.0423  0.6102
 4852SOL    HW214808   1.552   3.442   5.041  0.8794 -0.6197  0.4012
 4853SOL     OW14809   1.139   5.965   4.564  0.3064 -1.0854 -0.7651
 4853SOL    HW114810   1.149   6.055   4.535  0.9805 -1.3341 -1.3533
 4853SOL    HW214811   1.175   5.963   4.653  0.3747 -0.7943 -0.7882
 4854SOL     OW14812   1.304   2.992   2.518 -0.1376 -0.3904 -0.4531
 4854SOL    HW114813   1.248   2.914   2.524 -0.6355  0.0763  2.2724
 4854SOL    HW214814   1.267   3.043   2.446 -1.1100 -1.6698 -0.8939
 4855SOL     OW14815   3.156   4.166   4.143 -0.1626  0.1440 -0.4067
 4855SOL    HW114816   3.187   4.203   4.060  0.6224 -0.1272 -0.2476
 4855SOL    HW214817   3.107   4.088   4.117 -0.6440  0.5214 -0.6586
 4856SOL     OW14818   2.966   0.389   4.140  0.0024 -0.0456 -0.1273
 4856SOL    HW114819   2.987   0.432   4.222 -0.0232  1.0382 -0.6791
 4856SOL    HW214820   2.886   0.433   4.109  0.9133  0.6893 -1.5351
 4857SOL     OW14821   3.776   3.674   3.813  0.4606  0.0627  0.3039
 4857SOL    HW114822   3.779   3.770   3.817  0.2387  0.1333 -0.8599
 4857SOL    HW214823   3.791   3.646   3.904 -0.0285  1.2057  0.7621
 4858SOL     OW14824   2.791   1.319   4.675  0.1903  0.3076  0.3376
 4858SOL    HW114825   2.799   1.378   4.601 -1.2810  0.9868  0.6730
 4858SOL    HW214826   2.880   1.308   4.708  0.7858  0.4128 -1.1847
 4859SOL     OW14827   6.116   2.074   1.100 -0.2991  0.2287  0.0342
 4859SOL    HW114828   6.201   2.112   1.122 -0.6550  0.4790  1.0061
 4859SOL    HW214829   6.138   2.000   1.042  0.5426  0.5431 -0.0671
 4860SOL     OW14830   4.250   3.880   3.826 -0.1874 -0.8852  0.4827
 4860SOL    HW114831   4.239   3.934   3.903 -0.5730 -0.5145  0.1730
 4860SOL    HW214832   4.345   3.867   3.818 -0.1980 -1.7339  1.5598
 4861SOL     OW14833   1.749   1.817   2.480 -0.8806 -0.1617  0.0531
 4861SOL    HW114834   1.817   1.782   2.423 -2.1834 -0.5547 -1.3290
 4861SOL    HW214835   1.736   1.749   2.546  0.4832  0.1947  0.7098
 4862SOL     OW14836   1.444   4.347   5.718  0.5657  0.4834 -0.6419
 4862SOL    HW114837   1.428   4.270   5.663  2.7176 -0.9560  0.6318
 4862SOL    HW214838   1.409   4.323   5.804 -1.2475  2.0785 -0.8505
 4863SOL     OW14839   2.376   6.070   3.332 -0.5748 -0.1572 -0.0360
 4863SOL    HW114840   2.310   6.108   3.390  0.0247 -0.6898  1.0298
 4863SOL    HW214841   2.345   5.980   3.315 -0.3701 -0.2482  0.0683
 4864SOL     OW14842   1.589   5.120   5.916  0.1609 -0.2397 -0.7472
 4864SOL    HW114843   1.533   5.167   5.978  0.1942  0.7325 -1.4256
 4864SOL    HW214844   1.559   5.029   5.921 -1.7455  0.2977 -1.3254
 4865SOL     OW14845   6.320   4.385   1.925  0.1845 -0.0276  0.0647
 4865SOL    HW114846   6.279   4.403   2.010  1.8068 -0.1298  0.9169
 4865SOL    HW214847   6.344   4.292   1.930 -0.0433 -0.1286 -0.6658
 4866SOL     OW14848   5.125   2.706   6.065 -0.3277  0.4505 -0.4473
 4866SOL    HW114849   5.114   2.747   5.979  2.7887 -0.4173 -1.3862
 4866SOL    HW214850   5.065   2.631   6.062 -1.1913  1.1414 -1.3477
 4867SOL     OW14851   2.916   1.137   5.098  0.5460  0.0171 -0.7110
 4867SOL    HW114852   2.958   1.081   5.033  0.8673 -1.0170  0.3351
 4867SOL    HW214853   2.826   1.104   5.104  0.3396  0.5109 -1.0680
 4868SOL     OW14854   1.057   5.591   1.051  0.2398 -0.3605 -0.3053
 4868SOL    HW114855   0.984   5.654   1.051  0.5243 -0.0221 -0.0202
 4868SOL    HW214856   1.087   5.589   0.960 -0.9322 -1.4669 -0.7001
 4869SOL     OW14857   3.752   0.410   3.422 -0.0971  0.1693 -0.5331
 4869SOL    HW114858   3.792   0.364   3.496  0.8814  1.6472 -0.0902
 4869SOL    HW214859   3.690   0.471   3.462  0.4035  0.9449 -0.9108
 4870SOL     OW14860   4.108   4.612   0.047 -0.0834  0.0355 -0.8236
 4870SOL    HW114861   4.101   4.519   0.025 -1.0638  0.0744 -0.6936
 4870SOL    HW214862   4.082   4.658  -0.033  1.0557  0.2253 -1.1144
 4871SOL     OW14863   0.454   6.272   5.592  0.1276  0.3507  0.8552
 4871SOL    HW114864   0.423   6.244   5.678  2.2410  1.7513  2.1428
 4871SOL    HW214865   0.459   6.367   5.598 -1.9017  0.7381 -1.6604
 4872SOL     OW14866   2.811   2.875   6.217 -0.3158 -0.3247 -0.2901
 4872SOL    HW114867   2.828   2.786   6.185  1.1893 -0.6186  1.1358
 4872SOL    HW214868   2.724   2.870   6.256  0.1224 -1.4724  0.6112
 4873SOL     OW14869   1.169   3.246   4.441  0.0434  0.5607 -0.1721
 4873SOL    HW114870   1.106   3.277   4.376 -0.1125  1.4008  0.3541
 4873SOL    HW214871   1.241   3.210   4.390  1.5028  4.1822 -1.0137
 4874SOL     OW14872   5.185   2.872   5.457  0.6508  0.5894 -0.2180
 4874SOL    HW114873   5.146   2.852   5.542 -0.4601 -1.2455 -1.1073
 4874SOL    HW214874   5.131   2.825   5.394  0.7875  2.7579 -2.0834
 4875SOL     OW14875   3.353   0.387   2.361  0.3012 -0.1339  0.2193
 4875SOL    HW114876   3.287   0.328   2.326  1.6947 -1.7718  0.2399
 4875SOL    HW214877   3.401   0.419   2.285 -0.2669  0.8081  0.2307
 4876SOL     OW14878   5.610   5.576   2.111 -0.1094  0.0005 -0.5007
 4876SOL    HW114879   5.589   5.601   2.201  2.3021  0.6034 -0.0198
 4876SOL    HW214880   5.576   5.487   2.102 -0.5581 -0.0009  0.9481
 4877SOL     OW14881   2.475   3.199   0.883  0.3611  0.0266 -0.3141
 4877SOL    HW114882   2.441   3.250   0.957  0.4485 -0.9704  0.4402
 4877SOL    HW214883   2.450   3.249   0.806 -0.4353  0.6984  0.3576
 4878SOL     OW14884   4.895   1.975   2.886 -0.5979 -0.4999 -0.2065
 4878SOL    HW114885   4.819   1.917   2.889 -0.7109 -0.3615 -0.4254
 4878SOL    HW214886   4.872   2.048   2.944 -0.5875 -0.5135 -0.1851
 4879SOL     OW14887   3.299   5.257   6.154 -0.2694 -0.1797 -0.1702
 4879SOL    HW114888   3.235   5.237   6.222 -0.7827  0.4138 -0.4602
 4879SOL    HW214889   3.373   5.200   6.173 -1.4010 -1.8892 -0.6171
 4880SOL     OW14890   4.397   3.699   4.134  0.0383  0.0338  0.5905
 4880SOL    HW114891   4.306   3.672   4.121  0.5382 -1.3226 -0.2523
 4880SOL    HW214892   4.448   3.619   4.122  1.4548  1.0258 -0.3037
 4881SOL     OW14893   2.674   1.847   0.325  0.3666 -0.0365  0.3177
 4881SOL    HW114894   2.677   1.942   0.310  0.2326 -0.0653  0.0998
 4881SOL    HW214895   2.656   1.810   0.239  2.0251 -0.3682  0.0858
 4882SOL     OW14896   1.631   5.697   4.708  0.2405  0.4915  0.1273
 4882SOL    HW114897   1.668   5.662   4.789 -0.1256  1.2330  0.6260
 4882SOL    HW214898   1.682   5.656   4.638  1.0376  0.3989  0.7547
 4883SOL     OW14899   5.731   1.883   0.126  0.1031  0.2825 -0.0159
 4883SOL    HW114900   5.705   1.926   0.044  1.1632  1.4342  0.2211
 4883SOL    HW214901   5.748   1.792   0.101  0.1842  0.5641 -1.0425
 4884SOL     OW14902   3.239   0.051   4.313  0.3314 -0.6532 -0.1602
 4884SOL    HW114903   3.204   0.108   4.244 -0.1484 -1.4406 -0.5812
 4884SOL    HW214904   3.161   0.011   4.352  0.7312 -3.7490 -2.2206
 4885SOL     OW14905   4.345   2.490   2.417  0.1609  0.7333  0.4896
 4885SOL    HW114906   4.365   2.402   2.383  0.4400  0.5174  1.1813
 4885SOL    HW214907   4.317   2.474   2.508 -2.8231  1.0445 -0.2606
 4886SOL     OW14908   4.444   3.034   5.458 -0.3181  0.0542  0.1401
 4886SOL    HW114909   4.528   3.074   5.434 -0.3856  0.6857  0.8989
 4886SOL    HW214910   4.456   2.941   5.441  0.0634  0.3002 -1.0689
 4887SOL     OW14911   4.136   4.930   1.347  0.3292 -0.0513  0.3626
 4887SOL    HW114912   4.052   4.963   1.316  0.4483 -1.1061 -1.2389
 4887SOL    HW214913   4.115   4.884   1.429 -0.2389  1.6210  1.1980
 4888SOL     OW14914   4.482   1.637   1.725 -0.9891 -0.6882 -0.4956
 4888SOL    HW114915   4.497   1.546   1.699  0.4567 -0.3126 -1.0466
 4888SOL    HW214916   4.427   1.673   1.656  0.6741 -0.4218 -1.7276
 4889SOL     OW14917   5.431   5.511   5.406 -0.4313 -0.4152 -0.2322
 4889SOL    HW114918   5.364   5.553   5.352 -0.0776  0.8004  0.2482
 4889SOL    HW214919   5.513   5.528   5.361 -0.0076  1.4842  1.1383
 4890SOL     OW14920   1.724   4.283   0.215 -0.3908  0.2187  0.1667
 4890SOL    HW114921   1.674   4.347   0.165 -0.4748  0.4217  0.5040
 4890SOL    HW214922   1.815   4.295   0.186 -0.6329 -0.7309 -1.0659
 4891SOL     OW14923   6.274   2.491   6.110 -0.2019  0.5659 -0.6373
 4891SOL    HW114924   6.350   2.435   6.124 -0.0593  0.6550 -1.0446
 4891SOL    HW214925   6.205   2.451   6.163  0.0563  0.3352 -0.4734
 4892SOL     OW14926   2.439   2.700   4.335 -0.2546 -0.3363 -0.4776
 4892SOL    HW114927   2.442   2.605   4.323  1.6440 -0.3129 -0.6551
 4892SOL    HW214928   2.422   2.713   4.428  1.9332 -0.9651  0.0823
 4893SOL     OW14929   1.810   5.289   5.507  0.5637 -0.1354 -0.1652
 4893SOL    HW114930   1.733   5.250   5.549 -0.4351  2.2251  0.3077
 4893SOL    HW214931   1.831   5.366   5.559  3.9238 -1.1899  0.2950
 4894SOL     OW14932   4.214   0.742   1.417  0.3106 -0.5212  0.1022
 4894SOL    HW114933   4.134   0.777   1.378 -0.5672 -3.9636 -1.5731
 4894SOL    HW214934   4.285   0.783   1.368 -0.5346  0.4418 -0.3525
 4895SOL     OW14935   1.282   4.385   3.173  0.2946  0.2420 -0.1701
 4895SOL    HW114936   1.195   4.414   3.199  0.1851 -1.2202  1.2584
 4895SOL    HW214937   1.320   4.349   3.253  1.5583 -0.7158 -1.1610
 4896SOL     OW14938   0.828   2.392   0.612  0.1192 -0.2956 -0.1921
 4896SOL    HW114939   0.797   2.324   0.552 -0.2794 -2.0135  1.8610
 4896SOL    HW214940   0.881   2.450   0.557  2.3207 -3.4326 -1.6643
 4897SOL     OW14941   1.750   3.315   1.630  0.5856  0.1054  0.3727
 4897SOL    HW114942   1.696   3.393   1.644  0.2029 -0.3647  1.6635
 4897SOL    HW214943   1.716   3.251   1.692  0.7929 -1.1552 -0.7731
 4898SOL     OW14944   3.139   5.949   3.608  0.7961 -0.0919  0.0007
 4898SOL    HW114945   3.184   6.017   3.557  0.1118 -0.4294 -1.0938
 4898SOL    HW214946   3.210   5.900   3.650  1.5052 -0.7052 -1.8039
 4899SOL     OW14947   5.176   3.709   2.312 -0.4847  0.5198 -0.2534
 4899SOL    HW114948   5.151   3.624   2.347  0.7264 -0.9500 -2.7328
 4899SOL    HW214949   5.190   3.764   2.390 -1.1021 -1.5602  1.4052
 4900SOL     OW14950   3.534   1.602   4.265  0.0785  0.3476 -0.7445
 4900SOL    HW114951   3.538   1.553   4.183  0.3108  1.2273 -1.2652
 4900SOL    HW214952   3.583   1.548   4.327 -0.2671 -0.4228 -1.1179
 4901SOL     OW14953   1.593   3.636   0.437 -0.0661 -0.1552  0.0825
 4901SOL    HW114954   1.508   3.655   0.396  1.6435  2.9208 -2.5068
 4901SOL    HW214955   1.632   3.568   0.382 -0.0115 -0.0693  0.0153
 4902SOL     OW14956   5.735   2.317   2.587  0.1502  0.2745 -0.7846
 4902SOL    HW114957   5.744   2.248   2.521 -0.5236 -1.5056  0.8837
 4902SOL    HW214958   5.811   2.375   2.573  0.2822 -0.3338 -2.7543
 4903SOL     OW14959   3.267   3.922   4.370 -0.2403  0.2944  0.0926
 4903SOL    HW114960   3.305   3.835   4.353 -0.4223  0.2543 -0.1041
 4903SOL    HW214961   3.247   3.957   4.283 -1.9968 -0.2725  0.2373
 4904SOL     OW14962   2.381   3.719   2.881 -0.1664 -0.5296  0.2575
 4904SOL    HW114963   2.300   3.770   2.878 -0.6949 -1.2154  2.0521
 4904SOL    HW214964   2.372   3.658   2.808 -2.0378 -1.6658  1.3557
 4905SOL     OW14965   4.163   3.418   5.494 -0.4918 -0.2187 -0.3592
 4905SOL    HW114966   4.173   3.324   5.479 -0.5213  0.0941 -2.7162
 4905SOL    HW214967   4.095   3.425   5.561 -1.8907 -1.8541 -1.5312
 4906SOL     OW14968   5.306   5.089   3.963 -0.6489 -0.2802  0.4355
 4906SOL    HW114969   5.381   5.059   4.014  1.2267  0.7745 -1.5488
 4906SOL    HW214970   5.289   5.178   3.995  0.7085  0.4904 -0.8442
 4907SOL     OW14971   3.246   3.228   4.356 -0.3667  0.1584  0.0959
 4907SOL    HW114972   3.305   3.285   4.306  0.0268 -1.7726 -1.8093
 4907SOL    HW214973   3.158   3.252   4.326 -0.0940 -1.5828 -2.3729
 4908SOL     OW14974   0.363   4.017   3.761 -0.9393  0.0563 -0.4145
 4908SOL    HW114975   0.354   3.937   3.812 -1.7279  0.0269 -0.5900
 4908SOL    HW214976   0.388   3.986   3.674 -0.3710  0.0587 -0.2546
 4909SOL     OW14977   6.266   2.504   0.985 -0.1176 -0.3434  0.1512
 4909SOL    HW114978   6.256   2.411   1.005  0.3413 -0.7122 -1.1937
 4909SOL    HW214979   6.295   2.544   1.067 -0.7422 -1.3037  0.8580
 4910SOL     OW14980   2.992   3.998   1.703  0.9397 -0.3329  0.3795
 4910SOL    HW114981   3.052   4.039   1.766  2.8287  1.5947 -2.4593
 4910SOL    HW214982   2.905   4.026   1.732  1.8521  1.8486  1.2691
 4911SOL     OW14983   1.816   6.288   5.348 -0.3924 -0.1130  0.0601
 4911SOL    HW114984   1.849   6.375   5.374  0.1070  0.0159 -0.9866
 4911SOL    HW214985   1.834   6.282   5.255  1.0174 -1.9974  0.4032
 4912SOL     OW14986   6.147   3.798   3.631 -0.1156 -0.2566 -0.4766
 4912SOL    HW114987   6.192   3.865   3.578  0.5392 -1.0409 -0.9444
 4912SOL    HW214988   6.155   3.718   3.579 -0.3334 -0.8363  0.3645
 4913SOL     OW14989   2.439   0.422   0.140  0.9125  0.0953  0.3647
 4913SOL    HW114990   2.374   0.472   0.189 -0.1480 -1.4694  0.6285
 4913SOL    HW214991   2.464   0.350   0.199 -0.8969 -2.2578 -1.5069
 4914SOL     OW14992   0.898   4.006   4.779 -0.4280  0.1119 -0.4493
 4914SOL    HW114993   0.804   4.003   4.799 -0.0217  1.1967  2.0464
 4914SOL    HW214994   0.940   3.974   4.859  1.3732  1.8197 -0.6445
 4915SOL     OW14995   3.185   2.406   0.072  0.3772  0.0336 -0.3234
 4915SOL    HW114996   3.230   2.488   0.049  1.6055  0.1102  2.0860
 4915SOL    HW214997   3.145   2.424   0.157  0.6771 -1.8623  0.2523
 4916SOL     OW14998   4.538   6.167   0.643 -0.1156  0.2921 -0.0974
 4916SOL    HW114999   4.507   6.222   0.715 -0.8617  0.0377 -0.2072
 4916SOL    HW215000   4.534   6.078   0.679 -1.7888  0.0189 -0.8551
 4917SOL     OW15001   0.595   0.430   3.288  0.0498 -0.5294  0.1847
 4917SOL    HW115002   0.534   0.463   3.222  0.1752  0.8328  0.7060
 4917SOL    HW215003   0.571   0.476   3.368  0.8837 -0.9976  0.7213
 4918SOL     OW15004   1.233   3.313   3.883  0.1435 -0.6590 -0.3657
 4918SOL    HW115005   1.231   3.395   3.834  0.1749  0.7405  1.8506
 4918SOL    HW215006   1.322   3.308   3.918 -1.0013  0.8511  3.2908
 4919SOL     OW15007   0.654   2.387   3.694 -0.1772 -0.0468  0.2614
 4919SOL    HW115008   0.687   2.413   3.779 -0.6504 -0.4969  0.5872
 4919SOL    HW215009   0.562   2.414   3.694 -0.2685 -0.3427  0.0243
 4920SOL     OW15010   5.445   4.253   1.892 -0.0539 -0.0915 -0.5905
 4920SOL    HW115011   5.419   4.199   1.817 -0.9532  0.8930 -1.0119
 4920SOL    HW215012   5.385   4.327   1.890 -0.6679 -0.4598  1.6222
 4921SOL     OW15013   0.762   2.107   2.852  0.4256 -1.0696  0.1814
 4921SOL    HW115014   0.731   2.122   2.763  0.4691  0.0182  0.3354
 4921SOL    HW215015   0.806   2.021   2.848  0.9788 -0.7538 -0.9926
 4922SOL     OW15016   2.398   0.768   5.402  0.6239  0.6213  0.7993
 4922SOL    HW115017   2.408   0.673   5.393  0.7719  0.8016 -1.5525
 4922SOL    HW215018   2.487   0.800   5.419  1.1282  0.5578 -1.4371
 4923SOL     OW15019   4.786   3.170   2.787 -0.3118 -0.8191  0.4818
 4923SOL    HW115020   4.718   3.116   2.827 -0.2899 -0.9437  0.3539
 4923SOL    HW215021   4.763   3.260   2.811 -1.3021 -0.7288 -0.6673
 4924SOL     OW15022   2.074   4.486   3.707  0.1631 -0.3348 -0.0778
 4924SOL    HW115023   2.074   4.523   3.618  1.6020 -1.2171 -0.4838
 4924SOL    HW215024   2.103   4.395   3.695 -0.5693 -0.7572  1.2010
 4925SOL     OW15025   5.942   3.145   4.685  0.2436 -0.3276  0.4883
 4925SOL    HW115026   5.874   3.191   4.637  0.8672  0.5090  0.3908
 4925SOL    HW215027   6.024   3.182   4.653  0.6961 -0.1776  1.7450
 4926SOL     OW15028   5.824   6.165   2.144 -0.0637 -0.5731  0.5568
 4926SOL    HW115029   5.810   6.159   2.050  1.4392  0.8793  0.1867
 4926SOL    HW215030   5.784   6.086   2.180  0.6195 -1.8989 -1.4500
 4927SOL     OW15031   6.090   0.117   2.108 -0.0185 -0.3842  0.2341
 4927SOL    HW115032   6.119   0.026   2.116  3.7189  0.6559  0.5553
 4927SOL    HW215033   6.127   0.147   2.025  1.0477  1.4626  1.3078
 4928SOL     OW15034   5.879   6.235   1.839  0.1787  0.3597 -0.1552
 4928SOL    HW115035   5.956   6.217   1.784 -0.0964  2.1486 -1.2078
 4928SOL    HW215036   5.894   6.324   1.872 -1.4663  0.7666 -0.4306
 4929SOL     OW15037   2.168   6.187   1.349  0.2572 -0.3105  0.4612
 4929SOL    HW115038   2.094   6.149   1.395 -0.1356  0.6289  0.6317
 4929SOL    HW215039   2.239   6.187   1.413 -0.8146  2.8240  1.8507
 4930SOL     OW15040   3.390   4.885   0.801 -0.2386  0.2506  0.1425
 4930SOL    HW115041   3.448   4.829   0.749 -0.5306  0.5453 -0.5046
 4930SOL    HW215042   3.392   4.970   0.757  4.8621  2.8626  4.1876
 4931SOL     OW15043   0.039   0.653   2.792 -0.0804  0.0740 -0.1751
 4931SOL    HW115044   0.040   0.642   2.887 -1.0670  0.5110 -0.0987
 4931SOL    HW215045   0.131   0.652   2.766  0.1653 -2.4952  0.4908
 4932SOL     OW15046   5.099   0.968   5.780  0.5617 -0.3657 -0.0433
 4932SOL    HW115047   5.103   1.061   5.804  1.2965 -0.7370  1.4006
 4932SOL    HW215048   5.037   0.965   5.707  0.3956  1.2335 -0.0146
 4933SOL     OW15049   0.999   1.675   1.405 -0.1535 -0.0565 -0.0208
 4933SOL    HW115050   1.037   1.672   1.317  0.1536  2.3896 -0.0281
 4933SOL    HW215051   0.905   1.660   1.391 -0.3869  2.0153 -1.0333
 4934SOL     OW15052   5.966   4.798   5.995 -0.7190  0.1352  0.0302
 4934SOL    HW115053   6.001   4.716   5.960  1.0927  2.0380 -3.1182
 4934SOL    HW215054   5.876   4.802   5.963 -0.6772 -0.4029 -0.1540
 4935SOL     OW15055   1.271   3.821   1.201 -0.6962 -0.1353 -0.1478
 4935SOL    HW115056   1.281   3.833   1.295 -0.8260  0.0343 -0.1558
 4935SOL    HW215057   1.203   3.754   1.192 -1.7078  0.8548 -0.1383
 4936SOL     OW15058   0.336   0.371   4.764  0.1473  0.4877 -0.1548
 4936SOL    HW115059   0.274   0.397   4.695  0.2481  1.0827 -0.0301
 4936SOL    HW215060   0.281   0.353   4.840  0.0472 -0.0279 -0.3450
 4937SOL     OW15061   5.451   3.832   2.706 -0.3177  0.6948  0.5647
 4937SOL    HW115062   5.536   3.809   2.670 -0.9791 -0.8918 -0.0808
 4937SOL    HW215063   5.466   3.842   2.800  0.3983 -0.6589  0.6208
 4938SOL     OW15064   4.008   0.062   2.596 -0.3270 -0.2466  0.4011
 4938SOL    HW115065   3.949   0.026   2.529 -0.6110  1.2292 -0.1783
 4938SOL    HW215066   4.065  -0.011   2.619  0.9413 -0.3840 -2.7291
 4939SOL     OW15067   3.785   3.826   3.049  0.4579 -0.0379  0.0412
 4939SOL    HW115068   3.849   3.801   3.116 -0.0314  1.1220  0.9893
 4939SOL    HW215069   3.700   3.820   3.093  0.1371  0.8969 -0.4100
 4940SOL     OW15070   3.368   5.611   5.825  0.4011  0.0592 -0.1388
 4940SOL    HW115071   3.365   5.675   5.896  0.5880  0.4909 -0.5161
 4940SOL    HW215072   3.276   5.596   5.802  0.3919  0.9493 -0.7194
 4941SOL     OW15073   4.622   4.980   1.648  0.3395  0.1448 -0.3655
 4941SOL    HW115074   4.679   4.986   1.571  0.6650  0.4951 -0.1026
 4941SOL    HW215075   4.680   4.998   1.722 -0.1947  0.9246 -0.1233
 4942SOL     OW15076   1.318   0.178   2.684  0.0541 -0.7876  0.2694
 4942SOL    HW115077   1.311   0.268   2.653 -0.1870 -0.8456  0.1540
 4942SOL    HW215078   1.396   0.178   2.740  1.3383 -1.0035 -1.4556
 4943SOL     OW15079   0.886   0.719   3.538  0.2152  0.4145  0.0361
 4943SOL    HW115080   0.854   0.769   3.463  0.2989  0.3026 -0.0752
 4943SOL    HW215081   0.812   0.664   3.564 -0.3999  1.6851  1.1221
 4944SOL     OW15082   2.290   4.553   2.762 -0.0319  0.0874  0.6984
 4944SOL    HW115083   2.225   4.605   2.809  0.6771  0.7387  0.9808
 4944SOL    HW215084   2.370   4.563   2.813  0.6954  0.6255 -0.5075
 4945SOL     OW15085   0.666   4.967   1.769  0.4888 -0.2584 -0.0380
 4945SOL    HW115086   0.581   4.995   1.801 -0.1485  1.5352 -2.9595
 4945SOL    HW215087   0.719   5.047   1.766  1.4385 -0.8786 -0.6611
 4946SOL     OW15088   3.329   5.033   2.691  0.1050  0.2486 -0.0824
 4946SOL    HW115089   3.280   5.112   2.669  1.2283  0.3453 -2.5570
 4946SOL    HW215090   3.393   5.024   2.621  1.3343 -1.7779  1.1983
 4947SOL     OW15091   3.981   0.754   1.170 -0.1319 -0.1489  0.1307
 4947SOL    HW115092   4.015   0.665   1.171  0.4833  0.0691 -0.3837
 4947SOL    HW215093   4.056   0.808   1.143 -0.2567  0.6298  1.2598
 4948SOL     OW15094   5.240   3.481   5.422  0.1858 -0.3623  0.1053
 4948SOL    HW115095   5.298   3.550   5.454 -0.2432  0.2606 -0.4345
 4948SOL    HW215096   5.265   3.469   5.330 -1.7320  1.2334 -0.6939
 4949SOL     OW15097   2.559   2.997   1.089  0.7732 -0.0552  0.1344
 4949SOL    HW115098   2.476   3.023   1.049  0.9456  1.1298  0.5131
 4949SOL    HW215099   2.607   2.953   1.019 -0.0133 -0.3954 -0.1974
 4950SOL     OW15100   1.587   2.932   4.513 -0.7214 -0.0882 -0.0044
 4950SOL    HW115101   1.549   2.845   4.520 -1.1909  0.0883 -0.3263
 4950SOL    HW215102   1.677   2.921   4.542 -0.1186 -1.1378 -2.0765
 4951SOL     OW15103   0.457   1.075   3.450  0.3725 -0.8194 -0.1718
 4951SOL    HW115104   0.455   1.062   3.544 -3.8492 -0.6789 -0.0725
 4951SOL    HW215105   0.438   0.989   3.413 -1.0196 -0.2945 -0.7263
 4952SOL     OW15106   4.453   3.868   0.171 -0.3611  0.1828  0.2562
 4952SOL    HW115107   4.487   3.843   0.257  2.3710  0.9901 -0.4766
 4952SOL    HW215108   4.400   3.794   0.144  0.4861 -1.0236  1.7254
 4953SOL     OW15109   0.843   3.776   0.288  0.2645 -0.1376 -0.2537
 4953SOL    HW115110   0.750   3.758   0.304  0.1586 -1.0479 -1.6859
 4953SOL    HW215111   0.844   3.827   0.207  1.0720 -1.5481 -1.1800
 4954SOL     OW15112   0.659   6.124   0.993  0.1808  0.0545  0.4193
 4954SOL    HW115113   0.614   6.206   1.015  0.1827  1.1908 -3.0908
 4954SOL    HW215114   0.751   6.140   1.016 -0.1681  0.1117  1.8585
 4955SOL     OW15115   3.419   0.088   3.956 -0.0724  0.3888  0.2974
 4955SOL    HW115116   3.414  -0.004   3.931 -0.0795  0.3803  0.3318
 4955SOL    HW215117   3.328   0.116   3.964 -0.0938  0.6998 -0.8497
 4956SOL     OW15118   5.015   4.982   3.341 -0.0618  0.1469 -0.1470
 4956SOL    HW115119   5.085   5.048   3.342  0.2592 -0.1561 -1.0847
 4956SOL    HW215120   5.061   4.898   3.334 -0.5016 -0.0038 -1.7895
 4957SOL     OW15121   4.934   5.995   4.770 -0.4911 -0.5277 -0.5310
 4957SOL    HW115122   4.903   5.906   4.787 -0.5884 -0.3739  0.1079
 4957SOL    HW215123   5.011   5.983   4.714  0.0082 -1.0646  0.2598
 4958SOL     OW15124   0.825   0.219   2.227  0.6814  0.1777  0.7594
 4958SOL    HW115125   0.912   0.178   2.230  0.3685 -0.5628 -0.0415
 4958SOL    HW215126   0.793   0.213   2.317  1.2494 -0.0109  0.9559
 4959SOL     OW15127   5.347   0.169   0.114  0.3863 -0.0632 -0.0995
 4959SOL    HW115128   5.349   0.095   0.053 -3.4008 -0.8500  0.4569
 4959SOL    HW215129   5.338   0.246   0.059 -1.7842 -0.6692 -0.7171
 4960SOL     OW15130   2.773   0.837   6.065  0.2937  0.0913  0.2733
 4960SOL    HW115131   2.843   0.902   6.074 -0.6102  1.3171 -1.0795
 4960SOL    HW215132   2.818   0.758   6.036  1.3564  0.2604  1.3896
 4961SOL     OW15133   0.606   2.808   5.263 -0.4478 -0.2093 -0.6770
 4961SOL    HW115134   0.689   2.821   5.308  0.6353  0.2592 -2.6832
 4961SOL    HW215135   0.551   2.761   5.326  1.5872 -1.2328  0.4108
 4962SOL     OW15136   0.053   4.370   2.260  0.1744 -0.2123 -0.5497
 4962SOL    HW115137   0.022   4.449   2.216  0.2155  0.0998 -0.0328
 4962SOL    HW215138   0.111   4.403   2.329 -0.1608 -0.6669 -0.0425
 4963SOL     OW15139   0.488   2.629   6.225 -0.0432  0.0375 -0.1896
 4963SOL    HW115140   0.568   2.623   6.278 -1.0030  1.0616  1.4875
 4963SOL    HW215141   0.459   2.539   6.215 -1.2716 -0.1685  3.4922
 4964SOL     OW15142   0.118   3.037   5.278  0.1142 -0.0085 -0.1025
 4964SOL    HW115143   0.076   3.097   5.216  0.2973 -2.1714 -2.5004
 4964SOL    HW215144   0.189   3.089   5.315 -1.1577  1.9686 -0.2368
 4965SOL     OW15145   0.386   5.411   2.218 -0.6810  0.5152  0.3189
 4965SOL    HW115146   0.443   5.486   2.234 -1.4038  1.1279  0.0338
 4965SOL    HW215147   0.301   5.436   2.253 -0.5390 -0.8293  1.7608
 4966SOL     OW15148   4.945   3.815   2.168 -0.6159  0.5191  0.1672
 4966SOL    HW115149   5.005   3.746   2.196 -0.3182  1.2845  1.5013
 4966SOL    HW215150   4.996   3.896   2.176 -0.9087  0.9038 -1.5171
 4967SOL     OW15151   5.284   4.211   5.863  0.4214 -0.2365 -0.4509
 4967SOL    HW115152   5.346   4.237   5.794  1.5119  0.5857  0.7852
 4967SOL    HW215153   5.232   4.289   5.879  1.3402  0.1399  0.8333
 4968SOL     OW15154   1.289   0.305   2.362  0.1513 -0.7812  0.2002
 4968SOL    HW115155   1.373   0.273   2.395  0.5165 -0.9126 -0.8340
 4968SOL    HW215156   1.261   0.369   2.428  2.1549  0.9534 -0.4965
 4969SOL     OW15157   1.188   1.683   1.613 -0.0530  0.3007  0.2127
 4969SOL    HW115158   1.128   1.674   1.538 -0.1355  1.7112  0.0880
 4969SOL    HW215159   1.272   1.704   1.573 -0.3633  2.3327  0.5177
 4970SOL     OW15160   3.596   5.897   3.186  0.1579 -0.0850 -0.3701
 4970SOL    HW115161   3.530   5.853   3.132 -0.2873 -1.3898  1.1855
 4970SOL    HW215162   3.677   5.849   3.169 -0.2474 -1.3376  1.0312
 4971SOL     OW15163   5.688   2.603   5.090  0.2724 -0.3193 -0.1460
 4971SOL    HW115164   5.733   2.560   5.018  2.7795 -0.3280  1.3243
 4971SOL    HW215165   5.699   2.697   5.073 -2.9069 -0.1331 -1.9490
 4972SOL     OW15166   5.106   0.722   4.046 -0.1253  0.0711 -0.2143
 4972SOL    HW115167   5.153   0.649   4.085 -0.3806  1.5962  3.3203
 4972SOL    HW215168   5.100   0.700   3.953 -0.4488 -4.4837  0.6609
 4973SOL     OW15169   3.402   4.173   5.152 -0.2285  0.2324  0.0462
 4973SOL    HW115170   3.489   4.152   5.185  1.2168  1.0323 -2.8552
 4973SOL    HW215171   3.398   4.269   5.155 -0.9250  0.2062 -0.0152
 4974SOL     OW15172   3.295   4.097   2.280  0.3517  0.0063  0.3601
 4974SOL    HW115173   3.253   4.182   2.271  0.4935  0.3060  2.2124
 4974SOL    HW215174   3.270   4.049   2.201 -1.4962  1.0044  0.3001
 4975SOL     OW15175   3.989   3.885   4.278  0.2063  0.6496 -0.4150
 4975SOL    HW115176   4.010   3.937   4.201  2.0031 -3.9745 -3.4731
 4975SOL    HW215177   3.911   3.835   4.253  0.1188 -0.1242  1.2537
 4976SOL     OW15178   0.737   6.266   5.030 -0.4588 -0.6396 -0.0794
 4976SOL    HW115179   0.791   6.225   5.097 -0.0849 -2.8560 -1.6226
 4976SOL    HW215180   0.656   6.216   5.031  0.2014 -1.9096 -2.3643
 4977SOL     OW15181   4.690   2.572   5.878  0.0031 -0.0976 -0.2681
 4977SOL    HW115182   4.781   2.553   5.858  0.3083 -0.7447  1.5716
 4977SOL    HW215183   4.687   2.667   5.889  0.7470 -0.1807  0.8593
 4978SOL     OW15184   1.364   2.709   5.506  0.7220  0.0762 -0.2530
 4978SOL    HW115185   1.448   2.677   5.541  1.6677  2.0930 -0.5539
 4978SOL    HW215186   1.306   2.709   5.582  1.5293  0.3860  0.3840
 4979SOL     OW15187   0.610   0.350   2.467 -0.5700 -0.7971  0.5147
 4979SOL    HW115188   0.566   0.300   2.398  2.4754 -3.6383  0.4034
 4979SOL    HW215189   0.551   0.344   2.542 -2.6927  0.0518 -0.9764
 4980SOL     OW15190   2.055   1.285   4.662  0.2354  0.0512 -0.1007
 4980SOL    HW115191   2.046   1.376   4.636 -0.1092 -0.8390 -3.7664
 4980SOL    HW215192   2.125   1.251   4.605  0.3121 -1.9867  1.1013
 4981SOL     OW15193   3.914   2.967   1.824  0.2841 -0.1566  0.5583
 4981SOL    HW115194   3.919   3.004   1.736  0.0394  0.1903  0.6864
 4981SOL    HW215195   3.895   3.042   1.880 -0.9967 -0.5893  0.7315
 4982SOL     OW15196   2.822   1.761   0.722 -0.2332 -0.1423 -0.0017
 4982SOL    HW115197   2.829   1.834   0.784 -0.4206  0.2253 -0.4083
 4982SOL    HW215198   2.739   1.776   0.677  1.4430  1.5687 -2.7873
 4983SOL     OW15199   1.665   0.361   2.646 -0.2771  0.5422 -0.7096
 4983SOL    HW115200   1.616   0.351   2.564  0.0156  0.0996 -0.8314
 4983SOL    HW215201   1.675   0.272   2.680 -1.6940  0.8260  0.5901
 4984SOL     OW15202   1.315   0.291   3.525  0.6738  0.0485 -0.3122
 4984SOL    HW115203   1.280   0.201   3.528  0.0808  0.2974  1.0557
 4984SOL    HW215204   1.286   0.325   3.441 -0.3184 -0.5816 -0.2468
 4985SOL     OW15205   3.035   4.279   2.422  0.4321  0.0386 -0.2627
 4985SOL    HW115206   3.131   4.278   2.414  0.7596  1.7319  2.2294
 4985SOL    HW215207   3.016   4.222   2.496 -0.5809 -0.6855 -1.0494
 4986SOL     OW15208   6.330   1.444   2.585 -0.2643 -0.0537 -0.7532
 4986SOL    HW115209   6.396   1.445   2.516 -1.1683 -0.3609 -1.6300
 4986SOL    HW215210   6.261   1.503   2.555 -0.3713  0.3274  0.1913
 4987SOL     OW15211   6.199   2.116   2.527 -0.1705  0.1840 -0.4392
 4987SOL    HW115212   6.232   2.113   2.617  0.8378 -0.2743 -0.7989
 4987SOL    HW215213   6.201   2.024   2.498 -0.4680  0.3325 -0.9351
 4988SOL     OW15214   6.009   0.455   1.574 -0.2828 -0.6337 -0.1179
 4988SOL    HW115215   5.986   0.382   1.516 -1.5453 -1.0754  0.8619
 4988SOL    HW215216   5.934   0.514   1.569  1.0158  0.9875 -1.4136
 4989SOL     OW15217   3.819   5.085   4.020 -0.4374  0.3964  0.0676
 4989SOL    HW115218   3.835   5.091   3.926 -0.5713  0.1997  0.0301
 4989SOL    HW215219   3.784   4.997   4.032  0.2382  0.1712  0.4029
 4990SOL     OW15220   0.776   4.243   2.509  0.2602  0.0953 -0.1622
 4990SOL    HW115221   0.750   4.323   2.554 -0.4779 -1.1384  1.7242
 4990SOL    HW215222   0.857   4.216   2.552  0.6996  0.0022 -1.0257
 4991SOL     OW15223   5.060   1.884   5.402 -0.0061 -0.1171  0.4798
 4991SOL    HW115224   5.041   1.975   5.379  2.8702  1.1789  2.5825
 4991SOL    HW215225   5.093   1.845   5.321 -1.5862  0.5760 -0.5405
 4992SOL     OW15226   4.294   4.634   3.714 -0.3437 -0.0728  0.0284
 4992SOL    HW115227   4.266   4.720   3.745  1.6085  0.8214 -0.4931
 4992SOL    HW215228   4.277   4.636   3.620  0.2905  0.0280 -0.0934
 4993SOL     OW15229   4.944   0.563   4.767 -0.2350  0.7196 -0.1675
 4993SOL    HW115230   4.999   0.531   4.696  0.5025  0.7965  0.3560
 4993SOL    HW215231   5.006   0.587   4.836 -1.0193 -1.2178  1.2771
 4994SOL     OW15232   2.744   0.538   4.098  0.4442  0.0399  0.0739
 4994SOL    HW115233   2.766   0.625   4.131  1.3155 -0.1687  0.0678
 4994SOL    HW215234   2.696   0.554   4.016 -2.1407  0.5749  1.6041
 4995SOL     OW15235   5.913   4.072   3.314 -0.7082 -0.0122 -0.4605
 4995SOL    HW115236   5.969   4.148   3.323 -0.3715 -0.4739  1.9549
 4995SOL    HW215237   5.845   4.083   3.381 -1.3827 -1.2318 -0.9002
 4996SOL     OW15238   4.851   4.717   4.884 -0.0195 -0.0220  0.6606
 4996SOL    HW115239   4.944   4.705   4.867  0.7406  1.6113  3.0720
 4996SOL    HW215240   4.828   4.647   4.944 -0.8210 -1.3696 -1.1240
 4997SOL     OW15241   2.174   6.291   4.779  0.1373  0.6028 -0.8779
 4997SOL    HW115242   2.104   6.355   4.795 -0.2592 -0.3577  1.7255
 4997SOL    HW215243   2.138   6.208   4.810  2.0831 -0.1116 -0.3756
 4998SOL     OW15244   3.589   5.724   1.855  0.0764  0.1012 -0.2683
 4998SOL    HW115245   3.550   5.654   1.908  1.1287  0.7423  1.4541
 4998SOL    HW215246   3.623   5.679   1.778 -1.0310 -0.9670 -0.1705
 4999SOL     OW15247   0.923   4.254   5.396 -0.7752 -0.1241  0.1761
 4999SOL    HW115248   0.907   4.177   5.450  3.9751 -1.8636 -0.3987
 4999SOL    HW215249   0.980   4.309   5.449  0.3095  0.3186 -1.3851
 5000SOL     OW15250   5.946   3.542   4.076 -0.2143 -0.3212 -0.4267
 5000SOL    HW115251   5.869   3.592   4.050  0.2108 -1.3659 -4.3541
 5000SOL    HW215252   6.018   3.582   4.027  0.9520 -1.9953 -0.1558
 5001SOL     OW15253   4.988   1.631   3.081 -0.0259  0.7535 -0.1226
 5001SOL    HW115254   4.924   1.569   3.046 -0.8993  1.8437 -0.5224
 5001SOL    HW215255   4.935   1.707   3.108  1.0253  1.3862  0.1975
 5002SOL     OW15256   2.562   5.341   4.096  0.3425 -0.3049 -0.3541
 5002SOL    HW115257   2.513   5.322   4.016 -0.8810 -1.1230  0.5628
 5002SOL    HW215258   2.625   5.269   4.103  1.4623  0.5438 -1.3288
 5003SOL     OW15259   1.359   3.493   3.638  0.0311 -0.6094 -0.4929
 5003SOL    HW115260   1.310   3.546   3.576 -0.7775 -1.2340 -0.4154
 5003SOL    HW215261   1.448   3.490   3.604 -0.3503 -0.7496 -1.4907
 5004SOL     OW15262   2.874   0.193   3.919  0.6035  0.3559 -0.2387
 5004SOL    HW115263   2.937   0.122   3.908  0.7943  0.8013 -2.4230
 5004SOL    HW215264   2.861   0.199   4.014  0.7604 -2.4125  0.0470
 5005SOL     OW15265   6.236   1.511   5.031 -0.4224 -0.6784  0.3511
 5005SOL    HW115266   6.187   1.464   4.963  0.3992  2.4646 -2.6558
 5005SOL    HW215267   6.199   1.599   5.032  1.6674  0.2734  1.7963
 5006SOL     OW15268   2.412   4.405   3.670 -0.1211  0.1632 -0.0879
 5006SOL    HW115269   2.468   4.460   3.725 -1.5443  2.0136 -0.3996
 5006SOL    HW215270   2.357   4.357   3.731  0.6996 -0.4679  0.1713
 5007SOL     OW15271   1.174   0.415   0.789 -0.0459  0.1327  0.5855
 5007SOL    HW115272   1.231   0.477   0.744 -0.2997 -0.2501 -0.2883
 5007SOL    HW215273   1.115   0.383   0.720  0.9729 -2.1077  0.6829
 5008SOL     OW15274   3.944   0.941   4.407  0.7226  0.1832  0.3775
 5008SOL    HW115275   3.941   0.918   4.314 -1.5935 -1.2410  0.6958
 5008SOL    HW215276   3.906   1.029   4.411  1.8707  0.7152 -0.1053
 5009SOL     OW15277   5.511   1.526   2.160 -0.1072 -0.3421 -0.3312
 5009SOL    HW115278   5.574   1.542   2.230 -0.0471 -0.0759 -0.4476
 5009SOL    HW215279   5.444   1.593   2.171  1.1865  1.3517 -2.0556
 5010SOL     OW15280   2.383   0.610   4.712  0.2879  0.0639  0.4066
 5010SOL    HW115281   2.390   0.678   4.778 -0.8453  1.4613 -0.8512
 5010SOL    HW215282   2.453   0.628   4.650 -0.9101  1.0320 -0.7172
 5011SOL     OW15283   5.495   5.788   1.618  0.0256 -0.2872 -0.0207
 5011SOL    HW115284   5.539   5.815   1.537 -0.2423 -0.7806 -0.3342
 5011SOL    HW215285   5.445   5.711   1.593 -0.8559  0.1466  0.3912
 5012SOL     OW15286   2.522   2.152   6.046 -0.0746  0.3400 -0.0283
 5012SOL    HW115287   2.471   2.095   5.989 -0.2943 -0.6391  1.0967
 5012SOL    HW215288   2.458   2.190   6.105  0.3965 -0.4474  1.0221
 5013SOL     OW15289   6.283   4.642   2.212  0.8444  0.2978  0.3768
 5013SOL    HW115290   6.225   4.702   2.166  0.2905 -1.9024 -2.0004
 5013SOL    HW215291   6.263   4.656   2.305 -1.7706  1.2815 -0.2432
 5014SOL     OW15292   3.662   3.863   1.295  0.4289  0.3003 -0.2959
 5014SOL    HW115293   3.633   3.782   1.339  1.4607 -1.3375 -2.4301
 5014SOL    HW215294   3.581   3.905   1.266 -0.0899 -0.5274 -0.0906
 5015SOL     OW15295   5.964   0.825   4.757  0.7214 -0.6573 -0.3778
 5015SOL    HW115296   5.987   0.872   4.677  1.3347 -0.4948 -0.1118
 5015SOL    HW215297   6.047   0.813   4.803  0.6851 -2.4877 -0.6941
 5016SOL     OW15298   6.205   3.551   6.031 -0.1104  0.2698 -0.4485
 5016SOL    HW115299   6.143   3.621   6.008 -1.4284 -1.7170 -3.6408
 5016SOL    HW215300   6.283   3.570   5.979  0.0928  0.1521 -0.1881
 5017SOL     OW15301   0.430   0.320   2.655  0.0441 -0.8355 -0.3448
 5017SOL    HW115302   0.372   0.388   2.688  1.2672  0.1208 -0.1077
 5017SOL    HW215303   0.413   0.245   2.712  0.2789 -0.0196  0.8378
 5018SOL     OW15304   5.032   2.447   6.318  0.8048 -0.8592 -0.2468
 5018SOL    HW115305   5.119   2.486   6.317  0.7574 -0.7293 -1.7871
 5018SOL    HW215306   5.030   2.391   6.241 -1.0260  0.4127 -1.1986
 5019SOL     OW15307   0.985   3.995   5.862 -0.1265  0.4815  0.5185
 5019SOL    HW115308   1.064   3.954   5.898 -0.0321 -0.4512 -0.6885
 5019SOL    HW215309   0.915   3.968   5.922  0.2660  0.2536  0.8819
 5020SOL     OW15310   1.650   5.642   0.966  0.5243 -0.0672  0.1253
 5020SOL    HW115311   1.629   5.602   1.051 -0.4875  0.7326  0.2812
 5020SOL    HW215312   1.689   5.572   0.915  1.2316 -0.5466  1.2805
 5021SOL     OW15313   1.726   1.371   2.270 -0.5635 -0.3325 -0.5263
 5021SOL    HW115314   1.688   1.458   2.282  0.6247  0.0698  0.5046
 5021SOL    HW215315   1.813   1.388   2.236  0.1025 -1.0607  0.7642
 5022SOL     OW15316   4.493   6.080   0.091 -0.0571  0.8634 -0.3835
 5022SOL    HW115317   4.483   6.086   0.186 -2.5942  0.7914 -0.5806
 5022SOL    HW215318   4.464   6.165   0.058  1.0964  0.9989 -1.1126
 5023SOL     OW15319   1.499   2.597   1.204  0.1790  0.4179 -0.4214
 5023SOL    HW115320   1.569   2.606   1.139  0.7047 -0.3222  0.0351
 5023SOL    HW215321   1.480   2.687   1.230  1.9387  0.5693  0.4733
 5024SOL     OW15322   1.430   4.923   3.100  0.1388  0.1452 -0.0527
 5024SOL    HW115323   1.443   4.935   3.194 -0.8578 -1.0291  0.2630
 5024SOL    HW215324   1.385   5.003   3.071 -1.4016 -0.3652  0.8813
 5025SOL     OW15325   2.159   4.032   4.090  0.0544 -0.8668 -0.7960
 5025SOL    HW115326   2.170   3.973   4.015 -0.4977 -2.7780  0.5405
 5025SOL    HW215327   2.221   3.998   4.155  0.4234  0.6706 -0.3150
 5026SOL     OW15328   3.017   2.541   0.223  0.8054  0.0551  0.9128
 5026SOL    HW115329   2.944   2.603   0.216  0.7445 -0.1498 -0.6778
 5026SOL    HW215330   3.071   2.574   0.294  0.0993  1.2130  0.9285
 5027SOL     OW15331   5.987   2.563   5.474 -0.2677 -0.1643  0.1130
 5027SOL    HW115332   5.923   2.620   5.432  0.6365  1.0866  0.3634
 5027SOL    HW215333   5.992   2.594   5.564  1.8377  0.8750 -0.2912
 5028SOL     OW15334   2.663   0.782   5.427 -0.0898  0.3576 -0.6487
 5028SOL    HW115335   2.742   0.795   5.374  0.2512  1.7143  0.1545
 5028SOL    HW215336   2.674   0.695   5.464 -0.0865 -0.4113 -2.3518
 5029SOL     OW15337   3.386   3.794   2.321 -0.2060  0.2340 -1.1242
 5029SOL    HW115338   3.384   3.801   2.225 -0.2459  3.0982 -0.9973
 5029SOL    HW215339   3.398   3.884   2.351 -0.7647 -0.5262  1.6113
 5030SOL     OW15340   4.723   1.297   4.730 -0.0294 -0.4355  0.2212
 5030SOL    HW115341   4.642   1.264   4.769  0.3410  0.8028  2.1945
 5030SOL    HW215342   4.706   1.389   4.714  0.6445 -0.4086 -0.4046
 5031SOL     OW15343   5.565   0.838   4.645 -0.2276  0.6862  0.8862
 5031SOL    HW115344   5.574   0.788   4.564 -0.9900  0.1994  1.0866
 5031SOL    HW215345   5.614   0.787   4.710  1.3954  1.6861  0.5123
 5032SOL     OW15346   0.237   5.280   3.096  0.2850 -0.4246 -0.6881
 5032SOL    HW115347   0.229   5.254   3.188 -2.0645  0.2896 -0.6186
 5032SOL    HW215348   0.148   5.304   3.070  1.0324  0.1944 -2.9282
 5033SOL     OW15349   2.927   1.140   6.090  0.2485 -0.0466 -0.6707
 5033SOL    HW115350   2.904   1.189   6.012 -0.5488 -0.3460 -0.6385
 5033SOL    HW215351   3.018   1.165   6.109  0.1652  0.6775 -1.1885
 5034SOL     OW15352   2.357   4.042   0.828 -0.1081  0.6822  0.2220
 5034SOL    HW115353   2.374   3.999   0.744  0.1584  2.5519 -0.7207
 5034SOL    HW215354   2.389   3.980   0.893  0.8476 -0.2660 -1.0988
 5035SOL     OW15355   3.523   0.126   2.842 -0.2592  0.1401 -0.1321
 5035SOL    HW115356   3.548   0.170   2.760 -0.7155 -0.5115 -0.6263
 5035SOL    HW215357   3.444   0.172   2.870  0.0784  0.5794  0.1302
 5036SOL     OW15358   4.496   1.110   5.694  0.0740 -0.3379 -0.4655
 5036SOL    HW115359   4.559   1.106   5.766 -2.2509 -2.0176  1.6520
 5036SOL    HW215360   4.415   1.139   5.736 -1.2212 -0.8060 -2.5642
 5037SOL     OW15361   5.213   6.302   0.893  0.3752  0.0842  0.4806
 5037SOL    HW115362   5.192   6.318   0.801 -1.1897 -0.6552  0.6656
 5037SOL    HW215363   5.221   6.390   0.931 -0.0144  0.4029 -0.1497
 5038SOL     OW15364   5.134   0.268   0.596  0.2407 -0.2252  0.1581
 5038SOL    HW115365   5.214   0.312   0.627 -0.4142  0.9197  0.2695
 5038SOL    HW215366   5.163   0.179   0.575  1.7713  0.4425 -0.7637
 5039SOL     OW15367   0.566   2.426   0.774 -0.6898  0.3158  0.2668
 5039SOL    HW115368   0.560   2.331   0.781 -1.8536  0.2585 -1.0860
 5039SOL    HW215369   0.653   2.441   0.735 -2.2793 -0.6210 -4.3167
 5040SOL     OW15370   3.075   2.161   1.902 -0.5843 -0.0806 -0.1967
 5040SOL    HW115371   3.119   2.116   1.830  0.8652 -0.7213  1.0302
 5040SOL    HW215372   3.025   2.092   1.946  1.2862 -0.5266  1.4198
 5041SOL     OW15373   1.040   2.541   5.769 -0.1727  0.5593  0.3919
 5041SOL    HW115374   1.120   2.591   5.787 -0.7889  1.1081  1.8004
 5041SOL    HW215375   1.037   2.534   5.674  1.4719  0.6474  0.3040
 5042SOL     OW15376   2.351   2.050   0.123  0.4234  0.2124  0.1933
 5042SOL    HW115377   2.373   1.957   0.114  0.2562  0.1815  0.0969
 5042SOL    HW215378   2.399   2.079   0.201  0.2844 -0.0151  0.3665
 5043SOL     OW15379   3.141   1.516   4.388  0.2087  0.2345 -0.4912
 5043SOL    HW115380   3.208   1.562   4.338  0.2455  0.5304 -0.1738
 5043SOL    HW215381   3.139   1.428   4.350  1.6093 -0.1570  0.2614
 5044SOL     OW15382   0.498   1.012   4.056 -0.0862 -0.3458  0.5843
 5044SOL    HW115383   0.519   1.085   4.114  0.0054  0.4100 -0.3777
 5044SOL    HW215384   0.409   1.031   4.025  0.0973 -0.4147  0.0054
 5045SOL     OW15385   6.088   3.857   1.004 -0.1545 -0.0707  0.4187
 5045SOL    HW115386   6.030   3.876   1.078 -0.2600  0.6142  0.1590
 5045SOL    HW215387   6.084   3.935   0.949 -1.8887 -1.4178 -1.5252
 5046SOL     OW15388   0.955   2.354   2.512  0.3348 -0.5211 -0.6250
 5046SOL    HW115389   0.860   2.360   2.517  0.3637 -1.0654  0.9787
 5046SOL    HW215390   0.977   2.397   2.429 -1.2804 -0.2213 -0.9305
 5047SOL     OW15391   4.771   4.335   4.764  0.2615  0.3510 -0.0543
 5047SOL    HW115392   4.845   4.355   4.706  0.2585  1.1180  0.1929
 5047SOL    HW215393   4.811   4.318   4.849  0.2885 -1.0423 -0.3123
 5048SOL     OW15394   0.447   3.411   5.860  1.1617  0.8541  0.0334
 5048SOL    HW115395   0.377   3.425   5.797 -1.2490 -0.7543  2.1271
 5048SOL    HW215396   0.499   3.339   5.824 -2.3546 -2.6411  1.2835
 5049SOL     OW15397   4.982   4.163   5.743  0.0928  0.0364 -0.2693
 5049SOL    HW115398   5.031   4.245   5.735  0.9351  0.0959  3.6044
 5049SOL    HW215399   5.043   4.104   5.788 -2.1669 -1.0170  1.5906
 5050SOL     OW15400   4.867   5.019   4.917  0.3058  0.1266 -0.7781
 5050SOL    HW115401   4.880   5.069   4.837  0.1233  0.0646 -0.8480
 5050SOL    HW215402   4.912   4.936   4.902  1.5369  0.6733 -0.2489
 5051SOL     OW15403   3.892   0.367   1.979 -0.4133  0.1013 -0.2266
 5051SOL    HW115404   3.818   0.404   2.027  0.0781  1.0690 -0.1921
 5051SOL    HW215405   3.956   0.343   2.047  0.1031  1.0709 -0.3554
 5052SOL     OW15406   0.844   4.652   3.647 -0.1543  0.2844 -0.1230
 5052SOL    HW115407   0.932   4.690   3.638 -0.7132  1.7267  0.2230
 5052SOL    HW215408   0.858   4.558   3.638  1.4820  0.4489  0.3136
 5053SOL     OW15409   5.981   0.672   5.214  0.0901 -0.3700  0.3033
 5053SOL    HW115410   6.022   0.699   5.296  0.2379  0.8188 -0.1427
 5053SOL    HW215411   5.933   0.592   5.236  0.7860 -0.5084  1.3530
 5054SOL     OW15412   6.297   1.470   2.132  0.0405 -0.0210  0.1907
 5054SOL    HW115413   6.316   1.377   2.144  0.5912  0.0830  0.1496
 5054SOL    HW215414   6.346   1.514   2.201 -2.0940  0.0810  1.7363
 5055SOL     OW15415   5.021   2.198   0.116  0.2432  0.5360  0.2820
 5055SOL    HW115416   5.004   2.213   0.209 -0.3659 -2.6032  0.7812
 5055SOL    HW215417   5.031   2.286   0.080 -0.0560  1.9015  3.1803
 5056SOL     OW15418   5.218   4.437   2.570  0.3206 -0.3851  0.5942
 5056SOL    HW115419   5.180   4.443   2.657 -0.4797 -2.2706  0.4173
 5056SOL    HW215420   5.263   4.353   2.569  0.5363 -0.2778 -0.7411
 5057SOL     OW15421   5.320   5.830   4.540 -0.1886  0.0431 -0.0394
 5057SOL    HW115422   5.382   5.884   4.589 -0.3222  0.7892 -0.6700
 5057SOL    HW215423   5.326   5.743   4.580  0.5634  0.3463  0.5183
 5058SOL     OW15424   2.725   4.582   6.090 -0.6896  0.5109 -0.5658
 5058SOL    HW115425   2.722   4.606   6.183 -0.2266 -0.0919 -0.3915
 5058SOL    HW215426   2.634   4.590   6.061 -1.5900 -2.7975  0.8462
 5059SOL     OW15427   1.333   5.184   2.940 -0.5278  0.3160 -0.4772
 5059SOL    HW115428   1.378   5.249   2.994  0.9236  0.0409 -1.2953
 5059SOL    HW215429   1.334   5.221   2.852 -0.2220 -0.5411 -0.8452
 5060SOL     OW15430   2.955   3.607   6.198  0.2304  0.2837 -0.5024
 5060SOL    HW115431   3.013   3.634   6.268 -0.4099  0.4139 -0.0131
 5060SOL    HW215432   2.977   3.664   6.124  0.5315  0.5140 -0.2330
 5061SOL     OW15433   4.634   1.910   0.889 -0.0600  0.2827  0.1353
 5061SOL    HW115434   4.641   1.933   0.981 -1.6269  0.2766  0.2745
 5061SOL    HW215435   4.550   1.947   0.861  0.1960 -0.0731 -1.1873
 5062SOL     OW15436   5.783   1.063   4.538 -0.3628 -0.0957 -0.7048
 5062SOL    HW115437   5.875   1.042   4.524 -0.3460  0.6314 -1.8127
 5062SOL    HW215438   5.742   0.979   4.561  0.6473 -0.3412  0.2772
 5063SOL     OW15439   1.881   2.846   4.574  0.0235  0.0927  0.5472
 5063SOL    HW115440   1.928   2.873   4.653  0.5000  0.6064  0.0982
 5063SOL    HW215441   1.949   2.840   4.507 -0.3681 -0.3957  0.1860
 5064SOL     OW15442   3.691   1.504   1.831 -0.1337 -0.1208 -0.2968
 5064SOL    HW115443   3.676   1.485   1.923 -0.2955 -2.2230 -0.7157
 5064SOL    HW215444   3.736   1.427   1.797 -0.1788  0.5532 -2.0137
 5065SOL     OW15445   2.226   4.041   6.273  0.3107 -0.2229 -0.1159
 5065SOL    HW115446   2.183   4.053   6.358 -0.0814  0.1047 -0.3607
 5065SOL    HW215447   2.258   4.128   6.250 -1.2121  0.1017 -1.1768
 5066SOL     OW15448   5.950   2.101   4.634 -0.2506  0.1179  0.2279
 5066SOL    HW115449   5.882   2.131   4.573 -0.1241 -1.0520 -0.5166
 5066SOL    HW215450   6.005   2.179   4.649 -0.8016  0.6523 -0.4466
 5067SOL     OW15451   0.559   3.632   2.444 -0.6943 -0.3540 -0.2004
 5067SOL    HW115452   0.503   3.675   2.379 -0.8836 -0.3120 -0.0114
 5067SOL    HW215453   0.513   3.552   2.467 -1.2272  0.2123  0.7674
 5068SOL     OW15454   4.270   0.707   3.162  0.2931  0.1724  0.2182
 5068SOL    HW115455   4.224   0.642   3.215 -0.0547  1.3934  1.4766
 5068SOL    HW215456   4.225   0.789   3.181  1.2771  0.9373 -0.6579
 5069SOL     OW15457   5.688   4.801   2.714 -0.4730  0.3680  0.5960
 5069SOL    HW115458   5.686   4.885   2.668 -0.2433  0.2053  0.2765
 5069SOL    HW215459   5.607   4.798   2.764 -0.7663  0.5218  0.1345
 5070SOL     OW15460   0.194   2.375   6.132 -0.7447  0.3898 -0.0977
 5070SOL    HW115461   0.140   2.300   6.157 -1.8661  1.5768  1.1493
 5070SOL    HW215462   0.272   2.335   6.093 -0.9991 -1.4441  1.1242
 5071SOL     OW15463   3.362   5.835   3.660  0.0622  0.0799 -0.2660
 5071SOL    HW115464   3.405   5.790   3.734 -0.5120  1.1649  0.7605
 5071SOL    HW215465   3.327   5.764   3.607 -0.6439 -0.7280  1.2133
 5072SOL     OW15466   0.211   5.146   5.795 -0.2971 -0.1317 -0.1699
 5072SOL    HW115467   0.146   5.082   5.823 -0.8968  0.4197 -0.2688
 5072SOL    HW215468   0.293   5.117   5.834 -0.4742 -1.1923 -0.5643
 5073SOL     OW15469   3.413   0.564   5.981  0.7608 -0.8955  0.2973
 5073SOL    HW115470   3.500   0.603   5.972  1.5488 -1.7116  3.1223
 5073SOL    HW215471   3.386   0.589   6.070 -1.1902 -2.0016  0.0497
 5074SOL     OW15472   3.508   2.149   2.363 -0.4783  0.5427 -0.4426
 5074SOL    HW115473   3.475   2.117   2.279  0.0729  3.7651 -2.0419
 5074SOL    HW215474   3.435   2.137   2.423 -1.2409 -0.9430 -1.5681
 5075SOL     OW15475   5.218   5.313   1.281 -0.5418 -0.0974  0.4914
 5075SOL    HW115476   5.184   5.401   1.267 -0.1146  0.0503  0.3758
 5075SOL    HW215477   5.193   5.264   1.202 -2.0888 -0.4987  1.1851
 5076SOL     OW15478   1.038   3.282   3.163 -0.0016  0.3088 -0.4456
 5076SOL    HW115479   1.003   3.328   3.239  0.6794 -1.5789  1.1089
 5076SOL    HW215480   1.103   3.222   3.199  0.8133 -0.2138 -2.6154
 5077SOL     OW15481   2.117   3.815   1.291 -0.1155 -0.9041 -0.0034
 5077SOL    HW115482   2.192   3.797   1.235 -1.4080  0.2880 -2.2776
 5077SOL    HW215483   2.062   3.874   1.239 -1.8058 -0.3492  2.2463
 5078SOL     OW15484   5.874   2.131   4.920 -0.6076 -0.0497  0.5573
 5078SOL    HW115485   5.934   2.124   4.847 -2.4142  0.6876 -1.0905
 5078SOL    HW215486   5.904   2.208   4.969  1.1888 -1.1130  1.2329
 5079SOL     OW15487   5.203   1.768   0.929  0.4598  0.3051 -0.1858
 5079SOL    HW115488   5.142   1.695   0.924  1.3453 -0.8103  2.9436
 5079SOL    HW215489   5.149   1.846   0.917 -1.2953 -0.6973  0.8172
 5080SOL     OW15490   5.978   6.293   4.154  0.4256 -0.2693  0.0061
 5080SOL    HW115491   5.986   6.388   4.159  3.5002 -0.2124 -2.5551
 5080SOL    HW215492   6.057   6.260   4.198 -0.7223 -1.7234  1.1046
 5081SOL     OW15493   0.554   0.549   0.369  0.0065  0.4437  0.2909
 5081SOL    HW115494   0.588   0.460   0.364  1.9558  1.0787  1.2544
 5081SOL    HW215495   0.632   0.604   0.382 -1.2745  2.1120  1.3959
 5082SOL     OW15496   3.664   2.077   0.390  0.4332  0.0812  0.5503
 5082SOL    HW115497   3.594   2.012   0.379  1.0275 -0.6012  0.7547
 5082SOL    HW215498   3.712   2.048   0.467  0.9121  0.5799  0.4457
 5083SOL     OW15499   4.589   4.999   1.954 -0.5550  0.1863 -0.0558
 5083SOL    HW115500   4.663   5.060   1.957 -0.4437  0.0262  2.0579
 5083SOL    HW215501   4.620   4.926   1.901  0.6101  0.3867  0.3124
 5084SOL     OW15502   2.573   2.503   5.748 -0.0495 -0.9593  0.3231
 5084SOL    HW115503   2.576   2.419   5.702 -0.7946  0.6203 -2.8506
 5084SOL    HW215504   2.489   2.502   5.794  0.3165 -2.2408  1.0095
 5085SOL     OW15505   1.452   3.583   4.237  0.0705  0.1075  0.2725
 5085SOL    HW115506   1.465   3.542   4.152 -1.0003  0.4898 -0.0909
 5085SOL    HW215507   1.358   3.601   4.241  0.1509  0.3262  1.4272
 5086SOL     OW15508   1.572   1.902   2.276 -0.2381  0.1214  0.3270
 5086SOL    HW115509   1.618   1.865   2.352 -0.4468 -0.6198  0.1000
 5086SOL    HW215510   1.611   1.989   2.264 -1.5316  1.0738  2.4798
 5087SOL     OW15511   2.171   4.444   5.972 -0.1828 -0.5426  0.6858
 5087SOL    HW115512   2.125   4.494   5.905 -0.1912 -0.0461  1.0539
 5087SOL    HW215513   2.146   4.353   5.957  0.1418 -0.4857 -0.2384
 5088SOL     OW15514   4.525   0.790   5.930  0.5834 -0.4353 -0.1699
 5088SOL    HW115515   4.536   0.794   6.025 -0.3492 -0.2258 -0.0623
 5088SOL    HW215516   4.448   0.736   5.916  0.6954 -0.4440 -0.8142
 5089SOL     OW15517   2.957   1.682   3.466  0.2540  0.8181 -0.4067
 5089SOL    HW115518   2.885   1.734   3.501 -1.0095 -1.9053  1.3651
 5089SOL    HW215519   3.036   1.724   3.501 -0.6977  1.6154  0.8414
 5090SOL     OW15520   6.048   5.519   1.500  0.1366 -0.3220 -0.4083
 5090SOL    HW115521   6.046   5.488   1.410 -3.0181 -0.4454 -0.4318
 5090SOL    HW215522   5.977   5.471   1.543  0.4979  0.9153  1.7160
 5091SOL     OW15523   4.297   3.931   1.532 -0.1043 -0.5849  0.1029
 5091SOL    HW115524   4.287   3.977   1.615  0.1944  1.0781 -0.7321
 5091SOL    HW215525   4.236   3.975   1.472  1.1870 -0.3377 -1.0929
 5092SOL     OW15526   3.167   1.807   0.983  0.1321 -0.0361 -0.1407
 5092SOL    HW115527   3.204   1.870   1.045  1.0576 -0.1823 -0.5265
 5092SOL    HW215528   3.111   1.751   1.036 -3.6929  3.2182 -0.2723
 5093SOL     OW15529   1.484   6.021   2.374  0.3812  0.1564 -0.2423
 5093SOL    HW115530   1.457   6.060   2.457 -1.8729 -0.2813 -0.7064
 5093SOL    HW215531   1.508   6.096   2.320  0.6993  0.5344  0.4100
 5094SOL     OW15532   1.090   1.534   2.056 -0.0608  0.1272 -0.5951
 5094SOL    HW115533   1.042   1.591   2.115  1.5348 -0.3083  1.2087
 5094SOL    HW215534   1.149   1.592   2.008 -0.4305  0.3185 -0.8217
 5095SOL     OW15535   5.743   4.834   3.788 -0.3096  0.2336 -0.4822
 5095SOL    HW115536   5.834   4.829   3.818 -0.2414  2.1016 -0.2715
 5095SOL    HW215537   5.714   4.743   3.786  0.2837 -0.2181  3.4089
 5096SOL     OW15538   3.041   0.378   1.004 -0.7843 -0.0460 -0.3403
 5096SOL    HW115539   3.062   0.472   1.006 -1.0038  0.0818 -2.1772
 5096SOL    HW215540   2.964   0.372   0.948 -3.2419 -0.9629  2.8467
 5097SOL     OW15541   2.575   0.772   0.955 -0.1745 -0.0461 -0.4983
 5097SOL    HW115542   2.509   0.724   1.005  0.8849 -1.9719 -0.8216
 5097SOL    HW215543   2.552   0.758   0.864  1.0892 -1.4668 -0.6424
 5098SOL     OW15544   5.401   1.493   2.527 -0.3123  0.4879  0.6577
 5098SOL    HW115545   5.482   1.496   2.476  0.7539  0.1477  2.2427
 5098SOL    HW215546   5.360   1.410   2.503  0.4703  0.0573  0.7824
 5099SOL     OW15547   3.463   1.698   2.833  0.6335 -0.5606 -0.3257
 5099SOL    HW115548   3.519   1.654   2.897  0.4215  1.2364  1.1756
 5099SOL    HW215549   3.376   1.660   2.847  0.9404 -1.5125 -0.8875
 5100SOL     OW15550   1.651   4.132   5.564  0.5096 -0.4016  0.3999
 5100SOL    HW115551   1.742   4.105   5.563  1.3600  2.1381 -0.4414
 5100SOL    HW215552   1.641   4.183   5.644  0.1406  0.1891 -0.0064
 5101SOL     OW15553   4.198   3.900   1.818 -0.3472  0.0740  0.3072
 5101SOL    HW115554   4.269   3.963   1.830  0.5918 -0.1306 -3.1146
 5101SOL    HW215555   4.234   3.816   1.848  0.4942  0.1817 -0.3594
 5102SOL     OW15556   3.894   4.162   2.662 -0.2490 -0.2673  0.2138
 5102SOL    HW115557   3.837   4.238   2.673  0.9910  0.6987  0.1581
 5102SOL    HW215558   3.892   4.117   2.746  0.1992  0.6926  0.7458
 5103SOL     OW15559   3.079   4.395   5.563  0.4823  0.0983 -0.2308
 5103SOL    HW115560   3.089   4.488   5.582 -0.0848  0.0116  0.5191
 5103SOL    HW215561   3.075   4.353   5.649  1.0161 -0.6550 -0.5625
 5104SOL     OW15562   2.075   5.154   4.718  0.4068  0.1491  0.4929
 5104SOL    HW115563   2.162   5.190   4.733  0.6274  0.1237 -0.6316
 5104SOL    HW215564   2.064   5.088   4.786 -0.0467  2.3404  2.7134
 5105SOL     OW15565   6.172   5.818   5.150  0.0493 -0.1749 -0.6848
 5105SOL    HW115566   6.250   5.821   5.205 -0.5796 -2.3736  0.4402
 5105SOL    HW215567   6.180   5.736   5.101 -0.1335  1.0164 -2.8165
 5106SOL     OW15568   5.255   2.845   0.175  0.2899 -0.0381  0.1922
 5106SOL    HW115569   5.193   2.878   0.111 -0.0627  0.2220  0.6597
 5106SOL    HW215570   5.222   2.759   0.200  0.5366 -0.2253 -0.1191
 5107SOL     OW15571   2.722   2.242   3.698  0.2683  0.0985  0.3509
 5107SOL    HW115572   2.738   2.333   3.722 -0.1556  0.1653  0.3774
 5107SOL    HW215573   2.697   2.199   3.780 -0.3740  0.1466  0.1800
 5108SOL     OW15574   2.688   3.655   5.644 -0.5792 -0.2696 -0.2011
 5108SOL    HW115575   2.676   3.738   5.598 -0.4872 -1.2524 -2.1002
 5108SOL    HW215576   2.626   3.658   5.717 -1.3961  0.9766 -0.9226
 5109SOL     OW15577   0.336   3.287   5.635  0.3868  0.2633 -0.3420
 5109SOL    HW115578   0.244   3.309   5.626  0.3717  0.4051  0.1517
 5109SOL    HW215579   0.361   3.251   5.550 -0.8043 -2.2449  0.2788
 5110SOL     OW15580   2.432   1.541   4.466 -0.0434  0.1876 -0.3930
 5110SOL    HW115581   2.472   1.454   4.468  3.6149  1.6974 -0.2523
 5110SOL    HW215582   2.392   1.551   4.552  0.7509 -0.8555  0.1148
 5111SOL     OW15583   3.420   6.320   0.215  0.4774  0.1371  0.1862
 5111SOL    HW115584   3.377   6.325   0.301  1.3680  0.3463  0.6427
 5111SOL    HW215585   3.400   6.404   0.174  0.7732  0.4033  0.5670
 5112SOL     OW15586   3.182   5.694   3.941  0.0319  0.1546  0.1317
 5112SOL    HW115587   3.272   5.689   3.907 -0.6108  0.4556 -1.6901
 5112SOL    HW215588   3.135   5.624   3.895 -0.5312 -0.4913  1.6205
 5113SOL     OW15589   3.206   2.849   0.681  0.0050 -0.0153  0.5816
 5113SOL    HW115590   3.208   2.941   0.705  0.6115  0.4698 -1.1773
 5113SOL    HW215591   3.131   2.813   0.729 -0.5414  1.4954  0.9137
 5114SOL     OW15592   0.424   0.941   1.594  0.0802 -0.0775 -0.2599
 5114SOL    HW115593   0.436   0.869   1.656 -1.3901 -0.9806 -0.9817
 5114SOL    HW215594   0.344   0.985   1.624  1.9997  2.6561  1.4400
 5115SOL     OW15595   0.806   2.481   4.840 -0.1121  0.4287  0.1683
 5115SOL    HW115596   0.758   2.423   4.900  0.7189  0.0338  0.4700
 5115SOL    HW215597   0.820   2.561   4.889  0.6552  0.0689  0.5546
 5116SOL     OW15598   3.718   3.677   4.453  0.1522 -0.5396 -0.3528
 5116SOL    HW115599   3.756   3.606   4.402  1.3548  0.0063 -0.2482
 5116SOL    HW215600   3.681   3.736   4.388 -0.0280 -0.7942 -0.4860
 5117SOL     OW15601   2.855   6.303   5.472 -0.1872  0.0078  0.4842
 5117SOL    HW115602   2.760   6.318   5.467 -0.0925  0.9155 -4.3602
 5117SOL    HW215603   2.865   6.208   5.462 -0.6443  0.0223 -0.2261
 5118SOL     OW15604   0.702   4.844   2.662  0.0992 -0.0400 -0.3819
 5118SOL    HW115605   0.737   4.926   2.697  1.9505 -0.9358  0.0048
 5118SOL    HW215606   0.609   4.848   2.681  0.2486  1.6866  0.1986
 5119SOL     OW15607   2.328   3.895   3.568 -0.2338 -0.0348 -0.2029
 5119SOL    HW115608   2.344   3.800   3.568  2.6366  0.3621 -1.1354
 5119SOL    HW215609   2.348   3.923   3.479  2.5034  1.8851  0.9068
 5120SOL     OW15610   5.412   6.128   0.972 -0.0054  0.0905 -0.1888
 5120SOL    HW115611   5.337   6.187   0.967  0.2380  0.4982  0.6826
 5120SOL    HW215612   5.372   6.041   0.979 -0.3750  0.2008 -0.8312
 5121SOL     OW15613   6.002   3.939   0.176  0.8090  0.2909 -0.6137
 5121SOL    HW115614   6.071   3.873   0.185  0.0132 -1.2187 -3.9146
 5121SOL    HW215615   6.049   4.022   0.169  2.0521 -0.2975  0.3633
 5122SOL     OW15616   4.591   5.363   0.965  0.1741  0.0658  0.5804
 5122SOL    HW115617   4.513   5.400   1.006 -0.9379  1.0493 -2.1850
 5122SOL    HW215618   4.564   5.277   0.935  0.2538  0.2461 -0.0264
 5123SOL     OW15619   0.891   2.015   0.807  0.2039 -0.5820  0.0822
 5123SOL    HW115620   0.853   2.090   0.852 -0.3234 -2.7558  3.7655
 5123SOL    HW215621   0.824   1.947   0.814  1.7326 -2.2128 -0.4382
 5124SOL     OW15622   0.581   1.901   0.501 -0.4058 -0.0624 -0.0717
 5124SOL    HW115623   0.648   1.926   0.564  0.4499 -0.7513 -0.6792
 5124SOL    HW215624   0.532   1.830   0.544 -0.5699  0.2469  0.2569
 5125SOL     OW15625   4.900   4.659   3.030 -0.7482  0.0216  0.7466
 5125SOL    HW115626   4.859   4.665   3.116 -1.3379 -1.4426  0.5945
 5125SOL    HW215627   4.881   4.570   3.000  0.4894  0.1012 -0.3793
 5126SOL     OW15628   4.652   3.492   5.286  0.1107  0.0729  0.0394
 5126SOL    HW115629   4.561   3.465   5.280 -0.8694  3.3181 -1.5104
 5126SOL    HW215630   4.697   3.438   5.220 -0.9469 -0.4891 -0.2466
 5127SOL     OW15631   0.565   2.794   1.145 -0.2315 -0.2411  0.3976
 5127SOL    HW115632   0.652   2.755   1.136 -0.1248  0.0883 -0.0368
 5127SOL    HW215633   0.563   2.863   1.079 -0.7841 -0.1742  0.4804
 5128SOL     OW15634   1.778   5.986   0.385  0.5021  0.1056  0.2813
 5128SOL    HW115635   1.812   5.965   0.298  0.1447  1.6808 -0.2716
 5128SOL    HW215636   1.813   5.917   0.441  0.8838 -0.8490 -1.0695
 5129SOL     OW15637   1.748   1.856   5.591 -0.2545 -0.2190  0.2549
 5129SOL    HW115638   1.758   1.820   5.679  0.8220  1.0897  0.7057
 5129SOL    HW215639   1.675   1.917   5.597 -1.0838 -1.1428 -0.1302
 5130SOL     OW15640   2.841   0.350   5.925 -0.1469  0.3715  0.1711
 5130SOL    HW115641   2.856   0.322   5.835  0.5301  1.6507 -0.1465
 5130SOL    HW215642   2.747   0.367   5.930 -0.0227  1.4357 -0.6718
 5131SOL     OW15643   5.203   5.751   3.802 -0.5531  0.1454 -0.1847
 5131SOL    HW115644   5.166   5.824   3.752  2.2464  0.5178 -1.9407
 5131SOL    HW215645   5.127   5.704   3.835 -2.4830  3.0635 -0.0998
 5132SOL     OW15646   3.406   1.632   5.832  0.2369 -0.2304 -0.0994
 5132SOL    HW115647   3.336   1.604   5.891  1.1084 -0.0190  1.0734
 5132SOL    HW215648   3.435   1.716   5.867  0.9481 -0.2235 -0.6779
 5133SOL     OW15649   3.557   1.490   5.372 -0.1320 -0.3018  0.2157
 5133SOL    HW115650   3.589   1.427   5.307  0.8430 -0.1255  0.5123
 5133SOL    HW215651   3.483   1.533   5.329 -0.3263 -1.1086 -0.2767
 5134SOL     OW15652   4.380   0.656   5.593 -0.0757 -0.5044 -0.2991
 5134SOL    HW115653   4.289   0.634   5.574 -0.2009  0.2156 -0.5552
 5134SOL    HW215654   4.388   0.749   5.571  0.6206 -0.4615  0.0900
 5135SOL     OW15655   0.974   2.273   4.063  0.6186  0.2125 -1.1820
 5135SOL    HW115656   1.039   2.343   4.059  1.0505 -0.1898 -1.2006
 5135SOL    HW215657   1.024   2.195   4.086 -0.2146  0.3847  1.5581
 5136SOL     OW15658   1.550   1.250   5.253 -0.5826 -0.5480 -0.3792
 5136SOL    HW115659   1.575   1.247   5.345 -0.4771 -0.9974 -0.4161
 5136SOL    HW215660   1.594   1.174   5.214 -1.0687 -0.6811 -0.6836
 5137SOL     OW15661   0.152   3.759   5.703  0.1068 -0.2532  0.1152
 5137SOL    HW115662   0.096   3.785   5.777 -1.8618  2.1413 -2.0034
 5137SOL    HW215663   0.238   3.797   5.724  0.1946 -1.3570  2.0232
 5138SOL     OW15664   1.018   1.936   1.688 -0.5285 -0.2885  0.3933
 5138SOL    HW115665   1.078   1.863   1.703  0.0964 -0.0248 -0.7625
 5138SOL    HW215666   1.057   1.986   1.617 -0.9487  1.1915  1.1500
 5139SOL     OW15667   2.795   2.900   1.253 -0.4532 -0.0238  0.8003
 5139SOL    HW115668   2.807   2.995   1.245 -1.5858 -0.0202 -2.0420
 5139SOL    HW215669   2.701   2.888   1.261 -0.6588 -0.9089 -1.7552
 5140SOL     OW15670   1.191   3.925   3.303 -0.3723 -0.6100 -0.2022
 5140SOL    HW115671   1.130   3.991   3.338 -1.7500 -1.3330 -1.1279
 5140SOL    HW215672   1.246   3.974   3.242  1.1475  0.3881  1.8584
 5141SOL     OW15673   0.494   5.584   3.075 -0.4594 -0.0969 -0.3415
 5141SOL    HW115674   0.432   5.512   3.068 -1.8039  1.0219 -0.3656
 5141SOL    HW215675   0.579   5.542   3.084 -1.2640 -1.6802  0.1696
 5142SOL     OW15676   5.692   5.504   1.500 -0.4307 -0.0921 -0.9175
 5142SOL    HW115677   5.603   5.538   1.489 -0.3870 -0.0638 -1.1824
 5142SOL    HW215678   5.686   5.446   1.576 -0.1474  1.8494  0.7027
 5143SOL     OW15679   3.053   3.921   2.326 -0.2855  0.5631 -0.6698
 5143SOL    HW115680   3.066   3.965   2.242  1.0578 -1.5778 -1.6600
 5143SOL    HW215681   2.988   3.853   2.308  0.7522 -0.5781 -0.2812
 5144SOL     OW15682   4.354   5.502   2.590  0.5381 -0.4847 -0.1967
 5144SOL    HW115683   4.333   5.454   2.670 -0.3314 -1.0570 -0.7592
 5144SOL    HW215684   4.447   5.482   2.575  0.6637 -0.5204  0.5571
 5145SOL     OW15685   5.997   2.006   3.442 -0.2548 -0.3967 -0.1924
 5145SOL    HW115686   6.042   2.010   3.526 -2.2579  2.6344  0.9020
 5145SOL    HW215687   6.056   2.049   3.381  0.1088 -0.2762  0.2340
 5146SOL     OW15688   5.877   3.378   3.307 -0.2550  0.5049  0.1364
 5146SOL    HW115689   5.828   3.372   3.389  0.1098  0.2016  0.3367
 5146SOL    HW215690   5.867   3.469   3.280 -0.9991  0.4273  0.1246
 5147SOL     OW15691   0.580   5.200   0.958  0.6518 -0.0792  0.2894
 5147SOL    HW115692   0.578   5.222   1.051  0.7665 -0.9549  0.5126
 5147SOL    HW215693   0.673   5.201   0.935  0.4956  4.1960 -0.8774
 5148SOL     OW15694   6.238   1.245   1.822  0.4639 -0.2194  0.2112
 5148SOL    HW115695   6.250   1.177   1.889  1.8967 -1.2080 -0.9806
 5148SOL    HW215696   6.238   1.196   1.739 -1.1380  0.9809 -0.5482
 5149SOL     OW15697   2.629   2.094   4.735 -0.5883  0.3895  0.5766
 5149SOL    HW115698   2.602   2.162   4.673 -0.2842  0.2076  0.2394
 5149SOL    HW215699   2.717   2.118   4.761 -0.4841  0.1369  0.4662
 5150SOL     OW15700   3.015   4.231   5.834 -0.1683 -0.0417  0.1592
 5150SOL    HW115701   2.995   4.296   5.902 -0.2125  1.5470 -1.3041
 5150SOL    HW215702   2.930   4.215   5.792  0.2222  0.6780 -0.9312
 5151SOL     OW15703   3.681   4.881   3.126  0.4021  0.6426 -0.3110
 5151SOL    HW115704   3.742   4.815   3.095  0.1315 -0.6757  1.7639
 5151SOL    HW215705   3.616   4.888   3.056  0.9781 -0.5786 -0.9980
 5152SOL     OW15706   0.204   1.737   0.312 -0.3950 -0.0970 -0.4094
 5152SOL    HW115707   0.224   1.689   0.392 -2.9367 -0.3882  0.1232
 5152SOL    HW215708   0.201   1.829   0.339 -1.2499 -0.1950 -0.1458
 5153SOL     OW15709   0.138   2.442   1.581 -0.0505 -0.2222 -0.1914
 5153SOL    HW115710   0.145   2.524   1.533  0.9278 -0.4051 -0.3938
 5153SOL    HW215711   0.049   2.412   1.566 -0.1881  0.4365 -0.7159
 5154SOL     OW15712   3.398   1.148   4.445 -0.2836  0.1818 -0.0133
 5154SOL    HW115713   3.442   1.167   4.529 -0.2859 -2.1130  0.5674
 5154SOL    HW215714   3.315   1.109   4.471  0.3313 -1.9331 -1.0216
 5155SOL     OW15715   5.780   0.781   5.055  0.0135  0.3622 -0.3883
 5155SOL    HW115716   5.857   0.769   5.111 -1.2965 -0.1534  1.4116
 5155SOL    HW215717   5.754   0.872   5.069 -0.2326  0.2735 -0.2610
 5156SOL     OW15718   6.053   2.640   5.796  0.3689  0.1133  0.4244
 5156SOL    HW115719   6.115   2.677   5.859  0.7247 -0.0061  0.1469
 5156SOL    HW215720   6.085   2.551   5.780 -0.5306 -0.3605  1.1497
 5157SOL     OW15721   5.603   5.725   3.695  0.0153  0.2136  0.0797
 5157SOL    HW115722   5.624   5.804   3.645 -2.2708  1.5055  1.0085
 5157SOL    HW215723   5.522   5.693   3.656  1.0959 -1.9503 -0.5130
 5158SOL     OW15724   5.470   2.350   0.534  0.3872  0.1959 -0.0748
 5158SOL    HW115725   5.439   2.324   0.621  0.1353  0.3960 -0.1065
 5158SOL    HW215726   5.404   2.317   0.474  1.4083 -1.5015 -0.3533
 5159SOL     OW15727   6.308   2.958   3.844 -0.3890  0.4210 -0.0636
 5159SOL    HW115728   6.293   2.915   3.928 -0.1460  0.2319 -0.1159
 5159SOL    HW215729   6.292   2.889   3.779  2.6624 -0.4101 -0.0770
 5160SOL     OW15730   4.792   5.959   3.811  0.3602 -0.4465 -0.1808
 5160SOL    HW115731   4.720   6.013   3.777  0.0956 -0.3304  0.5619
 5160SOL    HW215732   4.821   6.004   3.890  0.7977 -0.8642 -0.0983
 5161SOL     OW15733   1.412   5.269   5.066 -0.2960 -0.6372  0.0357
 5161SOL    HW115734   1.471   5.288   4.993  0.4899  0.9685  1.0283
 5161SOL    HW215735   1.430   5.338   5.131 -2.1435 -1.0241  1.0533
 5162SOL     OW15736   0.407   0.482   2.148 -0.1423 -0.0257 -0.3186
 5162SOL    HW115737   0.413   0.577   2.137 -0.9143  0.0689  0.0087
 5162SOL    HW215738   0.386   0.469   2.241 -2.6679 -0.3522 -0.8389
 5163SOL     OW15739   1.099   5.363   1.981  0.7855 -0.6358  0.2002
 5163SOL    HW115740   1.008   5.392   1.977  0.8252 -0.6503 -1.3042
 5163SOL    HW215741   1.116   5.350   2.075 -1.0913 -1.6899  0.4457
 5164SOL     OW15742   6.033   4.985   2.606 -0.4040 -0.2077 -0.0384
 5164SOL    HW115743   6.009   4.943   2.523  0.0039  1.5292 -1.0824
 5164SOL    HW215744   5.982   4.938   2.672  0.5730 -2.8281 -0.9873
 5165SOL     OW15745   1.327   1.131   5.822  0.3197  0.0265 -0.0664
 5165SOL    HW115746   1.266   1.204   5.807 -1.0176 -0.7161  1.4027
 5165SOL    HW215747   1.270   1.056   5.841  1.6892 -1.1034 -0.2704
 5166SOL     OW15748   4.608   0.485   5.930 -0.0506 -0.2891 -0.3528
 5166SOL    HW115749   4.670   0.486   5.857  1.2136  1.0772  0.6841
 5166SOL    HW215750   4.649   0.539   5.998 -1.2080 -1.4539  1.3696
 5167SOL     OW15751   2.966   1.276   2.836 -0.1388 -0.5541 -0.2171
 5167SOL    HW115752   2.910   1.316   2.902 -0.1133  0.5099 -0.8264
 5167SOL    HW215753   2.967   1.339   2.764  1.8035 -0.5743 -0.2453
 5168SOL     OW15754   0.314   2.996   6.222 -0.5474 -0.3034 -0.3158
 5168SOL    HW115755   0.221   2.979   6.235 -0.7086 -0.3217 -1.4567
 5168SOL    HW215756   0.317   3.065   6.156  0.2599 -0.8271 -0.8471
 5169SOL     OW15757   2.261   2.271   5.614 -0.0962 -0.4274  0.0105
 5169SOL    HW115758   2.274   2.292   5.707 -0.7888  0.2962 -0.0498
 5169SOL    HW215759   2.350   2.269   5.579  0.1528 -0.2556  0.5995
 5170SOL     OW15760   3.157   4.773   0.630 -0.3665 -0.1672  0.0786
 5170SOL    HW115761   3.172   4.799   0.540 -1.9478 -0.2899 -0.2435
 5170SOL    HW215762   3.182   4.850   0.682  2.9552 -0.9093 -0.2014
 5171SOL     OW15763   6.097   5.685   4.772  0.1418  0.2752  0.8017
 5171SOL    HW115764   6.156   5.673   4.847  0.9330 -2.0623 -0.1040
 5171SOL    HW215765   6.148   5.735   4.708  0.2132  0.4554  0.9986
 5172SOL     OW15766   3.276   4.734   5.567 -0.2568  0.0957  0.3442
 5172SOL    HW115767   3.183   4.727   5.589 -0.3096 -2.6099 -0.3498
 5172SOL    HW215768   3.285   4.821   5.528 -2.5827  0.2906  0.0829
 5173SOL     OW15769   3.900   2.929   6.254 -0.3633  0.1055 -0.1336
 5173SOL    HW115770   3.814   2.898   6.281  0.1546 -1.4035 -0.1313
 5173SOL    HW215771   3.950   2.937   6.335 -0.4506  0.8422 -0.1474
 5174SOL     OW15772   4.011   5.110   0.857 -0.2505  0.2680 -0.0454
 5174SOL    HW115773   3.945   5.137   0.921  0.1497 -0.7216  0.8193
 5174SOL    HW215774   4.066   5.047   0.905  1.0219  0.6955 -0.8817
 5175SOL     OW15775   4.697   4.688   2.500 -0.1153  0.1052 -0.1129
 5175SOL    HW115776   4.733   4.654   2.418  0.4264  2.4876 -0.9536
 5175SOL    HW215777   4.729   4.628   2.567  1.3686 -0.6158 -1.4061
 5176SOL     OW15778   0.378   0.669   5.265 -0.2674  0.7753  0.4758
 5176SOL    HW115779   0.415   0.733   5.205  0.8970 -0.6793 -0.4346
 5176SOL    HW215780   0.328   0.610   5.210  1.2872 -0.9208  0.7676
 5177SOL     OW15781   3.794   5.614   0.167 -0.1462  0.9018 -0.6949
 5177SOL    HW115782   3.824   5.528   0.135 -0.1149  0.1117  1.3191
 5177SOL    HW215783   3.809   5.673   0.093 -0.7906 -0.9361 -2.3923
 5178SOL     OW15784   4.470   3.758   1.440  0.0884 -0.4710  0.0698
 5178SOL    HW115785   4.409   3.818   1.483 -0.3418 -2.1814  1.9507
 5178SOL    HW215786   4.536   3.816   1.401 -0.5130  1.2413  1.4572
 5179SOL     OW15787   0.681   1.884   6.209  0.5167 -0.5005  0.1221
 5179SOL    HW115788   0.756   1.904   6.265  0.6812 -2.1733  0.5652
 5179SOL    HW215789   0.680   1.954   6.143  2.4093 -0.3923  0.1537
 5180SOL     OW15790   3.263   2.212   0.784 -0.1505  0.0311  0.1023
 5180SOL    HW115791   3.277   2.282   0.720  0.3863 -0.4677 -0.3314
 5180SOL    HW215792   3.186   2.240   0.834 -0.4452  0.5221 -0.6209
 5181SOL     OW15793   6.083   1.861   5.512  0.5148  0.5161  0.7491
 5181SOL    HW115794   6.119   1.939   5.470  1.8425 -0.5350 -0.1417
 5181SOL    HW215795   5.993   1.857   5.482  0.2898  1.9280  1.1580
 5182SOL     OW15796   1.364   4.695   2.912  0.0434  0.6076  0.5625
 5182SOL    HW115797   1.442   4.650   2.944 -0.9109 -1.5393  0.0657
 5182SOL    HW215798   1.361   4.776   2.963  2.0836  0.3375  1.2140
 5183SOL     OW15799   0.283   1.854   5.461  0.1095  0.5493 -0.0605
 5183SOL    HW115800   0.333   1.772   5.456  1.1159  1.1740 -0.5245
 5183SOL    HW215801   0.349   1.923   5.463 -0.7294  1.4239 -1.1282
 5184SOL     OW15802   0.988   0.183   3.199 -0.2171  0.0942  0.0323
 5184SOL    HW115803   0.962   0.242   3.270 -0.6160 -1.6564  1.4163
 5184SOL    HW215804   0.934   0.106   3.211 -0.6407 -0.0886 -2.5268
 5185SOL     OW15805   0.101   4.087   2.222  0.3450  0.1589 -0.0273
 5185SOL    HW115806   0.194   4.074   2.243 -0.0574 -0.2908  1.5577
 5185SOL    HW215807   0.090   4.182   2.223  0.7640  0.2110 -0.1255
 5186SOL     OW15808   3.541   2.398   1.488  0.3796 -0.3395 -0.3976
 5186SOL    HW115809   3.527   2.303   1.489  0.4205 -0.3404  0.6099
 5186SOL    HW215810   3.497   2.430   1.567 -1.3750  0.7460 -1.7362
 5187SOL     OW15811   3.840   6.346   4.976 -0.0145 -0.4016 -0.5823
 5187SOL    HW115812   3.899   6.379   4.908 -1.1589  1.2499 -0.8371
 5187SOL    HW215813   3.774   6.415   4.987 -1.5682 -1.9055  0.1094
 5188SOL     OW15814   5.898   3.364   3.810 -0.5134 -0.1213  0.0412
 5188SOL    HW115815   5.870   3.453   3.833 -1.8342 -0.5873  0.3355
 5188SOL    HW215816   5.927   3.326   3.893  2.3263  0.7541 -0.4448
 5189SOL     OW15817   2.965   1.444   1.891 -0.7780  0.1744 -0.3255
 5189SOL    HW115818   2.915   1.430   1.811  0.2748  2.9034 -1.6000
 5189SOL    HW215819   3.041   1.495   1.863  0.6602 -0.4341  2.1433
 5190SOL     OW15820   3.384   5.897   2.380 -0.1712 -0.6130 -0.1250
 5190SOL    HW115821   3.332   5.955   2.324 -2.7423 -2.9099 -0.2936
 5190SOL    HW215822   3.345   5.906   2.467  2.0772  0.8863  0.8350
 5191SOL     OW15823   2.845   5.700   1.565 -0.6676 -0.5023  0.1492
 5191SOL    HW115824   2.761   5.663   1.593 -0.6606  0.4449  1.5250
 5191SOL    HW215825   2.822   5.784   1.525 -0.3827 -0.1447  0.7166
 5192SOL     OW15826   0.699   4.329   5.759 -0.4248  0.5011  0.0269
 5192SOL    HW115827   0.674   4.291   5.844  0.8066  0.2349  0.2824
 5192SOL    HW215828   0.775   4.383   5.778 -0.1771  0.4940 -0.9105
 5193SOL     OW15829   2.044   2.124   5.587 -0.1352 -0.3970  0.1405
 5193SOL    HW115830   2.122   2.179   5.580  1.3745 -2.3682  0.6449
 5193SOL    HW215831   2.020   2.129   5.679  0.2798 -0.9240  0.2808
 5194SOL     OW15832   3.777   1.143   3.796  0.2624 -0.0647 -0.7706
 5194SOL    HW115833   3.784   1.224   3.746 -1.9670  0.0780 -0.9602
 5194SOL    HW215834   3.703   1.157   3.855 -0.0330 -1.8685 -0.6459
 5195SOL     OW15835   4.594   2.939   1.822  0.4195 -0.1968  0.3039
 5195SOL    HW115836   4.577   2.967   1.913  0.2740  0.1814  0.1642
 5195SOL    HW215837   4.689   2.933   1.817  0.6620  2.6653 -0.3153
 5196SOL     OW15838   5.689   2.594   4.449  0.1187 -0.5118  0.2523
 5196SOL    HW115839   5.635   2.598   4.528  2.2025  0.5114  1.7089
 5196SOL    HW215840   5.771   2.637   4.473  0.8931 -0.2716 -2.4476
 5197SOL     OW15841   0.008   4.367   2.775 -0.3592 -0.6027  0.4306
 5197SOL    HW115842   0.084   4.406   2.820 -0.3655 -2.3226  2.0584
 5197SOL    HW215843   0.045   4.320   2.701 -0.0054 -0.2599  0.3842
 5198SOL     OW15844   1.075   5.654   0.454 -0.3035 -0.4651 -0.3362
 5198SOL    HW115845   1.066   5.736   0.405 -0.8750 -0.1154  0.3383
 5198SOL    HW215846   0.986   5.625   0.470 -0.1202 -2.2331 -2.1674
 5199SOL     OW15847   1.149   4.576   4.106 -0.0594 -0.4110 -0.0657
 5199SOL    HW115848   1.187   4.496   4.142  0.3256 -0.3125 -0.2531
 5199SOL    HW215849   1.087   4.545   4.039 -0.1633 -0.5625  0.1012
 5200SOL     OW15850   2.182   3.933   0.526  0.6202  0.0445 -0.0198
 5200SOL    HW115851   2.185   4.025   0.498  0.3739 -0.1838 -0.8207
 5200SOL    HW215852   2.089   3.914   0.535  0.7002  0.1603  1.1402
 5201SOL     OW15853   2.039   0.372   1.432  0.0372 -0.3573 -0.1885
 5201SOL    HW115854   2.111   0.403   1.378 -0.1990 -0.6744 -0.6920
 5201SOL    HW215855   2.077   0.301   1.484  1.0468  1.8152  2.2478
 5202SOL     OW15856   1.015   0.797   1.197 -0.2167  0.0135 -0.0977
 5202SOL    HW115857   1.038   0.786   1.289 -0.9819  1.7912  0.3635
 5202SOL    HW215858   1.094   0.773   1.149  0.2358 -0.8156  1.0294
 5203SOL     OW15859   1.694   2.758   2.508  0.2815 -0.1350  0.7703
 5203SOL    HW115860   1.643   2.734   2.586  0.3269  2.0783  1.5444
 5203SOL    HW215861   1.771   2.701   2.512  0.1913 -0.1975  2.2519
 5204SOL     OW15862   3.213   0.737   2.621  0.0915 -0.0679  0.7366
 5204SOL    HW115863   3.149   0.744   2.692 -0.1315 -0.7702  0.6077
 5204SOL    HW215864   3.164   0.762   2.543  0.1152 -0.1195  0.7057
 5205SOL     OW15865   3.545   3.781   3.251 -0.1589  0.2923 -0.0685
 5205SOL    HW115866   3.499   3.857   3.216  0.5102  0.3659 -0.8052
 5205SOL    HW215867   3.556   3.801   3.344 -1.0038  0.5754 -0.0181
 5206SOL     OW15868   4.129   0.166   1.683 -0.1391  0.2257  0.3983
 5206SOL    HW115869   4.105   0.121   1.764  0.4771  0.6813  0.8428
 5206SOL    HW215870   4.127   0.097   1.616  0.6435 -0.4428  1.0406
 5207SOL     OW15871   4.655   3.630   2.828 -0.3742 -0.0729  0.1618
 5207SOL    HW115872   4.697   3.548   2.854 -0.4432  0.0041  0.5209
 5207SOL    HW215873   4.643   3.678   2.910 -0.2118  0.3547 -0.0631
 5208SOL     OW15874   4.804   2.413   4.874  0.1496  0.1273  0.4963
 5208SOL    HW115875   4.837   2.384   4.789  1.3111 -0.3528  1.0853
 5208SOL    HW215876   4.872   2.472   4.907 -0.5952  0.8264  0.8275
 5209SOL     OW15877   3.978   5.805   2.786  0.1022  0.5404 -0.1474
 5209SOL    HW115878   3.991   5.727   2.839 -0.1145 -1.3397 -2.6630
 5209SOL    HW215879   3.901   5.848   2.824 -0.7431 -1.3402  0.3733
 5210SOL     OW15880   2.189   1.375   4.219  0.0612  0.2229  0.1761
 5210SOL    HW115881   2.204   1.456   4.171  0.2092 -0.1140 -0.3537
 5210SOL    HW215882   2.126   1.327   4.166 -0.8795  0.4636  1.0444
 5211SOL     OW15883   2.151   6.104   4.432 -0.2054  0.2852 -0.0273
 5211SOL    HW115884   2.216   6.042   4.400 -1.2061 -0.6684 -0.3093
 5211SOL    HW215885   2.197   6.158   4.496  1.1137  0.3637 -1.0209
 5212SOL     OW15886   3.452   2.966   0.366  0.2390 -0.2953 -0.1452
 5212SOL    HW115887   3.414   2.949   0.279 -0.9561 -1.1185  0.5131
 5212SOL    HW215888   3.443   2.884   0.413 -0.1965  0.4568  1.1396
 5213SOL     OW15889   3.767   5.069   5.466  0.0251  0.4794 -0.4214
 5213SOL    HW115890   3.856   5.097   5.487 -0.6708  2.4195  0.1843
 5213SOL    HW215891   3.779   4.999   5.402  1.9784  1.6571 -1.4598
 5214SOL     OW15892   4.765   0.942   5.915  0.3105 -0.1885  0.2142
 5214SOL    HW115893   4.688   0.885   5.917 -0.8157  1.2718  0.3416
 5214SOL    HW215894   4.829   0.894   5.863 -0.6715 -1.4566  0.1210
 5215SOL     OW15895   1.220   2.402   0.443  0.0060 -0.3383 -0.4827
 5215SOL    HW115896   1.284   2.471   0.426  0.1717  0.3660  2.4822
 5215SOL    HW215897   1.138   2.448   0.459 -1.0717 -1.1787 -3.0519
 5216SOL     OW15898   3.136   4.174   1.867 -0.3181 -0.4658  0.6729
 5216SOL    HW115899   3.221   4.194   1.828  0.3853 -1.2394  1.7569
 5216SOL    HW215900   3.081   4.249   1.846  1.1969  0.9591  1.6352
 5217SOL     OW15901   2.069   0.378   1.885  0.4285  0.0347 -0.3652
 5217SOL    HW115902   2.091   0.463   1.848 -0.0327 -0.4679 -1.9022
 5217SOL    HW215903   2.037   0.327   1.810  0.1539 -1.3030  0.6161
 5218SOL     OW15904   2.820   3.376   1.506  0.2119  0.4217  0.3444
 5218SOL    HW115905   2.876   3.404   1.578 -1.0428  0.3559  1.3898
 5218SOL    HW215906   2.803   3.456   1.455 -0.8963  1.0138  1.5767
 5219SOL     OW15907   3.027   5.609   0.198 -0.2932  0.0413 -0.3552
 5219SOL    HW115908   3.091   5.580   0.133  0.2231  0.5435 -0.0821
 5219SOL    HW215909   3.040   5.703   0.204 -0.7367  0.0809  0.0506
 5220SOL     OW15910   2.271   4.927   5.487 -0.0773  0.4623 -0.5040
 5220SOL    HW115911   2.220   4.996   5.445 -0.7145 -0.3789 -1.1439
 5220SOL    HW215912   2.264   4.852   5.427 -1.4835 -0.9718  1.3283
 5221SOL     OW15913   4.853   0.207   4.501 -0.0516  0.1704  0.1309
 5221SOL    HW115914   4.828   0.140   4.566 -0.6963 -0.9887 -1.2583
 5221SOL    HW215915   4.924   0.166   4.452  0.9258  1.3257  0.5336
 5222SOL     OW15916   5.156   5.069   0.758 -0.6066  0.0202  0.2240
 5222SOL    HW115917   5.244   5.096   0.731 -0.8255  0.4902 -0.0444
 5222SOL    HW215918   5.169   5.019   0.838  0.1218 -1.9598 -1.0640
 5223SOL     OW15919   2.626   2.478   0.289 -0.0224  0.1584  0.0555
 5223SOL    HW115920   2.545   2.440   0.256  0.0320 -1.0362  1.2270
 5223SOL    HW215921   2.640   2.555   0.234 -2.8634  1.4210  0.9004
 5224SOL     OW15922   2.715   3.740   4.266  0.4356 -0.4213 -0.0847
 5224SOL    HW115923   2.763   3.789   4.333  1.1030 -0.1616 -0.7471
 5224SOL    HW215924   2.774   3.737   4.191  0.4300 -2.2603 -0.0667
 5225SOL     OW15925   4.655   1.504   6.240  0.0816  0.2971  1.0966
 5225SOL    HW115926   4.674   1.410   6.239 -0.6736  0.1414  0.2016
 5225SOL    HW215927   4.741   1.546   6.237  0.3997 -0.3680  0.8556
 5226SOL     OW15928   4.677   1.427   0.985  0.7219 -0.5216  0.1348
 5226SOL    HW115929   4.693   1.497   0.921 -1.2325 -0.0508  0.0959
 5226SOL    HW215930   4.672   1.472   1.069 -1.1446 -0.4627  0.0419
 5227SOL     OW15931   0.766   5.165   2.670  0.1073  0.0585 -0.1018
 5227SOL    HW115932   0.821   5.153   2.593  0.2737  0.5079 -0.0574
 5227SOL    HW215933   0.819   5.218   2.729  0.0629 -0.4627  0.4148
 5228SOL     OW15934   2.022   4.365   4.702 -0.1799 -0.2728 -0.2392
 5228SOL    HW115935   1.967   4.293   4.671 -0.5538  0.4271 -1.2700
 5228SOL    HW215936   2.004   4.371   4.796  0.5179 -2.0613  0.0390
 5229SOL     OW15937   5.951   5.667   3.319 -0.4427  0.3625 -0.1356
 5229SOL    HW115938   5.879   5.627   3.369 -0.3486  0.2216 -0.1126
 5229SOL    HW215939   5.963   5.753   3.358 -0.2879  0.2059  0.1631
 5230SOL     OW15940   5.036   0.864   0.939 -0.1623 -0.3664  0.0994
 5230SOL    HW115941   5.110   0.906   0.895  1.0655 -1.4642  1.0230
 5230SOL    HW215942   5.021   0.917   1.017 -1.0088  0.4054 -0.5633
 5231SOL     OW15943   0.386   6.273   0.673  0.0859 -0.2961 -0.7394
 5231SOL    HW115944   0.382   6.367   0.690 -0.1929 -0.2895 -0.8241
 5231SOL    HW215945   0.466   6.261   0.622  0.7914 -0.2877  0.3527
 5232SOL     OW15946   4.316   3.658   2.975 -0.5090  0.5023 -0.2653
 5232SOL    HW115947   4.266   3.735   3.000 -0.8266  1.2950 -3.0906
 5232SOL    HW215948   4.250   3.590   2.962 -0.2428 -0.2746  2.0542
 5233SOL     OW15949   2.606   1.169   0.775 -0.0201 -0.0989 -0.0235
 5233SOL    HW115950   2.523   1.124   0.787  0.4127 -0.9643 -0.1937
 5233SOL    HW215951   2.672   1.103   0.796  0.7153 -0.4584 -3.0266
 5234SOL     OW15952   3.010   1.597   6.142  0.3574  0.4353 -0.3767
 5234SOL    HW115953   2.955   1.668   6.112 -1.8072 -1.2561 -0.6712
 5234SOL    HW215954   2.991   1.589   6.236 -1.0867 -1.0490 -0.7447
 5235SOL     OW15955   4.998   2.583   4.980 -0.0384  0.2340 -0.2414
 5235SOL    HW115956   5.035   2.513   5.033  1.6110  0.4075 -1.0949
 5235SOL    HW215957   4.976   2.652   5.043  0.0082 -0.3302  0.4028
 5236SOL     OW15958   0.691   3.253   4.077 -0.6226 -0.1132 -0.1357
 5236SOL    HW115959   0.692   3.279   4.169  1.0153 -3.0754  0.8177
 5236SOL    HW215960   0.735   3.324   4.031 -0.0048  0.6897  1.6348
 5237SOL     OW15961   1.951   2.004   6.075 -0.0618 -0.5243 -0.5573
 5237SOL    HW115962   1.900   1.977   6.152 -0.0940 -0.7991 -0.6743
 5237SOL    HW215963   1.999   1.926   6.049  2.0257  0.2541  0.7682
 5238SOL     OW15964   5.285   1.048   3.169 -0.2167 -0.1610  0.3551
 5238SOL    HW115965   5.237   1.131   3.178 -2.3720 -0.5882 -4.1318
 5238SOL    HW215966   5.371   1.074   3.136 -0.4284  0.3723  0.1999
 5239SOL     OW15967   5.216   5.169   2.236  0.0772  0.2908  0.4415
 5239SOL    HW115968   5.206   5.227   2.312  2.3406 -0.7015  1.5935
 5239SOL    HW215969   5.182   5.084   2.266  1.7724 -0.3264  0.6948
 5240SOL     OW15970   3.114   5.243   5.305 -0.7115 -0.6921  0.1219
 5240SOL    HW115971   3.102   5.159   5.349  2.0531 -1.2720 -0.0447
 5240SOL    HW215972   3.182   5.227   5.240 -1.1911  1.3393 -0.9779
 5241SOL     OW15973   1.050   6.083   5.478 -0.5366  0.1785  0.2421
 5241SOL    HW115974   1.115   6.125   5.422 -0.0551  0.5484  1.0771
 5241SOL    HW215975   1.067   5.989   5.467 -1.0105  0.2111 -0.8945
 5242SOL     OW15976   2.365   1.701   5.828  0.4054  0.3224  0.2481
 5242SOL    HW115977   2.277   1.669   5.807  1.0724 -1.4592  0.0109
 5242SOL    HW215978   2.415   1.687   5.748  0.8789  1.5032  0.3226
 5243SOL     OW15979   5.323   1.393   0.948 -0.0746  0.1280 -0.0597
 5243SOL    HW115980   5.242   1.385   0.897  0.2206  0.5520 -0.6169
 5243SOL    HW215981   5.298   1.367   1.037 -0.5778 -0.7245 -0.4351
 5244SOL     OW15982   2.184   6.297   4.201 -0.5257 -0.9265  0.1714
 5244SOL    HW115983   2.149   6.264   4.283 -0.0043 -0.8189  0.4440
 5244SOL    HW215984   2.213   6.386   4.222 -0.7166 -0.7712 -0.2199
 5245SOL     OW15985   2.435   1.053   0.519 -0.2659  0.7912 -0.0768
 5245SOL    HW115986   2.389   1.047   0.602 -0.5440 -1.2234 -0.3377
 5245SOL    HW215987   2.523   1.022   0.538 -0.7949 -1.3755 -0.8107
 5246SOL     OW15988   3.024   0.994   4.906 -0.6701  0.1170 -0.2363
 5246SOL    HW115989   3.052   0.904   4.887  2.5499  0.4350  2.2418
 5246SOL    HW215990   3.087   1.049   4.862  0.1556  1.0015  1.9115
 5247SOL     OW15991   1.260   5.642   4.601  0.5082  0.3900  0.8868
 5247SOL    HW115992   1.273   5.670   4.510 -1.7665 -0.9698  0.0707
 5247SOL    HW215993   1.280   5.719   4.653  1.6843  1.2606 -0.7645
 5248SOL     OW15994   1.978   4.023   2.569  0.3355  0.2503 -0.0352
 5248SOL    HW115995   1.936   4.109   2.569  0.4591  0.3140 -0.6466
 5248SOL    HW215996   2.039   4.026   2.495 -0.5167 -0.7727 -0.8052
 5249SOL     OW15997   4.653   0.681   0.279  0.1525  0.3665 -0.2108
 5249SOL    HW115998   4.562   0.655   0.294  0.7773 -1.5377  0.6223
 5249SOL    HW215999   4.674   0.741   0.350 -0.3882  0.6856 -0.3141
 5250SOL     OW16000   6.192   5.879   3.961 -0.6039  0.0069  0.1497
 5250SOL    HW116001   6.232   5.966   3.956 -1.0717  0.1740 -0.8149
 5250SOL    HW216002   6.115   5.884   3.904  0.2611 -1.5226 -1.2522
 5251SOL     OW16003   4.069   2.358   3.356 -0.0363  0.0102 -0.2999
 5251SOL    HW116004   4.053   2.451   3.375 -2.0491 -0.3051 -0.1689
 5251SOL    HW216005   4.157   2.341   3.388 -0.8495  1.0815  2.8487
 5252SOL     OW16006   5.139   5.876   2.940 -0.6563 -0.0205  0.0816
 5252SOL    HW116007   5.049   5.843   2.929 -0.0533 -2.0988  0.9790
 5252SOL    HW216008   5.182   5.854   2.857  0.3026 -3.6941  1.3327
 5253SOL     OW16009   3.460   4.945   5.063 -0.2539  0.1952 -0.4266
 5253SOL    HW116010   3.541   4.926   5.111 -1.4248  1.7213  2.3846
 5253SOL    HW216011   3.484   4.933   4.971  2.5518 -1.5034  0.3888
 5254SOL     OW16012   5.511   0.097   3.691  0.0847 -0.1122 -0.3716
 5254SOL    HW116013   5.459   0.152   3.632  0.5324 -2.8136 -3.5836
 5254SOL    HW216014   5.601   0.129   3.680 -0.0276  0.4589  0.2490
 5255SOL     OW16015   3.895   2.797   2.033 -0.3060 -0.3129  0.2407
 5255SOL    HW116016   3.893   2.876   1.980 -1.6524 -0.3318  0.2268
 5255SOL    HW216017   3.986   2.789   2.061  0.1931  0.3328 -1.0944
 5256SOL     OW16018   4.014   4.583   2.455 -0.7124  0.4278 -0.9809
 5256SOL    HW116019   3.937   4.625   2.416  0.6069  0.8433 -3.3207
 5256SOL    HW216020   3.989   4.491   2.463 -1.0236  0.2899 -3.0374
 5257SOL     OW16021   0.094   0.883   5.503 -0.3143 -0.2488 -0.2947
 5257SOL    HW116022   0.006   0.906   5.532 -0.7380 -1.3399 -0.6550
 5257SOL    HW216023   0.105   0.791   5.530  1.0102  0.0935  0.4476
 5258SOL     OW16024   6.288   5.531   2.531  0.1917  0.1155 -0.1190
 5258SOL    HW116025   6.330   5.490   2.455  0.7788  0.6203 -0.0720
 5258SOL    HW216026   6.204   5.562   2.498  0.5839  0.6260 -0.6515
 5259SOL     OW16027   0.714   5.265   2.271 -0.4896 -0.0484  0.0705
 5259SOL    HW116028   0.758   5.220   2.199 -0.2025 -0.1148  0.2849
 5259SOL    HW216029   0.625   5.230   2.269 -0.5461  0.1140 -0.3882
 5260SOL     OW16030   2.692   1.959   5.986 -0.1742 -0.1039  0.4666
 5260SOL    HW116031   2.630   1.905   6.036 -1.2202 -1.1354 -1.7839
 5260SOL    HW216032   2.657   2.048   5.992 -1.9398 -0.6637 -0.7579
 5261SOL     OW16033   3.088   2.282   0.966 -0.1553  0.2881 -0.7447
 5261SOL    HW116034   3.007   2.325   0.938 -1.5440 -1.3325  0.6052
 5261SOL    HW216035   3.062   2.227   1.040  1.6947 -2.2053 -1.8145
 5262SOL     OW16036   1.346   3.325   0.743  0.1255  0.2221  0.0202
 5262SOL    HW116037   1.390   3.243   0.720  3.3811  1.0293  2.6652
 5262SOL    HW216038   1.372   3.387   0.675  0.4797 -0.1127 -0.1508
 5263SOL     OW16039   3.061   4.015   5.530 -0.4657  0.9857 -0.6845
 5263SOL    HW116040   3.087   3.923   5.519  2.0139  1.4430  0.6387
 5263SOL    HW216041   3.140   4.058   5.562 -2.2524  3.0814  1.2418
 5264SOL     OW16042   0.676   1.779   5.071 -0.1324 -0.4013 -0.4153
 5264SOL    HW116043   0.663   1.787   4.976 -0.9545 -1.5998 -0.4262
 5264SOL    HW216044   0.617   1.708   5.097  2.0204 -1.9297  0.5500
 5265SOL     OW16045   0.232   4.111   4.747 -0.4512 -0.0997  0.3045
 5265SOL    HW116046   0.138   4.112   4.767 -0.2792 -1.1950  1.2981
 5265SOL    HW216047   0.269   4.048   4.809  0.9407  0.2742 -0.1035
 5266SOL     OW16048   4.491   0.482   1.306  0.4703  0.1986 -0.5927
 5266SOL    HW116049   4.514   0.389   1.302 -0.4044 -0.0002 -1.2198
 5266SOL    HW216050   4.509   0.515   1.218  0.3822  0.5255 -0.4883
 5267SOL     OW16051   1.003   2.084   4.374 -0.2819 -0.6064  0.1746
 5267SOL    HW116052   1.041   2.084   4.287  0.7768  1.5594  0.5456
 5267SOL    HW216053   0.951   2.165   4.377 -0.6006 -0.8357  1.4001
 5268SOL     OW16054   3.822   1.242   1.782 -0.3993 -0.1490 -0.0200
 5268SOL    HW116055   3.897   1.290   1.746 -0.5403 -1.4755 -2.2242
 5268SOL    HW216056   3.846   1.226   1.873  0.3699  2.5781  0.3601
 5269SOL     OW16057   4.134   0.696   6.158  0.3386  0.3486 -0.1017
 5269SOL    HW116058   4.164   0.712   6.069  1.7047 -0.4950  0.1680
 5269SOL    HW216059   4.136   0.600   6.167  1.7648  0.4584  1.2901
 5270SOL     OW16060   3.942   2.582   0.483 -0.4123  0.6209  0.5180
 5270SOL    HW116061   4.022   2.531   0.496 -0.2325  0.5969 -0.5842
 5270SOL    HW216062   3.968   2.673   0.495 -0.5762  0.5166  1.7586
 5271SOL     OW16063   5.148   4.149   3.438 -0.0463  0.0427  0.0339
 5271SOL    HW116064   5.117   4.090   3.369  2.0841 -0.4233 -0.5861
 5271SOL    HW216065   5.183   4.224   3.391 -1.9920  1.5056  0.7964
 5272SOL     OW16066   1.476   5.354   1.907 -0.1073  0.0967 -0.3042
 5272SOL    HW116067   1.526   5.282   1.867  1.2140  0.4044  0.7227
 5272SOL    HW216068   1.476   5.334   2.001  0.3411  1.4676  0.0003
 5273SOL     OW16069   5.811   0.402   2.259  0.0096 -0.0880  0.1134
 5273SOL    HW116070   5.791   0.488   2.296  3.2609  0.8681  0.0160
 5273SOL    HW216071   5.855   0.355   2.330 -0.3787 -1.1085 -0.3003
 5274SOL     OW16072   4.997   4.835   1.847 -0.1486 -0.0999  0.0807
 5274SOL    HW116073   4.995   4.833   1.942  1.4733  0.7051  0.1656
 5274SOL    HW216074   4.960   4.920   1.824 -0.0063 -0.0526  0.0236
 5275SOL     OW16075   0.752   2.891   2.667 -0.0755 -0.4641 -0.1911
 5275SOL    HW116076   0.787   2.922   2.583  0.8033  0.1664  0.3866
 5275SOL    HW216077   0.785   2.954   2.731  0.7266 -1.8970  0.8666
 5276SOL     OW16078   1.130   1.895   2.283  0.2821 -0.5348 -0.2363
 5276SOL    HW116079   1.062   1.901   2.216  0.6653 -0.2194 -0.5955
 5276SOL    HW216080   1.095   1.948   2.356 -0.1804 -0.9687 -0.1361
 5277SOL     OW16081   2.255   5.140   2.657  0.5322  0.1567 -0.1363
 5277SOL    HW116082   2.227   5.231   2.650  0.3076  0.4300  2.9265
 5277SOL    HW216083   2.291   5.133   2.745 -0.8059 -3.0496  0.2961
 5278SOL     OW16084   2.418   2.888   0.277  0.4069 -0.1949 -0.1156
 5278SOL    HW116085   2.490   2.894   0.339  1.1104 -0.2868 -0.9069
 5278SOL    HW216086   2.420   2.971   0.230 -0.7641  0.2970  0.6494
 5279SOL     OW16087   1.416   3.970   3.546 -0.1701 -0.5990 -0.1913
 5279SOL    HW116088   1.376   3.883   3.540  0.2033 -1.0586  2.6950
 5279SOL    HW216089   1.359   4.019   3.606  0.7187  0.4845 -0.1894
 5280SOL     OW16090   4.613   3.849   0.512  0.2407  0.1779  0.0556
 5280SOL    HW116091   4.537   3.872   0.566  1.3742  0.2303  1.6697
 5280SOL    HW216092   4.685   3.899   0.549  1.2754 -0.5770 -0.8776
 5281SOL     OW16093   0.913   3.518   2.451  0.5706 -0.2925 -0.4332
 5281SOL    HW116094   0.880   3.566   2.375 -0.7759  0.5114  0.6124
 5281SOL    HW216095   0.845   3.452   2.470 -0.4315  1.1984  1.5767
 5282SOL     OW16096   0.124   4.705   3.190 -0.0153 -0.1790  0.1407
 5282SOL    HW116097   0.094   4.737   3.105  0.4345  0.0554  0.0641
 5282SOL    HW216098   0.054   4.729   3.251  0.0539  0.4452 -0.0151
 5283SOL     OW16099   2.388   2.721   4.590  0.4102  0.7474 -0.1978
 5283SOL    HW116100   2.402   2.775   4.668 -0.6060  0.7329  0.0093
 5283SOL    HW216101   2.342   2.644   4.623  1.4309 -0.0337 -0.5641
 5284SOL     OW16102   5.395   3.143   4.350  0.6978  0.0206  0.3441
 5284SOL    HW116103   5.410   3.057   4.311  2.7194  0.1573  0.7014
 5284SOL    HW216104   5.440   3.140   4.435 -2.0064  0.3585  1.9057
 5285SOL     OW16105   0.083   0.669   2.365 -0.1410 -0.2690 -0.2626
 5285SOL    HW116106   0.140   0.593   2.380 -0.7072 -0.8526 -0.9577
 5285SOL    HW216107   0.061   0.699   2.453  0.9347 -0.2577  0.0180
 5286SOL     OW16108   2.434   0.604   0.431 -0.5838  0.1680  0.1502
 5286SOL    HW116109   2.409   0.687   0.391 -1.7021  0.4201  1.3180
 5286SOL    HW216110   2.361   0.545   0.413  0.2729 -0.6221 -0.8031
 5287SOL     OW16111   0.878   4.820   1.944  0.3289 -0.2767 -0.3775
 5287SOL    HW116112   0.816   4.811   1.872 -1.4406  3.1233  0.5186
 5287SOL    HW216113   0.841   4.769   2.016 -1.6706  1.7523  0.1668
 5288SOL     OW16114   3.320   6.220   5.976  0.4086  0.5045  0.2974
 5288SOL    HW116115   3.376   6.149   6.007 -0.8474 -0.6336  0.0661
 5288SOL    HW216116   3.257   6.177   5.917 -1.0791  1.5933  1.0185
 5289SOL     OW16117   5.854   1.877   5.044  0.3088  0.2856  0.0323
 5289SOL    HW116118   5.860   1.969   5.018 -1.0382  0.4620  0.2794
 5289SOL    HW216119   5.862   1.828   4.962 -1.7649  0.7523 -0.4918
 5290SOL     OW16120   4.523   1.487   3.005  0.7111 -0.3546  0.0356
 5290SOL    HW116121   4.482   1.524   2.927  0.0554 -1.5150 -0.1904
 5290SOL    HW216122   4.500   1.548   3.075  1.2291  0.6476 -0.6550
 5291SOL     OW16123   5.703   4.233   2.026  0.3295 -0.1401 -0.2733
 5291SOL    HW116124   5.647   4.158   2.006  0.4100 -0.1456 -0.4840
 5291SOL    HW216125   5.641   4.304   2.044  0.2137 -0.7100  1.8434
 5292SOL     OW16126   2.905   1.039   3.924  0.4815 -0.2286 -0.0591
 5292SOL    HW116127   2.908   1.119   3.978  0.1743  0.3988 -0.9500
 5292SOL    HW216128   2.969   1.054   3.855  0.3824 -0.7340 -0.2640
 5293SOL     OW16129   4.536   1.671   0.190 -0.1152 -0.2355 -0.3531
 5293SOL    HW116130   4.510   1.609   0.257  0.0249  0.6020  0.4940
 5293SOL    HW216131   4.629   1.688   0.208 -0.4447  1.1213  0.1832
 5294SOL     OW16132   6.093   4.500   0.659 -0.7993 -0.9907  0.3488
 5294SOL    HW116133   6.020   4.515   0.598  0.1646  0.3260 -0.5521
 5294SOL    HW216134   6.098   4.581   0.709 -1.0730 -1.7669  1.6764
 5295SOL     OW16135   5.878   4.432   0.497  1.1736  0.2166  0.2739
 5295SOL    HW116136   5.812   4.489   0.459 -1.6809 -2.0477  1.4977
 5295SOL    HW216137   5.924   4.395   0.421 -1.0340 -0.4106 -0.8325
 5296SOL     OW16138   2.837   1.541   3.996 -0.3857  0.6379  0.0556
 5296SOL    HW116139   2.845   1.543   3.901  1.0816 -0.0065  0.1301
 5296SOL    HW216140   2.916   1.586   4.027 -0.1923 -0.3055  0.9679
 5297SOL     OW16141   2.482   5.014   4.037  0.1545 -0.8694 -0.2780
 5297SOL    HW116142   2.411   5.030   4.099 -0.2589  0.3674 -1.0217
 5297SOL    HW216143   2.465   5.075   3.965  2.5320  0.2058 -0.0232
 5298SOL     OW16144   2.297   0.719   5.913  0.1558 -0.0212 -0.2216
 5298SOL    HW116145   2.366   0.779   5.940  0.0142 -0.8935  2.3493
 5298SOL    HW216146   2.243   0.770   5.853  1.4883  1.5384 -0.1637
 5299SOL     OW16147   4.399   1.914   5.667 -0.1490 -0.4057  0.2091
 5299SOL    HW116148   4.434   2.002   5.682 -0.0063 -0.3530 -0.4098
 5299SOL    HW216149   4.397   1.874   5.754  0.2639  0.0327  0.4242
 5300SOL     OW16150   0.635   3.277   2.116  0.0616  0.1006 -0.2951
 5300SOL    HW116151   0.718   3.258   2.071  1.4013  3.4560  0.4506
 5300SOL    HW216152   0.655   3.269   2.209 -0.5322  0.5279 -0.1205
 5301SOL     OW16153   2.363   5.003   4.460 -0.4796 -0.4499 -0.2104
 5301SOL    HW116154   2.429   4.937   4.483  0.0905 -0.8431 -2.6141
 5301SOL    HW216155   2.311   4.961   4.392 -2.0496  0.5415  0.3415
 5302SOL     OW16156   0.855   1.406   2.785  1.1392  0.7404 -0.2776
 5302SOL    HW116157   0.769   1.369   2.808  0.5199  1.9521 -0.5372
 5302SOL    HW216158   0.876   1.367   2.700  0.2775  1.3317 -0.7737
 5303SOL     OW16159   4.184   4.599   3.440 -0.3610  0.9767 -0.2891
 5303SOL    HW116160   4.101   4.615   3.395 -1.0560 -0.2504  0.5099
 5303SOL    HW216161   4.198   4.505   3.434  2.0255  1.3513 -2.1262
 5304SOL     OW16162   4.568   0.428   3.142  0.9851 -0.0273  0.0906
 5304SOL    HW116163   4.550   0.514   3.180 -0.1364 -0.1824 -0.0631
 5304SOL    HW216164   4.592   0.447   3.051 -3.2302 -0.0186 -1.2538
 5305SOL     OW16165   3.386   1.295   4.101 -0.3672 -0.6989 -0.3772
 5305SOL    HW116166   3.361   1.282   4.192  1.2156  0.8269  0.3411
 5305SOL    HW216167   3.306   1.323   4.057 -1.9902 -4.6054 -0.3012
 5306SOL     OW16168   2.677   3.788   4.795  0.0473 -0.0470 -0.5657
 5306SOL    HW116169   2.715   3.764   4.710  1.7930  0.1371  0.1331
 5306SOL    HW216170   2.671   3.705   4.842 -2.0394 -0.3421 -1.2439
 5307SOL     OW16171   1.090   5.114   4.441  0.4562  0.0260  0.5611
 5307SOL    HW116172   1.038   5.034   4.439  1.4013 -0.7048  2.6902
 5307SOL    HW216173   1.054   5.166   4.512 -0.6713  1.9594 -1.2961
 5308SOL     OW16174   4.273   0.766   5.028 -0.0995  0.3051  0.0079
 5308SOL    HW116175   4.252   0.823   5.103 -1.7317  1.5870 -1.3526
 5308SOL    HW216176   4.192   0.720   5.009  0.1075  0.4450 -1.3159
 5309SOL     OW16177   2.758   5.892   5.973  0.5042 -0.4763 -0.0083
 5309SOL    HW116178   2.724   5.836   6.043 -0.1827 -0.0590 -0.0053
 5309SOL    HW216179   2.753   5.981   6.009  2.3224 -0.4533  0.2945
 5310SOL     OW16180   2.345   1.684   0.532 -0.0544 -0.3320 -0.3803
 5310SOL    HW116181   2.273   1.733   0.493  0.0194 -0.5851 -0.8387
 5310SOL    HW216182   2.408   1.751   0.559 -0.2768 -0.1350 -0.3458
 5311SOL     OW16183   5.570   2.067   2.804 -0.5494 -0.1509  0.0450
 5311SOL    HW116184   5.618   1.997   2.847  0.9543  0.5760 -0.3741
 5311SOL    HW216185   5.541   2.125   2.875  0.5282  0.1996  0.2103
 5312SOL     OW16186   3.709   3.901   5.872 -0.0064 -0.1322  0.1358
 5312SOL    HW116187   3.769   3.973   5.851  0.8083 -0.9133 -0.2619
 5312SOL    HW216188   3.757   3.848   5.936  0.2113 -1.3658 -1.0018
 5313SOL     OW16189   3.427   0.295   3.148 -0.1651  0.3450  0.0561
 5313SOL    HW116190   3.442   0.363   3.214  0.1178 -0.2200  0.5777
 5313SOL    HW216191   3.492   0.313   3.080 -0.1814  0.6763  0.1246
 5314SOL     OW16192   1.343   6.277   2.023  0.2692  0.3100 -0.0281
 5314SOL    HW116193   1.386   6.248   1.942 -0.2212 -1.3980  0.2723
 5314SOL    HW216194   1.343   6.372   2.018  2.3716  0.3264 -0.9208
 5315SOL     OW16195   2.135   4.162   3.197  0.5659 -0.6965 -0.2569
 5315SOL    HW116196   2.227   4.155   3.222  0.7077 -1.0099 -0.8328
 5315SOL    HW216197   2.100   4.074   3.211  1.0215 -1.2966 -2.5139
 5316SOL     OW16198   4.514   3.280   1.320  0.4521  0.1488  0.0429
 5316SOL    HW116199   4.464   3.217   1.268 -1.0915 -0.0065  1.6467
 5316SOL    HW216200   4.475   3.277   1.407  2.5900  0.8096  1.1091
 5317SOL     OW16201   1.312   5.579   4.108 -0.7241  0.3993 -0.6047
 5317SOL    HW116202   1.375   5.583   4.179 -1.1604 -1.7247 -0.0537
 5317SOL    HW216203   1.365   5.572   4.029 -0.2456 -0.9197 -0.1789
 5318SOL     OW16204   6.327   5.901   4.230 -0.6930  0.2255  0.2378
 5318SOL    HW116205   6.286   5.817   4.210  1.0552 -0.3147 -1.3812
 5318SOL    HW216206   6.415   5.894   4.194 -0.7810  3.0653 -0.7917
 5319SOL     OW16207   5.836   1.508   5.887  0.8581  0.3084 -0.0355
 5319SOL    HW116208   5.763   1.569   5.895  0.6192 -0.1007  1.1091
 5319SOL    HW216209   5.814   1.454   5.812 -1.9561 -2.2686  2.4073
 5320SOL     OW16210   5.278   2.337   5.896  0.5272  0.3853  0.4162
 5320SOL    HW116211   5.283   2.251   5.937  0.6912 -0.7433 -1.8442
 5320SOL    HW216212   5.364   2.349   5.855 -0.1964  0.6315 -1.1134
 5321SOL     OW16213   4.904   6.293   3.745  0.0064 -0.0459 -0.1083
 5321SOL    HW116214   4.950   6.348   3.682  1.2453 -0.8506  0.0603
 5321SOL    HW216215   4.812   6.308   3.727  0.3235 -0.1434 -2.0185
 5322SOL     OW16216   3.273   1.547   5.300 -0.3686 -0.3155 -0.3048
 5322SOL    HW116217   3.260   1.609   5.228 -0.0933  1.1491  0.8546
 5322SOL    HW216218   3.228   1.588   5.374 -1.6197 -2.3254  0.1214
 5323SOL     OW16219   2.769   3.150   0.617  0.0303  0.4809  0.0477
 5323SOL    HW116220   2.714   3.192   0.551  0.7907 -0.0567 -0.9611
 5323SOL    HW216221   2.843   3.210   0.629 -0.1141  0.5839  0.4168
 5324SOL     OW16222   6.163   6.138   0.455  0.3456 -0.2623  0.1932
 5324SOL    HW116223   6.229   6.206   0.446  0.2517 -0.2639 -0.6258
 5324SOL    HW216224   6.207   6.067   0.502  0.8453 -0.1566 -0.1047
 5325SOL     OW16225   4.750   3.816   4.032  0.4657 -0.3347  0.3618
 5325SOL    HW116226   4.678   3.815   4.094 -0.0103  3.1620  0.1153
 5325SOL    HW216227   4.819   3.866   4.076  1.6206 -1.0822 -0.5227
 5326SOL     OW16228   5.862   1.645   4.106 -0.0480  0.4731 -0.4565
 5326SOL    HW116229   5.818   1.594   4.038 -2.4008  1.5185  0.1895
 5326SOL    HW216230   5.874   1.584   4.178 -0.4135  0.1405 -0.6712
 5327SOL     OW16231   1.808   1.988   1.966 -0.4052 -0.1721 -0.4738
 5327SOL    HW116232   1.887   2.043   1.956 -0.5082  0.3127  1.1795
 5327SOL    HW216233   1.837   1.914   2.019 -1.5486  1.1896  2.1873
 5328SOL     OW16234   3.063   2.177   5.896  0.7339  0.7663  0.1518
 5328SOL    HW116235   3.099   2.151   5.981  1.5958  1.1094 -0.0999
 5328SOL    HW216236   3.138   2.208   5.847  0.5138 -0.8824 -1.3202
 5329SOL     OW16237   4.410   2.346   6.132  0.2033 -0.2804 -0.1250
 5329SOL    HW116238   4.328   2.394   6.140 -0.1587 -1.1687  3.2264
 5329SOL    HW216239   4.461   2.373   6.209  2.1701 -1.3816 -0.9441
 5330SOL     OW16240   2.526   2.969   1.344 -0.0187  0.1079 -0.2899
 5330SOL    HW116241   2.442   3.010   1.364 -1.2943 -1.9416 -1.1809
 5330SOL    HW216242   2.540   2.987   1.251 -0.6896 -1.5339 -0.7421
 5331SOL     OW16243   5.738   1.241   5.379 -0.0274 -0.0289  0.7203
 5331SOL    HW116244   5.712   1.314   5.435 -0.0169 -0.5879  1.4646
 5331SOL    HW216245   5.693   1.166   5.415 -2.0214 -0.0152 -1.5103
 5332SOL     OW16246   5.379   0.413   3.309  0.3142  0.3521 -0.0649
 5332SOL    HW116247   5.425   0.385   3.388  1.3973  1.5837 -0.2331
 5332SOL    HW216248   5.385   0.508   3.309 -2.0952  0.5810 -0.2115
 5333SOL     OW16249   4.579   1.015   2.648 -0.3912 -0.1878  0.0055
 5333SOL    HW116250   4.589   0.961   2.570 -1.1185  0.3181 -0.4467
 5333SOL    HW216251   4.508   1.076   2.627  0.3711  0.9208  0.5215
 5334SOL     OW16252   0.616   5.372   3.494 -0.4570 -0.1327  0.5700
 5334SOL    HW116253   0.525   5.387   3.522 -0.1084  0.9471  1.1549
 5334SOL    HW216254   0.641   5.453   3.450 -0.6321 -1.3726 -2.0269
 5335SOL     OW16255   0.331   2.287   4.660  0.5080 -0.4877  0.1519
 5335SOL    HW116256   0.422   2.311   4.641  0.8880 -1.6831  0.3628
 5335SOL    HW216257   0.296   2.258   4.576  0.0548  0.7520 -0.0998
 5336SOL     OW16258   4.962   5.033   6.294 -0.0505  0.3561  0.1735
 5336SOL    HW116259   4.874   5.049   6.327  0.4265  0.5227  1.4410
 5336SOL    HW216260   4.986   4.947   6.329 -0.2233 -0.3317 -1.3384
 5337SOL     OW16261   6.210   5.297   2.343 -0.4439  0.4095 -0.1177
 5337SOL    HW116262   6.286   5.354   2.330 -0.7216  1.1625  1.3791
 5337SOL    HW216263   6.208   5.242   2.265  0.6936  1.4630 -0.9254
 5338SOL     OW16264   3.941   5.872   0.321  0.5411  0.8097 -0.2038
 5338SOL    HW116265   3.921   5.931   0.249  0.3417 -0.7464 -1.5002
 5338SOL    HW216266   3.983   5.797   0.279 -0.0419 -0.3877  1.2352
 5339SOL     OW16267   0.826   0.997   0.285 -0.3021  0.9368  0.4510
 5339SOL    HW116268   0.735   1.028   0.281 -0.6186  0.0065  0.1417
 5339SOL    HW216269   0.824   0.911   0.242  0.8619  1.1989 -0.1485
 5340SOL     OW16270   0.207   1.600   0.760  1.0517 -0.3377 -0.8281
 5340SOL    HW116271   0.228   1.690   0.736  1.2678 -0.2388 -0.3034
 5340SOL    HW216272   0.227   1.549   0.682 -2.6593  0.4714 -2.5183
 5341SOL     OW16273   1.699   5.595   4.944 -0.0640 -0.2833  0.7548
 5341SOL    HW116274   1.677   5.503   4.930 -0.6068 -0.1761  0.8755
 5341SOL    HW216275   1.773   5.593   5.005 -0.3404 -0.6276  1.0824
 5342SOL     OW16276   1.099   2.234   1.596 -0.1138  0.3086 -0.1126
 5342SOL    HW116277   1.186   2.214   1.630 -0.6636 -1.0145  0.6177
 5342SOL    HW216278   1.110   2.239   1.501  0.4360 -1.9346 -0.2270
 5343SOL     OW16279   1.511   0.025   1.091  0.3074  0.4096 -0.0875
 5343SOL    HW116280   1.490   0.039   0.998  0.1605  0.4363 -0.0518
 5343SOL    HW216281   1.425   0.016   1.133  0.3788  0.1573  0.0091
 5344SOL     OW16282   2.372   2.061   4.437 -0.3609  0.4516  0.7637
 5344SOL    HW116283   2.371   2.055   4.533 -1.3978  1.0408  0.7993
 5344SOL    HW216284   2.282   2.083   4.414 -0.4180 -0.8863 -0.4336
 5345SOL     OW16285   6.287   0.116   1.023 -0.2717 -0.3094 -0.3511
 5345SOL    HW116286   6.195   0.141   1.032 -0.9434 -2.6415 -0.2557
 5345SOL    HW216287   6.286   0.021   1.023  2.2739 -0.3983  0.7310
 5346SOL     OW16288   4.366   2.564   4.551 -0.1321 -0.2867 -0.1967
 5346SOL    HW116289   4.372   2.498   4.621 -1.2261  1.9831  2.2429
 5346SOL    HW216290   4.294   2.533   4.496  0.3341 -1.8454  0.0085
 5347SOL     OW16291   2.827   6.032   2.867 -0.2546 -0.4850 -0.2957
 5347SOL    HW116292   2.794   5.949   2.831 -0.3178  0.2854 -2.1704
 5347SOL    HW216293   2.921   6.018   2.878  0.1921 -0.1278 -2.9250
 5348SOL     OW16294   2.890   5.311   0.524 -0.2642  0.1908 -0.3510
 5348SOL    HW116295   2.950   5.377   0.559 -0.7151  0.2997  0.2253
 5348SOL    HW216296   2.809   5.323   0.573 -0.9907  0.4851 -1.5849
 5349SOL     OW16297   5.233   0.196   4.568  0.8401  0.5585 -0.8520
 5349SOL    HW116298   5.204   0.140   4.641  0.2498  1.1218 -0.6509
 5349SOL    HW216299   5.328   0.184   4.566  1.1627  2.1588  1.4097
 5350SOL     OW16300   2.611   2.496   6.051  0.5068  0.2942 -0.5490
 5350SOL    HW116301   2.674   2.439   6.095  0.2756 -0.6616 -1.4185
 5350SOL    HW216302   2.542   2.511   6.116  1.1867  0.6292  0.1070
 5351SOL     OW16303   0.591   3.359   2.957 -0.0894  0.1115  0.0782
 5351SOL    HW116304   0.539   3.426   3.001  0.3653 -0.3035  1.2981
 5351SOL    HW216305   0.682   3.384   2.975  0.1198  0.1073 -0.9234
 5352SOL     OW16306   3.628   2.880   0.084 -0.4788 -0.3532 -0.0411
 5352SOL    HW116307   3.617   2.800   0.136 -2.1286 -1.3966 -1.8559
 5352SOL    HW216308   3.548   2.886   0.032  0.2589  1.6856 -1.0527
 5353SOL     OW16309   0.859   3.075   2.828 -0.1078  0.0934 -0.4592
 5353SOL    HW116310   0.955   3.072   2.827 -0.1303 -1.2447 -0.4416
 5353SOL    HW216311   0.839   3.160   2.867  1.1028 -0.4618  1.5535
 5354SOL     OW16312   2.401   4.800   1.121  0.0499  0.2568 -0.7175
 5354SOL    HW116313   2.377   4.865   1.187 -2.4021 -1.0886 -0.1597
 5354SOL    HW216314   2.483   4.763   1.153 -0.2166  0.8076  0.6852
 5355SOL     OW16315   4.761   1.705   1.485 -0.3804 -0.1777 -0.2171
 5355SOL    HW116316   4.756   1.787   1.436 -1.5122 -0.3636 -0.4304
 5355SOL    HW216317   4.717   1.641   1.430  2.0316 -1.3904 -0.8915
 5356SOL     OW16318   0.317   4.459   1.372  0.3903  0.1686  0.2742
 5356SOL    HW116319   0.365   4.489   1.449  0.9288 -0.3989  0.1646
 5356SOL    HW216320   0.230   4.436   1.405 -0.2479  2.3651  0.2724
 5357SOL     OW16321   4.240   2.715   3.326 -0.7788  0.3296  0.0454
 5357SOL    HW116322   4.285   2.687   3.406 -1.8504 -1.1635  0.1623
 5357SOL    HW216323   4.147   2.703   3.345 -1.0121 -1.4034 -1.8751
 5358SOL     OW16324   3.954   1.603   2.097  0.7808 -0.4268  0.1441
 5358SOL    HW116325   3.859   1.589   2.100  0.6515  0.5805  1.3311
 5358SOL    HW216326   3.965   1.688   2.056  1.3065 -1.3679 -1.8076
 5359SOL     OW16327   5.135   0.832   3.211 -0.7365 -0.3285  0.5925
 5359SOL    HW116328   5.112   0.861   3.299  0.1672 -0.0504  0.7454
 5359SOL    HW216329   5.198   0.898   3.180  0.9503 -1.8140  0.7266
 5360SOL     OW16330   0.953   5.055   0.241 -0.5212  0.3630  0.2479
 5360SOL    HW116331   0.867   5.094   0.256 -1.4848 -1.8016  0.6723
 5360SOL    HW216332   0.936   4.975   0.192  1.2126 -0.3229  0.6793
 5361SOL     OW16333   2.717   3.392   2.037  0.0773 -0.6965 -0.0981
 5361SOL    HW116334   2.786   3.357   1.981 -0.2496 -0.7805 -0.4529
 5361SOL    HW216335   2.719   3.486   2.020 -0.8680 -0.8572 -1.2365
 5362SOL     OW16336   5.535   4.233   3.352  0.0487 -0.9901  0.0312
 5362SOL    HW116337   5.559   4.254   3.262  0.0804 -0.7593  0.0935
 5362SOL    HW216338   5.457   4.285   3.369  2.8654  3.1494  1.8557
 5363SOL     OW16339   0.336   4.180   0.383 -0.1983 -0.5971 -0.3419
 5363SOL    HW116340   0.430   4.166   0.394  0.4569  2.3803 -1.2703
 5363SOL    HW216341   0.306   4.207   0.470  0.3036  0.6433 -0.5346
 5364SOL     OW16342   6.346   3.963   0.425  0.6398  0.8315 -0.0170
 5364SOL    HW116343   6.405   3.888   0.423 -1.0430 -0.5562 -0.9804
 5364SOL    HW216344   6.352   3.997   0.514  0.0159 -1.6870  1.0803
 5365SOL     OW16345   1.143   4.208   0.708  0.4358  0.0911  0.3441
 5365SOL    HW116346   1.236   4.224   0.688 -0.1589  2.3557 -0.9984
 5365SOL    HW216347   1.096   4.269   0.651 -1.9803 -2.0278 -0.1046
 5366SOL     OW16348   0.187   3.473   6.275 -0.2418 -0.1500 -0.0768
 5366SOL    HW116349   0.189   3.477   6.370  2.9034 -0.2295 -0.0386
 5366SOL    HW216350   0.170   3.381   6.254 -0.0769 -0.2949  0.4315
 5367SOL     OW16351   2.900   4.903   5.115  0.1886  0.1380  0.4038
 5367SOL    HW116352   2.971   4.872   5.171 -0.2909  0.1021  1.0051
 5367SOL    HW216353   2.826   4.847   5.137  0.2855 -0.6386 -1.1050
 5368SOL     OW16354   1.878   2.723   6.016  0.3654 -0.6681  0.4397
 5368SOL    HW116355   1.849   2.721   6.107 -0.9381 -0.9807  0.0483
 5368SOL    HW216356   1.797   2.719   5.966  1.1224 -2.3050 -0.7469
 5369SOL     OW16357   2.980   2.875   5.418 -0.2189  0.9199 -0.2704
 5369SOL    HW116358   3.024   2.839   5.341 -0.2304 -0.3858  0.3086
 5369SOL    HW216359   2.980   2.970   5.404  0.4667  0.7542 -1.4994
 5370SOL     OW16360   1.741   1.547   4.232 -0.1498 -0.4635  0.4637
 5370SOL    HW116361   1.815   1.493   4.260  2.0611  1.7505 -0.6791
 5370SOL    HW216362   1.780   1.633   4.214 -2.5856  0.2202 -2.4016
 5371SOL     OW16363   1.910   1.364   1.749 -0.8250 -0.6146 -0.1262
 5371SOL    HW116364   1.866   1.285   1.716  0.7531 -2.1922  1.3323
 5371SOL    HW216365   1.946   1.338   1.833 -0.7351  1.8882  0.6980
 5372SOL     OW16366   6.024   0.745   0.187 -0.2113  0.3427 -0.4050
 5372SOL    HW116367   6.064   0.678   0.242 -0.4011 -1.2644 -2.1095
 5372SOL    HW216368   6.095   0.773   0.129  0.0160  2.0800  0.6575
 5373SOL     OW16369   0.107   1.723   1.261  0.6825  0.2346  0.1112
 5373SOL    HW116370   0.130   1.631   1.274  1.0238  0.4443  1.1040
 5373SOL    HW216371   0.012   1.726   1.272  0.7399  0.0859  0.6923
 5374SOL     OW16372   4.004   3.431   3.163  0.4466  0.0618  0.0702
 5374SOL    HW116373   3.976   3.517   3.195  3.5187  0.9207  0.7660
 5374SOL    HW216374   4.004   3.375   3.240 -0.3634 -0.2754 -0.1561
 5375SOL     OW16375   2.753   2.334   4.176 -0.3194  0.1642 -0.2441
 5375SOL    HW116376   2.705   2.408   4.140 -0.7569  0.2221  0.4339
 5375SOL    HW216377   2.685   2.276   4.210  0.0884  0.3017  0.8480
 5376SOL     OW16378   3.198   1.836   6.267  0.4696 -0.1988  0.5191
 5376SOL    HW116379   3.223   1.846   6.358  1.5928 -2.0135  0.4601
 5376SOL    HW216380   3.148   1.754   6.264 -0.2678  0.2549 -0.3763
 5377SOL     OW16381   0.385   4.801   3.754 -0.6830 -0.6629 -0.0764
 5377SOL    HW116382   0.402   4.796   3.660  0.3883 -1.0903  0.1264
 5377SOL    HW216383   0.294   4.771   3.763 -1.2309  0.5886 -1.0816
 5378SOL     OW16384   5.578   1.579   0.536  0.5137  0.1220 -0.3430
 5378SOL    HW116385   5.514   1.647   0.560 -1.2755 -2.2127  2.1371
 5378SOL    HW216386   5.642   1.580   0.607  0.6423 -0.5180 -0.4405
 5379SOL     OW16387   5.027   1.522   3.822 -0.5780 -0.2243 -0.4165
 5379SOL    HW116388   5.051   1.470   3.899 -2.7231 -0.8112 -0.0718
 5379SOL    HW216389   5.018   1.611   3.855  0.0991 -0.1814 -0.3426
 5380SOL     OW16390   5.962   1.319   4.127  0.4450 -0.2248 -0.7161
 5380SOL    HW116391   5.940   1.384   4.194  2.2655 -1.0414  0.7714
 5380SOL    HW216392   5.883   1.267   4.117 -0.4723  1.0990 -0.6411
 5381SOL     OW16393   0.322   3.201   6.045 -0.2743  0.0273  0.1161
 5381SOL    HW116394   0.231   3.201   6.017 -0.1663 -0.5884 -0.2620
 5381SOL    HW216395   0.360   3.280   6.005 -0.5834  0.1647  0.0934
 5382SOL     OW16396   1.406   3.612   4.527  0.0336 -0.3179 -0.3267
 5382SOL    HW116397   1.335   3.579   4.583 -0.2960 -0.6463 -0.9332
 5382SOL    HW216398   1.375   3.698   4.497 -0.5635 -0.8891 -1.3990
 5383SOL     OW16399   0.471   2.979   5.133 -0.2366  0.5764  0.7516
 5383SOL    HW116400   0.508   2.912   5.190  0.0899  0.5578  0.5225
 5383SOL    HW216401   0.437   3.046   5.192  0.7706  0.9180  0.9680
 5384SOL     OW16402   4.758   1.312   2.480 -0.2265  0.5662 -0.4591
 5384SOL    HW116403   4.732   1.403   2.495 -0.6355  0.2431  0.9805
 5384SOL    HW216404   4.822   1.316   2.409  1.3984  2.2372  1.0072
 5385SOL     OW16405   1.513   6.029   3.655  0.2265  1.0488 -0.1481
 5385SOL    HW116406   1.605   6.054   3.662  0.6194 -0.6808  2.1838
 5385SOL    HW216407   1.467   6.087   3.715 -0.0880  1.3266 -0.6493
 5386SOL     OW16408   4.658   4.537   3.788  0.7378  0.4347 -0.0480
 5386SOL    HW116409   4.640   4.557   3.880  0.6326 -0.7765  0.2122
 5386SOL    HW216410   4.574   4.551   3.743  0.3373 -0.5968  0.3454
 5387SOL     OW16411   2.192   4.131   5.582 -0.2797  0.5071 -0.0889
 5387SOL    HW116412   2.182   4.217   5.623 -2.0273 -0.0814  0.8277
 5387SOL    HW216413   2.272   4.095   5.620 -1.5637  0.1917  2.5327
 5388SOL     OW16414   3.220   3.529   0.393 -0.0460  0.5736 -0.2570
 5388SOL    HW116415   3.228   3.437   0.421 -0.8268 -0.2797 -2.5820
 5388SOL    HW216416   3.128   3.539   0.368 -0.0304  2.0923  0.1874
 5389SOL     OW16417   1.049   2.560   0.202  0.1965 -0.4984  0.1600
 5389SOL    HW116418   1.042   2.465   0.199  1.3589 -0.5944 -0.0014
 5389SOL    HW216419   1.082   2.585   0.116  0.4522 -0.0039  0.3954
 5390SOL     OW16420   1.953   1.215   3.740  0.2090 -0.0408 -0.1373
 5390SOL    HW116421   1.895   1.263   3.798 -1.0333  0.7230 -1.8997
 5390SOL    HW216422   1.897   1.191   3.666  1.9845  0.1583 -1.6077
 5391SOL     OW16423   5.735   6.104   0.418  0.4570 -0.2810  0.1406
 5391SOL    HW116424   5.696   6.098   0.331 -1.5830  0.6010  0.9360
 5391SOL    HW216425   5.768   6.015   0.435  1.1912 -0.3833 -1.6245
 5392SOL     OW16426   2.058   1.671   6.193  0.3675  0.7218  0.3679
 5392SOL    HW116427   1.990   1.606   6.212 -1.3413  1.7777 -1.6935
 5392SOL    HW216428   2.138   1.633   6.229 -0.9457 -1.4734  1.1854
 5393SOL     OW16429   1.076   1.001   2.658  0.8102 -0.7331 -0.3048
 5393SOL    HW116430   1.050   1.078   2.709 -0.4348 -1.1813 -0.2336
 5393SOL    HW216431   1.057   1.024   2.567  1.9432 -0.3747 -0.4725
 5394SOL     OW16432   0.919   0.340   6.287  0.2946  0.1387 -0.5659
 5394SOL    HW116433   1.011   0.362   6.273  0.3159  0.8833  0.5368
 5394SOL    HW216434   0.872   0.388   6.219  0.6912  0.1384 -0.8424
 5395SOL     OW16435   5.088   4.163   2.453  0.3634 -0.5117  0.0134
 5395SOL    HW116436   5.127   4.155   2.540  2.0977 -1.0713 -0.7705
 5395SOL    HW216437   5.059   4.254   2.448  2.8758  0.4017  0.1935
 5396SOL     OW16438   0.613   0.366   4.772  0.1224 -0.3734  0.0970
 5396SOL    HW116439   0.520   0.348   4.790 -0.0194 -0.3715 -0.6034
 5396SOL    HW216440   0.611   0.434   4.705  0.6070 -1.4523 -1.0412
 5397SOL     OW16441   2.903   2.074   4.763  0.3082  0.1030 -0.0131
 5397SOL    HW116442   2.948   2.158   4.762 -2.5119  1.7208 -0.7996
 5397SOL    HW216443   2.924   2.034   4.679  1.0298  0.3542  0.0401
 5398SOL     OW16444   0.703   4.189   4.612 -0.0661 -0.6635  0.0164
 5398SOL    HW116445   0.676   4.126   4.679  1.1079 -0.8092  0.3847
 5398SOL    HW216446   0.681   4.274   4.649  2.1693 -0.6053  1.4650
 5399SOL     OW16447   1.168   0.747   3.759  0.5779 -0.7359 -0.2757
 5399SOL    HW116448   1.194   0.707   3.842 -0.5737 -0.5177  0.2059
 5399SOL    HW216449   1.181   0.841   3.771 -1.7817 -0.4435  0.5395
 5400SOL     OW16450   2.323   5.693   2.531 -0.0242 -0.0831  0.5383
 5400SOL    HW116451   2.256   5.634   2.496 -0.4228  0.2927  0.6603
 5400SOL    HW216452   2.322   5.768   2.472  1.4133 -0.7635 -0.4037
 5401SOL     OW16453   4.177   2.684   5.566  0.0582 -0.3849  0.1335
 5401SOL    HW116454   4.163   2.774   5.535 -0.6995 -0.8313 -0.8775
 5401SOL    HW216455   4.136   2.681   5.652  1.3480  0.6174  0.8259
 5402SOL     OW16456   0.953   0.896   3.992  0.0907  0.3790 -0.3069
 5402SOL    HW116457   1.017   0.825   3.990  0.5098  0.7472 -0.1385
 5402SOL    HW216458   1.001   0.970   4.029 -0.7529  0.3477  0.9208
 5403SOL     OW16459   0.061   4.406   5.291 -0.2236  0.1179 -0.4665
 5403SOL    HW116460   0.130   4.341   5.308  0.0446  0.4016 -0.4714
 5403SOL    HW216461   0.035   4.390   5.200 -0.5282 -0.3305 -0.3047
 5404SOL     OW16462   0.954   3.864   6.128  0.2955  0.1478  0.8598
 5404SOL    HW116463   0.867   3.826   6.142 -0.4233  1.1413 -0.6574
 5404SOL    HW216464   1.012   3.788   6.119 -0.6832 -0.5549  0.3234
 5405SOL     OW16465   3.507   1.105   0.188  0.0086  0.1002 -0.8537
 5405SOL    HW116466   3.461   1.024   0.163  0.2355  0.1052 -1.2968
 5405SOL    HW216467   3.475   1.171   0.126 -1.7511  0.8740  0.7941
 5406SOL     OW16468   2.917   1.965   0.889  0.1497 -0.9161 -0.1777
 5406SOL    HW116469   3.012   1.976   0.880  0.3180 -2.5417 -0.6924
 5406SOL    HW216470   2.905   1.935   0.979  0.1870 -1.2634 -0.2872
 5407SOL     OW16471   4.900   4.180   3.113  0.4410  0.8417  0.3775
 5407SOL    HW116472   4.867   4.111   3.171  1.9078 -0.0496  0.2150
 5407SOL    HW216473   4.996   4.173   3.121  0.6612  1.1429 -1.6141
 5408SOL     OW16474   0.281   1.187   1.906  0.1825  0.7184 -0.0923
 5408SOL    HW116475   0.238   1.196   1.821 -0.0607  1.2810  0.0869
 5408SOL    HW216476   0.320   1.273   1.923 -0.5030  0.8772  0.7598
 5409SOL     OW16477   0.991   3.689   1.574 -0.1698 -0.3623 -0.4358
 5409SOL    HW116478   1.053   3.680   1.646 -0.9996 -2.8318  0.0314
 5409SOL    HW216479   1.046   3.691   1.495  0.6002  0.0002  0.0984
 5410SOL     OW16480   0.978   0.085   5.823 -0.5577  0.1334 -0.1260
 5410SOL    HW116481   1.069   0.114   5.826 -0.9273  1.3686 -0.2799
 5410SOL    HW216482   0.982  -0.009   5.842  0.5019  0.6225  2.4626
 5411SOL     OW16483   1.843   0.226   3.901  0.6800 -0.3774  0.0287
 5411SOL    HW116484   1.928   0.233   3.944  0.0712  2.7821  1.0136
 5411SOL    HW216485   1.861   0.186   3.816  2.6574 -2.3694  1.3152
 5412SOL     OW16486   5.935   5.956   3.859 -0.0368  0.2320 -0.1668
 5412SOL    HW116487   5.841   5.943   3.872  0.1859 -3.4666 -1.2155
 5412SOL    HW216488   5.944   5.978   3.766  0.1715  0.2156 -0.1516
 5413SOL     OW16489   6.137   0.708   4.452 -0.3127 -0.1058 -0.1087
 5413SOL    HW116490   6.060   0.671   4.408  1.0150 -2.9812 -0.2405
 5413SOL    HW216491   6.153   0.650   4.526  1.1506  1.0276  0.5108
 5414SOL     OW16492   1.165   3.876   5.303  0.0595 -0.2154  0.6070
 5414SOL    HW116493   1.163   3.943   5.234  0.0077  0.2566  1.0663
 5414SOL    HW216494   1.259   3.859   5.316  0.1517  0.9192  1.5912
 5415SOL     OW16495   5.798   6.168   1.571 -0.2685  0.0877  0.3610
 5415SOL    HW116496   5.838   6.197   1.652  1.2729  2.4117 -1.1067
 5415SOL    HW216497   5.740   6.240   1.545  1.1576  0.5795 -1.7658
 5416SOL     OW16498   5.285   2.081   5.995 -0.0838  0.4166 -0.3462
 5416SOL    HW116499   5.327   2.071   6.081  0.9844  3.1989 -0.4417
 5416SOL    HW216500   5.197   2.048   6.008  0.6924 -1.2236  1.2027
 5417SOL     OW16501   1.880   4.716   0.489  0.0360 -0.0364  0.5936
 5417SOL    HW116502   1.855   4.624   0.499 -1.7684  0.5761  2.5111
 5417SOL    HW216503   1.881   4.750   0.579 -1.7697  2.3769 -0.1978
 5418SOL     OW16504   3.943   2.807   2.907  0.0366  0.5340  0.0142
 5418SOL    HW116505   3.849   2.826   2.903 -0.0793 -0.0992 -0.3660
 5418SOL    HW216506   3.980   2.861   2.837 -0.3170 -0.7175 -1.1839
 5419SOL     OW16507   4.895   0.385   2.710  0.3964 -0.2375 -0.3167
 5419SOL    HW116508   4.918   0.382   2.803 -2.8167  0.3683  0.6312
 5419SOL    HW216509   4.926   0.471   2.681  0.7894 -0.1379  0.3692
 5420SOL     OW16510   1.745   2.686   0.841  0.6709 -0.2140 -0.1805
 5420SOL    HW116511   1.693   2.658   0.766  1.4101  0.5421 -0.9916
 5420SOL    HW216512   1.801   2.611   0.860 -0.9204 -1.1848  0.9411
 5421SOL     OW16513   2.760   0.135   4.852  0.0806  0.0956 -0.1235
 5421SOL    HW116514   2.812   0.140   4.772 -0.2852  0.7670 -0.3247
 5421SOL    HW216515   2.732   0.043   4.857  0.8596 -0.1558 -0.2743
 5422SOL     OW16516   5.242   5.211   1.531 -0.2103 -0.3776 -0.5784
 5422SOL    HW116517   5.195   5.279   1.580 -0.2338 -0.3270 -0.6698
 5422SOL    HW216518   5.240   5.242   1.440 -1.7070 -1.3158 -0.8991
 5423SOL     OW16519   1.005   1.976   5.971  0.6195  0.0178  0.0043
 5423SOL    HW116520   1.039   2.065   5.979  1.0916 -0.1786  0.2286
 5423SOL    HW216521   0.910   1.985   5.982  0.7511  0.3760  0.9663
 5424SOL     OW16522   6.309   5.337   4.850 -0.1741  0.6460 -0.3438
 5424SOL    HW116523   6.244   5.278   4.812 -0.1494 -0.0070  0.5995
 5424SOL    HW216524   6.375   5.279   4.888  0.4102  1.2918 -0.3432
 5425SOL     OW16525   2.017   6.108   2.869 -0.2641 -0.1937  0.4272
 5425SOL    HW116526   1.997   6.135   2.779 -0.3387  0.1764  0.5555
 5425SOL    HW216527   2.095   6.158   2.893 -1.6037  1.5142  1.4077
 5426SOL     OW16528   3.289   0.582   3.116 -0.1742 -0.2606  0.5553
 5426SOL    HW116529   3.269   0.563   3.207 -0.0150  1.0814  0.8873
 5426SOL    HW216530   3.332   0.668   3.118  0.8766 -0.7292 -0.6594
 5427SOL     OW16531   5.391   0.762   0.501  0.2986  0.1558  0.3266
 5427SOL    HW116532   5.352   0.839   0.458  0.6841  0.7459  1.0310
 5427SOL    HW216533   5.484   0.782   0.506  0.7849 -1.3202 -1.4889
 5428SOL     OW16534   4.556   3.972   0.835  0.1894 -0.2126  0.0094
 5428SOL    HW116535   4.506   3.995   0.756 -0.3995  1.5985  0.8364
 5428SOL    HW216536   4.633   3.926   0.802  0.9780  2.1849 -1.8635
 5429SOL     OW16537   1.644   2.316   0.154 -0.8225  0.1525 -0.0830
 5429SOL    HW116538   1.626   2.362   0.072 -0.3902 -0.1598 -0.3547
 5429SOL    HW216539   1.722   2.358   0.189 -1.5993  0.9939  0.7139
 5430SOL     OW16540   0.051   2.138   6.237 -0.1610  0.0211 -0.4568
 5430SOL    HW116541   0.006   2.106   6.316  0.1034  1.6193  0.3890
 5430SOL    HW216542   0.082   2.059   6.193  1.4146 -0.8875  2.0676
 5431SOL     OW16543   4.793   3.479   3.460  0.0912  0.2331  0.1742
 5431SOL    HW116544   4.881   3.486   3.499 -0.2893  0.8073  0.9553
 5431SOL    HW216545   4.757   3.399   3.498 -0.1194  0.5658  0.6834
 5432SOL     OW16546   0.647   3.326   4.358 -0.1819  0.2346 -0.2877
 5432SOL    HW116547   0.721   3.311   4.418 -0.7048 -1.4943 -0.0336
 5432SOL    HW216548   0.588   3.253   4.374 -2.5816  2.1976  0.4021
 5433SOL     OW16549   0.807   4.724   2.177  0.0274 -0.3456  0.4161
 5433SOL    HW116550   0.760   4.776   2.242 -0.0959  0.5326 -0.3519
 5433SOL    HW216551   0.895   4.714   2.212 -0.2405 -0.5089  1.0529
 5434SOL     OW16552   1.644   3.816   3.952  0.0382  0.1819  0.2387
 5434SOL    HW116553   1.652   3.838   3.859 -0.0206  1.8385  0.5947
 5434SOL    HW216554   1.717   3.862   3.994 -0.7272  0.5821  1.1777
 5435SOL     OW16555   5.780   3.546   0.525  0.0734  0.0071  0.5357
 5435SOL    HW116556   5.714   3.596   0.477 -0.5055 -1.3158 -0.0849
 5435SOL    HW216557   5.824   3.493   0.458  1.2314  0.2509  1.0644
 5436SOL     OW16558   1.051   2.118   0.039 -0.1953  0.5808 -0.4903
 5436SOL    HW116559   1.002   2.043   0.008  2.7296 -1.1773 -1.2866
 5436SOL    HW216560   1.062   2.174  -0.038 -1.5644  1.4151 -0.1151
 5437SOL     OW16561   3.631   6.260   1.259 -0.3587  0.2669  0.1417
 5437SOL    HW116562   3.618   6.305   1.176 -0.4822 -0.4439 -0.2370
 5437SOL    HW216563   3.604   6.323   1.325  0.4942  1.1263 -0.3084
 5438SOL     OW16564   2.980   5.486   5.394  0.5198  0.4984 -0.2709
 5438SOL    HW116565   3.024   5.417   5.345 -2.5994 -1.4609 -0.6279
 5438SOL    HW216566   2.886   5.470   5.379 -0.4796  2.5188  2.7728
 5439SOL     OW16567   1.498   5.103   1.097 -0.2266 -0.5107 -0.0064
 5439SOL    HW116568   1.432   5.158   1.139  0.9227  1.0253 -0.0943
 5439SOL    HW216569   1.572   5.104   1.158  1.5555  1.9230 -1.9736
 5440SOL     OW16570   4.585   2.051   4.658 -0.3347 -0.1336  0.7635
 5440SOL    HW116571   4.663   2.054   4.714 -0.1066  2.3769  0.4196
 5440SOL    HW216572   4.611   1.994   4.586  0.4132 -1.0370  1.7004
 5441SOL     OW16573   2.787   5.153   4.027 -0.8307  0.1491 -0.2917
 5441SOL    HW116574   2.859   5.160   4.090  0.1920 -0.5218 -1.3472
 5441SOL    HW216575   2.752   5.065   4.041 -0.8675  0.1489 -0.3875
 5442SOL     OW16576   2.113   0.036   3.154  0.2870  0.4205 -0.1475
 5442SOL    HW116577   2.027   0.073   3.131  0.2864  0.3423 -0.2689
 5442SOL    HW216578   2.140   0.087   3.230  0.7916  1.4472 -0.9842
 5443SOL     OW16579   1.585   2.787   3.763  1.3295 -0.5229  0.0281
 5443SOL    HW116580   1.661   2.748   3.720  2.0239 -0.0191  0.7645
 5443SOL    HW216581   1.555   2.720   3.824  0.5814 -1.0873 -0.9192
 5444SOL     OW16582   5.597   4.729   5.471  0.5614 -0.0636 -0.4086
 5444SOL    HW116583   5.686   4.749   5.499  0.2844 -0.6339  0.9425
 5444SOL    HW216584   5.600   4.735   5.375  1.9623  0.2341 -0.3628
 5445SOL     OW16585   5.004   4.869   5.972 -0.3134  0.0515  0.0770
 5445SOL    HW116586   4.955   4.945   5.940  0.4238  0.9375  0.9969
 5445SOL    HW216587   5.047   4.834   5.894 -2.3164 -0.7229 -0.7479
 5446SOL     OW16588   1.096   3.326   2.468 -0.2314  0.0859  0.3702
 5446SOL    HW116589   1.033   3.394   2.445  1.3472  0.6563 -2.7246
 5446SOL    HW216590   1.053   3.244   2.441 -0.1535  0.3523 -0.5827
 5447SOL     OW16591   2.624   5.035   0.378 -0.7006 -0.8435 -0.0670
 5447SOL    HW116592   2.719   5.034   0.368 -0.7343 -0.4101 -0.4536
 5447SOL    HW216593   2.591   5.061   0.292 -1.1178  0.4290  0.4584
 5448SOL     OW16594   2.556   6.305   5.441  1.0671 -0.2675 -0.1459
 5448SOL    HW116595   2.491   6.249   5.398  0.8787 -1.6029  1.7278
 5448SOL    HW216596   2.552   6.388   5.393 -1.2845 -0.6460 -0.7479
 5449SOL     OW16597   3.861   6.179   2.911  0.3401 -0.0809 -0.4348
 5449SOL    HW116598   3.799   6.190   2.839 -1.4885 -0.0015  1.0775
 5449SOL    HW216599   3.833   6.098   2.955 -0.4347  1.3459  1.8639
 5450SOL     OW16600   0.859   2.666   5.935 -0.1904 -0.4737  0.4607
 5450SOL    HW116601   0.921   2.639   5.868 -1.7028 -1.0544 -0.7646
 5450SOL    HW216602   0.789   2.600   5.931 -1.0349  0.3158  1.5787
 5451SOL     OW16603   0.209   5.935   5.948 -0.3920 -0.0930 -0.0552
 5451SOL    HW116604   0.257   5.882   6.012  0.5671  0.2064 -0.5221
 5451SOL    HW216605   0.240   5.904   5.863 -1.3527 -0.1993 -0.3764
 5452SOL     OW16606   0.216   1.713   5.857  0.0508  0.1168 -0.1923
 5452SOL    HW116607   0.139   1.765   5.833 -0.0104  0.7278  1.1904
 5452SOL    HW216608   0.286   1.746   5.802 -0.3476  0.5935 -0.4212
 5453SOL     OW16609   0.142   4.382   0.926  0.1900  0.0167 -0.0461
 5453SOL    HW116610   0.236   4.368   0.913  0.4090  0.1284  1.2783
 5453SOL    HW216611   0.107   4.395   0.837  1.3281 -0.5680 -0.6007
 5454SOL     OW16612   1.883   5.507   1.853 -0.4368  0.2616  0.2456
 5454SOL    HW116613   1.903   5.524   1.760 -1.0214  0.7975  0.2126
 5454SOL    HW216614   1.923   5.422   1.870 -1.8326 -0.6849 -0.9696
 5455SOL     OW16615   3.110   2.498   1.260  0.7406 -0.1281 -0.0973
 5455SOL    HW116616   3.164   2.492   1.181  1.4701 -0.6393  0.4265
 5455SOL    HW216617   3.027   2.535   1.230  0.6705 -1.1788 -1.2766
 5456SOL     OW16618   1.724   4.172   1.199 -0.3648  0.2323  0.1109
 5456SOL    HW116619   1.666   4.100   1.224  0.6331 -0.6547 -0.0832
 5456SOL    HW216620   1.779   4.136   1.130  1.4645  0.5490  1.3181
 5457SOL     OW16621   1.521   1.878   5.854  0.3422  0.3717  0.4555
 5457SOL    HW116622   1.600   1.834   5.888  1.1313  1.4154  0.0354
 5457SOL    HW216623   1.448   1.826   5.888  1.1991 -0.3980  1.1808
 5458SOL     OW16624   3.317   0.432   4.564 -0.7916 -0.2382 -0.1483
 5458SOL    HW116625   3.381   0.486   4.610 -0.6160  0.6741 -1.3911
 5458SOL    HW216626   3.359   0.347   4.556  0.3064  0.3564 -0.9640
 5459SOL     OW16627   2.041   2.957   4.774 -0.2252 -0.3740 -0.4025
 5459SOL    HW116628   2.120   2.912   4.804  0.6927  2.0435  1.0959
 5459SOL    HW216629   2.053   3.048   4.801 -2.8570  0.4122 -1.5104
 5460SOL     OW16630   0.061   0.727   6.107 -0.2717 -0.1239 -0.0242
 5460SOL    HW116631   0.154   0.725   6.085 -0.5513 -2.1602 -1.3201
 5460SOL    HW216632   0.057   0.712   6.201  0.7066 -0.2653 -0.0029
 5461SOL     OW16633   4.426   5.598   1.998  0.5539  0.8027 -0.8245
 5461SOL    HW116634   4.495   5.606   1.932 -0.2328  1.0742 -1.6188
 5461SOL    HW216635   4.390   5.511   1.986 -0.6974  1.4389 -1.8715
 5462SOL     OW16636   5.933   1.431   4.955 -0.2915 -0.2799 -0.1948
 5462SOL    HW116637   5.850   1.383   4.948 -1.0016  0.8580  0.0946
 5462SOL    HW216638   5.947   1.438   5.050 -1.0698  1.4763 -0.1690
 5463SOL     OW16639   2.329   5.964   5.985  0.1433 -0.4955  0.2669
 5463SOL    HW116640   2.325   5.956   6.081 -1.3040 -2.7624  0.0828
 5463SOL    HW216641   2.349   5.876   5.954  2.7938  0.6133 -1.4963
 5464SOL     OW16642   2.752   2.115   3.941 -0.3271  0.3444 -0.1583
 5464SOL    HW116643   2.696   2.128   4.018  1.0240  1.4053  0.6957
 5464SOL    HW216644   2.841   2.117   3.976  0.3375  1.2848 -1.8065
 5465SOL     OW16645   3.095   5.475   6.090 -0.6817 -0.4471 -0.6680
 5465SOL    HW116646   3.103   5.534   6.165  2.6198  1.1712 -2.0580
 5465SOL    HW216647   3.119   5.389   6.124  0.8517  0.2813  0.1744
 5466SOL     OW16648   4.129   4.971   1.073  0.0648  0.4132  0.1902
 5466SOL    HW116649   4.039   4.960   1.103 -0.7282  0.0513 -2.1480
 5466SOL    HW216650   4.183   4.937   1.145 -1.7510 -1.7682  0.6379
 5467SOL     OW16651   6.305   5.767   1.976 -0.8432 -0.4499 -0.0132
 5467SOL    HW116652   6.360   5.689   1.966  2.5330  1.7533 -0.0390
 5467SOL    HW216653   6.241   5.759   1.905 -0.7560 -3.2442  0.0985
 5468SOL     OW16654   2.545   3.911   1.075  0.4143  0.3126 -0.9529
 5468SOL    HW116655   2.562   4.006   1.080  1.0915  0.1492  0.5573
 5468SOL    HW216656   2.629   3.873   1.049  0.5656  0.0208 -0.0647
 5469SOL     OW16657   3.922   3.586   3.444  0.2506  0.5498 -0.1395
 5469SOL    HW116658   3.833   3.552   3.442  0.0120  1.1896 -0.8564
 5469SOL    HW216659   3.944   3.592   3.537  0.5284 -2.0778  0.0291
 5470SOL     OW16660   4.100   1.820   2.304 -0.1928 -0.3104 -0.1541
 5470SOL    HW116661   4.155   1.744   2.285 -0.8891 -0.5229 -1.4037
 5470SOL    HW216662   4.127   1.847   2.392  2.9680  0.5080 -1.2382
 5471SOL     OW16663   3.777   6.219   3.923 -0.0286 -0.1565 -0.5361
 5471SOL    HW116664   3.857   6.189   3.879  0.1029  0.2962 -0.6034
 5471SOL    HW216665   3.808   6.272   3.996 -0.2513 -0.7375 -0.0065
 5472SOL     OW16666   0.269   3.413   4.895 -0.2352 -0.0524 -0.3584
 5472SOL    HW116667   0.321   3.341   4.930 -1.1403 -0.2536  0.6160
 5472SOL    HW216668   0.219   3.375   4.823  3.7978  0.9677 -4.1569
 5473SOL     OW16669   0.522   3.219   0.583 -0.2442  0.4844  0.4634
 5473SOL    HW116670   0.543   3.250   0.495  1.1951 -0.7551  0.3249
 5473SOL    HW216671   0.567   3.279   0.641  0.8024 -0.0939  0.2646
 5474SOL     OW16672   3.178   0.189   3.112 -0.4291  0.0560  0.0723
 5474SOL    HW116673   3.139   0.220   3.194 -2.0006  1.8229 -1.2270
 5474SOL    HW216674   3.270   0.214   3.118 -0.2960 -0.7273  1.6743
 5475SOL     OW16675   2.073   3.947   3.668  0.2073 -0.4919 -0.2485
 5475SOL    HW116676   2.066   3.940   3.763 -2.1174  0.2076 -0.3066
 5475SOL    HW216677   2.165   3.930   3.649  0.5683 -1.4003  2.0450
 5476SOL     OW16678   0.211   3.198   2.822 -0.2831  0.2349 -0.6754
 5476SOL    HW116679   0.117   3.178   2.821 -0.2407 -0.2218  1.3465
 5476SOL    HW216680   0.215   3.294   2.816 -1.0047  0.4268  1.2818
 5477SOL     OW16681   1.488   2.892   5.783  0.0377  0.0202  0.2360
 5477SOL    HW116682   1.546   2.956   5.824 -2.2065  2.6408 -0.3685
 5477SOL    HW216683   1.486   2.818   5.844  0.2568  1.9017  2.6557
 5478SOL     OW16684   5.215   4.173   3.031  1.2040 -0.1128 -0.4589
 5478SOL    HW116685   5.293   4.184   2.975  0.1881  1.2574 -1.6934
 5478SOL    HW216686   5.175   4.260   3.033 -0.6034 -0.9059 -0.2960
 5479SOL     OW16687   4.792   0.774   0.541  0.3458  0.2797 -0.2310
 5479SOL    HW116688   4.850   0.699   0.527  1.5257  0.7220  1.8749
 5479SOL    HW216689   4.722   0.739   0.596  0.3473  0.5053 -0.0882
 5480SOL     OW16690   0.840   0.784   5.668  0.4962 -0.0179 -0.3835
 5480SOL    HW116691   0.911   0.845   5.688  0.6332 -0.3450  0.1563
 5480SOL    HW216692   0.848   0.766   5.574  2.2743 -1.4875  0.0076
 5481SOL     OW16693   1.203   5.405   1.445 -0.0841  0.2985 -0.3179
 5481SOL    HW116694   1.185   5.472   1.511 -0.5920  0.0188 -0.1657
 5481SOL    HW216695   1.261   5.343   1.489  0.5379  0.7246 -0.5170
 5482SOL     OW16696   4.382   3.975   6.066 -0.7707 -0.0558 -0.3016
 5482SOL    HW116697   4.438   3.948   6.139  1.6789  0.7481 -1.7576
 5482SOL    HW216698   4.389   3.904   6.003 -3.3117 -1.0006  0.3715
 5483SOL     OW16699   4.986   0.432   2.962 -0.2597 -0.2923  0.3856
 5483SOL    HW116700   4.967   0.398   3.049 -3.0483 -0.1232 -0.0703
 5483SOL    HW216701   5.049   0.503   2.977 -2.7835  1.6732  2.6779
 5484SOL     OW16702   5.082   2.975   2.910  0.4473 -0.0272 -0.0425
 5484SOL    HW116703   5.090   3.011   2.822  2.3587 -0.2185  0.0062
 5484SOL    HW216704   5.085   3.052   2.967  0.0011  0.0377 -0.1014
 5485SOL     OW16705   3.212   0.309   0.629  0.0133 -0.1969 -0.9552
 5485SOL    HW116706   3.223   0.221   0.594 -0.1383  0.0703 -1.7047
 5485SOL    HW216707   3.119   0.328   0.616 -0.4505 -0.7608  1.2449
 5486SOL     OW16708   3.975   3.440   6.171 -0.5291 -0.0608  0.2945
 5486SOL    HW116709   3.953   3.486   6.090  0.9302 -0.9610 -0.6537
 5486SOL    HW216710   4.037   3.497   6.215 -1.7221  0.6781  1.0839
 5487SOL     OW16711   0.942   2.479   6.267  0.0705  0.2188  0.3666
 5487SOL    HW116712   0.889   2.456   6.343 -1.5196 -0.5404 -0.9092
 5487SOL    HW216713   0.919   2.571   6.249 -0.6231 -0.0198 -0.0061
 5488SOL     OW16714   5.649   5.537   0.062 -0.4364  0.3939  0.0161
 5488SOL    HW116715   5.582   5.549  -0.005  0.0923 -0.1910 -0.6328
 5488SOL    HW216716   5.646   5.618   0.114 -1.1306  0.6814 -0.4644
 5489SOL     OW16717   1.846   4.614   4.081  0.4980  0.7467 -0.2565
 5489SOL    HW116718   1.937   4.583   4.081 -0.0560 -0.9558 -0.5700
 5489SOL    HW216719   1.800   4.554   4.023 -0.4151  2.9673 -2.0143
 5490SOL     OW16720   2.796   2.072   5.716 -0.5458 -0.5365  0.2103
 5490SOL    HW116721   2.888   2.064   5.741  0.3675 -0.0326 -2.6577
 5490SOL    HW216722   2.772   2.161   5.741  0.9737  0.7061 -2.2743
 5491SOL     OW16723   1.347   0.364   4.460 -0.0587 -0.3101 -0.0632
 5491SOL    HW116724   1.263   0.339   4.423 -0.2217 -0.0903  0.1540
 5491SOL    HW216725   1.327   0.386   4.551  0.5272 -1.9899  0.4981
 5492SOL     OW16726   1.585   1.194   1.610 -0.2075 -0.3179 -0.0116
 5492SOL    HW116727   1.649   1.149   1.555  0.3225  1.3722 -0.8687
 5492SOL    HW216728   1.594   1.287   1.586 -2.3856  0.0816  0.4703
 5493SOL     OW16729   2.704   0.705   2.517  0.1179 -0.6969 -0.4368
 5493SOL    HW116730   2.710   0.653   2.437 -1.2831 -2.5329  0.5686
 5493SOL    HW216731   2.611   0.728   2.523  0.1540 -0.7966  0.7560
 5494SOL     OW16732   6.261   2.784   4.334 -0.1529  0.4964  0.2478
 5494SOL    HW116733   6.215   2.863   4.362 -2.1076 -0.7729  0.8284
 5494SOL    HW216734   6.203   2.744   4.270 -0.2754 -1.5445  1.5568
 5495SOL     OW16735   5.076   5.678   0.577  0.1886  0.3478 -0.2911
 5495SOL    HW116736   5.119   5.754   0.616 -1.3298  1.1268 -0.0577
 5495SOL    HW216737   5.096   5.606   0.636  0.2194  0.9335  0.4292
 5496SOL     OW16738   5.726   4.893   3.238  0.5292 -0.6378 -0.3524
 5496SOL    HW116739   5.659   4.875   3.304  0.2476 -0.2332 -0.5230
 5496SOL    HW216740   5.783   4.959   3.278  0.9156 -1.0835 -0.1528
 5497SOL     OW16741   3.384   3.087   0.761 -0.0802 -0.8684 -0.3648
 5497SOL    HW116742   3.330   3.135   0.698  0.4501 -2.2304 -1.9341
 5497SOL    HW216743   3.344   3.105   0.846 -1.6469 -0.0548 -1.2333
 5498SOL     OW16744   2.152   0.226   0.846 -0.0791  0.3288 -0.3316
 5498SOL    HW116745   2.155   0.161   0.916 -2.1092  1.0170  0.4662
 5498SOL    HW216746   2.178   0.177   0.767 -1.0647 -1.3362  0.3199
 5499SOL     OW16747   5.880   5.334   3.323 -0.1032 -0.1444  0.1816
 5499SOL    HW116748   5.839   5.370   3.402 -1.0767  3.0515 -1.5914
 5499SOL    HW216749   5.973   5.329   3.344 -0.1859  1.7345  1.2180
 5500SOL     OW16750   0.472   4.830   5.430 -0.1790  0.2551  0.1197
 5500SOL    HW116751   0.491   4.845   5.338 -1.1394 -0.3944 -0.2019
 5500SOL    HW216752   0.396   4.887   5.448  0.7537  1.3141  0.8471
 5501SOL     OW16753   2.811   2.538   3.761 -0.4292 -0.1860 -0.7824
 5501SOL    HW116754   2.782   2.514   3.673 -0.0751 -0.5032 -0.8114
 5501SOL    HW216755   2.880   2.602   3.747 -0.2924 -0.3233 -0.7392
 5502SOL     OW16756   0.977   6.200   0.438 -0.2433  0.2176  0.5405
 5502SOL    HW116757   1.055   6.147   0.424  0.2934  1.0684  0.2673
 5502SOL    HW216758   0.908   6.136   0.456  0.0546 -0.6816 -1.2459
 5503SOL     OW16759   5.612   3.082   5.492  0.0116 -0.5012  0.8451
 5503SOL    HW116760   5.554   3.091   5.568 -0.6654  0.0951  0.2658
 5503SOL    HW216761   5.597   3.161   5.440 -2.2327 -2.4303 -1.7456
 5504SOL     OW16762   0.967   5.523   3.502 -0.3841  0.2080  0.1712
 5504SOL    HW116763   1.044   5.562   3.461 -0.4992  0.9613  0.6458
 5504SOL    HW216764   0.899   5.589   3.493 -0.7863 -0.1764  0.3528
 5505SOL     OW16765   3.697   2.081   5.757 -0.0953 -0.2394  0.1942
 5505SOL    HW116766   3.722   2.026   5.831  0.2836 -2.2946 -1.3707
 5505SOL    HW216767   3.643   2.024   5.703 -2.0716  1.8318 -0.1663
 5506SOL     OW16768   5.198   4.526   0.471  0.6935  0.1212  0.1939
 5506SOL    HW116769   5.107   4.505   0.451  1.4567 -1.2730 -2.2111
 5506SOL    HW216770   5.233   4.445   0.508  1.3144  0.1293 -0.3535
 5507SOL     OW16771   0.758   3.180   1.542 -0.5791  0.8552 -0.0910
 5507SOL    HW116772   0.672   3.222   1.532 -0.0328  1.7560 -1.2236
 5507SOL    HW216773   0.764   3.120   1.468 -1.1556 -0.9647  1.2566
 5508SOL     OW16774   1.579   4.510   2.364  0.2914  0.3332 -0.8545
 5508SOL    HW116775   1.517   4.582   2.370 -0.8355 -0.6932  0.7946
 5508SOL    HW216776   1.572   4.465   2.449  2.0765 -0.8084 -1.2520
 5509SOL     OW16777   5.558   0.268   0.372  0.2293  0.1000  0.1632
 5509SOL    HW116778   5.481   0.256   0.317  0.3221  0.4898 -0.0590
 5509SOL    HW216779   5.577   0.181   0.407 -0.2622 -0.0094  0.1569
 5510SOL     OW16780   2.510   0.939   3.234  0.0862 -0.0590  0.2624
 5510SOL    HW116781   2.524   0.846   3.215 -1.9580 -0.2090 -0.7750
 5510SOL    HW216782   2.446   0.939   3.306  1.6451  0.5703  1.7046
 5511SOL     OW16783   5.590   5.283   2.087 -0.0657  0.2582  0.3432
 5511SOL    HW116784   5.599   5.296   2.182 -2.7722 -1.3904  0.9279
 5511SOL    HW216785   5.546   5.199   2.078  0.9649 -0.0875 -2.4749
 5512SOL     OW16786   0.231   4.862   6.182 -0.2120 -0.0419 -0.1532
 5512SOL    HW116787   0.172   4.936   6.194  1.2275  1.3935 -1.4241
 5512SOL    HW216788   0.257   4.838   6.271 -0.3864  1.2684  0.2799
 5513SOL     OW16789   5.210   3.824   6.180  0.1082  0.2683  0.1041
 5513SOL    HW116790   5.305   3.835   6.178  0.5775 -2.0970  2.9837
 5513SOL    HW216791   5.192   3.756   6.116  0.1997  1.2213 -0.9694
 5514SOL     OW16792   5.088   4.895   3.929  0.3999 -0.0801  0.5091
 5514SOL    HW116793   5.164   4.951   3.918  0.7693 -0.7421 -0.4052
 5514SOL    HW216794   5.014   4.956   3.939  0.8986  0.5620  0.3188
 5515SOL     OW16795   4.848   1.362   1.441 -0.7122  0.2061  0.2785
 5515SOL    HW116796   4.825   1.272   1.416 -0.6741  0.0157  0.9127
 5515SOL    HW216797   4.798   1.417   1.381  0.1421 -0.2339 -0.8926
 5516SOL     OW16798   2.748   4.337   1.031 -0.3344  0.2760 -0.0307
 5516SOL    HW116799   2.762   4.264   0.970 -0.5337 -0.0581  0.3248
 5516SOL    HW216800   2.656   4.332   1.055  0.0182 -0.3352  1.2450
 5517SOL     OW16801   0.695   1.274   1.609 -0.1908 -0.6489  0.0791
 5517SOL    HW116802   0.787   1.267   1.581 -0.3545 -1.1643 -0.3252
 5517SOL    HW216803   0.671   1.364   1.588  0.6330 -0.0790  1.4444
 5518SOL     OW16804   0.567   4.938   3.202 -0.4404  0.0118  0.3497
 5518SOL    HW116805   0.527   4.853   3.222  0.7149 -0.5757  0.2150
 5518SOL    HW216806   0.560   4.945   3.107 -2.0844  0.8791  0.4879
 5519SOL     OW16807   3.908   1.124   5.229  0.5830  0.5651 -0.1852
 5519SOL    HW116808   3.969   1.174   5.175  1.0657  0.5071  0.3093
 5519SOL    HW216809   3.936   1.033   5.219  0.9714  0.6053  0.5535
 5520SOL     OW16810   2.323   5.143   1.771 -0.0052  0.1058 -0.6630
 5520SOL    HW116811   2.409   5.172   1.802 -0.9551  1.0100  1.3131
 5520SOL    HW216812   2.285   5.222   1.732 -1.0757  0.5780  1.2174
 5521SOL     OW16813   5.222   3.273   2.011 -0.8094  0.1370  0.6087
 5521SOL    HW116814   5.222   3.240   2.101  1.6087  1.8153  1.3214
 5521SOL    HW216815   5.282   3.215   1.965  0.6241  1.2942  0.9688
 5522SOL     OW16816   1.125   1.605   5.883 -0.2750 -0.4377  0.1635
 5522SOL    HW116817   1.080   1.575   5.804 -0.6139  0.8618 -0.1641
 5522SOL    HW216818   1.063   1.587   5.954 -1.0503  0.6549 -0.1955
 5523SOL     OW16819   1.142   4.221   6.070 -0.2041  0.1279  0.0662
 5523SOL    HW116820   1.171   4.185   5.986 -1.7883  0.0533 -0.4983
 5523SOL    HW216821   1.060   4.174   6.089 -1.0603  1.7146  0.5032
 5524SOL     OW16822   0.124   5.495   4.696  0.2818 -0.3702  0.6439
 5524SOL    HW116823   0.116   5.590   4.704 -2.8448 -0.2879 -1.3409
 5524SOL    HW216824   0.050   5.461   4.747  0.5587 -1.6456  0.2244
 5525SOL     OW16825   1.431   2.162   0.737  0.9744  0.6408  0.5792
 5525SOL    HW116826   1.389   2.216   0.805 -0.2009  1.0988 -0.4676
 5525SOL    HW216827   1.502   2.216   0.703  1.3106  0.5696  1.1477
 5526SOL     OW16828   0.049   6.238   5.726  0.2433  0.0720  0.2192
 5526SOL    HW116829   0.133   6.243   5.772  0.3269  1.2128 -0.0299
 5526SOL    HW216830  -0.001   6.312   5.760 -0.7967 -0.7780  0.5911
 5527SOL     OW16831   3.330   2.885   4.683 -0.2532 -0.1382 -0.3403
 5527SOL    HW116832   3.296   2.903   4.771 -2.4266 -0.9321 -0.9425
 5527SOL    HW216833   3.409   2.834   4.697 -2.1291 -2.8815  1.2360
 5528SOL     OW16834   0.416   2.685   2.844  0.0203 -0.2133 -0.0806
 5528SOL    HW116835   0.369   2.669   2.762 -1.1361 -2.5346  0.9387
 5528SOL    HW216836   0.353   2.732   2.899  0.6978  1.0990 -0.3979
 5529SOL     OW16837   5.247   5.438   2.352  0.3703  0.4512 -0.0314
 5529SOL    HW116838   5.190   5.512   2.376  1.0252  0.4098  1.8353
 5529SOL    HW216839   5.265   5.395   2.435 -0.3577 -2.1194 -1.1327
 5530SOL     OW16840   4.369   3.035   0.691  0.2725 -0.7172  0.0112
 5530SOL    HW116841   4.319   2.974   0.636 -0.5726  0.4802 -0.5907
 5530SOL    HW216842   4.433   2.979   0.735  0.4354 -1.8388 -1.5457
 5531SOL     OW16843   5.505   3.246   5.306 -0.5124 -0.3406 -0.2250
 5531SOL    HW116844   5.490   3.248   5.212  0.4046 -0.5692 -0.3893
 5531SOL    HW216845   5.419   3.232   5.344 -1.3153  2.2390 -0.8872
 5532SOL     OW16846   0.196   1.354   2.834  0.3901  0.7404  0.3230
 5532SOL    HW116847   0.134   1.427   2.830  0.4050  0.7539  0.3410
 5532SOL    HW216848   0.225   1.352   2.925 -1.0125 -0.4374  0.7890
 5533SOL     OW16849   1.184   4.302   4.928  0.0297 -0.1297 -0.0956
 5533SOL    HW116850   1.242   4.357   4.875 -0.0244  0.6500  0.6247
 5533SOL    HW216851   1.112   4.279   4.870  0.3274  0.1131 -0.5676
 5534SOL     OW16852   0.511   4.277   5.562  0.0584  0.6742  0.0939
 5534SOL    HW116853   0.436   4.311   5.610  0.8243  2.1467  0.3129
 5534SOL    HW216854   0.586   4.293   5.620  0.5202 -1.1310  0.0649
 5535SOL     OW16855   4.452   1.007   4.644  0.2914  0.2619 -0.1827
 5535SOL    HW116856   4.369   1.017   4.599  0.2502 -1.5987 -0.5660
 5535SOL    HW216857   4.518   1.025   4.577  0.2049  0.0933 -0.3152
 5536SOL     OW16858   1.379   0.665   5.934 -0.1257 -0.2969  0.3766
 5536SOL    HW116859   1.319   0.605   5.890 -0.7903 -1.0871  2.2804
 5536SOL    HW216860   1.326   0.708   6.001  0.9700  0.4889  0.7731
 5537SOL     OW16861   1.681   3.910   3.692  0.1110 -0.1936  0.1965
 5537SOL    HW116862   1.602   3.918   3.638  0.4643  0.8114 -0.1863
 5537SOL    HW216863   1.744   3.867   3.635  0.3730  0.5504 -0.0837
 5538SOL     OW16864   0.789   3.815   3.376  0.0844  0.2575 -0.2059
 5538SOL    HW116865   0.739   3.737   3.351  2.5764 -0.9524 -1.7480
 5538SOL    HW216866   0.856   3.783   3.436  0.2333  1.5112  0.3413
 5539SOL     OW16867   2.304   5.249   4.323  0.5423 -0.1926 -0.0341
 5539SOL    HW116868   2.338   5.177   4.377  1.5140 -0.2707 -0.7069
 5539SOL    HW216869   2.260   5.205   4.250  2.0713 -0.1596 -1.0248
 5540SOL     OW16870   2.098   0.770   2.721  0.1527  0.3709 -0.5485
 5540SOL    HW116871   2.096   0.860   2.688 -1.8768  0.4201 -0.4285
 5540SOL    HW216872   2.090   0.779   2.816  1.1231  0.0786 -0.4267
 5541SOL     OW16873   1.119   5.335   5.005  0.0174  0.1413  0.0855
 5541SOL    HW116874   1.209   5.357   5.029 -0.5709  1.5428  1.1412
 5541SOL    HW216875   1.082   5.297   5.085 -0.5946  0.4118 -0.0642
 5542SOL     OW16876   3.959   0.893   5.471  0.4042  0.3730  0.6124
 5542SOL    HW116877   3.888   0.927   5.526  1.9316 -1.7158  4.2929
 5542SOL    HW216878   3.925   0.811   5.435  0.2516  0.4335  0.6202
 5543SOL     OW16879   2.054   0.696   0.766 -0.5174  0.2265  0.2560
 5543SOL    HW116880   2.021   0.620   0.812 -1.7325  1.2160  1.0924
 5543SOL    HW216881   2.020   0.687   0.677 -0.0609 -0.5426  0.1524
 5544SOL     OW16882   5.136   1.473   2.043 -0.2048 -0.0809  0.0990
 5544SOL    HW116883   5.051   1.513   2.057  0.1719  0.3442  1.2610
 5544SOL    HW216884   5.127   1.424   1.961 -0.8921  1.8162 -1.0266
 5545SOL     OW16885   0.599   1.895   4.260  0.1849  0.2262  0.4241
 5545SOL    HW116886   0.614   1.977   4.306 -0.4229 -0.1634  1.3364
 5545SOL    HW216887   0.616   1.827   4.325  0.1263 -0.3559 -0.1587
 5546SOL     OW16888   3.889   3.192   1.296  0.3054 -0.0010 -0.0982
 5546SOL    HW116889   3.928   3.258   1.353 -1.9920 -0.1025  1.7355
 5546SOL    HW216890   3.950   3.118   1.300  2.6694  1.7112 -1.8019
 5547SOL     OW16891   5.329   1.060   1.405  0.6294 -0.1224 -0.2719
 5547SOL    HW116892   5.340   1.003   1.328  0.5211 -1.2528  0.5197
 5547SOL    HW216893   5.419   1.078   1.434  0.6783 -2.0247  0.9570
 5548SOL     OW16894   5.344   2.089   1.671  0.2415  0.3868 -0.0954
 5548SOL    HW116895   5.252   2.115   1.671  0.2191  0.4478 -1.6847
 5548SOL    HW216896   5.344   2.003   1.627  0.9209  0.3231  0.0213
 5549SOL     OW16897   2.356   2.246   6.262 -0.2070 -0.3827  0.1078
 5549SOL    HW116898   2.374   2.175   6.324  0.1241 -0.4413 -0.0552
 5549SOL    HW216899   2.265   2.232   6.237 -0.3290 -0.3878  0.5406
 5550SOL     OW16900   3.101   6.063   3.899  0.1939 -0.5163  0.4544
 5550SOL    HW116901   3.090   6.064   3.804  0.5124 -2.8860  0.3259
 5550SOL    HW216902   3.057   5.983   3.927 -0.7774  0.6473  2.4680
 5551SOL     OW16903   5.283   4.573   4.029  0.1499  0.1878 -0.1583
 5551SOL    HW116904   5.324   4.658   4.010  2.1767 -0.4018  1.2456
 5551SOL    HW216905   5.234   4.588   4.110  1.5225 -0.2217  0.7882
 5552SOL     OW16906   2.373   1.608   5.128  0.0694  0.3327 -0.1516
 5552SOL    HW116907   2.451   1.632   5.178 -0.7230  0.4752  1.0578
 5552SOL    HW216908   2.406   1.590   5.040  1.2381  2.1716 -0.1572
 5553SOL     OW16909   0.593   5.264   0.394  0.8793  0.0321  0.3755
 5553SOL    HW116910   0.628   5.278   0.482 -0.3629  0.1593  0.8613
 5553SOL    HW216911   0.512   5.314   0.392  0.5916 -0.4521 -0.6547
 5554SOL     OW16912   5.904   2.527   2.676  0.2830  0.6793 -0.2920
 5554SOL    HW116913   5.890   2.531   2.770 -0.1246 -0.6331 -0.2710
 5554SOL    HW216914   5.953   2.606   2.655  1.7031  0.2775  1.2706
 5555SOL     OW16915   5.812   1.796   4.411 -0.4863 -1.1296  0.4272
 5555SOL    HW116916   5.830   1.877   4.363 -0.7348 -1.5674 -0.4265
 5555SOL    HW216917   5.756   1.746   4.352 -0.6441 -1.7648  1.1096
 5556SOL     OW16918   2.510   1.096   1.582  0.3603 -0.3358  0.5320
 5556SOL    HW116919   2.430   1.047   1.567  0.0747  0.6457 -1.4046
 5556SOL    HW216920   2.578   1.029   1.590 -0.3140 -1.0993  0.0249
 5557SOL     OW16921   3.461   5.981   2.886  0.0162  0.1920 -0.2267
 5557SOL    HW116922   3.438   6.028   2.967 -1.4556  0.1299 -0.5813
 5557SOL    HW216923   3.383   5.929   2.866  0.2092  0.5220 -1.9226
 5558SOL     OW16924   1.273   5.580   1.230  0.0145  0.2583  0.2046
 5558SOL    HW116925   1.220   5.545   1.301 -0.0818 -0.1580 -0.0684
 5558SOL    HW216926   1.222   5.561   1.151  0.6709 -0.3599 -0.0856
 5559SOL     OW16927   4.415   5.186   1.688 -0.0233 -0.1901 -0.1331
 5559SOL    HW116928   4.334   5.146   1.657 -0.1757  0.1773 -0.2153
 5559SOL    HW216929   4.484   5.125   1.662 -0.3577 -1.0010  0.8082
 5560SOL     OW16930   1.241   3.436   6.242 -0.1042  0.7681 -0.0937
 5560SOL    HW116931   1.261   3.477   6.158  0.4390  1.5183  0.3884
 5560SOL    HW216932   1.219   3.509   6.300 -0.1098  0.2902  0.5142
 5561SOL     OW16933   0.682   1.220   5.433 -0.0558 -0.4259  0.1796
 5561SOL    HW116934   0.725   1.217   5.348 -0.5480  1.1588 -0.1678
 5561SOL    HW216935   0.600   1.174   5.421 -1.3320  1.9578 -1.0129
 5562SOL     OW16936   3.701   4.865   5.138 -0.3785 -0.3689  0.3864
 5562SOL    HW116937   3.792   4.877   5.167  1.0014 -3.5797 -2.0751
 5562SOL    HW216938   3.667   4.797   5.195 -0.9565  0.1284  0.6462
 5563SOL     OW16939   4.414   2.025   3.274 -0.2112  0.9957 -0.0716
 5563SOL    HW116940   4.374   1.946   3.238  0.8165  0.5305 -0.2165
 5563SOL    HW216941   4.386   2.025   3.366 -2.1225  1.7284 -0.6010
 5564SOL     OW16942   0.156   1.673   5.098  0.3891 -0.0619  0.1554
 5564SOL    HW116943   0.072   1.629   5.088 -0.1303  1.2516 -1.8695
 5564SOL    HW216944   0.144   1.731   5.173 -1.1311  1.3308 -1.0984
 5565SOL     OW16945   3.635   0.197   0.192  0.2381 -0.0628 -0.9719
 5565SOL    HW116946   3.729   0.210   0.182  0.5387 -0.7311  0.6108
 5565SOL    HW216947   3.627   0.142   0.270 -1.3914 -1.3378 -1.9614
 5566SOL     OW16948   6.294   1.285   0.800  0.3520  0.2268 -0.1255
 5566SOL    HW116949   6.224   1.350   0.792  0.0846 -0.1580 -1.0303
 5566SOL    HW216950   6.349   1.318   0.871  1.0327  2.2332 -1.4710
 5567SOL     OW16951   3.384   2.743   2.176 -0.1337 -0.0852 -0.2287
 5567SOL    HW116952   3.320   2.673   2.166 -1.8966  1.6701 -2.1721
 5567SOL    HW216953   3.421   2.753   2.088  0.8422  0.7507  0.2589
 5568SOL     OW16954   6.203   5.313   5.808 -0.6773  0.5380 -0.1650
 5568SOL    HW116955   6.188   5.224   5.777 -0.6148  0.7463 -0.7946
 5568SOL    HW216956   6.273   5.346   5.753  0.1232  0.5736  0.8402
 5569SOL     OW16957   6.198   5.946   2.716  0.1489 -0.0158 -0.2343
 5569SOL    HW116958   6.237   5.861   2.738  2.3131  1.1836  0.9274
 5569SOL    HW216959   6.212   5.955   2.622  2.3391  0.1323  0.0582
 5570SOL     OW16960   3.309   0.922   1.690  0.0745  0.2328  0.3061
 5570SOL    HW116961   3.399   0.956   1.699  0.5153 -1.0114  0.8199
 5570SOL    HW216962   3.256   0.984   1.740  0.5963  1.1658 -0.2661
 5571SOL     OW16963   2.989   5.055   4.197 -0.4387  0.8743  0.0499
 5571SOL    HW116964   2.990   5.035   4.291  0.6697  1.3028  0.1301
 5571SOL    HW216965   3.036   4.982   4.157 -3.2036 -0.7486 -0.4938
 5572SOL     OW16966   3.717   6.323   1.596 -0.2597 -0.2704 -0.0500
 5572SOL    HW116967   3.635   6.350   1.555  0.7562  0.0810 -1.9228
 5572SOL    HW216968   3.715   6.367   1.682 -1.6239  0.4160 -0.3914
 5573SOL     OW16969   2.014   4.784   3.633  0.1567  0.5675 -0.2683
 5573SOL    HW116970   1.998   4.724   3.706  1.2976 -0.9531 -1.2304
 5573SOL    HW216971   1.929   4.827   3.619  0.0810  1.5475  2.4526
 5574SOL     OW16972   2.942   1.081   1.765  0.2201 -0.1812  0.3119
 5574SOL    HW116973   2.906   1.047   1.847  0.9148 -0.7929  0.3611
 5574SOL    HW216974   3.036   1.086   1.779  0.1419  2.2388  0.4919
 5575SOL     OW16975   5.784   0.442   6.204 -0.3540  0.4454  0.1522
 5575SOL    HW116976   5.797   0.534   6.227 -1.0115  0.4750  0.4224
 5575SOL    HW216977   5.735   0.406   6.278 -0.3174 -0.0619 -0.0682
 5576SOL     OW16978   0.050   1.101   3.285  0.0157 -0.6072  0.8096
 5576SOL    HW116979   0.039   1.023   3.340 -0.0018  0.2654  2.0727
 5576SOL    HW216980  -0.036   1.143   3.285 -0.2342 -1.0435 -0.6371
 5577SOL     OW16981   0.955   5.861   3.169 -0.4261  0.0174 -0.0440
 5577SOL    HW116982   0.966   5.878   3.075 -0.8564  0.8036  0.0398
 5577SOL    HW216983   0.988   5.940   3.212  1.4641 -1.0531  0.5708
 5578SOL     OW16984   6.110   5.180   4.768  0.1615 -0.3189 -0.1245
 5578SOL    HW116985   6.065   5.234   4.703  0.3007  0.3574  0.3355
 5578SOL    HW216986   6.138   5.103   4.719 -0.8533 -0.4150 -0.5803
 5579SOL     OW16987   5.806   2.502   4.859 -0.0271  0.4513 -0.1491
 5579SOL    HW116988   5.815   2.425   4.802  0.5221 -1.0745  1.8708
 5579SOL    HW216989   5.892   2.545   4.854  0.1459  0.1090 -0.1874
 5580SOL     OW16990   3.301   2.043   4.992 -0.0107  0.0208  0.0450
 5580SOL    HW116991   3.251   2.073   4.916 -0.7722 -0.4500  0.3458
 5580SOL    HW216992   3.234   2.011   5.053  0.3724  2.5308  1.9372
 5581SOL     OW16993   0.719   4.339   0.151  0.2727  0.0185  0.0585
 5581SOL    HW116994   0.733   4.290   0.232  0.9885 -2.3492 -1.3848
 5581SOL    HW216995   0.805   4.343   0.110 -0.3526 -0.3424 -1.3621
 5582SOL     OW16996   2.696   3.636   1.939  0.0896  0.3357  0.1122
 5582SOL    HW116997   2.631   3.644   1.870  0.0350  0.6432  0.1966
 5582SOL    HW216998   2.771   3.686   1.908 -0.0338  0.6989  0.3887
 5583SOL     OW16999   0.190   3.631   1.539 -0.1526  0.0962 -0.4848
 5583SOL    HW117000   0.174   3.714   1.494 -0.9401  0.5696  0.6254
 5583SOL    HW217001   0.108   3.583   1.531 -0.4120  0.3190  0.6892
 5584SOL     OW17002   1.303   1.574   4.451 -0.4574 -0.2156 -0.0268
 5584SOL    HW117003   1.216   1.600   4.481 -0.4202  0.4603 -0.4895
 5584SOL    HW217004   1.315   1.620   4.368  0.1523 -0.6756 -0.2038
 5585SOL     OW17005   4.890   1.222   3.206  0.0335  0.4361 -0.4162
 5585SOL    HW117006   4.972   1.236   3.159  0.3346  1.0329  0.2698
 5585SOL    HW217007   4.846   1.307   3.204 -1.1536 -0.1714 -1.8329
 5586SOL     OW17008   4.911   0.901   3.561  0.4745  0.5421  0.0638
 5586SOL    HW117009   5.005   0.904   3.580  0.6526 -1.5342 -0.2454
 5586SOL    HW217010   4.903   0.940   3.475  1.0201  0.9458  0.1888
 5587SOL     OW17011   2.667   4.754   5.179 -0.2399  0.0490 -0.2077
 5587SOL    HW117012   2.661   4.664   5.147  0.5429  0.2384 -0.9569
 5587SOL    HW217013   2.703   4.746   5.267 -1.3686 -0.4336  0.2173
 5588SOL     OW17014   2.159   3.569   2.457  0.4967 -0.0386  0.2757
 5588SOL    HW117015   2.158   3.661   2.483  0.7476 -0.1688  0.7771
 5588SOL    HW217016   2.072   3.552   2.423  0.6936  0.5899 -0.5661
 5589SOL     OW17017   0.074   3.260   1.592 -0.1772 -0.2035  0.3442
 5589SOL    HW117018   0.079   3.169   1.563 -1.0878 -0.7447  1.7962
 5589SOL    HW217019   0.041   3.307   1.516  0.6139 -1.0172 -0.5375
 5590SOL     OW17020   0.750   4.846   3.461 -0.4065  0.0381  0.3621
 5590SOL    HW117021   0.666   4.890   3.476 -0.2898  0.5449 -0.4331
 5590SOL    HW217022   0.761   4.789   3.537 -0.9088  0.8420  1.0512
 5591SOL     OW17023   1.847   6.043   2.479  0.0201 -0.3379 -0.0755
 5591SOL    HW117024   1.858   5.949   2.464 -1.1967 -0.4073 -0.6677
 5591SOL    HW217025   1.872   6.084   2.396 -0.7890 -0.2643 -0.2991
 5592SOL     OW17026   1.905   4.990   1.622  0.0430 -0.5466  0.6417
 5592SOL    HW117027   1.859   5.027   1.697  0.6433 -2.0093  1.7543
 5592SOL    HW217028   1.889   4.896   1.627 -0.3708 -0.6336 -1.3972
 5593SOL     OW17029   4.043   0.049   1.409 -0.1210 -0.3045 -0.2454
 5593SOL    HW117030   4.125   0.008   1.382 -0.5811 -1.1776 -0.3358
 5593SOL    HW217031   3.987  -0.024   1.435 -1.6175  0.0547 -2.1885
 5594SOL     OW17032   2.086   4.858   3.962  0.1929 -0.2344 -0.1300
 5594SOL    HW117033   2.153   4.884   3.899  1.5247 -1.4747  0.7180
 5594SOL    HW217034   2.089   4.762   3.962 -0.2380 -0.2682  1.3278
 5595SOL     OW17035   5.608   5.728   4.836  0.0391  0.0750 -0.2070
 5595SOL    HW117036   5.633   5.792   4.903  0.3530  0.7552 -0.9501
 5595SOL    HW217037   5.690   5.683   4.814  0.0404  0.1961 -0.4658
 5596SOL     OW17038   2.108   2.233   0.093  0.1925  0.7300  0.3042
 5596SOL    HW117039   2.094   2.174   0.019 -0.2121  1.3353 -0.1078
 5596SOL    HW217040   2.082   2.319   0.061 -1.2445  0.8008  1.5355
 5597SOL     OW17041   0.826   0.062   6.344 -0.1026 -0.2801  0.3174
 5597SOL    HW117042   0.862   0.147   6.315 -1.1794  0.4282  0.9980
 5597SOL    HW217043   0.765   0.085   6.414  0.5313 -1.7470  1.3793
 5598SOL     OW17044   5.485   2.432   1.470 -0.0590 -0.2695 -0.5759
 5598SOL    HW117045   5.400   2.403   1.436  0.0376 -0.4329 -0.6814
 5598SOL    HW217046   5.498   2.518   1.431 -0.4453  0.0116 -0.0924
 5599SOL     OW17047   0.524   1.649   0.600  0.1821  0.6797  0.0510
 5599SOL    HW117048   0.453   1.587   0.581  1.3173 -1.7252  2.7918
 5599SOL    HW217049   0.601   1.611   0.558  1.1509 -0.6623  2.7502
 5600SOL     OW17050   2.228   2.146   3.289  0.5604 -0.0474  0.4808
 5600SOL    HW117051   2.182   2.140   3.204 -0.0894  2.1598  0.6213
 5600SOL    HW217052   2.321   2.146   3.266  0.3908  0.6913 -0.2827
 5601SOL     OW17053   4.625   1.973   5.424 -0.2073 -0.3682 -0.4365
 5601SOL    HW117054   4.614   1.887   5.465 -1.3367  0.0249  0.1440
 5601SOL    HW217055   4.589   1.962   5.336  0.6707 -0.7706 -0.7562
 5602SOL     OW17056   1.328   1.086   1.600 -0.7881 -0.6443  0.4150
 5602SOL    HW117057   1.412   1.128   1.615 -0.9464 -0.6389  1.4009
 5602SOL    HW217058   1.273   1.117   1.672 -0.9614 -2.3553  1.0740
 5603SOL     OW17059   4.567   5.524   5.722  0.4739  0.3911 -0.1889
 5603SOL    HW117060   4.536   5.528   5.812  2.8039 -0.4651  0.7174
 5603SOL    HW217061   4.498   5.476   5.676 -0.7558  0.8365  1.1142
 5604SOL     OW17062   3.812   2.986   5.322 -0.3333  0.2922 -0.0649
 5604SOL    HW117063   3.822   2.936   5.241  0.8276  0.7288 -0.2118
 5604SOL    HW217064   3.817   3.077   5.294 -0.6626  0.4605  0.4153
 5605SOL     OW17065   2.436   2.165   0.910  1.0043 -0.0005  0.8098
 5605SOL    HW117066   2.422   2.179   1.003 -0.5708  0.9938  0.4473
 5605SOL    HW217067   2.531   2.151   0.902  0.8704 -2.8279  2.8705
 5606SOL     OW17068   5.217   6.068   2.350  0.1337 -0.1398 -0.5987
 5606SOL    HW117069   5.130   6.098   2.322 -0.9823 -0.3729  2.3175
 5606SOL    HW217070   5.202   5.978   2.379  1.2351  0.0064  0.4503
 5607SOL     OW17071   2.732   2.475   3.498 -0.4215  0.1020 -0.1000
 5607SOL    HW117072   2.790   2.523   3.438 -1.2885  0.7499 -0.4367
 5607SOL    HW217073   2.694   2.406   3.443  0.3281 -0.5970  0.2261
 5608SOL     OW17074   2.862   1.523   2.138  0.5686  0.4080  0.2216
 5608SOL    HW117075   2.896   1.541   2.050  1.7147  0.5784  0.6840
 5608SOL    HW217076   2.936   1.486   2.185 -0.4380 -1.0809  0.6990
 5609SOL     OW17077   3.360   0.652   0.339  0.1304  0.0030 -0.0834
 5609SOL    HW117078   3.392   0.737   0.370 -0.8526  0.0545  0.8579
 5609SOL    HW217079   3.393   0.589   0.403 -0.1651 -0.1689 -0.0979
 5610SOL     OW17080   4.991   0.502   1.893 -0.3918 -0.3277  0.1784
 5610SOL    HW117081   4.909   0.459   1.916 -0.2594 -0.1059  1.1257
 5610SOL    HW217082   5.054   0.431   1.883 -0.1591 -0.3832  1.7942
 5611SOL     OW17083   0.023   3.533   1.945 -0.6786 -0.2103 -0.1008
 5611SOL    HW117084  -0.034   3.458   1.927 -0.4963 -0.4327  0.2509
 5611SOL    HW217085  -0.024   3.608   1.908 -3.0576  0.2554  3.4252
 5612SOL     OW17086   4.942   3.657   3.931 -0.5255 -0.1462  0.0824
 5612SOL    HW117087   4.877   3.598   3.893 -1.1164  0.9762 -0.7311
 5612SOL    HW217088   4.891   3.722   3.979  0.2169 -1.6996  3.1842
 5613SOL     OW17089   3.502   3.224   5.251 -0.3902 -0.2728  0.6642
 5613SOL    HW117090   3.409   3.244   5.254 -0.6254 -1.2965  0.4836
 5613SOL    HW217091   3.514   3.179   5.167  0.5555  1.2284 -0.0429
 5614SOL     OW17092   4.084   4.904   1.650  0.0631  0.3877  0.1992
 5614SOL    HW117093   4.043   4.817   1.639  2.6501 -0.7384 -1.3802
 5614SOL    HW217094   4.120   4.902   1.738 -1.2626  0.5423  0.7782
 5615SOL     OW17095   6.137   0.060   0.143  0.4472 -0.3589 -0.1370
 5615SOL    HW117096   6.190  -0.004   0.095  0.2887 -1.3562  0.9544
 5615SOL    HW217097   6.056   0.012   0.164  0.2958  0.2298  0.6418
 5616SOL     OW17098   0.343   4.452   3.893 -0.3888 -0.3187  0.3457
 5616SOL    HW117099   0.365   4.371   3.939 -2.7305 -1.6154 -0.6497
 5616SOL    HW217100   0.426   4.483   3.859  0.5578 -2.4980  0.4924
 5617SOL     OW17101   5.604   0.479   4.874 -0.4513 -0.1153  0.3290
 5617SOL    HW117102   5.638   0.551   4.821 -0.6102 -0.4077 -0.1690
 5617SOL    HW217103   5.620   0.400   4.823 -2.1485 -0.2460 -0.0848
 5618SOL     OW17104   1.326   3.425   5.825 -0.3039 -0.1202  0.2384
 5618SOL    HW117105   1.239   3.394   5.849  0.6002 -0.5151  3.4063
 5618SOL    HW217106   1.354   3.366   5.755 -1.8188 -1.2371  0.5236
 5619SOL     OW17107   3.634   4.899   0.987 -0.0715  0.1718  0.3157
 5619SOL    HW117108   3.601   4.956   0.918 -0.2848 -1.0837 -0.6441
 5619SOL    HW217109   3.576   4.915   1.061  0.5771  2.0380  0.4747
 5620SOL     OW17110   5.667   3.750   1.480 -0.1957  0.4840  0.1119
 5620SOL    HW117111   5.666   3.800   1.398 -1.4941  1.7105  0.8239
 5620SOL    HW217112   5.753   3.767   1.518  0.4210 -0.1103 -0.9803
 5621SOL     OW17113   3.689   0.925   4.075 -0.3211  0.5033 -0.2588
 5621SOL    HW117114   3.654   0.976   4.002 -1.6735 -0.4322 -0.3113
 5621SOL    HW217115   3.674   0.834   4.050  1.6010  0.0634  0.0426
 5622SOL     OW17116   0.671   5.896   4.368  0.1082  0.0115  0.3120
 5622SOL    HW117117   0.637   5.915   4.455  0.9761  0.8040  0.4804
 5622SOL    HW217118   0.747   5.841   4.383  1.0883  1.2885  0.1468
 5623SOL     OW17119   0.891   4.059   4.476 -0.0143  0.7784 -0.0116
 5623SOL    HW117120   0.806   4.096   4.502 -0.8196 -0.6072 -0.5576
 5623SOL    HW217121   0.921   4.012   4.554 -1.2246 -1.2590 -0.7115
 5624SOL     OW17122   4.697   5.337   0.109 -0.5251  0.8943 -0.0584
 5624SOL    HW117123   4.664   5.263   0.159 -0.6418  1.7953  1.2677
 5624SOL    HW217124   4.716   5.403   0.176 -0.6772  2.1498 -1.2254
 5625SOL     OW17125   3.651   2.795   3.019  0.2816  0.5758 -0.3450
 5625SOL    HW117126   3.587   2.860   3.049 -1.2278 -1.7139  1.8511
 5625SOL    HW217127   3.684   2.756   3.100  0.6534 -1.7915 -1.5511
 5626SOL     OW17128   3.175   2.703   4.137 -0.1384 -0.6656 -0.3695
 5626SOL    HW117129   3.157   2.618   4.096  1.2040 -0.5568 -1.2349
 5626SOL    HW217130   3.243   2.685   4.202 -0.5131 -0.4007  0.1059
 5627SOL     OW17131   2.863   3.845   5.146 -0.2672  0.5187  0.2555
 5627SOL    HW117132   2.890   3.757   5.119  0.1667  0.4815  0.8071
 5627SOL    HW217133   2.938   3.879   5.194 -0.5013  1.1285  0.1924
 5628SOL     OW17134   2.354   0.850   0.370  0.2214  0.3663 -0.7160
 5628SOL    HW117135   2.267   0.863   0.409  0.5348 -0.4874  0.3127
 5628SOL    HW217136   2.402   0.930   0.391  0.1138  0.2708 -0.0755
 5629SOL     OW17137   5.293   1.220   0.096 -0.4378 -0.2630 -0.0880
 5629SOL    HW117138   5.341   1.140   0.074 -0.6221 -0.6797  0.9724
 5629SOL    HW217139   5.220   1.190   0.151 -0.8491  0.5703 -0.1649
 5630SOL     OW17140   5.686   2.992   0.481 -0.7547 -0.0707 -0.5472
 5630SOL    HW117141   5.748   2.951   0.420  1.0270 -1.4121  1.9866
 5630SOL    HW217142   5.602   2.950   0.462  0.0526 -1.4966 -1.1466
 5631SOL     OW17143   2.475   5.961   2.882  0.5184  0.1092 -0.7488
 5631SOL    HW117144   2.548   5.915   2.840 -0.5623 -0.5516 -2.0038
 5631SOL    HW217145   2.424   5.892   2.924 -0.3114  0.3143 -1.3757
 5632SOL     OW17146   2.449   2.139   3.160 -0.1972  0.6014  0.0507
 5632SOL    HW117147   2.444   2.057   3.110 -1.8065 -0.1976  1.4361
 5632SOL    HW217148   2.426   2.207   3.096  1.6053  0.0782 -1.2352
 5633SOL     OW17149   3.469   3.924   0.531  0.4146  0.1654 -0.2644
 5633SOL    HW117150   3.468   3.828   0.532  0.3379  0.1666 -0.1795
 5633SOL    HW217151   3.388   3.949   0.486 -1.2244  0.2128  2.4495
 5634SOL     OW17152   4.845   5.140   1.046  0.0552  0.1416 -0.0379
 5634SOL    HW117153   4.850   5.235   1.040 -1.3326  0.3621  1.5749
 5634SOL    HW217154   4.838   5.122   1.140  0.2995 -1.5651 -0.3057
 5635SOL     OW17155   1.007   0.835   4.961  1.0221  0.4333 -0.0120
 5635SOL    HW117156   0.987   0.778   5.035  0.1392  1.1410  0.3125
 5635SOL    HW217157   0.967   0.919   4.984  1.2238  0.8250 -1.0458
 5636SOL     OW17158   3.419   5.041   1.285  0.1249 -0.0732  0.0291
 5636SOL    HW117159   3.390   4.977   1.220  1.4771 -1.1439  0.4545
 5636SOL    HW217160   3.381   5.012   1.368  0.3905 -0.0777  0.1504
 5637SOL     OW17161   3.059   1.000   5.671  0.2903  0.1074 -0.5748
 5637SOL    HW117162   3.034   1.085   5.707 -0.1773 -0.3851  0.3213
 5637SOL    HW217163   3.047   1.009   5.577 -2.6660  0.1455 -0.3023
 5638SOL     OW17164   0.360   1.703   1.688  0.0281  0.3755  0.0054
 5638SOL    HW117165   0.305   1.683   1.764  0.5930  1.1983  0.6393
 5638SOL    HW217166   0.300   1.747   1.627  0.2236  2.4464  1.2186
 5639SOL     OW17167   1.876   3.991   3.495 -0.2232 -0.2798  0.3145
 5639SOL    HW117168   1.946   3.951   3.546  1.8204  0.5127 -1.7032
 5639SOL    HW217169   1.871   4.081   3.528 -0.9401 -0.5662  1.0352
 5640SOL     OW17170   0.484   2.748   0.409 -0.3868  0.4274  0.6649
 5640SOL    HW117171   0.527   2.711   0.332 -1.9708  0.2082 -0.1517
 5640SOL    HW217172   0.407   2.693   0.422 -1.4176  1.8840  0.9474
 5641SOL     OW17173   4.792   0.969   3.793  0.7289  1.1889 -0.2704
 5641SOL    HW117174   4.861   1.028   3.822  3.3942 -1.7707 -0.0128
 5641SOL    HW217175   4.812   0.952   3.700 -1.0068  1.9285 -0.8181
 5642SOL     OW17176   0.250   5.805   4.215  0.1859  0.1174 -0.5256
 5642SOL    HW117177   0.320   5.832   4.156  1.7706  1.7677  1.9305
 5642SOL    HW217178   0.296   5.764   4.288 -1.5759 -0.4546  0.3018
 5643SOL     OW17179   6.285   0.314   4.815  0.2488  0.0096 -0.0991
 5643SOL    HW117180   6.246   0.359   4.740  1.8479  1.0899 -0.3475
 5643SOL    HW217181   6.256   0.364   4.891  0.5887  0.4217 -0.2307
 5644SOL     OW17182   4.432   1.436   0.352 -0.4271  0.8798  0.1011
 5644SOL    HW117183   4.363   1.384   0.394  0.8488 -0.9661  0.0270
 5644SOL    HW217184   4.496   1.372   0.324  1.3510  2.5434  0.1826
 5645SOL     OW17185   5.086   1.355   1.553  0.3971 -0.1493  0.7438
 5645SOL    HW117186   5.145   1.346   1.479  1.4784  1.9071  1.2742
 5645SOL    HW217187   4.998   1.353   1.515  0.9305  1.0890 -0.6409
 5646SOL     OW17188   5.632   5.052   0.471  0.3811 -0.0741 -0.3673
 5646SOL    HW117189   5.709   5.055   0.528  0.8220 -0.9888 -0.8839
 5646SOL    HW217190   5.668   5.054   0.382 -0.2904  1.2385 -0.6245
 5647SOL     OW17191   2.857   0.379   0.770  0.3567 -0.6545  0.3693
 5647SOL    HW117192   2.890   0.469   0.768  0.7145 -0.7444  1.5020
 5647SOL    HW217193   2.762   0.388   0.765  0.3624 -0.1739  0.9692
 5648SOL     OW17194   1.128   0.718   2.657  0.5477  0.6451 -0.3118
 5648SOL    HW117195   1.101   0.797   2.704  0.1069  0.3021  0.0175
 5648SOL    HW217196   1.047   0.672   2.638  0.8970 -1.2820  2.2317
 5649SOL     OW17197   0.129   2.287   5.214  0.1038 -0.1835  0.3688
 5649SOL    HW117198   0.093   2.306   5.301 -2.0658  1.2017 -0.7294
 5649SOL    HW217199   0.145   2.193   5.214  0.0304 -0.2239  2.2068
 5650SOL     OW17200   4.207   1.101   4.493 -0.7926  0.1794 -0.0379
 5650SOL    HW117201   4.216   1.173   4.430  0.7142 -1.5375 -1.9331
 5650SOL    HW217202   4.123   1.061   4.472  0.0816 -0.9220 -1.6748
 5651SOL     OW17203   1.512   2.080   4.951  0.5489 -0.5758  0.2880
 5651SOL    HW117204   1.505   1.985   4.947  1.1716 -0.6622  0.9374
 5651SOL    HW217205   1.446   2.112   4.890  0.8611 -1.4391 -0.5299
 5652SOL     OW17206   4.826   3.868   5.759  0.0826 -0.0661 -0.1479
 5652SOL    HW117207   4.783   3.797   5.712 -1.4508  1.0598 -0.5380
 5652SOL    HW217208   4.795   3.860   5.849  0.0824 -0.0143 -0.1435
 5653SOL     OW17209   6.046   4.122   5.094  0.4042 -0.8305 -0.3504
 5653SOL    HW117210   6.112   4.183   5.061 -0.4964  0.4625  0.1461
 5653SOL    HW217211   6.082   4.035   5.076  0.9025 -0.1861 -2.7590
 5654SOL     OW17212   0.394   5.775   1.081 -0.2197  0.2860  0.3532
 5654SOL    HW117213   0.392   5.870   1.069  0.7644  0.2639 -0.0662
 5654SOL    HW217214   0.337   5.759   1.156  0.1759  1.2780  0.8819
 5655SOL     OW17215   1.928   2.410   1.192  0.1802  0.3384 -0.1267
 5655SOL    HW117216   1.886   2.484   1.236 -0.1121 -0.4705  0.9864
 5655SOL    HW217217   2.020   2.436   1.184  0.1018  0.7803  0.3566
 5656SOL     OW17218   1.102   1.246   5.732  0.4942 -0.1320  0.4507
 5656SOL    HW117219   1.035   1.314   5.725  1.2328  0.3946 -2.8839
 5656SOL    HW217220   1.108   1.208   5.645  2.0338 -2.6628  1.5392
 5657SOL     OW17221   1.200   3.257   4.731  0.0867  0.1745  0.2113
 5657SOL    HW117222   1.176   3.229   4.643  0.1669 -0.7170  0.4705
 5657SOL    HW217223   1.221   3.176   4.778  0.4599  0.6739  0.9279
 5658SOL     OW17224   5.681   6.017   0.159 -0.2707 -0.0776  0.1772
 5658SOL    HW117225   5.742   5.974   0.100  0.2216  1.1666 -0.2424
 5658SOL    HW217226   5.603   5.962   0.157  0.1356 -0.6384 -0.7743
 5659SOL     OW17227   3.643   3.708   0.851  0.1862  0.1691  0.2337
 5659SOL    HW117228   3.731   3.672   0.865  0.1784  0.5773  1.4831
 5659SOL    HW217229   3.658   3.802   0.835 -0.0867  0.6142  2.2637
 5660SOL     OW17230   5.125   6.077   5.284 -0.3752  0.1670 -0.0925
 5660SOL    HW117231   5.212   6.115   5.270  0.5817 -0.9722  2.1530
 5660SOL    HW217232   5.140   5.982   5.277 -1.9210  0.0175 -1.8617
 5661SOL     OW17233   4.685   0.841   0.022  0.5048  0.2392  0.0132
 5661SOL    HW117234   4.747   0.818  -0.046  0.8751  0.6560  0.2063
 5661SOL    HW217235   4.707   0.784   0.096  0.6658  0.3974  0.0867
 5662SOL     OW17236   2.956   4.625   3.728 -0.1845 -0.7588  0.4476
 5662SOL    HW117237   3.036   4.648   3.774 -0.3236  0.0428  0.3007
 5662SOL    HW217238   2.910   4.708   3.716 -0.7373 -1.1228 -0.0246
 5663SOL     OW17239   5.617   4.465   1.808  0.2503 -0.3300 -0.1889
 5663SOL    HW117240   5.603   4.378   1.845 -1.6429  0.0914  0.1495
 5663SOL    HW217241   5.542   4.516   1.836  2.1434  1.9533  1.0780
 5664SOL     OW17242   2.187   0.574   3.990 -0.1513  0.4457 -0.5033
 5664SOL    HW117243   2.155   0.661   4.015  0.0424  0.7531 -1.2920
 5664SOL    HW217244   2.142   0.514   4.049 -0.4022  1.0662 -0.0485
 5665SOL     OW17245   2.955   2.938   0.868 -0.0094 -0.0681  0.4967
 5665SOL    HW117246   2.875   2.895   0.836  0.2821  0.6208 -1.2926
 5665SOL    HW217247   2.993   2.876   0.929 -0.6267 -1.5156 -0.5356
 5666SOL     OW17248   2.358   1.155   1.033  0.1125  0.4247  0.5686
 5666SOL    HW117249   2.426   1.222   1.035  0.8091 -0.2794  1.0485
 5666SOL    HW217250   2.358   1.119   1.122 -1.7819  1.2818  0.9573
 5667SOL     OW17251   2.430   1.054   1.276 -0.4340 -0.7649  0.4802
 5667SOL    HW117252   2.485   1.113   1.328  0.1584 -0.0179 -0.9425
 5667SOL    HW217253   2.343   1.060   1.316  0.1702 -0.8306  1.8499
 5668SOL     OW17254   3.254   0.537   0.762  0.1201  0.4591 -0.0030
 5668SOL    HW117255   3.342   0.548   0.797 -0.1122  1.3748  0.3039
 5668SOL    HW217256   3.251   0.446   0.732 -0.1976 -1.0155  3.9163
 5669SOL     OW17257   0.560   1.761   4.820  0.4856 -0.2955 -0.4775
 5669SOL    HW117258   0.517   1.821   4.760 -0.0666 -1.6212 -1.4561
 5669SOL    HW217259   0.492   1.733   4.880  0.5171 -0.6793 -0.6208
 5670SOL     OW17260   1.273   1.763   5.365 -0.1336  0.2572 -0.3113
 5670SOL    HW117261   1.310   1.794   5.448 -0.7583  2.7119 -0.8725
 5670SOL    HW217262   1.346   1.769   5.304  0.5324 -2.2492  0.1292
 5671SOL     OW17263   1.627   3.663   5.802 -0.4540  0.1974 -0.0886
 5671SOL    HW117264   1.579   3.717   5.739  1.2508  1.5815 -0.2769
 5671SOL    HW217265   1.666   3.594   5.749 -1.6493 -0.5605 -0.0255
 5672SOL     OW17266   0.524   5.728   5.503  0.1218  0.3594 -0.2073
 5672SOL    HW117267   0.578   5.807   5.510 -0.2450  0.5717  0.2896
 5672SOL    HW217268   0.584   5.661   5.472  0.2538  1.0262 -1.4642
 5673SOL     OW17269   4.089   5.712   2.011  0.2691 -0.0088 -0.3902
 5673SOL    HW117270   4.052   5.770   1.945  0.5857  0.3575 -0.2521
 5673SOL    HW217271   4.065   5.752   2.095  0.4095 -0.1246 -0.2930
 5674SOL     OW17272   5.943   5.916   2.854 -0.1773  0.1452  0.4212
 5674SOL    HW117273   5.921   5.862   2.931  0.3141  1.6948  1.7122
 5674SOL    HW217274   6.032   5.946   2.871 -0.1171  0.6405 -0.7055
 5675SOL     OW17275   1.837   0.000   4.292 -0.1864  0.1011  0.6688
 5675SOL    HW117276   1.831  -0.095   4.303 -1.1460  0.0159 -0.4561
 5675SOL    HW217277   1.785   0.036   4.364 -0.1352 -0.2290  0.8732
 5676SOL     OW17278   2.955   3.745   3.761 -0.0297 -0.4925 -0.4603
 5676SOL    HW117279   3.008   3.667   3.744 -1.3060 -1.1332 -1.6879
 5676SOL    HW217280   3.004   3.817   3.720  1.7192 -0.3859  1.6383
 5677SOL     OW17281   4.858   1.836   3.177 -0.1594  0.3353  0.0084
 5677SOL    HW117282   4.922   1.901   3.204 -1.1620  2.0746 -1.6083
 5677SOL    HW217283   4.789   1.841   3.244  0.5401 -0.2846  0.7895
 5678SOL     OW17284   4.995   3.337   6.000  0.1930  0.9511  0.0011
 5678SOL    HW117285   5.089   3.353   5.992  0.2746  0.2267 -0.5867
 5678SOL    HW217286   4.954   3.416   5.965  0.5796  0.4585 -1.6111
 5679SOL     OW17287   0.516   2.475   1.162 -0.4903  0.6160 -0.2056
 5679SOL    HW117288   0.434   2.486   1.210  0.3847  1.4829  1.1665
 5679SOL    HW217289   0.584   2.495   1.226  0.8700 -1.4788 -0.9032
 5680SOL     OW17290   2.420   6.178   2.708  0.2362 -0.3659  0.1664
 5680SOL    HW117291   2.368   6.226   2.771  0.5517 -0.2579  0.3455
 5680SOL    HW217292   2.437   6.093   2.750  1.0704 -0.0239  0.5433
 5681SOL     OW17293   3.963   5.395   2.810  0.1700 -0.7091 -0.2346
 5681SOL    HW117294   4.024   5.469   2.804 -0.3585 -0.1887  0.5280
 5681SOL    HW217295   3.876   5.435   2.804 -0.1097 -1.4075 -0.9911
 5682SOL     OW17296   4.741   1.340   2.131 -0.2352  0.4297  0.2954
 5682SOL    HW117297   4.793   1.346   2.050  1.2283  1.3946  1.2574
 5682SOL    HW217298   4.658   1.301   2.103  0.1555  0.9126 -1.7027
 5683SOL     OW17299   2.700   0.050   2.187 -0.1466 -0.0118 -0.0357
 5683SOL    HW117300   2.754   0.033   2.110  1.1162  0.2805  0.7648
 5683SOL    HW217301   2.613   0.017   2.163  0.2474 -0.0034 -1.5400
 5684SOL     OW17302   2.327   3.901   4.246  0.4191  0.3166 -0.5573
 5684SOL    HW117303   2.394   3.883   4.180  1.5104 -0.4879  0.7139
 5684SOL    HW217304   2.376   3.926   4.324 -0.8059  0.5008  0.1898
 5685SOL     OW17305   2.674   5.833   0.419 -0.2414 -0.3048 -0.0608
 5685SOL    HW117306   2.733   5.880   0.360  0.2981 -1.3068 -0.3384
 5685SOL    HW217307   2.717   5.748   0.434  0.2682  0.3659  2.7933
 5686SOL     OW17308   6.039   3.766   0.452  0.1181 -0.1191  0.3281
 5686SOL    HW117309   6.067   3.675   0.437  0.4629  0.0744 -0.2620
 5686SOL    HW217310   6.120   3.813   0.471 -0.2788 -0.3152  2.8380
 5687SOL     OW17311   2.730   4.358   2.759  0.4892  0.0002 -0.1215
 5687SOL    HW117312   2.739   4.276   2.809  1.4688  0.9706  1.3787
 5687SOL    HW217313   2.801   4.413   2.792  1.8263  0.3896 -3.3034
 5688SOL     OW17314   1.773   6.067   4.920 -0.5241 -0.5030  0.5571
 5688SOL    HW117315   1.829   6.122   4.975 -0.6737 -0.1944  0.4015
 5688SOL    HW217316   1.685   6.104   4.930 -0.7714 -1.2084  1.0915
 5689SOL     OW17317   0.132   4.875   1.544 -0.6057  0.1167  0.1930
 5689SOL    HW117318   0.124   4.891   1.638 -1.0013 -0.9980  0.3660
 5689SOL    HW217319   0.225   4.887   1.525 -0.0293 -2.1154  1.2464
 5690SOL     OW17320   1.649   5.460   2.694  0.6221  0.4973 -0.3821
 5690SOL    HW117321   1.663   5.399   2.621 -2.5477 -1.6341  0.5993
 5690SOL    HW217322   1.596   5.530   2.656 -1.9945 -1.1728 -0.0443
 5691SOL     OW17323   3.296   2.241   5.756 -0.1965 -0.3129 -0.4958
 5691SOL    HW117324   3.353   2.250   5.680 -0.4401  1.4776 -0.5156
 5691SOL    HW217325   3.352   2.260   5.831 -0.5951  0.8961 -0.4756
 5692SOL     OW17326   4.142   1.356   4.324 -0.0650  0.4463 -0.2916
 5692SOL    HW117327   4.145   1.451   4.335  0.2192  0.3900  0.1170
 5692SOL    HW217328   4.096   1.343   4.241 -1.4361  0.8961  0.3775
 5693SOL     OW17329   3.864   4.262   6.291 -0.0607  0.5477 -0.0202
 5693SOL    HW117330   3.814   4.327   6.340 -0.7354  0.6031 -0.7651
 5693SOL    HW217331   3.811   4.245   6.213 -0.6955 -1.9910  0.8374
 5694SOL     OW17332   3.625   6.193   0.094 -0.5251  0.7804  0.4792
 5694SOL    HW117333   3.539   6.211   0.133 -0.7910  0.9944 -0.2033
 5694SOL    HW217334   3.669   6.278   0.093 -0.4801  0.7561  0.4019
 5695SOL     OW17335   0.726   3.946   1.822  0.0159 -0.8376  0.1598
 5695SOL    HW117336   0.636   3.976   1.808  0.1665 -0.9673 -1.3019
 5695SOL    HW217337   0.756   3.994   1.899 -1.1673 -0.4786  0.4144
 5696SOL     OW17338   2.962   3.924   1.196  0.3316 -0.8620 -0.0404
 5696SOL    HW117339   2.894   3.886   1.141 -0.0408  0.5189 -0.5833
 5696SOL    HW217340   3.041   3.922   1.142 -0.1953  1.1841 -1.0057
 5697SOL     OW17341   3.500   3.634   5.902 -0.0740 -0.2446  0.9351
 5697SOL    HW117342   3.521   3.548   5.864  0.0652  0.2221 -0.0699
 5697SOL    HW217343   3.419   3.660   5.859  0.0229  0.2454  1.0405
 5698SOL     OW17344   2.155   1.398   0.313 -0.0475  0.3035 -0.2303
 5698SOL    HW117345   2.221   1.329   0.316  0.5208  0.8571  0.1351
 5698SOL    HW217346   2.111   1.393   0.398  1.0700  1.4127  0.4543
 5699SOL     OW17347   3.045   2.086   5.223  0.2474  0.3562  0.1134
 5699SOL    HW117348   3.079   2.169   5.257 -0.5544  1.2613 -1.2105
 5699SOL    HW217349   2.983   2.058   5.290  4.2832 -2.0614  3.3201
 5700SOL     OW17350   5.787   5.825   0.517 -0.4849  0.0286  0.2486
 5700SOL    HW117351   5.804   5.855   0.606 -1.8383  1.7674 -0.0205
 5700SOL    HW217352   5.861   5.769   0.495 -0.0251 -0.2623  2.3759
 5701SOL     OW17353   5.533   1.063   3.590 -0.2021  0.0325  0.0105
 5701SOL    HW117354   5.626   1.088   3.593  0.0683 -0.6118 -1.6635
 5701SOL    HW217355   5.524   0.994   3.656  0.3884  0.4430  0.5324
 5702SOL     OW17356   0.115   4.220   6.254 -0.8110  0.0024  0.0131
 5702SOL    HW117357   0.104   4.181   6.341 -0.0642 -1.5252 -0.5332
 5702SOL    HW217358   0.209   4.237   6.247 -0.7718 -0.4481 -0.6975
 5703SOL     OW17359   1.740   5.155   3.331 -0.8746  0.3976  0.4467
 5703SOL    HW117360   1.681   5.083   3.309  1.4367 -0.9907 -1.8220
 5703SOL    HW217361   1.734   5.216   3.258 -1.3530  1.5772  1.4233
 5704SOL     OW17362   0.047   6.236   3.219  0.7522 -0.2072  0.1974
 5704SOL    HW117363   0.022   6.284   3.299 -0.4421 -0.4537 -0.0054
 5704SOL    HW217364   0.098   6.162   3.251 -0.3710 -0.7427  0.8235
 5705SOL     OW17365   2.285   1.274   2.886 -0.1181  0.1383 -0.0918
 5705SOL    HW117366   2.333   1.202   2.926 -0.4214  0.7304  1.4122
 5705SOL    HW217367   2.200   1.236   2.863 -0.0570 -0.1355  0.1251
 5706SOL     OW17368   0.772   3.473   3.912  0.2806 -0.4067  0.7355
 5706SOL    HW117369   0.729   3.415   3.849 -2.4115  0.4586  1.6272
 5706SOL    HW217370   0.794   3.551   3.861  1.0011 -0.9291  0.2262
 5707SOL     OW17371   2.012   0.377   6.232  0.7915 -0.1332  0.3580
 5707SOL    HW117372   2.077   0.307   6.231  0.4565 -0.4482  0.2031
 5707SOL    HW217373   2.060   0.454   6.203  0.7922 -0.6559 -1.1709
 5708SOL     OW17374   4.034   4.595   5.253  0.1740  0.2376  0.3026
 5708SOL    HW117375   3.977   4.521   5.272 -1.3438  0.8971 -1.2988
 5708SOL    HW217376   4.109   4.584   5.311 -0.5315 -1.9107  0.9012
 5709SOL     OW17377   5.009   1.675   3.594  0.0188  0.2468 -0.0864
 5709SOL    HW117378   5.005   1.637   3.506  1.1820  1.5115 -0.7168
 5709SOL    HW217379   5.039   1.603   3.649  3.2061  0.4165 -1.4142
 5710SOL     OW17380   2.140   0.129   1.538  0.5629  0.0180 -0.6291
 5710SOL    HW117381   2.120   0.079   1.617 -1.1008  0.8829 -0.4755
 5710SOL    HW217382   2.062   0.123   1.484  1.0461  0.8498 -1.4618
 5711SOL     OW17383   2.798   4.373   4.115 -0.6662 -0.2181  0.0595
 5711SOL    HW117384   2.714   4.370   4.162 -0.2043 -0.5106  0.8884
 5711SOL    HW217385   2.842   4.451   4.150 -1.0646  0.6167 -1.2281
 5712SOL     OW17386   5.931   3.467   2.219 -0.3393  0.0323  0.2227
 5712SOL    HW117387   5.888   3.400   2.165 -0.0153  0.2605 -0.3299
 5712SOL    HW217388   5.897   3.550   2.185  0.9070  0.2445 -0.5744
 5713SOL     OW17389   2.632   1.449   6.196  0.6458  0.7758  0.2286
 5713SOL    HW117390   2.615   1.355   6.199 -1.0268  1.0249 -0.4328
 5713SOL    HW217391   2.694   1.461   6.124 -0.1786  0.3060 -0.5762
 5714SOL     OW17392   0.970   4.328   1.700 -0.0516  0.6257  0.0223
 5714SOL    HW117393   1.036   4.398   1.701  0.7936 -0.0751 -1.6780
 5714SOL    HW217394   0.888   4.373   1.682  0.2023  1.3556  0.6100
 5715SOL     OW17395   0.876   4.131   6.161  0.4406 -0.0936 -0.3861
 5715SOL    HW117396   0.899   4.046   6.123  1.3478 -0.1483  0.2425
 5715SOL    HW217397   0.805   4.112   6.222  0.7613 -0.4451 -0.1138
 5716SOL     OW17398   5.842   0.676   6.317  0.0370  0.5922 -0.1803
 5716SOL    HW117399   5.891   0.686   6.398  1.7131  1.4127 -1.2263
 5716SOL    HW217400   5.753   0.704   6.338 -0.1052 -1.2164  1.8562
 5717SOL     OW17401   0.614   1.597   0.135 -0.4135 -0.1440 -0.4292
 5717SOL    HW117402   0.614   1.689   0.161 -1.6293  0.0883 -1.1932
 5717SOL    HW217403   0.669   1.554   0.201  0.7106  1.2111 -0.4331
 5718SOL     OW17404   1.878   1.756   5.285  0.3418  0.2009  0.1785
 5718SOL    HW117405   1.822   1.814   5.233  2.2881  1.6488 -0.4189
 5718SOL    HW217406   1.871   1.789   5.375  0.4565  0.5625  0.0551
 5719SOL     OW17407   1.131   4.894   1.877 -0.0400 -0.4670  0.0237
 5719SOL    HW117408   1.173   4.809   1.887 -0.1473 -0.5068  0.1464
 5719SOL    HW217409   1.044   4.882   1.915 -0.5284 -0.6701 -1.1004
 5720SOL     OW17410   2.095   0.125   2.732 -0.2827 -0.7759 -0.2647
 5720SOL    HW117411   2.073   0.044   2.688 -0.4005 -0.0635 -1.5579
 5720SOL    HW217412   2.175   0.155   2.689 -0.8307  0.3310 -0.5513
 5721SOL     OW17413   4.093   0.300   0.821  0.4950 -0.0690  0.3931
 5721SOL    HW117414   4.107   0.216   0.777  0.9683  0.4330 -0.4331
 5721SOL    HW217415   3.998   0.312   0.822  0.4608 -0.2824 -0.1210
 5722SOL     OW17416   3.607   4.839   4.217 -0.5308  0.2348 -0.1982
 5722SOL    HW117417   3.662   4.783   4.272  0.2627  1.0975 -0.0993
 5722SOL    HW217418   3.526   4.848   4.268 -1.0865 -1.6315 -0.6759
 5723SOL     OW17419   3.896   1.607   5.881  0.1022  0.0416 -0.0396
 5723SOL    HW117420   3.925   1.549   5.952 -1.6051 -1.5398 -0.5533
 5723SOL    HW217421   3.951   1.584   5.807  0.6182  0.3522  0.2425
 5724SOL     OW17422   1.600   5.950   3.992 -0.1403 -0.4923 -0.7921
 5724SOL    HW117423   1.670   5.887   4.010  0.9712 -0.2018 -3.6470
 5724SOL    HW217424   1.646   6.033   3.974 -1.2647 -0.0177 -1.6151
 5725SOL     OW17425   4.912   1.565   6.238 -0.5592 -0.0317  0.1707
 5725SOL    HW117426   4.965   1.597   6.166  0.8591 -1.3744  0.5579
 5725SOL    HW217427   4.926   1.470   6.238  0.4716  0.0310  2.9085
 5726SOL     OW17428   0.367   0.856   2.834 -0.2422 -0.4412 -0.3917
 5726SOL    HW117429   0.352   0.886   2.745  0.6339 -0.8797 -0.6924
 5726SOL    HW217430   0.365   0.935   2.887  3.9039  0.5402 -1.3932
 5727SOL     OW17431   0.899   3.322   6.327  0.2324  0.2364  0.1822
 5727SOL    HW117432   0.804   3.312   6.320  0.1715  0.8943  0.0230
 5727SOL    HW217433   0.934   3.253   6.271 -0.2006  2.6776 -3.4022
 5728SOL     OW17434   4.530   5.169   5.392 -0.8741  0.1038  0.2425
 5728SOL    HW117435   4.547   5.080   5.424 -1.1874 -0.5796 -1.3862
 5728SOL    HW217436   4.600   5.222   5.430 -0.1860 -1.0009  0.5739
 5729SOL     OW17437   3.136   2.341   5.281 -0.2829  0.1691  0.3444
 5729SOL    HW117438   3.093   2.426   5.295 -3.0340 -0.6799 -1.8648
 5729SOL    HW217439   3.203   2.359   5.215 -1.0545  0.5985 -0.3458
 5730SOL     OW17440   3.360   5.641   1.550  0.4504 -1.0833 -0.4938
 5730SOL    HW117441   3.298   5.689   1.605  2.0605  2.4879 -1.4920
 5730SOL    HW217442   3.306   5.600   1.483 -1.0723 -1.0032  0.6246
 5731SOL     OW17443   4.238   3.065   4.180  0.1233 -0.2593 -0.7121
 5731SOL    HW117444   4.300   2.996   4.157  0.3573  0.0733 -1.0942
 5731SOL    HW217445   4.291   3.131   4.225  0.0377 -0.0012 -0.9875
 5732SOL     OW17446   6.019   2.312   0.950  0.1108 -0.1198  0.1562
 5732SOL    HW117447   6.034   2.251   1.023 -1.1071  0.2268  0.7281
 5732SOL    HW217448   5.955   2.268   0.894 -0.5037  0.4497  0.3837
 5733SOL     OW17449   0.112   6.153   6.078 -0.5863 -0.1511  0.0183
 5733SOL    HW117450   0.177   6.099   6.034 -0.2133 -0.2304  0.6585
 5733SOL    HW217451   0.028   6.114   6.053 -0.4739  0.5948 -1.6825
 5734SOL     OW17452   4.991   3.999   6.181  0.2113 -0.3151 -0.6296
 5734SOL    HW117453   5.006   4.011   6.087  2.1490  0.3617 -0.2708
 5734SOL    HW217454   5.060   3.939   6.209 -0.1973 -0.3224  0.4107
 5735SOL     OW17455   2.683   1.585   1.719 -0.0165 -0.3911  0.3234
 5735SOL    HW117456   2.692   1.511   1.659 -0.3315  1.3127 -1.9616
 5735SOL    HW217457   2.768   1.629   1.716 -0.3782  0.3082  0.3001
 5736SOL     OW17458   2.249   5.669   4.004 -0.4122 -0.7681  0.2927
 5736SOL    HW117459   2.224   5.635   3.918  0.5754  0.5972 -0.5821
 5736SOL    HW217460   2.242   5.594   4.063  0.8250 -2.2621 -1.3564
 5737SOL     OW17461   4.340   1.627   5.680  0.3643  0.2413 -0.4265
 5737SOL    HW117462   4.295   1.699   5.635 -0.3868  0.2007  0.2395
 5737SOL    HW217463   4.428   1.627   5.642  0.2408  1.2251 -0.7520
 5738SOL     OW17464   2.392   0.506   5.394  0.0577 -0.5294  0.0719
 5738SOL    HW117465   2.438   0.429   5.361  2.3361  0.1466  1.4084
 5738SOL    HW217466   2.405   0.504   5.488 -0.3677  1.1503  0.2090
 5739SOL     OW17467   5.686   2.547   2.029  0.7532  0.1677  0.2191
 5739SOL    HW117468   5.759   2.554   1.968 -0.3240  0.9233 -1.0452
 5739SOL    HW217469   5.610   2.534   1.973 -0.6180  3.0459  1.2117
 5740SOL     OW17470   4.189   2.199   4.940 -0.0484 -0.1990  0.6000
 5740SOL    HW117471   4.275   2.173   4.972  0.6351  1.6177  0.3721
 5740SOL    HW217472   4.130   2.131   4.972  1.1846 -0.5226  2.3498
 5741SOL     OW17473   0.464   2.362   0.236  0.5891  0.1628  0.0219
 5741SOL    HW117474   0.385   2.341   0.186 -0.0417  1.8685  0.2270
 5741SOL    HW217475   0.475   2.288   0.295 -0.1477 -0.6794 -0.8580
 5742SOL     OW17476   4.465   3.474   2.681  0.2673  0.3727  0.3533
 5742SOL    HW117477   4.508   3.530   2.746  1.2628  0.4952 -0.4058
 5742SOL    HW217478   4.532   3.457   2.615  0.1836 -2.1440  0.8057
 5743SOL     OW17479   1.208   1.356   0.794  0.4414 -0.1509 -0.2393
 5743SOL    HW117480   1.166   1.303   0.726 -0.0775 -2.0892  1.5209
 5743SOL    HW217481   1.285   1.394   0.750  0.5108 -1.8927 -1.7264
 5744SOL     OW17482   5.606   3.966   1.948  0.9321 -0.2746  0.2328
 5744SOL    HW117483   5.628   3.894   1.888  1.6122  0.7040 -0.7497
 5744SOL    HW217484   5.530   4.008   1.908  1.4175  0.4135 -0.0005
 5745SOL     OW17485   3.624   2.339   0.424 -0.0726  0.4561  0.5942
 5745SOL    HW117486   3.540   2.359   0.383 -0.0794  0.2018  0.4839
 5745SOL    HW217487   3.625   2.244   0.431  1.0917  0.2854 -1.3007
 5746SOL     OW17488   4.464   3.806   1.062  0.5532 -0.4061 -0.1236
 5746SOL    HW117489   4.422   3.879   1.015  0.6783 -0.2596 -0.0085
 5746SOL    HW217490   4.518   3.763   0.996  1.6674  0.5223  0.1659
 5747SOL     OW17491   4.790   5.383   1.925  0.6049  0.1068  0.2234
 5747SOL    HW117492   4.769   5.404   2.016 -0.8477 -2.5671  0.6281
 5747SOL    HW217493   4.735   5.442   1.874 -0.8021 -0.2858  1.1937
 5748SOL     OW17494   0.373   5.739   6.100 -0.4442 -0.1444 -0.2196
 5748SOL    HW117495   0.411   5.776   6.180 -1.3024  1.9118 -0.7082
 5748SOL    HW217496   0.444   5.688   6.062  0.4250 -0.0098  1.1405
 5749SOL     OW17497   1.349   2.911   1.567  0.8636  0.1049  0.9464
 5749SOL    HW117498   1.363   2.912   1.472 -0.7677  0.2968  0.6692
 5749SOL    HW217499   1.423   2.960   1.603  1.7656 -0.3915 -0.1756
 5750SOL     OW17500   2.086   2.690   5.836 -0.0070 -0.3803 -0.0644
 5750SOL    HW117501   2.014   2.702   5.898 -0.5293 -0.3006 -0.6660
 5750SOL    HW217502   2.151   2.755   5.861 -0.6050  0.2601 -0.1549
 5751SOL     OW17503   2.445   2.195   3.570 -0.1841  0.1185 -0.6465
 5751SOL    HW117504   2.425   2.199   3.476  0.2411 -0.1302 -0.7548
 5751SOL    HW217505   2.541   2.198   3.573 -0.2142  2.8235 -0.0880
 5752SOL     OW17506   3.312   0.615   1.232  0.0419 -0.4165 -0.0651
 5752SOL    HW117507   3.284   0.693   1.280  0.3971 -0.3563  0.0498
 5752SOL    HW217508   3.374   0.572   1.292 -0.3296 -0.9128 -0.0257
 5753SOL     OW17509   5.456   2.529   3.724 -0.1329 -0.1601 -0.6998
 5753SOL    HW117510   5.529   2.590   3.731 -0.6442  0.3887  0.0701
 5753SOL    HW217511   5.492   2.445   3.754  0.0285  0.2484  0.2941
 5754SOL     OW17512   5.534   0.038   1.181 -0.1451  0.1612 -0.3462
 5754SOL    HW117513   5.512   0.078   1.265  1.4160 -0.2572  0.3094
 5754SOL    HW217514   5.470  -0.032   1.170  1.7910 -2.3146  2.4490
 5755SOL     OW17515   1.641   4.217   1.939 -0.2861 -0.1797 -0.1166
 5755SOL    HW117516   1.575   4.152   1.964 -0.2346  0.0132  0.5581
 5755SOL    HW217517   1.597   4.301   1.951  0.4001 -0.0001  1.4052
 5756SOL     OW17518   4.384   4.697   4.892 -0.2524 -0.5519 -0.6619
 5756SOL    HW117519   4.415   4.607   4.880  0.1369 -0.4645 -0.3447
 5756SOL    HW217520   4.464   4.749   4.894 -0.0101 -0.6957  3.8937
 5757SOL     OW17521   6.161   6.186   5.074  0.4108  0.1572  0.3266
 5757SOL    HW117522   6.109   6.243   5.131 -0.9506 -1.2288  0.5370
 5757SOL    HW217523   6.232   6.156   5.130  0.8647  1.2154  0.3541
 5758SOL     OW17524   1.006   1.899   5.005 -0.3452 -0.5441  0.5388
 5758SOL    HW117525   1.018   1.993   5.017 -1.1104 -0.3064 -0.4671
 5758SOL    HW217526   0.997   1.865   5.094 -1.2542  0.5048  0.8656
 5759SOL     OW17527   3.660   2.383   3.080  0.3078  0.1035 -0.3225
 5759SOL    HW117528   3.661   2.376   2.984  2.6142 -2.2717 -0.2518
 5759SOL    HW217529   3.716   2.458   3.098  1.5861 -0.6895 -0.8515
 5760SOL     OW17530   2.975   3.188   5.419 -0.0468 -0.0502 -0.2273
 5760SOL    HW117531   2.884   3.162   5.406 -0.0347 -0.4591  0.4391
 5760SOL    HW217532   2.973   3.248   5.494 -0.1759  2.5635 -2.2063
 5761SOL     OW17533   1.374   1.863   5.588 -0.2348  0.2243  0.0249
 5761SOL    HW117534   1.425   1.903   5.658 -0.2255 -0.0620  0.1864
 5761SOL    HW217535   1.284   1.863   5.622 -0.2582  0.2483 -0.0374
 5762SOL     OW17536   2.155   4.287   4.153  0.2739 -0.3884 -0.2834
 5762SOL    HW117537   2.169   4.196   4.127 -1.0054 -0.6844  0.0105
 5762SOL    HW217538   2.134   4.282   4.246  0.1662  0.2049 -0.2741
 5763SOL     OW17539   5.881   1.800   5.314 -0.0305  0.0494  0.0458
 5763SOL    HW117540   5.846   1.712   5.305  3.0722 -1.2819 -0.3040
 5763SOL    HW217541   5.878   1.836   5.225 -1.8294  0.5970  0.2864
 5764SOL     OW17542   4.731   0.014   1.370  0.3223  0.2414  0.3011
 5764SOL    HW117543   4.689  -0.071   1.356 -0.7277  0.7753  0.1416
 5764SOL    HW217544   4.788   0.000   1.445 -1.4935 -0.0491  1.6894
 5765SOL     OW17545   3.520   3.239   6.035  0.0502  0.9166 -0.3831
 5765SOL    HW117546   3.606   3.198   6.035  0.3516  1.4447  1.7408
 5765SOL    HW217547   3.500   3.253   5.942  1.1400 -1.4132 -1.0396
 5766SOL     OW17548   0.079   4.140   1.910 -0.2531  0.3430  0.0698
 5766SOL    HW117549   0.113   4.064   1.863  0.2573  0.1439  0.7512
 5766SOL    HW217550   0.087   4.117   2.003 -0.3126  1.1366  0.2777
 5767SOL     OW17551   1.786   5.960   3.430 -0.8315 -0.2023  0.6368
 5767SOL    HW117552   1.800   5.901   3.504  2.2633  0.2963  0.6116
 5767SOL    HW217553   1.803   5.906   3.353  0.2941  0.2443  0.5437
 5768SOL     OW17554   0.673   2.463   5.924  0.1497  0.6874 -0.4020
 5768SOL    HW117555   0.671   2.372   5.953  1.6648  0.3719 -1.1561
 5768SOL    HW217556   0.589   2.476   5.880 -0.3258 -0.1643  0.2265
 5769SOL     OW17557   1.089   5.310   5.589 -0.3790 -0.5465  0.2534
 5769SOL    HW117558   1.016   5.256   5.560 -0.4492 -0.7048  0.7238
 5769SOL    HW217559   1.162   5.249   5.601 -0.3900 -0.5014  0.5489
 5770SOL     OW17560   3.069   1.054   2.947 -0.4024 -0.3545 -0.7588
 5770SOL    HW117561   3.059   1.128   2.886 -1.3551  0.3435  0.2025
 5770SOL    HW217562   3.044   0.977   2.896 -1.2352  0.2254 -1.2503
 5771SOL     OW17563   1.840   3.680   3.609  0.1587  0.4611  0.2221
 5771SOL    HW117564   1.925   3.667   3.567  0.1688  2.1301 -0.3725
 5771SOL    HW217565   1.778   3.632   3.554  0.2983  1.9032 -1.2576
 5772SOL     OW17566   5.126   0.326   5.162  0.0150  0.1085 -0.5449
 5772SOL    HW117567   5.179   0.399   5.194  0.6809  0.1016 -1.6146
 5772SOL    HW217568   5.189   0.265   5.123 -0.3634 -1.6623  1.4172
 5773SOL     OW17569   5.120   2.919   3.841  0.1603  0.1623 -0.2333
 5773SOL    HW117570   5.210   2.887   3.830  0.3031  0.0976  0.9668
 5773SOL    HW217571   5.068   2.841   3.856 -0.0494  0.2211 -0.6646
 5774SOL     OW17572   5.292   3.514   5.135 -0.1949  0.0528  0.1655
 5774SOL    HW117573   5.374   3.540   5.094 -0.8146  0.5811 -0.7771
 5774SOL    HW217574   5.299   3.419   5.145  0.6547  0.1329  0.4033
 5775SOL     OW17575   6.128   2.416   6.306  0.1831 -0.5549 -0.2019
 5775SOL    HW117576   6.140   2.398   6.399 -1.3403 -0.0435  0.1219
 5775SOL    HW217577   6.077   2.343   6.274 -0.1839 -0.2115 -0.4029
 5776SOL     OW17578   3.786   3.122   6.073  0.1793  0.4749  0.0099
 5776SOL    HW117579   3.817   3.134   5.983 -0.0544 -2.4152 -0.5517
 5776SOL    HW217580   3.831   3.044   6.104 -1.1911  0.3017  1.7486
 5777SOL     OW17581   1.492   5.375   3.100  0.4729  0.6135 -0.2068
 5777SOL    HW117582   1.583   5.352   3.080  0.3426  0.6936 -0.8978
 5777SOL    HW217583   1.500   5.438   3.171  0.9006 -0.2900  0.5755
 5778SOL     OW17584   4.907   3.334   0.103 -0.0219  0.3492  0.2914
 5778SOL    HW117585   4.828   3.342   0.050  0.3805 -0.2325 -0.4049
 5778SOL    HW217586   4.920   3.240   0.114  0.0238  0.4555  1.2475
 5779SOL     OW17587   5.134   5.599   1.151  0.0746 -0.0869  0.5402
 5779SOL    HW117588   5.226   5.616   1.171  0.2227 -0.5218  0.2240
 5779SOL    HW217589   5.086   5.667   1.200  0.6701  1.4123 -0.8762
 5780SOL     OW17590   1.896   5.132   2.895 -0.2455 -0.3136 -0.0345
 5780SOL    HW117591   1.941   5.107   2.815 -0.7802  1.4026 -0.9145
 5780SOL    HW217592   1.811   5.165   2.866 -0.5267  0.1515  1.2561
 5781SOL     OW17593   0.840   5.172   0.860  0.5220  0.4994 -0.0859
 5781SOL    HW117594   0.856   5.085   0.825 -2.2017 -0.4387  0.7875
 5781SOL    HW217595   0.812   5.224   0.784  1.1189  0.3489 -0.4168
 5782SOL     OW17596   6.146   1.322   4.547 -0.4812  0.4746  0.0871
 5782SOL    HW117597   6.185   1.392   4.495  0.9017 -1.6504 -1.9732
 5782SOL    HW217598   6.114   1.259   4.482 -0.2337 -1.5282  1.7850
 5783SOL     OW17599   5.392   2.930   2.427 -0.4258 -0.0947  0.0829
 5783SOL    HW117600   5.323   2.957   2.367 -0.9310 -0.9751  0.2588
 5783SOL    HW217601   5.468   2.914   2.371 -0.7256 -0.3306 -0.2564
 5784SOL     OW17602   0.187   6.228   1.516 -0.0690  0.0215 -0.0229
 5784SOL    HW117603   0.240   6.283   1.575 -0.8059  0.6801  0.0532
 5784SOL    HW217604   0.098   6.262   1.527 -0.3018 -0.2088 -1.1181
 5785SOL     OW17605   5.672   4.321   6.072 -0.0552 -0.0826  0.3291
 5785SOL    HW117606   5.593   4.269   6.086  0.2363  0.2459  4.2216
 5785SOL    HW217607   5.744   4.261   6.088  0.3955  0.3932  0.1095
 5786SOL     OW17608   5.076   5.288   0.058  0.5122  0.2876  0.1109
 5786SOL    HW117609   5.035   5.201   0.052  1.2737 -0.2193  1.7984
 5786SOL    HW217610   5.020   5.344   0.004 -1.2595 -0.7908  0.7482
 5787SOL     OW17611   3.836   3.935   2.520 -0.1069 -0.0534  0.3591
 5787SOL    HW117612   3.757   3.901   2.562 -1.5669 -0.1926 -2.2902
 5787SOL    HW217613   3.844   4.025   2.552 -1.0540 -0.1991  1.0292
 5788SOL     OW17614   4.857   1.574   2.106 -0.5941 -0.6731 -0.3500
 5788SOL    HW117615   4.801   1.537   2.174  0.0849 -1.1366 -0.0296
 5788SOL    HW217616   4.811   1.556   2.024 -1.5220  0.0757 -0.0069
 5789SOL     OW17617   0.567   1.431   2.308 -0.3266 -0.2483 -0.1754
 5789SOL    HW117618   0.626   1.362   2.338  0.1349 -0.9475 -2.4237
 5789SOL    HW217619   0.531   1.396   2.226 -1.0673  1.6708 -0.7119
 5790SOL     OW17620   5.782   3.090   1.846 -0.3894  0.1269  0.4186
 5790SOL    HW117621   5.737   3.073   1.763  0.7943  0.5851 -0.3540
 5790SOL    HW217622   5.712   3.101   1.910 -1.3265 -2.6095 -0.0048
 5791SOL     OW17623   5.227   4.549   5.304  0.3152 -0.1064 -0.5567
 5791SOL    HW117624   5.197   4.466   5.267  1.8152 -0.7214 -0.4649
 5791SOL    HW217625   5.202   4.615   5.240  1.2402 -0.9357 -1.8059
 5792SOL     OW17626   1.400   4.488   2.148  0.5275 -0.1708  0.4901
 5792SOL    HW117627   1.455   4.470   2.225 -0.8160 -2.5255  1.0269
 5792SOL    HW217628   1.370   4.401   2.120 -0.2656  0.7621 -1.7826
 5793SOL     OW17629   0.131   5.821   1.674  0.3275  0.1956  0.1075
 5793SOL    HW117630   0.142   5.884   1.745 -0.3701 -0.0925  0.4778
 5793SOL    HW217631   0.036   5.806   1.670  0.2612  0.8576 -1.4510
 5794SOL     OW17632   5.522   5.010   2.038  0.2078  0.1838 -0.5137
 5794SOL    HW117633   5.564   4.953   1.974  0.9151  0.6763 -0.5006
 5794SOL    HW217634   5.473   5.073   1.985  1.3756  1.0369 -0.6110
 5795SOL     OW17635   4.757   4.858   0.526  0.4372  0.3468 -0.1720
 5795SOL    HW117636   4.750   4.804   0.605 -0.9591  1.3541  0.4582
 5795SOL    HW217637   4.851   4.864   0.508  0.7577 -0.2013  1.2128
 5796SOL     OW17638   4.604   4.869   4.915 -0.0107  0.3214  0.1451
 5796SOL    HW117639   4.599   4.923   4.994 -0.2599 -2.2456  2.0297
 5796SOL    HW217640   4.696   4.844   4.909  0.0956  0.8682 -0.6866
 5797SOL     OW17641   1.847   5.510   2.881 -0.0255 -0.1008  0.2087
 5797SOL    HW117642   1.856   5.599   2.914  1.7312  0.4194 -1.5097
 5797SOL    HW217643   1.788   5.517   2.807  1.7197  0.0738 -1.2403
 5798SOL     OW17644   1.754   4.504   0.855  0.3361 -0.4227 -0.3147
 5798SOL    HW117645   1.734   4.455   0.776  0.2152 -2.9659  1.2041
 5798SOL    HW217646   1.699   4.465   0.923  0.9982  1.1554  1.2164
 5799SOL     OW17647   2.111   1.188   5.897 -0.6249 -0.0556 -0.5146
 5799SOL    HW117648   2.145   1.128   5.963  1.5786  0.6259 -0.9244
 5799SOL    HW217649   2.133   1.275   5.929 -0.6095  0.3433 -1.5522
 5800SOL     OW17650   2.852   3.536   0.935 -0.0430  0.0988 -0.0834
 5800SOL    HW117651   2.940   3.531   0.898  0.6697  0.8512  1.4254
 5800SOL    HW217652   2.802   3.468   0.889  1.0620  0.3036 -1.6265
 5801SOL     OW17653   5.235   6.117   2.963  0.3221 -0.2399  0.1705
 5801SOL    HW117654   5.223   6.153   2.875  0.4831  0.2177  0.3321
 5801SOL    HW217655   5.180   6.039   2.965 -0.1526  0.0839 -0.1363
 5802SOL     OW17656   5.641   5.990   2.260 -0.3640 -0.3996 -0.0545
 5802SOL    HW117657   5.632   5.949   2.174  3.3276 -0.4205 -0.5950
 5802SOL    HW217658   5.669   5.918   2.317 -1.5782 -0.1206  0.9433
 5803SOL     OW17659   1.419   6.249   6.317 -0.6885  0.2080  0.2247
 5803SOL    HW117660   1.354   6.190   6.279  0.6652 -1.8594  0.9642
 5803SOL    HW217661   1.368   6.307   6.374 -2.3118  1.2215 -2.0770
 5804SOL     OW17662   5.523   5.307   1.180  0.2066 -0.0653 -0.3364
 5804SOL    HW117663   5.497   5.269   1.264  1.7060 -1.0192 -0.2776
 5804SOL    HW217664   5.617   5.322   1.188  0.7230 -1.6761 -2.3929
 5805SOL     OW17665   0.042   3.786   3.303  0.0494  0.3129  0.1228
 5805SOL    HW117666  -0.046   3.822   3.318  1.1525  2.9526  0.8609
 5805SOL    HW217667   0.027   3.692   3.288 -2.8413  0.6060  0.5092
 5806SOL     OW17668   2.197   3.850   3.199 -0.3578  0.2810  0.4923
 5806SOL    HW117669   2.269   3.794   3.230  0.0809 -0.0452 -1.0372
 5806SOL    HW217670   2.219   3.870   3.108 -2.1583  0.2465  0.0088
 5807SOL     OW17671   5.092   6.169   3.565 -0.3227 -0.4893 -0.3643
 5807SOL    HW117672   5.163   6.123   3.519 -1.2393 -1.2225 -1.0762
 5807SOL    HW217673   5.121   6.261   3.567  1.3207 -0.9831  0.6675
 5808SOL     OW17674   3.290   3.210   1.416  0.2691 -0.4991 -0.0934
 5808SOL    HW117675   3.200   3.180   1.418  0.1871 -0.5268 -2.1079
 5808SOL    HW217676   3.342   3.135   1.446 -0.1624 -1.6723 -2.1107
 5809SOL     OW17677   5.382   0.828   5.294  0.1399 -1.0195 -0.1838
 5809SOL    HW117678   5.397   0.922   5.299 -1.1635 -0.8432  0.8376
 5809SOL    HW217679   5.456   0.794   5.243  0.7140  0.5210 -0.4069
 5810SOL     OW17680   4.963   6.084   6.091 -0.0737  0.4159 -0.1632
 5810SOL    HW117681   5.044   6.093   6.041 -0.3597 -1.6574 -1.1164
 5810SOL    HW217682   4.989   6.097   6.182  1.0820  1.0024 -0.5588
 5811SOL     OW17683   2.707   3.344   5.229  0.3392  0.1156  0.1924
 5811SOL    HW117684   2.643   3.309   5.291 -0.5559 -0.6713 -1.1228
 5811SOL    HW217685   2.774   3.384   5.284  1.3269 -3.3940  1.8485
 5812SOL     OW17686   4.056   5.540   0.912  0.0812  0.7014  0.1153
 5812SOL    HW117687   4.016   5.606   0.968 -0.5746  1.2573 -0.9632
 5812SOL    HW217688   4.008   5.459   0.932  0.3791  0.7115  0.9002
 5813SOL     OW17689   5.766   3.862   5.831 -0.0136 -0.6947 -0.7876
 5813SOL    HW117690   5.818   3.799   5.781 -0.0029 -1.0368 -0.3484
 5813SOL    HW217691   5.778   3.837   5.923  0.9224  0.6398 -0.5049
 5814SOL     OW17692   1.714   5.506   6.157  0.5071 -0.5968  0.1330
 5814SOL    HW117693   1.690   5.592   6.122  1.2360 -0.5778 -0.3377
 5814SOL    HW217694   1.740   5.455   6.080 -0.4039 -1.4074  0.3417
 5815SOL     OW17695   0.761   5.102   6.057  0.4272 -0.3161 -0.0552
 5815SOL    HW117696   0.698   5.145   6.114  1.0056  0.5273 -0.0434
 5815SOL    HW217697   0.766   5.158   5.980  3.3343  1.2834  1.1486
 5816SOL     OW17698   1.444   0.856   3.936  0.0691 -0.5239  0.4070
 5816SOL    HW117699   1.391   0.914   3.881 -3.7304 -2.7233  1.3693
 5816SOL    HW217700   1.534   0.875   3.912 -1.0677  3.5882 -1.3889
 5817SOL     OW17701   3.804   0.203   1.763 -0.1939 -0.9937 -0.4909
 5817SOL    HW117702   3.709   0.193   1.774 -0.4264  1.0277 -0.2642
 5817SOL    HW217703   3.835   0.230   1.850 -0.1874  2.9708 -1.5117
 5818SOL     OW17704   4.808   3.053   2.545 -0.2069 -0.0531 -0.5149
 5818SOL    HW117705   4.849   2.966   2.545  0.3617  0.1989  0.3019
 5818SOL    HW217706   4.818   3.083   2.635 -1.9417  0.1483 -0.3731
 5819SOL     OW17707   4.756   2.175   3.248  0.0103  0.0239  0.2216
 5819SOL    HW117708   4.817   2.186   3.175  0.2841  0.2290  0.4746
 5819SOL    HW217709   4.709   2.258   3.252  0.5377  0.3078  0.7576
 5820SOL     OW17710   2.061   3.080   3.391  0.2476 -0.2479  0.0829
 5820SOL    HW117711   2.125   3.012   3.413  1.0555  0.6986  0.7345
 5820SOL    HW217712   2.011   3.094   3.472  1.7305  1.6520  0.7378
 5821SOL     OW17713   0.053   5.542   3.271 -0.7015 -0.4113 -0.0736
 5821SOL    HW117714   0.013   5.460   3.242 -0.6768 -0.2321 -0.6342
 5821SOL    HW217715   0.051   5.538   3.366 -1.5197 -0.6715 -0.0931
 5822SOL     OW17716   6.185   3.784   4.200  0.1810  0.3139  0.5119
 5822SOL    HW117717   6.182   3.840   4.277  3.5271  2.8409 -0.8835
 5822SOL    HW217718   6.111   3.812   4.147  0.6503  2.1161  0.7405
 5823SOL     OW17719   5.994   5.684   5.523  0.1026 -0.2424  0.0467
 5823SOL    HW117720   5.942   5.760   5.546  1.1882  0.5684 -0.0819
 5823SOL    HW217721   5.999   5.686   5.427  0.9197  0.0818  0.0882
 5824SOL     OW17722   5.685   2.565   2.318  0.0745 -0.0109  0.3787
 5824SOL    HW117723   5.668   2.549   2.225 -0.1898  0.5477  0.3280
 5824SOL    HW217724   5.779   2.545   2.328  0.1475  0.0945 -0.0444
 5825SOL     OW17725   5.566   3.910   2.255  0.2137 -0.3318 -0.9363
 5825SOL    HW117726   5.572   3.965   2.177  0.5664  1.6784  0.4276
 5825SOL    HW217727   5.505   3.840   2.230 -1.0496  1.2085 -2.4764
 5826SOL     OW17728   0.819   5.822   0.030 -0.1059  0.1940  0.2654
 5826SOL    HW117729   0.810   5.835  -0.064  2.0535 -0.6512 -0.1194
 5826SOL    HW217730   0.838   5.909   0.065  0.7357  0.2511 -0.3185
 5827SOL     OW17731   2.926   4.886   2.121 -0.1171 -0.0765 -0.0299
 5827SOL    HW117732   3.000   4.933   2.160 -1.6637  0.1470  2.8823
 5827SOL    HW217733   2.947   4.793   2.135  0.0290 -0.0433 -0.0285
 5828SOL     OW17734   5.961   6.204   3.460 -0.8331  0.0541  0.2333
 5828SOL    HW117735   6.036   6.151   3.486 -1.0060  0.8270  2.4884
 5828SOL    HW217736   5.920   6.155   3.388  0.9432 -1.1182 -0.0238
 5829SOL     OW17737   4.087   2.275   6.295 -0.4296 -0.0413  0.0884
 5829SOL    HW117738   4.103   2.366   6.272 -0.5243 -0.2493 -0.8481
 5829SOL    HW217739   4.025   2.244   6.229 -0.0442 -0.9124  0.1145
 5830SOL     OW17740   6.179   0.171   5.544 -0.0867  0.1622 -0.8650
 5830SOL    HW117741   6.170   0.095   5.601  1.4880  0.3889 -0.2590
 5830SOL    HW217742   6.144   0.244   5.595  0.9534  0.2953 -0.3091
 5831SOL     OW17743   3.480   0.698   4.983 -0.7483  0.7472 -0.1595
 5831SOL    HW117744   3.444   0.781   5.014 -2.3195  0.4289 -1.0343
 5831SOL    HW217745   3.406   0.637   4.986 -0.3390  0.0713 -2.0790
 5832SOL     OW17746   4.290   3.594   3.901  0.1597  0.1230 -0.3595
 5832SOL    HW117747   4.307   3.569   3.810  0.3722  0.8948 -0.5371
 5832SOL    HW217748   4.256   3.683   3.896  0.0321  0.1178  0.3100
 5833SOL     OW17749   0.854   1.947   0.535 -0.2408 -0.2134 -0.2180
 5833SOL    HW117750   0.944   1.941   0.504 -0.1722 -0.6559  0.0516
 5833SOL    HW217751   0.862   1.948   0.631 -0.4600  0.8572 -0.1960
 5834SOL     OW17752   1.265   4.831   4.371  0.0698 -0.0247  0.2670
 5834SOL    HW117753   1.180   4.801   4.336  0.5906 -1.3220  0.0355
 5834SOL    HW217754   1.304   4.880   4.299 -1.7290  3.3350  1.3637
 5835SOL     OW17755   2.512   4.640   2.925  0.0842  0.2528 -0.5379
 5835SOL    HW117756   2.515   4.686   3.009 -0.1911 -0.3705 -0.1823
 5835SOL    HW217757   2.568   4.563   2.938 -2.1094 -1.3478  0.0058
 5836SOL     OW17758   3.019   4.653   4.838  0.2025 -0.6470  0.3785
 5836SOL    HW117759   3.099   4.642   4.786 -0.2459 -2.6350  0.0492
 5836SOL    HW217760   2.998   4.565   4.869 -1.8091 -0.1560  0.5492
 5837SOL     OW17761   2.804   3.647   1.398 -0.3579 -0.1119 -0.2712
 5837SOL    HW117762   2.887   3.689   1.421  0.2072 -1.2719 -0.1197
 5837SOL    HW217763   2.739   3.718   1.404  0.9456  1.4515 -2.8942
 5838SOL     OW17764   6.306   0.709   1.451  0.9353  0.1063  0.1288
 5838SOL    HW117765   6.302   0.739   1.360 -0.2423 -1.7202 -0.4705
 5838SOL    HW217766   6.226   0.743   1.491  0.9949  0.1367  0.2219
 5839SOL     OW17767   1.167   2.645   3.385 -0.0068  0.1337  0.2444
 5839SOL    HW117768   1.169   2.577   3.453 -0.3637 -0.4246 -0.2872
 5839SOL    HW217769   1.140   2.598   3.306  1.0750  0.6370 -0.4467
 5840SOL     OW17770   0.939   5.575   2.671 -0.2095  0.3123 -0.7125
 5840SOL    HW117771   0.990   5.501   2.639  0.1241  0.4225 -0.4332
 5840SOL    HW217772   0.962   5.647   2.613 -1.3683 -0.0590 -1.6947
 5841SOL     OW17773   4.618   6.063   3.572  0.0706 -0.2863 -0.0376
 5841SOL    HW117774   4.694   6.051   3.516 -0.4491  1.7253 -1.2967
 5841SOL    HW217775   4.571   5.980   3.569  2.3245 -1.7181  1.0697
 5842SOL     OW17776   5.259   1.745   4.139 -0.6785  0.0683  0.3637
 5842SOL    HW117777   5.306   1.814   4.186  0.4014 -1.0246  0.9628
 5842SOL    HW217778   5.209   1.700   4.207  0.2432 -1.0071  0.3485
 5843SOL     OW17779   0.006   5.705   5.762 -0.1563 -0.3778  0.3259
 5843SOL    HW117780  -0.023   5.692   5.671 -0.8769 -1.0277  0.6432
 5843SOL    HW217781  -0.028   5.792   5.784 -0.8999 -0.6533  0.3120
 5844SOL     OW17782   0.998   6.136   4.275 -0.3324  0.4873  0.0020
 5844SOL    HW117783   1.015   6.181   4.358  0.3069  0.7074 -0.2439
 5844SOL    HW217784   1.017   6.202   4.208  0.0352  0.0360 -0.3439
 5845SOL     OW17785   4.671   4.736   1.894 -0.4990 -0.5875  0.3668
 5845SOL    HW117786   4.749   4.681   1.892 -0.3317 -0.5436 -4.2169
 5845SOL    HW217787   4.598   4.675   1.887 -0.3764 -0.5153 -3.1372
 5846SOL     OW17788   1.815   5.671   0.433  0.1154  0.2329 -0.1855
 5846SOL    HW117789   1.806   5.575   0.435 -0.2977  0.1567 -2.6631
 5846SOL    HW217790   1.732   5.704   0.467 -1.9637 -0.3982 -4.1435
 5847SOL     OW17791   1.525   4.587   1.663 -0.3742 -0.4528 -0.5739
 5847SOL    HW117792   1.550   4.596   1.572  0.2915 -2.1995 -0.5947
 5847SOL    HW217793   1.514   4.493   1.677  0.6760 -0.3462  1.4266
 5848SOL     OW17794   4.381   5.615   5.126 -0.1729  0.4468  0.0206
 5848SOL    HW117795   4.317   5.624   5.197 -0.9579  2.3977 -0.8553
 5848SOL    HW217796   4.413   5.525   5.134 -1.2782  0.1571  1.9437
 5849SOL     OW17797   0.776   0.305   4.425 -0.1368 -0.0453 -0.6596
 5849SOL    HW117798   0.774   0.397   4.398  1.1306  0.4137  0.7101
 5849SOL    HW217799   0.836   0.302   4.499 -1.5104 -1.6989  0.4723
 5850SOL     OW17800   3.217   4.673   4.667 -0.5575 -0.1362 -0.3875
 5850SOL    HW117801   3.250   4.588   4.637  1.5846 -0.0417  1.4741
 5850SOL    HW217802   3.229   4.731   4.592  1.2924 -0.7021 -0.5844
 5851SOL     OW17803   3.058   4.565   3.063 -0.5247 -0.3220  0.5801
 5851SOL    HW117804   2.992   4.634   3.071 -0.2752 -0.1989  1.6000
 5851SOL    HW217805   3.064   4.526   3.150  0.3202 -0.7294  0.3511
 5852SOL     OW17806   5.800   3.995   4.730 -0.0988 -0.1846  0.0759
 5852SOL    HW117807   5.819   3.905   4.705  3.0136  0.0397  1.1929
 5852SOL    HW217808   5.709   3.993   4.759  0.0341 -3.0986  0.5651
 5853SOL     OW17809   1.476   1.460   1.918 -0.1285 -0.2503 -0.2774
 5853SOL    HW117810   1.484   1.553   1.939  0.7702 -0.3263 -0.2213
 5853SOL    HW217811   1.417   1.458   1.843 -0.8985  0.2808  0.3048
 5854SOL     OW17812   2.720   5.354   0.077  0.1727 -0.4506 -0.1492
 5854SOL    HW117813   2.799   5.353   0.131 -0.2049 -1.8596  0.4103
 5854SOL    HW217814   2.704   5.447   0.061 -0.1446  0.1142  2.8382
 5855SOL     OW17815   3.478   0.111   4.408  0.0883 -0.4875  0.0011
 5855SOL    HW117816   3.449   0.073   4.491  1.4565  0.3372  0.9016
 5855SOL    HW217817   3.406   0.094   4.347 -2.9807  2.5574  2.3810
 5856SOL     OW17818   6.047   2.368   1.338 -0.0183 -0.1201  0.4080
 5856SOL    HW117819   5.965   2.416   1.336  0.0084 -0.0196 -2.5826
 5856SOL    HW217820   6.023   2.282   1.374 -0.6272  1.0233  2.9804
 5857SOL     OW17821   5.400   0.329   0.662  0.6957 -0.5383  0.0965
 5857SOL    HW117822   5.468   0.371   0.610  0.3277 -0.6673 -0.4963
 5857SOL    HW217823   5.448   0.269   0.719  1.0541 -0.8724 -0.5474
 5858SOL     OW17824   3.563   6.298   5.156  0.1199 -0.8866 -0.3049
 5858SOL    HW117825   3.604   6.339   5.232  1.0035 -1.7171 -0.3086
 5858SOL    HW217826   3.513   6.368   5.114  1.2848  0.1024 -0.1061
 5859SOL     OW17827   2.460   5.875   0.781  0.3451  0.2612  0.5383
 5859SOL    HW117828   2.546   5.835   0.793  0.2199 -0.8237 -1.6538
 5859SOL    HW217829   2.398   5.802   0.794 -0.0495  0.3332 -0.8534
 5860SOL     OW17830   0.109   3.573   1.201  0.5463 -0.0310 -0.2165
 5860SOL    HW117831   0.179   3.575   1.136  0.7040  0.7497 -0.0276
 5860SOL    HW217832   0.051   3.645   1.177  0.3555 -0.0288  0.2308
 5861SOL     OW17833   5.436   0.608   4.345  0.0461 -0.4398 -0.3033
 5861SOL    HW117834   5.497   0.619   4.418  1.5178 -0.7434 -1.4424
 5861SOL    HW217835   5.466   0.670   4.279 -0.4746 -1.0506 -1.1386
 5862SOL     OW17836   1.558   4.600   1.383 -0.6111 -0.3418 -0.8831
 5862SOL    HW117837   1.475   4.579   1.340 -0.9337  0.7871 -0.8272
 5862SOL    HW217838   1.623   4.591   1.313 -0.9718  0.2475 -1.3003
 5863SOL     OW17839   4.376   4.275   3.019  0.4362 -0.0482 -0.3469
 5863SOL    HW117840   4.447   4.326   3.057 -0.2835 -0.0356  1.0424
 5863SOL    HW217841   4.417   4.194   2.989  1.3304  0.7011 -1.2403
 5864SOL     OW17842   2.596   5.554   5.608 -0.4433  0.5374  0.4799
 5864SOL    HW117843   2.631   5.573   5.695 -0.3501  2.2807  0.0965
 5864SOL    HW217844   2.552   5.635   5.581 -2.5308 -0.7461 -0.1460
 5865SOL     OW17845   5.762   5.239   4.873 -0.0949 -0.0330  0.0805
 5865SOL    HW117846   5.735   5.276   4.789  0.1844  0.4371  0.1977
 5865SOL    HW217847   5.740   5.307   4.937  0.4308 -0.0643  0.2938
 5866SOL     OW17848   2.950   1.098   0.395  0.2136 -0.3657 -0.6366
 5866SOL    HW117849   2.987   1.077   0.481 -0.6274 -2.8434 -0.8032
 5866SOL    HW217850   2.953   1.016   0.347 -2.5542  0.0794 -1.7427
 5867SOL     OW17851   0.904   0.597   2.597  0.0302 -0.1306 -0.8589
 5867SOL    HW117852   0.911   0.541   2.520 -0.8709  0.0389 -1.0691
 5867SOL    HW217853   0.848   0.548   2.657  1.2323 -0.5477 -0.0372
 5868SOL     OW17854   6.249   5.971   0.108 -0.2807  0.1919  0.7130
 5868SOL    HW117855   6.244   5.883   0.069 -0.4023  0.8483 -0.8139
 5868SOL    HW217856   6.160   5.989   0.138 -0.3671 -0.0305  0.5960
 5869SOL     OW17857   4.782   4.663   1.498  0.5915  0.3519  0.0539
 5869SOL    HW117858   4.822   4.618   1.573 -1.3591  2.0125  2.2316
 5869SOL    HW217859   4.841   4.737   1.481  0.7732  0.2611  0.2783
 5870SOL     OW17860   2.294   2.380   0.459  0.0640 -0.8488  0.2919
 5870SOL    HW117861   2.219   2.439   0.454  0.3094 -0.5767 -0.4211
 5870SOL    HW217862   2.312   2.357   0.367  1.8273  0.3452  0.2879
 5871SOL     OW17863   1.824   1.163   4.468  0.4061 -0.1130 -0.6657
 5871SOL    HW117864   1.875   1.238   4.496  0.5965 -0.9872  1.6208
 5871SOL    HW217865   1.733   1.185   4.491  0.4180 -0.4215 -0.3004
 5872SOL     OW17866   2.650   1.742   1.388  0.0905 -0.0072  0.4098
 5872SOL    HW117867   2.727   1.686   1.393 -0.1495 -0.3231  0.5941
 5872SOL    HW217868   2.629   1.763   1.479 -1.6404 -2.1475  0.5856
 5873SOL     OW17869   1.385   5.961   1.506  0.9757  0.8448 -0.3380
 5873SOL    HW117870   1.386   5.971   1.411  0.0036  2.4856 -0.2100
 5873SOL    HW217871   1.415   5.871   1.521  1.5829  0.7079 -2.1565
 5874SOL     OW17872   5.246   3.049   3.221 -0.3368  0.1630  0.1155
 5874SOL    HW117873   5.289   3.128   3.190  0.6769 -0.5080 -0.2312
 5874SOL    HW217874   5.249   2.989   3.147 -0.1899 -0.5536  0.6854
 5875SOL     OW17875   4.692   1.846   3.404 -0.1437  0.1315  0.0808
 5875SOL    HW117876   4.702   1.826   3.497 -0.2512 -0.2393  0.0168
 5875SOL    HW217877   4.652   1.932   3.402 -1.9455 -0.6458  0.4258
 5876SOL     OW17878   1.556   1.705   4.451  0.0107 -0.2003  0.6468
 5876SOL    HW117879   1.490   1.660   4.399  1.0608  0.2408 -1.1566
 5876SOL    HW217880   1.520   1.793   4.464 -0.4014 -0.4128  0.9385
 5877SOL     OW17881   2.977   2.345   3.272 -0.2874 -0.2650  0.0495
 5877SOL    HW117882   2.981   2.399   3.350 -0.9167 -0.8008  0.4594
 5877SOL    HW217883   2.914   2.390   3.215 -2.0634 -1.3586  1.0443
 5878SOL     OW17884   3.344   5.458   5.336 -0.8483  0.2463  0.2185
 5878SOL    HW117885   3.309   5.506   5.260 -0.4084  0.5665  0.2107
 5878SOL    HW217886   3.305   5.502   5.412 -1.4033 -0.1668  0.1802
 5879SOL     OW17887   5.744   1.164   1.033  0.1111 -0.0890  0.0108
 5879SOL    HW117888   5.700   1.123   1.107  1.8404  1.7616  2.2213
 5879SOL    HW217889   5.686   1.236   1.007 -0.2075 -0.3528 -0.0053
 5880SOL     OW17890   5.362   1.782   1.157  0.5839 -0.0742  0.1489
 5880SOL    HW117891   5.316   1.730   1.223 -1.1130  0.3706 -0.6304
 5880SOL    HW217892   5.324   1.754   1.074  0.3737  1.6461 -0.3764
 5881SOL     OW17893   2.516   4.198   4.177 -0.4034  0.2477  0.1304
 5881SOL    HW117894   2.553   4.143   4.246  0.8220  0.6921 -0.1424
 5881SOL    HW217895   2.437   4.235   4.215 -1.4137 -1.8566  0.2463
 5882SOL     OW17896   1.882   5.519   4.488 -0.7590  0.3472  0.8348
 5882SOL    HW117897   1.911   5.429   4.505  1.6235  0.7166 -0.7363
 5882SOL    HW217898   1.810   5.510   4.426 -3.6619 -0.5685  4.0186
 5883SOL     OW17899   2.215   3.803   2.095  0.1938 -0.5354  0.1969
 5883SOL    HW117900   2.215   3.766   2.184  0.9224 -1.7144 -0.2641
 5883SOL    HW217901   2.261   3.737   2.042  0.1365  0.3413 -0.9776
 5884SOL     OW17902   5.955   5.702   1.911 -0.0220 -0.0179 -0.1836
 5884SOL    HW117903   5.882   5.730   1.856 -0.3102  1.3494  0.8396
 5884SOL    HW217904   5.918   5.695   1.999  0.9292  0.0971  0.2446
 5885SOL     OW17905   3.638   5.977   2.292 -0.2070  0.1205 -0.6158
 5885SOL    HW117906   3.552   5.943   2.318  0.0485 -0.3769 -0.3973
 5885SOL    HW217907   3.693   5.966   2.369  0.5499 -1.3307 -1.3031
 5886SOL     OW17908   3.772   3.675   6.136  0.6123 -0.1062  0.1918
 5886SOL    HW117909   3.828   3.747   6.164 -0.0476 -0.2767  2.0902
 5886SOL    HW217910   3.766   3.618   6.212 -1.4339 -0.5535 -0.2310
 5887SOL     OW17911   0.612   0.245   0.454 -0.2166 -0.0905  0.4048
 5887SOL    HW117912   0.657   0.161   0.464 -0.0830 -0.1701 -0.6669
 5887SOL    HW217913   0.670   0.309   0.497  0.9124 -0.2062 -0.8609
 5888SOL     OW17914   4.145   2.021   0.370 -0.3620 -0.0592 -0.0862
 5888SOL    HW117915   4.066   1.976   0.339  0.0873  0.1027 -1.5289
 5888SOL    HW217916   4.207   1.950   0.388 -0.0532 -0.0960 -1.2302
 5889SOL     OW17917   0.004   3.631   4.021 -0.0323  0.6717 -0.4279
 5889SOL    HW117918   0.018   3.541   4.052 -1.3187  0.3064 -0.8570
 5889SOL    HW217919  -0.018   3.680   4.100  1.0716  0.7184 -0.1299
 5890SOL     OW17920   5.107   5.974   3.254 -0.1535 -0.3217 -0.0658
 5890SOL    HW117921   5.064   6.019   3.181 -0.4695 -1.4918 -0.6270
 5890SOL    HW217922   5.097   5.881   3.234 -1.2399 -0.7139  2.0517
 5891SOL     OW17923   5.741   1.242   4.979  0.5708  0.3395 -0.1372
 5891SOL    HW117924   5.685   1.183   5.030  0.8376 -0.8354 -1.1539
 5891SOL    HW217925   5.682   1.311   4.949  0.4752  1.2594  1.9966
 5892SOL     OW17926   2.951   2.865   3.208  0.1962  0.0461 -0.0538
 5892SOL    HW117927   2.933   2.957   3.225  0.1973  0.0994 -0.3346
 5892SOL    HW217928   3.046   2.859   3.202  0.1900  0.0508 -0.1638
 5893SOL     OW17929   5.684   2.713   0.972 -0.2037  0.7679  0.3321
 5893SOL    HW117930   5.773   2.699   1.004 -1.2368  0.4129  3.3828
 5893SOL    HW217931   5.683   2.803   0.941  0.9579  1.1229  1.2795
 5894SOL     OW17932   3.519   0.048   1.042 -0.0228  0.2434 -0.2760
 5894SOL    HW117933   3.506   0.136   1.006 -0.9744 -0.1314 -0.9013
 5894SOL    HW217934   3.430   0.019   1.065  0.3578 -0.2973  0.5546
 5895SOL     OW17935   4.405   5.700   4.021 -0.8634  0.3434  0.1566
 5895SOL    HW117936   4.469   5.696   4.091 -2.1368  1.2454  1.4202
 5895SOL    HW217937   4.323   5.724   4.064 -1.8841  0.0255 -1.5137
 5896SOL     OW17938   5.302   0.885   6.224 -0.3864 -0.3221  0.0981
 5896SOL    HW117939   5.263   0.969   6.197  0.5565 -0.1015 -0.6458
 5896SOL    HW217940   5.250   0.858   6.299 -0.4582  1.1507  0.6248
 5897SOL     OW17941   1.936   3.570   1.584  0.6931 -0.1819 -0.1668
 5897SOL    HW117942   1.922   3.557   1.678 -0.1175 -0.9986 -0.3888
 5897SOL    HW217943   1.861   3.622   1.556  1.7405  1.4304 -0.0891
 5898SOL     OW17944   1.584   0.484   4.345 -0.5183  0.2448 -0.0207
 5898SOL    HW117945   1.499   0.441   4.358  0.1092 -0.6756  1.2419
 5898SOL    HW217946   1.584   0.507   4.252 -0.8761 -2.6392 -0.8588
 5899SOL     OW17947   2.264   5.007   2.364  0.3843 -0.7751 -0.3721
 5899SOL    HW117948   2.249   5.087   2.313  1.3264  0.0144  0.5643
 5899SOL    HW217949   2.244   4.936   2.303  0.2049  0.1617 -1.4325
 5900SOL     OW17950   2.866   0.229   4.623  0.3156  0.1882 -0.5123
 5900SOL    HW117951   2.781   0.273   4.623  0.1836 -0.0619 -0.2781
 5900SOL    HW217952   2.925   0.290   4.580 -0.2982 -0.2444 -2.0488
 5901SOL     OW17953   2.395   5.668   2.066 -0.5870 -0.1546  0.5571
 5901SOL    HW117954   2.474   5.694   2.019 -0.7578 -0.4426  0.1067
 5901SOL    HW217955   2.410   5.576   2.091 -0.9593 -0.3527  0.0769
 5902SOL     OW17956   2.185   3.713   4.580 -0.0176 -0.1722  0.1681
 5902SOL    HW117957   2.166   3.682   4.492 -0.4845  1.6297 -0.4088
 5902SOL    HW217958   2.101   3.744   4.614  0.7302  2.7281 -0.2890
 5903SOL     OW17959   3.412   5.738   3.047  0.3890  0.3359 -0.1388
 5903SOL    HW117960   3.325   5.778   3.047  1.1472  2.2030 -1.8090
 5903SOL    HW217961   3.422   5.701   2.959  0.9336 -0.7249  0.3504
 5904SOL     OW17962   2.807   4.345   5.061 -0.2153  0.0548 -0.1470
 5904SOL    HW117963   2.798   4.251   5.078 -1.5802  0.3641  1.0131
 5904SOL    HW217964   2.842   4.350   4.972  0.8660 -1.5564  0.1618
 5905SOL     OW17965   2.635   0.973   1.106 -0.3853  0.2241 -0.5884
 5905SOL    HW117966   2.558   0.992   1.160  0.0500  0.9027 -0.1873
 5905SOL    HW217967   2.609   0.898   1.052 -0.4772 -1.1689  1.3005
 5906SOL     OW17968   1.094   3.650   0.335  0.6367 -0.0305  0.3547
 5906SOL    HW117969   1.094   3.563   0.296 -0.5210 -0.2048  0.7320
 5906SOL    HW217970   1.002   3.674   0.342  0.9380  1.2436  0.2191
 5907SOL     OW17971   1.856   2.307   3.714  0.4608  0.6986 -0.7117
 5907SOL    HW117972   1.936   2.273   3.754 -0.5540  0.3926  1.1350
 5907SOL    HW217973   1.836   2.244   3.644  0.1445 -1.0376  0.8490
 5908SOL     OW17974   0.835   4.308   2.875  0.1408 -0.0294 -0.3150
 5908SOL    HW117975   0.879   4.244   2.819  2.0163 -0.7116  1.7991
 5908SOL    HW217976   0.895   4.382   2.879 -0.1683  0.1882  0.4491
 5909SOL     OW17977   0.079   4.100   1.348  0.7079  0.4147 -0.3259
 5909SOL    HW117978   0.081   4.136   1.436  0.5649 -1.8893  0.6806
 5909SOL    HW217979   0.007   4.146   1.305  1.2522  2.1001  0.4764
 5910SOL     OW17980   4.340   2.499   2.690  0.2122  0.1553 -0.0151
 5910SOL    HW117981   4.349   2.470   2.781 -0.5373 -0.5185 -0.1476
 5910SOL    HW217982   4.424   2.541   2.670  1.3975 -1.9632  0.1760
 5911SOL     OW17983   5.073   4.537   2.822 -0.1336 -0.4246 -0.1152
 5911SOL    HW117984   5.055   4.613   2.877  3.4418 -0.3444  1.2065
 5911SOL    HW217985   5.100   4.469   2.883 -1.7269 -2.3227 -1.4134
 5912SOL     OW17986   4.886   2.988   4.228  0.8902 -0.4071  0.2743
 5912SOL    HW117987   4.832   3.023   4.299 -0.1261 -0.0432 -0.6510
 5912SOL    HW217988   4.974   3.020   4.247  0.6950 -0.5439  1.5038
 5913SOL     OW17989   5.732   5.715   0.245 -0.4682 -0.4073 -0.1167
 5913SOL    HW117990   5.720   5.770   0.322 -1.5340  0.7438 -1.0723
 5913SOL    HW217991   5.814   5.668   0.262  0.3069  1.2152  0.8878
 5914SOL     OW17992   1.584   1.487   1.089  0.2892 -0.1644  0.3064
 5914SOL    HW117993   1.616   1.574   1.062 -0.0385 -0.3133 -0.6093
 5914SOL    HW217994   1.640   1.463   1.163  1.1686  0.3233 -0.1748
 5915SOL     OW17995   5.114   5.368   4.707 -0.1304 -0.8985  0.1300
 5915SOL    HW117996   5.146   5.387   4.619 -0.4141  0.3877  0.2773
 5915SOL    HW217997   5.167   5.424   4.764 -0.3918 -1.2319  0.7039
 5916SOL     OW17998   1.850   6.141   3.229  1.2477 -0.4571  0.4949
 5916SOL    HW117999   1.824   6.233   3.229 -1.5308 -1.1407  0.3377
 5916SOL    HW218000   1.881   6.124   3.318  0.8423  0.4138  0.8085
 5917SOL     OW18001   4.558   5.501   4.666 -0.2120  0.4094  0.3366
 5917SOL    HW118002   4.550   5.551   4.747  1.6220  0.0874  0.7368
 5917SOL    HW218003   4.595   5.417   4.692 -0.3262  0.0072 -0.7478
 5918SOL     OW18004   5.993   3.314   2.425  0.1574 -0.0260  0.3345
 5918SOL    HW118005   5.904   3.348   2.438 -0.2241 -0.8494 -0.0279
 5918SOL    HW218006   6.015   3.339   2.336 -0.7918 -2.1025 -0.5544
 5919SOL     OW18007   4.202   4.162   0.088 -0.1850 -0.1657  0.0898
 5919SOL    HW118008   4.136   4.195   0.148  0.4667  1.4837 -0.0567
 5919SOL    HW218009   4.285   4.195   0.123  0.3192 -0.1401 -1.0855
 5920SOL     OW18010   5.581   0.684   5.189  0.1640  0.3954 -0.2941
 5920SOL    HW118011   5.649   0.722   5.134  0.9302 -1.3198 -0.6262
 5920SOL    HW218012   5.576   0.592   5.161 -1.2885  0.1307  0.7026
 5921SOL     OW18013   6.224   2.336   1.547 -0.5862  0.0528 -0.1776
 5921SOL    HW118014   6.161   2.340   1.475  1.2398  0.6556 -1.8498
 5921SOL    HW218015   6.244   2.243   1.556 -0.1312  0.0445 -1.1424
 5922SOL     OW18016   5.070   1.560   0.322  0.6496  0.1621  0.2813
 5922SOL    HW118017   5.122   1.585   0.246  1.5228 -1.7540  0.1957
 5922SOL    HW218018   5.058   1.642   0.371  0.2279  1.4067 -1.7622
 5923SOL     OW18019   2.695   5.771   3.805 -0.1235  0.3761  0.3371
 5923SOL    HW118020   2.747   5.694   3.781 -0.6086 -0.1877  1.0417
 5923SOL    HW218021   2.658   5.749   3.891 -0.2933  1.3904  0.5384
 5924SOL     OW18022   1.553   1.493   1.566  0.2032  0.0599  0.0275
 5924SOL    HW118023   1.600   1.483   1.484  0.3599  0.2893  0.0867
 5924SOL    HW218024   1.495   1.568   1.552 -0.0815 -0.1703 -0.0175
 5925SOL     OW18025   4.283   4.949   4.010  0.1689 -0.1718 -0.1513
 5925SOL    HW118026   4.376   4.949   4.034 -0.1207  0.2213  1.0601
 5925SOL    HW218027   4.240   4.900   4.080 -0.6004  0.0560 -0.4518
 5926SOL     OW18028   1.829   1.150   1.517 -0.4036 -0.2886 -0.3181
 5926SOL    HW118029   1.826   1.231   1.466 -1.8154  0.2379  0.5543
 5926SOL    HW218030   1.921   1.137   1.537  0.0007  0.3159 -1.6863
 5927SOL     OW18031   4.970   0.845   5.084 -0.5582  0.2111 -0.1663
 5927SOL    HW118032   5.005   0.805   5.005  2.0950 -0.1712  1.1019
 5927SOL    HW218033   4.973   0.939   5.067  0.2543  0.1428 -0.4350
 5928SOL     OW18034   5.059   3.562   2.882  0.3051  0.4743  0.0566
 5928SOL    HW118035   5.043   3.642   2.831  2.0104  1.1878  0.5734
 5928SOL    HW218036   5.144   3.531   2.851  0.6777  0.0866  1.4158
 5929SOL     OW18037   0.351   1.451   1.933  0.1786  0.2332 -0.7859
 5929SOL    HW118038   0.439   1.467   1.900  1.3992  1.5121  2.6177
 5929SOL    HW218039   0.338   1.519   2.000 -3.0125 -0.5516 -0.4308
 5930SOL     OW18040   1.685   2.925   2.043  0.0116 -0.0527  0.1256
 5930SOL    HW118041   1.678   2.951   2.135  2.8036  2.1322 -0.1475
 5930SOL    HW218042   1.757   2.862   2.041 -1.0460 -1.2887 -0.4115
 5931SOL     OW18043   1.291   0.437   2.617  0.5205 -0.7474 -0.6710
 5931SOL    HW118044   1.376   0.480   2.610  1.1677 -1.6745  0.9951
 5931SOL    HW218045   1.237   0.499   2.667  1.2878 -1.5380  1.2472
 5932SOL     OW18046   5.846   5.611   4.799  0.7469 -0.2388  0.4480
 5932SOL    HW118047   5.923   5.665   4.782  0.7946 -0.7350 -1.0535
 5932SOL    HW218048   5.844   5.548   4.727 -0.7049 -0.6431  0.7956
 5933SOL     OW18049   5.828   3.950   6.300  0.4349  0.3297 -0.6781
 5933SOL    HW118050   5.753   3.998   6.336  0.2463  0.6141 -1.4261
 5933SOL    HW218051   5.897   3.961   6.365  0.6401  2.2614 -1.1455
 5934SOL     OW18052   3.227   0.826   1.434  0.0204 -0.5217 -0.1466
 5934SOL    HW118053   3.255   0.857   1.520 -0.3067  0.7232 -0.4703
 5934SOL    HW218054   3.166   0.754   1.453  0.5870 -0.8076  0.6305
 5935SOL     OW18055   0.426   6.252   3.337  0.5835  0.2422  0.3351
 5935SOL    HW118056   0.492   6.190   3.307  0.6905  0.7409 -0.4894
 5935SOL    HW218057   0.464   6.338   3.320 -0.2873  0.5382 -0.1771
 5936SOL     OW18058   5.356   6.297   6.276  0.4653  0.0468 -0.2482
 5936SOL    HW118059   5.431   6.280   6.219  0.3806 -2.1798  0.2166
 5936SOL    HW218060   5.359   6.228   6.342 -1.7394  0.1368  0.0447
 5937SOL     OW18061   1.276   0.681   1.165  0.4431  0.6462  0.5805
 5937SOL    HW118062   1.232   0.685   1.250 -1.4315 -0.2705 -0.3030
 5937SOL    HW218063   1.322   0.596   1.166 -3.4444 -1.7564 -0.9875
 5938SOL     OW18064   1.763   4.734   5.426 -0.0323  0.1544 -0.1005
 5938SOL    HW118065   1.786   4.698   5.340 -3.0715 -0.6501 -0.7015
 5938SOL    HW218066   1.720   4.818   5.406 -2.8517 -1.0656  0.3009
 5939SOL     OW18067   5.375   5.197   1.878 -0.0740  0.5309  0.5059
 5939SOL    HW118068   5.291   5.209   1.921 -0.9434  0.6736 -1.1386
 5939SOL    HW218069   5.402   5.285   1.852 -0.2491  0.3298 -0.4150
 5940SOL     OW18070   4.214   0.617   0.876 -0.1663 -0.2009 -0.2191
 5940SOL    HW118071   4.145   0.678   0.850 -1.6444 -1.5170  0.4346
 5940SOL    HW218072   4.184   0.580   0.959  1.0528 -1.2258 -0.1952
 5941SOL     OW18073   1.481   3.984   1.196 -0.0287  0.1405 -0.2332
 5941SOL    HW118074   1.506   3.975   1.104 -2.6886  2.4780 -1.3123
 5941SOL    HW218075   1.397   3.939   1.204 -0.3925  0.9407  0.7541
 5942SOL     OW18076   4.542   0.020   3.312 -0.0839  0.0056  0.4470
 5942SOL    HW118077   4.467  -0.031   3.341 -1.3142  0.4917 -1.6550
 5942SOL    HW218078   4.597  -0.044   3.266 -2.2520  0.5420 -3.3465
 5943SOL     OW18079   1.363   3.354   2.409 -0.1436  0.3052 -0.1893
 5943SOL    HW118080   1.383   3.378   2.500 -0.6805 -2.8334  0.8760
 5943SOL    HW218081   1.269   3.336   2.409 -0.2362  0.6569 -1.5085
 5944SOL     OW18082   1.163   5.261   5.902 -0.4206  0.7410 -0.1272
 5944SOL    HW118083   1.143   5.173   5.933  1.1090 -0.1865 -1.5528
 5944SOL    HW218084   1.137   5.261   5.810  1.5197  1.0168 -0.7368
 5945SOL     OW18085   2.283   4.329   1.329 -0.4755 -0.1496 -0.1172
 5945SOL    HW118086   2.238   4.412   1.312  0.1253  0.2271  0.0987
 5945SOL    HW218087   2.212   4.267   1.345 -1.1399 -0.5276 -3.6950
 5946SOL     OW18088   3.751   4.401   4.474  0.5165 -0.0014 -0.3507
 5946SOL    HW118089   3.772   4.334   4.539  0.8196  0.5829  0.1645
 5946SOL    HW218090   3.718   4.352   4.399 -0.8621 -0.6239  0.6312
 5947SOL     OW18091   1.295   2.964   0.688 -0.1760 -0.4259  0.4799
 5947SOL    HW118092   1.362   2.930   0.746 -0.2792 -0.2090  0.7322
 5947SOL    HW218093   1.239   3.017   0.745 -1.4776 -1.8514  0.5896
 5948SOL     OW18094   3.021   5.956   2.288 -0.1800  0.0175 -0.3020
 5948SOL    HW118095   3.055   6.036   2.328 -1.3392 -0.6825  2.2882
 5948SOL    HW218096   2.938   5.982   2.247  0.6286  0.5845 -1.6269
 5949SOL     OW18097   0.999   2.529   2.283 -0.4570 -0.7055  0.0285
 5949SOL    HW118098   1.049   2.537   2.201 -0.0917 -0.5168  0.2629
 5949SOL    HW218099   0.908   2.539   2.257 -0.2457  0.9571 -0.1572
 5950SOL     OW18100   5.636   3.130   0.926 -0.0306  0.4343 -0.2174
 5950SOL    HW118101   5.637   3.055   0.866  2.0121  0.2153  0.0182
 5950SOL    HW218102   5.705   3.188   0.892  2.1979 -0.3495  2.6248
 5951SOL     OW18103   3.657   0.261   2.647 -0.2273 -0.2890 -0.5572
 5951SOL    HW118104   3.655   0.351   2.614 -1.8692 -0.3128 -0.6288
 5951SOL    HW218105   3.650   0.207   2.569  1.9967 -0.5613 -0.6282
 5952SOL     OW18106   1.913   4.952   5.279 -0.0653 -0.0189 -0.7409
 5952SOL    HW118107   1.853   5.022   5.255 -0.5185 -0.2460 -0.3052
 5952SOL    HW218108   1.959   4.984   5.356 -0.7901 -0.4627 -0.1001
 5953SOL     OW18109   4.225   4.769   0.612 -0.1620 -0.1008  0.5086
 5953SOL    HW118110   4.230   4.772   0.707 -0.4194  0.7939  0.5014
 5953SOL    HW218111   4.217   4.860   0.585 -1.0537 -0.3954 -0.3066
 5954SOL     OW18112   1.822   0.308   1.702  0.1923 -0.6488 -0.0552
 5954SOL    HW118113   1.774   0.383   1.737 -4.2199 -3.0129 -0.3739
 5954SOL    HW218114   1.807   0.312   1.608  1.2999 -1.0943 -0.2666
 5955SOL     OW18115   2.443   1.106   3.046 -0.2247 -0.1194 -0.5712
 5955SOL    HW118116   2.517   1.120   2.986  1.2259 -2.2403  0.5945
 5955SOL    HW218117   2.473   1.038   3.106 -2.4040  0.3918  1.2575
 5956SOL     OW18118   1.496   5.637   5.338  0.1725 -0.0493 -0.1683
 5956SOL    HW118119   1.490   5.559   5.394 -1.6492 -0.6451 -1.0942
 5956SOL    HW218120   1.406   5.671   5.336  0.9218  2.0828  0.1817
 5957SOL     OW18121   0.436   4.729   2.023  0.8072 -0.1172  0.1462
 5957SOL    HW118122   0.486   4.674   1.962 -0.9824 -1.7156  0.0418
 5957SOL    HW218123   0.501   4.792   2.056  2.4626 -0.9603 -1.2914
 5958SOL     OW18124   5.665   1.024   5.171 -0.0032  0.0306 -0.1346
 5958SOL    HW118125   5.589   1.080   5.187  0.1927  0.1207  0.5162
 5958SOL    HW218126   5.740   1.084   5.173  0.1649 -0.1857  0.1177
 5959SOL     OW18127   4.822   1.963   1.406 -0.0038  0.3065  0.3557
 5959SOL    HW118128   4.823   2.021   1.481  0.1040 -0.0888  0.6648
 5959SOL    HW218129   4.775   2.011   1.338 -0.2852  0.5812  0.7450
 5960SOL     OW18130   2.199   2.045   1.961 -0.3199 -0.0444  0.0252
 5960SOL    HW118131   2.121   2.100   1.959 -1.3617 -1.4591 -0.2612
 5960SOL    HW218132   2.195   2.001   2.046 -0.4413 -0.9381 -0.4316
 5961SOL     OW18133   0.253   5.035   2.602  0.5170  0.4071 -0.4898
 5961SOL    HW118134   0.335   5.086   2.603  1.1597 -0.5251  1.9778
 5961SOL    HW218135   0.185   5.100   2.619  1.0991  0.8158  0.4390
 5962SOL     OW18136   4.753   1.036   0.694 -0.3854  0.0436  0.1041
 5962SOL    HW118137   4.725   1.106   0.635 -0.5872 -0.6531 -0.6461
 5962SOL    HW218138   4.802   1.081   0.763 -2.5991  1.2290  1.0076
 5963SOL     OW18139   0.514   0.202   2.279  0.0298  0.6073  0.1202
 5963SOL    HW118140   0.428   0.199   2.237  0.0245  1.6878  0.0445
 5963SOL    HW218141   0.576   0.204   2.206  0.0381  1.9664  0.1490
 5964SOL     OW18142   5.561   1.057   5.525 -0.0336  0.1757  0.6571
 5964SOL    HW118143   5.582   1.093   5.611  1.5493  0.6000  0.1109
 5964SOL    HW218144   5.467   1.074   5.514  0.0408  1.3464  1.7087
 5965SOL     OW18145   0.546   1.125   1.102  0.0730  0.2733  0.2178
 5965SOL    HW118146   0.564   1.123   1.196  1.0947  2.1533  0.1003
 5965SOL    HW218147   0.594   1.050   1.067  0.4980  0.1427  1.0528
 5966SOL     OW18148   6.096   4.427   2.170  1.0050 -0.3867 -0.3385
 5966SOL    HW118149   6.072   4.395   2.256  0.1616 -2.1503 -1.1871
 5966SOL    HW218150   6.128   4.516   2.186 -0.1789 -0.2546  1.6305
 5967SOL     OW18151   1.032   5.549   5.502  0.3421  0.2789 -0.2752
 5967SOL    HW118152   1.068   5.471   5.545 -0.4308 -0.1599 -0.4127
 5967SOL    HW218153   1.017   5.523   5.411 -1.9645 -0.1481  0.1500
 5968SOL     OW18154   2.269   2.494   1.041 -0.1763 -0.3030 -0.5245
 5968SOL    HW118155   2.259   2.432   1.113  3.0526 -0.7269 -0.2955
 5968SOL    HW218156   2.255   2.579   1.081  0.2870 -0.6154  0.3453
 5969SOL     OW18157   2.674   5.225   2.928  0.2173  0.4772  0.3184
 5969SOL    HW118158   2.709   5.184   2.850  0.8864 -0.5498  1.1280
 5969SOL    HW218159   2.719   5.310   2.933  1.0802  0.0293  0.2439
 5970SOL     OW18160   4.556   4.897   5.176  0.0026 -0.2136 -0.4870
 5970SOL    HW118161   4.471   4.938   5.193  0.3811  0.6135 -0.5183
 5970SOL    HW218162   4.541   4.804   5.191  0.0218  0.2435  3.4912
 5971SOL     OW18163   0.921   2.869   1.772  0.5779  0.2798  0.1347
 5971SOL    HW118164   0.990   2.844   1.833  0.6082 -0.1975 -0.0996
 5971SOL    HW218165   0.863   2.793   1.768  0.2661  0.5216  0.0042
 5972SOL     OW18166   0.719   3.998   2.795  0.5567 -0.2674  0.2642
 5972SOL    HW118167   0.675   3.990   2.880 -1.3680 -0.3899 -0.6942
 5972SOL    HW218168   0.660   3.956   2.733  1.2218  1.0578 -1.3637
 5973SOL     OW18169   1.352   2.138   6.291 -0.1201  0.1539 -0.0728
 5973SOL    HW118170   1.296   2.064   6.271 -0.2878  0.7048 -1.8124
 5973SOL    HW218171   1.369   2.179   6.206  3.6466 -0.4898  0.2049
 5974SOL     OW18172   4.668   6.209   2.602 -0.1615  0.2885  0.1423
 5974SOL    HW118173   4.718   6.127   2.609 -0.0082  0.4725  1.7679
 5974SOL    HW218174   4.611   6.208   2.679 -2.2855  0.3705 -1.3439
 5975SOL     OW18175   0.579   2.749   3.889 -0.1763  0.0201 -0.2414
 5975SOL    HW118176   0.541   2.791   3.966 -1.6710  0.0419 -0.9570
 5975SOL    HW218177   0.674   2.755   3.903 -0.4128  0.3536  1.3967
 5976SOL     OW18178   1.738   6.253   2.628  0.1666  0.0369 -0.3208
 5976SOL    HW118179   1.764   6.169   2.588  1.1783  0.2736 -0.1958
 5976SOL    HW218180   1.742   6.316   2.556  0.5243  0.1850 -0.1733
 5977SOL     OW18181   5.491   0.890   3.802 -0.0806  0.0292  0.1196
 5977SOL    HW118182   5.575   0.874   3.846 -0.7672 -1.9215  0.8267
 5977SOL    HW218183   5.481   0.817   3.742 -0.7474  0.8782 -0.8314
 5978SOL     OW18184   1.545   4.707   1.087  0.9538 -0.0866  0.1363
 5978SOL    HW118185   1.553   4.612   1.083  0.2809 -0.1255 -0.3533
 5978SOL    HW218186   1.635   4.738   1.102  1.2324 -0.7710 -0.0924
 5979SOL     OW18187   2.515   3.838   4.097  0.0062  0.1537  0.4657
 5979SOL    HW118188   2.562   3.865   4.018 -0.4068 -0.2940  0.0550
 5979SOL    HW218189   2.583   3.809   4.157  0.2461 -1.0837 -0.3561
 5980SOL     OW18190   1.163   3.628   1.373  0.1843 -0.7952 -0.1188
 5980SOL    HW118191   1.257   3.628   1.389 -0.1971  0.5406  2.7503
 5980SOL    HW218192   1.139   3.535   1.373  1.5797 -1.2382 -2.1441
 5981SOL     OW18193   5.912   2.346   3.433 -0.5064 -0.7356 -0.3811
 5981SOL    HW118194   6.007   2.356   3.425 -0.7189  1.4168 -0.8342
 5981SOL    HW218195   5.894   2.364   3.525 -0.4433 -1.7294 -0.1614
 5982SOL     OW18196   0.082   5.825   0.313 -0.0736  0.2811  0.7238
 5982SOL    HW118197   0.039   5.868   0.387  0.5333  0.2122  1.1242
 5982SOL    HW218198   0.048   5.871   0.235 -0.5484  0.4978  1.0579
 5983SOL     OW18199   3.983   2.287   5.324 -0.1185 -0.2433  0.5186
 5983SOL    HW118200   3.924   2.356   5.291 -0.2863 -0.7979 -0.3808
 5983SOL    HW218201   4.042   2.333   5.384  0.2645  0.8525 -0.6495
 5984SOL     OW18202   1.737   1.932   6.254  0.2171 -0.4314 -0.0702
 5984SOL    HW118203   1.691   1.919   6.337  1.4548  0.2833  0.7813
 5984SOL    HW218204   1.737   1.847   6.212 -0.6039 -0.7632  0.5822
 5985SOL     OW18205   3.104   2.969   3.704 -0.6125  0.5988  0.4377
 5985SOL    HW118206   3.156   2.966   3.785  0.2309 -1.1079 -0.1223
 5985SOL    HW218207   3.057   3.052   3.710  1.1364  1.5923  1.6143
 5986SOL     OW18208   2.442   0.600   1.954 -0.3664 -0.2558 -0.1143
 5986SOL    HW118209   2.424   0.535   2.021  1.4920  0.1166  0.8147
 5986SOL    HW218210   2.537   0.610   1.955 -0.5709  2.7166  0.0367
 5987SOL     OW18211   0.342   0.506   3.123  0.3027 -0.6569  0.5237
 5987SOL    HW118212   0.314   0.426   3.168  1.3533 -1.4940 -0.2535
 5987SOL    HW218213   0.270   0.567   3.136  0.3982 -0.9899  2.9890
 5988SOL     OW18214   2.646   2.121   0.262  0.0285  0.2086 -0.3035
 5988SOL    HW118215   2.719   2.182   0.270  0.8480 -0.6325 -1.2523
 5988SOL    HW218216   2.586   2.147   0.333  0.7669  1.5286 -0.1270
 5989SOL     OW18217   3.500   5.433   3.000  0.1002 -0.0432  0.5388
 5989SOL    HW118218   3.471   5.386   2.922  0.5324 -1.4021  1.1608
 5989SOL    HW218219   3.449   5.394   3.071 -1.2019  2.0362  0.8137
 5990SOL     OW18220   5.606   5.482   3.326  0.3459  0.1625 -0.1627
 5990SOL    HW118221   5.516   5.478   3.358  0.3393  0.7117 -0.1110
 5990SOL    HW218222   5.623   5.393   3.293 -0.1037 -0.0317  0.1163
 5991SOL     OW18223   2.396   4.100   3.256 -0.1820  0.7488 -0.4780
 5991SOL    HW118224   2.418   4.060   3.172  2.1960  1.0221 -0.0638
 5991SOL    HW218225   2.436   4.187   3.251  1.5122  0.1671  1.5150
 5992SOL     OW18226   1.188   2.425   3.537 -0.0210  0.0839  0.3952
 5992SOL    HW118227   1.118   2.445   3.600 -1.0298  0.6293 -0.8449
 5992SOL    HW218228   1.158   2.345   3.494  0.7214 -0.3521  0.6731
 5993SOL     OW18229   0.351   1.509   4.846 -0.2809 -0.1748  0.2275
 5993SOL    HW118230   0.287   1.519   4.917  0.2641  2.0493  0.4744
 5993SOL    HW218231   0.355   1.415   4.830 -1.3295 -0.6150  2.3009
 5994SOL     OW18232   5.916   4.887   2.838  0.1376  0.3437  0.1209
 5994SOL    HW118233   5.890   4.979   2.844  1.0490  0.7993 -1.9795
 5994SOL    HW218234   5.840   4.843   2.800 -0.1571  0.2714  0.7699
 5995SOL     OW18235   0.338   3.854   6.009  0.4388  0.5758  0.0672
 5995SOL    HW118236   0.319   3.822   6.097  0.5361 -2.2707 -0.8326
 5995SOL    HW218237   0.295   3.939   6.004 -1.0618  0.0229  2.2996
 5996SOL     OW18238   5.713   1.327   0.295 -0.2842 -0.4076  0.3689
 5996SOL    HW118239   5.773   1.400   0.281  0.0068 -0.8720 -1.0035
 5996SOL    HW218240   5.694   1.329   0.388  2.8339 -0.9688  1.1331
 5997SOL     OW18241   2.560   0.594   5.039 -0.0716  0.5812  0.3805
 5997SOL    HW118242   2.503   0.518   5.051  1.6483 -0.9183 -0.5071
 5997SOL    HW218243   2.633   0.579   5.100  1.8961 -0.2084 -2.0190
 5998SOL     OW18244   5.600   1.893   3.540 -0.7242 -0.1123 -0.2963
 5998SOL    HW118245   5.574   1.906   3.631  0.7841 -0.7157  0.2562
 5998SOL    HW218246   5.583   1.977   3.497 -0.9387  0.3449  0.6700
 5999SOL     OW18247   2.933   3.640   4.446  0.3000  0.9018 -0.8388
 5999SOL    HW118248   2.996   3.599   4.505 -1.0691  0.6121  0.5190
 5999SOL    HW218249   2.950   3.601   4.361  0.5396 -0.8308 -0.0451
 6000SOL     OW18250   5.752   3.039   3.907  0.0061 -0.0734 -0.1112
 6000SOL    HW118251   5.703   3.122   3.908 -0.6646 -0.4619 -0.0673
 6000SOL    HW218252   5.844   3.065   3.909 -0.2029  0.6704  0.0274
 6001SOL     OW18253   2.713   0.499   3.279 -0.2538 -0.6754 -0.3137
 6001SOL    HW118254   2.673   0.419   3.245  0.4623 -2.5489  2.8564
 6001SOL    HW218255   2.679   0.506   3.369  0.4983  2.0513 -0.1532
 6002SOL     OW18256   0.260   3.776   6.262  0.1987  0.0035 -0.0195
 6002SOL    HW118257   0.236   3.684   6.254  1.0150 -0.0532 -2.7389
 6002SOL    HW218258   0.178   3.820   6.288 -0.8203 -1.1961 -1.0805
 6003SOL     OW18259   1.009   0.040   5.283 -0.7201  0.0678 -0.9523
 6003SOL    HW118260   1.008   0.067   5.374 -1.8094  0.2940 -1.0143
 6003SOL    HW218261   1.066  -0.037   5.281 -1.9832 -0.9653  0.2443
 6004SOL     OW18262   4.710   5.327   5.020  0.3911  0.2821  0.4135
 6004SOL    HW118263   4.736   5.259   5.081  0.4405  0.7862  0.9671
 6004SOL    HW218264   4.787   5.384   5.013  0.1739  0.5734  0.3662
 6005SOL     OW18265   2.878   4.684   0.545  0.7255 -0.0288 -0.6651
 6005SOL    HW118266   2.957   4.725   0.579  0.9138 -0.6314 -0.3584
 6005SOL    HW218267   2.815   4.690   0.616  0.5928  0.1737 -0.7988
 6006SOL     OW18268   5.646   5.414   2.862  0.2390 -0.0847  0.0939
 6006SOL    HW118269   5.555   5.387   2.851 -0.2241  1.4040  0.0582
 6006SOL    HW218270   5.675   5.368   2.940 -1.4359  1.4933  1.7522
 6007SOL     OW18271   4.952   1.857   2.143  0.0404 -0.2568  0.2634
 6007SOL    HW118272   4.955   1.768   2.176  0.8785 -0.5408 -0.5327
 6007SOL    HW218273   4.939   1.848   2.049  1.5288  0.3909 -0.0399
 6008SOL     OW18274   0.177   2.819   4.261  0.1025 -0.2289  0.1140
 6008SOL    HW118275   0.086   2.826   4.290 -0.3478  1.2935 -1.4413
 6008SOL    HW218276   0.197   2.726   4.265 -2.1349 -0.8389 -1.1617
 6009SOL     OW18277   5.005   3.407   3.610 -0.1962  1.2590 -0.4859
 6009SOL    HW118278   5.080   3.456   3.644 -0.1471  0.7887  0.1058
 6009SOL    HW218279   5.027   3.315   3.627 -1.4889  1.1706  0.9210
 6010SOL     OW18280   3.175   4.745   3.381 -0.1030  0.0972  0.7764
 6010SOL    HW118281   3.172   4.650   3.389  0.8726 -0.3698 -2.8624
 6010SOL    HW218282   3.265   4.768   3.403  0.5353 -0.2827 -1.2275
 6011SOL     OW18283   3.867   0.390   4.247  0.2989  0.0108  0.7793
 6011SOL    HW118284   3.877   0.460   4.312  0.8465  1.9812 -1.3077
 6011SOL    HW218285   3.784   0.410   4.203  0.8381 -0.2244 -0.3544
 6012SOL     OW18286   0.073   0.259   2.504  0.0772  0.3208 -0.3443
 6012SOL    HW118287   0.070   0.176   2.456  0.5537  0.1402 -0.0659
 6012SOL    HW218288  -0.007   0.259   2.556  0.3062 -0.1933  0.0243
 6013SOL     OW18289   2.963   5.211   5.576 -0.0938 -0.4818 -0.3162
 6013SOL    HW118290   3.028   5.276   5.604  0.6644  0.2899 -3.4545
 6013SOL    HW218291   2.881   5.259   5.570  0.2070 -0.0770 -1.4327
 6014SOL     OW18292   5.919   3.741   4.952 -0.0007  0.6631  0.5855
 6014SOL    HW118293   5.904   3.757   4.859 -0.6312  0.9107  0.7271
 6014SOL    HW218294   5.884   3.654   4.968 -0.5744  0.9186  0.7448
 6015SOL     OW18295   5.041   1.046   2.864 -0.1945 -0.3374 -0.0197
 6015SOL    HW118296   5.035   1.055   2.769 -0.8796 -0.8956 -0.0372
 6015SOL    HW218297   5.019   1.133   2.897  2.5206  0.6022 -0.4082
 6016SOL     OW18298   3.266   0.247   0.042  0.0555  0.0222 -0.3702
 6016SOL    HW118299   3.311   0.217  -0.037 -1.5343  2.2126 -2.2320
 6016SOL    HW218300   3.329   0.306   0.084  0.2554  0.2385 -0.9694
 6017SOL     OW18301   3.723   0.691   5.725 -0.3124  0.1501 -0.3198
 6017SOL    HW118302   3.813   0.723   5.729  0.2799 -1.2252 -1.6458
 6017SOL    HW218303   3.681   0.726   5.804  2.5730 -2.7843  2.8192
 6018SOL     OW18304   0.557   4.652   1.457  0.1855 -0.0831 -0.0134
 6018SOL    HW118305   0.487   4.706   1.493 -0.5197 -0.3725 -0.9126
 6018SOL    HW218306   0.526   4.562   1.467 -0.1162 -0.1699 -1.4715
 6019SOL     OW18307   0.236   5.932   2.571  0.2935 -0.3720  0.5725
 6019SOL    HW118308   0.300   5.870   2.534 -1.1894 -1.1619 -0.7679
 6019SOL    HW218309   0.186   5.880   2.634 -0.4239 -0.3477  0.0368
 6020SOL     OW18310   5.789   0.014   5.818 -0.4578 -0.1153  0.0252
 6020SOL    HW118311   5.747   0.078   5.761 -1.3888 -0.2893  0.5055
 6020SOL    HW218312   5.792   0.055   5.904  2.0567  0.6406 -0.3532
 6021SOL     OW18313   3.829   4.266   3.350  0.2152 -0.3869  0.0857
 6021SOL    HW118314   3.819   4.175   3.377  1.5998 -1.0773 -1.5507
 6021SOL    HW218315   3.783   4.272   3.266 -0.0587  0.4908  0.2818
 6022SOL     OW18316   4.219   6.261   4.912 -0.6223 -0.0346 -0.2165
 6022SOL    HW118317   4.225   6.252   4.817 -0.9839 -1.6395 -0.1308
 6022SOL    HW218318   4.189   6.175   4.942 -0.8274  0.5355  1.3260
 6023SOL     OW18319   4.202   4.090   2.109  0.3015 -0.0891 -0.4305
 6023SOL    HW118320   4.229   4.000   2.129  0.3696  0.3472  1.6853
 6023SOL    HW218321   4.230   4.104   2.018  2.4065 -1.4133 -0.0480
 6024SOL     OW18322   0.613   2.353   4.671  0.0064  0.1096  0.1669
 6024SOL    HW118323   0.655   2.439   4.674 -1.4815  0.8451  0.9245
 6024SOL    HW218324   0.661   2.300   4.734  0.2570  0.7207  0.4948
 6025SOL     OW18325   1.951   5.825   4.257  0.4270  0.0913  0.4570
 6025SOL    HW118326   2.019   5.872   4.207  0.4868  1.0751  1.4163
 6025SOL    HW218327   1.931   5.884   4.330  1.0756 -1.7329  2.1783
 6026SOL     OW18328   5.472   4.052   0.196 -0.3979 -0.0577 -0.3630
 6026SOL    HW118329   5.525   4.093   0.128 -0.5131  1.8756  0.6277
 6026SOL    HW218330   5.390   4.029   0.152  0.1027 -0.2448 -1.2100
 6027SOL     OW18331   5.135   4.033   2.195  0.1315 -0.1912 -0.0902
 6027SOL    HW118332   5.175   4.113   2.161 -0.2946  0.0926  0.0740
 6027SOL    HW218333   5.124   4.049   2.289 -0.4761 -0.2245 -0.1571
 6028SOL     OW18334   3.247   0.387   3.899 -0.2033 -0.2198 -0.0967
 6028SOL    HW118335   3.165   0.373   3.851 -0.0586 -0.7922 -0.1781
 6028SOL    HW218336   3.286   0.463   3.857  0.0013 -0.8080 -1.0050
 6029SOL     OW18337   1.566   1.691   6.282  0.3080  0.3517 -0.3329
 6029SOL    HW118338   1.482   1.734   6.295 -0.0769 -0.1085 -1.1733
 6029SOL    HW218339   1.570   1.623   6.349 -0.4004 -0.2127 -0.8538
 6030SOL     OW18340   4.921   1.131   6.062  0.1032 -0.2172  0.5000
 6030SOL    HW118341   5.016   1.117   6.064  0.0488 -0.8174 -0.4976
 6030SOL    HW218342   4.887   1.055   6.015 -0.8002  0.4202  0.1049
 6031SOL     OW18343   0.256   2.553   1.239 -0.1669 -0.4721 -0.4852
 6031SOL    HW118344   0.199   2.610   1.187 -1.5228  1.5194  2.8150
 6031SOL    HW218345   0.195   2.508   1.299  1.3715 -1.6415  0.2609
 6032SOL     OW18346   5.530   1.121   0.632  0.1167  0.0761  0.4753
 6032SOL    HW118347   5.451   1.068   0.639 -0.0285  0.3985  1.4352
 6032SOL    HW218348   5.588   1.086   0.700  1.0653 -0.5869 -0.6328
 6033SOL     OW18349   1.877   2.864   0.392 -0.3782 -0.2784 -0.2182
 6033SOL    HW118350   1.959   2.906   0.365  0.0507 -1.9683 -1.7120
 6033SOL    HW218351   1.886   2.854   0.486  1.6702 -1.4171 -0.4679
 6034SOL     OW18352   5.456   2.544   4.949  0.3474  0.2224  0.1144
 6034SOL    HW118353   5.406   2.623   4.970 -1.2126 -0.6736 -0.0861
 6034SOL    HW218354   5.532   2.548   5.007 -0.7802  0.8152  1.6156
 6035SOL     OW18355   4.294   4.081   5.023 -0.4038 -0.2922  0.4433
 6035SOL    HW118356   4.354   4.064   5.096  1.4269 -0.3716 -1.0160
 6035SOL    HW218357   4.234   4.147   5.057 -0.4099 -1.2330  2.4248
 6036SOL     OW18358   3.274   5.929   5.605  0.0064  0.0677  0.7485
 6036SOL    HW118359   3.261   5.984   5.683 -0.6214 -0.5660  1.1051
 6036SOL    HW218360   3.223   5.851   5.623  0.6063 -0.4862  0.0928
 6037SOL     OW18361   3.886   0.859   5.097  0.1563 -0.0214 -0.4286
 6037SOL    HW118362   3.845   0.797   5.156 -0.6284  0.9507  0.0825
 6037SOL    HW218363   3.818   0.879   5.032  0.1926  0.7343 -0.2434
 6038SOL     OW18364   4.340   5.740   0.306  0.8507  0.6070 -0.1535
 6038SOL    HW118365   4.417   5.689   0.330  0.0522  0.4963  2.4208
 6038SOL    HW218366   4.268   5.676   0.303  0.3852  1.1110  0.0692
 6039SOL     OW18367   2.712   1.985   3.587  0.0917 -0.3191 -0.1879
 6039SOL    HW118368   2.746   2.070   3.614  0.2805 -0.4668  0.0470
 6039SOL    HW218369   2.656   2.004   3.512 -0.4315  0.1022  0.2932
 6040SOL     OW18370   4.764   1.349   5.081  0.5704  0.3059 -0.0864
 6040SOL    HW118371   4.698   1.300   5.031 -0.3827  0.1286  1.3102
 6040SOL    HW218372   4.762   1.437   5.043 -0.6149  0.3586  0.0598
 6041SOL     OW18373   4.188   1.880   2.659 -0.3169  0.4063  0.4553
 6041SOL    HW118374   4.215   1.965   2.627 -0.6062  0.2389 -0.2444
 6041SOL    HW218375   4.194   1.887   2.755 -0.9284  1.4115  0.4328
 6042SOL     OW18376   4.619   3.663   4.951  0.1763  0.2559 -0.4199
 6042SOL    HW118377   4.610   3.710   5.034  0.6974  0.3458 -0.4096
 6042SOL    HW218378   4.643   3.731   4.888  0.2335  0.1127 -0.5512
 6043SOL     OW18379   5.784   2.168   2.066  0.3665  0.0371 -0.4889
 6043SOL    HW118380   5.723   2.232   2.028 -1.2213 -2.1382 -1.8479
 6043SOL    HW218381   5.766   2.171   2.160 -0.1295  1.1042 -0.5997
 6044SOL     OW18382   2.539   1.884   1.652 -0.1257  0.4572 -0.4391
 6044SOL    HW118383   2.463   1.933   1.684  0.2324  1.3633 -0.9271
 6044SOL    HW218384   2.504   1.798   1.630 -1.0013  0.8268 -0.5639
 6045SOL     OW18385   5.111   0.063   2.083  0.1494  0.3363 -1.0804
 6045SOL    HW118386   5.024   0.099   2.068 -0.4967 -0.7369 -0.1034
 6045SOL    HW218387   5.101  -0.031   2.070  0.9768  0.1034 -0.1932
 6046SOL     OW18388   3.633   5.186   1.174  0.3660 -0.0656  0.4636
 6046SOL    HW118389   3.573   5.249   1.135  0.3023  0.3103  1.1437
 6046SOL    HW218390   3.578   5.131   1.229  0.2091 -1.5952 -1.1270
 6047SOL     OW18391   0.439   3.565   0.326 -0.5832 -0.1936 -0.0362
 6047SOL    HW118392   0.451   3.660   0.324 -0.4975 -0.1993  0.3161
 6047SOL    HW218393   0.446   3.541   0.418  1.1563 -0.7741 -0.2837
 6048SOL     OW18394   0.271   1.681   6.190  0.0279  0.5061 -0.0691
 6048SOL    HW118395   0.274   1.629   6.270 -1.5669  0.0614 -0.2670
 6048SOL    HW218396   0.295   1.620   6.121  0.6098  0.6834 -0.0273
 6049SOL     OW18397   2.130   5.520   2.487 -0.0442  0.0494 -0.3289
 6049SOL    HW118398   2.102   5.528   2.579 -1.7285  2.8270 -0.9784
 6049SOL    HW218399   2.102   5.433   2.461 -0.5542 -0.3761  1.4947
 6050SOL     OW18400   0.017   6.129   5.226  0.0543 -0.3116  0.0195
 6050SOL    HW118401   0.027   6.047   5.274  1.4032 -0.5761 -0.6625
 6050SOL    HW218402   0.054   6.195   5.284  0.8404 -0.4989 -0.2520
 6051SOL     OW18403   3.587   0.390   6.316  0.1289  0.5446 -0.2277
 6051SOL    HW118404   3.570   0.459   6.380 -1.2146 -0.2051  0.2540
 6051SOL    HW218405   3.584   0.309   6.366  0.9847  0.0746 -0.9133
 6052SOL     OW18406   4.281   0.502   3.364 -0.6204  0.4381  0.1363
 6052SOL    HW118407   4.333   0.427   3.391 -0.4390 -0.5640 -2.6980
 6052SOL    HW218408   4.312   0.574   3.419  0.7454 -1.0461  1.4099
 6053SOL     OW18409   1.095   3.895   2.712 -0.1635  0.5727 -0.0666
 6053SOL    HW118410   1.020   3.837   2.696 -1.1743  1.0494  2.5062
 6053SOL    HW218411   1.155   3.877   2.638 -1.3844 -2.1274 -0.5439
 6054SOL     OW18412   5.551   1.105   3.264  0.1562 -0.2772 -0.2245
 6054SOL    HW118413   5.522   1.094   3.355  0.8330  0.7749  0.1388
 6054SOL    HW218414   5.603   1.186   3.265  2.0855 -1.4235 -1.0765
 6055SOL     OW18415   5.379   1.698   5.313  0.2338 -0.5214  0.4970
 6055SOL    HW118416   5.330   1.676   5.234 -3.0280  0.8788  1.9148
 6055SOL    HW218417   5.445   1.761   5.284 -1.6312  0.8488 -1.0210
 6056SOL     OW18418   0.207   1.828   1.509  0.9145 -0.3354  0.1668
 6056SOL    HW118419   0.192   1.786   1.425  1.4519  1.9761 -1.1641
 6056SOL    HW218420   0.142   1.790   1.568 -0.9676 -0.4065 -1.8582
 6057SOL     OW18421   2.996   2.149   4.074  0.4528  0.0914  0.2630
 6057SOL    HW118422   3.051   2.130   4.150  1.3316  0.4583 -0.2606
 6057SOL    HW218423   2.963   2.237   4.089 -0.4730 -0.3427  0.8484
 6058SOL     OW18424   3.411   5.898   1.222  0.5993 -0.5415  0.3216
 6058SOL    HW118425   3.366   5.820   1.254  0.2012 -0.1386  0.7492
 6058SOL    HW218426   3.350   5.938   1.160  0.4600 -0.1273  0.7198
 6059SOL     OW18427   4.134   3.935   0.376  0.0196  0.2177  0.6327
 6059SOL    HW118428   4.040   3.921   0.366  0.3529 -0.3144 -3.0678
 6059SOL    HW218429   4.142   4.028   0.401 -1.4613  0.7420 -0.7181
 6060SOL     OW18430   5.816   3.718   3.878  0.4006 -0.5061  0.2517
 6060SOL    HW118431   5.778   3.803   3.899 -0.1026 -0.5130 -0.5978
 6060SOL    HW218432   5.911   3.734   3.877  0.2687  0.3480 -1.1268
 6061SOL     OW18433   2.147   0.468   4.778 -0.5709  0.4489 -0.2747
 6061SOL    HW118434   2.158   0.437   4.868 -0.4875  0.0961 -0.4028
 6061SOL    HW218435   2.235   0.495   4.751  0.0083 -2.0482 -1.1819
 6062SOL     OW18436   4.366   0.911   5.566  0.5459  0.2452  0.2887
 6062SOL    HW118437   4.287   0.952   5.530  0.9875  1.1176  0.2824
 6062SOL    HW218438   4.414   0.984   5.605  1.6671 -0.1748 -0.2920
 6063SOL     OW18439   5.161   0.131   4.323 -0.3419 -0.4712  0.0940
 6063SOL    HW118440   5.239   0.159   4.275  0.2258 -1.9014  0.1414
 6063SOL    HW218441   5.176   0.160   4.413 -0.4609  0.3624 -0.1389
 6064SOL     OW18442   4.797   3.483   0.351  0.0784  0.0116 -0.3878
 6064SOL    HW118443   4.800   3.445   0.263 -0.6702  0.1226 -0.4703
 6064SOL    HW218444   4.790   3.577   0.337  1.3864  0.1495 -0.1874
 6065SOL     OW18445   2.967   4.900   3.342  0.2893  0.1571 -0.0164
 6065SOL    HW118446   3.042   4.842   3.333  0.5943  0.6092 -0.4646
 6065SOL    HW218447   3.002   4.988   3.323 -0.4138  0.3280 -0.5984
 6066SOL     OW18448   3.564   4.165   0.103  0.3012  0.1630  0.0584
 6066SOL    HW118449   3.580   4.255   0.074  0.0455  0.3835  0.5968
 6066SOL    HW218450   3.547   4.172   0.197 -2.9200 -0.0653 -0.4174
 6067SOL     OW18451   4.760   2.233   1.645  0.4159 -0.3965 -0.2120
 6067SOL    HW118452   4.689   2.215   1.584 -0.5819 -1.1178  1.1131
 6067SOL    HW218453   4.749   2.324   1.670  1.6768  0.3446 -2.1188
 6068SOL     OW18454   5.713   1.519   4.597 -0.8048  0.2293 -0.3355
 6068SOL    HW118455   5.751   1.434   4.621 -3.3811 -1.5926 -2.0380
 6068SOL    HW218456   5.632   1.524   4.649 -1.3664  0.9731 -1.2551
 6069SOL     OW18457   6.207   0.982   5.588 -0.6681  0.1090  0.5870
 6069SOL    HW118458   6.145   0.939   5.647 -0.8338 -0.1802  0.2033
 6069SOL    HW218459   6.219   1.070   5.626  1.8638 -1.1224  3.0203
 6070SOL     OW18460   0.427   6.077   0.361 -0.4783 -0.1169 -0.5170
 6070SOL    HW118461   0.383   6.162   0.353 -1.1524 -0.3345  0.6781
 6070SOL    HW218462   0.404   6.046   0.448 -1.4080 -2.1924 -1.4283
 6071SOL     OW18463   6.200   3.316   1.867  0.7776 -1.1420 -0.3941
 6071SOL    HW118464   6.255   3.263   1.809 -1.6027 -0.9187 -3.0590
 6071SOL    HW218465   6.144   3.253   1.911  1.0167 -1.1364 -0.0758
 6072SOL     OW18466   2.271   5.435   1.880  0.0491  0.1637  0.1242
 6072SOL    HW118467   2.338   5.395   1.935  1.0585  2.4518  0.6911
 6072SOL    HW218468   2.317   5.460   1.799 -0.1232  1.4929  0.4023
 6073SOL     OW18469   1.785   4.454   0.460  0.4908 -0.1093  0.6978
 6073SOL    HW118470   1.709   4.511   0.454  1.6473  1.6107  1.4771
 6073SOL    HW218471   1.787   4.406   0.377 -1.3337 -0.0953  0.6228
 6074SOL     OW18472   5.359   1.341   4.790  0.4375  0.8981 -0.2009
 6074SOL    HW118473   5.411   1.406   4.838  0.2511  1.8036 -1.1934
 6074SOL    HW218474   5.411   1.261   4.793  0.8528  1.1977  0.7074
 6075SOL     OW18475   0.853   5.802   0.701  0.0831 -0.2451  0.3481
 6075SOL    HW118476   0.869   5.711   0.673 -0.5142  0.1053 -1.2360
 6075SOL    HW218477   0.935   5.829   0.743  0.4897 -1.3152  0.2715
 6076SOL     OW18478   0.075   3.426   3.590 -0.2935  0.2551 -0.0202
 6076SOL    HW118479   0.062   3.391   3.678 -0.7140  2.1991  0.7256
 6076SOL    HW218480  -0.010   3.417   3.547 -0.6483  1.1497  0.4758
 6077SOL     OW18481   0.250   5.721   3.717  0.3429 -0.0284  0.1980
 6077SOL    HW118482   0.315   5.653   3.733  0.6813  0.1425 -0.4261
 6077SOL    HW218483   0.177   5.699   3.776  0.1179 -1.3752 -0.5420
 6078SOL     OW18484   3.863   1.337   6.332 -0.2266  0.0142 -0.2474
 6078SOL    HW118485   3.841   1.350   6.240 -3.4314  1.3010  0.5635
 6078SOL    HW218486   3.925   1.407   6.352 -2.0415  1.8517 -0.7217
 6079SOL     OW18487   5.790   1.626   0.044  0.0399 -0.4750 -0.3774
 6079SOL    HW118488   5.849   1.669  -0.018 -0.3396  1.0575  0.2830
 6079SOL    HW218489   5.718   1.594  -0.010  0.9782 -1.4856 -1.0579
 6080SOL     OW18490   5.611   6.183   1.816 -0.3653 -0.0947 -0.0016
 6080SOL    HW118491   5.706   6.198   1.818 -0.0130 -2.1030  0.5484
 6080SOL    HW218492   5.598   6.107   1.873 -2.2734 -0.0556 -0.3392
 6081SOL     OW18493   0.600   1.874   1.674 -0.1339  0.0106  0.4928
 6081SOL    HW118494   0.525   1.921   1.640  0.7526  1.1559  0.0560
 6081SOL    HW218495   0.573   1.782   1.676 -1.6053  0.4291  0.5764
 6082SOL     OW18496   5.769   0.316   5.978  0.4523  0.5947  0.0906
 6082SOL    HW118497   5.701   0.367   5.933 -0.0462  0.7166  0.9541
 6082SOL    HW218498   5.772   0.353   6.067 -0.0481 -0.9627  0.8079
 6083SOL     OW18499   1.404   2.867   1.288 -0.0018 -0.0626  0.6210
 6083SOL    HW118500   1.323   2.885   1.242  0.1655  0.4098  0.5087
 6083SOL    HW218501   1.462   2.940   1.266  0.4598 -0.4024  0.6820
 6084SOL     OW18502   4.498   5.549   5.977 -0.4823  0.2000 -0.2549
 6084SOL    HW118503   4.511   5.527   6.070  1.8287  0.7889 -0.3876
 6084SOL    HW218504   4.473   5.641   5.977 -0.2036  0.2754 -0.2338
 6085SOL     OW18505   0.725   3.758   6.204 -0.4410 -0.2157  0.6364
 6085SOL    HW118506   0.675   3.696   6.258 -0.3292 -0.4708  0.4529
 6085SOL    HW218507   0.692   3.742   6.115 -0.3752 -0.0448  0.5820
 6086SOL     OW18508   2.860   1.213   2.158 -0.5720 -0.5027 -0.5549
 6086SOL    HW118509   2.779   1.203   2.109  0.2562  1.0503 -2.3546
 6086SOL    HW218510   2.906   1.285   2.115  2.2679 -2.0132 -0.3052
 6087SOL     OW18511   5.310   1.845   1.595 -0.3667  0.1966 -0.1489
 6087SOL    HW118512   5.230   1.831   1.545 -0.6311 -0.7053  0.5085
 6087SOL    HW218513   5.303   1.785   1.669  0.6319  0.5569  0.2532
 6088SOL     OW18514   1.533   5.636   1.226  0.0890 -0.0775  0.2579
 6088SOL    HW118515   1.453   5.596   1.258 -1.4472  1.4037 -1.4190
 6088SOL    HW218516   1.539   5.719   1.273 -0.5882  0.7793 -1.0945
 6089SOL     OW18517   3.449   5.011   6.149  0.1916 -0.1845  0.3412
 6089SOL    HW118518   3.414   4.989   6.063  1.2397 -0.7203  0.0360
 6089SOL    HW218519   3.529   4.959   6.157 -0.6010 -1.2146  2.2124
 6090SOL     OW18520   2.705   1.835   4.823 -0.2713  0.1748 -0.1406
 6090SOL    HW118521   2.765   1.865   4.892  1.1621  0.4087 -1.4469
 6090SOL    HW218522   2.692   1.911   4.767 -1.9355  0.1645  0.1925
 6091SOL     OW18523   4.403   0.275   0.671 -0.0237  0.7818  0.0835
 6091SOL    HW118524   4.430   0.332   0.743 -1.4969  0.4092  0.9986
 6091SOL    HW218525   4.322   0.314   0.639 -0.0158  0.2772 -0.5679
 6092SOL     OW18526   2.546   2.945   3.257 -0.0887 -0.0383  0.3000
 6092SOL    HW118527   2.536   2.928   3.350  1.2566 -2.4719  0.0895
 6092SOL    HW218528   2.456   2.946   3.223 -0.5508  0.2079  1.4991
 6093SOL     OW18529   2.159   2.284   3.620 -0.2459 -0.1604  0.1145
 6093SOL    HW118530   2.219   2.259   3.691  0.3805  0.9542  0.0008
 6093SOL    HW218531   2.155   2.380   3.625 -1.3727 -0.1686 -0.4176
 6094SOL     OW18532   5.603   3.499   0.743  0.4145 -0.2894 -0.1616
 6094SOL    HW118533   5.670   3.488   0.676  1.4509 -2.0076  1.1035
 6094SOL    HW218534   5.542   3.426   0.729  0.6036 -0.6237  0.7195
 6095SOL     OW18535   2.379   2.412   3.837 -0.2356  0.2694 -0.3230
 6095SOL    HW118536   2.453   2.423   3.896 -0.0579 -0.7728 -0.3283
 6095SOL    HW218537   2.309   2.464   3.876  0.3192  0.8014 -0.0126
 6096SOL     OW18538   2.335   1.225   4.749 -0.5565  0.0579 -0.1409
 6096SOL    HW118539   2.327   1.317   4.723 -0.2749 -0.2751 -1.4991
 6096SOL    HW218540   2.276   1.178   4.690 -2.4796 -0.4344  2.0280
 6097SOL     OW18541   5.288   3.349   5.939  0.7002  0.0251 -0.0577
 6097SOL    HW118542   5.357   3.397   5.892  0.6406  0.4463  0.2795
 6097SOL    HW218543   5.261   3.281   5.878  0.2241  0.9220 -0.8617
 6098SOL     OW18544   1.341   4.052   3.117 -0.5665 -0.5937 -0.4490
 6098SOL    HW118545   1.361   4.107   3.193  1.7185 -0.3923 -1.1420
 6098SOL    HW218546   1.337   4.114   3.044 -0.4604 -1.0606 -0.8509
 6099SOL     OW18547   3.505   3.014   3.075 -0.2647 -0.1535  0.0996
 6099SOL    HW118548   3.444   3.055   3.137  0.4137 -1.1815  1.4998
 6099SOL    HW218549   3.578   3.074   3.070 -0.1019 -0.2858  0.7152
 6100SOL     OW18550   3.151   3.537   1.214 -0.6995 -0.3178  0.3232
 6100SOL    HW118551   3.222   3.482   1.246 -0.7108  0.5748  2.0074
 6100SOL    HW218552   3.075   3.479   1.213 -0.3912 -0.7326  0.5793
 6101SOL     OW18553   4.049   1.119   3.866  0.7312  0.1372  0.0867
 6101SOL    HW118554   3.958   1.125   3.837  0.7167 -2.4786 -0.6453
 6101SOL    HW218555   4.051   1.170   3.947 -1.2411  0.7457 -0.1875
 6102SOL     OW18556   6.078   2.750   2.641 -0.4594 -0.4676  0.0233
 6102SOL    HW118557   6.164   2.763   2.681 -0.6686 -0.4076  0.4598
 6102SOL    HW218558   6.091   2.771   2.549  0.3082 -1.6920 -0.1855
 6103SOL     OW18559   2.616   0.468   3.542 -0.1341  0.0941 -0.1467
 6103SOL    HW118560   2.527   0.440   3.520 -0.8733  1.9674  0.2334
 6103SOL    HW218561   2.638   0.418   3.621 -1.6183  0.9233  0.8444
 6104SOL     OW18562   2.867   4.909   0.166  0.4074  0.2588  0.3852
 6104SOL    HW118563   2.834   4.829   0.207 -1.1477  0.6138 -0.1187
 6104SOL    HW218564   2.873   4.972   0.238  0.0049  0.1781  0.4912
 6105SOL     OW18565   4.153   5.514   5.311 -0.0596  0.1356  0.4612
 6105SOL    HW118566   4.060   5.534   5.321  0.2953  1.4304  1.4905
 6105SOL    HW218567   4.157   5.457   5.234 -1.6520  0.3371  0.1856
 6106SOL     OW18568   5.665   0.833   5.668  0.1687 -0.0875  0.4389
 6106SOL    HW118569   5.733   0.899   5.655 -0.4022  0.8438  1.9614
 6106SOL    HW218570   5.597   0.857   5.605  0.0388  0.6991  0.8641
 6107SOL     OW18571   3.585   4.178   2.186  0.3663 -0.0089 -0.0369
 6107SOL    HW118572   3.499   4.182   2.226  0.6325  1.2009  0.4754
 6107SOL    HW218573   3.624   4.098   2.219 -0.8758 -1.0475 -0.9812
 6108SOL     OW18574   3.495   6.031   6.115  0.2501 -0.2231  0.6282
 6108SOL    HW118575   3.566   6.029   6.050  0.5602  0.4013  0.9350
 6108SOL    HW218576   3.535   6.069   6.193 -0.1039 -1.0465  1.2221
 6109SOL     OW18577   2.556   1.774   2.063 -0.3496  0.2317  0.1587
 6109SOL    HW118578   2.585   1.840   2.000 -0.6649  2.0013  1.7770
 6109SOL    HW218579   2.535   1.698   2.009 -0.6793  1.6703 -1.8833
 6110SOL     OW18580   5.035   2.611   1.105 -0.4556 -0.0795  0.1112
 6110SOL    HW118581   5.104   2.667   1.139  0.4033 -1.5308  0.8898
 6110SOL    HW218582   4.992   2.575   1.183 -0.8467 -0.6555 -0.3531
 6111SOL     OW18583   0.563   2.664   4.842 -0.4894 -0.0008 -0.0418
 6111SOL    HW118584   0.486   2.703   4.884 -0.8898 -0.6263 -0.1776
 6111SOL    HW218585   0.574   2.580   4.886  0.4799  0.3378  0.3799
 6112SOL     OW18586   2.050   4.876   1.221  0.1295 -0.1901  0.5322
 6112SOL    HW118587   2.093   4.840   1.299  1.5690 -1.0714 -0.6226
 6112SOL    HW218588   2.113   4.940   1.186 -0.3886  0.0050 -0.0600
 6113SOL     OW18589   2.004   3.172   3.889 -0.7765 -0.0646  0.0458
 6113SOL    HW118590   2.071   3.225   3.847 -1.3924  0.8654  0.2103
 6113SOL    HW218591   1.946   3.147   3.817 -0.4001 -0.6679 -0.0576
 6114SOL     OW18592   1.907   5.576   5.545 -0.8743  0.2935  0.1583
 6114SOL    HW118593   1.837   5.576   5.610  0.6932  0.4771  1.9698
 6114SOL    HW218594   1.986   5.553   5.595  0.4109  0.3183 -1.7257
 6115SOL     OW18595   3.263   5.100   5.652  0.1265 -0.0976  0.1245
 6115SOL    HW118596   3.265   5.180   5.705 -1.1692  0.1677 -0.1994
 6115SOL    HW218597   3.178   5.060   5.672  0.8024 -1.4843  0.3845
 6116SOL     OW18598   2.793   6.064   1.728 -0.2394  0.4150  0.5086
 6116SOL    HW118599   2.706   6.105   1.729 -0.0409  0.8381  1.3569
 6116SOL    HW218600   2.810   6.042   1.820  1.3799  2.1454  0.6804
 6117SOL     OW18601   5.171   3.747   0.202 -0.2065 -0.3248  0.0699
 6117SOL    HW118602   5.106   3.807   0.238  1.8363  1.0958  1.6200
 6117SOL    HW218603   5.120   3.674   0.167 -2.5418 -0.0129  2.5442
 6118SOL     OW18604   5.273   5.880   0.706 -0.6278  0.0731  0.0523
 6118SOL    HW118605   5.208   5.950   0.709  0.4023  1.0252  0.7307
 6118SOL    HW218606   5.346   5.916   0.655  1.3485  0.8355  3.1400
 6119SOL     OW18607   6.011   5.695   0.408 -0.1308 -0.1253  0.0549
 6119SOL    HW118608   6.076   5.677   0.477  0.2216  1.7556  0.2493
 6119SOL    HW218609   6.024   5.623   0.346  1.8705 -0.0525  0.2965
 6120SOL     OW18610   2.007   4.642   5.868  0.0453  0.3624  0.4918
 6120SOL    HW118611   2.043   4.723   5.832 -0.7120 -0.2667 -1.8909
 6120SOL    HW218612   1.936   4.619   5.809 -0.1403 -1.7388  1.4424
 6121SOL     OW18613   1.203   0.941   2.308 -0.0476 -0.2176  0.6360
 6121SOL    HW118614   1.154   0.993   2.245 -0.9630  0.4104  1.8066
 6121SOL    HW218615   1.294   0.968   2.297 -0.0132 -0.9439 -1.1499
 6122SOL     OW18616   0.768   3.447   0.457  0.0245 -0.0444  0.1960
 6122SOL    HW118617   0.688   3.412   0.418 -0.1774 -0.2012  0.7466
 6122SOL    HW218618   0.837   3.390   0.426 -0.0571  0.1459 -0.3600
 6123SOL     OW18619   4.063   3.462   5.223 -0.1058 -0.5000  0.2262
 6123SOL    HW118620   4.104   3.392   5.171 -2.3282 -1.5227 -0.2776
 6123SOL    HW218621   4.113   3.465   5.304  2.6246  0.2085 -1.3670
 6124SOL     OW18622   2.957   1.029   2.336  0.2192 -0.0111 -0.5264
 6124SOL    HW118623   2.931   1.099   2.275  1.2803 -0.4585 -1.5334
 6124SOL    HW218624   2.924   1.058   2.421  1.3807  2.1508 -0.7473
 6125SOL     OW18625   4.771   1.406   5.718  0.0972 -0.2045  0.0418
 6125SOL    HW118626   4.738   1.379   5.804 -0.1160 -0.2319 -0.0491
 6125SOL    HW218627   4.792   1.324   5.674 -0.8924 -0.2472 -0.3716
 6126SOL     OW18628   3.574   0.981   2.003  0.6948 -0.3942  0.1448
 6126SOL    HW118629   3.657   1.010   2.040  1.1857 -1.3530 -0.1809
 6126SOL    HW218630   3.569   1.025   1.917  0.6771 -0.0406  0.3241
 6127SOL     OW18631   2.672   4.013   5.025  0.0793 -0.5729 -0.5402
 6127SOL    HW118632   2.742   3.971   5.074  2.0573  1.0642 -1.8294
 6127SOL    HW218633   2.662   3.959   4.946  2.2718  0.9019 -1.9509
 6128SOL     OW18634   1.169   4.707   2.439 -0.4814  0.1783  0.0972
 6128SOL    HW118635   1.128   4.625   2.410 -0.7229  0.6853 -1.0999
 6128SOL    HW218636   1.167   4.703   2.534 -1.5353 -0.7024  0.0649
 6129SOL     OW18637   2.442   5.794   5.574  0.6273 -0.0665 -0.2427
 6129SOL    HW118638   2.373   5.795   5.508 -0.5631  0.9911  0.9769
 6129SOL    HW218639   2.430   5.875   5.624  1.4534 -0.8547  1.3139
 6130SOL     OW18640   5.045   3.530   4.713  0.4167 -0.3778  0.4804
 6130SOL    HW118641   5.016   3.609   4.668 -0.7779 -1.0345  0.0399
 6130SOL    HW218642   4.966   3.499   4.759  1.1314 -0.7558  1.4759
 6131SOL     OW18643   1.420   4.200   3.356  0.3723  0.4513  0.0062
 6131SOL    HW118644   1.413   4.116   3.400  0.9702  0.0071 -0.7298
 6131SOL    HW218645   1.408   4.265   3.426 -0.3780 -0.2322  0.5253
 6132SOL     OW18646   2.708   2.876   4.971  0.0533  0.0756  0.1859
 6132SOL    HW118647   2.646   2.945   4.996 -1.2587 -1.2457  0.6571
 6132SOL    HW218648   2.654   2.807   4.934  1.6668  1.3890 -5.7051
 6133SOL     OW18649   2.644   1.127   3.572 -0.0002  0.0016 -0.6355
 6133SOL    HW118650   2.710   1.060   3.590  0.3343  0.3335 -0.6241
 6133SOL    HW218651   2.638   1.130   3.477 -0.0836 -0.1044 -0.6351
 6134SOL     OW18652   5.786   0.625   3.389  0.7448  0.3291 -0.0239
 6134SOL    HW118653   5.759   0.706   3.431  1.4316 -0.2411  1.5728
 6134SOL    HW218654   5.741   0.626   3.304  1.9338  3.1046 -0.7400
 6135SOL     OW18655   3.008   3.613   5.132 -0.0063  0.9693 -0.1704
 6135SOL    HW118656   2.971   3.549   5.193  0.6507  1.6282  0.9446
 6135SOL    HW218657   3.101   3.591   5.127 -0.4274 -0.7006 -2.9929
 6136SOL     OW18658   3.369   2.143   1.442  0.1843  0.0065 -0.1448
 6136SOL    HW118659   3.301   2.161   1.378  0.2328  0.0829 -0.1758
 6136SOL    HW218660   3.328   2.086   1.507 -0.4204  1.3485  0.7146
 6137SOL     OW18661   4.198   6.315   2.213  0.1158  0.4467  0.2738
 6137SOL    HW118662   4.240   6.257   2.276 -1.4163  0.9341  1.8316
 6137SOL    HW218663   4.264   6.329   2.145  0.7110 -2.6932  0.0563
 6138SOL     OW18664   1.362   0.850   2.587  0.4028 -0.5604 -0.1464
 6138SOL    HW118665   1.323   0.938   2.584 -0.1885 -0.8503 -2.3893
 6138SOL    HW218666   1.289   0.792   2.607  0.9246 -0.5397  2.0983
 6139SOL     OW18667   4.795   4.723   0.268 -0.1025  0.4895 -0.0541
 6139SOL    HW118668   4.738   4.777   0.322  0.2461  2.1423 -1.2314
 6139SOL    HW218669   4.741   4.699   0.192  0.4922  1.4323 -0.8051
 6140SOL     OW18670   3.571   1.509   5.073  0.4831  0.7191 -0.5597
 6140SOL    HW118671   3.641   1.506   5.009  1.5976  0.9817  0.6087
 6140SOL    HW218672   3.583   1.592   5.119 -0.9514  1.0406 -0.7005
 6141SOL     OW18673   2.492   2.558   3.631  0.0239  0.0006 -0.0836
 6141SOL    HW118674   2.453   2.492   3.689  0.1968  0.1885  0.2476
 6141SOL    HW218675   2.579   2.524   3.611 -1.0997 -1.6249 -2.7602
 6142SOL     OW18676   5.050   2.895   6.276  0.1553 -0.2681 -0.0877
 6142SOL    HW118677   4.998   2.827   6.320 -0.1117  0.0250  0.0652
 6142SOL    HW218678   5.091   2.851   6.202 -1.0871 -0.3087 -0.7889
 6143SOL     OW18679   2.262   0.214   5.490 -0.0885  0.1179 -0.1289
 6143SOL    HW118680   2.190   0.273   5.511 -0.0525  0.0154  0.2880
 6143SOL    HW218681   2.307   0.256   5.417  0.2424  0.8608  0.4944
 6144SOL     OW18682   0.807   2.923   3.263 -0.1540 -0.8062 -0.4225
 6144SOL    HW118683   0.787   2.842   3.310 -0.7038  0.3298  1.3876
 6144SOL    HW218684   0.898   2.911   3.233 -0.0032 -1.8144  0.3730
 6145SOL     OW18685   5.255   4.299   1.065  0.0139 -0.6133 -0.0666
 6145SOL    HW118686   5.175   4.254   1.090  0.9731 -3.1033 -1.0944
 6145SOL    HW218687   5.323   4.260   1.120  0.6165  1.0812  0.4335
 6146SOL     OW18688   3.532   2.316   6.268  0.4165 -0.3822 -0.1953
 6146SOL    HW118689   3.576   2.260   6.332 -0.4260 -0.9329 -0.0818
 6146SOL    HW218690   3.556   2.405   6.293 -0.1072 -0.5750  1.0569
 6147SOL     OW18691   5.444   3.049   5.687 -0.1723  0.4792  0.0054
 6147SOL    HW118692   5.435   3.062   5.781 -0.2044 -1.4020  0.3116
 6147SOL    HW218693   5.465   2.956   5.678 -0.9244  0.4433 -1.8833
 6148SOL     OW18694   6.242   4.030   3.533 -0.0788 -0.0662 -0.0184
 6148SOL    HW118695   6.173   4.097   3.535  0.9252  1.1236 -1.8180
 6148SOL    HW218696   6.321   4.078   3.558  0.4444 -0.9285 -0.0050
 6149SOL     OW18697   3.674   2.955   2.089 -0.1252 -0.0425  0.2084
 6149SOL    HW118698   3.732   2.882   2.068 -1.3663 -1.0507  0.1141
 6149SOL    HW218699   3.724   3.010   2.149  0.5998 -1.3400  0.8358
 6150SOL     OW18700   0.482   2.063   5.465 -0.3560  0.1929  0.0058
 6150SOL    HW118701   0.554   2.061   5.402 -0.0177  2.3163  0.2534
 6150SOL    HW218702   0.455   2.155   5.467 -4.2587 -0.7164 -1.3836
 6151SOL     OW18703   0.813   3.842   5.583  0.3119 -0.0142 -0.1994
 6151SOL    HW118704   0.797   3.818   5.491  0.0370  0.4860 -0.2866
 6151SOL    HW218705   0.810   3.758   5.630  1.6569 -0.4258 -0.8066
 6152SOL     OW18706   1.071   2.177   3.355  0.3539  0.8522  0.2029
 6152SOL    HW118707   1.009   2.149   3.288 -0.0841  0.3262  0.8194
 6152SOL    HW218708   1.146   2.211   3.306  1.4561 -2.4535 -0.6492
 6153SOL     OW18709   1.996   4.032   6.137  0.0790  0.6138  0.2453
 6153SOL    HW118710   2.086   4.034   6.171  0.0960 -0.8706  0.3558
 6153SOL    HW218711   1.942   4.014   6.214 -0.3069  1.2995  0.1447
 6154SOL     OW18712   5.972   2.218   3.900  0.1694 -0.8779 -0.1829
 6154SOL    HW118713   5.920   2.163   3.840  0.1992  1.0169 -2.0826
 6154SOL    HW218714   5.908   2.253   3.962 -0.2659 -1.1420 -0.4766
 6155SOL     OW18715   0.276   3.527   0.956 -0.6263  0.2037 -0.2693
 6155SOL    HW118716   0.231   3.501   0.876 -0.9450  1.6246 -0.5786
 6155SOL    HW218717   0.298   3.444   0.999  0.5930 -0.6386 -2.3632
 6156SOL     OW18718   4.601   5.238   1.272  0.4229 -0.2270 -0.1155
 6156SOL    HW118719   4.644   5.317   1.239  3.0760 -2.0455 -1.4035
 6156SOL    HW218720   4.579   5.188   1.193 -0.9339 -0.9357  0.6827
 6157SOL     OW18721   6.255   4.391   0.160  0.0403 -0.0850 -0.3515
 6157SOL    HW118722   6.228   4.477   0.191 -0.9168 -0.3142 -0.4898
 6157SOL    HW218723   6.348   4.386   0.180 -0.1266  0.5435  0.6959
 6158SOL     OW18724   3.922   2.623   0.051 -0.4422 -0.5870 -0.0518
 6158SOL    HW118725   3.985   2.650   0.118  0.3065  0.0615 -0.9964
 6158SOL    HW218726   3.874   2.551   0.092 -0.5493  0.3003  1.4812
 6159SOL     OW18727   0.085   2.301   4.734  0.0396  0.0216 -0.3809
 6159SOL    HW118728   0.065   2.395   4.729  0.3699  0.1416  0.4098
 6159SOL    HW218729   0.180   2.296   4.719 -0.0932 -0.2688 -1.1876
 6160SOL     OW18730   0.878   3.189   1.977  0.3959  0.4056  0.0923
 6160SOL    HW118731   0.879   3.213   1.884  0.5745 -1.0126 -0.3008
 6160SOL    HW218732   0.966   3.211   2.008 -0.0513  2.0430  0.2644
 6161SOL     OW18733   4.735   1.961   6.072 -0.3389  0.0817 -0.3533
 6161SOL    HW118734   4.783   2.026   6.021  0.8485  0.7780  1.5393
 6161SOL    HW218735   4.652   2.003   6.092  0.0532  0.6748  0.0792
 6162SOL     OW18736   3.050   1.227   4.677 -0.2855 -0.3338  0.0291
 6162SOL    HW118737   3.106   1.297   4.644  1.4941 -1.0545  1.3701
 6162SOL    HW218738   3.075   1.150   4.626 -1.5089 -0.2401 -0.7400
 6163SOL     OW18739   1.462   0.834   1.040 -0.1236 -0.1852 -0.0794
 6163SOL    HW118740   1.393   0.811   1.102  1.7063 -1.3716  1.6515
 6163SOL    HW218741   1.451   0.928   1.025 -1.9577 -0.3126  0.2997
 6164SOL     OW18742   5.660   2.648   5.462 -0.4778  0.1394 -0.1521
 6164SOL    HW118743   5.733   2.665   5.403  0.4373 -0.6862  0.7060
 6164SOL    HW218744   5.592   2.710   5.435  1.0305  1.9131 -0.0746
 6165SOL     OW18745   1.332   2.217   4.777 -0.3773  0.6806 -0.2202
 6165SOL    HW118746   1.386   2.255   4.708 -0.2472 -1.5740 -1.4592
 6165SOL    HW218747   1.266   2.167   4.731 -2.0194  1.3228  1.3149
 6166SOL     OW18748   1.547   5.943   4.300 -0.8404  0.5572 -0.4185
 6166SOL    HW118749   1.640   5.957   4.316 -1.1934  0.7772  1.7095
 6166SOL    HW218750   1.542   5.925   4.206  1.3911  0.1085 -0.5235
 6167SOL     OW18751   6.023   0.266   2.883  0.2301  0.6074 -0.4351
 6167SOL    HW118752   5.983   0.203   2.942  0.9771  1.3975  0.9653
 6167SOL    HW218753   6.072   0.213   2.821 -0.3257 -0.2320 -0.1808
 6168SOL     OW18754   0.595   0.063   0.998 -0.4798  0.8172  0.0985
 6168SOL    HW118755   0.687   0.087   0.991  0.1581 -1.6914 -1.3515
 6168SOL    HW218756   0.553   0.105   0.923 -0.0593  0.1824 -0.5000
 6169SOL     OW18757   4.235   3.480   4.130 -0.0249 -0.6840 -0.4534
 6169SOL    HW118758   4.314   3.428   4.140  0.5826 -0.0785 -1.8200
 6169SOL    HW218759   4.230   3.498   4.036 -0.5731  1.1517 -0.1112
 6170SOL     OW18760   3.669   0.888   6.252  0.2297  0.2766 -0.6240
 6170SOL    HW118761   3.597   0.843   6.296  0.0322  0.1315 -1.0801
 6170SOL    HW218762   3.749   0.848   6.288  0.1122  1.0242  0.5013
 6171SOL     OW18763   0.597   1.705   3.813 -0.0638  0.2352  0.0789
 6171SOL    HW118764   0.639   1.694   3.727  0.3163  0.5265  0.2288
 6171SOL    HW218765   0.639   1.782   3.851 -0.0058 -0.0785  0.6624
 6172SOL     OW18766   1.407   3.000   6.052  0.0568 -0.6082 -0.1282
 6172SOL    HW118767   1.496   2.998   6.017  0.2894 -0.4597  0.4535
 6172SOL    HW218768   1.414   3.046   6.135 -0.7795  0.5475 -0.6705
 6173SOL     OW18769   0.481   4.498   5.244  0.0138  0.1150 -0.0051
 6173SOL    HW118770   0.575   4.502   5.229 -0.0490  1.3928 -0.1893
 6173SOL    HW218771   0.445   4.468   5.161  0.1033  1.8228 -0.7028
 6174SOL     OW18772   2.226   4.820   2.590  0.0228  0.2401 -0.0327
 6174SOL    HW118773   2.147   4.808   2.537  0.4312  1.6148 -1.0094
 6174SOL    HW218774   2.272   4.736   2.584 -0.0987  0.2631 -1.6273
 6175SOL     OW18775   5.504   2.852   6.028  0.2381  0.4562  0.3140
 6175SOL    HW118776   5.522   2.938   5.991  1.7391  0.1043  0.1433
 6175SOL    HW218777   5.576   2.837   6.090  0.5976 -1.0883 -0.4239
 6176SOL     OW18778   3.135   5.299   1.801  0.6943  0.6738  0.2835
 6176SOL    HW118779   3.179   5.383   1.819  1.0258  0.4379  0.5880
 6176SOL    HW218780   3.042   5.318   1.817  0.2826  1.8742 -2.8674
 6177SOL     OW18781   4.357   3.544   1.510  0.1380 -0.2357 -0.6047
 6177SOL    HW118782   4.401   3.628   1.495 -0.1921 -0.0423 -0.4886
 6177SOL    HW218783   4.340   3.510   1.422 -0.1389  0.0336 -0.6536
 6178SOL     OW18784   2.560   5.135   0.136  0.0705  0.4497  0.7180
 6178SOL    HW118785   2.593   5.224   0.145 -0.8895  0.9449 -0.4060
 6178SOL    HW218786   2.564   5.117   0.042 -0.2709 -0.4747  0.8719
 6179SOL     OW18787   3.017   1.381   5.110  0.2808 -0.3742  0.4349
 6179SOL    HW118788   2.996   1.291   5.135  0.6202 -0.4690  0.3826
 6179SOL    HW218789   3.059   1.374   5.025 -0.4343 -0.0916  0.0496
 6180SOL     OW18790   3.298   2.960   3.496  0.2525 -0.0733  0.0849
 6180SOL    HW118791   3.206   2.953   3.522  0.3134 -0.0756  0.3056
 6180SOL    HW218792   3.346   2.926   3.572  0.4862  1.1369  0.4891
 6181SOL     OW18793   4.052   6.327   0.050  0.3849 -0.3540  0.6387
 6181SOL    HW118794   4.100   6.255   0.008 -0.1118 -0.4203  0.1605
 6181SOL    HW218795   4.095   6.339   0.134 -0.8805 -2.7217  1.7287
 6182SOL     OW18796   2.569   0.008   3.274  0.5389  0.5495  0.2953
 6182SOL    HW118797   2.546  -0.063   3.213  0.8328  1.5917 -1.0678
 6182SOL    HW218798   2.663   0.021   3.261  0.5404  1.0135  0.7400
 6183SOL     OW18799   6.068   2.336   4.672  0.4767 -0.4207  0.3722
 6183SOL    HW118800   6.069   2.377   4.586  1.2664 -4.1660 -1.6451
 6183SOL    HW218801   6.136   2.381   4.721  0.3138  1.5311 -1.0787
 6184SOL     OW18802   5.731   5.634   2.616  0.1813  0.0755 -0.1393
 6184SOL    HW118803   5.673   5.648   2.691  0.8648 -1.1278  0.6566
 6184SOL    HW218804   5.736   5.538   2.608 -0.1298  0.1775 -1.9406
 6185SOL     OW18805   3.778   0.356   2.277 -1.0130 -0.1524  0.4169
 6185SOL    HW118806   3.827   0.328   2.354  1.2410  1.7379 -0.2263
 6185SOL    HW218807   3.775   0.278   2.221 -0.1505 -0.7464  1.1652
 6186SOL     OW18808   4.912   0.245   2.485  0.1731  0.2870 -0.0424
 6186SOL    HW118809   4.888   0.281   2.570 -2.5358  0.4958 -0.8243
 6186SOL    HW218810   4.893   0.315   2.423 -0.0117 -0.6229 -1.0380
 6187SOL     OW18811   6.066   4.110   4.775 -0.1619  0.0940 -0.5122
 6187SOL    HW118812   5.982   4.076   4.805  0.1303 -0.8806 -0.7644
 6187SOL    HW218813   6.114   4.032   4.745  0.9545  0.5976 -0.0651
 6188SOL     OW18814   4.102   4.613   0.330 -0.1043  0.0123  0.2217
 6188SOL    HW118815   4.145   4.634   0.247 -1.3537 -0.3781 -0.5543
 6188SOL    HW218816   4.174   4.601   0.392  0.8302  1.1055 -0.6029
 6189SOL     OW18817   1.772   0.374   1.453  0.0335 -0.1934 -0.1454
 6189SOL    HW118818   1.863   0.355   1.430 -0.0060 -0.9072  0.2423
 6189SOL    HW218819   1.757   0.462   1.421  1.1786  0.3433  0.7041
 6190SOL     OW18820   0.759   2.027   1.502  0.4986  0.0482  0.0952
 6190SOL    HW118821   0.842   2.017   1.549  0.6519  0.5548 -0.0735
 6190SOL    HW218822   0.710   1.948   1.525 -0.1388  1.0696  2.5435
 6191SOL     OW18823   1.480   1.797   0.732  0.2443  0.3746  0.2263
 6191SOL    HW118824   1.553   1.855   0.751 -1.1159  1.7313  1.5707
 6191SOL    HW218825   1.438   1.835   0.655  0.3468  0.1623  0.0620
 6192SOL     OW18826   2.776   3.708   2.600 -0.3352  0.7043  0.0671
 6192SOL    HW118827   2.691   3.734   2.563 -2.1351 -0.7524  2.7898
 6192SOL    HW218828   2.770   3.733   2.693  1.5617 -0.9002  0.6791
 6193SOL     OW18829   0.522   3.982   3.544  0.3327 -0.8361  0.3412
 6193SOL    HW118830   0.616   3.996   3.557  1.0848 -4.1237 -0.4849
 6193SOL    HW218831   0.508   4.002   3.451  0.2259 -0.3899  0.4534
 6194SOL     OW18832   5.193   0.211   2.546 -0.6019  0.2309 -0.3262
 6194SOL    HW118833   5.121   0.254   2.501 -0.2591  0.0171 -1.1048
 6194SOL    HW218834   5.204   0.260   2.627  0.2593  2.0909 -1.4978
 6195SOL     OW18835   4.783   6.212   2.070 -0.4274  0.0131 -0.3375
 6195SOL    HW118836   4.828   6.196   1.986  0.4350  0.6855 -0.0174
 6195SOL    HW218837   4.789   6.307   2.083  0.4117 -0.1927  0.9994
 6196SOL     OW18838   2.765   1.378   3.608  0.2970  0.0584 -0.7417
 6196SOL    HW118839   2.715   1.297   3.620  1.6532 -1.0798 -2.1823
 6196SOL    HW218840   2.730   1.439   3.672 -0.6603 -1.7477  0.5234
 6197SOL     OW18841   5.516   2.102   3.384 -0.4505 -0.1499  0.2686
 6197SOL    HW118842   5.564   2.180   3.358 -0.0173 -0.7859 -0.9334
 6197SOL    HW218843   5.444   2.134   3.438 -0.2831  1.0656 -0.2136
 6198SOL     OW18844   0.572   6.020   3.690  1.1081  0.5073 -0.1113
 6198SOL    HW118845   0.519   5.944   3.714  0.3446  0.9340 -0.4070
 6198SOL    HW218846   0.594   6.062   3.774 -0.7376  1.4513 -0.0390
 6199SOL     OW18847   5.881   5.007   1.120  0.0243 -0.0867  0.6636
 6199SOL    HW118848   5.907   4.921   1.154  0.4342 -0.3697 -0.3302
 6199SOL    HW218849   5.960   5.061   1.129  0.3845 -0.3802 -0.5001
 6200SOL     OW18850   0.028   3.477   3.015  0.2359 -0.2363  0.2705
 6200SOL    HW118851  -0.017   3.424   3.081 -0.3910 -0.3313 -0.2284
 6200SOL    HW218852   0.031   3.565   3.052  1.4231 -0.6254  1.1804
 6201SOL     OW18853   4.314   2.369   5.219  0.2752 -0.0086 -0.6712
 6201SOL    HW118854   4.224   2.396   5.235 -0.3116 -0.9450 -2.1498
 6201SOL    HW218855   4.350   2.438   5.163  0.0930 -0.2202 -1.0523
 6202SOL     OW18856   5.385   5.382   3.913 -0.5337  0.1709  0.2869
 6202SOL    HW118857   5.317   5.373   3.847 -0.1254 -0.1928 -0.0863
 6202SOL    HW218858   5.428   5.465   3.892  0.0865 -0.3075 -0.3701
 6203SOL     OW18859   5.390   1.768   2.884  0.8066 -0.1543 -0.3294
 6203SOL    HW118860   5.391   1.754   2.790  0.0559 -1.1369 -0.2153
 6203SOL    HW218861   5.310   1.819   2.900  0.6144 -0.4992 -0.1730
 6204SOL     OW18862   5.815   5.140   3.787  0.2850 -0.1370 -0.6969
 6204SOL    HW118863   5.807   5.045   3.793  1.3066 -0.1758  0.3923
 6204SOL    HW218864   5.726   5.171   3.769 -0.7074 -1.0505  2.2077
 6205SOL     OW18865   6.259   0.467   4.176  0.2673  0.0479 -0.0406
 6205SOL    HW118866   6.178   0.484   4.127 -0.5997  1.6047  1.7459
 6205SOL    HW218867   6.324   0.524   4.135  0.0064  0.0353 -0.4750
 6206SOL     OW18868   3.898   4.257   1.531  0.1162 -0.7410  0.2173
 6206SOL    HW118869   3.869   4.167   1.514  2.6276 -1.2850 -1.6929
 6206SOL    HW218870   3.825   4.311   1.501 -0.9163 -2.0873  0.1694
 6207SOL     OW18871   0.276   5.493   2.863  0.0018 -0.3637  0.6129
 6207SOL    HW118872   0.193   5.445   2.862  0.5453 -1.3471  1.1456
 6207SOL    HW218873   0.251   5.584   2.874 -0.9787 -0.7580  1.8734
 6208SOL     OW18874   3.695   3.364   1.789 -0.0685  0.2986 -0.2201
 6208SOL    HW118875   3.766   3.427   1.778 -0.4242  1.0723  1.5941
 6208SOL    HW218876   3.726   3.305   1.857 -0.4901 -0.3884 -0.6172
 6209SOL     OW18877   0.630   4.671   1.802  0.2479  0.1863  0.0470
 6209SOL    HW118878   0.647   4.755   1.758 -1.7393  0.0301 -1.1166
 6209SOL    HW218879   0.694   4.611   1.763  1.6891  1.1181  0.8885
 6210SOL     OW18880   3.189   1.541   5.956  0.0487  0.3555  0.4198
 6210SOL    HW118881   3.141   1.517   5.876  1.6793  1.4967 -0.9640
 6210SOL    HW218882   3.123   1.583   6.011 -0.9172  0.3826 -0.7166
 6211SOL     OW18883   1.109   0.052   2.804 -0.3974  0.3278 -0.2203
 6211SOL    HW118884   1.064   0.121   2.852 -1.3358  0.3331 -1.0633
 6211SOL    HW218885   1.173   0.099   2.750  0.3962  0.3508  0.7162
 6212SOL     OW18886   1.859   3.019   1.128  0.2459 -0.5153  0.0193
 6212SOL    HW118887   1.793   2.955   1.103 -0.7556  1.0448 -1.6145
 6212SOL    HW218888   1.903   3.042   1.046  2.8696 -1.4921  1.0652
 6213SOL     OW18889   0.395   4.516   1.630  0.0980  0.1501 -0.5934
 6213SOL    HW118890   0.450   4.560   1.694 -0.0120  0.9024 -1.0035
 6213SOL    HW218891   0.363   4.437   1.675  0.6431  0.2670  0.0012
 6214SOL     OW18892   3.313   5.337   0.219 -0.2840  0.0558 -0.2066
 6214SOL    HW118893   3.394   5.339   0.169 -0.0676 -1.8747 -0.0060
 6214SOL    HW218894   3.244   5.334   0.154 -0.2428  1.8394 -0.3809
 6215SOL     OW18895   3.010   5.744   5.095 -0.1004 -0.1542 -0.1010
 6215SOL    HW118896   3.103   5.723   5.104 -0.3877 -0.9769  1.4899
 6215SOL    HW218897   2.997   5.819   5.153 -0.7287 -1.1548  1.1053
 6216SOL     OW18898   4.401   3.511   6.127  0.0678 -0.1369  0.1629
 6216SOL    HW118899   4.327   3.571   6.114  0.0537 -0.1399  0.2264
 6216SOL    HW218900   4.360   3.428   6.151  0.0906 -0.1454  0.1728
 6217SOL     OW18901   4.645   0.551   2.019  0.6483 -0.6858 -0.4387
 6217SOL    HW118902   4.661   0.528   1.927 -2.1661 -2.0421 -0.6788
 6217SOL    HW218903   4.585   0.483   2.051  0.1676  0.7358  1.9178
 6218SOL     OW18904   3.654   4.896   1.604  0.2616 -0.0875 -0.1064
 6218SOL    HW118905   3.702   4.969   1.564  0.2840 -0.0282  0.0266
 6218SOL    HW218906   3.689   4.890   1.693 -0.0114 -0.0099  0.0099
 6219SOL     OW18907   4.659   4.759   1.026  0.0188  0.2003 -0.1474
 6219SOL    HW118908   4.680   4.735   0.936  0.9349 -2.0273  0.5986
 6219SOL    HW218909   4.575   4.717   1.044 -0.6830  1.4971 -0.2444
 6220SOL     OW18910   4.859   5.513   3.613 -0.1192 -0.3446  0.3028
 6220SOL    HW118911   4.837   5.584   3.673 -0.9787 -0.1777 -0.1885
 6220SOL    HW218912   4.807   5.439   3.643 -0.6695 -0.2173 -0.3135
 6221SOL     OW18913   0.556   1.067   2.390 -0.3686 -0.2348 -0.2626
 6221SOL    HW118914   0.596   0.982   2.377  1.4557  0.3768  0.9549
 6221SOL    HW218915   0.475   1.065   2.338  0.8167 -1.8210 -2.1359
 6222SOL     OW18916   4.941   5.604   4.162 -0.3247  0.4627  0.2191
 6222SOL    HW118917   4.859   5.653   4.165 -1.2154 -1.0181  1.4247
 6222SOL    HW218918   5.009   5.672   4.160 -1.5376  1.7237 -0.3143
 6223SOL     OW18919   2.689   0.898   1.689 -0.3665 -0.0313  0.3146
 6223SOL    HW118920   2.710   0.966   1.752 -0.7819 -0.4525  0.9182
 6223SOL    HW218921   2.667   0.821   1.742 -3.5302  0.3768 -0.1933
 6224SOL     OW18922   0.118   3.183   3.728  0.2993  1.3301  0.0700
 6224SOL    HW118923   0.179   3.212   3.796  2.2283  0.8893 -1.4021
 6224SOL    HW218924   0.066   3.114   3.771  1.1815  1.3563  1.2241
 6225SOL     OW18925   2.369   5.995   4.942  0.1818  0.3034  0.4444
 6225SOL    HW118926   2.286   6.019   4.899 -0.8091  1.3274  2.7297
 6225SOL    HW218927   2.344   5.977   5.033  2.3094 -0.7017  0.8887
 6226SOL     OW18928   2.963   5.284   1.224 -0.1989  0.3368  0.5581
 6226SOL    HW118929   2.920   5.367   1.204 -0.6157  0.7362  2.8655
 6226SOL    HW218930   2.992   5.293   1.315 -0.0083 -1.9439  0.7828
 6227SOL     OW18931   1.411   5.119   4.341 -0.1987 -0.5671 -0.2120
 6227SOL    HW118932   1.432   5.141   4.250  0.4385 -0.2337  0.0057
 6227SOL    HW218933   1.323   5.153   4.354 -0.0677 -0.0942 -0.5315
 6228SOL     OW18934   1.922   4.790   5.045 -0.1001  0.4926  0.1633
 6228SOL    HW118935   1.835   4.755   5.064  0.2000  0.2654  1.1779
 6228SOL    HW218936   1.930   4.865   5.104  1.3787 -1.0184  2.0070
 6229SOL     OW18937   2.783   6.343   2.501  0.7096  0.1080 -0.9241
 6229SOL    HW118938   2.777   6.338   2.596  0.4667  0.1105 -0.9378
 6229SOL    HW218939   2.870   6.380   2.484  0.7762  0.0527 -0.7058
 6230SOL     OW18940   3.135   1.721   2.381  0.1852 -0.0425 -0.2913
 6230SOL    HW118941   3.156   1.797   2.326  0.5330 -1.4529 -2.2083
 6230SOL    HW218942   3.051   1.743   2.421  0.7821  1.7807  0.0411
 6231SOL     OW18943   1.936   2.614   2.479  0.4252  0.3951  0.2141
 6231SOL    HW118944   1.963   2.699   2.515  0.1082  0.0917  1.2102
 6231SOL    HW218945   1.922   2.559   2.556  1.7730 -0.9389 -0.4547
 6232SOL     OW18946   2.001   6.262   3.809 -0.1327 -0.2007 -0.0370
 6232SOL    HW118947   2.086   6.288   3.844 -0.2624 -0.5082  0.5195
 6232SOL    HW218948   1.984   6.324   3.738  1.5540 -1.4470 -1.6536
 6233SOL     OW18949   0.162   4.785   2.057 -0.0686 -0.4636 -0.2627
 6233SOL    HW118950   0.251   4.755   2.071 -0.4083 -1.7437 -0.6713
 6233SOL    HW218951   0.110   4.740   2.124 -0.9326 -2.6850 -2.2655
 6234SOL     OW18952   5.531   4.458   1.064  0.3996 -0.0737  0.2639
 6234SOL    HW118953   5.455   4.486   1.115  0.5945  0.1835  0.4179
 6234SOL    HW218954   5.513   4.490   0.975  0.2559 -0.1525  0.2636
 6235SOL     OW18955   1.601   3.764   0.673 -0.3209 -0.2864  0.0033
 6235SOL    HW118956   1.558   3.843   0.641 -1.0136 -0.5904  0.1653
 6235SOL    HW218957   1.597   3.703   0.599 -0.4457 -0.4224  0.1218
 6236SOL     OW18958   1.621   2.474   2.679 -0.5751 -0.3066 -0.0354
 6236SOL    HW118959   1.540   2.519   2.703  0.3250  0.0642  2.5657
 6236SOL    HW218960   1.623   2.397   2.735  0.2384 -1.0707 -1.0737
 6237SOL     OW18961   0.486   1.681   4.119 -0.0981 -0.1592 -0.2741
 6237SOL    HW118962   0.546   1.634   4.061 -0.7154  0.0946 -1.1310
 6237SOL    HW218963   0.513   1.772   4.113 -0.3055 -0.1015 -0.3478
 6238SOL     OW18964   2.928   5.991   1.358 -0.1024  0.2543  0.1821
 6238SOL    HW118965   2.853   5.977   1.415 -1.2270  1.5357 -0.9248
 6238SOL    HW218966   2.905   6.067   1.305  1.7644  0.3694 -0.5589
 6239SOL     OW18967   3.194   5.482   2.493  0.1788  0.9577 -0.0842
 6239SOL    HW118968   3.282   5.472   2.456  0.8964  0.0616  1.7281
 6239SOL    HW218969   3.177   5.576   2.487  0.9440  1.0542 -1.1265
 6240SOL     OW18970   2.799   2.235   2.560  0.1355  0.5190 -0.4157
 6240SOL    HW118971   2.826   2.252   2.650  0.0100 -2.1523  0.2119
 6240SOL    HW218972   2.881   2.222   2.513  0.1473 -0.2594 -0.1838
 6241SOL     OW18973   4.765   5.205   2.667  0.3705  0.3316 -0.5188
 6241SOL    HW118974   4.831   5.162   2.613  1.0784 -0.0747  0.6303
 6241SOL    HW218975   4.696   5.139   2.677  0.8679 -0.0997  0.1816
 6242SOL     OW18976   1.474   2.286   4.554  0.6145 -0.1593 -0.4810
 6242SOL    HW118977   1.549   2.230   4.535 -0.1580 -1.1969 -0.5451
 6242SOL    HW218978   1.465   2.342   4.477 -0.2201 -1.7766 -1.5925
 6243SOL     OW18979   5.286   3.680   5.901 -0.0761  0.4138  0.3866
 6243SOL    HW118980   5.373   3.643   5.916 -0.8486 -0.9855  1.7971
 6243SOL    HW218981   5.255   3.636   5.822 -0.5357 -1.2322  1.4174
 6244SOL     OW18982   4.859   5.759   0.997  0.3589  0.3454  0.2555
 6244SOL    HW118983   4.807   5.723   0.925 -0.9653  1.2032  0.7419
 6244SOL    HW218984   4.945   5.776   0.959  0.0826 -0.4457 -0.7643
 6245SOL     OW18985   5.849   6.264   0.720  0.2871  0.0644  0.0140
 6245SOL    HW118986   5.912   6.195   0.739 -0.8750 -0.6918  1.3669
 6245SOL    HW218987   5.883   6.307   0.642  0.6900 -2.4932 -1.3227
 6246SOL     OW18988   1.030   2.913   5.036 -0.2527 -0.1647  0.1581
 6246SOL    HW118989   0.977   2.963   5.099  0.8268  0.8604  0.2928
 6246SOL    HW218990   1.091   2.864   5.091 -0.9911 -1.3056 -0.0005
 6247SOL     OW18991   1.987   5.928   1.781  0.1627 -0.1503  0.4446
 6247SOL    HW118992   2.067   5.891   1.818  0.8964  0.6100 -0.3374
 6247SOL    HW218993   1.938   5.853   1.749  2.0869 -0.4734 -2.0599
 6248SOL     OW18994   5.554   2.638   0.743  0.5289  0.5709  0.5510
 6248SOL    HW118995   5.461   2.635   0.767  0.2826  0.5567 -0.3738
 6248SOL    HW218996   5.600   2.654   0.826 -0.2848  0.4192  1.0385
 6249SOL     OW18997   0.825   1.412   1.922 -0.2681  0.1237  0.8800
 6249SOL    HW118998   0.884   1.428   1.997 -0.2862  2.0858  0.5098
 6249SOL    HW218999   0.865   1.459   1.850 -1.2319 -0.2365  0.0939
 6250SOL     OW19000   6.081   3.331   5.941  0.2354 -0.2368 -0.0339
 6250SOL    HW119001   6.072   3.366   5.852  1.7319 -2.2920 -1.0656
 6250SOL    HW219002   6.135   3.396   5.986  2.1437 -0.6368 -1.6035
 6251SOL     OW19003   2.491   4.281   4.514 -0.0215  0.5267  0.7068
 6251SOL    HW119004   2.543   4.322   4.445  0.2261  0.2793  0.7457
 6251SOL    HW219005   2.423   4.346   4.535 -0.0740  0.6193  0.2594
 6252SOL     OW19006   5.413   1.935   0.474 -0.9119  0.1429 -0.1298
 6252SOL    HW119007   5.508   1.937   0.486 -1.0114 -1.6083  1.3434
 6252SOL    HW219008   5.402   1.893   0.388 -0.3574 -0.0675 -0.1079
 6253SOL     OW19009   3.952   5.402   6.149  0.2893  0.0213 -0.4571
 6253SOL    HW119010   4.032   5.416   6.199 -0.2271  1.1002  0.0924
 6253SOL    HW219011   3.982   5.371   6.063  1.2248 -0.9002  0.1859
 6254SOL     OW19012   3.601   0.522   3.043  0.3376 -0.2952 -0.7968
 6254SOL    HW119013   3.557   0.512   2.958 -0.5100  0.6651 -0.4918
 6254SOL    HW219014   3.569   0.605   3.077 -0.1481 -1.1561  0.9533
 6255SOL     OW19015   5.838   4.747   1.268  0.1920  0.1974 -0.4715
 6255SOL    HW119016   5.770   4.736   1.201  0.3204 -0.5315 -0.4944
 6255SOL    HW219017   5.791   4.775   1.346 -0.1065 -0.0438 -0.5605
 6256SOL     OW19018   0.637   3.343   3.661  0.5595  0.3026  0.0103
 6256SOL    HW119019   0.622   3.411   3.594  1.9518 -0.0578 -0.6975
 6256SOL    HW219020   0.593   3.265   3.625 -0.2457  0.5680  0.3894
 6257SOL     OW19021   3.573   1.599   2.406  0.0825 -0.7607 -0.2985
 6257SOL    HW119022   3.514   1.674   2.403  1.7858  0.6432 -0.3455
 6257SOL    HW219023   3.591   1.585   2.499 -1.9798 -2.6220 -0.1014
 6258SOL     OW19024   3.895   0.629   5.384  0.0823  0.3144  0.1782
 6258SOL    HW119025   3.818   0.588   5.424 -0.2392  0.3867 -0.3519
 6258SOL    HW219026   3.905   0.585   5.300  0.3933  0.5711  0.0791
 6259SOL     OW19027   4.542   0.608   1.069 -0.5768  0.1210  0.6633
 6259SOL    HW119028   4.630   0.573   1.057 -1.1103 -0.9133 -0.5660
 6259SOL    HW219029   4.555   0.694   1.109  1.1597  1.0280 -1.5883
 6260SOL     OW19030   1.139   6.027   3.367 -0.2050  0.2237 -0.0922
 6260SOL    HW119031   1.150   5.993   3.455 -1.4597 -2.6096 -0.9087
 6260SOL    HW219032   1.206   6.096   3.359  0.4459  0.0407  2.7509
 6261SOL     OW19033   3.928   0.036   2.211  0.1316  0.0960  0.2667
 6261SOL    HW119034   4.016   0.003   2.229  0.8879  1.2501 -1.0073
 6261SOL    HW219035   3.943   0.113   2.155 -1.7166 -0.0151 -0.4563
 6262SOL     OW19036   2.498   1.271   4.444 -0.1664 -0.8658  0.1940
 6262SOL    HW119037   2.414   1.224   4.447  0.0580 -1.2413  0.9484
 6262SOL    HW219038   2.557   1.216   4.495  0.4697 -0.4594 -0.0987
 6263SOL     OW19039   5.557   0.633   0.836 -0.4799 -0.5579 -0.0549
 6263SOL    HW119040   5.574   0.631   0.742 -2.3474 -2.7948 -0.4515
 6263SOL    HW219041   5.643   0.633   0.876  0.3853  2.0024 -1.6962
 6264SOL     OW19042   2.028   0.599   0.131  0.0699  0.3055  0.1875
 6264SOL    HW119043   1.941   0.610   0.168 -0.1232 -1.8575  0.4854
 6264SOL    HW219044   2.081   0.563   0.203  0.9332  0.5927 -0.2871
 6265SOL     OW19045   3.795   2.875   3.330 -0.4878 -0.1223 -0.2845
 6265SOL    HW119046   3.883   2.889   3.296  1.1005 -2.6971  2.2385
 6265SOL    HW219047   3.770   2.788   3.298 -1.8793  0.3248 -0.4721
 6266SOL     OW19048   0.255   1.027   2.340  0.9216 -0.2864  0.4380
 6266SOL    HW119049   0.188   0.961   2.325  0.4795 -0.2886  2.2346
 6266SOL    HW219050   0.220   1.106   2.298 -0.7694 -0.0003  2.2318
 6267SOL     OW19051   1.542   3.302   3.135  0.0275 -0.4676 -0.1465
 6267SOL    HW119052   1.508   3.382   3.176 -0.8361  0.2304 -2.0726
 6267SOL    HW219053   1.625   3.329   3.096  0.5504 -0.9624  0.6151
 6268SOL     OW19054   6.198   6.237   2.004 -0.6254 -0.0578 -0.2495
 6268SOL    HW119055   6.236   6.152   2.026  0.1868  0.2354 -0.5095
 6268SOL    HW219056   6.179   6.230   1.910  0.6687  0.5039 -0.5708
 6269SOL     OW19057   0.263   1.505   0.491 -0.4264  0.3487 -0.5269
 6269SOL    HW119058   0.307   1.429   0.455 -0.2697 -0.1579  0.6861
 6269SOL    HW219059   0.176   1.505   0.451  0.0593  0.3619 -1.6069
 6270SOL     OW19060   0.362   5.840   0.185 -0.1106 -0.0715  0.3148
 6270SOL    HW119061   0.269   5.822   0.190  0.1000 -0.8734  2.9103
 6270SOL    HW219062   0.373   5.925   0.228  0.2840  0.5464 -0.9355
 6271SOL     OW19063   6.105   0.995   5.960 -0.5901  0.6310 -0.3889
 6271SOL    HW119064   6.103   0.961   6.049 -0.7279  1.1332 -0.1982
 6271SOL    HW219065   6.174   1.060   5.960 -0.2300  0.2570 -0.7925
 6272SOL     OW19066   0.570   2.826   3.629 -0.5603  0.0622 -0.2810
 6272SOL    HW119067   0.654   2.868   3.612 -0.1426 -1.0408 -1.0705
 6272SOL    HW219068   0.575   2.799   3.721  0.5433 -1.2133 -0.6728
 6273SOL     OW19069   2.851   0.730   5.052 -0.2676 -0.2773  0.1676
 6273SOL    HW119070   2.861   0.640   5.082  0.9383 -0.6806 -1.3059
 6273SOL    HW219071   2.866   0.784   5.130 -0.1155 -1.3269  0.8764
 6274SOL     OW19072   5.169   1.593   3.289  0.3341 -0.0115  0.5856
 6274SOL    HW119073   5.229   1.668   3.288  0.1573  0.1380  0.9998
 6274SOL    HW219074   5.111   1.609   3.215  0.7414 -0.1048  0.2430
 6275SOL     OW19075   4.106   2.129   5.699  0.2352 -0.1878  0.2399
 6275SOL    HW119076   4.111   2.054   5.758 -0.3365 -0.7087 -0.3697
 6275SOL    HW219077   4.165   2.194   5.738 -1.7842  0.3530  2.6182
 6276SOL     OW19078   4.373   2.083   2.087 -0.0230  0.7327 -0.0992
 6276SOL    HW119079   4.384   2.173   2.116 -1.2289  0.5870  0.8946
 6276SOL    HW219080   4.388   2.030   2.165 -1.9418  0.2544  0.0118
 6277SOL     OW19081   1.269   4.638   3.366 -0.1619  0.2581  0.4298
 6277SOL    HW119082   1.176   4.657   3.378  0.0517  1.4779  0.2787
 6277SOL    HW219083   1.275   4.601   3.278 -0.4536  0.5620  0.2790
 6278SOL     OW19084   4.103   2.985   5.266 -0.2194  0.6513  0.5484
 6278SOL    HW119085   4.172   2.919   5.258 -2.4078 -1.6691 -0.7839
 6278SOL    HW219086   4.050   2.955   5.339 -1.6673  0.4242 -0.5387
 6279SOL     OW19087   5.862   6.091   3.226 -0.3199  0.8224 -0.8308
 6279SOL    HW119088   5.835   6.001   3.210 -1.0752  0.6684  1.0824
 6279SOL    HW219089   5.828   6.140   3.151  0.7932 -0.5650 -2.3010
 6280SOL     OW19090   3.673   4.283   2.780  0.1825  0.7664  0.1475
 6280SOL    HW119091   3.621   4.304   2.703 -0.6554  0.1541  0.5331
 6280SOL    HW219092   3.630   4.206   2.818 -0.7341  2.2610  2.4048
 6281SOL     OW19093   3.090   3.077   4.562  0.0368  0.1375 -0.1005
 6281SOL    HW119094   3.171   3.107   4.520 -0.4542  0.7415 -0.6484
 6281SOL    HW219095   3.029   3.151   4.551 -0.9730 -0.7722 -0.8246
 6282SOL     OW19096   0.877   2.746   6.315 -0.4658  0.3867 -0.7196
 6282SOL    HW119097   0.970   2.769   6.312 -0.0444 -0.3603  2.4439
 6282SOL    HW219098   0.831   2.829   6.298  0.9113  1.8154  1.7790
 6283SOL     OW19099   0.692   4.553   5.047  0.3720  0.5222 -0.0466
 6283SOL    HW119100   0.707   4.647   5.056 -1.0711  0.6472  1.8149
 6283SOL    HW219101   0.738   4.514   5.121  2.0374 -0.4266 -1.5122
 6284SOL     OW19102   2.706   5.110   5.043 -0.0643  0.0955  0.6454
 6284SOL    HW119103   2.644   5.080   5.110  0.0457  0.5441  0.9565
 6284SOL    HW219104   2.780   5.050   5.052 -0.2052 -0.0740  0.6805
 6285SOL     OW19105   2.032   5.958   0.672  0.1237  0.1214  0.0602
 6285SOL    HW119106   1.973   5.909   0.730 -0.5894 -0.3980 -1.0598
 6285SOL    HW219107   2.041   6.043   0.714  0.5038 -0.5776  1.4863
 6286SOL     OW19108   4.242   5.695   1.532  0.0192 -0.0654 -0.1090
 6286SOL    HW119109   4.209   5.637   1.601 -0.9956 -0.4183 -0.8577
 6286SOL    HW219110   4.182   5.770   1.533 -0.3559 -0.3470 -0.9807
 6287SOL     OW19111   5.270   3.384   6.204  0.3853 -0.2683 -0.3404
 6287SOL    HW119112   5.302   3.294   6.210  1.8481  0.2373  0.0423
 6287SOL    HW219113   5.275   3.405   6.111 -0.3245 -0.7029 -0.4787
 6288SOL     OW19114   4.643   5.182   4.102 -0.1049  0.2808  0.6356
 6288SOL    HW119115   4.605   5.250   4.047 -2.1844 -1.3233 -0.0612
 6288SOL    HW219116   4.615   5.204   4.191 -0.1551  0.7387  0.5068
 6289SOL     OW19117   3.942   3.835   4.899 -0.0700  0.3509 -0.3050
 6289SOL    HW119118   3.961   3.780   4.975  0.6342  2.6288  1.3004
 6289SOL    HW219119   4.028   3.860   4.866 -0.3571 -1.0043 -2.2518
 6290SOL     OW19120   1.994   3.676   2.816  0.1761 -0.3032  0.1474
 6290SOL    HW119121   1.936   3.650   2.888 -0.9999  0.6315 -0.4305
 6290SOL    HW219122   1.992   3.771   2.817 -0.5755 -0.2692 -1.6766
 6291SOL     OW19123   1.559   6.219   2.840 -0.4908 -0.1928 -0.0870
 6291SOL    HW119124   1.610   6.237   2.762 -0.8967  0.6974 -0.1542
 6291SOL    HW219125   1.624   6.190   2.905 -0.3559 -2.7040 -1.2482
 6292SOL     OW19126   4.985   5.037   5.310 -0.0889  0.2221  0.2068
 6292SOL    HW119127   5.051   5.082   5.258 -0.1488  0.5931  0.4495
 6292SOL    HW219128   4.901   5.069   5.276 -0.1624 -0.4687 -0.3017
 6293SOL     OW19129   4.846   0.622   1.312  0.8664 -0.0793 -0.0782
 6293SOL    HW119130   4.810   0.692   1.258 -1.3183 -1.1765 -0.1592
 6293SOL    HW219131   4.886   0.562   1.249  2.0457  0.6618 -0.0699
 6294SOL     OW19132   5.984   4.975   5.736 -0.2515 -0.0437  0.3085
 6294SOL    HW119133   5.982   4.899   5.795  0.0986 -0.2239  0.0935
 6294SOL    HW219134   6.075   5.003   5.737 -0.3939  0.4161  0.4366
 6295SOL     OW19135   3.918   6.294   0.321 -0.3022  0.1023  0.0712
 6295SOL    HW119136   3.887   6.384   0.308 -0.1636  0.4353  1.7937
 6295SOL    HW219137   3.899   6.275   0.413 -1.7371 -2.1908 -0.5866
 6296SOL     OW19138   0.708   3.241   4.784  0.5897  0.3709  0.6474
 6296SOL    HW119139   0.693   3.178   4.854  0.5690  0.0292  0.3369
 6296SOL    HW219140   0.623   3.281   4.770  0.6106  0.4969  0.8694
 6297SOL     OW19141   1.419   5.710   0.831 -0.2995 -0.2174 -0.0036
 6297SOL    HW119142   1.496   5.664   0.865  1.6367  1.1327 -2.3154
 6297SOL    HW219143   1.366   5.641   0.790 -0.4549 -1.1657  1.6742
 6298SOL     OW19144   1.686   5.093   4.104  0.8898  0.4853 -0.3947
 6298SOL    HW119145   1.748   5.065   4.037 -0.7763 -1.6717 -1.1559
 6298SOL    HW219146   1.719   5.055   4.185  0.3180 -1.1665 -0.8968
 6299SOL     OW19147   1.578   5.377   0.003 -0.0225  0.1368  0.1058
 6299SOL    HW119148   1.621   5.371   0.089  1.6825  0.3716 -0.6973
 6299SOL    HW219149   1.630   5.440  -0.046 -1.7718  1.0315 -0.6836
 6300SOL     OW19150   2.959   6.326   0.801  0.1567  0.2521 -0.1922
 6300SOL    HW119151   2.872   6.299   0.830  0.6954 -0.0802  1.1789
 6300SOL    HW219152   2.943   6.380   0.724 -1.4141  2.0374  1.3189
 6301SOL     OW19153   4.759   5.410   5.562 -0.2428  0.4378  0.1496
 6301SOL    HW119154   4.705   5.463   5.621 -0.0514  0.8620 -0.0515
 6301SOL    HW219155   4.790   5.337   5.616 -0.5834  0.4792  0.4055
 6302SOL     OW19156   1.412   2.316   6.071 -0.0467 -0.6045 -0.0525
 6302SOL    HW119157   1.441   2.403   6.043 -0.7076 -0.5071 -0.4605
 6302SOL    HW219158   1.328   2.304   6.026 -0.3528 -1.1147  0.6517
 6303SOL     OW19159   1.831   5.744   1.624 -0.2995  0.0036 -0.2796
 6303SOL    HW119160   1.745   5.713   1.598 -0.1878  0.1058 -0.7744
 6303SOL    HW219161   1.867   5.786   1.546 -0.1452  0.7152  0.1608
 6304SOL     OW19162   0.224   2.468   2.624  0.2444  0.2292  0.6122
 6304SOL    HW119163   0.233   2.376   2.602 -1.6061 -0.1402  1.2582
 6304SOL    HW219164   0.258   2.515   2.548 -1.5647 -1.0085 -1.0343
 6305SOL     OW19165   3.922   4.157   2.032  0.8398 -0.4648  0.2955
 6305SOL    HW119166   3.964   4.206   1.961  1.9770 -1.0879  0.5203
 6305SOL    HW219167   3.992   4.105   2.071  0.0152 -0.9433  1.2000
 6306SOL     OW19168   5.308   3.246   4.765 -0.5531  0.7172  0.3339
 6306SOL    HW119169   5.317   3.330   4.721  0.7623  0.3545 -0.1562
 6306SOL    HW219170   5.214   3.226   4.762 -0.7213  1.5935 -0.6115
 6307SOL     OW19171   4.094   1.450   0.829  0.1463  0.0223 -0.0511
 6307SOL    HW119172   4.140   1.404   0.898  1.3310  0.2024 -0.7010
 6307SOL    HW219173   4.091   1.541   0.858 -0.9417 -0.1930  0.5714
 6308SOL     OW19174   5.588   5.673   2.842 -0.7746  0.1477  0.5269
 6308SOL    HW119175   5.598   5.703   2.933  2.5040  0.5582  0.1784
 6308SOL    HW219176   5.599   5.578   2.847  0.0044  0.2289  0.5445
 6309SOL     OW19177   1.621   4.931   2.909  0.1858 -0.3290 -0.0611
 6309SOL    HW119178   1.664   5.016   2.907  2.0417 -1.1437  1.9909
 6309SOL    HW219179   1.554   4.939   2.976 -0.4051 -0.1825 -0.6545
 6310SOL     OW19180   1.553   1.248   5.922 -0.3044  0.0710 -0.0631
 6310SOL    HW119181   1.618   1.202   5.868 -0.8074 -2.0022  1.0184
 6310SOL    HW219182   1.469   1.217   5.889 -0.6233 -0.9652  1.6240
 6311SOL     OW19183   1.247   4.700   5.682 -0.1271  0.1937  0.3335
 6311SOL    HW119184   1.244   4.671   5.773 -1.5111 -0.0174  0.2385
 6311SOL    HW219185   1.340   4.699   5.660  0.1206 -1.0541  1.3286
 6312SOL     OW19186   3.188   1.419   3.998  0.0292 -0.6061 -0.0140
 6312SOL    HW119187   3.125   1.351   4.024  0.0267 -1.3322 -1.8192
 6312SOL    HW219188   3.141   1.501   4.014 -1.5734 -1.1317 -1.6402
 6313SOL     OW19189   4.772   0.207   5.140  0.2895  0.7599 -0.2930
 6313SOL    HW119190   4.858   0.190   5.178 -0.5254  0.1846  1.4074
 6313SOL    HW219191   4.756   0.132   5.083 -0.8068 -1.5165  2.6991
 6314SOL     OW19192   0.828   2.645   1.489 -0.3281 -0.0438 -0.2200
 6314SOL    HW119193   0.741   2.619   1.461 -1.2592  0.8250  1.6341
 6314SOL    HW219194   0.857   2.574   1.547 -0.4093  0.3269  0.2780
 6315SOL     OW19195   3.974   1.470   1.495  0.0927 -0.1477  0.0336
 6315SOL    HW119196   4.014   1.527   1.561  0.4918  1.0088 -1.1658
 6315SOL    HW219197   3.945   1.530   1.426  1.8437 -1.4961 -1.9898
 6316SOL     OW19198   4.329   5.153   2.319  0.8592 -0.0761  0.4693
 6316SOL    HW119199   4.248   5.190   2.287  0.2030 -0.8069  1.2259
 6316SOL    HW219200   4.380   5.134   2.240  0.2567  0.3001 -0.0159
 6317SOL     OW19201   4.309   2.920   0.142 -0.0107 -0.1938  0.4824
 6317SOL    HW119202   4.355   2.851   0.189 -1.3016 -1.1040  0.4850
 6317SOL    HW219203   4.334   3.000   0.187 -0.9382 -0.9878  2.5748
 6318SOL     OW19204   1.955   4.930   6.065 -0.3751  0.3125  0.6950
 6318SOL    HW119205   2.022   4.866   6.093  1.1011  1.3126 -0.3741
 6318SOL    HW219206   1.873   4.893   6.096  0.7540 -0.4039  3.1354
 6319SOL     OW19207   3.854   1.703   2.599 -0.2454  0.8673 -0.2812
 6319SOL    HW119208   3.818   1.787   2.625  0.0316  0.5852  1.0847
 6319SOL    HW219209   3.784   1.640   2.615 -0.1500  0.7154 -0.4467
 6320SOL     OW19210   1.911   1.863   3.646  0.1702 -0.9462 -0.0333
 6320SOL    HW119211   1.898   1.790   3.586  2.0977 -2.9086  1.7857
 6320SOL    HW219212   1.986   1.910   3.610 -0.0012 -0.8666 -0.2896
 6321SOL     OW19213   2.720   2.874   1.872 -0.3884 -0.5019 -0.4037
 6321SOL    HW119214   2.764   2.958   1.860 -1.7120  0.5408  1.5317
 6321SOL    HW219215   2.789   2.814   1.900  0.5427 -0.0743 -1.6562
 6322SOL     OW19216   4.909   5.110   4.045 -0.1062 -0.0567  0.2019
 6322SOL    HW119217   4.818   5.139   4.045 -0.0008  0.2761 -0.2038
 6322SOL    HW219218   4.945   5.141   4.128 -0.4424 -0.4470  0.4966
 6323SOL     OW19219   3.411   3.912   2.008  0.1303  0.2542  0.0539
 6323SOL    HW119220   3.381   3.912   1.917 -1.1783 -1.6735  0.4207
 6323SOL    HW219221   3.506   3.910   2.002  0.0737 -2.0970 -1.3809
 6324SOL     OW19222   0.263   4.695   5.160  0.1296  0.0275 -0.1593
 6324SOL    HW119223   0.324   4.760   5.126  0.1476 -0.4128 -0.9823
 6324SOL    HW219224   0.285   4.614   5.114 -0.3375 -0.4047  0.3574
 6325SOL     OW19225   2.223   5.122   5.278  0.7177 -0.0721  0.3244
 6325SOL    HW119226   2.299   5.179   5.287  0.6794 -0.0680  0.6451
 6325SOL    HW219227   2.150   5.173   5.312  0.5603 -0.0568 -0.0325
 6326SOL     OW19228   5.569   0.061   2.325  0.3663 -0.6869 -0.7305
 6326SOL    HW119229   5.551  -0.017   2.379  0.4858 -1.6582 -2.0530
 6326SOL    HW219230   5.663   0.056   2.307  0.6483  0.5140  0.2775
 6327SOL     OW19231   4.000   1.926   1.724 -0.4795  0.0036 -0.1251
 6327SOL    HW119232   4.077   1.975   1.695  0.0051 -1.1121 -0.8232
 6327SOL    HW219233   3.927   1.967   1.678 -0.9335  3.2749  3.0429
 6328SOL     OW19234   0.604   4.137   5.077  0.0208 -0.1409  0.2199
 6328SOL    HW119235   0.551   4.064   5.044  1.5433 -0.5388 -1.5026
 6328SOL    HW219236   0.573   4.213   5.027  0.0539 -0.0732  0.3025
 6329SOL     OW19237   0.528   2.312   4.182 -0.1392 -0.2309  0.0038
 6329SOL    HW119238   0.478   2.240   4.145 -0.8507 -0.6140  1.5994
 6329SOL    HW219239   0.579   2.273   4.253  1.3083  0.4311 -0.6248
 6330SOL     OW19240   5.939   4.129   5.471  0.6420  0.6898  0.1683
 6330SOL    HW119241   5.882   4.098   5.400 -0.0898 -3.9026  2.4138
 6330SOL    HW219242   6.027   4.104   5.444  0.2836 -1.7354  1.0500
 6331SOL     OW19243   4.110   4.282   0.336  0.2150 -0.5294  0.1374
 6331SOL    HW119244   4.176   4.331   0.385 -0.4067  0.7840 -0.2975
 6331SOL    HW219245   4.037   4.343   0.326  0.0666 -0.9756 -1.8487
 6332SOL     OW19246   0.946   1.301   2.493  0.4680 -1.1219 -0.2023
 6332SOL    HW119247   1.039   1.297   2.472 -0.1538 -1.0627 -3.5225
 6332SOL    HW219248   0.914   1.213   2.476 -0.6109 -0.3588 -2.5409
 6333SOL     OW19249   3.304   4.578   4.172  0.2133  0.7103  0.0214
 6333SOL    HW119250   3.248   4.507   4.204  1.6409 -0.2293  0.5875
 6333SOL    HW219251   3.291   4.649   4.235 -0.9494  0.8212 -0.3304
 6334SOL     OW19252   2.317   2.933   6.022  0.0366 -0.4193 -0.2203
 6334SOL    HW119253   2.348   2.896   5.939  0.7767 -2.6590  0.9538
 6334SOL    HW219254   2.227   2.961   6.004  0.5942  0.3412 -2.0687
 6335SOL     OW19255   1.280   5.711   0.101  0.0990 -0.2069 -0.2424
 6335SOL    HW119256   1.343   5.726   0.031 -1.3623  1.4794 -1.2888
 6335SOL    HW219257   1.232   5.632   0.073  1.1560 -1.0192  0.1601
 6336SOL     OW19258   0.960   4.700   5.473 -0.3600 -0.2364 -0.3377
 6336SOL    HW119259   1.008   4.718   5.554  0.1683  0.1533 -0.7245
 6336SOL    HW219260   0.887   4.644   5.500  0.1401 -0.6000  0.3190
 6337SOL     OW19261   5.936   1.800   5.839 -0.3252 -0.2300 -0.1921
 6337SOL    HW119262   5.964   1.710   5.823 -0.0118  0.0509 -1.3683
 6337SOL    HW219263   5.890   1.825   5.759  0.8561  1.1091 -0.4929
 6338SOL     OW19264   0.676   5.011   1.312 -0.2531  0.2045  0.3085
 6338SOL    HW119265   0.735   4.943   1.344 -1.0130 -0.9817 -0.7369
 6338SOL    HW219266   0.597   4.965   1.286 -1.0936  1.5891  0.2893
 6339SOL     OW19267   0.665   1.307   3.439 -0.7487  0.1352  0.0441
 6339SOL    HW119268   0.752   1.288   3.475 -0.3908  0.7556 -0.4708
 6339SOL    HW219269   0.613   1.230   3.460  0.0629 -0.4518 -0.0751
 6340SOL     OW19270   0.336   1.792   3.369 -0.1116  0.0118  0.0884
 6340SOL    HW119271   0.399   1.848   3.413  0.8652 -1.2360  0.3400
 6340SOL    HW219272   0.257   1.846   3.359  0.2634  0.8950  1.7063
 6341SOL     OW19273   3.906   4.687   0.655 -0.3724 -0.1810 -0.4134
 6341SOL    HW119274   3.999   4.683   0.633 -0.5671 -2.8171 -1.1320
 6341SOL    HW219275   3.881   4.778   0.637  2.2444  0.8928  0.8191
 6342SOL     OW19276   4.829   5.324   0.544  0.4471  0.2798 -0.2095
 6342SOL    HW119277   4.863   5.293   0.628 -3.2778 -2.8217  0.4733
 6342SOL    HW219278   4.843   5.252   0.484 -1.5502  0.2702 -0.7519
 6343SOL     OW19279   4.803   3.988   3.580 -0.4999  0.7653  0.0768
 6343SOL    HW119280   4.855   4.005   3.659 -0.1217  3.3523 -0.6195
 6343SOL    HW219281   4.774   3.898   3.589  3.2356 -0.5392  1.0350
 6344SOL     OW19282   2.242   1.464   1.002  1.0091  0.2271 -0.2551
 6344SOL    HW119283   2.321   1.419   1.034 -0.6281 -2.9681 -0.3014
 6344SOL    HW219284   2.251   1.462   0.906  1.0113  0.0981 -0.2531
 6345SOL     OW19285   1.707   5.411   0.842  0.5456 -0.7572 -0.1064
 6345SOL    HW119286   1.752   5.361   0.910  1.5192  0.0146 -0.1557
 6345SOL    HW219287   1.651   5.347   0.798 -0.1887 -1.2662  1.4675
 6346SOL     OW19288   0.668   2.884   2.300 -0.4492  0.0152  0.6844
 6346SOL    HW119289   0.582   2.924   2.317 -0.0571  1.2368 -0.0940
 6346SOL    HW219290   0.674   2.880   2.205  1.3988  2.3679  0.6270
 6347SOL     OW19291   6.136   0.383   0.637 -0.1147 -0.6721  0.0655
 6347SOL    HW119292   6.161   0.292   0.651  0.5417 -0.2687  1.7215
 6347SOL    HW219293   6.163   0.428   0.717 -1.5803  0.7447 -0.1909
 6348SOL     OW19294   5.912   2.688   4.561  0.2339  0.3012 -0.0096
 6348SOL    HW119295   5.935   2.777   4.591 -0.7455 -0.3925  3.1799
 6348SOL    HW219296   5.996   2.645   4.549  0.7506  0.6498  1.9705
 6349SOL     OW19297   1.793   3.836   3.256  0.1684 -0.0540 -0.2903
 6349SOL    HW119298   1.825   3.889   3.329  0.9063  1.6140 -1.7259
 6349SOL    HW219299   1.870   3.787   3.227 -0.2219 -1.0211  0.2836
 6350SOL     OW19300   3.728   0.774   0.769  0.1368  0.0180 -0.4128
 6350SOL    HW119301   3.708   0.865   0.793 -0.3358 -0.7667  2.6814
 6350SOL    HW219302   3.809   0.755   0.817  0.6049 -1.0302 -1.5635
 6351SOL     OW19303   1.535   4.820   0.021 -0.5498  0.5652 -0.3846
 6351SOL    HW119304   1.577   4.851  -0.059 -2.4099  1.6459 -1.0159
 6351SOL    HW219305   1.606   4.812   0.085  0.9946 -0.4262 -2.1367
 6352SOL     OW19306   6.113   0.942   3.600 -0.3114 -0.4327 -0.3339
 6352SOL    HW119307   6.024   0.930   3.568 -1.8615  0.4399  3.1451
 6352SOL    HW219308   6.127   0.868   3.659  0.3560  0.6287  0.8883
 6353SOL     OW19309   0.888   6.254   0.782  0.1759 -0.2466 -0.4960
 6353SOL    HW119310   0.960   6.307   0.748  0.5566 -0.7294 -0.4473
 6353SOL    HW219311   0.928   6.197   0.847 -0.1005 -1.0793 -1.0351
 6354SOL     OW19312   3.253   1.276   5.285 -0.6826  0.1006 -0.1358
 6354SOL    HW119313   3.278   1.261   5.194 -0.0113 -0.2490  0.1045
 6354SOL    HW219314   3.249   1.371   5.294  0.9343  0.1767 -0.0790
 6355SOL     OW19315   1.450   0.807   3.425  0.3039  0.3486  0.2585
 6355SOL    HW119316   1.364   0.775   3.453  0.9903 -1.1989  0.7251
 6355SOL    HW219317   1.459   0.892   3.466 -1.5053  1.1087 -0.8061
 6356SOL     OW19318   0.390   2.416   5.782 -0.2637 -0.0301  0.0446
 6356SOL    HW119319   0.394   2.342   5.844 -1.5018  2.6133  3.6357
 6356SOL    HW219320   0.315   2.467   5.811 -1.1135  1.3501 -4.0020
 6357SOL     OW19321   3.586   4.621   0.984  0.2335 -0.2723  0.5562
 6357SOL    HW119322   3.520   4.610   0.915  0.3530 -0.7800  0.5149
 6357SOL    HW219323   3.608   4.714   0.982 -0.8486  0.0039  0.9188
 6358SOL     OW19324   6.158   3.522   0.401 -0.4595 -0.0939  0.0578
 6358SOL    HW119325   6.228   3.460   0.379 -1.2191 -1.9434  2.3743
 6358SOL    HW219326   6.081   3.487   0.356 -1.0405 -1.3586  1.8949
 6359SOL     OW19327   5.198   2.482   3.780 -0.0074  0.1209  0.3424
 6359SOL    HW119328   5.223   2.503   3.870 -0.1863 -0.4138  0.5196
 6359SOL    HW219329   5.278   2.496   3.729  1.0133 -2.6169  1.0567
 6360SOL     OW19330   2.143   1.658   3.180 -0.4347 -0.0188  0.5398
 6360SOL    HW119331   2.236   1.660   3.157 -0.9710  1.0312 -1.7495
 6360SOL    HW219332   2.141   1.688   3.271  1.4120  0.6172  0.4136
 6361SOL     OW19333   4.737   2.965   0.205  0.2461 -0.0827 -0.2614
 6361SOL    HW119334   4.675   3.008   0.264  0.7144  0.7287 -0.3453
 6361SOL    HW219335   4.697   2.880   0.187 -0.0937 -0.1933  0.9066
 6362SOL     OW19336   4.547   1.694   3.233 -0.7409  0.0412 -0.0220
 6362SOL    HW119337   4.602   1.749   3.288 -1.7676  1.4106 -0.3108
 6362SOL    HW219338   4.488   1.650   3.295 -0.6988  0.1846  0.1201
 6363SOL     OW19339   0.360   1.384   5.850 -0.3395 -0.1801  0.3406
 6363SOL    HW119340   0.324   1.312   5.798 -0.3658 -0.2632  0.4757
 6363SOL    HW219341   0.289   1.409   5.909 -0.3337 -0.0361  0.2875
 6364SOL     OW19342   3.191   5.148   4.413  0.1821  0.0732 -0.0259
 6364SOL    HW119343   3.235   5.105   4.340  1.5027  0.6951  0.3852
 6364SOL    HW219344   3.111   5.097   4.426 -0.1090 -0.0172 -1.9304
 6365SOL     OW19345   6.123   6.231   1.714 -0.0458 -0.0555  0.3012
 6365SOL    HW119346   6.164   6.145   1.706 -3.0122 -1.5264 -0.7519
 6365SOL    HW219347   6.167   6.286   1.649 -0.3572 -1.8236 -1.4953
 6366SOL     OW19348   5.892   4.260   5.720  0.6843  0.5361  0.3085
 6366SOL    HW119349   5.864   4.351   5.712  1.6327  0.7982 -0.1704
 6366SOL    HW219350   5.930   4.239   5.634  0.2951 -0.3790  0.3477
 6367SOL     OW19351   1.407   3.932   2.244  0.1619  0.1209 -0.9018
 6367SOL    HW119352   1.485   3.976   2.279  1.0081 -0.4961 -1.9376
 6367SOL    HW219353   1.442   3.861   2.190 -1.1307 -3.2215  2.2648
 6368SOL     OW19354   5.908   4.363   1.265  0.0149  0.5997 -0.3565
 6368SOL    HW119355   5.821   4.328   1.286 -0.3984  1.1545 -1.0991
 6368SOL    HW219356   5.897   4.458   1.269  0.6901  0.6708 -0.0794
 6369SOL     OW19357   5.106   2.967   1.758 -0.2699  0.5062  0.2974
 6369SOL    HW119358   5.036   2.930   1.812  0.8791 -1.1566  0.7190
 6369SOL    HW219359   5.063   2.990   1.676 -1.5211  0.5648  0.9410
 6370SOL     OW19360   2.909   5.019   4.476  0.3381  0.1046 -0.2496
 6370SOL    HW119361   2.819   5.021   4.444 -0.3148  0.2441  1.4721
 6370SOL    HW219362   2.913   4.942   4.533  1.4321 -0.1277 -0.6217
 6371SOL     OW19363   5.252   4.744   1.806 -0.1629  0.1797 -0.3802
 6371SOL    HW119364   5.167   4.771   1.840 -0.3245  0.1395 -0.7485
 6371SOL    HW219365   5.278   4.816   1.748 -0.4241 -0.2755 -1.0752
 6372SOL     OW19366   1.923   3.759   3.868  0.1348 -0.4022  0.5176
 6372SOL    HW119367   1.890   3.724   3.785 -0.1813  0.2621  0.3563
 6372SOL    HW219368   1.973   3.687   3.906 -2.2343 -1.8000  1.2109
 6373SOL     OW19369   4.179   0.979   3.142  0.6531 -0.0953 -0.1728
 6373SOL    HW119370   4.149   1.046   3.203 -0.2400 -0.2631 -0.4057
 6373SOL    HW219371   4.163   1.018   3.055 -0.8888 -1.0017 -0.3302
 6374SOL     OW19372   0.728   2.939   4.652  0.0959 -0.1383  0.6533
 6374SOL    HW119373   0.790   2.911   4.720 -0.1628  2.5381  2.1339
 6374SOL    HW219374   0.645   2.950   4.699 -1.0883 -1.7510 -0.9105
 6375SOL     OW19375   0.615   1.803   1.164 -0.1510 -0.2247  0.0233
 6375SOL    HW119376   0.558   1.876   1.142  0.1047  0.3613  1.2246
 6375SOL    HW219377   0.575   1.727   1.122 -0.4355  0.5961 -1.2058
 6376SOL     OW19378   6.263   5.947   4.609  0.1868  0.6222 -0.3100
 6376SOL    HW119379   6.276   5.958   4.703 -0.2113 -2.0864  0.1396
 6376SOL    HW219380   6.168   5.946   4.598  0.2206  0.0565 -0.5882
 6377SOL     OW19381   0.816   1.279   5.192 -0.7611 -0.3746 -0.0857
 6377SOL    HW119382   0.745   1.298   5.130  0.7244  1.9839 -1.2508
 6377SOL    HW219383   0.887   1.336   5.163  1.6287 -2.6188  1.0291
 6378SOL     OW19384   1.398   3.948   4.850 -0.5222  0.4714  0.2486
 6378SOL    HW119385   1.468   4.006   4.821 -0.2696 -0.8439 -1.9881
 6378SOL    HW219386   1.440   3.889   4.912  1.1467 -1.9424 -2.9306
 6379SOL     OW19387   0.312   5.514   6.326  0.0027 -0.2602 -0.4898
 6379SOL    HW119388   0.229   5.473   6.348 -0.6439  0.7539 -0.9820
 6379SOL    HW219389   0.310   5.523   6.231  1.1754 -1.2556 -0.6312
 6380SOL     OW19390   4.065   0.277   4.112  0.7420 -0.3034  0.1873
 6380SOL    HW119391   4.034   0.320   4.032 -2.4484 -3.6703 -0.6672
 6380SOL    HW219392   4.030   0.330   4.183 -0.4405  0.2152 -0.7481
 6381SOL     OW19393   5.418   0.552   4.650 -0.3451  0.1920 -0.4273
 6381SOL    HW119394   5.510   0.559   4.622 -0.2836 -1.6289 -0.8030
 6381SOL    HW219395   5.420   0.485   4.719 -1.3834  0.2801 -0.3054
 6382SOL     OW19396   4.733   0.516   1.767  0.8268  0.0744  0.2010
 6382SOL    HW119397   4.810   0.573   1.769 -0.7020  2.3776 -1.9375
 6382SOL    HW219398   4.715   0.502   1.674 -1.0502 -0.8596  0.6552
 6383SOL     OW19399   2.993   6.276   3.149 -0.0475  0.2996 -0.1135
 6383SOL    HW119400   2.941   6.196   3.150 -1.4502  1.1862 -0.6285
 6383SOL    HW219401   3.047   6.269   3.070  0.6925 -0.6489  0.4573
 6384SOL     OW19402   3.741   2.259   5.006  0.2486  0.0967 -0.4676
 6384SOL    HW119403   3.661   2.262   5.058 -0.4201 -0.4846 -1.4205
 6384SOL    HW219404   3.747   2.168   4.977  0.8669  0.2991 -0.9941
 6385SOL     OW19405   6.147   0.663   6.027  0.1024  0.2784  0.2588
 6385SOL    HW119406   6.124   0.588   6.083 -0.2417 -0.7118 -1.1252
 6385SOL    HW219407   6.224   0.701   6.067  0.1849 -0.7351  1.1076
 6386SOL     OW19408   5.561   0.292   0.966 -0.3467 -0.2487  0.5190
 6386SOL    HW119409   5.572   0.218   1.026 -0.7796  0.8767  2.0758
 6386SOL    HW219410   5.466   0.304   0.959 -0.3088  1.3893  1.9841
 6387SOL     OW19411   4.943   2.847   2.617 -0.3336 -0.5165  0.3227
 6387SOL    HW119412   4.938   2.854   2.712  0.1425 -2.0943  0.5010
 6387SOL    HW219413   4.916   2.756   2.599 -3.2773  0.5359 -1.3107
 6388SOL     OW19414   1.563   0.233   2.431  0.2105  0.4111  0.1187
 6388SOL    HW119415   1.652   0.200   2.438  0.7785  1.2167 -2.2783
 6388SOL    HW219416   1.553   0.257   2.339 -2.2748  0.9556  0.4417
 6389SOL     OW19417   1.355   3.401   0.215 -0.8521  0.5411  0.3019
 6389SOL    HW119418   1.271   3.422   0.176  0.6425  0.5850 -3.2368
 6389SOL    HW219419   1.418   3.457   0.170  1.0473  1.5368  3.7722
 6390SOL     OW19420   2.514   3.646   0.156 -0.0053 -0.4057  0.3730
 6390SOL    HW119421   2.469   3.730   0.149  1.0630  0.0413 -1.6958
 6390SOL    HW219422   2.569   3.641   0.079  2.0295 -1.8131  1.8145
 6391SOL     OW19423   2.114   4.617   0.048  0.5674 -0.3313 -0.1014
 6391SOL    HW119424   2.204   4.584   0.047  0.0926 -1.8238  1.2046
 6391SOL    HW219425   2.116   4.693   0.106  1.1532  0.2457 -0.8648
 6392SOL     OW19426   1.770   0.507   3.226 -0.6833  0.5008  0.1029
 6392SOL    HW119427   1.787   0.559   3.148  0.4848  1.1614  0.7696
 6392SOL    HW219428   1.853   0.464   3.245 -1.1792 -0.3064  0.5153
 6393SOL     OW19429   0.376   0.668   4.092  0.2157  0.0442 -0.5850
 6393SOL    HW119430   0.410   0.716   4.167  2.9307 -0.7149 -1.2245
 6393SOL    HW219431   0.434   0.593   4.082 -2.5942 -2.2975 -0.9232
 6394SOL     OW19432   2.854   5.139   6.247  0.3706  0.7242  0.2765
 6394SOL    HW119433   2.809   5.188   6.316 -0.7516  0.4527 -0.2335
 6394SOL    HW219434   2.783   5.099   6.197  1.2174 -0.0529 -0.3186
 6395SOL     OW19435   5.289   1.111   5.481 -0.3572 -0.1554  0.6308
 6395SOL    HW119436   5.280   1.157   5.398 -0.8670 -0.9985  0.2149
 6395SOL    HW219437   5.246   1.168   5.545  0.4023  0.6988  0.4097
 6396SOL     OW19438   1.496   3.554   5.442  0.3547  0.5277 -0.9257
 6396SOL    HW119439   1.559   3.503   5.492 -0.3712  0.1866 -0.3401
 6396SOL    HW219440   1.411   3.513   5.461 -0.0620  1.0673 -1.5780
 6397SOL     OW19441   5.381   5.265   0.938 -0.4157 -0.0499  0.1095
 6397SOL    HW119442   5.409   5.266   1.030 -0.9113 -1.5490  0.3051
 6397SOL    HW219443   5.390   5.174   0.911 -2.1778 -0.0188 -0.7312
 6398SOL     OW19444   4.990   2.318   5.140 -0.3804  0.3064  0.5606
 6398SOL    HW119445   4.963   2.226   5.137  0.7250 -0.0326  0.5108
 6398SOL    HW219446   4.923   2.361   5.195 -1.2412 -0.3957  0.0904
 6399SOL     OW19447   3.021   5.298   2.322  0.4395  0.3326 -0.1785
 6399SOL    HW119448   3.089   5.336   2.379 -0.9801  1.5602  0.7759
 6399SOL    HW219449   2.982   5.373   2.278  1.7929 -0.6040 -3.2843
 6400SOL     OW19450   5.274   0.688   2.498 -0.2731  0.4034  0.2174
 6400SOL    HW119451   5.258   0.776   2.534  0.9957  1.2386 -1.1242
 6400SOL    HW219452   5.312   0.639   2.571  2.0334  1.9697  0.1796
 6401SOL     OW19453   4.541   4.238   3.359  0.4450  0.0900  0.0996
 6401SOL    HW119454   4.470   4.178   3.334 -0.2089  0.7034  0.4632
 6401SOL    HW219455   4.528   4.315   3.304  1.0921  0.0435 -0.1335
 6402SOL     OW19456   5.572   1.904   1.905  0.2155 -0.4383  0.1935
 6402SOL    HW119457   5.613   1.990   1.901  0.1764 -0.4455 -0.6203
 6402SOL    HW219458   5.478   1.922   1.901  0.2020 -0.5027  0.2216
 6403SOL     OW19459   4.359   3.131   4.630  0.2586  0.7436  0.0582
 6403SOL    HW119460   4.306   3.069   4.682 -2.0947  0.8942 -1.9870
 6403SOL    HW219461   4.341   3.216   4.670 -0.5956  0.7136 -0.2382
 6404SOL     OW19462   2.432   5.438   0.197 -0.4277 -0.4097 -0.2503
 6404SOL    HW119463   2.463   5.398   0.279  0.4725 -0.9209 -0.8243
 6404SOL    HW219464   2.413   5.529   0.221  2.3077  0.1922  0.0259
 6405SOL     OW19465   3.967   0.755   1.765  0.1549  0.3160 -0.1423
 6405SOL    HW119466   4.037   0.690   1.779  1.5273  1.4540 -1.3636
 6405SOL    HW219467   4.012   0.839   1.767 -1.4957  1.2194  0.7692
 6406SOL     OW19468   2.498   1.900   6.212 -0.0990  0.3781 -0.3897
 6406SOL    HW119469   2.549   1.965   6.260  0.0296 -0.4301  0.5938
 6406SOL    HW219470   2.453   1.849   6.280  1.3393 -1.8305 -0.9931
 6407SOL     OW19471   3.132   1.373   0.116  0.0630  0.7408 -0.1754
 6407SOL    HW119472   3.192   1.372   0.190 -0.8099  0.1793  0.5470
 6407SOL    HW219473   3.063   1.311   0.140 -0.6189  1.1011 -1.1325
 6408SOL     OW19474   2.322   0.555   1.408  0.4063 -0.0836 -0.4509
 6408SOL    HW119475   2.395   0.611   1.384  0.2343  0.5268  0.4113
 6408SOL    HW219476   2.303   0.578   1.499  0.7599 -2.0093  0.1511
 6409SOL     OW19477   0.280   5.463   0.631 -0.0015 -0.3143 -0.1921
 6409SOL    HW119478   0.361   5.415   0.651  0.4227  0.0763 -0.9109
 6409SOL    HW219479   0.273   5.528   0.702 -0.0284 -0.7707  0.2239
 6410SOL     OW19480   5.432   2.790   2.009  0.6733  0.2095 -0.4475
 6410SOL    HW119481   5.364   2.767   2.073  1.5288 -0.3032  0.3025
 6410SOL    HW219482   5.498   2.837   2.061  0.8617  0.7690 -1.1828
 6411SOL     OW19483   2.121   4.145   5.909 -0.2507 -0.0323  0.2322
 6411SOL    HW119484   2.071   4.216   5.868 -1.7555 -1.9305 -1.3726
 6411SOL    HW219485   2.058   4.102   5.967  0.9080  0.4268  1.9264
 6412SOL     OW19486   1.310   6.153   4.848 -0.0511  0.0261  0.2217
 6412SOL    HW119487   1.219   6.166   4.876  0.6367  0.8695  2.2380
 6412SOL    HW219488   1.303   6.136   4.754 -2.1642  2.1711 -0.1317
 6413SOL     OW19489   1.056   1.015   2.106 -0.4461 -0.2123  0.4325
 6413SOL    HW119490   0.970   0.973   2.107 -1.1133  1.0914  2.0562
 6413SOL    HW219491   1.040   1.103   2.071  0.6238 -0.6163 -1.2057
 6414SOL     OW19492   0.813   5.350   4.300  0.1953 -0.2591  0.3467
 6414SOL    HW119493   0.906   5.367   4.283  0.4223 -0.7104  1.1121
 6414SOL    HW219494   0.805   5.255   4.298 -0.0457 -0.2683  1.2904
 6415SOL     OW19495   1.328   2.669   0.347  0.1197  0.7025  0.4985
 6415SOL    HW119496   1.315   2.758   0.313  3.8143  0.6926 -1.4693
 6415SOL    HW219497   1.334   2.614   0.269  0.4540 -0.8406  1.5583
 6416SOL     OW19498   4.052   1.369   5.480 -0.4971  0.2502  0.4406
 6416SOL    HW119499   3.957   1.371   5.466 -0.1904  0.2592 -2.0519
 6416SOL    HW219500   4.080   1.459   5.463 -0.0241  0.2509  1.1781
 6417SOL     OW19501   4.572   2.534   1.463 -0.9824 -0.6994 -0.4796
 6417SOL    HW119502   4.497   2.512   1.519 -0.0546 -2.5785  0.1115
 6417SOL    HW219503   4.537   2.598   1.400 -2.1932  1.0722  1.8434
 6418SOL     OW19504   3.902   0.778   2.961  0.1502  0.1720 -0.5829
 6418SOL    HW119505   3.993   0.778   2.931  0.7609 -1.6223  1.1023
 6418SOL    HW219506   3.865   0.697   2.925 -1.1902  1.4119 -2.2006
 6419SOL     OW19507   6.154   1.661   5.306 -0.6215 -0.4366 -0.5703
 6419SOL    HW119508   6.217   1.694   5.242 -0.7193 -0.1893 -0.5399
 6419SOL    HW219509   6.121   1.739   5.350  0.0547 -0.6644  0.3572
 6420SOL     OW19510   5.281   0.935   0.710  0.9798  0.4041  0.0167
 6420SOL    HW119511   5.201   0.967   0.669  0.6196  0.6324  0.8768
 6420SOL    HW219512   5.283   0.841   0.688  0.2466  0.3037  0.3509
 6421SOL     OW19513   0.239   1.617   3.142 -0.0161  0.6177  0.7684
 6421SOL    HW119514   0.178   1.610   3.216 -0.4365 -1.1741  0.3166
 6421SOL    HW219515   0.322   1.643   3.182 -0.7008  1.6033  1.5936
 6422SOL     OW19516   5.356   6.207   5.250  0.1948 -0.3213  0.2236
 6422SOL    HW119517   5.444   6.196   5.213 -0.1355 -0.2149 -0.6090
 6422SOL    HW219518   5.307   6.253   5.182 -0.5096 -0.3840  0.6817
 6423SOL     OW19519   6.087   5.890   1.380  0.2098  0.0603 -0.1560
 6423SOL    HW119520   6.011   5.913   1.434  0.1136  0.1788 -0.3416
 6423SOL    HW219521   6.154   5.954   1.404  0.4986 -0.4940  0.5433
 6424SOL     OW19522   3.824   1.144   2.038  0.3805 -0.1582 -0.2752
 6424SOL    HW119523   3.913   1.108   2.043  0.1618 -0.5811  0.7857
 6424SOL    HW219524   3.805   1.172   2.128 -0.8621 -0.7919 -0.3336
 6425SOL     OW19525   4.373   2.999   2.328  0.4216 -0.2448  0.3149
 6425SOL    HW119526   4.376   3.081   2.378  2.4407 -0.5591  0.8099
 6425SOL    HW219527   4.411   2.934   2.387  0.6981 -1.1204 -0.7952
 6426SOL     OW19528   4.068   2.463   2.677 -0.5526  0.3139 -0.5277
 6426SOL    HW119529   4.055   2.510   2.759 -2.1001 -0.4022 -0.3202
 6426SOL    HW219530   4.162   2.447   2.673 -0.4471  0.3519  1.1045
 6427SOL     OW19531   0.474   5.280   0.710  0.4537  0.4902 -0.2853
 6427SOL    HW119532   0.482   5.247   0.800  1.2131  2.0311  0.2664
 6427SOL    HW219533   0.545   5.343   0.702  0.0068  0.8429 -1.7726
 6428SOL     OW19534   4.701   2.101   2.206 -0.2616 -0.1680 -0.2442
 6428SOL    HW119535   4.669   2.011   2.205  2.2773 -1.1341 -1.3429
 6428SOL    HW219536   4.788   2.096   2.244 -0.1365  1.8793 -0.1335
 6429SOL     OW19537   0.410   1.633   5.677  0.2563 -0.1315  0.1431
 6429SOL    HW119538   0.463   1.586   5.613  0.4057 -0.4685  0.5104
 6429SOL    HW219539   0.362   1.565   5.724 -1.0992  0.2097 -0.6900
 6430SOL     OW19540   1.308   3.870   1.528  0.2526 -0.1037  0.1081
 6430SOL    HW119541   1.316   3.776   1.540  0.3923 -0.3734 -1.8597
 6430SOL    HW219542   1.398   3.903   1.533  0.4264 -0.3516 -1.1020
 6431SOL     OW19543   3.057   2.682   3.735  0.1417  0.0048 -0.3124
 6431SOL    HW119544   3.118   2.679   3.809 -0.0107  0.2832 -0.1732
 6431SOL    HW219545   3.054   2.775   3.710  1.9953 -0.3645 -2.1728
 6432SOL     OW19546   0.051   3.432   2.236  0.9901 -0.3479 -0.2873
 6432SOL    HW119547  -0.024   3.491   2.242  0.3126 -1.1166 -0.9432
 6432SOL    HW219548   0.097   3.460   2.156  0.2001 -1.2153 -1.0652
 6433SOL     OW19549   1.312   1.146   2.528 -0.0271 -0.0737  0.7173
 6433SOL    HW119550   1.361   1.093   2.466 -2.2768 -1.5600  0.0594
 6433SOL    HW219551   1.283   1.221   2.477 -1.7266 -1.2055 -0.0943
 6434SOL     OW19552   1.697   1.862   3.414  0.0788  0.7458 -0.6767
 6434SOL    HW119553   1.735   1.899   3.494  1.6813  1.3785 -1.6824
 6434SOL    HW219554   1.749   1.783   3.397 -1.0488 -0.0637 -0.4551
 6435SOL     OW19555   2.875   2.582   6.279  0.4318  0.0662  0.5284
 6435SOL    HW119556   2.896   2.494   6.311  0.1866  0.1074  0.8019
 6435SOL    HW219557   2.822   2.621   6.348  0.3584  0.3537  0.3117
 6436SOL     OW19558   4.505   0.741   1.672  0.0922  0.6787 -0.1897
 6436SOL    HW119559   4.510   0.668   1.611  0.9722  1.6747 -1.3699
 6436SOL    HW219560   4.474   0.702   1.754 -0.6987 -0.7675 -1.1342
 6437SOL     OW19561   5.600   6.257   2.737  0.2825 -0.5221  0.1674
 6437SOL    HW119562   5.646   6.231   2.657 -2.2761  0.0912 -1.6081
 6437SOL    HW219563   5.524   6.199   2.741 -1.5360  1.7325  0.1721
 6438SOL     OW19564   2.156   3.611   3.773 -0.1482  0.1893 -0.3423
 6438SOL    HW119565   2.232   3.559   3.796 -0.5094 -0.2306 -0.0732
 6438SOL    HW219566   2.118   3.565   3.698  0.0888  0.6220 -0.7307
 6439SOL     OW19567   5.622   2.955   1.639 -0.1280 -0.1918 -0.2044
 6439SOL    HW119568   5.577   3.038   1.653 -1.0618 -0.4376 -1.5412
 6439SOL    HW219569   5.552   2.890   1.634  0.6055 -1.1302  1.1373
 6440SOL     OW19570   1.730   3.694   1.166  0.2836 -0.2009  0.3071
 6440SOL    HW119571   1.685   3.671   1.248 -0.3670  2.3076  0.7244
 6440SOL    HW219572   1.675   3.656   1.098 -0.2754 -0.5909  0.9568
 6441SOL     OW19573   1.646   0.237   0.013  0.0237 -0.7154 -0.5313
 6441SOL    HW119574   1.563   0.205   0.047 -1.0759  0.0582 -2.3426
 6441SOL    HW219575   1.708   0.226   0.085 -1.5502 -1.6697  0.7250
 6442SOL     OW19576   1.105   5.812   3.957 -0.6089 -0.0905 -0.8089
 6442SOL    HW119577   1.200   5.808   3.959 -0.6159 -0.2199 -0.7685
 6442SOL    HW219578   1.081   5.861   4.036 -0.6096 -0.6247 -0.4762
 6443SOL     OW19579   2.739   4.915   6.034  0.0098  0.0194  0.5106
 6443SOL    HW119580   2.716   4.855   6.105  0.5147 -1.8719 -0.8465
 6443SOL    HW219581   2.832   4.900   6.018  0.0129  0.7284 -0.2487
 6444SOL     OW19582   1.370   6.346   0.834  0.4455 -0.0385 -0.5180
 6444SOL    HW119583   1.315   6.283   0.787  0.5744 -0.9681  0.5343
 6444SOL    HW219584   1.455   6.341   0.789  0.2517 -0.0898 -0.8839
 6445SOL     OW19585   5.494   5.772   4.316 -0.8152 -0.3770  0.5661
 6445SOL    HW119586   5.573   5.818   4.342 -0.7707 -1.0003  1.5855
 6445SOL    HW219587   5.456   5.740   4.398 -2.0864 -0.1533  0.0885
 6446SOL     OW19588   0.470   2.844   2.546 -0.6121 -0.2574  0.1992
 6446SOL    HW119589   0.465   2.916   2.482 -0.7199 -1.9223 -1.7704
 6446SOL    HW219590   0.558   2.850   2.582 -1.2222  1.9759  1.5025
 6447SOL     OW19591   5.114   0.592   0.189 -0.0054  0.4214 -0.4203
 6447SOL    HW119592   5.095   0.668   0.243  0.6313  0.9953 -0.9849
 6447SOL    HW219593   5.202   0.566   0.214  0.6196  1.1788 -1.7082
 6448SOL     OW19594   6.111   2.372   3.089 -0.0871 -0.3143 -0.1268
 6448SOL    HW119595   6.041   2.437   3.084  1.6749  1.7032  0.0283
 6448SOL    HW219596   6.103   2.322   3.008 -3.0576 -1.7264  0.8811
 6449SOL     OW19597   2.309   4.994   1.337 -0.5599 -0.0041 -0.0477
 6449SOL    HW119598   2.245   4.992   1.408 -0.1189  1.8767  0.4583
 6449SOL    HW219599   2.362   5.072   1.355  0.4126 -0.2439 -1.7107
 6450SOL     OW19600   5.857   5.910   1.512 -0.2619 -0.0418 -0.5799
 6450SOL    HW119601   5.774   5.880   1.475 -0.0427 -1.9289  0.3131
 6450SOL    HW219602   5.840   6.000   1.538 -1.8179 -0.1602 -1.0428
 6451SOL     OW19603   3.309   5.829   6.009  0.1015  0.1460  0.0077
 6451SOL    HW119604   3.265   5.783   6.080  0.5674 -0.6234 -0.1862
 6451SOL    HW219605   3.370   5.889   6.053 -0.3446  0.4117  0.2616
 6452SOL     OW19606   3.849   5.858   1.548  0.3290 -0.7179 -0.3365
 6452SOL    HW119607   3.805   5.790   1.497  0.7171  0.1598 -1.9189
 6452SOL    HW219608   3.778   5.915   1.578  0.1001 -1.2005  0.0403
 6453SOL     OW19609   3.405   0.310   1.592 -0.1512 -0.4931  0.5027
 6453SOL    HW119610   3.418   0.384   1.651  1.6579 -1.2290  1.0866
 6453SOL    HW219611   3.313   0.285   1.605  0.2146 -0.7397  3.1731
 6454SOL     OW19612   5.170   6.341   4.769  0.4095  0.2321  0.0666
 6454SOL    HW119613   5.241   6.282   4.748 -0.9435 -1.0734 -1.0718
 6454SOL    HW219614   5.190   6.374   4.856  1.5955 -1.3051  0.4016
 6455SOL     OW19615   0.186   2.358   4.232 -0.1256 -0.0868 -0.1353
 6455SOL    HW119616   0.204   2.442   4.273 -0.4503 -0.6124  1.1348
 6455SOL    HW219617   0.174   2.378   4.139 -0.9117  1.3628  0.2551
 6456SOL     OW19618   3.702   3.211   4.042 -0.1033 -0.0694  0.2435
 6456SOL    HW119619   3.702   3.173   4.130 -0.8907  0.3496  0.4330
 6456SOL    HW219620   3.734   3.141   3.985  1.3104 -0.0510  0.9737
 6457SOL     OW19621   1.074   3.541   5.797 -0.2318  0.2158 -0.3236
 6457SOL    HW119622   1.055   3.532   5.703 -2.5035 -0.9679  0.1728
 6457SOL    HW219623   0.992   3.517   5.840 -0.1667  3.4797  1.9379
 6458SOL     OW19624   0.314   2.101   0.506 -0.4787 -0.4758 -0.9224
 6458SOL    HW119625   0.345   2.047   0.578  0.1695 -0.6241 -1.3091
 6458SOL    HW219626   0.359   2.067   0.429  1.0455  1.5131 -0.9744
 6459SOL     OW19627   2.982   0.951   4.263  0.4308  0.1726 -0.1162
 6459SOL    HW119628   2.903   0.996   4.234  1.2726  1.0301 -1.1775
 6459SOL    HW219629   2.995   0.882   4.198 -0.2557 -0.9692  0.9076
 6460SOL     OW19630   2.917   4.511   3.479  0.0316 -0.6445  0.3206
 6460SOL    HW119631   2.848   4.566   3.443  0.6727 -1.2337 -1.9275
 6460SOL    HW219632   2.931   4.545   3.568 -1.1380  1.3370 -0.2018
 6461SOL     OW19633   4.650   4.097   4.378  0.0427 -0.5018  0.3489
 6461SOL    HW119634   4.590   4.136   4.441  0.5282 -1.9935  1.8325
 6461SOL    HW219635   4.601   4.094   4.296 -0.2612  2.3946  0.3448
 6462SOL     OW19636   1.121   1.232   3.136  0.0831  0.0353 -0.2766
 6462SOL    HW119637   1.209   1.231   3.098  0.1068  1.1350 -0.2717
 6462SOL    HW219638   1.069   1.178   3.077  0.4298  0.5913 -1.1141
 6463SOL     OW19639   4.424   2.429   3.982  0.3562 -0.1678  0.7308
 6463SOL    HW119640   4.342   2.419   4.031 -0.8681  0.4884 -1.1025
 6463SOL    HW219641   4.410   2.380   3.902  1.1517  1.2036 -0.2895
 6464SOL     OW19642   1.225   3.097   3.237  0.2106 -0.0799 -0.0031
 6464SOL    HW119643   1.301   3.046   3.267 -0.4332 -0.3243  1.2884
 6464SOL    HW219644   1.237   3.104   3.142  2.0743  0.2697  0.2148
 6465SOL     OW19645   5.878   1.186   5.894 -0.2443  0.5986 -0.0905
 6465SOL    HW119646   5.956   1.143   5.931 -0.8370 -1.4038 -0.9885
 6465SOL    HW219647   5.828   1.214   5.971  0.7049  0.6667  0.5270
 6466SOL     OW19648   0.458   1.072   5.797  0.1558  0.4930  0.2231
 6466SOL    HW119649   0.469   1.098   5.888  0.3901  1.9449 -0.1840
 6466SOL    HW219650   0.364   1.061   5.786  0.2726 -2.7610  1.3685
 6467SOL     OW19651   0.710   6.024   2.625  0.2091 -0.8050  0.3247
 6467SOL    HW119652   0.659   6.059   2.552 -1.7481 -1.6097  1.2280
 6467SOL    HW219653   0.645   5.986   2.683  1.7673 -0.8369  2.1504
 6468SOL     OW19654   2.863   2.649   4.270  0.1653  0.2303  0.4962
 6468SOL    HW119655   2.782   2.628   4.225 -0.1973  1.9560  0.2512
 6468SOL    HW219656   2.855   2.742   4.291  1.7061  0.2301  1.2542
 6469SOL     OW19657   2.846   2.931   5.653  0.2736  0.4670  0.3292
 6469SOL    HW119658   2.823   3.009   5.603 -0.1237 -0.6960 -1.3947
 6469SOL    HW219659   2.903   2.881   5.594 -2.5305 -2.3367 -0.2565
 6470SOL     OW19660   1.640   0.761   2.349  0.1952  0.0869  0.1963
 6470SOL    HW119661   1.732   0.763   2.324  0.3703 -0.3058  0.7733
 6470SOL    HW219662   1.592   0.779   2.268  0.8342  3.5544  0.4656
 6471SOL     OW19663   4.661   0.131   2.313  0.3910 -0.1655 -0.6635
 6471SOL    HW119664   4.634   0.039   2.308 -0.2710 -0.0238  0.0394
 6471SOL    HW219665   4.683   0.144   2.405 -2.0560  1.0408 -0.1783
 6472SOL     OW19666   1.561   6.132   3.413  0.3856  0.0018 -0.0443
 6472SOL    HW119667   1.534   6.080   3.489  1.6525 -0.4292  0.1355
 6472SOL    HW219668   1.657   6.132   3.417  0.4238  1.6559 -0.5277
 6473SOL     OW19669   2.834   6.207   0.151  0.4953 -0.4852 -0.3127
 6473SOL    HW119670   2.773   6.232   0.221 -1.9502 -0.7923 -2.2100
 6473SOL    HW219671   2.908   6.267   0.162 -0.5202  0.5346  1.5691
 6474SOL     OW19672   3.132   2.799   1.825  0.2576 -0.3820 -0.4799
 6474SOL    HW119673   3.187   2.723   1.847 -1.9060 -2.1690 -0.8955
 6474SOL    HW219674   3.116   2.842   1.909  0.1789 -1.3331  0.0044
 6475SOL     OW19675   2.437   4.125   4.731 -0.0015  0.2565  0.5109
 6475SOL    HW119676   2.422   4.208   4.777  1.1441  0.6477  0.2286
 6475SOL    HW219677   2.470   4.152   4.645 -0.3046 -0.4871  0.1621
 6476SOL     OW19678   5.813   2.295   2.954  0.4975 -0.4619 -0.8947
 6476SOL    HW119679   5.831   2.389   2.956  1.0649 -0.5754  1.1050
 6476SOL    HW219680   5.726   2.288   2.914 -0.3985  1.1037  0.6542
 6477SOL     OW19681   4.415   1.513   1.419 -0.2322 -0.1042 -0.3415
 6477SOL    HW119682   4.482   1.519   1.352  0.0482  0.3641 -0.0244
 6477SOL    HW219683   4.388   1.604   1.435 -1.4150 -0.3290 -0.9363
 6478SOL     OW19684   3.769   5.147   1.605 -0.7223 -0.3571 -0.1673
 6478SOL    HW119685   3.762   5.167   1.699 -0.5863 -1.4263  0.0746
 6478SOL    HW219686   3.816   5.222   1.569  0.3467 -0.5061  0.8394
 6479SOL     OW19687   1.687   3.433   6.081  0.2554  0.0981  0.3386
 6479SOL    HW119688   1.741   3.512   6.088  1.6999 -0.9948  2.1300
 6479SOL    HW219689   1.748   3.363   6.061 -0.8912 -0.7623 -0.2681
 6480SOL     OW19690   2.431   1.780   0.107 -0.0047  0.0548 -0.1039
 6480SOL    HW119691   2.485   1.702   0.121 -2.1968 -1.8945 -1.6615
 6480SOL    HW219692   2.341   1.749   0.116 -0.9898  2.3059 -1.2953
 6481SOL     OW19693   2.458   4.161   3.918 -0.3145  0.4111 -0.7741
 6481SOL    HW119694   2.463   4.066   3.902 -0.6417  0.3508 -0.5401
 6481SOL    HW219695   2.472   4.169   4.013 -0.2385  0.5987 -0.8026
 6482SOL     OW19696   5.933   2.573   1.922  0.7152 -0.3363 -0.0660
 6482SOL    HW119697   5.994   2.519   1.972 -0.5011 -0.5069  1.2914
 6482SOL    HW219698   5.941   2.542   1.832  3.0905  0.0967 -0.0666
 6483SOL     OW19699   0.185   2.268   5.560 -0.0013 -0.2646  0.4533
 6483SOL    HW119700   0.278   2.247   5.563  0.2822  1.0161  1.6796
 6483SOL    HW219701   0.182   2.361   5.540 -0.7715  0.8359  4.8034
 6484SOL     OW19702   1.084   0.341   5.163 -0.0771 -0.0904 -0.5807
 6484SOL    HW119703   1.149   0.324   5.095 -1.1988 -0.6424 -1.5473
 6484SOL    HW219704   1.009   0.289   5.138  0.1752 -2.0488  2.2629
 6485SOL     OW19705   1.430   3.841   5.356 -0.0739 -0.0602 -0.3604
 6485SOL    HW119706   1.474   3.758   5.376 -0.0877 -0.1091 -0.5293
 6485SOL    HW219707   1.501   3.900   5.329 -0.1128 -0.1489 -0.6646
 6486SOL     OW19708   4.652   1.847   3.670 -0.0396  0.2755 -0.5421
 6486SOL    HW119709   4.710   1.903   3.721  0.7678 -0.2263 -0.8854
 6486SOL    HW219710   4.574   1.836   3.725  0.0357  1.2552 -0.2352
 6487SOL     OW19711   3.178   4.283   4.571 -0.1658  0.2624  0.0815
 6487SOL    HW119712   3.136   4.197   4.568  1.3012 -0.4771 -0.1409
 6487SOL    HW219713   3.246   4.279   4.503  0.0720  1.5235  0.2150
 6488SOL     OW19714   0.297   6.047   1.085  0.5814 -0.2997 -0.1884
 6488SOL    HW119715   0.302   6.056   0.989 -0.4900 -1.3375 -0.3676
 6488SOL    HW219716   0.241   6.119   1.113  0.2679 -0.4398 -0.4425
 6489SOL     OW19717   0.530   0.767   5.872 -0.2593 -0.2362  0.4531
 6489SOL    HW119718   0.599   0.701   5.878 -1.0318 -1.3273 -1.4815
 6489SOL    HW219719   0.575   0.848   5.850  0.3906 -1.3878 -3.2209
 6490SOL     OW19720   5.246   1.308   4.293  0.2742 -0.1216  0.0449
 6490SOL    HW119721   5.210   1.393   4.317  0.8315 -0.2771  1.5800
 6490SOL    HW219722   5.336   1.310   4.325  0.8181 -0.6982 -1.3718
 6491SOL     OW19723   6.007   3.660   4.501  0.8063 -0.2204  0.2511
 6491SOL    HW119724   6.075   3.647   4.435  1.1903 -2.1671  0.9668
 6491SOL    HW219725   5.926   3.634   4.456  0.9954 -1.0135  0.3421
 6492SOL     OW19726   4.944   3.679   0.715  0.0922 -0.4938 -0.7308
 6492SOL    HW119727   4.979   3.768   0.709  0.8708 -0.7435 -0.0773
 6492SOL    HW219728   5.020   3.624   0.735 -0.3895 -1.3023 -1.0320
 6493SOL     OW19729   5.315   3.095   0.544 -0.2545 -0.2557  0.1160
 6493SOL    HW119730   5.355   3.019   0.502 -0.7336  0.0486 -0.9161
 6493SOL    HW219731   5.235   3.111   0.494  0.7044  2.0034 -0.8505
 6494SOL     OW19732   5.454   1.638   0.820  0.1606  0.3671  0.2910
 6494SOL    HW119733   5.394   1.563   0.813 -1.0807  1.4739 -2.0820
 6494SOL    HW219734   5.402   1.707   0.861  0.1987  0.9434 -0.6056
 6495SOL     OW19735   0.481   0.837   3.243  0.2552 -0.3227 -0.2720
 6495SOL    HW119736   0.428   0.911   3.213 -1.3610 -1.4850 -0.4381
 6495SOL    HW219737   0.445   0.762   3.196  1.5515 -1.2851  0.2336
 6496SOL     OW19738   1.561   1.466   3.631 -0.0860 -0.0667  0.2841
 6496SOL    HW119739   1.594   1.436   3.546  1.3189  0.4715  0.6102
 6496SOL    HW219740   1.494   1.403   3.655 -0.3211 -0.3770 -1.1034
 6497SOL     OW19741   6.158   1.904   2.831  0.4264 -0.2104  0.3250
 6497SOL    HW119742   6.113   1.820   2.826  1.9062 -1.0704  0.8318
 6497SOL    HW219743   6.110   1.954   2.898 -1.1478 -0.1677 -0.7663
 6498SOL     OW19744   0.187   4.551   2.452  0.4895 -0.7490  0.4106
 6498SOL    HW119745   0.174   4.636   2.495  2.1758 -1.3269  2.2427
 6498SOL    HW219746   0.244   4.570   2.378 -0.4093 -0.0929 -0.1371
 6499SOL     OW19747   1.270   4.302   0.460 -0.6904 -0.0214  0.0363
 6499SOL    HW119748   1.297   4.323   0.371 -0.8909  0.1049  0.0048
 6499SOL    HW219749   1.251   4.208   0.458  1.0026 -0.3960  0.3780
 6500SOL     OW19750   3.995   4.943   5.867  0.3716 -0.4904 -0.7560
 6500SOL    HW119751   4.019   5.023   5.820 -0.6785 -0.3534 -1.0661
 6500SOL    HW219752   3.902   4.952   5.887  0.8742 -0.2926  1.8829
 6501SOL     OW19753   5.908   5.130   0.408  0.1961  0.3227  0.4078
 6501SOL    HW119754   5.864   5.152   0.326  0.4011  0.9210  0.4489
 6501SOL    HW219755   5.998   5.111   0.383  0.2706  0.5546  0.4980
 6502SOL     OW19756   3.872   4.538   1.886  0.3861 -0.0022 -0.2067
 6502SOL    HW119757   3.806   4.493   1.939 -1.9988 -0.4900 -3.2901
 6502SOL    HW219758   3.931   4.468   1.858  0.6757 -0.0121  0.3978
 6503SOL     OW19759   1.636   2.140   5.813 -0.0424  0.7912  0.1649
 6503SOL    HW119760   1.568   2.207   5.805 -0.1351  0.4884 -3.3062
 6503SOL    HW219761   1.588   2.059   5.832 -0.4201  0.9604 -0.0467
 6504SOL     OW19762   4.742   5.453   2.196 -0.7262  0.1518  0.5771
 6504SOL    HW119763   4.724   5.546   2.182 -0.5705  0.1617  0.4513
 6504SOL    HW219764   4.662   5.420   2.238 -0.7203  0.3762  0.7714
 6505SOL     OW19765   5.398   3.469   3.399  0.0177  0.4914 -0.2829
 6505SOL    HW119766   5.328   3.532   3.409  0.2908  0.6315  0.8768
 6505SOL    HW219767   5.401   3.422   3.482  1.4499  0.6629 -0.2037
 6506SOL     OW19768   4.480   2.696   2.021 -0.1225  0.2757 -0.4121
 6506SOL    HW119769   4.400   2.664   1.980 -0.3906  1.6705 -1.0217
 6506SOL    HW219770   4.520   2.752   1.955  1.0697  0.0584  0.0980
 6507SOL     OW19771   4.106   0.905   5.924 -0.0491 -0.5322 -0.4672
 6507SOL    HW119772   4.162   0.924   5.999  0.0166 -1.8583 -0.1687
 6507SOL    HW219773   4.060   0.988   5.908  2.2453  0.7356 -0.9822
 6508SOL     OW19774   5.691   2.274   3.299  0.2880 -0.2069 -0.0509
 6508SOL    HW119775   5.649   2.359   3.314 -0.9663 -1.0707  1.8621
 6508SOL    HW219776   5.772   2.278   3.350 -1.2355 -1.1169  2.7002
 6509SOL     OW19777   2.480   3.950   2.321  0.4515  0.3201  0.1962
 6509SOL    HW119778   2.555   3.905   2.283 -0.1134 -0.6876  0.2372
 6509SOL    HW219779   2.516   4.029   2.361  1.3743  0.2231 -0.4378
 6510SOL     OW19780   1.137   2.769   4.714 -0.2096  0.0762 -0.5853
 6510SOL    HW119781   1.210   2.831   4.714  0.6976 -0.9289  1.0541
 6510SOL    HW219782   1.174   2.688   4.679 -0.5183 -0.4652  0.3166
 6511SOL     OW19783   2.532   4.499   1.344  0.1293  0.1656 -0.3809
 6511SOL    HW119784   2.598   4.433   1.325  0.6103 -0.1135  1.8938
 6511SOL    HW219785   2.451   4.464   1.308  0.5653 -1.2372 -0.0548
 6512SOL     OW19786   6.185   1.802   6.008 -0.1788  0.3575 -0.0760
 6512SOL    HW119787   6.199   1.893   6.034 -0.1732 -0.3458  2.5957
 6512SOL    HW219788   6.093   1.798   5.982 -1.1003  0.5432  2.8215
 6513SOL     OW19789   3.823   2.814   1.465  0.4883 -0.1810 -0.1101
 6513SOL    HW119790   3.774   2.740   1.498 -0.4444  1.0190  1.3240
 6513SOL    HW219791   3.779   2.839   1.384 -0.3838 -0.0126  0.4106
 6514SOL     OW19792   5.076   3.759   5.692  0.2312 -0.4018  0.3357
 6514SOL    HW119793   5.146   3.819   5.664  0.8229 -1.9349 -1.7816
 6514SOL    HW219794   5.001   3.815   5.708  0.9884  1.0091 -0.7976
 6515SOL     OW19795   2.192   3.911   2.930  0.0328  0.2068  0.0820
 6515SOL    HW119796   2.252   3.982   2.911  1.1612 -0.9461 -0.8183
 6515SOL    HW219797   2.109   3.936   2.889  0.2226  1.2699  0.3394
 6516SOL     OW19798   4.645   4.157   1.239 -0.1649  0.4274 -0.3078
 6516SOL    HW119799   4.636   4.062   1.232  0.1776  0.3924 -0.2917
 6516SOL    HW219800   4.691   4.171   1.321 -1.8252  0.7068  0.6111
 6517SOL     OW19801   2.614   5.255   3.308 -0.7192  0.3875 -0.3079
 6517SOL    HW119802   2.682   5.310   3.346 -0.9156  0.5358 -0.1668
 6517SOL    HW219803   2.609   5.179   3.367 -0.1907  0.0376 -0.7096
 6518SOL     OW19804   4.752   0.450   4.942  0.2980  0.1875 -0.5497
 6518SOL    HW119805   4.741   0.356   4.925 -1.0583  0.3533 -0.6909
 6518SOL    HW219806   4.833   0.473   4.897  2.3477 -1.5080  1.9331
 6519SOL     OW19807   2.786   4.376   0.551  0.5066 -0.0980 -0.6588
 6519SOL    HW119808   2.858   4.314   0.540  0.1951 -0.3484 -1.3287
 6519SOL    HW219809   2.808   4.450   0.495 -0.1988 -0.5809 -1.5984
 6520SOL     OW19810   2.249   2.391   1.284  0.0569  0.3118 -0.1775
 6520SOL    HW119811   2.266   2.435   1.367 -3.3297 -0.5777  1.1319
 6520SOL    HW219812   2.270   2.299   1.301 -1.9557 -0.1096  0.2054
 6521SOL     OW19813   3.023   0.522   2.934  0.4538 -0.0525 -0.5751
 6521SOL    HW119814   2.994   0.609   2.908  0.9085 -0.1774 -1.5145
 6521SOL    HW219815   3.116   0.533   2.956  0.0244  0.1169  1.3520
 6522SOL     OW19816   1.082   3.885   4.304  0.0565 -0.0176  1.0332
 6522SOL    HW119817   1.027   3.952   4.343 -2.7146 -0.3533 -1.8256
 6522SOL    HW219818   1.100   3.917   4.216  3.7055 -0.4727  1.4607
 6523SOL     OW19819   4.087   0.912   2.486 -0.1674  0.4690  0.3635
 6523SOL    HW119820   4.012   0.967   2.510 -1.0319 -1.6012  2.8631
 6523SOL    HW219821   4.048   0.828   2.462  1.1778 -1.8273  4.9573
 6524SOL     OW19822   1.260   4.326   4.222 -0.4729  0.5956 -0.2534
 6524SOL    HW119823   1.236   4.322   4.315 -0.8354 -0.0997 -0.3723
 6524SOL    HW219824   1.214   4.252   4.182 -1.8113  1.9366 -1.3258
 6525SOL     OW19825   4.771   5.687   3.793  0.3408 -0.5770 -0.3114
 6525SOL    HW119826   4.682   5.657   3.777 -0.3232  0.1457  1.6747
 6525SOL    HW219827   4.763   5.781   3.805  1.2093 -0.6067  0.7336
 6526SOL     OW19828   4.448   0.483   0.855 -0.1554  0.0274  0.5022
 6526SOL    HW119829   4.361   0.520   0.871  0.5035  1.0906  1.8896
 6526SOL    HW219830   4.502   0.516   0.928  1.2457 -1.1551  0.0545
 6527SOL     OW19831   2.407   3.398   2.132 -0.2971 -0.3106 -0.4288
 6527SOL    HW119832   2.395   3.486   2.097 -0.7099 -1.2363 -2.7468
 6527SOL    HW219833   2.325   3.353   2.114  0.3045 -1.5101 -0.2724
 6528SOL     OW19834   0.165   1.331   6.192  0.3339  0.5293  0.2701
 6528SOL    HW119835   0.249   1.350   6.235  0.7989 -1.9039  0.5551
 6528SOL    HW219836   0.164   1.389   6.115  1.1921  2.2491  1.4855
 6529SOL     OW19837   1.081   3.886   5.577  0.3811  0.0290 -0.1636
 6529SOL    HW119838   1.066   3.880   5.482  2.4584 -1.0952 -0.4864
 6529SOL    HW219839   0.993   3.891   5.615 -0.5122  0.3345 -2.1190
 6530SOL     OW19840   3.785   4.321   3.031  0.4428 -0.2478 -0.6454
 6530SOL    HW119841   3.749   4.287   2.949 -0.4967 -2.1327  0.4862
 6530SOL    HW219842   3.845   4.253   3.061  0.7564  0.4035  0.2563
 6531SOL     OW19843   0.450   4.181   3.964 -0.6450  0.2688  0.4982
 6531SOL    HW119844   0.400   4.127   3.902 -0.7339  0.3425  0.5046
 6531SOL    HW219845   0.416   4.157   4.050  1.2378 -1.7108  0.7680
 6532SOL     OW19846   1.020   6.248   4.522 -0.6324  0.4904 -0.6774
 6532SOL    HW119847   0.935   6.292   4.512 -0.0775  1.8807  0.4243
 6532SOL    HW219848   1.020   6.215   4.611  0.4448  1.5901 -0.2398
 6533SOL     OW19849   1.473   2.601   4.848 -0.1372 -0.2043  0.7198
 6533SOL    HW119850   1.492   2.560   4.932  2.1621 -0.4493  0.1394
 6533SOL    HW219851   1.418   2.537   4.803  0.1444 -0.8951  1.3334
 6534SOL     OW19852   5.551   6.087   3.338  0.2324 -0.0928 -0.3660
 6534SOL    HW119853   5.553   6.081   3.243  0.4784  0.0071 -0.3661
 6534SOL    HW219854   5.597   6.168   3.358  0.4983 -0.3008 -0.1391
 6535SOL     OW19855   0.169   2.579   0.120  0.4099  0.1889  0.4195
 6535SOL    HW119856   0.214   2.581   0.205 -2.1176 -0.4623  1.8811
 6535SOL    HW219857   0.174   2.487   0.093  3.1070  0.7314 -1.3542
 6536SOL     OW19858   4.757   1.667   5.903 -0.0435 -0.1406 -0.3837
 6536SOL    HW119859   4.752   1.609   5.827 -1.0985 -0.6152  0.0257
 6536SOL    HW219860   4.767   1.755   5.866 -1.2377 -0.2852 -1.1043
 6537SOL     OW19861   2.773   3.415   2.561  0.2405 -0.2953  0.0448
 6537SOL    HW119862   2.785   3.504   2.594 -0.7040  0.2377 -0.9840
 6537SOL    HW219863   2.859   3.374   2.569  0.9761  1.0811 -0.5064
 6538SOL     OW19864   3.179   6.192   1.363 -0.7168  0.2831  0.2977
 6538SOL    HW119865   3.195   6.117   1.420  0.5682  0.5147  0.2801
 6538SOL    HW219866   3.084   6.192   1.349 -1.0716  0.2545  2.4532
 6539SOL     OW19867   6.018   2.157   0.012  0.0592  0.0272  0.1093
 6539SOL    HW119868   5.977   2.106   0.082 -2.4269  0.8304 -0.6602
 6539SOL    HW219869   6.047   2.092  -0.052 -0.3200 -0.5623  0.5323
 6540SOL     OW19870   2.809   0.134   1.739  0.3482 -0.4173  0.3634
 6540SOL    HW119871   2.889   0.152   1.789  1.8987 -1.8026 -1.4475
 6540SOL    HW219872   2.803   0.206   1.677 -0.2420  0.0562  0.9546
 6541SOL     OW19873   2.859   5.902   0.194 -0.0198 -0.2772 -0.2104
 6541SOL    HW119874   2.935   5.915   0.252  0.3823  0.6848 -0.9172
 6541SOL    HW219875   2.820   5.989   0.186  0.5794 -0.1393 -2.2350
 6542SOL     OW19876   2.993   4.846   6.000  0.1054  0.0766  0.0265
 6542SOL    HW119877   3.005   4.909   5.930 -1.8103 -0.1361 -0.5405
 6542SOL    HW219878   3.045   4.770   5.973  2.1691  1.2212  0.5672
 6543SOL     OW19879   4.099   5.634   2.947  0.4797 -0.7447 -0.1314
 6543SOL    HW119880   4.073   5.599   3.032  1.0043  0.2504  0.4568
 6543SOL    HW219881   4.190   5.661   2.959  0.1648  0.5977 -0.6144
 6544SOL     OW19882   0.726   4.131   0.934  0.1802  0.3446  0.5698
 6544SOL    HW119883   0.770   4.142   0.850  0.4026  0.9604  0.7562
 6544SOL    HW219884   0.696   4.040   0.935 -4.7851  1.5337 -2.5705
 6545SOL     OW19885   0.669   1.087   4.350  0.0565 -0.5021  0.7167
 6545SOL    HW119886   0.741   1.032   4.319  1.1825  0.3583  1.7139
 6545SOL    HW219887   0.712   1.159   4.397 -1.3873  0.9054 -0.0100
 6546SOL     OW19888   5.802   6.334   1.094 -0.3746  0.0474 -0.2604
 6546SOL    HW119889   5.716   6.369   1.117 -0.6178 -0.2866 -0.6429
 6546SOL    HW219890   5.843   6.403   1.042 -0.2860  0.3282  0.1721
 6547SOL     OW19891   4.265   2.786   2.661  0.3022 -0.4403  0.5193
 6547SOL    HW119892   4.252   2.701   2.703  0.1905 -0.9101 -0.4418
 6547SOL    HW219893   4.348   2.777   2.613 -0.1053 -0.2838 -0.2299
 6548SOL     OW19894   6.166   0.226   5.286  0.3497  0.9510  0.2625
 6548SOL    HW119895   6.191   0.319   5.283  0.9116  0.8544  1.2914
 6548SOL    HW219896   6.174   0.203   5.379 -0.9558  0.1818  0.2044
 6549SOL     OW19897   3.095   3.466   5.935  0.2149  0.2579  0.3159
 6549SOL    HW119898   3.050   3.473   6.019 -1.1449 -2.2405 -0.1090
 6549SOL    HW219899   3.026   3.443   5.872  1.6779 -1.1430 -0.8561
 6550SOL     OW19900   0.790   0.565   1.010  0.0118 -0.0169  0.2536
 6550SOL    HW119901   0.881   0.562   1.037 -0.3906 -3.6612  1.6957
 6550SOL    HW219902   0.740   0.568   1.091 -1.2200  0.9088 -0.4839
 6551SOL     OW19903   5.624   1.929   5.160  0.1774 -0.3837  0.0425
 6551SOL    HW119904   5.604   2.022   5.148  0.7075 -0.4069 -1.0849
 6551SOL    HW219905   5.718   1.922   5.144  0.4016 -0.9199  1.4430
 6552SOL     OW19906   5.987   0.944   1.737 -0.8751  0.5851  0.0987
 6552SOL    HW119907   6.035   0.871   1.774  0.1057  0.8840 -0.5385
 6552SOL    HW219908   5.962   0.998   1.812 -1.5897 -0.3805  0.5657
 6553SOL     OW19909   3.642   5.081   4.571 -0.3939 -0.0764  0.1733
 6553SOL    HW119910   3.726   5.094   4.526  0.0869 -0.4976  0.9406
 6553SOL    HW219911   3.577   5.112   4.508  0.3479  0.4878 -0.3386
 6554SOL     OW19912   2.899   1.278   4.110  0.3171  0.2147 -0.2257
 6554SOL    HW119913   2.831   1.241   4.167  0.5306 -0.8306 -0.6219
 6554SOL    HW219914   2.859   1.357   4.074 -1.2314 -1.0625 -1.5013
 6555SOL     OW19915   3.506   5.216   4.360  0.0812 -0.8815  0.5202
 6555SOL    HW119916   3.596   5.235   4.335 -0.2200 -0.2190 -0.0853
 6555SOL    HW219917   3.467   5.175   4.283 -0.5946  0.3433  0.1855
 6556SOL     OW19918   5.648   5.703   4.105  0.1319 -0.6264 -0.2272
 6556SOL    HW119919   5.603   5.730   4.185  0.3558 -1.3142  0.1358
 6556SOL    HW219920   5.578   5.688   4.041  0.0182  1.5451 -0.7030
 6557SOL     OW19921   3.809   5.822   3.914  0.3556  0.3961 -0.0410
 6557SOL    HW119922   3.882   5.806   3.855  0.2349 -0.7342  0.0900
 6557SOL    HW219923   3.766   5.900   3.879  2.8378  2.4030  1.0825
 6558SOL     OW19924   1.309   1.028   0.506 -0.8719  0.0929 -0.7008
 6558SOL    HW119925   1.316   0.957   0.570 -0.0169  0.9208  0.1727
 6558SOL    HW219926   1.240   1.084   0.540 -0.2822  0.6371 -0.3776
 6559SOL     OW19927   5.280   6.186   3.804  0.3041 -0.4519 -0.1173
 6559SOL    HW119928   5.263   6.273   3.841  2.7450  0.8796 -1.7795
 6559SOL    HW219929   5.206   6.170   3.746 -1.3829 -0.6444  1.9714
 6560SOL     OW19930   4.729   3.223   4.397  0.9590 -0.1299 -0.5307
 6560SOL    HW119931   4.680   3.203   4.477  0.2105  1.2140 -0.6325
 6560SOL    HW219932   4.814   3.253   4.427  1.0483 -0.6182 -0.2843
 6561SOL     OW19933   2.800   5.707   6.195  0.0074 -0.0518 -0.5636
 6561SOL    HW119934   2.761   5.713   6.283  0.4507 -0.7429 -0.3165
 6561SOL    HW219935   2.891   5.735   6.207 -0.6223  2.6889 -1.3446
 6562SOL     OW19936   5.871   5.487   6.228  0.1610 -0.2049  0.4188
 6562SOL    HW119937   5.789   5.503   6.274  0.2245  0.3181  0.3560
 6562SOL    HW219938   5.847   5.482   6.136  0.0852 -0.9001  0.4663
 6563SOL     OW19939   4.222   0.906   5.262 -0.2194 -0.1896 -0.6567
 6563SOL    HW119940   4.155   0.842   5.286  1.2239 -1.2630  0.7195
 6563SOL    HW219941   4.199   0.985   5.311  0.2708 -1.0035  0.9448
 6564SOL     OW19942   3.997   0.887   6.324 -0.1820 -0.4392 -0.1935
 6564SOL    HW119943   4.039   0.832   6.257  0.1014  0.9838 -1.2245
 6564SOL    HW219944   4.006   0.976   6.291 -3.4416  0.0417 -0.1577
 6565SOL     OW19945   5.697   0.959   4.227 -0.4090 -0.0026  0.0578
 6565SOL    HW119946   5.690   1.054   4.232  0.7144  0.0722  0.4807
 6565SOL    HW219947   5.791   0.942   4.219 -0.6858 -0.9988 -1.9553
 6566SOL     OW19948   3.390   4.203   0.609  0.2904 -0.2124  0.4853
 6566SOL    HW119949   3.423   4.113   0.606  0.5481 -0.1503  1.2760
 6566SOL    HW219950   3.296   4.195   0.596  0.4610 -0.4826 -0.7419
 6567SOL     OW19951   0.303   5.430   5.245  0.0977  0.3518 -0.0813
 6567SOL    HW119952   0.333   5.369   5.177  1.4701 -0.5746  1.3016
 6567SOL    HW219953   0.351   5.511   5.228  2.6895 -0.7605  1.4133
 6568SOL     OW19954   2.001   3.105   0.687  0.5412 -0.2473 -0.0635
 6568SOL    HW119955   1.970   3.018   0.665 -0.6149 -0.1919  1.1861
 6568SOL    HW219956   2.057   3.131   0.614 -0.6746 -1.2381 -1.3832
 6569SOL     OW19957   4.347   4.094   3.251 -0.4484  0.5314  0.2151
 6569SOL    HW119958   4.343   4.135   3.164 -1.2197 -0.2001 -0.1079
 6569SOL    HW219959   4.274   4.032   3.252  1.1110 -1.3988  0.3986
 6570SOL     OW19960   1.555   5.162   5.646  0.7381 -0.1628 -0.2908
 6570SOL    HW119961   1.573   5.068   5.649 -0.6888 -0.4595 -0.6078
 6570SOL    HW219962   1.576   5.193   5.735  1.8007 -0.6429 -0.3521
 6571SOL     OW19963   3.457   4.250   4.159 -0.7892 -0.1638  0.3084
 6571SOL    HW119964   3.380   4.260   4.102 -1.0497 -0.3919  0.6179
 6571SOL    HW219965   3.487   4.339   4.174 -0.6110 -0.1080 -0.3340
 6572SOL     OW19966   1.016   1.772   5.276  0.2215 -0.7262  0.1292
 6572SOL    HW119967   0.973   1.734   5.353 -0.7838  1.3357  0.6571
 6572SOL    HW219968   1.108   1.779   5.301  0.3708 -2.3785  0.1511
 6573SOL     OW19969   4.065   4.155   4.679  0.0180 -0.4676 -0.0525
 6573SOL    HW119970   4.092   4.093   4.611 -0.7364 -0.8848  0.0261
 6573SOL    HW219971   4.146   4.174   4.727  0.5167 -0.3513 -0.9056
 6574SOL     OW19972   6.147   4.717   4.636 -0.4348 -0.7006 -0.7369
 6574SOL    HW119973   6.194   4.636   4.656  0.9734  0.1848 -0.2321
 6574SOL    HW219974   6.201   4.786   4.677 -2.1278  0.3909 -0.2545
 6575SOL     OW19975   0.249   0.090   1.196 -0.1218  0.2784 -0.2296
 6575SOL    HW119976   0.181   0.032   1.162  1.7807 -1.4951 -1.2099
 6575SOL    HW219977   0.304   0.110   1.120  0.8948  1.0776  0.6801
 6576SOL     OW19978   5.703   4.539   2.633  0.0646 -0.0973 -0.1362
 6576SOL    HW119979   5.699   4.627   2.671  0.8627  0.3341 -0.9905
 6576SOL    HW219980   5.796   4.525   2.616 -0.2788  0.0190 -2.4738
 6577SOL     OW19981   2.808   0.351   2.839  0.0536  0.3043  0.0269
 6577SOL    HW119982   2.877   0.396   2.888 -0.9972  0.0184  1.8790
 6577SOL    HW219983   2.763   0.422   2.793  1.1439  0.5728 -0.6555
 6578SOL     OW19984   6.324   5.529   0.958  0.4631  0.0479  0.2082
 6578SOL    HW119985   6.311   5.547   1.051  0.2555  1.8007 -0.1336
 6578SOL    HW219986   6.376   5.603   0.926  0.6776 -0.6170 -1.0415
 6579SOL     OW19987   0.279   2.248   4.968 -0.2284  0.7636  0.4556
 6579SOL    HW119988   0.243   2.195   5.039 -0.5398  1.3890  0.7732
 6579SOL    HW219989   0.297   2.186   4.897 -0.4971  0.2284  0.8560
 6580SOL     OW19990   6.198   2.353   3.859  0.8249 -0.3789  0.3863
 6580SOL    HW119991   6.239   2.316   3.781  0.0417 -0.4118 -0.0106
 6580SOL    HW219992   6.121   2.299   3.874  0.1610  0.5402  0.3203
 6581SOL     OW19993   5.114   6.169   1.663  0.2124 -0.3359 -0.0752
 6581SOL    HW119994   5.206   6.194   1.673  0.0668 -0.4034  1.8080
 6581SOL    HW219995   5.117   6.087   1.614  1.1701 -0.3445 -0.0218
 6582SOL     OW19996   4.859   5.034   3.041 -0.1056  0.1217  0.0516
 6582SOL    HW119997   4.907   5.007   3.120 -1.5321 -3.4530 -0.0920
 6582SOL    HW219998   4.773   5.060   3.073 -0.2907 -0.1505 -0.2214
 6583SOL     OW19999   2.964   4.640   2.219  0.2937 -0.2492 -0.5172
 6583SOL    HW120000   2.972   4.597   2.304 -0.7899 -0.8904 -0.7243
 6583SOL    HW220001   3.004   4.579   2.158  0.5500 -0.0471 -0.5559
 6584SOL     OW20002   0.309   3.612   3.108  0.6000  0.1581 -0.4738
 6584SOL    HW120003   0.319   3.680   3.175 -1.5653  1.7544 -1.6209
 6584SOL    HW220004   0.219   3.581   3.119  0.4502 -0.0798 -2.0989
 6585SOL     OW20005   2.314   3.613   5.368  0.6751  0.2677 -0.2271
 6585SOL    HW120006   2.324   3.635   5.461  2.1894 -0.0049 -0.2956
 6585SOL    HW220007   2.319   3.517   5.366  0.5703  0.2692 -0.5851
 6586SOL     OW20008   1.614   5.848   1.375 -0.0428  0.0692  0.6873
 6586SOL    HW120009   1.572   5.924   1.334 -1.4327 -0.1509  1.6331
 6586SOL    HW220010   1.705   5.876   1.390 -0.0004  0.8161 -0.7539
 6587SOL     OW20011   5.717   3.834   0.808 -0.2139 -0.0778  0.0795
 6587SOL    HW120012   5.710   3.896   0.735 -0.8446 -0.9466 -0.6170
 6587SOL    HW220013   5.790   3.777   0.784 -0.3739 -0.3171  0.1641
 6588SOL     OW20014   0.978   4.722   5.820  0.4385 -0.3037 -0.2361
 6588SOL    HW120015   1.011   4.795   5.768  1.4628 -0.3905  0.2880
 6588SOL    HW220016   0.915   4.762   5.880  0.0184 -0.0542 -0.8264
 6589SOL     OW20017   4.086   1.765   0.644  0.0118 -0.1754 -0.6532
 6589SOL    HW120018   4.134   1.760   0.562  1.8513  1.5408  0.2287
 6589SOL    HW220019   4.130   1.703   0.702 -0.1751 -0.1104 -0.4389
 6590SOL     OW20020   3.429   3.973   5.411 -0.4987 -0.0867 -0.1428
 6590SOL    HW120021   3.473   3.894   5.378  0.2697  0.3457 -0.1659
 6590SOL    HW220022   3.356   3.986   5.351 -0.3614 -0.5227 -0.4097
 6591SOL     OW20023   1.219   0.742   3.498  0.9627 -0.0059 -0.0671
 6591SOL    HW120024   1.172   0.667   3.462 -0.1049  1.7473 -2.6198
 6591SOL    HW220025   1.185   0.751   3.587 -0.3645 -1.3258 -0.3919
 6592SOL     OW20026   4.551   2.260   2.816  0.1563 -0.0559 -0.3407
 6592SOL    HW120027   4.512   2.337   2.858 -0.7308 -0.9837  0.5903
 6592SOL    HW220028   4.638   2.289   2.788 -0.5460  1.5701 -0.9382
 6593SOL     OW20029   4.430   2.454   3.514 -0.3187 -0.5812 -0.4401
 6593SOL    HW120030   4.410   2.361   3.503 -4.2364  0.0848 -0.5582
 6593SOL    HW220031   4.418   2.470   3.608 -0.3601 -0.1065 -0.5225
 6594SOL     OW20032   4.401   5.039   4.365 -0.2556  0.3549  0.6032
 6594SOL    HW120033   4.321   4.996   4.334  0.4477  1.5026 -3.2781
 6594SOL    HW220034   4.452   4.969   4.406 -1.5123 -1.2902 -0.4941
 6595SOL     OW20035   1.990   1.655   1.945  0.2021 -0.3060 -0.1603
 6595SOL    HW120036   1.915   1.713   1.960  2.0838  2.5863 -1.0440
 6595SOL    HW220037   1.988   1.593   2.018 -1.9086  0.9274  0.9174
 6596SOL     OW20038   1.258   1.272   5.296 -0.2196  0.0520  0.2777
 6596SOL    HW120039   1.250   1.268   5.201 -1.9481 -2.3669  0.4140
 6596SOL    HW220040   1.351   1.261   5.313 -0.0003 -0.5052 -1.1234
 6597SOL     OW20041   4.240   2.710   3.634  0.2149 -0.4991 -0.0463
 6597SOL    HW120042   4.175   2.667   3.689 -0.1035  1.2767  1.0119
 6597SOL    HW220043   4.304   2.745   3.696  1.3952 -0.9218 -0.9916
 6598SOL     OW20044   4.313   5.363   1.875 -0.0815 -0.5028 -0.1441
 6598SOL    HW120045   4.282   5.299   1.939  0.9662 -2.5394 -1.5486
 6598SOL    HW220046   4.351   5.310   1.805  0.1291  1.6651 -1.7786
 6599SOL     OW20047   5.319   3.419   0.988 -0.4618 -0.0176 -0.1862
 6599SOL    HW120048   5.399   3.471   0.991 -0.1469 -0.5195  2.8415
 6599SOL    HW220049   5.344   3.333   1.022 -1.8160 -0.9239 -1.3525
 6600SOL     OW20050   5.598   4.485   6.336  0.4177 -0.1206  0.3073
 6600SOL    HW120051   5.577   4.556   6.397 -0.4165  1.9230 -2.1477
 6600SOL    HW220052   5.663   4.523   6.277 -0.6065 -1.0771 -1.5326
 6601SOL     OW20053   4.194   0.777   4.548  0.6174  0.1532  0.1886
 6601SOL    HW120054   4.152   0.830   4.616  1.8166  0.8744  0.3821
 6601SOL    HW220055   4.121   0.747   4.494 -0.0627  3.1059 -0.7272
 6602SOL     OW20056   3.151   0.623   1.026 -0.4398 -0.3068  0.2955
 6602SOL    HW120057   3.217   0.608   1.094  0.3882  0.5089 -0.3132
 6602SOL    HW220058   3.197   0.609   0.944 -0.4086  2.4006 -0.2337
 6603SOL     OW20059   3.094   4.015   2.070 -0.0620 -0.0050 -0.8274
 6603SOL    HW120060   3.108   4.085   2.005 -0.0324  0.6323 -0.1499
 6603SOL    HW220061   3.117   3.935   2.023 -3.0664  0.0565 -2.6470
 6604SOL     OW20062   2.823   2.009   3.077  0.1044 -0.2454  0.0083
 6604SOL    HW120063   2.902   2.064   3.074 -1.4140  2.1957  1.2209
 6604SOL    HW220064   2.844   1.941   3.141  0.5945  1.5963  1.9417
 6605SOL     OW20065   1.416   0.974   5.051 -0.4066 -0.2205 -0.1714
 6605SOL    HW120066   1.331   0.981   5.008 -0.9921 -1.5414  0.6895
 6605SOL    HW220067   1.473   1.034   5.003 -1.6208  0.0953 -1.2633
 6606SOL     OW20068   5.756   0.034   4.323  0.3724  0.3934  0.2420
 6606SOL    HW120069   5.812   0.011   4.397 -0.7973  0.9706  1.3579
 6606SOL    HW220070   5.804   0.005   4.246  0.4665 -2.6981  1.3253
 6607SOL     OW20071   1.459   6.031   5.218 -0.1685  0.1042 -0.4143
 6607SOL    HW120072   1.533   6.054   5.274 -0.2230  0.1118 -0.3447
 6607SOL    HW220073   1.490   5.957   5.166  0.0950  0.5033 -0.8290
 6608SOL     OW20074   0.395   4.978   0.953 -0.3298  0.2740  0.9895
 6608SOL    HW120075   0.445   5.057   0.972 -0.1179  0.1290  1.0515
 6608SOL    HW220076   0.447   4.934   0.885 -0.7310  0.4594  0.5568
 6609SOL     OW20077   1.708   2.686   3.369 -0.0378  0.0010 -0.2264
 6609SOL    HW120078   1.648   2.684   3.294 -1.8270  1.7179  1.0389
 6609SOL    HW220079   1.707   2.596   3.402 -1.4396 -0.1781 -0.6551
 6610SOL     OW20080   1.083   6.326   4.102 -0.2135  0.3709  0.0720
 6610SOL    HW120081   1.028   6.386   4.051  0.6566 -0.2620 -1.6691
 6610SOL    HW220082   1.156   6.380   4.131 -0.9493  0.8464  1.0853
 6611SOL     OW20083   1.563   5.323   4.109 -0.5812 -0.3523  0.2600
 6611SOL    HW120084   1.613   5.244   4.091 -0.6453 -0.4195  0.3748
 6611SOL    HW220085   1.474   5.292   4.126 -0.6152 -0.2522  0.2678
 6612SOL     OW20086   4.996   3.943   0.766  0.4463 -0.0029 -0.0606
 6612SOL    HW120087   5.006   3.906   0.854  0.2407  2.2331  0.9895
 6612SOL    HW220088   5.085   3.950   0.732  1.0647  3.1702  1.8533
 6613SOL     OW20089   3.158   3.677   0.058  0.3522  0.1579 -0.6934
 6613SOL    HW120090   3.234   3.650   0.110 -0.0633 -0.7089 -0.5164
 6613SOL    HW220091   3.124   3.754   0.103  0.9266  0.3500 -0.5788
 6614SOL     OW20092   0.341   5.604   4.868 -0.4817 -0.8226 -0.9115
 6614SOL    HW120093   0.389   5.549   4.807  1.5231 -0.7390  0.5261
 6614SOL    HW220094   0.268   5.639   4.816 -0.1933 -2.5801 -2.5868
 6615SOL     OW20095   5.451   3.858   4.283  0.5594 -0.5037  0.1126
 6615SOL    HW120096   5.498   3.866   4.366  0.4923 -0.4824  0.1488
 6615SOL    HW220097   5.453   3.946   4.245 -0.3583 -0.2462  0.6098
 6616SOL     OW20098   3.967   3.121   0.871  0.5730  0.0155 -0.0344
 6616SOL    HW120099   3.908   3.144   0.943  0.0825 -0.4793 -0.2717
 6616SOL    HW220100   3.954   3.190   0.806  0.4073  0.0126 -0.0030
 6617SOL     OW20101   3.160   5.961   1.543 -0.0545  0.5444  0.1956
 6617SOL    HW120102   3.155   5.888   1.604  0.5604  0.6956  0.4305
 6617SOL    HW220103   3.082   5.951   1.488  0.7793 -1.1678 -0.7649
 6618SOL     OW20104   3.082   1.682   4.019 -1.0643  0.1382  0.2480
 6618SOL    HW120105   3.150   1.694   4.085  0.9028 -1.6870 -1.3098
 6618SOL    HW220106   3.074   1.768   3.977  0.5247  0.3346  0.2814
 6619SOL     OW20107   4.899   4.429   3.741 -0.6385 -0.0467  0.0856
 6619SOL    HW120108   4.962   4.500   3.748  0.1168 -0.3002 -2.8131
 6619SOL    HW220109   4.814   4.470   3.754 -0.0424  0.6617  2.0680
 6620SOL     OW20110   2.645   2.359   4.921 -0.4023  0.2306  0.0451
 6620SOL    HW120111   2.688   2.384   5.003  0.0568 -0.0751 -0.0982
 6620SOL    HW220112   2.573   2.302   4.947  0.4049 -0.7653  0.1798
 6621SOL     OW20113   5.712   5.953   3.550 -0.0704  0.3863 -0.1783
 6621SOL    HW120114   5.668   6.014   3.609 -1.5864  0.7195 -1.6073
 6621SOL    HW220115   5.686   5.980   3.462 -0.0733 -1.7513 -0.9000
 6622SOL     OW20116   0.747   2.611   1.772 -0.5215 -0.0242  0.6106
 6622SOL    HW120117   0.778   2.520   1.769  0.4285  0.3052  0.1214
 6622SOL    HW220118   0.662   2.609   1.728  0.7001 -0.2145 -1.9112
 6623SOL     OW20119   0.875   0.161   5.074  0.7646 -0.2208 -0.4518
 6623SOL    HW120120   0.929   0.122   5.143  2.3182 -0.6473 -1.8446
 6623SOL    HW220121   0.814   0.091   5.050  0.7742 -0.3572 -0.0972
 6624SOL     OW20122   6.114   1.673   3.509  0.3308 -0.6942 -0.5569
 6624SOL    HW120123   6.094   1.595   3.457  0.5995 -1.0084 -0.2034
 6624SOL    HW220124   6.034   1.725   3.507  0.8561  0.1394 -2.6848
 6625SOL     OW20125   1.335   1.997   4.290 -0.0187  0.4246  0.6853
 6625SOL    HW120126   1.396   2.068   4.271 -0.3751  0.6667  0.4267
 6625SOL    HW220127   1.319   2.003   4.384  1.3191 -0.4234  0.9992
 6626SOL     OW20128   4.775   5.676   1.222 -0.4229  0.0153 -0.7352
 6626SOL    HW120129   4.806   5.708   1.138 -0.5197  0.1151 -0.7328
 6626SOL    HW220130   4.712   5.742   1.252 -0.2711  0.0608 -0.5117
 6627SOL     OW20131   2.687   0.488   4.769 -0.0782 -0.7207  0.0746
 6627SOL    HW120132   2.625   0.439   4.715 -1.1598  1.7170 -1.0691
 6627SOL    HW220133   2.633   0.526   4.839  0.0252  1.5214 -0.9932
 6628SOL     OW20134   3.690   1.919   3.946 -0.5033  0.1545  0.4273
 6628SOL    HW120135   3.759   1.979   3.915  0.7796 -0.7014  1.4878
 6628SOL    HW220136   3.634   1.905   3.869  1.2445 -0.1187 -0.8723
 6629SOL     OW20137   2.075   1.486   3.841  0.3667  0.5711 -0.1278
 6629SOL    HW120138   1.985   1.510   3.816  0.3829  1.6394  0.7710
 6629SOL    HW220139   2.064   1.420   3.909  0.2578  0.6085 -0.1083
 6630SOL     OW20140   3.120   1.008   4.492 -0.0067  0.5147 -0.4483
 6630SOL    HW120141   3.070   0.966   4.422 -0.3920  1.3287 -0.6646
 6630SOL    HW220142   3.167   0.936   4.533 -1.8539 -0.3773  0.1983
 6631SOL     OW20143   1.025   4.404   0.513 -0.2844 -0.2182 -0.3314
 6631SOL    HW120144   0.987   4.492   0.506 -0.1817  0.1521  2.4527
 6631SOL    HW220145   1.118   4.417   0.497  0.0659  0.6416  1.8894
 6632SOL     OW20146   3.395   1.362   1.758  0.2167 -0.2952  0.2039
 6632SOL    HW120147   3.362   1.369   1.668  2.8993 -1.1511 -0.9768
 6632SOL    HW220148   3.445   1.443   1.771  0.1458 -0.3451  0.7741
 6633SOL     OW20149   4.348   0.578   5.854  0.1776 -0.0115  0.0358
 6633SOL    HW120150   4.366   0.603   5.764  1.4556 -0.5424  0.1177
 6633SOL    HW220151   4.427   0.531   5.882 -1.1356 -1.9468  0.6770
 6634SOL     OW20152   1.891   0.278   0.190 -0.1564 -0.6036  1.0467
 6634SOL    HW120153   1.881   0.365   0.229  0.9108 -0.9081  2.0609
 6634SOL    HW220154   1.944   0.294   0.112  0.0123 -0.3300  1.2140
 6635SOL     OW20155   2.981   5.358   0.229  0.3687  0.0256  0.1742
 6635SOL    HW120156   2.962   5.343   0.322 -0.8013  1.3532  0.1843
 6635SOL    HW220157   2.985   5.454   0.221  1.2271 -0.0839 -1.0150
 6636SOL     OW20158   4.535   5.853   1.319 -0.3361  0.3895  0.3050
 6636SOL    HW120159   4.503   5.928   1.270 -0.2363  1.2252  1.4776
 6636SOL    HW220160   4.475   5.782   1.295 -2.2448  1.5620  1.3517
 6637SOL     OW20161   4.463   3.293   0.653 -0.1907  0.3626  0.3930
 6637SOL    HW120162   4.444   3.206   0.688 -0.6271  1.0600  1.9982
 6637SOL    HW220163   4.382   3.343   0.666 -0.3834  0.6782 -1.7087
 6638SOL     OW20164   4.498   3.289   0.041  0.0925  0.1298 -0.3329
 6638SOL    HW120165   4.589   3.275   0.016 -0.0678  0.3066 -1.0372
 6638SOL    HW220166   4.450   3.288  -0.042 -0.4343  0.8360 -0.0436
 6639SOL     OW20167   3.678   5.857   4.619  0.3136 -0.0520  0.1273
 6639SOL    HW120168   3.586   5.833   4.621  0.4643 -0.6200  1.1245
 6639SOL    HW220169   3.683   5.935   4.674  0.5361 -0.4695  0.7088
 6640SOL     OW20170   2.926   4.622   4.142  0.0485  0.2690 -0.2344
 6640SOL    HW120171   2.950   4.671   4.221  3.5080 -1.0734 -0.2700
 6640SOL    HW220172   2.930   4.686   4.071  3.3808  0.3707 -0.1238
 6641SOL     OW20173   2.392   1.212   0.284 -0.3916  0.2040 -0.2022
 6641SOL    HW120174   2.390   1.271   0.359  3.4817  1.5228 -0.9030
 6641SOL    HW220175   2.373   1.126   0.320  2.4884  0.5900  2.6654
 6642SOL     OW20176   1.460   0.723   0.797  0.4143 -0.0937  0.7027
 6642SOL    HW120177   1.476   0.635   0.829 -2.6225 -0.1879  2.3105
 6642SOL    HW220178   1.456   0.777   0.876  0.3557  1.1632 -0.1208
 6643SOL     OW20179   3.203   2.960   1.152  0.5462  0.1148 -0.7485
 6643SOL    HW120180   3.153   2.900   1.097  0.5659  1.1997 -1.9943
 6643SOL    HW220181   3.188   2.929   1.242 -0.2972 -1.0887 -1.2866
 6644SOL     OW20182   4.157   0.645   5.422  0.1679 -0.0192  0.1998
 6644SOL    HW120183   4.065   0.623   5.434  0.1819 -0.0242  0.2967
 6644SOL    HW220184   4.179   0.613   5.335 -0.0666  0.4565 -0.0391
 6645SOL     OW20185   1.895   1.622   2.720  0.0262 -0.1810  0.2196
 6645SOL    HW120186   1.847   1.540   2.729 -1.3708  0.2102 -2.5921
 6645SOL    HW220187   1.985   1.601   2.745 -0.9447 -1.6442  2.8919
 6646SOL     OW20188   5.062   2.031   1.301  0.2423  0.0781 -0.5588
 6646SOL    HW120189   5.038   2.077   1.221  2.6589 -1.0973 -2.0779
 6646SOL    HW220190   4.984   1.980   1.323 -1.3257  2.2891 -0.6723
 6647SOL     OW20191   5.080   2.144   1.705  0.1596  0.2475 -0.2571
 6647SOL    HW120192   4.992   2.112   1.723  0.1551  0.4876  0.1801
 6647SOL    HW220193   5.070   2.199   1.628  0.2623 -1.2042 -1.3556
 6648SOL     OW20194   5.421   5.902   5.550  0.1617 -0.5067 -0.5747
 6648SOL    HW120195   5.449   5.812   5.562  0.5666 -0.4470 -1.0290
 6648SOL    HW220196   5.383   5.927   5.634 -0.0865 -1.1437 -0.4932
 6649SOL     OW20197   1.826   1.483   5.801 -0.6522 -0.5428 -0.3781
 6649SOL    HW120198   1.734   1.503   5.821 -0.6236 -0.0757 -0.7133
 6649SOL    HW220199   1.829   1.478   5.706 -0.2457 -0.1737 -0.3843
 6650SOL     OW20200   1.860   2.126   5.154  0.0367 -0.1136  0.3165
 6650SOL    HW120201   1.780   2.178   5.160 -2.5096 -3.6646  0.4675
 6650SOL    HW220202   1.869   2.085   5.240  1.5823 -0.3936  0.0521
 6651SOL     OW20203   5.073   1.331   6.273  0.5495 -0.2096 -0.0408
 6651SOL    HW120204   5.116   1.417   6.267 -0.0309  0.0517 -0.6359
 6651SOL    HW220205   5.103   1.295   6.357  1.6507  0.1015 -0.2795
 6652SOL     OW20206   4.484   1.409   0.764 -0.4358  0.6072 -0.0976
 6652SOL    HW120207   4.502   1.502   0.772  0.9389  0.2536  1.6989
 6652SOL    HW220208   4.493   1.375   0.853  1.2622 -1.5561 -0.9824
 6653SOL     OW20209   4.372   1.601   1.153 -0.1180 -0.6263  0.8657
 6653SOL    HW120210   4.463   1.573   1.161 -0.1515 -1.2346 -0.5624
 6653SOL    HW220211   4.376   1.696   1.147  0.4675 -0.6825  0.3190
 6654SOL     OW20212   3.981   0.356   1.577 -0.1526  0.0060  0.6818
 6654SOL    HW120213   3.910   0.335   1.638  0.0464 -0.1130  0.8792
 6654SOL    HW220214   4.054   0.300   1.606  0.4841  1.1599  1.3916
 6655SOL     OW20215   1.844   5.593   1.358  0.1113 -0.6552  0.5191
 6655SOL    HW120216   1.882   5.547   1.283  2.1137  1.7219 -0.0606
 6655SOL    HW220217   1.773   5.645   1.322 -0.2531 -1.0632  0.6455
 6656SOL     OW20218   6.219   5.647   4.487  0.3609 -0.2727 -0.2695
 6656SOL    HW120219   6.261   5.599   4.415  0.0669  0.2319 -0.7834
 6656SOL    HW220220   6.281   5.716   4.510  0.2115 -0.0877 -0.4185
 6657SOL     OW20221   0.968   1.543   1.737 -0.3323 -0.0600  0.1471
 6657SOL    HW120222   0.943   1.623   1.689 -3.8185 -0.2231  1.3676
 6657SOL    HW220223   1.063   1.545   1.739 -0.2234  4.0082 -0.0529
 6658SOL     OW20224   2.076   5.183   6.046  0.0202  0.4168  0.6500
 6658SOL    HW120225   2.169   5.168   6.029 -0.0094 -1.1879  1.7122
 6658SOL    HW220226   2.033   5.102   6.020 -1.2055  1.3875 -0.4989
 6659SOL     OW20227   5.622   5.241   5.240 -0.4625 -0.5014  0.0117
 6659SOL    HW120228   5.557   5.172   5.257 -2.2578  1.0953 -0.0500
 6659SOL    HW220229   5.581   5.321   5.274  1.4171  0.6061 -0.2210
 6660SOL     OW20230   5.837   1.176   2.563  0.1601  0.3856 -0.0099
 6660SOL    HW120231   5.770   1.127   2.516 -0.8257  2.2082 -0.6068
 6660SOL    HW220232   5.820   1.268   2.541  0.2255  1.2781  3.1223
 6661SOL     OW20233   3.421   0.303   5.860 -0.0363 -0.3213 -0.0729
 6661SOL    HW120234   3.407   0.235   5.925  1.6365  1.2814  2.0963
 6661SOL    HW220235   3.418   0.385   5.909  0.2848  1.0598 -2.2011
 6662SOL     OW20236   5.436   2.931   4.997 -0.0479  0.6231  0.1147
 6662SOL    HW120237   5.373   2.874   5.040 -1.7914  2.9831  0.8902
 6662SOL    HW220238   5.391   3.015   4.989  2.0359  1.6716 -1.8286
 6663SOL     OW20239   6.120   0.053   3.307  0.5823 -0.2216 -0.0807
 6663SOL    HW120240   6.072  -0.018   3.350 -0.9978  1.6087  1.3373
 6663SOL    HW220241   6.200   0.062   3.358  0.2785 -0.2911  0.4143
 6664SOL     OW20242   3.373   3.887   2.862 -0.2985  0.5344 -0.3466
 6664SOL    HW120243   3.306   3.835   2.817 -0.7948  1.6848 -0.9967
 6664SOL    HW220244   3.450   3.880   2.805  0.2074 -0.9012  0.4714
 6665SOL     OW20245   5.666   5.694   1.119  0.0229  0.3249 -0.3769
 6665SOL    HW120246   5.751   5.673   1.159 -0.2691  0.1992  0.1904
 6665SOL    HW220247   5.683   5.693   1.025  0.2938 -1.2609 -0.3363
 6666SOL     OW20248   3.468   0.048   1.443  0.0599  0.7434  0.3077
 6666SOL    HW120249   3.426   0.125   1.481 -0.0828  0.9295 -0.2200
 6666SOL    HW220250   3.399   0.008   1.389 -0.1618 -0.2739  1.2858
 6667SOL     OW20251   0.729   0.100   4.698  0.0011 -0.3822 -0.5591
 6667SOL    HW120252   0.705   0.191   4.715 -0.4793 -0.6417  0.2083
 6667SOL    HW220253   0.670   0.049   4.754  1.9582 -1.0908  0.9846
 6668SOL     OW20254   0.621   0.051   3.677 -0.2893  0.3498  0.7497
 6668SOL    HW120255   0.635   0.025   3.768  1.5717 -0.7483  0.1956
 6668SOL    HW220256   0.547  -0.002   3.648  0.2630 -0.6457  1.1116
 6669SOL     OW20257   3.189   3.282   5.262  0.0310  0.0170  0.1268
 6669SOL    HW120258   3.104   3.292   5.305  0.1359 -2.4375  1.0688
 6669SOL    HW220259   3.181   3.203   5.209  1.8756 -0.6089  0.6921
 6670SOL     OW20260   0.155   4.207   3.987 -0.2975  0.0794 -0.0356
 6670SOL    HW120261   0.181   4.137   4.047 -0.1335 -0.3015 -0.5369
 6670SOL    HW220262   0.081   4.170   3.938 -2.3456  1.4268  1.8913
 6671SOL     OW20263   3.504   3.513   3.174 -0.3945 -0.1745  0.4249
 6671SOL    HW120264   3.512   3.607   3.189 -1.1246  0.1560 -1.1731
 6671SOL    HW220265   3.563   3.474   3.239 -1.9735  1.2249  2.8487
 6672SOL     OW20266   0.229   3.873   5.332 -0.0016  0.2281  0.7809
 6672SOL    HW120267   0.214   3.782   5.306  1.7891  0.1282 -0.0736
 6672SOL    HW220268   0.320   3.874   5.363 -0.1112  1.6681  1.1139
 6673SOL     OW20269   5.933   2.585   1.571  0.5879 -0.1909 -0.2220
 6673SOL    HW120270   5.895   2.508   1.613  0.2861  0.8883  1.6047
 6673SOL    HW220271   6.027   2.577   1.588  0.2493  1.6760  3.4712
 6674SOL     OW20272   4.332   5.867   1.889 -0.5099 -0.2927 -0.3607
 6674SOL    HW120273   4.378   5.789   1.858  1.3841  0.3707  0.6571
 6674SOL    HW220274   4.296   5.842   1.974  0.5919  0.1036  0.2293
 6675SOL     OW20275   3.330   0.893   2.127 -0.1561  0.3154 -0.5318
 6675SOL    HW120276   3.409   0.909   2.074 -0.6465  0.6232 -1.1800
 6675SOL    HW220277   3.283   0.826   2.078 -0.3876  0.2667 -0.2388
 6676SOL     OW20278   6.005   4.502   5.892  0.5179  0.1995  0.1476
 6676SOL    HW120279   5.923   4.487   5.847  1.1557 -0.4657 -0.8212
 6676SOL    HW220280   5.987   4.481   5.983 -0.3283 -0.1177 -0.0862
 6677SOL     OW20281   6.311   1.592   3.728  0.2023 -0.5968  0.1926
 6677SOL    HW120282   6.251   1.635   3.667 -0.1264 -1.6161 -0.2325
 6677SOL    HW220283   6.259   1.576   3.806  0.5341  0.4203  0.6407
 6678SOL     OW20284   4.789   5.771   4.801 -0.3213 -0.4293  0.9789
 6678SOL    HW120285   4.718   5.726   4.846 -0.3370 -2.0775 -0.5616
 6678SOL    HW220286   4.767   5.761   4.708 -0.8583  3.6846  0.4680
 6679SOL     OW20287   2.082   3.633   4.190 -0.0887 -0.1076  0.5846
 6679SOL    HW120288   2.070   3.712   4.243  0.7644  0.6788 -0.3309
 6679SOL    HW220289   2.177   3.618   4.192 -0.1053 -0.3665 -0.2798
 6680SOL     OW20290   2.746   4.592   0.956 -0.2431  0.1217 -0.4450
 6680SOL    HW120291   2.769   4.502   0.977 -0.5784  0.0003 -0.5940
 6680SOL    HW220292   2.729   4.633   1.041  1.2528  0.4238 -0.2597
 6681SOL     OW20293   6.272   4.460   3.413 -0.2352  0.2251  0.2795
 6681SOL    HW120294   6.337   4.528   3.396 -0.9374  1.0506  0.8771
 6681SOL    HW220295   6.324   4.380   3.422  0.5225  0.4946 -1.3579
 6682SOL     OW20296   4.750   2.959   6.148 -0.5921 -0.1339 -0.3760
 6682SOL    HW120297   4.697   2.918   6.216  0.6575 -0.5668  0.3613
 6682SOL    HW220298   4.747   2.898   6.075 -1.6647  0.1777 -0.6127
 6683SOL     OW20299   4.487   4.793   6.090  0.4141 -0.1451 -0.1992
 6683SOL    HW120300   4.461   4.861   6.028  3.3000  0.1472 -1.2754
 6683SOL    HW220301   4.423   4.798   6.160 -1.2138  1.6099 -1.7046
 6684SOL     OW20302   3.546   5.255   3.946 -0.6170  0.0592 -0.1767
 6684SOL    HW120303   3.565   5.169   3.909 -0.0694  0.8291 -1.7508
 6684SOL    HW220304   3.456   5.273   3.919  0.3287  1.3616 -2.7743
 6685SOL     OW20305   0.441   2.884   4.387  0.3751 -0.0055  0.6983
 6685SOL    HW120306   0.356   2.873   4.343 -0.9353  1.6802  2.6398
 6685SOL    HW220307   0.431   2.840   4.471  1.9169 -0.8674  0.4741
 6686SOL     OW20308   5.963   1.703   2.806 -0.0756 -0.6158  0.1877
 6686SOL    HW120309   5.902   1.672   2.739 -1.3486  1.5868  0.2252
 6686SOL    HW220310   5.977   1.627   2.863 -1.3169 -1.7056 -0.8897
 6687SOL     OW20311   4.425   2.740   0.312  0.0088 -0.5259  0.1885
 6687SOL    HW120312   4.441   2.791   0.392 -1.6916  1.0543 -0.4023
 6687SOL    HW220313   4.371   2.666   0.342  1.2948 -1.2430  0.8267
 6688SOL     OW20314   0.990   1.618   0.004  0.1113 -0.1815 -0.7377
 6688SOL    HW120315   0.953   1.631  -0.083  0.1568  0.4968 -0.6590
 6688SOL    HW220316   0.952   1.535   0.033 -2.4414  1.0972 -0.1206
 6689SOL     OW20317   0.677   0.480   2.106 -0.0062 -0.0129 -0.1374
 6689SOL    HW120318   0.702   0.450   2.019  2.2888 -0.3689  0.5661
 6689SOL    HW220319   0.582   0.484   2.104 -0.0707 -1.2502 -2.2391
 6690SOL     OW20320   2.403   3.899   0.144  0.1320  0.1122 -0.1023
 6690SOL    HW120321   2.393   3.963   0.074 -0.8308 -0.5609 -0.6089
 6690SOL    HW220322   2.409   3.951   0.224 -0.4502  0.8403 -0.5170
 6691SOL     OW20323   3.882   0.572   2.740 -0.2457  0.0191  0.0267
 6691SOL    HW120324   3.920   0.485   2.730 -1.3876 -0.4348 -0.5823
 6691SOL    HW220325   3.790   0.556   2.760 -0.2948  1.0877  0.7600
 6692SOL     OW20326   1.839   1.558   3.695  0.0607  0.1952  0.0934
 6692SOL    HW120327   1.787   1.636   3.718  0.9335  0.2773  1.9803
 6692SOL    HW220328   1.785   1.484   3.722  0.6975  0.2700  1.6568
 6693SOL     OW20329   1.631   2.302   0.638  0.4159  0.1410  0.2885
 6693SOL    HW120330   1.648   2.394   0.655  1.0380  0.0287  0.3104
 6693SOL    HW220331   1.701   2.275   0.578  0.2058 -0.2991  0.2347
 6694SOL     OW20332   3.327   0.052   2.085 -0.4380  0.1323 -0.1073
 6694SOL    HW120333   3.418   0.063   2.113 -0.4689  0.3486 -0.0847
 6694SOL    HW220334   3.310   0.130   2.031 -0.8668  0.5209  0.5724
 6695SOL     OW20335   0.630   3.691   2.815 -0.2236 -0.0900 -0.4613
 6695SOL    HW120336   0.681   3.633   2.872 -0.4288 -0.6424 -0.8277
 6695SOL    HW220337   0.565   3.633   2.774 -0.0585  0.2875 -1.2789
 6696SOL     OW20338   3.539   4.316   5.915 -0.0399  0.4000 -0.3016
 6696SOL    HW120339   3.446   4.293   5.921  0.0703 -0.0292 -0.1677
 6696SOL    HW220340   3.553   4.333   5.822 -0.2444  0.4193 -0.3299
 6697SOL     OW20341   4.536   0.829   5.287  0.3978 -0.6340 -0.0752
 6697SOL    HW120342   4.470   0.830   5.357  0.6341 -0.6174  0.1479
 6697SOL    HW220343   4.602   0.892   5.316 -0.0552  0.2148 -0.8425
 6698SOL     OW20344   6.247   4.282   5.006 -0.2334 -0.0218  0.8647
 6698SOL    HW120345   6.293   4.206   4.969  0.5573  0.5499  0.6347
 6698SOL    HW220346   6.293   4.358   4.970 -1.9307  0.6149 -0.0846
 6699SOL     OW20347   6.094   4.581   0.987 -0.2089 -0.8223 -0.4221
 6699SOL    HW120348   6.183   4.561   1.015 -0.7645  0.5224  2.7034
 6699SOL    HW220349   6.104   4.656   0.929  0.6884 -0.1815  0.5150
 6700SOL     OW20350   5.383   5.144   5.987  0.1700  0.4955 -0.0042
 6700SOL    HW120351   5.385   5.236   5.962 -0.2678  0.8413  1.1599
 6700SOL    HW220352   5.317   5.139   6.056  0.4173 -0.6337  0.1787
 6701SOL     OW20353   3.616   0.705   2.169 -0.4020  0.4005 -0.4412
 6701SOL    HW120354   3.636   0.791   2.133 -0.0499  0.5633  0.1329
 6701SOL    HW220355   3.572   0.723   2.252  0.3858  0.0438  0.0724
 6702SOL     OW20356   5.633   2.237   4.848 -0.1774  0.0500  0.3006
 6702SOL    HW120357   5.713   2.190   4.871 -0.1963 -1.0153 -1.6046
 6702SOL    HW220358   5.659   2.298   4.780 -0.3938  2.0792  1.9533
 6703SOL     OW20359   2.034   3.261   2.882 -0.1772  0.2508  0.2464
 6703SOL    HW120360   1.979   3.294   2.811  1.5286 -0.0968 -1.3082
 6703SOL    HW220361   2.013   3.168   2.887  1.4087 -0.2731 -1.5445
 6704SOL     OW20362   2.674   6.273   0.816  0.5724 -0.3054 -0.3384
 6704SOL    HW120363   2.622   6.287   0.895  1.0877  0.6990 -0.1714
 6704SOL    HW220364   2.652   6.347   0.759  2.3207  0.5210  0.0148
 6705SOL     OW20365   4.068   5.172   2.721  0.0410 -0.0716 -0.2124
 6705SOL    HW120366   4.118   5.123   2.786  0.3395  1.0944  0.4692
 6705SOL    HW220367   4.029   5.245   2.770 -1.0745 -0.0890 -1.0276
 6706SOL     OW20368   1.667   0.668   4.548  0.1669  0.0919 -0.3334
 6706SOL    HW120369   1.642   0.609   4.478 -0.1077 -1.5010  1.0365
 6706SOL    HW220370   1.711   0.740   4.504 -0.5644 -0.5220 -2.1776
 6707SOL     OW20371   1.546   4.896   5.338 -0.6388  0.0850  0.1279
 6707SOL    HW120372   1.598   4.903   5.258 -0.0830 -1.0682  0.3607
 6707SOL    HW220373   1.473   4.839   5.315 -1.3739  1.0461  0.0237
 6708SOL     OW20374   6.236   1.228   3.570 -0.0972 -0.4241 -0.4549
 6708SOL    HW120375   6.198   1.142   3.589  1.0738 -0.7095  0.7699
 6708SOL    HW220376   6.162   1.289   3.578 -0.5790 -1.1049  0.5899
 6709SOL     OW20377   5.358   5.797   3.152  0.3350  0.2788 -0.0723
 6709SOL    HW120378   5.279   5.809   3.099 -0.4767  2.0671  1.4143
 6709SOL    HW220379   5.414   5.871   3.129  1.0660 -0.2960 -0.2035
 6710SOL     OW20380   4.592   2.158   3.774  0.3492 -0.1508 -0.0640
 6710SOL    HW120381   4.615   2.127   3.687  1.3822 -0.6259  0.3480
 6710SOL    HW220382   4.676   2.163   3.820 -0.1165  0.5902  0.7441
 6711SOL     OW20383   3.957   2.302   1.735 -0.6665 -0.1682 -0.3764
 6711SOL    HW120384   3.972   2.307   1.830 -1.6859  2.0139 -0.2613
 6711SOL    HW220385   3.893   2.231   1.725 -1.9475  0.7503  0.8257
 6712SOL     OW20386   3.634   4.325   0.776 -0.1905  0.0864 -0.0068
 6712SOL    HW120387   3.612   4.235   0.753  0.3887 -0.0710  0.0356
 6712SOL    HW220388   3.660   4.321   0.869 -1.1981  0.4810  0.2988
 6713SOL     OW20389   3.111   1.059   0.596  0.2935 -0.4997 -0.1135
 6713SOL    HW120390   3.168   0.996   0.640  1.1416  1.3797  1.6505
 6713SOL    HW220391   3.146   1.145   0.621 -2.6493  0.7452  0.1992
 6714SOL     OW20392   5.495   0.785   4.151  0.7152  0.0356  0.4475
 6714SOL    HW120393   5.565   0.849   4.164 -0.1622  1.0135  0.4442
 6714SOL    HW220394   5.495   0.768   4.057  0.3191  0.7701  0.3116
 6715SOL     OW20395   1.973   0.751   3.250 -0.1877 -0.0468  0.0807
 6715SOL    HW120396   2.036   0.744   3.321 -2.1119  0.7198  1.9703
 6715SOL    HW220397   1.888   0.753   3.294 -1.4835  0.0847 -2.2860
 6716SOL     OW20398   2.364   5.640   3.526 -0.9024 -0.3773 -0.4884
 6716SOL    HW120399   2.318   5.582   3.467  0.6500 -0.8939 -1.2444
 6716SOL    HW220400   2.428   5.584   3.571 -1.3486  0.2025  0.9266
 6717SOL     OW20401   4.612   5.875   3.080 -0.0249  0.2824  0.8663
 6717SOL    HW120402   4.539   5.849   3.136  0.0805 -0.6769  0.5759
 6717SOL    HW220403   4.584   5.853   2.991  1.1195 -1.3350  0.8716
 6718SOL     OW20404   2.605   5.162   4.660  0.2993  1.3960  0.4379
 6718SOL    HW120405   2.621   5.139   4.568 -0.2320  2.1642  0.1457
 6718SOL    HW220406   2.637   5.086   4.709 -1.0256  0.1968 -0.4752
 6719SOL     OW20407   5.002   5.591   3.891 -0.1891 -0.3060  0.2127
 6719SOL    HW120408   4.918   5.627   3.863 -0.2868 -0.7803 -0.1088
 6719SOL    HW220409   4.993   5.578   3.985  0.0254  0.9857  0.4281
 6720SOL     OW20410   0.188   4.574   6.025  0.6257  0.5152 -0.5209
 6720SOL    HW120411   0.203   4.636   6.096 -0.8015  0.5134 -0.1927
 6720SOL    HW220412   0.164   4.629   5.950 -0.1507  0.4100 -0.3614
 6721SOL     OW20413   2.225   1.210   4.437  0.2795  0.0241 -0.2217
 6721SOL    HW120414   2.223   1.262   4.357 -2.3396  1.5242  0.6658
 6721SOL    HW220415   2.157   1.144   4.423 -0.6575  0.7037  0.9353
 6722SOL     OW20416   1.404   6.286   0.501 -0.1373  0.4455  0.0532
 6722SOL    HW120417   1.424   6.342   0.426 -1.7858  0.8627 -0.0993
 6722SOL    HW220418   1.378   6.202   0.463 -1.6758  0.8774  0.0950
 6723SOL     OW20419   2.684   4.063   4.341  0.0223  0.4188  0.2588
 6723SOL    HW120420   2.752   4.046   4.276 -1.1457  0.4729 -1.0263
 6723SOL    HW220421   2.731   4.102   4.415  1.4472 -0.0275 -0.3695
 6724SOL     OW20422   3.498   4.353   3.091  0.2500 -0.8144 -0.3525
 6724SOL    HW120423   3.479   4.401   3.010  2.4714  0.1631 -0.3634
 6724SOL    HW220424   3.591   4.333   3.086  0.5468 -0.3644  2.1470
 6725SOL     OW20425   1.379   1.241   2.070  0.4102  0.7820 -0.2615
 6725SOL    HW120426   1.461   1.225   2.116  0.2155 -0.1506 -0.2045
 6725SOL    HW220427   1.401   1.304   2.001  1.7573 -1.2772 -1.8352
 6726SOL     OW20428   2.578   5.806   4.934  0.2707  0.1380 -0.1449
 6726SOL    HW120429   2.602   5.816   4.842 -1.4145  1.0896 -0.5077
 6726SOL    HW220430   2.490   5.843   4.941  0.5870  0.6318  1.9736
 6727SOL     OW20431   6.053   2.890   0.382  0.7231  0.2168  0.1896
 6727SOL    HW120432   6.070   2.835   0.459  0.4945 -1.5662 -0.9946
 6727SOL    HW220433   5.967   2.860   0.351 -0.3187  2.5608  0.5739
 6728SOL     OW20434   6.072   3.074   1.205  0.1137 -0.1477 -0.1082
 6728SOL    HW120435   6.092   3.080   1.298  0.5212  1.8014 -0.2739
 6728SOL    HW220436   5.986   3.116   1.195 -1.1598 -2.5798 -0.3262
 6729SOL     OW20437   1.813   0.775   3.630 -0.4012  0.3755 -0.2823
 6729SOL    HW120438   1.893   0.825   3.614  0.3003 -0.8903 -0.8919
 6729SOL    HW220439   1.784   0.749   3.543  0.3219 -1.8562  0.0715
 6730SOL     OW20440   5.227   4.049   0.051 -0.9244  0.1466  0.3376
 6730SOL    HW120441   5.267   4.107  -0.014  1.0751 -0.1763  1.1834
 6730SOL    HW220442   5.201   3.971   0.001 -0.6631  0.4532 -0.2849
 6731SOL     OW20443   3.604   1.909   5.561 -0.2752  0.1416 -0.0700
 6731SOL    HW120444   3.509   1.899   5.552 -0.2814 -0.1078  0.2220
 6731SOL    HW220445   3.633   1.826   5.599 -0.0149  0.4269  0.3678
 6732SOL     OW20446   4.516   0.052   0.801 -0.0065  0.4589  0.2376
 6732SOL    HW120447   4.431   0.084   0.830  0.4803  0.5555  1.5975
 6732SOL    HW220448   4.555   0.128   0.756 -1.0709  0.0713 -1.4597
 6733SOL     OW20449   0.887   4.228   2.236 -0.0574 -0.5515 -0.2873
 6733SOL    HW120450   0.823   4.217   2.307  0.6463 -1.9055  0.1650
 6733SOL    HW220451   0.936   4.307   2.260 -1.7699  0.7641 -0.8490
 6734SOL     OW20452   3.326   5.978   0.178 -0.2460 -0.3739  0.2475
 6734SOL    HW120453   3.327   6.048   0.112 -0.9145 -0.7027 -0.1275
 6734SOL    HW220454   3.368   5.904   0.135 -1.7242 -0.9618 -0.2697
 6735SOL     OW20455   2.384   5.391   5.584  0.2094 -0.4528  0.6838
 6735SOL    HW120456   2.396   5.372   5.491  0.9557 -0.1073  0.6991
 6735SOL    HW220457   2.466   5.432   5.611  0.5791 -1.8812  1.8438
 6736SOL     OW20458   1.324   1.288   3.333 -0.4896  0.2050 -0.3289
 6736SOL    HW120459   1.235   1.283   3.299 -0.1584  0.1137 -1.1885
 6736SOL    HW220460   1.377   1.234   3.274  0.3411  1.1969 -0.5398
 6737SOL     OW20461   5.600   4.351   4.691 -0.0845  0.2372 -0.3731
 6737SOL    HW120462   5.677   4.407   4.704  0.8638 -0.6191 -1.9646
 6737SOL    HW220463   5.624   4.294   4.617 -2.1075 -0.3055 -0.6722
 6738SOL     OW20464   4.538   4.437   3.168 -0.4660  0.0637 -0.0999
 6738SOL    HW120465   4.514   4.526   3.195  0.7559  0.1739  0.7269
 6738SOL    HW220466   4.633   4.440   3.158 -0.4721 -1.0100 -0.6422
 6739SOL     OW20467   1.304   0.213   1.889 -0.4199  0.1122 -0.7290
 6739SOL    HW120468   1.366   0.269   1.841  0.0589  0.3430  0.1323
 6739SOL    HW220469   1.295   0.256   1.975 -0.9027 -0.5358 -0.4494
 6740SOL     OW20470   4.480   5.335   5.170 -0.2015  0.0191 -0.0121
 6740SOL    HW120471   4.481   5.281   5.248  0.4336 -0.2077 -0.1741
 6740SOL    HW220472   4.567   5.325   5.132 -0.3480  0.4972 -0.4941
 6741SOL     OW20473   1.815   2.894   4.927  0.4645  0.6244 -0.2342
 6741SOL    HW120474   1.816   2.807   4.966 -0.2626  0.5502 -0.3617
 6741SOL    HW220475   1.904   2.907   4.896  1.3059  1.0250  2.1448
 6742SOL     OW20476   4.325   3.294   2.132  0.4770  0.4657  0.3660
 6742SOL    HW120477   4.417   3.291   2.158  0.8129  2.5148 -0.4388
 6742SOL    HW220478   4.277   3.306   2.214  0.8131 -1.4235  0.8854
 6743SOL     OW20479   3.512   2.482   2.299  0.6005 -1.0111  0.5571
 6743SOL    HW120480   3.419   2.485   2.278  0.5737 -2.3293  0.4286
 6743SOL    HW220481   3.520   2.532   2.380 -0.0908 -0.2554  0.1714
 6744SOL     OW20482   1.384   4.192   2.128  0.2810 -0.1919  0.0235
 6744SOL    HW120483   1.304   4.199   2.180  0.2348 -0.0385 -0.0686
 6744SOL    HW220484   1.454   4.186   2.193  0.2940  0.7304  0.1150
 6745SOL     OW20485   0.577   1.311   5.062 -0.0207  0.1712 -0.2523
 6745SOL    HW120486   0.504   1.311   5.123 -0.2977 -0.9836 -0.5644
 6745SOL    HW220487   0.546   1.260   4.987  1.1096 -0.4068 -0.3520
 6746SOL     OW20488   1.996   3.843   5.326  0.4872  0.0294 -0.4816
 6746SOL    HW120489   2.065   3.822   5.263  0.3713  0.2237 -0.6746
 6746SOL    HW220490   2.018   3.791   5.403  1.3031  0.7047 -0.2490
 6747SOL     OW20491   0.317   3.406   1.549  0.1796 -0.1424 -0.2442
 6747SOL    HW120492   0.246   3.348   1.573  0.9215 -0.8814  0.1923
 6747SOL    HW220493   0.278   3.494   1.552 -0.6742 -0.5235  0.1012
 6748SOL     OW20494   5.157   5.803   2.421 -0.1838 -0.1621  0.3373
 6748SOL    HW120495   5.096   5.739   2.385  0.4080 -0.5961  0.0740
 6748SOL    HW220496   5.133   5.810   2.513 -0.1015 -0.9634  0.4327
 6749SOL     OW20497   4.447   1.179   2.109  0.0072 -0.5968  0.0475
 6749SOL    HW120498   4.371   1.153   2.162  0.8283 -1.9887  0.5938
 6749SOL    HW220499   4.517   1.120   2.138  1.1712  0.3494 -0.7801
 6750SOL     OW20500   3.857   4.639   3.590 -0.0478  0.3138 -0.2487
 6750SOL    HW120501   3.773   4.685   3.584  0.2487  0.8520 -0.2892
 6750SOL    HW220502   3.886   4.630   3.499 -1.6380 -2.8486 -0.5706
 6751SOL     OW20503   5.475   2.094   5.413 -0.5246  0.0750  0.1858
 6751SOL    HW120504   5.441   2.148   5.341 -0.0905  2.6579  1.7892
 6751SOL    HW220505   5.408   2.099   5.481  0.4607  0.3831  1.1627
 6752SOL     OW20506   1.771   4.669   0.183  0.6281  0.3518 -0.1502
 6752SOL    HW120507   1.845   4.730   0.187  0.2874  0.7157  1.1355
 6752SOL    HW220508   1.801   4.592   0.231  0.8765 -0.3203 -1.3488
 6753SOL     OW20509   1.314   4.204   1.846  0.7675 -0.1640 -0.3439
 6753SOL    HW120510   1.233   4.162   1.817  1.6913 -1.6639 -0.8659
 6753SOL    HW220511   1.339   4.157   1.926  1.1183  0.2972 -0.1752
 6754SOL     OW20512   3.104   5.130   1.052  0.1307  0.1649 -0.0575
 6754SOL    HW120513   3.063   5.192   0.991  0.8430  0.2791 -0.4314
 6754SOL    HW220514   3.070   5.155   1.138 -1.5795 -0.5478 -0.4816
 6755SOL     OW20515   1.980   5.632   3.882 -0.1057 -0.8657  0.1088
 6755SOL    HW120516   2.065   5.628   3.837  0.1862  0.7881  0.4354
 6755SOL    HW220517   1.943   5.544   3.873  0.2308 -0.7894 -2.8028
 6756SOL     OW20518   0.002   4.380   0.674  0.0743  0.4460 -0.1169
 6756SOL    HW120519  -0.072   4.423   0.717 -0.5658  1.0970 -1.7936
 6756SOL    HW220520  -0.037   4.331   0.602  1.3023  1.4255 -1.5205
 6757SOL     OW20521   1.381   5.815   1.929 -0.0451 -0.4141  0.1567
 6757SOL    HW120522   1.467   5.823   1.970  0.8984  0.5462 -1.8805
 6757SOL    HW220523   1.338   5.744   1.977  0.4566  1.3835  3.5687
 6758SOL     OW20524   5.784   3.891   1.289 -0.2294 -0.7896 -0.2830
 6758SOL    HW120525   5.773   3.933   1.375 -1.2658  0.0279 -0.7946
 6758SOL    HW220526   5.878   3.894   1.273 -0.2558  1.4690 -0.3364
 6759SOL     OW20527   4.147   1.671   0.140  0.2658  0.2242 -0.0744
 6759SOL    HW120528   4.158   1.644   0.049  2.2312 -0.7961  0.4104
 6759SOL    HW220529   4.056   1.647   0.160  0.2956 -1.1003 -1.2834
 6760SOL     OW20530   4.502   3.189   4.203  0.0030 -0.2425  0.2994
 6760SOL    HW120531   4.452   3.206   4.282 -0.5794  0.4540 -0.2004
 6760SOL    HW220532   4.591   3.173   4.234 -0.1962  0.1204  1.0865
 6761SOL     OW20533   0.158   0.566   1.018 -0.4808 -0.3504  0.1962
 6761SOL    HW120534   0.159   0.584   0.924 -0.8519 -1.3365 -0.0082
 6761SOL    HW220535   0.123   0.477   1.025 -2.6251  0.4927  1.3772
 6762SOL     OW20536   5.364   3.376   3.664  0.4429 -0.4041  0.0064
 6762SOL    HW120537   5.399   3.306   3.719  2.1472 -0.0661 -0.5830
 6762SOL    HW220538   5.293   3.414   3.715 -0.2122 -2.2387  0.5377
 6763SOL     OW20539   1.083   0.743   0.823 -0.2243  0.2646  0.2585
 6763SOL    HW120540   1.078   0.648   0.829 -3.0452  0.3350  0.2725
 6763SOL    HW220541   1.141   0.759   0.748  0.5319 -1.4344  0.4380
 6764SOL     OW20542   3.473   0.482   0.518  0.4413 -0.1969 -0.1070
 6764SOL    HW120543   3.435   0.477   0.606  0.4902 -0.1196 -0.0814
 6764SOL    HW220544   3.568   0.481   0.533  0.5015 -2.4767 -0.2652
 6765SOL     OW20545   0.814   4.006   0.157 -0.3281 -0.7137 -0.3261
 6765SOL    HW120546   0.758   4.048   0.092  1.3923 -0.2666 -1.5954
 6765SOL    HW220547   0.855   4.079   0.204 -0.1869 -1.0176  0.0312
 6766SOL     OW20548   1.369   3.200   6.242  0.3937 -0.6590 -0.4724
 6766SOL    HW120549   1.338   3.165   6.326  0.3810  0.3511 -0.0343
 6766SOL    HW220550   1.327   3.286   6.236  0.8016 -0.5121 -1.2797
 6767SOL     OW20551   1.088   1.409   6.122 -0.3227 -0.1264  0.1245
 6767SOL    HW120552   1.009   1.460   6.105 -0.8472 -0.7679  0.5558
 6767SOL    HW220553   1.059   1.318   6.116  0.1823 -0.3744  1.1320
 6768SOL     OW20554   0.386   3.979   0.039 -0.1711  0.3122 -0.1908
 6768SOL    HW120555   0.315   4.041   0.055  0.2953  0.8703 -0.2534
 6768SOL    HW220556   0.350   3.917  -0.025 -0.6829  0.4394 -0.0302
 6769SOL     OW20557   1.647   2.278   1.532  0.3473 -0.4573  0.0634
 6769SOL    HW120558   1.677   2.232   1.611 -1.0142 -0.1475  0.7921
 6769SOL    HW220559   1.679   2.225   1.459  1.4585 -0.8599  0.8295
 6770SOL     OW20560   2.047   0.841   1.023  0.0261  0.4220  0.6250
 6770SOL    HW120561   2.044   0.797   0.938  0.4930  0.1038  0.7658
 6770SOL    HW220562   2.134   0.879   1.028  0.5265 -0.7740  1.5381
 6771SOL     OW20563   4.563   4.899   5.506 -0.7867  0.0277 -0.0221
 6771SOL    HW120564   4.624   4.844   5.456 -0.8854 -1.4628  1.4022
 6771SOL    HW220565   4.480   4.851   5.505 -1.5902  1.3744 -0.7960
 6772SOL     OW20566   3.108   5.856   1.129 -0.2491 -0.1051 -0.1754
 6772SOL    HW120567   3.062   5.895   1.204 -0.2682  0.6436 -0.5700
 6772SOL    HW220568   3.118   5.928   1.067 -1.5343 -1.0261 -1.5180
 6773SOL     OW20569   3.671   5.333   0.298  0.5136  0.0829 -0.3275
 6773SOL    HW120570   3.682   5.414   0.348 -0.9583  0.2912 -0.2743
 6773SOL    HW220571   3.683   5.360   0.207  1.2901  0.0927 -0.2288
 6774SOL     OW20572   4.366   1.877   4.924 -0.2896 -0.1109 -0.0409
 6774SOL    HW120573   4.399   1.966   4.927 -1.8730  0.5298  2.8033
 6774SOL    HW220574   4.278   1.885   4.887 -0.3393 -0.5250 -0.0183
 6775SOL     OW20575   5.111   2.087   2.059 -0.6835  0.3703 -0.1659
 6775SOL    HW120576   5.076   2.005   2.095 -2.0578  0.5302 -1.0630
 6775SOL    HW220577   5.035   2.144   2.051  0.4423  2.3192  1.8124
 6776SOL     OW20578   5.553   5.819   5.258  0.4559 -0.2138 -0.7125
 6776SOL    HW120579   5.464   5.788   5.244  0.0014  1.0890 -0.8117
 6776SOL    HW220580   5.552   5.856   5.346  0.8046  0.1447 -0.8593
 6777SOL     OW20581   0.503   4.743   4.630 -0.5876 -0.1764 -0.6443
 6777SOL    HW120582   0.428   4.734   4.571  0.4420 -2.0942 -1.7756
 6777SOL    HW220583   0.465   4.774   4.712 -2.6475 -1.1001 -1.1602
 6778SOL     OW20584   5.940   5.318   1.751 -0.2197 -0.2541  0.6391
 6778SOL    HW120585   5.845   5.328   1.762 -0.5222 -2.3216  0.2775
 6778SOL    HW220586   5.971   5.288   1.836  0.3019  1.3580  1.0522
 6779SOL     OW20587   1.199   6.107   6.205 -0.2779  0.1697  0.6693
 6779SOL    HW120588   1.189   6.078   6.114 -1.8838  1.8620  0.2190
 6779SOL    HW220589   1.139   6.052   6.255  1.3203 -1.4194  0.9143
 6780SOL     OW20590   1.448   3.178   2.918 -0.2342  0.0505  0.2450
 6780SOL    HW120591   1.383   3.116   2.952 -0.5195  0.5007  0.5132
 6780SOL    HW220592   1.472   3.232   2.992 -1.2140  1.3565 -0.3655
 6781SOL     OW20593   1.651   5.516   2.238 -0.2318  0.0808  0.1646
 6781SOL    HW120594   1.651   5.425   2.208 -0.8715 -0.4921  1.7553
 6781SOL    HW220595   1.725   5.557   2.193  1.3136 -1.7652  0.8847
 6782SOL     OW20596   2.336   2.013   1.750 -0.0900 -0.1736  0.9890
 6782SOL    HW120597   2.283   2.061   1.687  1.3901 -0.9986 -0.9926
 6782SOL    HW220598   2.290   2.023   1.834 -2.1504  0.9254 -0.2146
 6783SOL     OW20599   2.472   2.117   1.182  0.1070 -0.2239 -0.4896
 6783SOL    HW120600   2.413   2.072   1.242  0.4711 -0.4234 -0.2724
 6783SOL    HW220601   2.557   2.073   1.195  0.4807  0.5585 -0.2373
 6784SOL     OW20602   5.791   3.389   3.557  0.0839 -0.1555 -0.1874
 6784SOL    HW120603   5.808   3.483   3.569  0.1426  0.0122 -1.4612
 6784SOL    HW220604   5.823   3.348   3.637 -0.6717  0.9961  0.7373
 6785SOL     OW20605   0.852   2.715   3.878  0.3780  0.9647  0.5151
 6785SOL    HW120606   0.884   2.710   3.968  2.4314  0.4560 -0.1709
 6785SOL    HW220607   0.895   2.792   3.841  0.3665  0.6000 -0.2930
 6786SOL     OW20608   3.606   3.011   0.626  0.1397 -0.1829 -0.5440
 6786SOL    HW120609   3.544   3.002   0.554 -0.3708 -0.6046 -0.0566
 6786SOL    HW220610   3.555   3.047   0.698  0.1519 -1.6228  0.2299
 6787SOL     OW20611   1.505   3.904   5.698  0.4565  0.1425  0.3251
 6787SOL    HW120612   1.490   3.961   5.623  2.1975 -0.5352 -0.5917
 6787SOL    HW220613   1.430   3.844   5.698 -1.2384  2.1259  1.1151
 6788SOL     OW20614   3.633   0.956   4.560  0.0237 -0.5866  0.1463
 6788SOL    HW120615   3.628   0.870   4.518  0.5344 -0.1882 -0.7460
 6788SOL    HW220616   3.649   0.936   4.653 -0.7958 -1.4657  0.1137
 6789SOL     OW20617   3.703   2.187   5.462 -0.3504 -0.2598 -0.1298
 6789SOL    HW120618   3.696   2.141   5.379  1.2361 -0.3329 -0.2379
 6789SOL    HW220619   3.724   2.119   5.526 -0.8421 -0.0949  0.2167
 6790SOL     OW20620   3.719   1.920   1.336 -0.4921 -0.3783  0.6037
 6790SOL    HW120621   3.638   1.921   1.285  0.0086  1.2786 -0.2208
 6790SOL    HW220622   3.789   1.924   1.271  0.2298 -0.5117  1.3490
 6791SOL     OW20623   4.837   4.011   2.555 -0.7405  0.1542 -0.5490
 6791SOL    HW120624   4.919   4.039   2.514 -0.3970 -0.1956 -0.1155
 6791SOL    HW220625   4.797   3.952   2.492 -0.4766  0.0323 -0.6034
 6792SOL     OW20626   4.492   2.275   2.303 -0.3615  0.0943  0.0690
 6792SOL    HW120627   4.566   2.232   2.260  0.2659 -0.0627  1.2357
 6792SOL    HW220628   4.450   2.204   2.353 -2.7416 -0.3378 -2.3555
 6793SOL     OW20629   6.180   1.799   5.045 -0.3907  0.3399  0.2025
 6793SOL    HW120630   6.103   1.852   5.064 -0.1442  1.5593 -1.8919
 6793SOL    HW220631   6.225   1.846   4.975  0.1346 -2.3207 -1.4162
 6794SOL     OW20632   3.839   1.562   0.170 -0.3843  0.3138 -0.1587
 6794SOL    HW120633   3.830   1.625   0.241  0.4303  0.0816  0.1681
 6794SOL    HW220634   3.752   1.524   0.160 -0.1306 -1.1012  2.0932
 6795SOL     OW20635   2.951   5.418   1.506  0.6829  0.7627 -0.2339
 6795SOL    HW120636   2.921   5.406   1.596  1.7202 -0.0564  0.0180
 6795SOL    HW220637   2.924   5.508   1.484 -0.5956  0.5774  0.4730
 6796SOL     OW20638   2.374   1.870   3.860 -0.4385  0.4940  0.0896
 6796SOL    HW120639   2.356   1.874   3.766 -0.7252  0.9071  0.1565
 6796SOL    HW220640   2.469   1.881   3.867 -0.3632  0.0124 -0.1770
 6797SOL     OW20641   5.389   4.415   4.835 -0.4210 -0.1055  0.3438
 6797SOL    HW120642   5.463   4.374   4.789  1.1738  2.1461  0.7647
 6797SOL    HW220643   5.323   4.428   4.768  1.2213  1.6067 -1.0293
 6798SOL     OW20644   0.338   2.225   2.605 -0.3440  0.1319  0.2371
 6798SOL    HW120645   0.279   2.204   2.677  1.4184 -0.0126  1.7014
 6798SOL    HW220646   0.421   2.247   2.647  0.5043  0.8906 -1.7198
 6799SOL     OW20647   0.645   1.019   5.094  0.1366 -0.3849  0.5610
 6799SOL    HW120648   0.604   0.935   5.074 -0.4373 -0.1699  0.8116
 6799SOL    HW220649   0.591   1.056   5.163 -0.3931  0.7907 -0.4522
 6800SOL     OW20650   2.948   0.864   0.021  0.4529  0.5462  0.2526
 6800SOL    HW120651   2.899   0.939  -0.012  1.2728  2.1681  2.5084
 6800SOL    HW220652   2.892   0.827   0.089  1.3458  1.0698  1.3123
 6801SOL     OW20653   3.866   5.322   3.260  0.0501  0.2311  0.3467
 6801SOL    HW120654   3.892   5.277   3.180 -1.3674  1.0003 -0.5827
 6801SOL    HW220655   3.859   5.253   3.326  2.3137 -0.2714  0.1326
 6802SOL     OW20656   1.664   3.738   2.904  0.0229  0.9595 -0.5276
 6802SOL    HW120657   1.701   3.679   2.838  0.7352  1.9223 -1.0040
 6802SOL    HW220658   1.634   3.679   2.974  1.4950  0.0602 -0.6073
 6803SOL     OW20659   5.150   2.960   1.380 -0.2508  1.1461  0.4733
 6803SOL    HW120660   5.146   2.974   1.285  0.3744  1.2566  0.4572
 6803SOL    HW220661   5.167   3.047   1.416  3.3537  0.6135  0.3948
 6804SOL     OW20662   3.120   0.380   0.308 -0.9818 -0.3984  0.1021
 6804SOL    HW120663   3.213   0.373   0.329 -0.9644  1.1997  0.6796
 6804SOL    HW220664   3.098   0.295   0.271  0.6113 -0.9479  0.3210
 6805SOL     OW20665   4.124   2.013   3.477  0.0603 -0.2919 -0.3501
 6805SOL    HW120666   4.084   1.980   3.556 -0.4391 -0.2252 -0.5743
 6805SOL    HW220667   4.166   1.937   3.437 -0.0810 -0.4157 -0.2594
 6806SOL     OW20668   1.081   0.223   4.862  0.1944  0.2441  0.7120
 6806SOL    HW120669   1.016   0.211   4.932  0.1223 -2.9596  0.2508
 6806SOL    HW220670   1.158   0.174   4.892 -0.3852 -2.6184 -1.9854
 6807SOL     OW20671   1.824   2.033   3.134  0.3882 -0.1988  0.2125
 6807SOL    HW120672   1.855   1.972   3.067  1.7849 -0.8543  1.4099
 6807SOL    HW220673   1.880   2.110   3.124 -0.1638  0.1719 -0.0980
 6808SOL     OW20674   5.580   4.891   0.678  0.5624 -0.2812 -0.5161
 6808SOL    HW120675   5.671   4.885   0.709  0.9201  1.6681 -1.0412
 6808SOL    HW220676   5.587   4.934   0.593 -0.8466 -0.3919 -0.7098
 6809SOL     OW20677   1.808   1.496   4.790 -0.0936  0.3361  0.0595
 6809SOL    HW120678   1.765   1.451   4.863 -1.0683 -0.6071 -1.0466
 6809SOL    HW220679   1.744   1.493   4.720  1.4791 -0.4210 -1.4137
 6810SOL     OW20680   3.782   2.653   6.162  0.2115  1.2123  0.0952
 6810SOL    HW120681   3.844   2.650   6.235 -0.9019 -0.5141  1.0282
 6810SOL    HW220682   3.818   2.594   6.097  0.6268  1.8851 -0.2983
 6811SOL     OW20683   5.369   1.085   2.164 -0.5087  0.4002 -0.7738
 6811SOL    HW120684   5.291   1.132   2.133 -0.7774  0.9088  0.6082
 6811SOL    HW220685   5.334   1.005   2.203 -0.1888 -0.1304 -1.5412
 6812SOL     OW20686   1.702   0.888   3.865 -0.1098 -0.3641 -0.0232
 6812SOL    HW120687   1.770   0.845   3.917  0.2368  0.2933  0.0738
 6812SOL    HW220688   1.700   0.839   3.783 -0.8503 -1.5860  0.6905
 6813SOL     OW20689   0.327   2.322   1.968  0.6857  0.3693  0.1944
 6813SOL    HW120690   0.315   2.354   2.057 -1.4026  1.1025 -0.2827
 6813SOL    HW220691   0.238   2.311   1.935  1.3876 -1.3249 -1.3157
 6814SOL     OW20692   4.726   2.774   4.600  0.6889 -0.4128  0.4741
 6814SOL    HW120693   4.660   2.746   4.537 -0.1784  1.1322  0.6642
 6814SOL    HW220694   4.783   2.833   4.550 -0.4525  1.4297  1.2846
 6815SOL     OW20695   4.871   0.421   3.659 -0.1870  0.5087 -0.1653
 6815SOL    HW120696   4.789   0.446   3.617  0.8751  1.0978 -2.0381
 6815SOL    HW220697   4.854   0.429   3.753 -2.0733  1.1713 -0.5195
 6816SOL     OW20698   5.523   0.219   5.390  0.5832  0.3763  0.1868
 6816SOL    HW120699   5.433   0.196   5.413  0.9722 -0.3040  1.0770
 6816SOL    HW220700   5.536   0.181   5.303 -0.0541  0.6695 -0.0416
 6817SOL     OW20701   4.557   6.066   2.043  0.2562  0.2441  1.1525
 6817SOL    HW120702   4.580   5.986   1.995  0.1063 -0.5341  2.3234
 6817SOL    HW220703   4.637   6.118   2.044  0.4287 -0.0075  0.6042
 6818SOL     OW20704   3.409   2.222   4.230  0.5743  0.1010  0.2605
 6818SOL    HW120705   3.343   2.153   4.223  0.4259  0.1263  1.2334
 6818SOL    HW220706   3.359   2.303   4.232  0.5473  0.0749  1.8946
 6819SOL     OW20707   1.385   0.947   0.254  0.8710 -0.1276  0.3820
 6819SOL    HW120708   1.376   0.971   0.346  1.9612 -0.2249  0.5318
 6819SOL    HW220709   1.416   1.027   0.211  1.5720 -0.4127  0.3366
 6820SOL     OW20710   5.666   0.055   1.544  0.6197  0.8666 -0.2327
 6820SOL    HW120711   5.710   0.124   1.494  1.3565  0.7215  0.2122
 6820SOL    HW220712   5.581   0.046   1.501  0.5041  2.0620 -0.2884
 6821SOL     OW20713   2.655   2.744   4.114  0.4488  0.1249  0.0798
 6821SOL    HW120714   2.632   2.822   4.065 -3.2270 -1.4075 -1.0142
 6821SOL    HW220715   2.614   2.756   4.200  0.9359 -0.0583  0.3395
 6822SOL     OW20716   1.844   3.305   5.304 -1.1305 -0.1187  0.1105
 6822SOL    HW120717   1.810   3.238   5.245 -1.6451  0.2583 -0.0257
 6822SOL    HW220718   1.889   3.256   5.373 -1.9791 -0.6363  0.3147
 6823SOL     OW20719   1.575   0.376   0.283  0.2610 -0.5259  0.4255
 6823SOL    HW120720   1.606   0.419   0.204  2.5604 -3.0581 -0.2182
 6823SOL    HW220721   1.621   0.420   0.355 -0.5683  0.7089  0.2116
 6824SOL     OW20722   5.190   0.618   1.347 -0.7084  0.4278 -0.3065
 6824SOL    HW120723   5.111   0.600   1.296 -1.2537 -0.2389  0.7338
 6824SOL    HW220724   5.168   0.697   1.397 -0.5400  0.5158 -0.3728
 6825SOL     OW20725   3.974   3.296   3.437 -0.3142 -0.3119  0.3872
 6825SOL    HW120726   3.969   3.365   3.503  0.3370 -0.6358  0.7929
 6825SOL    HW220727   3.915   3.227   3.468  1.3674 -1.2775  1.6629
 6826SOL     OW20728   2.345   5.257   4.800 -0.0754 -0.1501  0.4325
 6826SOL    HW120729   2.429   5.230   4.763 -1.3288 -0.2957 -2.5937
 6826SOL    HW220730   2.359   5.348   4.826  0.9128 -0.0240 -0.4704
 6827SOL     OW20731   3.069   0.291   3.706  0.5784 -0.0402 -0.2094
 6827SOL    HW120732   3.033   0.369   3.664 -1.7355 -1.9396 -2.0219
 6827SOL    HW220733   2.999   0.260   3.764  0.9678 -1.3805 -0.4099
 6828SOL     OW20734   2.139   4.733   6.145 -0.5044  0.7762  0.5795
 6828SOL    HW120735   2.145   4.671   6.218  0.9085  0.2093  0.0074
 6828SOL    HW220736   2.104   4.680   6.072 -1.1803  1.1541  0.6180
 6829SOL     OW20737   1.941   5.501   1.064  0.7357 -0.8367  0.0474
 6829SOL    HW120738   2.025   5.462   1.088  1.1202 -1.1640 -1.6469
 6829SOL    HW220739   1.876   5.437   1.090  1.0156 -0.6797  1.1739
 6830SOL     OW20740   5.819   2.397   6.193 -0.0245 -0.3430 -0.1549
 6830SOL    HW120741   5.735   2.391   6.149  0.4159 -0.8359 -0.9449
 6830SOL    HW220742   5.802   2.450   6.271 -0.6371  1.3585 -1.3860
 6831SOL     OW20743   2.537   3.094   5.015  0.5020  0.3680  0.2810
 6831SOL    HW120744   2.488   3.164   4.974  0.6853  2.0093  2.6416
 6831SOL    HW220745   2.473   3.047   5.068  1.0374  1.3688  1.9083
 6832SOL     OW20746   3.123   6.132   3.371 -0.0792  0.4959 -0.5267
 6832SOL    HW120747   3.109   6.043   3.339  0.6024  0.4657 -0.7708
 6832SOL    HW220748   3.093   6.188   3.299 -0.1693  0.4603 -0.5175
 6833SOL     OW20749   3.706   2.617   3.236  0.2096 -0.1504  0.3372
 6833SOL    HW120750   3.644   2.582   3.300 -0.4229 -0.8455 -0.6380
 6833SOL    HW220751   3.792   2.591   3.270 -0.1598 -1.1979  0.5190
 6834SOL     OW20752   1.735   4.152   3.802  0.0356 -0.0288  0.5106
 6834SOL    HW120753   1.716   4.073   3.751 -1.0265  0.4009  0.2195
 6834SOL    HW220754   1.781   4.120   3.879 -0.9292 -1.0165  0.7046
 6835SOL     OW20755   1.907   2.306   4.143  0.0239  0.3398 -0.4662
 6835SOL    HW120756   1.918   2.275   4.053 -2.9126 -1.0079 -0.4627
 6835SOL    HW220757   1.843   2.377   4.137 -1.3350 -0.7410  0.6688
 6836SOL     OW20758   3.419   2.967   1.474  0.1950 -0.0441 -0.0567
 6836SOL    HW120759   3.493   2.998   1.421  0.2753  0.7613  0.5117
 6836SOL    HW220760   3.459   2.911   1.541  0.0706 -1.2607 -0.9534
 6837SOL     OW20761   0.137   5.512   5.878  0.3916 -0.2413  0.4554
 6837SOL    HW120762   0.188   5.489   5.800 -1.1949  0.3942 -0.8462
 6837SOL    HW220763   0.087   5.589   5.852 -0.8650 -0.5522  1.7980
 6838SOL     OW20764   4.092   3.555   0.135 -0.2339 -0.6193 -0.3534
 6838SOL    HW120765   4.064   3.463   0.130 -1.5304 -0.1524 -2.9325
 6838SOL    HW220766   4.011   3.605   0.130  0.6058  0.6940 -1.5862
 6839SOL     OW20767   2.188   2.344   1.867 -0.4196 -0.2817  0.2701
 6839SOL    HW120768   2.237   2.337   1.785 -0.5136 -0.4180  0.2242
 6839SOL    HW220769   2.247   2.388   1.927 -0.1176 -0.7357  0.3106
 6840SOL     OW20770   2.664   4.950   4.806 -0.1810 -0.0414  0.3666
 6840SOL    HW120771   2.657   5.003   4.885  2.1985 -0.0620  0.6517
 6840SOL    HW220772   2.677   4.861   4.838 -0.2593 -0.2142 -0.0753
 6841SOL     OW20773   4.307   0.802   0.488  0.2177  0.2045  0.2914
 6841SOL    HW120774   4.246   0.820   0.560  0.6354 -0.0094  0.7035
 6841SOL    HW220775   4.351   0.721   0.514  2.6464  1.7258  1.3400
 6842SOL     OW20776   0.514   0.185   5.672 -0.1795 -0.9170  0.2952
 6842SOL    HW120777   0.599   0.213   5.708 -0.7246 -1.0615  1.7739
 6842SOL    HW220778   0.488   0.256   5.614 -0.5399  0.7283  2.3341
 6843SOL     OW20779   4.892   1.815   4.739  0.5014 -0.3126 -0.8548
 6843SOL    HW120780   4.967   1.873   4.753  0.4855 -0.4521 -0.1724
 6843SOL    HW220781   4.826   1.846   4.801 -0.3718  0.4269 -2.1000
 6844SOL     OW20782   1.355   1.724   5.995  0.4003  0.0362 -0.2483
 6844SOL    HW120783   1.416   1.650   5.993  0.7091  0.3023 -0.9342
 6844SOL    HW220784   1.272   1.687   5.964 -0.3929 -0.8284  2.6401
 6845SOL     OW20785   2.909   1.251   0.194 -0.2766  0.7518 -0.2340
 6845SOL    HW120786   2.920   1.197   0.272  1.0310 -1.8664 -2.0326
 6845SOL    HW220787   2.854   1.324   0.221  0.6950  0.3537  3.2424
 6846SOL     OW20788   6.138   2.769   0.624  0.3408  0.1558 -0.1307
 6846SOL    HW120789   6.064   2.736   0.674  0.4662 -1.8474 -1.1313
 6846SOL    HW220790   6.206   2.702   0.636  1.2559  0.9294 -0.8601
 6847SOL     OW20791   5.590   2.467   1.125 -0.2025  0.5512 -0.1417
 6847SOL    HW120792   5.630   2.431   1.046  0.0347 -0.2935  0.3590
 6847SOL    HW220793   5.608   2.561   1.119  0.7623  0.3562 -0.5458
 6848SOL     OW20794   0.563   4.251   4.365 -0.4157  0.2586  0.3198
 6848SOL    HW120795   0.605   4.208   4.290 -0.1626 -0.7968  1.0513
 6848SOL    HW220796   0.618   4.229   4.440  0.0470  2.3485  0.6574
 6849SOL     OW20797   5.159   6.341   0.624  0.4192 -0.0609 -0.0332
 6849SOL    HW120798   5.070   6.323   0.595  0.7415  0.3355 -1.3258
 6849SOL    HW220799   5.214   6.299   0.558  1.1878  1.8563 -0.6652
 6850SOL     OW20800   2.656   4.560   1.574  0.7215 -0.1242 -0.1156
 6850SOL    HW120801   2.617   4.547   1.488  1.3148 -2.8418 -0.0380
 6850SOL    HW220802   2.749   4.577   1.557  1.0228 -1.5734 -0.0142
 6851SOL     OW20803   0.031   4.756   5.021 -0.1434  0.0624 -0.4936
 6851SOL    HW120804  -0.045   4.760   5.079 -0.2683  2.3049 -0.7502
 6851SOL    HW220805   0.105   4.740   5.080 -0.4652  0.7374  0.1113
 6852SOL     OW20806   2.563   4.754   3.752  0.5078 -0.1824  0.5094
 6852SOL    HW120807   2.480   4.802   3.746  2.1486  2.8176 -0.1467
 6852SOL    HW220808   2.587   4.737   3.660  0.7941 -0.7744  0.6878
 6853SOL     OW20809   1.780   5.651   5.320 -0.1901  0.2801 -0.1837
 6853SOL    HW120810   1.811   5.648   5.411  0.3401 -0.7230 -0.3880
 6853SOL    HW220811   1.685   5.660   5.328 -0.1937 -0.2301  0.4882
 6854SOL     OW20812   5.747   0.929   3.167 -0.2658  0.4856  0.2949
 6854SOL    HW120813   5.667   0.981   3.171  0.0264  0.9555  0.0877
 6854SOL    HW220814   5.746   0.890   3.079 -0.6414 -0.1189  0.5616
 6855SOL     OW20815   1.539   2.537   5.668  0.5915 -0.4808 -0.2133
 6855SOL    HW120816   1.478   2.465   5.686 -0.0897 -0.6094 -2.6370
 6855SOL    HW220817   1.534   2.592   5.745 -0.6885 -1.8034  0.7148
 6856SOL     OW20818   5.465   3.142   2.859 -0.3116  0.0792  0.3983
 6856SOL    HW120819   5.494   3.171   2.945  0.9932  0.6760 -0.2153
 6856SOL    HW220820   5.525   3.071   2.835 -1.0566 -0.5158  0.2311
 6857SOL     OW20821   1.318   1.822   3.929 -0.7403 -0.8348 -0.6070
 6857SOL    HW120822   1.328   1.906   3.973  0.4868 -1.3500  0.1439
 6857SOL    HW220823   1.335   1.841   3.837  1.7826 -0.6107 -0.1647
 6858SOL     OW20824   1.754   0.782   1.085  0.4917 -0.2324  0.2825
 6858SOL    HW120825   1.659   0.795   1.082  0.7245  1.9881  0.6363
 6858SOL    HW220826   1.766   0.688   1.079 -1.9101 -0.9508  3.6535
 6859SOL     OW20827   5.104   0.747   1.828  0.4753  0.1376 -0.2251
 6859SOL    HW120828   5.072   0.656   1.827  0.1403  0.2528 -0.1186
 6859SOL    HW220829   5.026   0.800   1.812  0.1762  0.5321  2.1315
 6860SOL     OW20830   4.261   3.190   0.216 -0.9931 -0.3649  0.2437
 6860SOL    HW120831   4.234   3.243   0.290 -1.1073 -0.1825  0.0727
 6860SOL    HW220832   4.319   3.248   0.166 -0.6947 -0.5805  0.3381
 6861SOL     OW20833   1.731   2.958   2.314  0.0204 -0.1976  0.1125
 6861SOL    HW120834   1.751   3.034   2.369  1.9090  0.0224 -0.7917
 6861SOL    HW220835   1.724   2.885   2.376  2.3622 -0.0067  0.7118
 6862SOL     OW20836   4.514   0.769   3.085  0.1616  0.6554  0.1259
 6862SOL    HW120837   4.431   0.741   3.123  0.6891 -0.0951  0.7415
 6862SOL    HW220838   4.489   0.828   3.014 -1.1017 -2.3831 -2.1903
 6863SOL     OW20839   3.363   4.970   1.568  0.9300  0.8922 -0.5350
 6863SOL    HW120840   3.316   4.897   1.526 -0.3031  0.5417  1.3440
 6863SOL    HW220841   3.443   4.931   1.602  1.2219  0.8604 -1.2450
 6864SOL     OW20842   4.294   0.788   3.869 -0.1066  0.0148  0.0206
 6864SOL    HW120843   4.389   0.799   3.875 -0.1647  0.4272  0.2562
 6864SOL    HW220844   4.263   0.873   3.837 -0.2804 -0.5382 -1.3426
 6865SOL     OW20845   5.555   0.936   2.002 -0.6816  0.7075  0.2605
 6865SOL    HW120846   5.585   1.009   1.948 -1.0652  0.7185  0.0629
 6865SOL    HW220847   5.523   0.977   2.082  1.3883  0.5941  1.2151
 6866SOL     OW20848   5.451   1.178   5.138  0.3577 -0.0602  0.8221
 6866SOL    HW120849   5.397   1.124   5.079  1.6849  1.3022 -1.8014
 6866SOL    HW220850   5.388   1.234   5.183 -0.8577 -2.3119  2.1425
 6867SOL     OW20851   3.483   2.197   5.120  0.0647 -0.4757 -0.5364
 6867SOL    HW120852   3.415   2.140   5.085 -1.4183 -0.5123  2.0897
 6867SOL    HW220853   3.455   2.285   5.097  0.9463 -0.6365 -2.3198
 6868SOL     OW20854   5.888   3.019   5.763 -0.0111 -0.4334  0.5415
 6868SOL    HW120855   5.900   2.924   5.763 -0.5575 -0.5045  0.8456
 6868SOL    HW220856   5.899   3.045   5.855  1.3965 -0.0274  0.2911
 6869SOL     OW20857   3.306   0.146   4.752 -0.6025  0.4867 -0.0622
 6869SOL    HW120858   3.248   0.106   4.687  0.2664 -1.1646  0.1206
 6869SOL    HW220859   3.248   0.196   4.809 -1.6135  0.3196 -0.9253
 6870SOL     OW20860   5.792   0.526   1.292  0.1155 -0.7954  0.3167
 6870SOL    HW120861   5.872   0.535   1.241 -1.0631 -1.8860 -1.8662
 6870SOL    HW220862   5.820   0.536   1.383  2.6768 -0.9606 -0.3875
 6871SOL     OW20863   0.576   3.241   6.343  0.3899 -0.4236  0.2635
 6871SOL    HW120864   0.487   3.218   6.370  0.5307 -1.9119 -0.4073
 6871SOL    HW220865   0.586   3.200   6.257  1.1233  1.2558 -0.4980
 6872SOL     OW20866   3.143   4.270   2.690 -0.1028 -0.2992 -0.2538
 6872SOL    HW120867   3.139   4.231   2.778  0.1252 -0.5840 -0.3675
 6872SOL    HW220868   3.215   4.332   2.694 -1.4787  1.3361  0.4066
 6873SOL     OW20869   6.042   3.502   2.624 -0.2296  0.6324  0.2419
 6873SOL    HW120870   6.021   3.448   2.548  0.0462 -0.3425  0.8329
 6873SOL    HW220871   6.016   3.591   2.599 -2.3767 -0.0371 -0.1050
 6874SOL     OW20872   0.810   5.736   2.001  0.0804  0.3978 -0.4519
 6874SOL    HW120873   0.889   5.757   1.951 -0.0054  0.9505 -0.3616
 6874SOL    HW220874   0.747   5.805   1.977 -0.1834  0.2870 -0.0950
 6875SOL     OW20875   5.424   0.678   3.236 -0.3189 -0.1207 -0.2826
 6875SOL    HW120876   5.433   0.704   3.144  0.2444 -0.6374 -0.3822
 6875SOL    HW220877   5.382   0.752   3.278 -1.2450 -0.1551 -1.1088
 6876SOL     OW20878   1.773   2.493   3.047  0.5853 -0.3955  0.1860
 6876SOL    HW120879   1.803   2.402   3.037 -0.4964 -0.6199 -1.3721
 6876SOL    HW220880   1.842   2.545   3.005  1.7806 -0.3524  2.0920
 6877SOL     OW20881   0.266   0.993   3.156 -0.2305  0.2146 -0.1948
 6877SOL    HW120882   0.289   1.040   3.076 -1.1992 -0.0682 -0.6514
 6877SOL    HW220883   0.183   1.033   3.184  0.2350  0.5030  0.8307
 6878SOL     OW20884   5.065   5.926   1.969 -0.1522 -0.1047  0.0249
 6878SOL    HW120885   5.153   5.962   1.959  0.1592 -0.0808  2.2317
 6878SOL    HW220886   5.008   5.989   1.925  0.9316 -0.3937 -1.9109
 6879SOL     OW20887   2.331   5.940   6.253  0.2336  0.2984 -0.0023
 6879SOL    HW120888   2.280   5.883   6.312  0.7969  0.4691  0.6637
 6879SOL    HW220889   2.420   5.937   6.288  0.5878  0.3710 -0.8849
 6880SOL     OW20890   2.429   0.692   4.066 -0.1977 -0.1761 -0.3124
 6880SOL    HW120891   2.489   0.647   4.007 -1.8456 -2.7648 -0.1850
 6880SOL    HW220892   2.342   0.661   4.039 -1.2027  0.7126  1.7220
 6881SOL     OW20893   5.217   0.593   5.230 -0.2351 -0.0243 -0.6162
 6881SOL    HW120894   5.263   0.677   5.221  0.1356 -0.2392 -0.7668
 6881SOL    HW220895   5.170   0.601   5.313 -1.3991  0.8908 -1.3278
 6882SOL     OW20896   2.286   2.574   3.103 -0.7483 -0.2406 -0.7174
 6882SOL    HW120897   2.322   2.657   3.072 -0.6242 -0.3943 -0.9860
 6882SOL    HW220898   2.197   2.596   3.131 -0.4933  0.1103 -0.1799
 6883SOL     OW20899   5.974   2.131   5.500  0.3850 -0.5747  0.7056
 6883SOL    HW120900   5.999   2.084   5.580  0.0103 -1.7496  0.1548
 6883SOL    HW220901   5.885   2.101   5.481  0.3169  0.0070  0.0713
 6884SOL     OW20902   4.352   4.108   0.682 -0.3924 -0.0827  0.0419
 6884SOL    HW120903   4.281   4.166   0.708 -2.4286 -1.8866 -1.1057
 6884SOL    HW220904   4.399   4.156   0.614 -0.8338  0.9473  0.4556
 6885SOL     OW20905   5.498   1.028   0.326 -0.5475  0.2063  0.3558
 6885SOL    HW120906   5.587   1.016   0.291 -0.2220 -0.5697  1.4063
 6885SOL    HW220907   5.512   1.058   0.415 -1.3598  0.5684  0.3647
 6886SOL     OW20908   0.492   6.251   3.042 -0.1893  0.2236  0.4706
 6886SOL    HW120909   0.509   6.174   3.095  0.8598  0.6836  0.8246
 6886SOL    HW220910   0.414   6.229   2.992 -0.7223 -0.5379  1.5904
 6887SOL     OW20911   3.315   3.586   3.482  0.1733  0.5781 -0.3447
 6887SOL    HW120912   3.264   3.645   3.426 -1.1415  0.7691  0.9696
 6887SOL    HW220913   3.395   3.635   3.502  0.1057  0.9958 -1.0742
 6888SOL     OW20914   6.184   1.121   0.026 -0.3125  0.5137 -0.2391
 6888SOL    HW120915   6.138   1.161  -0.048 -1.0279  1.0762  0.4830
 6888SOL    HW220916   6.121   1.126   0.098  0.5473  0.4356  0.5383
 6889SOL     OW20917   2.308   0.814   0.754 -0.3871 -0.0958 -0.2950
 6889SOL    HW120918   2.231   0.758   0.753 -0.6050  0.2003 -0.4311
 6889SOL    HW220919   2.377   0.762   0.711 -0.7934  0.0289 -1.1224
 6890SOL     OW20920   4.292   1.982   1.824 -0.4790  0.3382 -0.4297
 6890SOL    HW120921   4.316   2.049   1.888 -0.8809  0.5064 -0.4521
 6890SOL    HW220922   4.256   1.910   1.877 -2.0057  0.9866 -0.5317
 6891SOL     OW20923   1.207   1.350   2.367 -0.3459  0.5610 -0.0147
 6891SOL    HW120924   1.191   1.330   2.275 -0.7310  0.3929  0.0914
 6891SOL    HW220925   1.247   1.438   2.366  1.4347 -0.2033 -0.4858
 6892SOL     OW20926   2.019   4.673   1.893  0.0695 -0.0081 -0.7880
 6892SOL    HW120927   2.041   4.718   1.974  0.4351 -0.6171 -0.5384
 6892SOL    HW220928   2.036   4.580   1.912 -2.1621 -0.4702 -0.7594
 6893SOL     OW20929   4.080   1.009   2.049 -0.4022 -0.1912 -0.5322
 6893SOL    HW120930   4.065   0.925   2.090 -1.0232  0.3220  0.3051
 6893SOL    HW220931   4.172   1.006   2.022 -0.1124 -0.7094  0.4836
 6894SOL     OW20932   2.524   1.658   4.899 -0.0375 -0.2377  0.3984
 6894SOL    HW120933   2.574   1.577   4.902 -0.1032 -0.2538  1.6076
 6894SOL    HW220934   2.588   1.726   4.879  0.2356 -0.4296  0.6164
 6895SOL     OW20935   0.368   0.530   3.710 -0.1737  0.5109  0.0793
 6895SOL    HW120936   0.336   0.618   3.733 -0.7316  0.4667 -0.5092
 6895SOL    HW220937   0.315   0.504   3.636 -0.4369 -0.5924  0.6388
 6896SOL     OW20938   3.748   5.451   1.005  0.7123 -0.3119 -0.0470
 6896SOL    HW120939   3.717   5.477   0.918  0.0264 -0.5474  0.1206
 6896SOL    HW220940   3.671   5.458   1.061  1.0338 -0.6290  0.4404
 6897SOL     OW20941   0.033   5.291   0.225  0.1983  0.3307 -0.4188
 6897SOL    HW120942   0.038   5.342   0.144  0.9380  0.9734  0.0185
 6897SOL    HW220943   0.119   5.249   0.232  0.4223  0.9071  0.4297
 6898SOL     OW20944   1.361   5.057   4.633 -0.0769  0.0426 -0.5505
 6898SOL    HW120945   1.317   4.974   4.650 -1.6636  0.8558 -0.5163
 6898SOL    HW220946   1.365   5.063   4.537 -0.0998  0.0075 -0.5535
 6899SOL     OW20947   3.703   1.461   5.771 -0.0010  0.0028 -0.4433
 6899SOL    HW120948   3.631   1.421   5.819 -1.4241  1.4791 -1.2272
 6899SOL    HW220949   3.759   1.499   5.838 -0.3095 -0.5698  0.1511
 6900SOL     OW20950   1.801   6.076   0.062  0.1153  0.4062  0.2432
 6900SOL    HW120951   1.762   6.107  -0.020  0.2399  1.6519  0.6448
 6900SOL    HW220952   1.891   6.056   0.039 -0.5353 -1.9443 -0.5568
 6901SOL     OW20953   1.404   2.778   6.236 -0.7674  0.1271 -0.3848
 6901SOL    HW120954   1.385   2.848   6.174  0.0833  0.5672 -0.1567
 6901SOL    HW220955   1.452   2.713   6.184  2.7420  1.8546  0.3993
 6902SOL     OW20956   2.529   3.911   5.827 -0.0693  0.0520 -0.1135
 6902SOL    HW120957   2.505   3.950   5.743 -0.9343  0.6660  0.3979
 6902SOL    HW220958   2.604   3.963   5.857  1.4959 -1.3695 -1.3480
 6903SOL     OW20959   0.566   2.033   3.044  0.4763  0.3784  0.2890
 6903SOL    HW120960   0.626   1.998   3.110  0.9691 -0.4212 -0.5533
 6903SOL    HW220961   0.624   2.061   2.972 -0.1817 -1.4416 -1.0139
 6904SOL     OW20962   3.573   3.252   2.381  0.7466  0.1287 -0.5159
 6904SOL    HW120963   3.642   3.193   2.351 -1.0213 -1.5404 -1.5927
 6904SOL    HW220964   3.534   3.286   2.300  1.2909  2.2897  0.0936
 6905SOL     OW20965   5.660   4.714   0.133  0.7241 -0.6575  0.2406
 6905SOL    HW120966   5.750   4.736   0.112  0.7637 -0.4447  0.6222
 6905SOL    HW220967   5.607   4.778   0.085  0.7452 -1.1298 -0.4360
 6906SOL     OW20968   2.919   3.767   1.840 -0.0283  0.2116 -0.5594
 6906SOL    HW120969   2.989   3.765   1.905 -0.3855 -1.4763 -0.1955
 6906SOL    HW220970   2.947   3.834   1.778  1.2749  0.4774  0.2652
 6907SOL     OW20971   0.461   2.220   1.059  0.1408  0.1189 -0.5660
 6907SOL    HW120972   0.504   2.303   1.082  1.2820 -0.0083 -2.1134
 6907SOL    HW220973   0.495   2.157   1.124 -0.1069  0.6730  0.1151
 6908SOL     OW20974   2.520   3.764   2.526  0.2906 -0.4540  0.1950
 6908SOL    HW120975   2.492   3.673   2.527 -0.2493 -0.3695 -2.0546
 6908SOL    HW220976   2.503   3.794   2.436  2.5074  1.2284  0.2519
 6909SOL     OW20977   4.785   1.941   5.760 -0.1205 -0.1180 -0.2383
 6909SOL    HW120978   4.787   2.035   5.775 -1.7090  0.4630 -2.9935
 6909SOL    HW220979   4.740   1.931   5.676  0.0357 -3.3444 -0.0599
 6910SOL     OW20980   1.415   2.643   5.250 -0.4058  0.3788 -0.3376
 6910SOL    HW120981   1.493   2.593   5.274 -0.2814 -0.2743 -2.0162
 6910SOL    HW220982   1.373   2.663   5.334  0.1635 -1.5056  0.4395
 6911SOL     OW20983   4.017   1.611   4.810 -0.0598 -0.0488  0.5151
 6911SOL    HW120984   4.038   1.526   4.773  0.9557  0.6305 -0.5535
 6911SOL    HW220985   4.045   1.674   4.743 -1.2411  1.1112  1.0620
 6912SOL     OW20986   4.905   3.882   5.089 -0.2730 -0.0235 -0.7519
 6912SOL    HW120987   4.995   3.849   5.091 -0.1512  0.1716 -2.1730
 6912SOL    HW220988   4.853   3.806   5.063 -0.3375  0.2094 -1.3115
 6913SOL     OW20989   0.109   5.877   0.792  0.7151  0.6442 -0.3218
 6913SOL    HW120990   0.154   5.795   0.812 -0.0821  0.0522 -0.8985
 6913SOL    HW220991   0.179   5.940   0.774  1.3760  0.4234  1.3188
 6914SOL     OW20992   0.080   2.999   1.881  0.0481  0.4235 -0.2480
 6914SOL    HW120993   0.003   2.942   1.882  1.1089 -1.1306 -1.8907
 6914SOL    HW220994   0.072   3.050   1.961 -1.2307 -1.6650  1.0616
 6915SOL     OW20995   5.160   3.523   4.201  0.0481  1.1564 -0.4772
 6915SOL    HW120996   5.156   3.581   4.277 -0.2830  3.1828 -1.9490
 6915SOL    HW220997   5.241   3.548   4.156  0.3050 -0.0997 -0.7627
 6916SOL     OW20998   2.215   5.280   1.071 -0.7240  0.4494 -0.2474
 6916SOL    HW120999   2.232   5.186   1.073 -0.7199  0.3536 -2.2255
 6916SOL    HW221000   2.287   5.316   1.019 -1.6593  1.2931 -0.9968
 6917SOL     OW21001   3.553   2.178   4.641 -0.3753  0.0757 -0.0847
 6917SOL    HW121002   3.642   2.160   4.674 -0.3235 -0.9446 -0.7392
 6917SOL    HW221003   3.525   2.255   4.690  0.7810  0.2714  0.3096
 6918SOL     OW21004   6.224   0.142   2.689  0.4385  0.2603  0.0296
 6918SOL    HW121005   6.191   0.055   2.666  0.2932  0.2029  0.4410
 6918SOL    HW221006   6.315   0.127   2.715  0.4853  0.2674 -0.1300
 6919SOL     OW21007   3.792   3.881   1.591 -0.0769 -0.3918  0.7138
 6919SOL    HW121008   3.742   3.946   1.543  1.1865 -0.0534 -0.1836
 6919SOL    HW221009   3.788   3.802   1.537  2.2572  0.2944 -0.6020
 6920SOL     OW21010   5.919   4.373   0.986  0.7567 -0.0003 -0.1203
 6920SOL    HW121011   5.971   4.454   0.984  0.0104  0.4846 -2.4609
 6920SOL    HW221012   5.892   4.365   1.077  5.1606 -0.5187  1.3924
 6921SOL     OW21013   1.444   3.596   1.377 -0.3229 -0.0374 -0.1621
 6921SOL    HW121014   1.520   3.637   1.417 -0.6259 -0.3694  0.7647
 6921SOL    HW221015   1.462   3.598   1.283 -0.2798  2.1197 -0.1458
 6922SOL     OW21016   3.057   6.253   1.987 -0.0909 -0.5693 -0.0077
 6922SOL    HW121017   3.053   6.335   1.939 -0.4468 -0.3290  0.4265
 6922SOL    HW221018   3.151   6.236   1.999 -0.0062  0.6498  1.3730
 6923SOL     OW21019   3.126   1.097   3.206 -0.2103 -0.0207  0.4842
 6923SOL    HW121020   3.122   1.094   3.110 -1.7181 -0.2531  0.5334
 6923SOL    HW221021   3.150   1.187   3.227  1.4808 -0.2929 -0.1167
 6924SOL     OW21022   4.275   4.329   5.398  0.5625 -0.0993  0.5764
 6924SOL    HW121023   4.315   4.411   5.370 -0.0832 -0.0820 -0.3543
 6924SOL    HW221024   4.329   4.300   5.472  0.9832  0.9958  0.7250
 6925SOL     OW21025   4.157   4.722   5.909  0.1646 -0.1937 -0.2833
 6925SOL    HW121026   4.091   4.790   5.892 -1.1713 -1.7488 -1.6055
 6925SOL    HW221027   4.233   4.771   5.939 -1.8188  1.6480  2.2448
 6926SOL     OW21028   0.758   5.914   1.663 -0.4087 -0.2690  0.5214
 6926SOL    HW121029   0.797   5.977   1.723 -0.5251  0.0582  0.2530
 6926SOL    HW221030   0.697   5.965   1.610  0.6256 -0.2873 -0.7415
 6927SOL     OW21031   2.245   1.943   2.724  0.1658  0.4516  0.4705
 6927SOL    HW121032   2.293   2.021   2.695  0.4547  0.0071 -0.2703
 6927SOL    HW221033   2.159   1.951   2.682  0.0466  0.5785  0.7346
 6928SOL     OW21034   2.994   1.756   4.683  0.4386  0.2721 -0.3101
 6928SOL    HW121035   2.902   1.775   4.701 -0.0811 -2.1968  0.0170
 6928SOL    HW221036   2.993   1.675   4.632  2.3485  1.8279 -3.0928
 6929SOL     OW21037   6.292   0.643   5.278 -0.7955  0.5722  0.4364
 6929SOL    HW121038   6.312   0.678   5.365 -0.3713  2.5441 -0.3978
 6929SOL    HW221039   6.277   0.721   5.224 -2.1740 -0.6316 -1.0087
 6930SOL     OW21040   4.342   0.845   0.988 -0.7625  0.3072 -0.4100
 6930SOL    HW121041   4.348   0.750   0.997  1.3576  0.5833  2.2984
 6930SOL    HW221042   4.393   0.865   0.909 -0.8123 -0.7813 -0.7206
 6931SOL     OW21043   0.694   5.191   4.023  0.5231  0.0515  0.0628
 6931SOL    HW121044   0.701   5.102   4.058 -1.0493 -0.0413  0.1968
 6931SOL    HW221045   0.783   5.225   4.028  0.5705 -0.2049  3.4789
 6932SOL     OW21046   0.958   3.375   0.805 -0.1470 -0.9118 -0.3187
 6932SOL    HW121047   0.943   3.411   0.892 -3.1331  0.0271 -1.0805
 6932SOL    HW221048   0.948   3.281   0.815 -0.9424 -0.7755  0.3148
 6933SOL     OW21049   2.552   5.299   6.059  0.1272 -0.0894 -0.0269
 6933SOL    HW121050   2.512   5.351   6.129 -0.4611  1.2917 -1.3200
 6933SOL    HW221051   2.641   5.334   6.052 -0.9441  2.5533 -2.4375
 6934SOL     OW21052   3.809   6.303   2.440 -0.7083 -0.3575 -0.1868
 6934SOL    HW121053   3.718   6.329   2.430 -1.2654 -1.2917  1.7622
 6934SOL    HW221054   3.853   6.333   2.361 -2.8938 -0.6820 -1.5920
 6935SOL     OW21055   0.811   5.811   5.792 -0.4172  0.0028  0.1975
 6935SOL    HW121056   0.894   5.765   5.776 -0.7444 -0.3932 -0.4163
 6935SOL    HW221057   0.815   5.888   5.736 -0.7515 -0.3798 -0.3625
 6936SOL     OW21058   0.964   1.454   3.018 -0.1921  0.4557 -0.5976
 6936SOL    HW121059   0.941   1.423   2.930 -1.6030 -0.3253  0.0148
 6936SOL    HW221060   1.020   1.385   3.054 -2.3646 -0.9298  0.3225
 6937SOL     OW21061   0.881   1.069   5.900 -0.6757  0.7213 -0.1554
 6937SOL    HW121062   0.957   1.113   5.861  0.1934 -0.5729  0.0060
 6937SOL    HW221063   0.806   1.102   5.851  0.2214  0.3103 -1.8847
 6938SOL     OW21064   2.281   2.138   3.841 -0.2041  0.3753  0.5096
 6938SOL    HW121065   2.306   2.047   3.858 -0.5441  0.4402  1.3721
 6938SOL    HW221066   2.364   2.183   3.828 -0.0595 -0.3862 -1.8033
 6939SOL     OW21067   1.654   6.195   6.208  0.8996 -0.6593  0.5734
 6939SOL    HW121068   1.680   6.281   6.175  0.9995 -0.7156  0.5074
 6939SOL    HW221069   1.573   6.212   6.257  2.1883 -0.0980  2.6644
 6940SOL     OW21070   3.253   1.812   4.491  0.3015 -0.1876  0.9558
 6940SOL    HW121071   3.273   1.906   4.498 -0.5972  0.0536  0.3224
 6940SOL    HW221072   3.196   1.794   4.566  0.1216 -0.1325  0.8321
 6941SOL     OW21073   5.007   3.510   1.899  0.1473 -0.9077  0.1526
 6941SOL    HW121074   5.092   3.468   1.914  0.7109 -0.0005 -0.4490
 6941SOL    HW221075   5.022   3.603   1.915 -0.6033 -0.6651 -0.4987
 6942SOL     OW21076   5.682   0.227   3.299 -0.6393 -0.5983 -0.1833
 6942SOL    HW121077   5.650   0.276   3.223 -0.9148 -2.0479 -1.0402
 6942SOL    HW221078   5.766   0.267   3.319 -0.7374  0.0552 -1.0171
 6943SOL     OW21079   1.099   4.917   5.682  0.4209 -0.2065 -0.0998
 6943SOL    HW121080   1.163   4.847   5.668  1.6391  0.7707  0.4415
 6943SOL    HW221081   1.150   4.998   5.679 -0.7551  0.5879  0.5624
 6944SOL     OW21082   0.443   2.457   1.766 -0.2752 -0.2163 -0.0114
 6944SOL    HW121083   0.387   2.424   1.836  1.1743  0.2102  1.4060
 6944SOL    HW221084   0.392   2.527   1.725 -1.7251 -1.4332 -0.3874
 6945SOL     OW21085   4.448   0.782   6.242 -0.4039 -0.0373 -0.1844
 6945SOL    HW121086   4.506   0.843   6.286 -0.6765 -0.9180  1.4555
 6945SOL    HW221087   4.368   0.832   6.227 -0.5248  0.1075  0.8834
 6946SOL     OW21088   5.198   3.249   2.315 -0.2191 -0.0683  0.1003
 6946SOL    HW121089   5.200   3.154   2.306 -0.6495 -0.4359  2.9466
 6946SOL    HW221090   5.287   3.277   2.297  0.0387 -1.0799 -0.2395
 6947SOL     OW21091   0.615   3.197   5.798 -0.0110 -0.1180  0.7227
 6947SOL    HW121092   0.557   3.127   5.768 -0.6404  1.2504 -1.4347
 6947SOL    HW221093   0.694   3.187   5.746  0.2433  0.2724  1.0252
 6948SOL     OW21094   1.810   3.579   0.806 -0.8872  0.0257  0.1674
 6948SOL    HW121095   1.893   3.577   0.759  0.2587 -2.5396  2.0579
 6948SOL    HW221096   1.767   3.659   0.776  2.8214  2.1924  0.1217
 6949SOL     OW21097   4.516   4.409   4.007  0.2785 -0.7308 -0.8372
 6949SOL    HW121098   4.484   4.344   4.069  2.9487  0.1459  1.6774
 6949SOL    HW221099   4.442   4.423   3.947 -1.8426 -2.9403  1.0361
 6950SOL     OW21100   1.849   2.232   2.589 -0.1762 -0.5813 -0.1145
 6950SOL    HW121101   1.860   2.157   2.648  1.4538  0.3624  0.8430
 6950SOL    HW221102   1.825   2.193   2.505  1.0183 -2.2285  0.2586
 6951SOL     OW21103   1.101   2.754   2.399 -0.1755 -0.1064 -0.0620
 6951SOL    HW121104   1.056   2.796   2.472 -0.4198 -2.6942  1.3996
 6951SOL    HW221105   1.042   2.684   2.372  0.6104 -0.1649 -1.7390
 6952SOL     OW21106   0.825   5.823   6.097 -0.4395  0.0323 -0.1587
 6952SOL    HW121107   0.901   5.814   6.040 -0.0038  0.3113  0.3762
 6952SOL    HW221108   0.760   5.870   6.044 -0.3947 -0.5723 -0.7562
 6953SOL     OW21109   0.513   2.461   5.293 -0.7171 -0.1400  0.2854
 6953SOL    HW121110   0.485   2.411   5.369 -1.0040  0.1782  0.3941
 6953SOL    HW221111   0.608   2.469   5.302 -0.4210 -2.1132 -0.6148
 6954SOL     OW21112   4.942   4.214   1.033 -0.4002  0.3736 -0.0468
 6954SOL    HW121113   4.848   4.202   1.020  0.0050 -1.8006 -1.3316
 6954SOL    HW221114   4.969   4.276   0.965 -0.7673  0.4864 -0.0886
 6955SOL     OW21115   2.946   0.205   5.341 -0.1265  0.0552  0.2290
 6955SOL    HW121116   2.936   0.120   5.385 -1.9787  0.5941  0.9509
 6955SOL    HW221117   2.909   0.191   5.254  2.7110 -0.7573 -0.9697
 6956SOL     OW21118   5.395   3.829   0.988  0.0839 -0.4463 -0.2213
 6956SOL    HW121119   5.403   3.903   0.927  0.9917  0.7988  1.3160
 6956SOL    HW221120   5.480   3.824   1.030 -0.7065 -0.8030  1.4204
 6957SOL     OW21121   0.855   5.256   2.925 -0.2820 -0.1903 -0.1054
 6957SOL    HW121122   0.885   5.343   2.951 -1.0253  0.6055 -1.7315
 6957SOL    HW221123   0.932   5.200   2.934  0.7360  1.0456 -0.8289
 6958SOL     OW21124   0.173   0.574   1.855 -0.4404 -0.0101 -0.2091
 6958SOL    HW121125   0.101   0.571   1.792 -0.2993  0.3821 -0.3960
 6958SOL    HW221126   0.130   0.583   1.940 -0.6122  2.3487 -0.4635
 6959SOL     OW21127   5.628   4.977   6.046  0.3160 -0.5753 -0.8224
 6959SOL    HW121128   5.546   5.005   6.004 -0.3122 -0.6821  0.2955
 6959SOL    HW221129   5.684   5.055   6.044 -0.3416 -0.0812 -0.3304
 6960SOL     OW21130   3.558   1.841   2.017  0.0157  0.1445  0.4558
 6960SOL    HW121131   3.564   1.758   2.063 -1.6526 -0.0260  0.4200
 6960SOL    HW221132   3.647   1.877   2.020  0.3540 -0.7481  2.1259
 6961SOL     OW21133   3.451   2.737   1.895 -0.0092  0.3827 -0.3807
 6961SOL    HW121134   3.420   2.695   1.815 -1.0460  1.2136 -0.4427
 6961SOL    HW221135   3.542   2.708   1.905 -0.3674 -1.0070 -0.9786
 6962SOL     OW21136   0.584   4.662   0.557 -0.5362  0.3961  0.2938
 6962SOL    HW121137   0.546   4.579   0.585 -1.0262  0.2791 -0.6853
 6962SOL    HW221138   0.511   4.724   0.562 -0.0852  0.8793  1.3919
 6963SOL     OW21139   2.293   1.507   2.212  0.4884 -0.6137 -0.1849
 6963SOL    HW121140   2.367   1.447   2.206  0.9553 -0.0609 -0.0157
 6963SOL    HW221141   2.269   1.505   2.305  0.8257 -0.1570 -0.0874
 6964SOL     OW21142   0.024   4.982   4.335  0.5641 -0.2946  0.7747
 6964SOL    HW121143   0.103   5.035   4.324  0.3425 -0.2793 -1.2010
 6964SOL    HW221144  -0.047   5.037   4.303 -0.1665 -0.5644  1.8837
 6965SOL     OW21145   3.196   1.007   3.447  0.4343  0.7744 -0.3307
 6965SOL    HW121146   3.155   1.022   3.362  0.1409 -1.4469 -0.6310
 6965SOL    HW221147   3.280   0.966   3.426  0.4724  0.4407  0.4489
 6966SOL     OW21148   2.629   1.206   3.289 -0.6633 -0.1167  0.2004
 6966SOL    HW121149   2.708   1.220   3.237 -0.2995  0.8190  0.9876
 6966SOL    HW221150   2.594   1.123   3.256 -0.7494  0.6842 -1.9261
 6967SOL     OW21151   5.432   4.273   5.655  0.2855  0.6109  0.7047
 6967SOL    HW121152   5.462   4.363   5.648 -0.4930  0.8294  0.0562
 6967SOL    HW221153   5.511   4.220   5.644  0.4707  1.1713 -0.9139
 6968SOL     OW21154   2.150   2.933   0.397  0.2357 -0.3404  0.1533
 6968SOL    HW121155   2.228   2.899   0.352  0.3181 -2.7722  1.9183
 6968SOL    HW221156   2.175   3.020   0.427  0.0696  1.6625 -4.5449
 6969SOL     OW21157   3.469   0.914   3.468  0.8958 -0.3963 -0.6162
 6969SOL    HW121158   3.491   0.823   3.486  1.7963  0.0501  0.7275
 6969SOL    HW221159   3.536   0.942   3.405  1.5557 -0.2740  0.1118
 6970SOL     OW21160   3.747   2.456   3.504  0.0665  0.2589 -0.0761
 6970SOL    HW121161   3.720   2.471   3.595  0.1357  0.9360 -0.1571
 6970SOL    HW221162   3.712   2.370   3.482 -0.6186  0.4236  0.3398
 6971SOL     OW21163   1.343   0.812   1.734 -0.1101  0.0809 -0.4125
 6971SOL    HW121164   1.355   0.895   1.689 -0.7638 -0.0681 -0.8696
 6971SOL    HW221165   1.249   0.798   1.735 -0.1338  0.1884  1.2099
 6972SOL     OW21166   3.905   2.459   1.017  0.2265  0.4297  0.8646
 6972SOL    HW121167   3.831   2.448   0.957  1.4249  3.2636 -1.3369
 6972SOL    HW221168   3.868   2.509   1.091  0.0595  3.0862 -0.8687
 6973SOL     OW21169   5.334   1.599   0.245  0.7311 -0.3096 -0.1231
 6973SOL    HW121170   5.361   1.687   0.268  1.9867 -1.1905  2.0215
 6973SOL    HW221171   5.413   1.556   0.213  0.0878 -0.6368 -1.3742
 6974SOL     OW21172   3.205   1.033   1.004 -0.4334 -0.7190  0.2368
 6974SOL    HW121173   3.122   0.986   1.014  0.3057 -2.5652 -1.4161
 6974SOL    HW221174   3.256   1.007   1.080 -0.2968 -2.1287 -0.2940
 6975SOL     OW21175   4.093   5.613   0.203 -0.3098  0.4001 -0.1655
 6975SOL    HW121176   4.035   5.538   0.208 -1.7802  1.3219 -2.1502
 6975SOL    HW221177   4.100   5.633   0.110  1.7082  1.4833  0.1488
 6976SOL     OW21178   6.096   6.080   3.030 -0.1415 -0.3336  0.5948
 6976SOL    HW121179   6.024   6.057   3.089  0.2057  1.3824  1.7753
 6976SOL    HW221180   6.076   6.169   3.000  1.3164  0.0814  0.7433
 6977SOL     OW21181   4.126   3.389   0.965 -0.1416  0.2216 -0.1735
 6977SOL    HW121182   4.105   3.343   1.046  0.7092 -0.5156 -0.3469
 6977SOL    HW221183   4.048   3.440   0.945 -0.5101  0.1108  0.8966
 6978SOL     OW21184   6.253   5.477   4.056  0.1672 -0.7160  0.4986
 6978SOL    HW121185   6.201   5.534   4.111 -0.3572 -0.6203 -0.0806
 6978SOL    HW221186   6.280   5.533   3.983 -1.7894 -1.5853 -0.9849
 6979SOL     OW21187   4.337   3.396   4.747  0.4887  0.9253 -0.1761
 6979SOL    HW121188   4.265   3.453   4.775 -0.0718  0.4622 -0.6494
 6979SOL    HW221189   4.405   3.409   4.813 -0.6003  0.2358  1.1323
 6980SOL     OW21190   1.225   3.171   5.956 -0.0744 -0.2035 -0.0656
 6980SOL    HW121191   1.297   3.116   5.989 -0.4872  0.1323  1.4326
 6980SOL    HW221192   1.158   3.166   6.024 -1.5574 -0.6269 -1.5011
 6981SOL     OW21193   4.388   4.415   4.518  0.1073 -0.1486 -0.2481
 6981SOL    HW121194   4.369   4.353   4.447  0.0693 -1.9604  1.2816
 6981SOL    HW221195   4.483   4.416   4.525  0.1442  0.5424 -0.7309
 6982SOL     OW21196   1.592   0.142   1.908 -0.0339 -0.3441  0.1306
 6982SOL    HW121197   1.643   0.204   1.856 -1.7325  0.7991 -0.2872
 6982SOL    HW221198   1.605   0.057   1.864  0.5852  0.1290 -0.6256
 6983SOL     OW21199   0.726   1.629   2.950  0.4575 -0.0514  0.0815
 6983SOL    HW121200   0.792   1.561   2.952 -1.4935 -2.2258 -2.4562
 6983SOL    HW221201   0.769   1.704   2.909  1.3127 -1.5293 -1.8387
 6984SOL     OW21202   5.523   0.628   3.701 -0.5605 -0.2533 -0.4631
 6984SOL    HW121203   5.594   0.621   3.764  0.2030 -0.8485 -1.3537
 6984SOL    HW221204   5.544   0.563   3.633 -2.0345 -0.5580 -0.6736
 6985SOL     OW21205   4.800   4.499   1.969 -0.0651  0.3120  0.6100
 6985SOL    HW121206   4.721   4.470   1.924  0.6123 -1.4564  0.4807
 6985SOL    HW221207   4.820   4.428   2.031  1.3667  0.7472  0.6797
 6986SOL     OW21208   1.328   0.782   5.299  0.0047  0.6101  0.5550
 6986SOL    HW121209   1.419   0.795   5.270  0.9735 -1.0642  2.5855
 6986SOL    HW221210   1.283   0.862   5.272  1.8647  1.1314 -1.2737
 6987SOL     OW21211   3.509   0.208   5.620  0.3354  0.7194  0.0364
 6987SOL    HW121212   3.414   0.202   5.607  0.0316  1.7843  1.5399
 6987SOL    HW221213   3.519   0.237   5.711  2.1171  0.5396 -0.0687
 6988SOL     OW21214   3.691   1.791   5.104  0.4014  0.1749 -0.0346
 6988SOL    HW121215   3.786   1.787   5.092  0.1545  0.5600 -2.3974
 6988SOL    HW221216   3.677   1.871   5.155  1.2347  0.9382 -0.9746
 6989SOL     OW21217   1.195   2.301   2.171  0.1442  0.4388  0.0809
 6989SOL    HW121218   1.115   2.276   2.125  0.7553 -1.6408  0.0246
 6989SOL    HW221219   1.165   2.335   2.255 -0.8208  0.6214 -0.3190
 6990SOL     OW21220   0.136   5.075   2.888  0.2962  0.0127 -0.5992
 6990SOL    HW121221   0.160   5.100   2.977 -1.2665 -0.0778 -0.1242
 6990SOL    HW221222   0.190   4.998   2.869  0.2242 -0.3151  0.4817
 6991SOL     OW21223   3.151   4.650   3.923 -0.4567 -0.6101 -0.4128
 6991SOL    HW121224   3.182   4.650   4.013  0.7661 -0.0820 -0.8063
 6991SOL    HW221225   3.231   4.654   3.870 -1.0751 -2.1527 -1.5641
 6992SOL     OW21226   5.189   0.442   4.019  0.4571 -0.0225  0.5020
 6992SOL    HW121227   5.211   0.433   3.927  0.0239 -0.8659  0.4723
 6992SOL    HW221228   5.098   0.414   4.025  0.8570 -1.2586  1.3767
 6993SOL     OW21229   5.497   5.755   0.477  0.4931  0.3067 -0.1168
 6993SOL    HW121230   5.457   5.670   0.497  1.6985  0.0612  1.3592
 6993SOL    HW221231   5.587   5.748   0.509  0.9662  1.7488 -1.0364
 6994SOL     OW21232   2.703   3.466   4.796 -0.5775  0.2511 -0.2750
 6994SOL    HW121233   2.786   3.419   4.807  0.3288  2.1305  1.8458
 6994SOL    HW221234   2.717   3.520   4.718 -0.7112 -1.0703 -1.2614
 6995SOL     OW21235   0.749   2.320   5.062 -0.9536 -0.4395  0.0969
 6995SOL    HW121236   0.743   2.305   5.156 -1.9555 -3.0557 -0.3082
 6995SOL    HW221237   0.668   2.285   5.027  0.2007 -1.2902 -1.9085
 6996SOL     OW21238   0.785   1.110   3.261 -0.2048  0.0338  0.6729
 6996SOL    HW121239   0.841   1.157   3.323  0.6631 -2.5927  2.0528
 6996SOL    HW221240   0.835   1.109   3.179  0.5436  0.0379  1.1211
 6997SOL     OW21241   0.321   5.793   5.299  0.2444  0.9815  0.1033
 6997SOL    HW121242   0.375   5.735   5.245  0.3510 -0.7348  1.9422
 6997SOL    HW221243   0.359   5.785   5.387 -4.3297 -2.3635  2.1733
 6998SOL     OW21244   1.488   4.441   2.627  0.0912  0.8612 -0.0374
 6998SOL    HW121245   1.397   4.440   2.658  0.3442 -0.5103  0.7315
 6998SOL    HW221246   1.538   4.401   2.698  0.9176 -0.8789 -1.5299
 6999SOL     OW21247   4.892   0.720   2.276  0.2195  0.2302  0.5083
 6999SOL    HW121248   4.826   0.789   2.277 -0.0255 -0.0069  0.6909
 6999SOL    HW221249   4.962   0.755   2.221 -0.6667 -0.0752 -0.8667
 7000SOL     OW21250   5.878   3.309   2.775  0.4843  0.1792 -0.3560
 7000SOL    HW121251   5.945   3.354   2.724  1.6681 -0.4621  0.5651
 7000SOL    HW221252   5.928   3.254   2.836 -0.8985 -1.2127 -0.4289
 7001SOL     OW21253   2.640   2.775   2.425 -0.0382 -0.1820  0.2783
 7001SOL    HW121254   2.592   2.693   2.412 -1.5279  0.5267  0.9871
 7001SOL    HW221255   2.655   2.779   2.520 -1.7150  1.2294  0.5410
 7002SOL     OW21256   4.291   2.052   4.412  0.7083 -0.3467 -0.1416
 7002SOL    HW121257   4.336   1.968   4.415 -1.6443 -1.6302  1.4963
 7002SOL    HW221258   4.199   2.031   4.397 -0.0816  1.8524  1.0465
 7003SOL     OW21259   4.759   4.880   3.450 -0.1872  0.0213  0.2181
 7003SOL    HW121260   4.716   4.963   3.429 -0.6603  0.1360  1.5388
 7003SOL    HW221261   4.846   4.904   3.479  0.6052 -0.1649 -1.8103
 7004SOL     OW21262   0.657   0.569   5.290  0.3327  0.1708 -0.9423
 7004SOL    HW121263   0.661   0.528   5.204 -1.4301  0.1075 -1.0161
 7004SOL    HW221264   0.581   0.626   5.287  1.3303  1.6457 -0.0343
 7005SOL     OW21265   0.324   2.004   4.855 -0.5586  0.1017 -0.0835
 7005SOL    HW121266   0.356   1.984   4.767 -1.1596 -0.0920 -0.2643
 7005SOL    HW221267   0.231   1.981   4.852 -0.9909  1.7112  0.0806
 7006SOL     OW21268   3.481   4.267   1.340 -0.1263  0.3336 -0.3160
 7006SOL    HW121269   3.393   4.230   1.352  0.6036 -1.5981 -0.4878
 7006SOL    HW221270   3.471   4.333   1.272 -1.3545 -0.2387 -0.7189
 7007SOL     OW21271   1.159   1.676   0.742 -0.1142  0.2458 -0.8115
 7007SOL    HW121272   1.085   1.622   0.715 -1.0680  0.2552  1.5459
 7007SOL    HW221273   1.229   1.614   0.760 -1.1156 -0.3193  1.5954
 7008SOL     OW21274   3.306   5.008   4.615  0.6959 -0.1525 -0.1517
 7008SOL    HW121275   3.297   5.097   4.580  1.5586 -0.2316 -0.5898
 7008SOL    HW221276   3.323   4.953   4.539  0.0077 -0.7243  0.0963
 7009SOL     OW21277   3.448   2.660   5.971 -0.1093  0.2840  0.5366
 7009SOL    HW121278   3.474   2.608   5.895  0.0021  1.0949  0.0015
 7009SOL    HW221279   3.524   2.713   5.990 -0.6819  1.2652  0.1818
 7010SOL     OW21280   5.330   5.799   2.180  0.0483 -0.0093  0.4959
 7010SOL    HW121281   5.278   5.795   2.100  0.1395 -1.4345  0.4885
 7010SOL    HW221282   5.266   5.811   2.250 -0.0622  0.8326  0.2627
 7011SOL     OW21283   0.289   4.469   2.875 -0.4388 -0.0729  0.4527
 7011SOL    HW121284   0.368   4.460   2.927 -0.6493  0.6988  0.9280
 7011SOL    HW221285   0.291   4.560   2.844 -0.8877 -0.1940  0.0582
 7012SOL     OW21286   1.141   4.691   4.709  0.0434  0.0081  0.1023
 7012SOL    HW121287   1.085   4.656   4.778 -0.5718  1.6598  0.5014
 7012SOL    HW221288   1.096   4.670   4.627 -1.6310  1.9588  0.4451
 7013SOL     OW21289   4.228   2.521   0.490 -0.6731  0.4342  0.0954
 7013SOL    HW121290   4.308   2.506   0.540 -0.3975  2.8398  0.5163
 7013SOL    HW221291   4.208   2.437   0.450  2.1538 -0.2188 -0.1409
 7014SOL     OW21292   4.538   0.202   5.262 -0.3422 -0.3739  0.4935
 7014SOL    HW121293   4.624   0.202   5.220  1.3333 -0.3632  3.5587
 7014SOL    HW221294   4.525   0.112   5.289 -0.3974 -0.0430  1.6277
 7015SOL     OW21295   2.581   6.062   4.156  0.1066  0.1526 -0.4799
 7015SOL    HW121296   2.521   6.130   4.127  0.3342 -0.3719 -2.2516
 7015SOL    HW221297   2.666   6.106   4.163  0.0919  0.2334 -0.8132
 7016SOL     OW21298   6.329   6.345   3.460  0.3525 -0.6620  0.4339
 7016SOL    HW121299   6.347   6.264   3.508  0.9322 -0.6495  0.2554
 7016SOL    HW221300   6.371   6.413   3.512  0.8077 -0.6224  0.0267
 7017SOL     OW21301   3.679   4.471   3.922 -0.5411 -0.4539  0.4667
 7017SOL    HW121302   3.774   4.464   3.931 -0.3274  0.4303 -0.8054
 7017SOL    HW221303   3.646   4.468   4.011  0.7498  0.0904  0.9795
 7018SOL     OW21304   0.796   1.112   2.748 -0.7890 -0.8377 -0.6670
 7018SOL    HW121305   0.773   1.019   2.750 -1.9208 -0.5578  0.9935
 7018SOL    HW221306   0.713   1.157   2.766  0.2948  0.3740  1.5866
 7019SOL     OW21307   2.332   4.221   2.065  0.0584  0.2257  0.2465
 7019SOL    HW121308   2.409   4.170   2.090 -1.6862 -0.8153  4.4441
 7019SOL    HW221309   2.331   4.294   2.127 -2.1736  0.3165  0.1841
 7020SOL     OW21310   5.877   2.352   1.736 -0.2647 -0.2948 -0.3362
 7020SOL    HW121311   5.782   2.355   1.743 -0.2267 -0.5776  0.3202
 7020SOL    HW221312   5.894   2.283   1.672 -0.5404  0.8702 -1.7386
 7021SOL     OW21313   5.012   2.685   3.738  0.2899  0.4095  0.0733
 7021SOL    HW121314   5.066   2.607   3.754  1.1249  0.6310 -1.5205
 7021SOL    HW221315   4.923   2.652   3.731  0.8963 -0.8831 -3.2990
 7022SOL     OW21316   4.089   4.869   1.981 -0.3962  0.2447 -0.1312
 7022SOL    HW121317   4.043   4.947   1.949  0.5260  0.4602 -0.9788
 7022SOL    HW221318   4.031   4.833   2.047 -1.1214  1.3180 -0.1512
 7023SOL     OW21319   3.662   0.661   3.972 -0.3399 -0.2870  0.3612
 7023SOL    HW121320   3.638   0.673   3.880  0.9396  1.8042  0.2349
 7023SOL    HW221321   3.747   0.619   3.970 -1.0297 -1.7771  0.6777
 7024SOL     OW21322   6.191   3.778   2.567 -0.5544  0.0660 -0.0099
 7024SOL    HW121323   6.125   3.726   2.521  0.7890 -0.3122 -1.6273
 7024SOL    HW221324   6.220   3.842   2.502 -0.0491  0.8767  0.9912
 7025SOL     OW21325   4.725   1.588   4.402  0.2396  0.3565  0.6149
 7025SOL    HW121326   4.791   1.656   4.410 -1.3523  2.0668 -0.0911
 7025SOL    HW221327   4.643   1.635   4.391 -1.0848 -1.6832  1.1128
 7026SOL     OW21328   2.518   0.041   2.473  0.3944 -0.4868 -0.1800
 7026SOL    HW121329   2.613   0.039   2.467  0.4907  0.0940  0.9034
 7026SOL    HW221330   2.496  -0.028   2.536 -0.1003 -2.2201 -2.1546
 7027SOL     OW21331   1.991   3.723   5.564  0.7126  0.0167  0.7020
 7027SOL    HW121332   1.932   3.650   5.582 -2.0687  1.4968 -1.4668
 7027SOL    HW221333   1.973   3.787   5.633 -1.7476  1.2053 -0.9180
 7028SOL     OW21334   2.835   0.009   5.853  0.1025  0.7342  0.0067
 7028SOL    HW121335   2.762   0.068   5.871  0.1525  0.7725  0.0860
 7028SOL    HW221336   2.892   0.059   5.794  0.3835  0.9513  0.4520
 7029SOL     OW21337   0.156   2.172   2.855 -0.0726 -0.1440 -0.6245
 7029SOL    HW121338   0.177   2.106   2.921  1.8876  1.5548  0.5768
 7029SOL    HW221339   0.098   2.234   2.900 -0.6430 -0.1916 -1.2621
 7030SOL     OW21340   4.850   4.026   5.536 -0.4548 -0.0150 -0.0078
 7030SOL    HW121341   4.766   3.982   5.552  1.4045 -3.6422  0.9150
 7030SOL    HW221342   4.883   4.047   5.623  0.1813  0.1001 -0.2694
 7031SOL     OW21343   5.124   1.638   4.362 -0.0379  0.2621 -0.2465
 7031SOL    HW121344   5.054   1.693   4.398  0.0888  0.5570 -0.4495
 7031SOL    HW221345   5.159   1.592   4.438 -0.6932 -0.1671 -0.1916
 7032SOL     OW21346   1.984   3.670   3.136  0.2667  0.1067  0.2682
 7032SOL    HW121347   2.051   3.736   3.153 -0.0339  0.8804 -1.3334
 7032SOL    HW221348   2.032   3.595   3.102  0.4680  0.0226  0.7286
 7033SOL     OW21349   2.505   2.850   3.839 -0.3685 -0.2327 -0.4194
 7033SOL    HW121350   2.485   2.757   3.854 -0.8082 -0.0023  0.4722
 7033SOL    HW221351   2.422   2.895   3.853 -0.1915  0.2928 -1.0071
 7034SOL     OW21352   5.950   5.833   3.551 -0.2829 -0.4832  0.0384
 7034SOL    HW121353   6.004   5.904   3.515 -0.0794 -0.3234  0.6422
 7034SOL    HW221354   5.863   5.872   3.562  0.4378  0.5811  2.9438
 7035SOL     OW21355   2.560   2.842   0.847  0.0969  0.2587  0.4536
 7035SOL    HW121356   2.542   2.750   0.868 -1.3317  0.1825 -0.9324
 7035SOL    HW221357   2.568   2.843   0.752 -1.1013  1.7579  0.3444
 7036SOL     OW21358   4.766   5.095   5.149  0.0358  0.8526 -0.6831
 7036SOL    HW121359   4.711   5.016   5.146  0.8822  0.1897  0.6181
 7036SOL    HW221360   4.829   5.082   5.078 -1.1801  1.4319 -1.9265
 7037SOL     OW21361   2.556   3.904   3.804 -0.0468 -0.1425  0.2716
 7037SOL    HW121362   2.608   3.827   3.782 -1.5600 -1.5322  1.3049
 7037SOL    HW221363   2.479   3.899   3.748 -0.0639  0.7521  0.1959
 7038SOL     OW21364   2.261   3.327   5.306 -0.0117  0.2887 -0.1539
 7038SOL    HW121365   2.193   3.266   5.278  1.4171 -0.5496 -1.9889
 7038SOL    HW221366   2.273   3.387   5.232  1.1147  0.5140  0.1833
 7039SOL     OW21367   3.013   4.240   1.218 -0.1240 -0.2239  0.2009
 7039SOL    HW121368   2.987   4.160   1.174  0.2667 -0.4825  0.4237
 7039SOL    HW221369   3.028   4.303   1.148  0.2878 -0.5670 -0.0233
 7040SOL     OW21370   3.175   2.584   4.740 -0.4131 -0.0720  0.3157
 7040SOL    HW121371   3.250   2.624   4.785 -0.1258 -2.1726  1.8701
 7040SOL    HW221372   3.117   2.557   4.811 -1.1317 -1.3193 -0.7067
 7041SOL     OW21373   3.711   1.689   3.548 -0.2287 -0.1506  0.0165
 7041SOL    HW121374   3.644   1.750   3.581  0.1352  0.0415  0.4132
 7041SOL    HW221375   3.757   1.661   3.627 -1.5838 -2.3938  0.0871
 7042SOL     OW21376   5.883   4.587   5.303 -0.5567 -0.2887  0.4800
 7042SOL    HW121377   5.976   4.576   5.321 -0.3720  0.7361  0.2193
 7042SOL    HW221378   5.839   4.527   5.364  0.2728 -1.0001  0.4007
 7043SOL     OW21379   1.885   0.534   2.668 -0.4315 -0.5062  0.0775
 7043SOL    HW121380   1.960   0.592   2.653  0.2514 -1.5275 -0.6517
 7043SOL    HW221381   1.889   0.472   2.595 -1.3838 -1.2113  0.6066
 7044SOL     OW21382   6.293   1.992   4.880 -0.9548  0.1044  0.1964
 7044SOL    HW121383   6.306   2.076   4.923  1.6986  0.3370 -0.8233
 7044SOL    HW221384   6.258   2.015   4.794  0.0973  0.2322 -0.2117
 7045SOL     OW21385   3.385   3.016   2.502  0.0180 -0.3760 -0.3264
 7045SOL    HW121386   3.414   3.106   2.489  1.4489 -0.9074 -0.9807
 7045SOL    HW221387   3.462   2.963   2.483 -0.8515 -1.7546 -0.1294
 7046SOL     OW21388   4.947   5.220   0.802 -0.5924 -0.1989 -0.3371
 7046SOL    HW121389   5.024   5.165   0.786 -1.0498 -0.5152 -1.4809
 7046SOL    HW221390   4.887   5.163   0.851 -0.4727 -0.2341 -0.2286
 7047SOL     OW21391   4.812   1.974   1.721  0.7291 -0.7233  0.2955
 7047SOL    HW121392   4.789   2.066   1.709  2.3284 -0.4523 -0.9160
 7047SOL    HW221393   4.756   1.945   1.793  1.6861  1.7526  2.1731
 7048SOL     OW21394   3.218   3.937   5.231  0.0019  0.9353 -0.2193
 7048SOL    HW121395   3.214   3.851   5.271 -0.2271  0.9271 -0.2536
 7048SOL    HW221396   3.247   3.920   5.141 -1.5043  0.7128 -0.7050
 7049SOL     OW21397   2.337   4.820   5.740 -0.2223 -0.2759  0.5617
 7049SOL    HW121398   2.333   4.853   5.651 -0.3823 -2.5569 -0.3500
 7049SOL    HW221399   2.252   4.844   5.779 -0.5258 -0.0797 -0.2127
 7050SOL     OW21400   3.389   4.161   4.455 -0.1115 -0.1326 -0.0050
 7050SOL    HW121401   3.457   4.200   4.400 -0.5427 -1.0331 -1.2121
 7050SOL    HW221402   3.350   4.093   4.400 -1.4913 -0.1260  0.9341
 7051SOL     OW21403   3.078   0.683   0.576 -0.4115 -0.4773  0.2889
 7051SOL    HW121404   3.131   0.632   0.638 -0.7723  0.2216  1.1961
 7051SOL    HW221405   3.009   0.721   0.630 -0.6526  0.2724 -0.5313
 7052SOL     OW21406   4.766   4.300   1.457 -0.1287  0.1080  0.4643
 7052SOL    HW121407   4.838   4.339   1.408  0.1731 -1.0410 -0.0407
 7052SOL    HW221408   4.806   4.266   1.537  0.1903 -1.7136 -0.4108
 7053SOL     OW21409   4.536   2.144   5.777  0.3784  0.8986  0.2832
 7053SOL    HW121410   4.627   2.175   5.772  0.2130  1.3508  0.0006
 7053SOL    HW221411   4.534   2.089   5.856  1.1248  0.0938 -0.2401
 7054SOL     OW21412   5.538   5.339   0.444 -0.2112  0.0405  0.2819
 7054SOL    HW121413   5.625   5.303   0.428 -0.4721 -1.6159  2.1928
 7054SOL    HW221414   5.494   5.336   0.359  1.6474  1.1999 -0.7765
 7055SOL     OW21415   4.817   1.861   0.229  0.0686 -0.2955 -0.1912
 7055SOL    HW121416   4.906   1.827   0.220  0.1233 -0.3044  0.3243
 7055SOL    HW221417   4.821   1.920   0.304 -0.5269 -0.9107  0.3494
 7056SOL     OW21418   3.086   2.277   1.424  0.7552 -0.3002 -0.2065
 7056SOL    HW121419   3.092   2.350   1.362 -1.7102  0.2411  0.0591
 7056SOL    HW221420   2.994   2.278   1.452  1.7789 -0.2737  3.7519
 7057SOL     OW21421   2.967   3.135   6.196  0.2133 -0.2804  0.2386
 7057SOL    HW121422   2.933   3.152   6.109  0.1877 -0.3616  0.2326
 7057SOL    HW221423   2.924   3.054   6.224 -1.5743  0.9385  1.2552
 7058SOL     OW21424   5.839   2.997   2.133  0.4433  0.4695  0.2231
 7058SOL    HW121425   5.894   2.920   2.117  1.4354  0.8129  1.7472
 7058SOL    HW221426   5.885   3.045   2.202 -1.1969  1.3816  0.7378
 7059SOL     OW21427   3.805   1.852   5.947 -0.3782 -0.3673  0.2233
 7059SOL    HW121428   3.828   1.771   5.901 -0.5699 -0.5862  0.5084
 7059SOL    HW221429   3.872   1.861   6.015 -0.7142 -0.6255  0.5960
 7060SOL     OW21430   2.269   1.567   1.922  0.3237  0.2535  0.2641
 7060SOL    HW121431   2.187   1.614   1.904  0.9872  1.1074 -0.6057
 7060SOL    HW221432   2.257   1.531   2.010 -0.4980  1.4324  0.6578
 7061SOL     OW21433   4.469   5.979   4.213  0.1009  0.4242  0.5559
 7061SOL    HW121434   4.538   5.912   4.213  0.7885  1.1254  1.1086
 7061SOL    HW221435   4.389   5.930   4.232 -0.0382 -0.8521 -2.6520
 7062SOL     OW21436   2.678   5.844   2.667 -0.1670  0.0475 -0.0437
 7062SOL    HW121437   2.711   5.916   2.613  0.8384  0.0700  0.5947
 7062SOL    HW221438   2.609   5.804   2.613  2.3971 -1.4699 -2.4717
 7063SOL     OW21439   3.218   3.912   3.101  0.0369  0.1096 -0.1234
 7063SOL    HW121440   3.287   3.878   3.044 -0.4423  0.0022 -0.6452
 7063SOL    HW221441   3.158   3.957   3.042 -0.1755  0.4794  0.3688
 7064SOL     OW21442   0.224   4.062   1.124  0.2442 -0.4944  0.0694
 7064SOL    HW121443   0.161   4.086   1.057  0.6797 -0.3861 -0.3025
 7064SOL    HW221444   0.173   4.064   1.206 -0.1023  0.1381 -0.1528
 7065SOL     OW21445   4.931   0.114   5.496 -0.2425  0.0730 -0.1044
 7065SOL    HW121446   4.932   0.060   5.416 -2.5982  0.5355 -0.5043
 7065SOL    HW221447   4.920   0.204   5.464 -0.5956  0.3336  0.7285
 7066SOL     OW21448   4.549   2.988   4.477  0.4151  0.5324  0.4875
 7066SOL    HW121449   4.469   3.017   4.520  0.5328 -0.0137  1.0830
 7066SOL    HW221450   4.530   2.899   4.447  0.7184  0.4930  0.4082
 7067SOL     OW21451   4.964   3.919   1.899 -0.2030 -0.2912 -0.5609
 7067SOL    HW121452   4.948   3.882   1.985  1.0759 -0.5774 -0.4334
 7067SOL    HW221453   4.997   4.008   1.916 -0.6608 -0.0713 -0.7871
 7068SOL     OW21454   4.987   1.372   2.304 -0.4586 -0.2012 -0.1234
 7068SOL    HW121455   4.930   1.388   2.229 -0.9202 -1.2603 -0.0214
 7068SOL    HW221456   5.070   1.416   2.282 -0.3562 -1.0638 -1.5561
 7069SOL     OW21457   1.081   5.703   2.463  0.2587  0.0767  0.3240
 7069SOL    HW121458   1.035   5.679   2.383  1.8567 -0.2422 -0.5341
 7069SOL    HW221459   1.068   5.798   2.471 -1.3072 -0.1446  0.6262
 7070SOL     OW21460   0.284   0.349   5.949  0.0083  0.5161  0.5774
 7070SOL    HW121461   0.311   0.362   6.040  2.3912  0.2349 -0.0444
 7070SOL    HW221462   0.307   0.431   5.905  0.7776 -0.0842 -0.1731
 7071SOL     OW21463   0.853   2.610   4.408 -0.1634 -0.2789 -0.6350
 7071SOL    HW121464   0.781   2.621   4.471  1.0678  0.6860  0.6587
 7071SOL    HW221465   0.824   2.657   4.330 -2.2439 -2.4902 -1.3369
 7072SOL     OW21466   6.197   2.075   6.007  1.0922 -0.0781 -0.3354
 7072SOL    HW121467   6.132   2.146   6.007  1.2979  0.1127 -0.1452
 7072SOL    HW221468   6.280   2.118   6.028  0.9694 -0.5923  1.3549
 7073SOL     OW21469   1.178   0.569   4.284 -0.0200  0.1088 -0.3719
 7073SOL    HW121470   1.191   0.474   4.278 -2.2429 -0.2624 -0.3016
 7073SOL    HW221471   1.225   0.594   4.363  1.1154 -0.8201 -0.7301
 7074SOL     OW21472   0.164   5.294   3.672 -0.0557 -0.0513  0.7264
 7074SOL    HW121473   0.080   5.339   3.667  0.5037  1.0056  0.4502
 7074SOL    HW221474   0.144   5.209   3.712 -1.1546  0.4013  1.1711
 7075SOL     OW21475   3.416   2.836   3.713  0.1104  0.2542  0.3364
 7075SOL    HW121476   3.344   2.843   3.776  0.2057  1.9425  0.3058
 7075SOL    HW221477   3.495   2.849   3.765  0.3970 -1.3544  0.3303
 7076SOL     OW21478   2.706   3.623   4.568  0.9407 -0.0984 -0.3142
 7076SOL    HW121479   2.756   3.663   4.497 -0.9788  0.5493 -1.3921
 7076SOL    HW221480   2.663   3.548   4.527  2.7269 -2.0323  1.1389
 7077SOL     OW21481   6.174   1.958   1.896  0.1073  0.0998  0.0506
 7077SOL    HW121482   6.257   1.977   1.938  0.3945  0.2882 -0.5811
 7077SOL    HW221483   6.127   2.041   1.896  0.7129  0.4755 -1.2916
 7078SOL     OW21484   2.532   0.667   0.695  0.0124 -0.3523  0.7530
 7078SOL    HW121485   2.515   0.663   0.601  0.3658  0.5167  0.6436
 7078SOL    HW221486   2.570   0.582   0.716  1.3372 -0.0175 -0.1776
 7079SOL     OW21487   6.250   5.680   5.502  0.0222 -0.8295  0.8157
 7079SOL    HW121488   6.159   5.666   5.528  0.2684 -0.5591  1.8858
 7079SOL    HW221489   6.279   5.595   5.470 -0.7021 -0.8337  0.1379
 7080SOL     OW21490   4.680   2.383   6.064  0.1615  0.3466  0.2310
 7080SOL    HW121491   4.589   2.357   6.079  0.8576 -1.6593  1.2314
 7080SOL    HW221492   4.674   2.452   5.997 -1.9883 -0.6179 -0.6586
 7081SOL     OW21493   5.221   4.633   1.461  0.4703  0.1212  0.0153
 7081SOL    HW121494   5.224   4.633   1.556 -1.4292  0.6748  0.1210
 7081SOL    HW221495   5.169   4.555   1.439  0.6033  0.1869 -0.5478
 7082SOL     OW21496   4.098   0.867   0.686  0.0907  0.2342 -0.1797
 7082SOL    HW121497   4.034   0.860   0.615 -0.6701 -0.7062  0.5744
 7082SOL    HW221498   4.049   0.846   0.765  1.1966  0.0674  0.4842
 7083SOL     OW21499   4.731   6.119   4.033  0.3390 -0.2058  0.5651
 7083SOL    HW121500   4.711   6.076   4.116 -0.1452  1.4545  1.3416
 7083SOL    HW221501   4.648   6.121   3.986 -0.2795  2.0722  1.6147
 7084SOL     OW21502   4.830   2.779   4.017 -0.3994 -0.6323 -0.3717
 7084SOL    HW121503   4.902   2.717   4.029  0.0793  0.0340  0.3160
 7084SOL    HW221504   4.851   2.852   4.075 -2.3030 -0.9959  0.8602
 7085SOL     OW21505   1.048   4.843   0.493  0.0673 -0.0985  0.6318
 7085SOL    HW121506   0.996   4.763   0.497  0.9892 -0.7940 -0.5133
 7085SOL    HW221507   1.027   4.881   0.407  0.1966  0.5055  0.8598
 7086SOL     OW21508   4.008   4.435   4.791  0.0171  0.2456  0.3533
 7086SOL    HW121509   4.040   4.360   4.740 -0.7058  1.9757 -2.9813
 7086SOL    HW221510   4.087   4.477   4.824  0.7328  0.0668 -1.0329
 7087SOL     OW21511   4.596   4.357   5.476  0.3503  0.0856  0.4193
 7087SOL    HW121512   4.611   4.273   5.431  0.0520 -0.0912  0.6456
 7087SOL    HW221513   4.573   4.332   5.566 -2.3820  0.2485 -0.1318
 7088SOL     OW21514   1.755   2.398   5.914  0.0503  0.7477 -0.0110
 7088SOL    HW121515   1.687   2.460   5.938 -1.9318 -1.6660  0.9955
 7088SOL    HW221516   1.744   2.325   5.974  1.7186 -0.9782 -1.6430
 7089SOL     OW21517   4.291   0.238   5.094 -0.3648 -0.1395  0.0625
 7089SOL    HW121518   4.324   0.216   5.007 -1.2185  0.9793 -0.5590
 7089SOL    HW221519   4.369   0.233   5.150  0.3288 -0.2036 -0.8776
 7090SOL     OW21520   5.650   0.197   2.639  0.0707 -0.2270  0.0693
 7090SOL    HW121521   5.589   0.183   2.567  0.4730 -1.1796 -0.1010
 7090SOL    HW221522   5.631   0.126   2.700  1.5590 -1.0466 -0.3817
 7091SOL     OW21523   3.408   0.277   1.978  0.6085  0.1980  0.1200
 7091SOL    HW121524   3.459   0.335   2.035  1.2685  1.6999 -1.8867
 7091SOL    HW221525   3.377   0.334   1.908 -2.7119 -0.9566  0.4864
 7092SOL     OW21526   3.409   0.153   5.068  0.6982  0.0102 -0.2363
 7092SOL    HW121527   3.439   0.235   5.107  0.3962  0.4965 -1.0006
 7092SOL    HW221528   3.332   0.178   5.017  0.8943 -0.6670 -0.8714
 7093SOL     OW21529   4.039   4.461   1.449 -0.2468  0.3697  0.1728
 7093SOL    HW121530   3.983   4.385   1.460  0.3844 -0.4745 -2.0097
 7093SOL    HW221531   4.114   4.429   1.399  1.1393  1.9458  1.1316
 7094SOL     OW21532   3.499   1.232   4.680  0.4195 -0.2904 -0.2543
 7094SOL    HW121533   3.422   1.190   4.717  0.1868 -0.7345 -1.1923
 7094SOL    HW221534   3.572   1.201   4.734  0.1311 -1.1451 -0.3353
 7095SOL     OW21535   4.719   3.725   0.899  0.0339 -0.1396 -0.5074
 7095SOL    HW121536   4.713   3.631   0.916  2.0440 -0.2316 -0.0446
 7095SOL    HW221537   4.794   3.734   0.840  0.3013  1.2274  0.0071
 7096SOL     OW21538   0.397   2.035   1.505  0.0130 -0.3642 -0.1866
 7096SOL    HW121539   0.348   2.108   1.544  0.4475  0.0344 -0.3797
 7096SOL    HW221540   0.345   1.957   1.527 -1.1648  0.1230 -1.1075
 7097SOL     OW21541   0.839   6.145   1.310 -0.1876  0.0099  0.2918
 7097SOL    HW121542   0.932   6.121   1.314 -0.3915 -0.8498 -0.0695
 7097SOL    HW221543   0.830   6.194   1.228 -0.4497 -1.6944 -0.7319
 7098SOL     OW21544   4.002   2.630   2.467 -0.4842  0.7260 -0.0306
 7098SOL    HW121545   4.067   2.605   2.401  0.5082 -0.6791  1.4098
 7098SOL    HW221546   4.030   2.585   2.547 -4.0126 -1.1054  0.3591
 7099SOL     OW21547   5.126   5.968   1.509 -0.0661 -0.0734 -0.1457
 7099SOL    HW121548   5.094   5.890   1.464  1.4501 -0.8419  0.0650
 7099SOL    HW221549   5.191   6.005   1.449 -1.8862  1.9728 -0.9829
 7100SOL     OW21550   0.928   0.341   5.394  0.5376 -0.3188  0.2204
 7100SOL    HW121551   0.965   0.257   5.420  1.3678 -0.5283 -1.4504
 7100SOL    HW221552   0.980   0.367   5.317 -0.0418  1.4664  0.3784
 7101SOL     OW21553   2.816   5.040   5.364  0.3845 -0.0373  0.0270
 7101SOL    HW121554   2.840   5.127   5.398  0.3795 -0.0410  0.0406
 7101SOL    HW221555   2.865   5.032   5.282  1.8810 -0.7849  0.9446
 7102SOL     OW21556   4.883   4.013   3.839 -0.5864  0.8061 -0.6135
 7102SOL    HW121557   4.811   3.957   3.866 -0.9372  0.4448 -2.2116
 7102SOL    HW221558   4.878   4.089   3.897 -0.1394 -0.7406  1.5404
 7103SOL     OW21559   0.631   0.901   0.933  0.0725 -0.4878  0.0099
 7103SOL    HW121560   0.696   0.918   1.001 -0.4737  0.7479  0.2511
 7103SOL    HW221561   0.683   0.881   0.855  0.7193 -0.8742  0.5248
 7104SOL     OW21562   0.112   3.472   5.743  0.0208 -0.2907 -0.0646
 7104SOL    HW121563   0.118   3.555   5.791  0.2178  0.8351 -1.9461
 7104SOL    HW221564   0.153   3.490   5.658  1.6573 -2.8313  0.0745
 7105SOL     OW21565   6.260   0.293   3.107  0.1369 -0.2177  0.2608
 7105SOL    HW121566   6.236   0.207   3.073  1.1725 -0.3969 -0.0741
 7105SOL    HW221567   6.300   0.337   3.032  0.8473  0.0375  0.7802
 7106SOL     OW21568   6.252   6.337   3.033  0.0386  0.2549 -0.0136
 7106SOL    HW121569   6.290   6.307   3.116  1.6991  1.9997 -0.0765
 7106SOL    HW221570   6.289   6.278   2.967  0.1315 -0.0144  0.2786
 7107SOL     OW21571   6.184   5.575   5.026 -0.1456  0.1122  0.1099
 7107SOL    HW121572   6.096   5.536   5.028 -0.1229  0.0867  1.9764
 7107SOL    HW221573   6.239   5.508   4.985 -0.7077 -0.4962  0.3345
 7108SOL     OW21574   5.739   0.372   3.944  0.6188 -0.3163 -0.3789
 7108SOL    HW121575   5.739   0.464   3.970  0.0207  0.2201 -2.1346
 7108SOL    HW221576   5.656   0.338   3.978  1.6790 -0.7751  1.9507
 7109SOL     OW21577   5.715   2.994   3.529  0.3254 -0.2907 -0.2243
 7109SOL    HW121578   5.797   3.043   3.541  0.5859 -0.0799 -2.3425
 7109SOL    HW221579   5.660   3.053   3.478 -0.8895 -0.7121  0.5699
 7110SOL     OW21580   1.118   3.325   1.414  0.1424 -0.1202  0.5821
 7110SOL    HW121581   1.086   3.330   1.324  1.0250  0.1208  0.2737
 7110SOL    HW221582   1.057   3.265   1.458 -0.7406  0.3504  0.0301
 7111SOL     OW21583   2.645   1.336   0.543  0.0084 -0.2431 -0.1387
 7111SOL    HW121584   2.704   1.386   0.600  0.7041 -0.3743 -0.7229
 7111SOL    HW221585   2.624   1.257   0.594  0.2241 -0.1288  0.1305
 7112SOL     OW21586   2.222   2.029   4.157  0.2189 -0.3014  0.5441
 7112SOL    HW121587   2.136   2.030   4.199 -0.4799 -0.8660 -0.7915
 7112SOL    HW221588   2.232   1.938   4.127  0.0478  0.3341 -1.6557
 7113SOL     OW21589   4.409   1.114   5.152  0.0409 -0.1025  0.3686
 7113SOL    HW121590   4.465   1.095   5.228  0.0809  2.4021  1.0368
 7113SOL    HW221591   4.322   1.084   5.178  0.0950  0.5599  1.3703
 7114SOL     OW21592   5.307   0.309   2.765  0.2338  0.0871  0.2938
 7114SOL    HW121593   5.342   0.397   2.750 -1.2279  0.5426 -0.6236
 7114SOL    HW221594   5.275   0.310   2.856 -0.1361  0.6363  0.1587
 7115SOL     OW21595   4.410   3.596   4.467  0.2285 -0.0803 -0.1134
 7115SOL    HW121596   4.438   3.569   4.380 -0.7447 -0.5805 -0.2782
 7115SOL    HW221597   4.481   3.567   4.525 -0.5303 -2.5947 -0.3484
 7116SOL     OW21598   2.134   3.280   2.439 -0.1087  0.0381  0.8980
 7116SOL    HW121599   2.144   3.366   2.479  0.7779  0.2736  0.1986
 7116SOL    HW221600   2.137   3.296   2.345  0.4303 -0.7895  0.7590
 7117SOL     OW21601   1.271   5.095   0.120 -0.7159 -0.3243  0.1057
 7117SOL    HW121602   1.280   5.187   0.093 -2.0456 -0.6710 -1.7264
 7117SOL    HW221603   1.304   5.093   0.210  1.1102  1.5606 -0.4432
 7118SOL     OW21604   4.340   4.236   4.318 -0.0576  0.3903 -0.0464
 7118SOL    HW121605   4.311   4.166   4.376 -2.8102  0.9400 -0.6287
 7118SOL    HW221606   4.358   4.193   4.234  2.2476 -0.1405  0.6496
 7119SOL     OW21607   1.058   4.823   4.197 -0.1199  0.0388 -0.5109
 7119SOL    HW121608   0.973   4.805   4.238  0.0438  0.3453 -0.0348
 7119SOL    HW221609   1.088   4.738   4.166 -0.1155 -0.2526  0.2603
 7120SOL     OW21610   4.410   1.144   1.012 -0.3263 -0.6146 -0.1178
 7120SOL    HW121611   4.447   1.100   0.935  0.5622  1.1922 -0.7817
 7120SOL    HW221612   4.484   1.149   1.074  0.0034  1.1495 -0.6157
 7121SOL     OW21613   4.777   2.757   1.248  0.3575  0.5615 -0.5694
 7121SOL    HW121614   4.866   2.760   1.283  0.0367 -1.3829  0.5356
 7121SOL    HW221615   4.734   2.833   1.285  2.0689  2.8404 -2.8458
 7122SOL     OW21616   4.013   5.612   4.056 -0.3339 -0.1491 -0.5302
 7122SOL    HW121617   4.010   5.701   4.021 -0.9860 -0.2782 -0.8236
 7122SOL    HW221618   4.055   5.561   3.988 -0.6415 -0.2043 -0.6792
 7123SOL     OW21619   1.989   4.396   1.979 -0.0263  0.1873 -0.2437
 7123SOL    HW121620   2.045   4.354   1.915  2.0461  0.6480  1.1640
 7123SOL    HW221621   1.904   4.405   1.936  1.3360  0.7548 -3.0023
 7124SOL     OW21622   1.467   3.684   0.952 -0.2934  0.2400 -0.4787
 7124SOL    HW121623   1.414   3.700   0.874  0.5968  1.1018 -0.9383
 7124SOL    HW221624   1.508   3.769   0.970 -0.2792 -0.0193  0.7715
 7125SOL     OW21625   1.045   1.798   4.111 -0.1187 -0.0100  0.7814
 7125SOL    HW121626   0.999   1.755   4.183 -0.1045 -0.2446  0.6501
 7125SOL    HW221627   1.031   1.741   4.036 -0.8223  0.6346  0.4012
 7126SOL     OW21628   0.003   0.733   0.034  0.1034  0.0810  0.6233
 7126SOL    HW121629   0.007   0.645   0.072 -1.2066  0.3392  1.4321
 7126SOL    HW221630  -0.013   0.790   0.109  1.3137  1.0841  0.1603
 7127SOL     OW21631   4.844   5.421   3.352 -0.3337  0.2889 -0.0312
 7127SOL    HW121632   4.842   5.326   3.335  1.6431  0.2805 -0.4631
 7127SOL    HW221633   4.857   5.427   3.446  0.9618  0.0616 -0.1701
 7128SOL     OW21634   6.335   2.977   1.607 -0.0027 -0.1314 -0.2350
 7128SOL    HW121635   6.403   2.919   1.573  0.8602  1.0261 -0.5568
 7128SOL    HW221636   6.369   3.006   1.692  0.7231  1.7051 -1.0807
 7129SOL     OW21637   1.937   2.463   4.715 -0.6412 -0.2081 -0.2194
 7129SOL    HW121638   1.944   2.402   4.788 -0.3157 -2.0779 -1.7378
 7129SOL    HW221639   2.019   2.454   4.667 -1.2783  0.1542 -1.4263
 7130SOL     OW21640   2.347   2.007   4.700 -0.1279 -0.1807 -0.2171
 7130SOL    HW121641   2.439   2.023   4.717  0.5797 -2.3814 -1.5002
 7130SOL    HW221642   2.306   2.006   4.787  1.1069  0.4749  0.3905
 7131SOL     OW21643   0.480   3.885   5.396 -0.4949 -0.3962 -0.1916
 7131SOL    HW121644   0.536   3.807   5.398 -0.2155 -0.2011 -0.3721
 7131SOL    HW221645   0.532   3.953   5.438 -1.3323 -0.6823  1.3898
 7132SOL     OW21646   1.437   1.237   2.753  0.2030  0.3749  0.6030
 7132SOL    HW121647   1.497   1.166   2.775  1.3544  0.9770 -0.4998
 7132SOL    HW221648   1.407   1.218   2.665  0.4962  1.2240  0.3070
 7133SOL     OW21649   5.922   1.751   6.144  0.8423  0.1998 -0.1507
 7133SOL    HW121650   5.888   1.827   6.097 -0.0594 -0.4797 -0.6265
 7133SOL    HW221651   5.887   1.676   6.097  0.9807 -0.5171  0.8501
 7134SOL     OW21652   3.434   3.917   0.228 -0.3803  0.6299 -0.0284
 7134SOL    HW121653   3.512   3.920   0.284 -2.0791  1.2417  2.5108
 7134SOL    HW221654   3.372   3.978   0.270 -1.8223  1.0674 -2.6011
 7135SOL     OW21655   0.166   2.933   4.847  0.6885  0.5553 -0.2635
 7135SOL    HW121656   0.214   2.868   4.898  0.6440  0.3611 -0.4644
 7135SOL    HW221657   0.161   2.895   4.759 -0.0869  0.4424 -0.1753
 7136SOL     OW21658   5.571   4.619   0.806  0.3679  0.1755  0.5053
 7136SOL    HW121659   5.586   4.701   0.760 -0.8658  1.3026  1.9898
 7136SOL    HW221660   5.622   4.554   0.758 -0.7441  1.2773 -2.3297
 7137SOL     OW21661   2.723   0.762   0.216  0.0361 -0.5027  0.7802
 7137SOL    HW121662   2.714   0.832   0.281  1.3069  1.5864 -1.1417
 7137SOL    HW221663   2.783   0.699   0.257  0.5677  0.6152  1.7778
 7138SOL     OW21664   3.355   0.995   1.234  0.7480  0.4476 -0.0001
 7138SOL    HW121665   3.315   0.939   1.301 -0.0293  0.0214 -0.7976
 7138SOL    HW221666   3.429   0.944   1.202  0.9846  0.5546  0.3722
 7139SOL     OW21667   6.141   3.184   5.061  0.0864  0.4716 -0.2978
 7139SOL    HW121668   6.227   3.183   5.019  0.2752 -0.0256  0.0931
 7139SOL    HW221669   6.143   3.110   5.121  0.3864  2.0600  1.7377
 7140SOL     OW21670   1.304   3.958   0.167  0.3153 -0.1835  0.0030
 7140SOL    HW121671   1.211   3.962   0.146  0.4843 -0.5566 -0.8422
 7140SOL    HW221672   1.348   3.997   0.091  0.7624  1.8975  1.2565
 7141SOL     OW21673   3.034   0.741   4.869 -0.1044 -0.4733  0.1792
 7141SOL    HW121674   3.003   0.714   4.783 -2.0529  1.7974  0.0665
 7141SOL    HW221675   2.968   0.706   4.930 -1.3553  1.8162  0.2388
 7142SOL     OW21676   0.791   1.234   0.669 -0.0211 -0.6437 -0.4339
 7142SOL    HW121677   0.702   1.241   0.704 -0.0158  0.5869 -0.6500
 7142SOL    HW221678   0.794   1.298   0.598  1.5407  0.5106  0.6191
 7143SOL     OW21679   4.220   0.725   3.542  0.1091 -0.2352  0.0575
 7143SOL    HW121680   4.209   0.807   3.590 -0.6433  2.0331 -3.6110
 7143SOL    HW221681   4.132   0.702   3.513  0.6104 -1.0669 -0.8659
 7144SOL     OW21682   1.039   4.914   0.764 -0.1863 -0.2450  0.0948
 7144SOL    HW121683   1.121   4.899   0.812  0.2153  0.3392 -0.3804
 7144SOL    HW221684   1.062   4.898   0.673 -0.3980  0.6397 -0.1254
 7145SOL     OW21685   4.948   1.352   4.276  0.6821 -0.2152 -0.2274
 7145SOL    HW121686   4.974   1.435   4.316 -1.8576 -0.9206  3.5241
 7145SOL    HW221687   4.960   1.288   4.346 -1.1626 -2.2342 -1.6375
 7146SOL     OW21688   1.802   5.220   5.237 -0.7263 -0.2158  0.0665
 7146SOL    HW121689   1.882   5.263   5.205  0.0444 -0.5424  1.4604
 7146SOL    HW221690   1.790   5.254   5.325 -1.1897 -1.4112  0.4873
 7147SOL     OW21691   4.917   5.527   5.367 -0.2490  0.5681 -0.0599
 7147SOL    HW121692   4.847   5.472   5.401 -0.0394  0.1677 -0.2609
 7147SOL    HW221693   4.973   5.545   5.442  0.7651 -1.1467 -0.3559
 7148SOL     OW21694   1.270   5.847   1.259 -0.1591 -0.3073 -0.5999
 7148SOL    HW121695   1.310   5.765   1.232 -0.5835 -1.1501  1.1879
 7148SOL    HW221696   1.179   5.825   1.276 -0.0357  0.2409  0.9687
 7149SOL     OW21697   6.229   4.637   0.311 -0.2744  0.7856  0.2541
 7149SOL    HW121698   6.311   4.644   0.360  0.6537 -0.8999 -0.9148
 7149SOL    HW221699   6.225   4.717   0.258  2.0842 -0.2217 -1.6703
 7150SOL     OW21700   6.075   0.471   0.297  0.0012 -0.2808 -0.4139
 7150SOL    HW121701   6.011   0.405   0.270  0.7115 -0.3570 -2.0491
 7150SOL    HW221702   6.141   0.422   0.346 -1.2275 -0.1714  1.4555
 7151SOL     OW21703   3.326   4.948   5.366  0.5118  0.0071 -0.3193
 7151SOL    HW121704   3.380   5.014   5.411  0.0108 -0.1021  0.4518
 7151SOL    HW221705   3.390   4.886   5.330  0.9137 -0.2032  0.7113
 7152SOL     OW21706   1.350   4.158   6.284 -0.5329  0.0793  0.1445
 7152SOL    HW121707   1.403   4.159   6.204  0.2178  1.5252  0.6202
 7152SOL    HW221708   1.259   4.152   6.253 -0.1394 -2.4203 -0.6864
 7153SOL     OW21709   0.682   0.181   1.232  0.1407  0.3255 -0.0017
 7153SOL    HW121710   0.761   0.235   1.231 -0.5015  1.2900 -0.1847
 7153SOL    HW221711   0.654   0.179   1.141 -0.2482  0.2923  0.1198
 7154SOL     OW21712   3.271   5.695   5.181 -0.4802  0.3521  0.0510
 7154SOL    HW121713   3.217   5.696   5.261 -0.3465 -1.2015  0.1893
 7154SOL    HW221714   3.336   5.764   5.195  1.3809 -1.7043  2.6216
 7155SOL     OW21715   2.778   4.902   3.772  0.1141 -0.2674 -0.2233
 7155SOL    HW121716   2.790   4.912   3.866 -0.2235 -1.1494 -0.0762
 7155SOL    HW221717   2.684   4.884   3.761  0.1083  0.0557 -0.7439
 7156SOL     OW21718   2.404   6.156   5.278  0.5275  0.0088 -0.2457
 7156SOL    HW121719   2.415   6.062   5.271  0.1244  0.0531 -2.0786
 7156SOL    HW221720   2.425   6.189   5.190 -2.2688  1.2707 -0.5586
 7157SOL     OW21721   5.417   5.621   4.660 -0.7090  0.7569  0.5475
 7157SOL    HW121722   5.364   5.584   4.731  0.2165  0.2926  1.0177
 7157SOL    HW221723   5.497   5.651   4.703 -0.6629  1.6304 -0.1199
 7158SOL     OW21724   5.174   4.188   0.301 -0.1197 -0.0289 -0.2830
 7158SOL    HW121725   5.194   4.152   0.214 -0.1056  1.5503 -0.9674
 7158SOL    HW221726   5.259   4.214   0.336 -0.1552 -0.4224  0.1001
 7159SOL     OW21727   1.790   2.290   5.470 -0.4406  0.6271 -0.0108
 7159SOL    HW121728   1.826   2.350   5.536  1.2662 -0.2478 -0.0948
 7159SOL    HW221729   1.867   2.247   5.432 -1.5915 -1.4063 -0.1672
 7160SOL     OW21730   1.048   3.408   0.214  0.2891  0.1210 -0.3972
 7160SOL    HW121731   1.001   3.351   0.274 -1.3630  1.1041 -0.6949
 7160SOL    HW221732   1.009   3.391   0.128  1.6098 -0.2045 -0.9670
 7161SOL     OW21733   0.127   2.717   1.466 -0.4561  0.2550  0.3052
 7161SOL    HW121734   0.047   2.703   1.415  0.3980 -0.6069 -0.8501
 7161SOL    HW221735   0.185   2.765   1.407 -0.2569  1.2492  1.2824
 7162SOL     OW21736   3.041   4.597   2.785  0.0450  0.4441  0.6249
 7162SOL    HW121737   3.051   4.555   2.870 -0.3104  0.5996  0.7457
 7162SOL    HW221738   3.089   4.679   2.793 -0.2126  0.5809  0.7634
 7163SOL     OW21739   1.908   3.490   5.111  0.2610 -0.6590 -0.7470
 7163SOL    HW121740   1.876   3.425   5.173  2.0174 -0.0230  0.9415
 7163SOL    HW221741   2.004   3.485   5.119  0.4838  0.5883 -2.2144
 7164SOL     OW21742   1.362   1.124   3.104  0.5672  0.1006 -0.1907
 7164SOL    HW121743   1.433   1.068   3.134 -1.8108 -2.4058  1.1758
 7164SOL    HW221744   1.333   1.085   3.022  0.8453  1.2109 -0.8383
 7165SOL     OW21745   5.375   2.809   3.861 -0.1324  0.7822 -0.4028
 7165SOL    HW121746   5.468   2.800   3.842 -0.2792 -2.6833 -0.0555
 7165SOL    HW221747   5.372   2.835   3.953  0.6188 -2.0986  0.5429
 7166SOL     OW21748   1.477   0.184   6.076 -0.1345 -0.2198 -0.3238
 7166SOL    HW121749   1.560   0.149   6.107  0.7099  2.1094  0.2209
 7166SOL    HW221750   1.413   0.153   6.140  0.3044 -1.8596 -0.6296
 7167SOL     OW21751   0.046   6.125   3.587  0.1183 -0.0134 -0.0934
 7167SOL    HW121752   0.074   6.087   3.671 -0.5728 -0.3368  0.0062
 7167SOL    HW221753   0.114   6.100   3.525  0.8920  0.6590  0.4767
 7168SOL     OW21754   1.276   5.121   5.636  0.2598  0.2250 -0.3817
 7168SOL    HW121755   1.269   5.053   5.568  1.9412 -0.2444 -0.1215
 7168SOL    HW221756   1.370   5.138   5.643  0.0567  0.7343  1.3811
 7169SOL     OW21757   2.487   1.583   1.212 -0.0071  0.2572  0.5004
 7169SOL    HW121758   2.538   1.618   1.284  1.3831  0.2200 -0.4355
 7169SOL    HW221759   2.478   1.655   1.150  0.0389 -0.1017  0.0655
 7170SOL     OW21760   0.727   0.037   4.442  0.5650 -0.3186  0.4620
 7170SOL    HW121761   0.714   0.062   4.534  0.0898  0.8294  0.1020
 7170SOL    HW221762   0.736   0.120   4.396  1.9944 -0.9130 -0.3859
 7171SOL     OW21763   6.307   5.636   3.825 -0.2153 -0.4237 -0.1285
 7171SOL    HW121764   6.236   5.633   3.761  0.3959  0.3953 -0.8677
 7171SOL    HW221765   6.292   5.716   3.874 -0.1542 -0.5743  0.1368
 7172SOL     OW21766   3.020   4.491   5.169 -0.0657  0.5191 -0.0900
 7172SOL    HW121767   3.064   4.431   5.230  1.2325  0.8673 -0.6525
 7172SOL    HW221768   2.932   4.456   5.161 -0.0990  0.1289  1.5371
 7173SOL     OW21769   4.076   5.001   3.616  0.5253  0.5230 -0.3296
 7173SOL    HW121770   4.052   4.970   3.529  2.9810 -0.7569 -0.6173
 7173SOL    HW221771   4.156   5.052   3.603  0.5051  0.9793  1.1020
 7174SOL     OW21772   2.018   0.804   2.979 -0.2838  0.0496 -0.2827
 7174SOL    HW121773   2.002   0.806   3.074 -1.0211 -0.9771 -0.3732
 7174SOL    HW221774   1.949   0.859   2.943 -1.4411 -1.4118 -0.3821
 7175SOL     OW21775   3.427   1.538   0.326 -0.9866 -0.6209 -0.5650
 7175SOL    HW121776   3.397   1.557   0.415 -0.5393  0.3206 -0.6034
 7175SOL    HW221777   3.394   1.450   0.308  0.7920 -1.8032  1.3907
 7176SOL     OW21778   4.769   4.026   0.636  0.2704  0.1187  0.2962
 7176SOL    HW121779   4.847   3.992   0.679  0.3999 -0.5642 -0.4501
 7176SOL    HW221780   4.775   4.121   0.647  1.1049  0.0610  0.4157
 7177SOL     OW21781   2.272   2.125   1.422 -0.2111  0.0146 -0.4229
 7177SOL    HW121782   2.226   2.048   1.387  0.8420 -1.1068  0.5721
 7177SOL    HW221783   2.211   2.163   1.485  0.4633 -2.0013  1.5839
 7178SOL     OW21784   3.563   1.085   6.108 -0.1840 -0.5239 -0.6106
 7178SOL    HW121785   3.502   1.145   6.150 -0.2098  0.8447 -2.4810
 7178SOL    HW221786   3.618   1.053   6.179 -0.8763  0.8693  0.6022
 7179SOL     OW21787   0.277   0.429   4.272  0.1815 -0.1622  0.2272
 7179SOL    HW121788   0.274   0.333   4.266 -1.2428 -0.1627  0.6158
 7179SOL    HW221789   0.269   0.459   4.182 -2.0500 -0.3992  0.3065
 7180SOL     OW21790   2.548   4.491   2.100 -0.1715 -0.0589  0.0761
 7180SOL    HW121791   2.460   4.492   2.135 -0.6747 -0.1225 -1.1366
 7180SOL    HW221792   2.537   4.478   2.006  1.1701 -1.0622  0.0136
 7181SOL     OW21793   3.617   0.956   5.837 -0.4275  0.6533 -0.2901
 7181SOL    HW121794   3.525   0.967   5.816 -0.3391  0.6131 -0.7195
 7181SOL    HW221795   3.618   0.926   5.928 -0.8531  0.2829 -0.4060
 7182SOL     OW21796   6.172   3.614   2.292  0.7245 -0.1055 -0.2764
 7182SOL    HW121797   6.167   3.708   2.277  2.1792 -0.0637 -0.6605
 7182SOL    HW221798   6.112   3.575   2.229 -0.7125  0.5980  0.6096
 7183SOL     OW21799   4.293   4.736   1.808  0.0044  0.2368  0.6233
 7183SOL    HW121800   4.200   4.739   1.827 -0.4872  1.0420 -1.6489
 7183SOL    HW221801   4.335   4.769   1.888 -1.7457  1.4525  1.0916
 7184SOL     OW21802   4.285   6.126   1.744  0.4023  0.2635 -0.5105
 7184SOL    HW121803   4.218   6.110   1.678  1.3957  0.4942 -1.6046
 7184SOL    HW221804   4.291   6.044   1.793  0.2055 -0.1813 -1.2194
 7185SOL     OW21805   3.358   6.157   3.842 -0.1989 -0.1296  0.4345
 7185SOL    HW121806   3.438   6.117   3.875 -0.7293  0.0516  2.0341
 7185SOL    HW221807   3.288   6.101   3.874 -0.7240 -0.9884 -1.9686
 7186SOL     OW21808   6.333   4.856   5.535 -0.2058 -0.1265  0.4653
 7186SOL    HW121809   6.241   4.847   5.511 -0.8843  0.5303  2.5907
 7186SOL    HW221810   6.380   4.801   5.472 -2.0207 -0.3998 -0.7179
 7187SOL     OW21811   0.978   2.491   3.728  0.2443  0.2332  0.0861
 7187SOL    HW121812   0.946   2.402   3.743 -1.5230  0.5727 -1.2796
 7187SOL    HW221813   0.919   2.546   3.780  1.6213  0.6054  1.3027
 7188SOL     OW21814   1.901   1.903   3.939 -0.1319 -0.2029  0.2505
 7188SOL    HW121815   1.815   1.932   3.907 -0.4612 -0.5176  0.8210
 7188SOL    HW221816   1.945   1.867   3.863  0.0541  1.2521 -0.3582
 7189SOL     OW21817   2.130   1.570   5.790  0.2027 -0.0098  0.3783
 7189SOL    HW121818   2.168   1.496   5.743  1.0714  1.9037 -2.1275
 7189SOL    HW221819   2.036   1.566   5.772  0.5883  1.1337 -2.4312
 7190SOL     OW21820   3.978   2.048   5.470  0.2504 -0.7143  0.2691
 7190SOL    HW121821   3.994   2.116   5.405 -0.2971 -0.8480 -0.0095
 7190SOL    HW221822   4.023   2.079   5.549  1.4712 -0.8578 -0.3440
 7191SOL     OW21823   1.462   1.013   2.320  0.8272  0.1651  0.2822
 7191SOL    HW121824   1.497   0.933   2.359  1.2415  0.7897  1.2120
 7191SOL    HW221825   1.523   1.034   2.250  1.6567  0.5723  1.1097
 7192SOL     OW21826   5.046   1.435   5.273 -0.1846 -0.0080  0.2869
 7192SOL    HW121827   4.982   1.479   5.217 -0.3754 -0.1207  0.4127
 7192SOL    HW221828   5.036   1.477   5.358 -1.1318 -1.0103  0.6941
 7193SOL     OW21829   5.794   2.577   0.592 -0.5227  0.0926 -0.1555
 7193SOL    HW121830   5.702   2.566   0.617 -0.1684 -2.2918  0.3444
 7193SOL    HW221831   5.834   2.620   0.667 -0.6434 -1.7511  1.0384
 7194SOL     OW21832   5.275   2.729   1.190  0.0035 -0.3277 -0.3646
 7194SOL    HW121833   5.339   2.779   1.140  0.3275 -0.5548 -0.1805
 7194SOL    HW221834   5.315   2.719   1.277 -0.3680 -0.3005 -0.1879
 7195SOL     OW21835   1.693   6.043   5.359  0.1242  0.2886 -0.1956
 7195SOL    HW121836   1.718   6.135   5.351 -0.0644  0.3091 -0.5549
 7195SOL    HW221837   1.737   6.013   5.439 -0.4585  0.9013  0.3657
 7196SOL     OW21838   3.854   1.053   2.562  0.1829 -0.3991 -0.3286
 7196SOL    HW121839   3.836   1.032   2.654 -0.3222 -1.9932 -0.7633
 7196SOL    HW221840   3.848   1.148   2.558  0.9273 -0.2296  1.4337
 7197SOL     OW21841   2.216   1.648   3.476 -0.1036 -0.3722  0.3037
 7197SOL    HW121842   2.254   1.567   3.442  2.5185  1.1681 -0.7251
 7197SOL    HW221843   2.256   1.659   3.562  0.8046  0.5792 -0.2167
 7198SOL     OW21844   1.512   1.832   5.276 -0.1646  0.1835  0.4964
 7198SOL    HW121845   1.518   1.844   5.181 -1.9389 -1.1644  0.1717
 7198SOL    HW221846   1.574   1.762   5.296 -0.0445  0.2333  0.3026
 7199SOL     OW21847   1.305   3.570   2.935 -0.2596  0.3665  0.0054
 7199SOL    HW121848   1.321   3.661   2.960 -0.1308 -0.0416  1.5295
 7199SOL    HW221849   1.237   3.540   2.995  0.4439 -0.8450  0.2351
 7200SOL     OW21850   0.323   6.320   5.261 -0.5157  0.1518 -0.0706
 7200SOL    HW121851   0.239   6.336   5.305 -0.5062  1.6462 -0.5355
 7200SOL    HW221852   0.355   6.238   5.298 -2.0658 -0.3153  0.3011
 7201SOL     OW21853   5.813   0.048   6.193  0.7393  0.6139 -0.2274
 7201SOL    HW121854   5.788   0.131   6.153  0.0260  0.5617  0.0870
 7201SOL    HW221855   5.876   0.072   6.261 -1.5142  1.2637  1.7727
 7202SOL     OW21856   4.158   1.623   4.355 -0.7958 -0.0622  0.0292
 7202SOL    HW121857   4.136   1.648   4.444  1.1548 -1.2205  0.8859
 7202SOL    HW221858   4.234   1.676   4.332 -0.0894 -1.1500 -0.2104
 7203SOL     OW21859   2.796   6.291   4.202  0.3540  0.2502 -0.1968
 7203SOL    HW121860   2.720   6.337   4.168  0.1302  0.1741  0.1982
 7203SOL    HW221861   2.804   6.319   4.293 -1.3821 -2.4289  0.9118
 7204SOL     OW21862   4.798   0.616   3.923  0.1188  0.0215  0.2738
 7204SOL    HW121863   4.866   0.674   3.888 -0.5241  0.2501 -0.6609
 7204SOL    HW221864   4.842   0.562   3.988  0.5771  2.1472  1.8293
 7205SOL     OW21865   6.086   6.143   5.901 -0.1149  0.0808 -0.0546
 7205SOL    HW121866   6.079   6.136   5.997 -2.8056 -0.0076 -0.1930
 7205SOL    HW221867   6.125   6.060   5.874 -0.3588 -0.3575  0.8767
 7206SOL     OW21868   4.448   2.715   2.317 -0.5255  0.3530  0.5662
 7206SOL    HW121869   4.435   2.713   2.222 -1.1864  1.1706  0.6273
 7206SOL    HW221870   4.402   2.636   2.349 -0.8763  0.4314  0.2666
 7207SOL     OW21871   5.424   4.633   4.565 -0.0728 -0.0830  0.0573
 7207SOL    HW121872   5.482   4.612   4.639 -0.5328 -0.7461  0.2466
 7207SOL    HW221873   5.341   4.590   4.588 -1.2086  2.2637  0.6320
 7208SOL     OW21874   5.367   1.033   0.964  0.0356 -0.3220  0.1918
 7208SOL    HW121875   5.430   1.104   0.952 -0.4030  0.1301  0.5313
 7208SOL    HW221876   5.350   1.001   0.876 -1.2901  1.3309 -0.2108
 7209SOL     OW21877   1.864   2.447   0.264  0.2769  0.0473  0.0675
 7209SOL    HW121878   1.802   2.514   0.294 -1.2164 -0.9344 -0.7302
 7209SOL    HW221879   1.950   2.487   0.279 -0.5362  1.7533  0.5185
 7210SOL     OW21880   0.564   2.128   4.399 -0.1598  0.1478  0.5478
 7210SOL    HW121881   0.474   2.148   4.424 -0.1110  0.0511  0.8010
 7210SOL    HW221882   0.618   2.188   4.451  0.0068 -0.8701  1.5809
 7211SOL     OW21883   3.699   0.647   1.821  0.1733  0.2312 -0.2515
 7211SOL    HW121884   3.765   0.714   1.840  1.6725 -0.6434 -2.0878
 7211SOL    HW221885   3.742   0.587   1.761 -1.2370 -2.2480  1.0686
 7212SOL     OW21886   0.979   2.023   3.588 -0.1105  0.4773  0.2116
 7212SOL    HW121887   0.993   2.078   3.511  1.2431  0.8664  0.7045
 7212SOL    HW221888   0.951   2.084   3.656  1.2091  0.5755  0.7077
 7213SOL     OW21889   6.226   3.902   2.241 -0.3113  0.1345 -0.0633
 7213SOL    HW121890   6.295   3.968   2.238  0.7647 -0.9997 -0.9819
 7213SOL    HW221891   6.199   3.891   2.150 -0.6570 -0.5087  0.1117
 7214SOL     OW21892   4.699   0.825   1.154  0.2502  0.3330 -0.1733
 7214SOL    HW121893   4.716   0.909   1.197 -0.2450  0.6629 -0.5950
 7214SOL    HW221894   4.732   0.838   1.065 -0.0128  0.1518 -0.2967
 7215SOL     OW21895   5.009   4.085   4.795  0.2534  0.1569 -0.3334
 7215SOL    HW121896   4.976   4.123   4.876 -0.3485  1.1700 -1.0385
 7215SOL    HW221897   5.080   4.027   4.823 -2.2309 -2.3582  1.2908
 7216SOL     OW21898   5.838   3.282   6.229 -0.1212  0.2266  0.2801
 7216SOL    HW121899   5.840   3.242   6.317  3.1852  1.1208  0.7208
 7216SOL    HW221900   5.853   3.375   6.245 -1.1300  0.6832 -1.2001
 7217SOL     OW21901   5.749   0.730   2.047 -0.5836  0.1970  0.2870
 7217SOL    HW121902   5.680   0.773   1.995  0.5341  0.8067 -0.7424
 7217SOL    HW221903   5.823   0.791   2.042  1.1335 -1.8673 -1.3575
 7218SOL     OW21904   0.648   5.407   5.665  0.0715  0.3425  0.5834
 7218SOL    HW121905   0.555   5.429   5.672 -0.3553 -1.3737  0.8671
 7218SOL    HW221906   0.691   5.463   5.730 -0.9557  0.2135  1.4142
 7219SOL     OW21907   0.204   4.077   5.158 -0.1916 -0.7064  0.2237
 7219SOL    HW121908   0.208   4.011   5.228  1.9649 -1.3529 -0.4155
 7219SOL    HW221909   0.234   4.158   5.200  0.1169 -0.8545  0.2919
 7220SOL     OW21910   3.787   3.174   0.500  0.2719 -0.7500 -0.2939
 7220SOL    HW121911   3.726   3.120   0.550 -2.2669 -0.2627 -2.5964
 7220SOL    HW221912   3.785   3.136   0.412  0.1394  1.6954 -1.4204
 7221SOL     OW21913   0.595   3.220   1.245  0.1749  0.1111  0.4249
 7221SOL    HW121914   0.552   3.163   1.309  0.7634  0.3013  0.9909
 7221SOL    HW221915   0.545   3.302   1.249 -0.7507 -0.3742 -0.4788
 7222SOL     OW21916   3.323   2.087   4.519 -0.1246 -0.0756 -0.0448
 7222SOL    HW121917   3.309   2.151   4.449  0.4536  0.4976  0.3555
 7222SOL    HW221918   3.402   2.116   4.564  0.5969 -1.5166 -0.3291
 7223SOL     OW21919   4.417   6.077   1.198 -0.5467  1.0786  0.4511
 7223SOL    HW121920   4.356   6.042   1.133  0.8688  0.5542 -0.6609
 7223SOL    HW221921   4.455   6.154   1.156  2.3556 -0.7403 -0.5665
 7224SOL     OW21922   2.965   3.300   5.695 -0.5960  0.0144 -0.1936
 7224SOL    HW121923   3.015   3.221   5.718 -0.2721  0.7045  1.5793
 7224SOL    HW221924   2.876   3.280   5.723 -0.6700 -0.0083 -0.4449
 7225SOL     OW21925   1.730   3.132   1.848  0.0591 -0.0793 -0.3777
 7225SOL    HW121926   1.755   3.057   1.902 -1.4106 -1.3967 -1.4326
 7225SOL    HW221927   1.677   3.187   1.906 -0.3161 -0.7593 -0.0663
 7226SOL     OW21928   4.070   0.621   4.269  0.0607  0.0043 -0.5794
 7226SOL    HW121929   4.113   0.595   4.187  0.1140  0.5789 -0.7425
 7226SOL    HW221930   4.012   0.693   4.243 -1.5864 -1.2364 -0.5000
 7227SOL     OW21931   5.786   1.147   3.545  0.2073 -0.3817 -0.3862
 7227SOL    HW121932   5.865   1.125   3.497  0.8572  1.1905 -0.1146
 7227SOL    HW221933   5.737   1.205   3.487  0.0537 -0.0327  0.0807
 7228SOL     OW21934   2.899   3.336   0.269 -0.1164  0.4596 -0.1124
 7228SOL    HW121935   2.887   3.403   0.337  0.5849  1.2691 -0.7574
 7228SOL    HW221936   2.862   3.375   0.190 -2.8129 -1.2757  0.1674
 7229SOL     OW21937   6.076   3.978   3.918 -0.3310 -0.1578 -0.1776
 7229SOL    HW121938   6.165   3.999   3.890 -0.8195  0.7174 -1.1569
 7229SOL    HW221939   6.064   3.887   3.891  0.1428 -0.1743 -0.3525
 7230SOL     OW21940   4.065   3.140   2.191 -0.5520  0.1551  0.1077
 7230SOL    HW121941   4.099   3.051   2.184 -0.1998  0.1889  1.2525
 7230SOL    HW221942   4.143   3.195   2.190 -0.7730  0.4763 -0.6737
 7231SOL     OW21943   6.014   4.630   3.528  0.1394 -0.2057 -0.1895
 7231SOL    HW121944   5.985   4.575   3.600 -1.3612  0.8652  0.0828
 7231SOL    HW221945   5.962   4.601   3.453 -1.0661  1.1389  0.0829
 7232SOL     OW21946   1.512   5.865   3.288 -0.0221  0.0057 -0.6408
 7232SOL    HW121947   1.451   5.889   3.218  0.8531  1.7766 -0.8631
 7232SOL    HW221948   1.539   5.949   3.325  2.8363 -0.6550 -1.0532
 7233SOL     OW21949   1.070   2.958   1.559  0.7700  0.6715  0.4247
 7233SOL    HW121950   1.056   2.929   1.649  0.1586 -2.1928 -0.5130
 7233SOL    HW221951   1.166   2.961   1.550  0.8396  1.1347  1.1623
 7234SOL     OW21952   2.147   5.433   6.163 -0.4695  0.3698  0.0121
 7234SOL    HW121953   2.123   5.341   6.153 -0.4619  0.3549  0.1305
 7234SOL    HW221954   2.068   5.474   6.200 -0.5438  0.4502 -0.2353
 7235SOL     OW21955   2.291   3.777   1.496 -0.7761 -0.5397 -0.1053
 7235SOL    HW121956   2.225   3.780   1.426 -0.3594  0.2650 -0.4777
 7235SOL    HW221957   2.355   3.843   1.471 -0.0034 -1.0685  0.4428
 7236SOL     OW21958   1.539   4.715   3.452 -0.4765  0.2866  0.2326
 7236SOL    HW121959   1.609   4.650   3.438  0.3584  1.2713 -0.3552
 7236SOL    HW221960   1.461   4.674   3.416  0.2396 -0.0128 -1.0429
 7237SOL     OW21961   3.797   4.003   5.059 -0.0256 -0.6368 -0.1624
 7237SOL    HW121962   3.846   3.955   4.993 -0.4561  1.8865 -2.4918
 7237SOL    HW221963   3.861   4.064   5.097 -0.3164 -0.4847  0.0892
 7238SOL     OW21964   3.160   2.117   3.337  0.0753  0.3188  0.4966
 7238SOL    HW121965   3.250   2.107   3.306 -0.3137  0.2120 -0.6339
 7238SOL    HW221966   3.144   2.211   3.334 -0.6072  0.1893 -1.6123
 7239SOL     OW21967   5.233   4.383   5.070 -0.0935 -0.2448 -0.2967
 7239SOL    HW121968   5.291   4.398   4.996  1.3154  0.4761  0.8996
 7239SOL    HW221969   5.264   4.302   5.109  1.1636  0.9184  1.2436
 7240SOL     OW21970   4.928   4.253   3.985 -0.5241 -0.4029  0.1435
 7240SOL    HW121971   4.903   4.307   4.060  0.5617 -2.3758  2.0509
 7240SOL    HW221972   4.923   4.312   3.910 -2.5551  1.4499  1.5847
 7241SOL     OW21973   3.567   4.490   1.760 -0.3456  0.0406  0.5062
 7241SOL    HW121974   3.601   4.420   1.815  0.5933  0.0538 -0.0331
 7241SOL    HW221975   3.631   4.499   1.690  0.0526  2.0977  1.0725
 7242SOL     OW21976   0.101   3.831   1.922 -0.2295  0.1525  0.3442
 7242SOL    HW121977   0.171   3.803   1.863 -1.1600  0.6727 -1.0689
 7242SOL    HW221978   0.131   3.806   2.009  1.1484 -0.7455 -0.3570
 7243SOL     OW21979   5.742   4.483   5.831  0.4152 -0.1343  0.1298
 7243SOL    HW121980   5.713   4.441   5.912 -0.8414  1.9489  0.8451
 7243SOL    HW221981   5.728   4.576   5.847  1.4096  0.4274 -2.0178
 7244SOL     OW21982   3.596   3.728   1.798 -0.5800  0.2918  0.3769
 7244SOL    HW121983   3.641   3.809   1.824 -1.9204  1.7182 -1.4313
 7244SOL    HW221984   3.658   3.685   1.738  0.2296 -0.1688  1.5158
 7245SOL     OW21985   2.195   2.555   4.938 -1.2215 -0.7606  0.0360
 7245SOL    HW121986   2.139   2.538   5.014  1.1073 -0.4488  1.9119
 7245SOL    HW221987   2.228   2.469   4.913 -1.0953 -0.7262  0.0860
 7246SOL     OW21988   5.988   2.963   3.433 -0.3580 -0.1741  0.4039
 7246SOL    HW121989   5.951   2.880   3.465 -2.9559  0.4718 -0.6987
 7246SOL    HW221990   6.011   3.010   3.513 -0.5192 -1.2423  1.1159
 7247SOL     OW21991   0.341   2.797   4.981  0.3717  0.0380 -0.0098
 7247SOL    HW121992   0.389   2.870   5.021  1.1254 -1.0927  1.2379
 7247SOL    HW221993   0.340   2.729   5.049 -0.8412 -0.8962 -0.9173
 7248SOL     OW21994   0.141   1.299   1.701 -0.4440  0.3062  0.3865
 7248SOL    HW121995   0.056   1.321   1.741 -0.4120 -0.4711  0.8895
 7248SOL    HW221996   0.120   1.284   1.609 -1.5412 -3.3524  1.0732
 7249SOL     OW21997   1.229   3.053   2.983  0.4991  0.0391  0.7031
 7249SOL    HW121998   1.186   2.968   2.969  0.8798 -0.1809  0.8573
 7249SOL    HW221999   1.189   3.111   2.918 -0.1103 -0.1330  0.9113
 7250SOL     OW22000   0.189   2.315   0.137 -0.4479  0.0368 -0.4788
 7250SOL    HW122001   0.162   2.252   0.070 -2.2724  1.1921 -0.8716
 7250SOL    HW222002   0.168   2.272   0.220  0.0336 -0.6057 -0.6790
 7251SOL     OW22003   0.045   5.352   2.814  0.1435 -0.3637  0.0450
 7251SOL    HW122004  -0.043   5.339   2.778  0.3781 -0.3065 -0.5729
 7251SOL    HW222005   0.067   5.268   2.854 -0.1403 -0.4227  0.0799
 7252SOL     OW22006   1.040   4.394   1.970 -0.1235  0.2811 -0.0774
 7252SOL    HW122007   1.109   4.442   1.925  0.5650 -0.1007  0.5548
 7252SOL    HW222008   1.001   4.339   1.902 -1.0182  1.8013 -0.8444
 7253SOL     OW22009   5.862   2.941   2.622 -0.5219  0.5704  0.1081
 7253SOL    HW122010   5.908   2.883   2.682 -2.9112 -1.3285  0.2737
 7253SOL    HW222011   5.872   2.900   2.536  0.2156  1.5305 -0.2711
 7254SOL     OW22012   3.865   0.753   1.499 -0.3635 -0.4615  0.5751
 7254SOL    HW122013   3.914   0.735   1.580  1.5005  0.1536 -0.3566
 7254SOL    HW222014   3.846   0.847   1.503  1.4604  0.0112 -0.5293
 7255SOL     OW22015   2.028   0.933   3.592  0.2631  0.2914 -1.0402
 7255SOL    HW122016   2.046   0.960   3.682 -0.4292 -0.2353 -0.7340
 7255SOL    HW222017   2.004   1.014   3.547 -1.8806  0.2150 -0.1167
 7256SOL     OW22018   5.666   4.176   0.944 -0.0521 -0.0065 -0.6284
 7256SOL    HW122019   5.758   4.193   0.924  0.0147  1.1941  0.5644
 7256SOL    HW222020   5.617   4.241   0.893 -0.0493  1.1502  0.7893
 7257SOL     OW22021   4.998   3.535   1.574 -0.4287 -0.3944  0.2290
 7257SOL    HW122022   4.999   3.608   1.635  1.1766 -0.6585  0.5818
 7257SOL    HW222023   4.979   3.574   1.489 -0.0671  0.3754  0.4908
 7258SOL     OW22024   3.148   3.747   1.965  0.0420 -0.1910 -0.1918
 7258SOL    HW122025   3.214   3.714   1.904  0.6193 -0.5187  0.5924
 7258SOL    HW222026   3.156   3.691   2.042 -0.7412  0.1513  0.1528
 7259SOL     OW22027   0.127   4.623   0.456  0.1930 -0.4300 -0.5156
 7259SOL    HW122028   0.099   4.579   0.536 -1.1087  0.5051 -0.4121
 7259SOL    HW222029   0.194   4.685   0.484 -0.7846  0.4188 -0.0037
 7260SOL     OW22030   1.903   0.028   1.707  0.2389  0.0345  0.6030
 7260SOL    HW122031   1.887   0.120   1.727 -2.3912 -0.3661  0.7167
 7260SOL    HW222032   1.818  -0.015   1.719  0.2852 -1.7052 -3.4931
 7261SOL     OW22033   3.191   1.713   4.901  0.1395 -0.6893  0.0855
 7261SOL    HW122034   3.126   1.728   4.832  0.4997  1.1789  0.1018
 7261SOL    HW222035   3.172   1.625   4.933 -1.3136 -0.8206 -1.0329
 7262SOL     OW22036   5.376   0.573   0.288 -0.5466 -0.0334  0.0373
 7262SOL    HW122037   5.378   0.637   0.359  0.4709  0.9247 -0.8142
 7262SOL    HW222038   5.448   0.513   0.309  0.7867  1.1467 -0.9270
 7263SOL     OW22039   2.209   3.592   5.979  0.0487  0.3604 -0.3056
 7263SOL    HW122040   2.218   3.684   5.955 -0.9145  0.4496 -0.3636
 7263SOL    HW222041   2.252   3.585   6.065  0.6227  0.7316 -0.5535
 7264SOL     OW22042   2.395   1.614   6.159  0.1296  0.2186 -0.2182
 7264SOL    HW122043   2.478   1.565   6.156 -0.1598 -0.3106 -3.2434
 7264SOL    HW222044   2.417   1.699   6.121 -0.3438  0.7753  0.7369
 7265SOL     OW22045   0.777   3.435   5.610 -0.4505 -0.4967 -0.2754
 7265SOL    HW122046   0.706   3.420   5.547 -1.0047 -1.4552  0.5394
 7265SOL    HW222047   0.743   3.502   5.669 -0.7508 -1.0390  0.1846
 7266SOL     OW22048   2.340   4.536   5.694  0.3164  0.6493 -0.2934
 7266SOL    HW122049   2.291   4.531   5.612  0.1279  0.1369 -0.1488
 7266SOL    HW222050   2.349   4.630   5.710 -0.7089  0.7633 -0.2728
 7267SOL     OW22051   3.045   4.910   1.497  0.1505 -0.0384 -0.7226
 7267SOL    HW122052   3.077   5.000   1.503 -0.0391 -0.0324  0.6878
 7267SOL    HW222053   2.989   4.900   1.575 -0.2822 -1.1946 -1.1646
 7268SOL     OW22054   2.716   3.885   5.422  0.1820 -0.2169  0.1963
 7268SOL    HW122055   2.663   3.862   5.345  0.4469  0.6034 -0.2455
 7268SOL    HW222056   2.790   3.933   5.386  0.7095 -0.4788  0.9083
 7269SOL     OW22057   2.118   6.165   0.842 -0.1542  0.2349 -0.0229
 7269SOL    HW122058   2.177   6.136   0.911 -0.0171 -0.5272 -0.4392
 7269SOL    HW222059   2.167   6.233   0.796 -0.0200  0.3433  0.2778
 7270SOL     OW22060   4.043   4.150   1.195 -0.0983 -0.3929  0.4676
 7270SOL    HW122061   4.099   4.085   1.237 -1.3476 -1.1649  1.0237
 7270SOL    HW222062   3.965   4.100   1.168 -0.3636  0.5614 -0.6173
 7271SOL     OW22063   2.174   6.127   3.481 -0.0664 -0.6907 -0.1094
 7271SOL    HW122064   2.100   6.185   3.498  0.6130  0.1865 -0.0928
 7271SOL    HW222065   2.155   6.048   3.533 -0.4574 -0.0409  0.7686
 7272SOL     OW22066   3.885   4.046   2.909  0.4871  0.0743  0.0645
 7272SOL    HW122067   3.956   4.039   2.974  1.5789  1.4020 -0.9242
 7272SOL    HW222068   3.817   3.989   2.943  1.5728 -0.3649  1.6640
 7273SOL     OW22069   1.190   3.868   4.678 -0.1283  0.2272 -0.0527
 7273SOL    HW122070   1.134   3.800   4.714 -0.4428  0.4184 -0.1810
 7273SOL    HW222071   1.224   3.914   4.755  1.0694 -0.8407  0.0999
 7274SOL     OW22072   1.245   4.618   0.410 -0.1563 -0.1161 -0.2459
 7274SOL    HW122073   1.236   4.712   0.426 -1.2480 -0.4605  1.4727
 7274SOL    HW222074   1.178   4.598   0.345 -1.5626 -0.0360  1.0962
 7275SOL     OW22075   5.117   4.191   0.598 -0.2956  0.2445  0.3326
 7275SOL    HW122076   5.176   4.258   0.631 -1.5162  2.5130 -1.8087
 7275SOL    HW222077   5.175   4.127   0.556  0.7590  1.4577 -0.1290
 7276SOL     OW22078   2.219   5.590   3.752 -0.1333  0.5628  0.1477
 7276SOL    HW122079   2.254   5.630   3.672  2.0703 -1.3807  0.0473
 7276SOL    HW222080   2.184   5.506   3.723  0.4148 -0.0298  1.1684
 7277SOL     OW22081   1.937   0.277   2.930  0.0210 -0.3702  0.2667
 7277SOL    HW122082   2.003   0.346   2.940  0.5676 -0.2630 -2.8764
 7277SOL    HW222083   1.982   0.208   2.882 -2.0115 -0.3915 -1.8101
 7278SOL     OW22084   2.923   4.123   3.998  0.2718  0.0091 -0.2889
 7278SOL    HW122085   2.859   4.109   3.929 -0.2206 -1.7875  0.4820
 7278SOL    HW222086   2.889   4.198   4.048 -1.1172 -0.7617 -0.0330
 7279SOL     OW22087   6.034   0.523   1.123 -0.2480 -0.0917  0.1302
 7279SOL    HW122088   5.990   0.483   1.048 -1.5412 -0.5723  1.0985
 7279SOL    HW222089   6.063   0.608   1.092 -2.2749  0.4363 -0.4450
 7280SOL     OW22090   2.326   0.556   3.781  0.7518 -0.4035 -0.2210
 7280SOL    HW122091   2.322   0.645   3.746 -0.6035 -1.4730 -3.1699
 7280SOL    HW222092   2.280   0.561   3.864 -0.6325  1.4001 -1.0212
 7281SOL     OW22093   5.628   3.267   4.976 -0.6082 -0.4338 -1.0000
 7281SOL    HW122094   5.724   3.273   4.980 -0.3851 -3.0727 -0.7552
 7281SOL    HW222095   5.603   3.336   4.914  1.3191  1.0302 -0.2708
 7282SOL     OW22096   1.216   2.099   0.571 -0.4501 -0.1527 -0.2738
 7282SOL    HW122097   1.303   2.072   0.601  0.3580  2.5549  0.0842
 7282SOL    HW222098   1.163   2.097   0.651 -0.5787 -1.1165 -0.3615
 7283SOL     OW22099   3.858   4.382   2.199  0.1796  0.5094  0.2834
 7283SOL    HW122100   3.889   4.333   2.275 -0.0855  0.4762  0.3713
 7283SOL    HW222101   3.866   4.321   2.125  0.0560  0.4076  0.3543
 7284SOL     OW22102   3.786   1.259   1.399 -0.7459 -0.0260  0.3502
 7284SOL    HW122103   3.799   1.270   1.305 -0.9538  1.3122  0.4485
 7284SOL    HW222104   3.858   1.310   1.439 -1.1188  0.0780  0.9028
 7285SOL     OW22105   4.860   2.701   0.374 -0.6275  0.5226  0.2726
 7285SOL    HW122106   4.873   2.788   0.336 -0.3289 -0.0379 -0.9762
 7285SOL    HW222107   4.842   2.717   0.467  2.4991  1.7708  0.7862
 7286SOL     OW22108   3.757   1.339   2.888  0.0785  0.3384  0.2568
 7286SOL    HW122109   3.680   1.390   2.915  0.7488  1.3181  0.3473
 7286SOL    HW222110   3.832   1.390   2.918  0.7748 -0.7773  0.4778
 7287SOL     OW22111   4.686   2.015   0.038  0.4965 -0.0620  0.1242
 7287SOL    HW122112   4.729   2.015  -0.048  0.1813  0.7711 -0.0422
 7287SOL    HW222113   4.731   1.947   0.087  0.9866 -0.2371 -0.5515
 7288SOL     OW22114   5.318   2.174   2.961  0.6662 -0.2259  0.4892
 7288SOL    HW122115   5.267   2.194   2.882  0.2561  0.7534  0.9759
 7288SOL    HW222116   5.267   2.212   3.032  1.2752 -0.6669  1.1733
 7289SOL     OW22117   4.465   5.733   0.978  0.4630  0.1046 -0.6769
 7289SOL    HW122118   4.384   5.754   0.933  0.4328  1.0004 -0.2085
 7289SOL    HW222119   4.462   5.637   0.988 -0.1884  0.0483 -1.2926
 7290SOL     OW22120   1.173   1.319   5.003  0.4501 -0.1700 -0.2057
 7290SOL    HW122121   1.233   1.279   4.941  2.9299  3.0131 -0.1132
 7290SOL    HW222122   1.087   1.309   4.963  1.4449 -1.8167 -2.0880
 7291SOL     OW22123   3.107   5.532   3.752  0.2530 -0.3745 -0.4148
 7291SOL    HW122124   3.019   5.535   3.713  0.2865 -0.7934 -0.5368
 7291SOL    HW222125   3.162   5.580   3.690  0.3664 -1.3115 -1.0769
 7292SOL     OW22126   5.006   0.690   3.765  0.0289  0.3313 -0.3446
 7292SOL    HW122127   4.945   0.741   3.711 -1.2270 -0.4890  0.2270
 7292SOL    HW222128   5.088   0.690   3.716 -1.4143 -1.6251 -3.0846
 7293SOL     OW22129   4.820   2.376   3.494 -0.0457  1.0501 -0.6062
 7293SOL    HW122130   4.906   2.335   3.499 -1.1762 -1.3767  0.0694
 7293SOL    HW222131   4.807   2.395   3.401 -0.0219 -1.4748 -1.1913
 7294SOL     OW22132   3.503   6.046   5.009 -0.2491  0.1350 -0.4904
 7294SOL    HW122133   3.539   6.126   5.047 -1.3114 -0.1403  1.1786
 7294SOL    HW222134   3.454   6.004   5.080 -3.9352  0.5117 -2.5236
 7295SOL     OW22135   1.185   1.503   5.449  0.8150 -0.2240 -0.3980
 7295SOL    HW122136   1.207   1.426   5.396  0.9453 -0.6745  0.2958
 7295SOL    HW222137   1.223   1.577   5.401  0.5513 -0.5720 -1.1538
 7296SOL     OW22138   4.858   5.734   2.970  0.9067 -0.3929 -0.1816
 7296SOL    HW122139   4.812   5.800   3.022  0.1760 -1.7337  0.9433
 7296SOL    HW222140   4.794   5.707   2.904  1.3437  0.2841 -0.8984
 7297SOL     OW22141   2.682   2.269   3.290 -0.3566 -0.0491 -0.3468
 7297SOL    HW122142   2.752   2.217   3.249 -0.9869  0.7823 -2.6901
 7297SOL    HW222143   2.601   2.235   3.253 -1.3212 -1.1817  2.5532
 7298SOL     OW22144   6.269   6.197   2.319  0.0859  0.4813  0.2389
 7298SOL    HW122145   6.358   6.222   2.343  0.1809  0.1595  0.2190
 7298SOL    HW222146   6.266   6.206   2.224  0.5377 -0.9209  0.0785
 7299SOL     OW22147   1.112   1.833   5.665 -0.2386  0.0270  0.1942
 7299SOL    HW122148   1.027   1.798   5.637  0.1305 -0.6032 -0.1635
 7299SOL    HW222149   1.108   1.831   5.760 -0.3931 -0.5890  0.1810
 7300SOL     OW22150   2.557   3.653   1.688 -0.1693  0.0922 -0.1487
 7300SOL    HW122151   2.575   3.718   1.620  0.5009 -0.0414 -0.1000
 7300SOL    HW222152   2.493   3.594   1.649  0.6167 -0.3014 -0.8592
 7301SOL     OW22153   2.023   0.305   5.214  0.3600  0.3232  0.5550
 7301SOL    HW122154   1.967   0.325   5.139  1.0105  0.9955  0.2318
 7301SOL    HW222155   2.097   0.256   5.177  0.1781 -0.2317  0.9175
 7302SOL     OW22156   3.103   2.919   1.568 -0.8260 -0.0483  0.0653
 7302SOL    HW122157   3.123   2.869   1.648 -0.1686  0.7048  0.3846
 7302SOL    HW222158   3.159   2.881   1.501  2.0114  2.1852  0.9997
 7303SOL     OW22159   5.979   0.217   0.002 -0.4564 -0.3564  0.3650
 7303SOL    HW122160   5.941   0.265   0.075 -0.6772  0.2363 -0.1319
 7303SOL    HW222161   6.046   0.162   0.042  3.0109  3.5365  0.5804
 7304SOL     OW22162   6.262   4.723   4.361 -0.5995  0.1375  0.4326
 7304SOL    HW122163   6.227   4.725   4.451  1.4904 -0.9760  1.3315
 7304SOL    HW222164   6.288   4.813   4.344 -1.3475  0.4365  0.7820
 7305SOL     OW22165   3.333   1.187   2.182 -0.1636  0.6217  0.6082
 7305SOL    HW122166   3.319   1.169   2.275 -0.4258 -1.2450  0.2451
 7305SOL    HW222167   3.340   1.101   2.142 -0.1459  1.3959 -1.1336
 7306SOL     OW22168   2.148   3.294   2.136 -0.5385 -0.3629 -0.6431
 7306SOL    HW122169   2.111   3.292   2.048 -2.5896 -0.0390  0.1429
 7306SOL    HW222170   2.177   3.205   2.153 -1.3962 -0.7513 -1.1562
 7307SOL     OW22171   3.899   4.567   5.844 -0.6036  0.4856 -0.2701
 7307SOL    HW122172   3.980   4.520   5.826  0.1261  1.0096  1.4568
 7307SOL    HW222173   3.876   4.542   5.933 -1.2794  1.8366 -0.0412
 7308SOL     OW22174   2.540   1.705   5.568  0.8762 -0.1785 -0.3565
 7308SOL    HW122175   2.519   1.798   5.570  0.7109 -0.1947 -1.0726
 7308SOL    HW222176   2.568   1.689   5.478 -1.6307 -1.3811 -0.9862
 7309SOL     OW22177   0.599   5.626   4.450 -0.4068 -0.3240  0.2466
 7309SOL    HW122178   0.558   5.641   4.365 -0.4964  0.6751  0.4580
 7309SOL    HW222179   0.539   5.665   4.513  0.9454  1.3623  0.5485
 7310SOL     OW22180   3.307   5.272   3.595 -0.2398 -0.6390  0.0133
 7310SOL    HW122181   3.281   5.303   3.682 -0.5431  2.2798 -0.9982
 7310SOL    HW222182   3.396   5.237   3.607 -0.5882 -1.0352  1.6145
 7311SOL     OW22183   4.292   5.227   0.730  0.2394 -0.3897  0.4371
 7311SOL    HW122184   4.214   5.174   0.712 -0.6394  0.3030  2.0294
 7311SOL    HW222185   4.353   5.167   0.772  1.2611 -1.3387 -2.1768
 7312SOL     OW22186   4.552   4.057   3.014  0.0439 -0.1474  0.4628
 7312SOL    HW122187   4.617   4.022   2.953  1.5827  0.8683  1.4414
 7312SOL    HW222188   4.535   3.986   3.076 -0.6373 -0.7817 -0.4215
 7313SOL     OW22189   3.357   4.909   3.114 -0.1573  0.7217 -0.7181
 7313SOL    HW122190   3.296   4.965   3.161  1.4887  0.6035  1.7262
 7313SOL    HW222191   3.328   4.820   3.134  0.3841  0.6750 -0.1017
 7314SOL     OW22192   1.404   6.104   4.538 -0.0354  0.2397  0.7310
 7314SOL    HW122193   1.479   6.088   4.481  0.1109  1.3477  0.5742
 7314SOL    HW222194   1.360   6.020   4.545 -1.3101  0.4449 -2.7793
 7315SOL     OW22195   1.669   1.420   3.381  0.1325  0.7254 -0.1507
 7315SOL    HW122196   1.728   1.470   3.324 -0.1333 -0.1395 -1.2238
 7315SOL    HW222197   1.625   1.360   3.322 -1.4950  1.0333  0.7110
 7316SOL     OW22198   1.837   5.626   2.088  0.2389  0.0660  0.3278
 7316SOL    HW122199   1.848   5.600   1.997  1.1818  1.9160 -0.1333
 7316SOL    HW222200   1.926   5.628   2.124 -0.1150 -0.5814  1.2833
 7317SOL     OW22201   2.581   4.168   5.460  0.6209  0.0847 -0.3000
 7317SOL    HW122202   2.672   4.151   5.435  0.0000 -2.7662 -1.0809
 7317SOL    HW222203   2.544   4.216   5.385  1.1234 -0.0462 -0.6381
 7318SOL     OW22204   1.046   1.448   4.473 -0.2080  0.3249  0.2608
 7318SOL    HW122205   1.040   1.479   4.564  0.8932 -0.4770  0.6200
 7318SOL    HW222206   1.111   1.378   4.475  0.5770  0.9612 -1.3290
 7319SOL     OW22207   4.834   2.136   5.510  0.3616  0.9857 -0.7884
 7319SOL    HW122208   4.765   2.081   5.473  0.8110 -0.5947  0.5755
 7319SOL    HW222209   4.906   2.130   5.448  1.2854 -2.0145  0.3806
 7320SOL     OW22210   0.089   1.726   4.825 -0.0098  0.1556 -0.5334
 7320SOL    HW122211   0.062   1.815   4.801  1.2082  0.2733 -1.6033
 7320SOL    HW222212   0.127   1.736   4.912  0.1227  0.6951 -0.6456
 7321SOL     OW22213   6.159   4.538   5.369  0.0939 -0.2425  0.1864
 7321SOL    HW122214   6.160   4.511   5.461  0.3708  0.6403  0.4553
 7321SOL    HW222215   6.244   4.513   5.335  0.4901  0.5768  0.5338
 7322SOL     OW22216   4.566   2.188   1.371 -0.7279  0.4725 -0.1187
 7322SOL    HW122217   4.518   2.108   1.351 -0.9371  1.0580 -2.1535
 7322SOL    HW222218   4.500   2.245   1.411 -0.4767 -0.4609  1.7586
 7323SOL     OW22219   1.562   1.316   0.872 -0.0993  0.9010  0.2821
 7323SOL    HW122220   1.559   1.360   0.957  2.3968  2.4389 -0.3168
 7323SOL    HW222221   1.535   1.383   0.809  2.1860  1.1839 -0.4857
 7324SOL     OW22222   3.297   0.875   0.199  0.3420  0.4010 -0.0655
 7324SOL    HW122223   3.206   0.903   0.208  0.4534  0.8830 -0.4262
 7324SOL    HW222224   3.297   0.783   0.227  0.1027  0.9448  1.8938
 7325SOL     OW22225   4.120   3.362   3.845 -0.0160 -0.0812  0.1929
 7325SOL    HW122226   4.150   3.275   3.820  0.3849  0.3010 -0.7116
 7325SOL    HW222227   4.199   3.417   3.842 -0.2152  0.2663  0.9948
 7326SOL     OW22228   5.711   3.045   5.128 -0.2339  0.3409 -0.1027
 7326SOL    HW122229   5.685   3.130   5.092 -0.5254 -0.0537 -0.8444
 7326SOL    HW222230   5.633   2.991   5.120  0.2644 -0.3157 -0.6425
 7327SOL     OW22231   1.248   3.800   2.506  0.3449  0.0584 -0.6582
 7327SOL    HW122232   1.304   3.850   2.447  0.6543  0.6784  0.1417
 7327SOL    HW222233   1.306   3.733   2.543  0.4935  0.5309 -0.0323
 7328SOL     OW22234   4.326   1.871   1.060  0.1286 -0.4588  0.1508
 7328SOL    HW122235   4.350   1.903   0.973 -0.4434 -1.6222 -0.4565
 7328SOL    HW222236   4.232   1.886   1.066  0.2308 -0.0217  0.7323
 7329SOL     OW22237   0.003   4.147   0.979 -0.0569  0.2385  0.1044
 7329SOL    HW122238   0.028   4.239   0.991 -1.5981  0.7719 -0.5920
 7329SOL    HW222239  -0.092   4.149   0.968 -0.0002 -1.3493 -0.9298
 7330SOL     OW22240   6.025   3.192   2.978  0.4795 -0.0913 -0.1816
 7330SOL    HW122241   6.005   3.118   3.036  0.3884  0.3514  0.3556
 7330SOL    HW222242   6.045   3.264   3.037 -2.8261  1.3171 -0.5440
 7331SOL     OW22243   2.382   2.341   0.196  0.4432 -0.3472  0.2444
 7331SOL    HW122244   2.379   2.271   0.131  0.9989 -0.7448  0.6477
 7331SOL    HW222245   2.312   2.401   0.169  0.8757 -0.3379 -0.9082
 7332SOL     OW22246   0.469   0.567   0.798  0.1345  0.3857  0.0930
 7332SOL    HW122247   0.430   0.642   0.842 -0.4491  0.6425 -0.8419
 7332SOL    HW222248   0.404   0.539   0.734  0.4856 -0.7083  0.1835
 7333SOL     OW22249   0.216   3.861   1.378  0.1402  0.4175 -0.4687
 7333SOL    HW122250   0.248   3.860   1.287  0.8150  0.8188 -0.2427
 7333SOL    HW222251   0.161   3.940   1.383  1.7569  1.5644  0.0045
 7334SOL     OW22252   0.868   3.509   5.980 -0.4372  0.1702  0.3482
 7334SOL    HW122253   0.918   3.520   6.061  0.4760  1.3255 -0.3382
 7334SOL    HW222254   0.846   3.416   5.977 -0.6312  0.1402  1.9978
 7335SOL     OW22255   5.866   5.803   3.105  0.2050  0.2461  0.0247
 7335SOL    HW122256   5.914   5.739   3.157 -1.1273 -0.5077  0.3831
 7335SOL    HW222257   5.774   5.774   3.110 -0.2442  1.4108 -0.9324
 7336SOL     OW22258   2.170   1.788   4.970  0.6872 -0.2032  0.4199
 7336SOL    HW122259   2.078   1.782   4.946  0.3301 -0.2948  1.7225
 7336SOL    HW222260   2.193   1.699   4.997  1.3438 -0.3229 -0.4956
 7337SOL     OW22261   5.398   0.079   1.461  0.0173 -0.5909  0.0612
 7337SOL    HW122262   5.379   0.173   1.452  1.7207  0.0583  2.3792
 7337SOL    HW222263   5.328   0.036   1.411 -1.9577  1.8220  0.5292
 7338SOL     OW22264   5.518   3.615   4.987 -0.2937  0.0242 -0.0203
 7338SOL    HW122265   5.603   3.595   4.949 -0.6851 -3.2372  0.5438
 7338SOL    HW222266   5.466   3.649   4.914  0.6585 -0.6154 -1.0178
 7339SOL     OW22267   4.786   0.241   6.271  0.4925  0.2943 -0.0079
 7339SOL    HW122268   4.864   0.249   6.326  0.5505  0.5385 -0.1241
 7339SOL    HW222269   4.723   0.303   6.310 -0.1154 -0.8495  0.8825
 7340SOL     OW22270   0.400   4.729   3.236 -0.5571  0.1506  0.0295
 7340SOL    HW122271   0.308   4.721   3.210 -0.1024 -1.0308 -1.3575
 7340SOL    HW222272   0.445   4.661   3.186  1.1731  1.0803  0.2538
 7341SOL     OW22273   0.417   4.074   3.290 -0.1383 -0.5995  0.2422
 7341SOL    HW122274   0.324   4.082   3.311 -0.1752 -1.7825  0.5650
 7341SOL    HW222275   0.422   4.092   3.196 -0.3741  1.6785  0.6086
 7342SOL     OW22276   0.477   5.515   1.505  0.0432  0.4727  0.7514
 7342SOL    HW122277   0.434   5.437   1.470  1.6072 -0.8209  1.5584
 7342SOL    HW222278   0.541   5.481   1.568  1.6380  2.3118  0.2309
 7343SOL     OW22279   3.449   1.239   6.285  0.0673 -0.5886 -0.3464
 7343SOL    HW122280   3.357   1.235   6.258  0.2790  0.7038 -1.3604
 7343SOL    HW222281   3.473   1.330   6.273  1.5735 -0.9656 -0.3497
 7344SOL     OW22282   5.330   4.924   5.496 -0.0104 -0.4888 -0.0975
 7344SOL    HW122283   5.309   4.843   5.450  0.0467 -0.7040  0.2499
 7344SOL    HW222284   5.391   4.898   5.564  0.8341  0.0245 -0.6426
 7345SOL     OW22285   4.515   6.110   5.757  0.0853 -0.1951  0.3115
 7345SOL    HW122286   4.511   6.026   5.804 -0.6036  0.2280  1.0233
 7345SOL    HW222287   4.578   6.162   5.806  1.2925 -0.6297 -0.7178
 7346SOL     OW22288   0.426   2.005   1.230  0.6456  0.1798  0.4568
 7346SOL    HW122289   0.432   2.011   1.325 -1.7310 -0.4662  0.7202
 7346SOL    HW222290   0.332   1.998   1.212  0.9894  0.7127 -1.9769
 7347SOL     OW22291   2.692   5.407   2.570  0.4560  0.3614  0.4360
 7347SOL    HW122292   2.699   5.449   2.485 -1.2512  2.8967  1.4562
 7347SOL    HW222293   2.600   5.415   2.594  0.5151 -1.9710  1.7473
 7348SOL     OW22294   0.338   0.253   5.319 -0.0377  0.0457  0.2317
 7348SOL    HW122295   0.433   0.253   5.308 -0.0014  2.2748  0.1162
 7348SOL    HW222296   0.314   0.160   5.320  2.1278 -0.5646  0.3049
 7349SOL     OW22297   2.350   3.458   3.914 -0.2271  0.0971 -0.1659
 7349SOL    HW122298   2.442   3.434   3.915 -0.3904 -0.5480  0.1100
 7349SOL    HW222299   2.328   3.477   4.005 -1.0707 -2.6787  0.3211
 7350SOL     OW22300   1.432   5.195   5.347 -0.0167 -0.1074  0.0218
 7350SOL    HW122301   1.491   5.125   5.376 -0.5565 -1.3111 -1.6613
 7350SOL    HW222302   1.434   5.191   5.252 -1.2169  1.1977 -0.0943
 7351SOL     OW22303   4.402   2.751   1.341  0.0357 -0.1849 -0.0963
 7351SOL    HW122304   4.309   2.728   1.337 -0.3659  1.5021 -1.2077
 7351SOL    HW222305   4.413   2.788   1.429 -0.2409 -0.6905  0.1639
 7352SOL     OW22306   2.419   1.518   2.923  0.0333 -0.1257 -0.6000
 7352SOL    HW122307   2.370   1.581   2.975  0.9408  1.5369 -1.7021
 7352SOL    HW222308   2.385   1.433   2.952 -2.3466  0.8760 -0.1932
 7353SOL     OW22309   1.604   1.465   4.595  0.6319  0.2372  0.0797
 7353SOL    HW122310   1.582   1.393   4.537  0.1521  0.4201  0.0250
 7353SOL    HW222311   1.595   1.544   4.541 -0.5211  0.4641  0.5710
 7354SOL     OW22312   4.206   0.978   3.687  0.1801  0.4604  0.1909
 7354SOL    HW122313   4.266   1.039   3.645 -1.2685  0.7885 -1.5250
 7354SOL    HW222314   4.134   1.032   3.717 -0.9034 -0.2906 -0.9498
 7355SOL     OW22315   4.372   6.179   3.463 -0.5428 -0.5435  0.1723
 7355SOL    HW122316   4.306   6.123   3.505 -0.9777 -0.6045 -0.5822
 7355SOL    HW222317   4.454   6.153   3.505 -1.1169  0.2570  1.8525
 7356SOL     OW22318   6.112   6.287   3.794  0.4653 -0.1458 -0.1840
 7356SOL    HW122319   6.160   6.238   3.860 -0.1241  0.9225  1.0831
 7356SOL    HW222320   6.020   6.266   3.811  0.2672  0.6964 -0.1945
 7357SOL     OW22321   3.798   5.159   1.897 -0.2987 -0.4508 -1.1779
 7357SOL    HW122322   3.731   5.126   1.957  0.5826 -0.6281 -0.2533
 7357SOL    HW222323   3.805   5.252   1.917 -0.8981 -0.2385 -1.9134
 7358SOL     OW22324   1.413   3.286   1.221  0.0606  0.4095  0.0583
 7358SOL    HW122325   1.337   3.267   1.276  0.3749  0.2852  0.4475
 7358SOL    HW222326   1.377   3.337   1.148 -0.0046  2.7048  1.5982
 7359SOL     OW22327   3.470   5.289   2.732  0.1275  0.0566  0.2982
 7359SOL    HW122328   3.526   5.222   2.772  0.6467  0.3989  0.1589
 7359SOL    HW222329   3.499   5.294   2.641  0.1494  0.5204  0.3276
 7360SOL     OW22330   0.279   1.205   4.062  0.4637  0.5514 -0.3463
 7360SOL    HW122331   0.306   1.281   4.115  0.9039 -0.0157  0.2512
 7360SOL    HW222332   0.283   1.236   3.972 -2.6688  2.3446 -0.0279
 7361SOL     OW22333   6.023   5.982   0.291 -0.5516  0.3145  0.3707
 7361SOL    HW122334   6.076   6.020   0.362 -0.6456  1.1469  0.0036
 7361SOL    HW222335   5.996   5.897   0.325  2.2004 -0.8076  0.0469
 7362SOL     OW22336   4.939   2.983   3.278 -0.1007  0.1535 -0.0711
 7362SOL    HW122337   5.016   3.028   3.245 -0.3306  0.2598 -0.4661
 7362SOL    HW222338   4.957   2.971   3.372  0.2221  0.5326 -0.0798
 7363SOL     OW22339   4.811   1.876   0.707  0.2678 -0.2801  0.1815
 7363SOL    HW122340   4.744   1.894   0.773  0.0833  1.7034 -0.4890
 7363SOL    HW222341   4.788   1.932   0.633  2.2996 -0.0404 -0.3223
 7364SOL     OW22342   4.710   3.429   1.224  1.0174 -0.4276  0.5919
 7364SOL    HW122343   4.780   3.364   1.219 -0.3842 -1.9352 -0.6994
 7364SOL    HW222344   4.636   3.382   1.262 -0.4052  0.0118 -1.4552
 7365SOL     OW22345   6.332   2.634   2.457  0.2669 -0.0503  0.3036
 7365SOL    HW122346   6.415   2.678   2.440  0.5391 -0.1045  1.4235
 7365SOL    HW222347   6.313   2.652   2.549 -0.0303 -1.5515  0.5721
 7366SOL     OW22348   0.497   5.428   2.720 -0.1184  0.1081  0.0844
 7366SOL    HW122349   0.420   5.458   2.768  0.5700  0.2708  1.1300
 7366SOL    HW222350   0.552   5.506   2.712  0.4284 -0.2492  0.3337
 7367SOL     OW22351   3.136   5.736   1.686  0.1651 -0.2180 -0.7502
 7367SOL    HW122352   3.135   5.677   1.762  1.2415  0.4046 -0.2264
 7367SOL    HW222353   3.045   5.742   1.659 -0.1104 -1.2117 -0.1053
 7368SOL     OW22354   2.598   5.377   0.563 -0.0328  0.4575  0.2371
 7368SOL    HW122355   2.571   5.285   0.565  0.1984  0.3788 -0.1615
 7368SOL    HW222356   2.544   5.419   0.629 -0.5015  0.1273  0.0728
 7369SOL     OW22357   1.451   4.693   4.183  0.2133  0.0300  0.3459
 7369SOL    HW122358   1.363   4.671   4.212  2.0729 -2.5489  5.1715
 7369SOL    HW222359   1.488   4.611   4.151  1.3145  0.7696 -0.3823
 7370SOL     OW22360   6.046   5.452   0.233  0.2017  0.2166 -0.0074
 7370SOL    HW122361   6.048   5.408   0.148 -0.6690  1.1949 -0.5433
 7370SOL    HW222362   6.130   5.498   0.238 -0.4541  1.5902 -1.1297
 7371SOL     OW22363   1.879   1.832   1.645 -0.0636  0.3540 -0.0652
 7371SOL    HW122364   1.957   1.792   1.606 -1.6408 -1.8233 -1.2102
 7371SOL    HW222365   1.835   1.759   1.689 -1.4344  1.5558  0.6283
 7372SOL     OW22366   3.584   1.044   0.867 -0.3535  0.2239 -0.3769
 7372SOL    HW122367   3.543   1.115   0.817  1.9229  1.5156 -0.5397
 7372SOL    HW222368   3.675   1.044   0.838 -0.1976 -2.5906 -0.1154
 7373SOL     OW22369   3.397   2.443   0.325 -0.1734 -0.2160  0.3483
 7373SOL    HW122370   3.351   2.385   0.264  1.5561 -0.0392 -1.2121
 7373SOL    HW222371   3.366   2.531   0.302 -1.6202 -0.3415  1.6656
 7374SOL     OW22372   2.929   1.457   2.638 -0.0271 -0.2186 -0.1986
 7374SOL    HW122373   2.901   1.413   2.558 -0.6560 -0.6182  0.2355
 7374SOL    HW222374   2.966   1.540   2.608 -1.2348  0.1116 -0.8317
 7375SOL     OW22375   1.577   0.116   5.453  0.2843 -0.1273  0.4184
 7375SOL    HW122376   1.614   0.042   5.501 -1.0438  0.4572  2.4935
 7375SOL    HW222377   1.638   0.188   5.469 -0.1595  0.0682  1.3128
 7376SOL     OW22378   1.294   3.313   3.403 -0.4049  0.3824  0.0237
 7376SOL    HW122379   1.258   3.255   3.335  2.6219  1.1934 -2.5359
 7376SOL    HW222380   1.311   3.395   3.358  0.9655  1.2571  1.9913
 7377SOL     OW22381   1.123   6.344   6.077  0.1433  0.0019  0.1377
 7377SOL    HW122382   1.040   6.390   6.089 -0.1843 -0.5635  0.1130
 7377SOL    HW222383   1.180   6.378   6.145 -0.2345  0.1301  0.3933
 7378SOL     OW22384   2.039   0.819   1.845  0.6534  0.0717  0.2940
 7378SOL    HW122385   2.002   0.774   1.921  0.2042 -1.0697 -0.5745
 7378SOL    HW222386   2.101   0.882   1.883  0.5611 -0.5807  1.5984
 7379SOL     OW22387   1.701   0.087   4.951  0.1584  0.0730 -0.5898
 7379SOL    HW122388   1.729   0.066   5.040  0.1576 -0.4069 -0.7015
 7379SOL    HW222389   1.631   0.025   4.932  0.2117  0.1196 -0.9538
 7380SOL     OW22390   1.720   4.675   2.922  0.2955 -0.0565  0.1217
 7380SOL    HW122391   1.657   4.619   2.965  0.7475 -0.5598  0.1342
 7380SOL    HW222392   1.704   4.762   2.958 -0.1504 -0.2455  0.3804
 7381SOL     OW22393   4.522   3.411   4.954  0.0784  0.0860 -0.1604
 7381SOL    HW122394   4.598   3.360   4.983 -0.5568  0.2008  1.8338
 7381SOL    HW222395   4.553   3.502   4.955  0.0339  0.1006  0.3109
 7382SOL     OW22396   3.995   4.311   1.810 -0.0719 -0.1474 -0.3762
 7382SOL    HW122397   3.937   4.275   1.743  0.7053  1.6620 -2.1323
 7382SOL    HW222398   4.084   4.298   1.775  0.3605  0.6906  0.3640
 7383SOL     OW22399   4.532   4.692   3.547  0.4513 -0.1499  0.0691
 7383SOL    HW122400   4.494   4.777   3.527 -2.4018 -0.9292  1.6694
 7383SOL    HW222401   4.626   4.708   3.552 -0.0304  3.0079  0.7862
 7384SOL     OW22402   5.293   5.135   3.419 -0.1672 -0.2143  0.2639
 7384SOL    HW122403   5.257   5.064   3.473 -0.1483  0.0476  0.6212
 7384SOL    HW222404   5.319   5.202   3.481 -1.0344  0.5040 -0.1258
 7385SOL     OW22405   3.472   0.751   2.590  0.1351  0.3444 -0.3194
 7385SOL    HW122406   3.474   0.786   2.501  1.2734  2.8541  0.5754
 7385SOL    HW222407   3.379   0.741   2.610 -0.1744  0.9262 -1.3938
 7386SOL     OW22408   0.973   1.282   1.556 -0.2212  0.1458 -0.6123
 7386SOL    HW122409   1.060   1.303   1.521 -0.5512  1.7037 -0.5650
 7386SOL    HW222410   0.986   1.272   1.650  0.0048 -0.2378 -0.6822
 7387SOL     OW22411   5.972   1.715   3.179  0.1014  0.0239  0.5628
 7387SOL    HW122412   6.023   1.642   3.214 -1.2125 -0.5985  1.2518
 7387SOL    HW222413   6.037   1.781   3.157  1.4784 -1.8246 -1.3400
 7388SOL     OW22414   0.866   4.647   0.563  0.0502  0.1625  0.8726
 7388SOL    HW122415   0.783   4.690   0.540  0.7240  1.4265  0.7137
 7388SOL    HW222416   0.849   4.607   0.648 -1.0722 -0.6423  0.3140
 7389SOL     OW22417   0.278   5.975   2.096  0.2527  0.3543 -0.2523
 7389SOL    HW122418   0.253   5.924   2.173  0.0852  0.9648  0.1025
 7389SOL    HW222419   0.339   6.041   2.130 -1.5086  2.0470 -0.2144
 7390SOL     OW22420   4.448   3.841   4.644 -0.7087  0.1222 -0.2751
 7390SOL    HW122421   4.532   3.820   4.685 -1.6017 -0.4135  1.3741
 7390SOL    HW222422   4.425   3.762   4.595 -0.8521 -0.2361  0.3531
 7391SOL     OW22423   0.221   5.300   4.038 -0.4176 -0.0093 -0.9239
 7391SOL    HW122424   0.285   5.234   4.066  0.1380  0.1203 -1.8542
 7391SOL    HW222425   0.262   5.384   4.058 -0.2813  0.0746 -1.5379
 7392SOL     OW22426   0.122   0.450   0.740  0.2321  0.4554 -0.3688
 7392SOL    HW122427   0.098   0.358   0.730 -1.3150  0.7294  0.5988
 7392SOL    HW222428   0.192   0.463   0.675  0.2108 -1.2829 -0.7963
 7393SOL     OW22429   2.706   0.412   4.368  0.4920  0.3517  0.3374
 7393SOL    HW122430   2.671   0.473   4.433  0.3011  0.0565  0.5105
 7393SOL    HW222431   2.763   0.466   4.313  2.2139  0.2435  1.9203
 7394SOL     OW22432   2.501   2.507   5.299  0.1241  0.2154  0.4379
 7394SOL    HW122433   2.569   2.455   5.255  0.6996  0.0072  1.5525
 7394SOL    HW222434   2.482   2.578   5.237 -1.0586 -1.5522 -1.3671
 7395SOL     OW22435   4.542   0.306   2.101 -0.4219 -0.3281 -0.1966
 7395SOL    HW122436   4.452   0.289   2.074 -0.3508 -1.2340  0.0983
 7395SOL    HW222437   4.554   0.253   2.180 -0.2327  1.2756  0.8920
 7396SOL     OW22438   5.338   5.497   1.864 -0.0608  0.1072 -0.4257
 7396SOL    HW122439   5.294   5.456   1.939  1.2575 -1.3409 -0.3846
 7396SOL    HW222440   5.384   5.572   1.902  0.7164 -0.6951  0.2838
 7397SOL     OW22441   5.893   1.512   2.162  0.2302  0.0351  0.5521
 7397SOL    HW122442   5.967   1.489   2.106 -0.7695 -0.1452 -0.7385
 7397SOL    HW222443   5.816   1.508   2.104 -0.5002  2.6935  1.2090
 7398SOL     OW22444   3.826   1.468   3.216 -0.4245 -0.5833  0.5706
 7398SOL    HW122445   3.866   1.511   3.292 -1.6651  1.4173  0.1564
 7398SOL    HW222446   3.893   1.473   3.148 -0.8825  1.8380  0.1877
 7399SOL     OW22447   3.267   2.772   5.305 -0.3096  0.6296  0.1597
 7399SOL    HW122448   3.240   2.713   5.235 -0.3117  0.2820  0.4516
 7399SOL    HW222449   3.260   2.720   5.385  0.1796  0.8679  0.3636
 7400SOL     OW22450   5.797   5.516   5.955 -0.7128  0.1920 -0.4895
 7400SOL    HW122451   5.882   5.536   5.917 -0.5850  1.8144  0.5119
 7400SOL    HW222452   5.747   5.475   5.885  0.4383  0.4794 -1.5001
 7401SOL     OW22453   1.583   2.221   2.473 -0.0407 -0.2608 -0.0863
 7401SOL    HW122454   1.655   2.172   2.432  0.4791 -0.2358  0.7578
 7401SOL    HW222455   1.622   2.256   2.553 -1.5794 -2.1409  1.5860
 7402SOL     OW22456   5.047   5.272   5.962  0.6712  0.1746 -0.0673
 7402SOL    HW122457   5.103   5.349   5.966  2.3742 -1.0247  0.3553
 7402SOL    HW222458   5.072   5.228   5.880  1.1899 -0.9634  0.6815
 7403SOL     OW22459   2.090   1.801   5.968  0.0926 -0.0788 -0.6783
 7403SOL    HW122460   2.069   1.735   5.902 -0.5323 -0.4204 -0.1406
 7403SOL    HW222461   2.082   1.755   6.052 -1.7531  1.0111 -0.2011
 7404SOL     OW22462   2.644   4.169   2.400 -1.0670 -0.2004  0.1646
 7404SOL    HW122463   2.684   4.249   2.367  0.4425 -1.2501 -0.6758
 7404SOL    HW222464   2.712   4.128   2.453 -1.8394 -0.9154  0.6415
 7405SOL     OW22465   6.108   1.129   2.589 -0.4281 -0.1971 -0.4200
 7405SOL    HW122466   6.027   1.170   2.560  0.3466  3.3312  1.7412
 7405SOL    HW222467   6.080   1.054   2.641 -2.1256 -0.4314 -1.5744
 7406SOL     OW22468   0.619   3.364   0.799 -0.0636 -0.2065 -0.5066
 7406SOL    HW122469   0.631   3.371   0.894 -0.1746  0.7103 -0.5495
 7406SOL    HW222470   0.706   3.384   0.762 -0.1651  0.0410 -0.6144
 7407SOL     OW22471   6.300   6.160   3.940  0.1676 -0.4867 -0.6063
 7407SOL    HW122472   6.388   6.125   3.930 -0.2042 -1.5290 -0.4052
 7407SOL    HW222473   6.282   6.153   4.034 -0.3147 -0.7659 -0.7124
 7408SOL     OW22474   1.587   2.032   3.699 -0.5687 -0.0053  0.2333
 7408SOL    HW122475   1.569   1.938   3.709 -1.1383  0.0403 -0.2944
 7408SOL    HW222476   1.591   2.065   3.789 -2.3529 -0.1777  0.4138
 7409SOL     OW22477   6.326   0.238   0.028  0.5918 -0.1633  0.2216
 7409SOL    HW122478   6.285   0.167   0.076  1.8718 -0.7807  0.4191
 7409SOL    HW222479   6.353   0.199  -0.055 -0.1259  0.4963 -0.3455
 7410SOL     OW22480   3.997   2.884   3.175 -0.3301 -0.6069  0.5862
 7410SOL    HW122481   4.087   2.911   3.162 -0.7630  1.5507  1.6150
 7410SOL    HW222482   3.961   2.876   3.086  0.5054 -0.1753  0.2032
 7411SOL     OW22483   1.161   2.789   0.038  0.6732  0.3198 -0.3692
 7411SOL    HW122484   1.240   2.780  -0.015  1.2995  2.2494  0.1335
 7411SOL    HW222485   1.189   2.837   0.116 -0.4620 -1.4283  1.2115
 7412SOL     OW22486   1.929   5.617   5.093  0.1757  0.1285 -0.7365
 7412SOL    HW122487   1.875   5.621   5.172 -2.0106  3.1091 -2.1832
 7412SOL    HW222488   2.010   5.663   5.117  0.0869 -0.1288  0.0979
 7413SOL     OW22489   2.938   3.163   1.982 -0.1690  0.3144  0.1791
 7413SOL    HW122490   2.925   3.114   1.900  0.0349  0.4133  0.0879
 7413SOL    HW222491   3.029   3.192   1.979 -0.4565  1.2151 -0.0396
 7414SOL     OW22492   4.763   3.298   5.076  0.7637  0.2314  0.5394
 7414SOL    HW122493   4.716   3.215   5.076 -0.2848  0.8077  1.4179
 7414SOL    HW222494   4.848   3.277   5.116  1.3186 -0.8180 -1.0867
 7415SOL     OW22495   1.241   6.295   1.180 -0.4132 -0.0637 -0.0221
 7415SOL    HW122496   1.158   6.338   1.160 -0.5747 -0.0363  0.7060
 7415SOL    HW222497   1.250   6.302   1.275 -0.3588 -1.4964  0.0982
 7416SOL     OW22498   4.986   5.449   2.838 -0.6233 -0.2512  0.0516
 7416SOL    HW122499   5.006   5.502   2.916  0.6270 -0.3375 -0.1997
 7416SOL    HW222500   4.904   5.405   2.860 -1.9966  2.1289  0.0915
 7417SOL     OW22501   5.582   3.379   2.734 -0.6661 -0.4747  0.5915
 7417SOL    HW122502   5.669   3.340   2.726 -1.2585 -1.5009 -1.6964
 7417SOL    HW222503   5.529   3.312   2.778 -0.7450 -0.6905  0.1803
 7418SOL     OW22504   1.099   4.472   2.268 -0.0132  0.4826 -0.0537
 7418SOL    HW122505   1.104   4.475   2.173 -3.0571 -0.7567 -0.3350
 7418SOL    HW222506   1.141   4.389   2.292 -0.5562  0.0958 -0.4398
 7419SOL     OW22507   0.972   4.385   1.132  0.2792 -0.7206 -0.1716
 7419SOL    HW122508   0.907   4.400   1.064  0.4088  0.7268 -0.0089
 7419SOL    HW222509   1.053   4.367   1.085  0.1357 -0.8032 -0.3864
 7420SOL     OW22510   5.040   6.056   0.492 -0.3570 -0.1316  0.3785
 7420SOL    HW122511   5.011   5.988   0.432 -2.8599  0.9269  0.2677
 7420SOL    HW222512   4.990   6.134   0.465  1.1852  1.3294  1.5302
 7421SOL     OW22513   0.788   2.760   4.182 -0.0045 -0.5961  0.1041
 7421SOL    HW122514   0.696   2.775   4.158 -0.2733  0.9378  1.8546
 7421SOL    HW222515   0.822   2.847   4.202  2.1207 -1.0359 -1.3051
 7422SOL     OW22516   2.839   1.033   2.627 -0.0155 -0.1891 -0.1523
 7422SOL    HW122517   2.876   0.963   2.680  0.5278 -0.3846 -0.7786
 7422SOL    HW222518   2.912   1.092   2.609 -0.3922  0.3614  0.0762
 7423SOL     OW22519   3.209   2.911   3.167 -0.2400  0.6095 -0.9068
 7423SOL    HW122520   3.182   2.931   3.078 -0.6051  0.0543 -0.9247
 7423SOL    HW222521   3.269   2.982   3.191 -0.4229  0.9528 -1.4610
 7424SOL     OW22522   2.110   4.282   0.891 -0.8425  0.4809 -0.1634
 7424SOL    HW122523   2.112   4.192   0.924  2.3906  0.7227  0.6922
 7424SOL    HW222524   2.054   4.278   0.814 -0.8781 -2.2561 -0.0917
 7425SOL     OW22525   1.340   0.082   4.871  0.2971 -0.0428  0.4186
 7425SOL    HW122526   1.356   0.078   4.777  1.6968  1.6105  0.5263
 7425SOL    HW222527   1.317  -0.007   4.896  1.4942 -0.8671 -1.2309
 7426SOL     OW22528   4.930   6.114   1.847  0.1336 -0.1777  0.0471
 7426SOL    HW122529   5.002   6.145   1.791 -0.5487  0.6507 -0.3957
 7426SOL    HW222530   4.855   6.109   1.788  0.0421 -2.0922  0.2513
 7427SOL     OW22531   5.868   5.363   5.290  0.4657  0.5837 -0.0185
 7427SOL    HW122532   5.774   5.347   5.285  0.2202  1.3372  1.5156
 7427SOL    HW222533   5.888   5.414   5.212 -0.6671  1.5634  0.2993
 7428SOL     OW22534   5.600   2.220   5.131  0.0604  0.1677 -0.6037
 7428SOL    HW122535   5.572   2.266   5.052 -0.3251  1.9167  0.5056
 7428SOL    HW222536   5.660   2.281   5.174  2.3363 -1.7903 -0.7825
 7429SOL     OW22537   0.894   1.034   2.449  0.0264  0.0300 -0.0663
 7429SOL    HW122538   0.906   1.035   2.354  1.1856 -0.8861  0.0456
 7429SOL    HW222539   0.812   0.986   2.462  0.7888 -1.4726 -0.5558
 7430SOL     OW22540   3.396   1.443   5.614 -0.4700 -0.3515 -0.4822
 7430SOL    HW122541   3.394   1.517   5.675  1.9420 -2.0006  1.8538
 7430SOL    HW222542   3.380   1.482   5.528 -4.7279  2.0560  1.0731
 7431SOL     OW22543   6.089   4.316   3.232 -0.3271 -0.3979 -0.0365
 7431SOL    HW122544   6.152   4.351   3.295  0.1381 -2.5602  0.7807
 7431SOL    HW222545   6.143   4.284   3.159 -0.5948 -0.9015 -0.0167
 7432SOL     OW22546   4.650   4.259   2.822  0.3975  0.0527  0.3515
 7432SOL    HW122547   4.598   4.202   2.878  1.7025 -0.6275  0.9275
 7432SOL    HW222548   4.592   4.282   2.749 -0.1330 -2.1559  0.0111
 7433SOL     OW22549   2.196   0.181   6.298  0.3450 -0.2062 -0.1899
 7433SOL    HW122550   2.222   0.139   6.380 -0.0922 -0.0811  0.0136
 7433SOL    HW222551   2.276   0.224   6.267  0.1320  1.1750  1.0342
 7434SOL     OW22552   6.172   3.528   0.702  0.1045 -0.0242 -0.1001
 7434SOL    HW122553   6.104   3.470   0.668 -0.6167 -0.3045  1.7055
 7434SOL    HW222554   6.223   3.553   0.625 -1.0537 -1.0996 -1.2661
 7435SOL     OW22555   1.770   1.312   0.575  0.7413 -0.3086  0.7364
 7435SOL    HW122556   1.794   1.323   0.483  1.2339  1.7870  1.0607
 7435SOL    HW222557   1.683   1.353   0.581 -1.2979 -4.1364  0.4252
 7436SOL     OW22558   2.514   4.722   5.939 -0.0162  0.5452 -0.1659
 7436SOL    HW122559   2.463   4.766   5.871  0.3050 -0.4231 -1.0587
 7436SOL    HW222560   2.584   4.783   5.961  0.8525  0.2213 -1.9042
 7437SOL     OW22561   2.725   6.257   2.756  0.2496 -0.2641  0.2293
 7437SOL    HW122562   2.631   6.242   2.745  0.7940 -3.3495 -1.4523
 7437SOL    HW222563   2.755   6.180   2.805  1.7631  1.3226  1.9212
 7438SOL     OW22564   0.326   4.773   0.601  0.5144 -0.1966 -0.4727
 7438SOL    HW122565   0.304   4.753   0.692  0.5414  0.0712 -0.4063
 7438SOL    HW222566   0.349   4.866   0.602 -0.3201  0.0198 -0.9071
 7439SOL     OW22567   2.427   3.294   0.611 -0.0478 -0.4501  0.2482
 7439SOL    HW122568   2.496   3.231   0.590 -0.3946 -1.0703  0.9208
 7439SOL    HW222569   2.460   3.377   0.579  0.5860 -0.9094 -0.3202
 7440SOL     OW22570   3.321   2.635   6.342  0.3269 -0.5735  0.1528
 7440SOL    HW122571   3.337   2.700   6.274 -1.1340  0.5794  0.8644
 7440SOL    HW222572   3.406   2.595   6.358  0.9877  0.2136 -1.2465
 7441SOL     OW22573   1.973   1.435   2.162  0.5563 -0.3402 -0.1726
 7441SOL    HW122574   2.055   1.406   2.202  0.7922 -0.4144 -0.7000
 7441SOL    HW222575   1.961   1.375   2.088 -0.5706 -1.0754  0.5782
 7442SOL     OW22576   3.917   0.228   2.821 -0.5697 -0.5414 -0.1820
 7442SOL    HW122577   3.827   0.250   2.796 -0.6938 -1.9270 -1.0805
 7442SOL    HW222578   3.955   0.190   2.742  0.6918 -0.3381  0.3020
 7443SOL     OW22579   5.542   5.337   4.144 -0.2131 -0.3498  0.2916
 7443SOL    HW122580   5.501   5.369   4.224  1.9311 -0.9006  1.7326
 7443SOL    HW222581   5.571   5.415   4.098  0.3163 -0.0564  1.1044
 7444SOL     OW22582   4.089   6.062   1.576 -0.0106 -0.8548  0.6337
 7444SOL    HW122583   4.045   5.980   1.597 -0.1312 -1.1815 -0.7874
 7444SOL    HW222584   4.025   6.111   1.525  0.4843 -0.3889  0.4529
 7445SOL     OW22585   2.632   3.435   3.937  0.4549  0.4082  0.1050
 7445SOL    HW122586   2.717   3.393   3.922  0.4446  0.2639  0.4399
 7445SOL    HW222587   2.649   3.528   3.926  0.6237  0.3681  0.0171
 7446SOL     OW22588   2.592   5.487   3.593  0.3675 -0.4765  1.2462
 7446SOL    HW122589   2.622   5.416   3.537 -0.6888 -0.1660  0.2694
 7446SOL    HW222590   2.615   5.459   3.682  2.1004 -0.9478  0.6829
 7447SOL     OW22591   4.627   4.227   3.801  0.1320 -0.1445 -0.0397
 7447SOL    HW122592   4.559   4.169   3.835 -0.1138  0.4764  0.5496
 7447SOL    HW222593   4.608   4.312   3.841  0.4300  0.3685 -0.9566
 7448SOL     OW22594   0.155   4.387   0.288 -0.4466  0.0210  0.0699
 7448SOL    HW122595   0.153   4.481   0.306 -0.3841 -0.0047  0.2131
 7448SOL    HW222596   0.234   4.355   0.332 -1.8543 -0.5656  2.3609
 7449SOL     OW22597   1.057   0.509   5.590  0.3015  0.2626 -0.0706
 7449SOL    HW122598   0.995   0.575   5.560  0.4132 -0.0079 -0.9311
 7449SOL    HW222599   1.038   0.432   5.536 -1.2115 -1.1328  2.2538
 7450SOL     OW22600   4.955   5.419   4.941  0.3627  0.4029  0.1199
 7450SOL    HW122601   5.003   5.454   5.016 -0.1657  0.3437  0.4894
 7450SOL    HW222602   5.023   5.393   4.879  0.8569 -0.8315  1.1416
 7451SOL     OW22603   4.160   1.966   4.768  1.0188 -0.1854  0.7731
 7451SOL    HW122604   4.066   1.981   4.764  0.7498 -1.8747 -1.0316
 7451SOL    HW222605   4.200   2.043   4.728  0.0892 -1.2390 -2.4756
 7452SOL     OW22606   4.962   0.352   3.286 -0.7353 -0.0562  0.1393
 7452SOL    HW122607   4.919   0.267   3.293 -3.2749  0.7189 -3.2439
 7452SOL    HW222608   4.892   0.415   3.303  0.3358  1.3297 -0.4004
 7453SOL     OW22609   3.316   1.149   2.473 -0.4011 -0.8621 -0.0501
 7453SOL    HW122610   3.388   1.212   2.474 -1.5344  0.4615  0.7491
 7453SOL    HW222611   3.343   1.081   2.535  0.5843 -0.9162 -0.5125
 7454SOL     OW22612   5.462   1.990   4.464 -0.0278 -0.1043  0.0272
 7454SOL    HW122613   5.393   1.950   4.518  0.0322 -0.5308 -0.2098
 7454SOL    HW222614   5.416   2.024   4.387  0.0186 -0.3200 -0.0944
 7455SOL     OW22615   4.025   0.753   5.718 -0.0783  0.0115  0.0888
 7455SOL    HW122616   4.067   0.800   5.646 -0.9374  0.1169 -0.3553
 7455SOL    HW222617   4.047   0.804   5.796  0.5229  0.1199 -0.1509
 7456SOL     OW22618   4.189   5.948   0.175  0.1271  0.4291 -1.1216
 7456SOL    HW122619   4.217   5.862   0.144 -1.1539  0.2653 -1.8889
 7456SOL    HW222620   4.240   5.963   0.255  1.2365 -0.5058 -1.6343
 7457SOL     OW22621   1.344   0.580   5.531  0.1116 -0.1253  0.0945
 7457SOL    HW122622   1.353   0.530   5.449  0.4108  0.1925 -0.0699
 7457SOL    HW222623   1.261   0.550   5.568  0.6857 -1.3859  0.4404
 7458SOL     OW22624   5.012   1.637   5.978  0.1674  0.0621  0.2589
 7458SOL    HW122625   4.916   1.639   5.979 -0.0483 -3.4396  0.0341
 7458SOL    HW222626   5.035   1.666   5.890 -0.6767  0.5728  0.1901
 7459SOL     OW22627   3.164   5.788   0.550 -0.0067 -0.0688  0.6202
 7459SOL    HW122628   3.096   5.748   0.603  0.5348  0.0887  1.4519
 7459SOL    HW222629   3.219   5.715   0.522  0.4801 -0.0101  1.4088
 7460SOL     OW22630   1.661   5.118   1.308  0.2790 -0.2448 -0.2917
 7460SOL    HW122631   1.636   5.177   1.379  0.2556 -1.6851  0.9337
 7460SOL    HW222632   1.663   5.031   1.348  1.8587 -0.8949 -1.6547
 7461SOL     OW22633   4.035   0.871   4.879 -0.5020  0.0643  0.3575
 7461SOL    HW122634   3.993   0.869   4.965  0.3580 -0.1921  0.7870
 7461SOL    HW222635   3.994   0.799   4.830 -0.0871 -0.6228  1.0033
 7462SOL     OW22636   4.945   4.582   1.719 -0.2300  0.2639  0.1960
 7462SOL    HW122637   4.928   4.541   1.804  2.9071 -0.1636  0.7227
 7462SOL    HW222638   4.965   4.673   1.740 -0.0625  0.3134 -0.1689
 7463SOL     OW22639   1.829   3.522   5.643 -0.0932  0.0841  0.2901
 7463SOL    HW122640   1.785   3.456   5.589  1.3185  0.5769 -1.5591
 7463SOL    HW222641   1.897   3.474   5.690  2.5214  0.4417 -2.8510
 7464SOL     OW22642   0.902   1.184   3.520 -0.6674 -0.0927  0.1951
 7464SOL    HW122643   0.973   1.224   3.571  1.2695 -1.1293 -1.5405
 7464SOL    HW222644   0.888   1.099   3.561  0.8319 -0.8912 -0.8399
 7465SOL     OW22645   2.945   5.970   4.574  0.3068  0.0871 -0.1026
 7465SOL    HW122646   2.912   5.917   4.501 -1.2070 -0.0338  0.6225
 7465SOL    HW222647   2.954   5.907   4.646  0.3296  0.4667  0.2265
 7466SOL     OW22648   2.036   4.130   1.334 -0.2980  0.1337 -0.2605
 7466SOL    HW122649   2.018   4.065   1.402 -0.5323  0.4260 -0.0398
 7466SOL    HW222650   1.951   4.168   1.315  0.0439  1.5028  0.7627
 7467SOL     OW22651   2.937   4.593   1.527  0.2746  0.3151  0.6730
 7467SOL    HW122652   2.992   4.516   1.511 -0.2051  0.1268 -0.0899
 7467SOL    HW222653   2.999   4.662   1.549  0.7434 -0.1627  0.8961
 7468SOL     OW22654   3.499   3.232   3.531 -0.5415 -0.2906  0.3970
 7468SOL    HW122655   3.555   3.179   3.473 -0.7226  0.6278 -0.6476
 7468SOL    HW222656   3.549   3.312   3.547 -1.3499  0.3402 -0.1702
 7469SOL     OW22657   1.981   0.642   4.541 -0.0061 -0.6826  0.4632
 7469SOL    HW122658   2.053   0.602   4.591  0.2321 -0.4830  0.2852
 7469SOL    HW222659   1.917   0.572   4.530  0.3224 -0.9580  0.3138
 7470SOL     OW22660   1.281   4.067   5.598  0.6941  0.2955  0.8520
 7470SOL    HW122661   1.232   3.986   5.608  2.9895 -1.1969  0.7942
 7470SOL    HW222662   1.274   4.089   5.505 -0.1687  0.3383  0.9228
 7471SOL     OW22663   4.948   1.282   4.550  0.3143  0.6006  0.3436
 7471SOL    HW122664   4.874   1.322   4.595 -0.1598  1.7587 -1.3577
 7471SOL    HW222665   4.924   1.190   4.542 -1.3030  1.0634 -0.7398
 7472SOL     OW22666   3.134   3.092   5.680 -0.9122 -0.2312 -0.6833
 7472SOL    HW122667   3.185   3.077   5.601  0.7477 -0.4782  0.3809
 7472SOL    HW222668   3.158   3.020   5.739  0.5921  1.7489  1.3126
 7473SOL     OW22669   2.012   0.164   1.110 -0.4830 -0.0076  0.2706
 7473SOL    HW122670   2.077   0.109   1.154 -0.0877 -0.3226 -0.6742
 7473SOL    HW222671   1.929   0.137   1.147 -0.6169 -3.0710 -1.8475
 7474SOL     OW22672   5.195   2.368   4.807  0.3826  0.1573  0.2853
 7474SOL    HW122673   5.143   2.297   4.770  0.1131  0.7937 -0.5878
 7474SOL    HW222674   5.209   2.343   4.899 -1.1105 -0.2154  0.4223
 7475SOL     OW22675   5.011   5.749   1.399  0.0878 -0.7183  0.0427
 7475SOL    HW122676   4.925   5.740   1.359 -0.0067 -1.1918  0.3464
 7475SOL    HW222677   5.005   5.699   1.480  0.9253 -1.5152 -0.3715
 7476SOL     OW22678   0.552   1.836   5.838 -0.2647 -0.1839  0.4344
 7476SOL    HW122679   0.636   1.793   5.848  0.2285  0.9139  1.2300
 7476SOL    HW222680   0.512   1.794   5.762  1.2260 -0.3606 -0.2824
 7477SOL     OW22681   4.444   2.389   4.775  0.7517 -0.4293 -0.0388
 7477SOL    HW122682   4.404   2.303   4.762  1.5358 -0.7902 -0.1253
 7477SOL    HW222683   4.531   2.381   4.737  0.4740  0.7242 -0.9759
 7478SOL     OW22684   0.770   1.637   2.269 -0.1387  0.3903  0.3641
 7478SOL    HW122685   0.698   1.580   2.295 -0.8759  0.1922 -1.8886
 7478SOL    HW222686   0.729   1.703   2.213  1.4193  0.3052 -0.9267
 7479SOL     OW22687   4.293   3.978   4.451  0.0750 -0.1281 -0.2630
 7479SOL    HW122688   4.217   3.920   4.444 -0.7272  0.3800  2.5958
 7479SOL    HW222689   4.353   3.932   4.509  0.5227  0.8037  0.0399
 7480SOL     OW22690   5.769   5.209   6.030 -0.5041  0.2115  0.1986
 7480SOL    HW122691   5.862   5.227   6.044 -0.2748  0.0146 -0.9242
 7480SOL    HW222692   5.739   5.283   5.977 -0.7723 -0.1483 -0.1565
 7481SOL     OW22693   2.598   3.982   1.719  0.6065  0.0706  0.3728
 7481SOL    HW122694   2.572   3.959   1.808  0.6056 -2.6979 -0.2404
 7481SOL    HW222695   2.646   4.064   1.729  1.2366 -0.5043  3.0251
 7482SOL     OW22696   1.533   3.242   4.085  0.3450 -0.1401  0.1863
 7482SOL    HW122697   1.529   3.167   4.025  1.2403  0.2022 -0.3106
 7482SOL    HW222698   1.495   3.208   4.166 -1.3120 -0.4763 -0.6827
 7483SOL     OW22699   5.011   3.269   4.143 -0.6053 -0.3873 -0.5103
 7483SOL    HW122700   5.079   3.214   4.102  0.7111 -1.9608  3.3188
 7483SOL    HW222701   5.059   3.344   4.178 -1.6711  0.8603 -1.6233
 7484SOL     OW22702   5.256   4.779   4.911  0.1401  0.3921  0.3560
 7484SOL    HW122703   5.190   4.733   4.859 -0.0059  0.6079  0.3482
 7484SOL    HW222704   5.208   4.811   4.988  0.0474  1.2476 -0.0401
 7485SOL     OW22705   0.656   1.763   2.013  0.3847 -0.2211 -0.0806
 7485SOL    HW122706   0.712   1.831   1.976 -0.9506  0.5157 -0.8264
 7485SOL    HW222707   0.668   1.688   1.955  0.9069 -0.2061  0.0042
 7486SOL     OW22708   0.906   5.522   1.326 -0.5929 -0.9944  0.1456
 7486SOL    HW122709   0.883   5.432   1.349 -0.8469 -0.8036  0.6616
 7486SOL    HW222710   0.835   5.551   1.269 -1.6955 -0.3858  1.7839
 7487SOL     OW22711   4.408   4.646   1.069  0.0257  0.0857  0.1024
 7487SOL    HW122712   4.421   4.568   1.122 -1.2926  0.7748  1.5506
 7487SOL    HW222713   4.314   4.664   1.076  0.0236  0.8925 -1.5242
 7488SOL     OW22714   5.521   4.549   5.671 -0.1557  0.2225  0.3814
 7488SOL    HW122715   5.551   4.612   5.606  0.5720  1.0976  1.5226
 7488SOL    HW222716   5.597   4.492   5.688 -0.8213 -1.0391 -0.6812
 7489SOL     OW22717   4.493   2.056   4.037 -0.0910  0.0263  0.5440
 7489SOL    HW122718   4.514   2.095   3.952 -1.0497  0.2048  0.3768
 7489SOL    HW222719   4.446   2.125   4.083  1.6633  0.4404  1.7890
 7490SOL     OW22720   5.812   4.888   6.248 -0.1295  0.5860 -0.4918
 7490SOL    HW122721   5.846   4.956   6.306 -0.4703  0.7291 -0.4618
 7490SOL    HW222722   5.734   4.925   6.208 -0.5004  0.1040 -0.2328
 7491SOL     OW22723   1.559   4.596   0.477  0.0410 -0.0555 -0.7348
 7491SOL    HW122724   1.549   4.687   0.505 -1.0684 -1.0731  2.6986
 7491SOL    HW222725   1.473   4.572   0.443 -0.4898 -0.4704  0.8060
 7492SOL     OW22726   0.429   6.165   1.812 -0.3106  0.3605  0.4726
 7492SOL    HW122727   0.485   6.126   1.744 -0.5386 -0.5228  0.7799
 7492SOL    HW222728   0.342   6.129   1.795 -0.5733  0.9190  0.6279
 7493SOL     OW22729   1.686   0.074   4.077  0.0694 -0.2571 -0.7171
 7493SOL    HW122730   1.741   0.138   4.031  0.3645  0.9210  1.1776
 7493SOL    HW222731   1.733   0.056   4.159 -0.3093 -2.4874 -0.9364
 7494SOL     OW22732   4.147   5.651   6.006  0.4004  0.1750 -0.7376
 7494SOL    HW122733   4.180   5.626   6.092  1.3494  0.6331 -0.9558
 7494SOL    HW222734   4.182   5.584   5.947  0.7069  0.4989 -0.9281
 7495SOL     OW22735   5.384   0.049   2.077 -0.3646  0.0358  0.1606
 7495SOL    HW122736   5.398  -0.040   2.108 -1.4030 -0.1299  0.1822
 7495SOL    HW222737   5.290   0.063   2.084 -0.2763  0.9710 -0.2909
 7496SOL     OW22738   4.493   1.713   3.848 -0.0751 -0.1719  1.2075
 7496SOL    HW122739   4.437   1.671   3.782 -0.7133 -0.4030  1.8736
 7496SOL    HW222740   4.431   1.745   3.914  0.4432  1.3841  0.9637
 7497SOL     OW22741   5.817   2.713   0.357  1.1040 -0.4811 -0.3349
 7497SOL    HW122742   5.797   2.673   0.442  0.0354 -1.2641 -0.9205
 7497SOL    HW222743   5.863   2.644   0.309  1.8258  0.0046 -0.3565
 7498SOL     OW22744   1.720   3.657   4.452  0.1607  0.1695 -0.1285
 7498SOL    HW122745   1.752   3.736   4.408  0.7654  0.7415  1.2555
 7498SOL    HW222746   1.689   3.689   4.537  2.0409 -1.2687  1.1771
 7499SOL     OW22747   0.530   5.439   4.125 -0.1370  0.2181  0.1556
 7499SOL    HW122748   0.501   5.410   4.039 -0.4195 -2.5327  1.0665
 7499SOL    HW222749   0.613   5.393   4.140  0.1474  1.0072  1.1607
 7500SOL     OW22750   2.274   2.809   4.859  0.1133 -0.5978  0.0796
 7500SOL    HW122751   2.251   2.728   4.906  1.2889 -0.1796  1.4140
 7500SOL    HW222752   2.299   2.871   4.928 -1.3487  1.1393 -0.8638
 7501SOL     OW22753   6.078   0.408   6.168 -0.0852 -0.0711 -0.6090
 7501SOL    HW122754   6.086   0.333   6.227  1.5821  0.7177  0.2253
 7501SOL    HW222755   6.002   0.456   6.200 -1.2152 -1.3923 -1.1960
 7502SOL     OW22756   1.605   0.386   2.935 -0.4196  0.4653 -0.5318
 7502SOL    HW122757   1.550   0.408   3.010 -1.1495 -0.5296 -0.7425
 7502SOL    HW222758   1.567   0.305   2.901  2.0174 -1.0819  0.1394
 7503SOL     OW22759   0.673   2.255   3.443  0.0897  0.5565  0.8084
 7503SOL    HW122760   0.655   2.302   3.525 -0.9416  0.8965  0.3990
 7503SOL    HW222761   0.702   2.322   3.382 -0.9874  0.6249  0.3455
 7504SOL     OW22762   2.982   5.480   5.809  0.1944  0.0939 -1.2805
 7504SOL    HW122763   3.032   5.403   5.780  0.6383  0.2393 -0.9217
 7504SOL    HW222764   3.001   5.486   5.903 -0.6583  0.0376 -1.0967
 7505SOL     OW22765   5.727   2.497   3.886  0.8766  0.2893 -0.0268
 7505SOL    HW122766   5.652   2.445   3.916  1.2694  0.3236  1.0885
 7505SOL    HW222767   5.696   2.587   3.888  0.1542  0.1325 -2.0864
 7506SOL     OW22768   3.786   0.309   5.041 -0.0115 -0.1510  0.0100
 7506SOL    HW122769   3.859   0.369   5.058  1.5106 -1.9029 -0.0364
 7506SOL    HW222770   3.777   0.310   4.945 -0.9792  1.0901  0.0980
 7507SOL     OW22771   5.574   3.255   3.359  0.0035 -0.1445  0.0893
 7507SOL    HW122772   5.661   3.261   3.399 -0.9260  0.1132  2.2507
 7507SOL    HW222773   5.536   3.342   3.371  0.3819  0.6469 -3.3909
 7508SOL     OW22774   1.061   1.340   3.697  0.1334  0.4544  0.2118
 7508SOL    HW122775   1.112   1.326   3.777 -0.5095  1.4335  0.8166
 7508SOL    HW222776   0.980   1.382   3.727 -0.3933  0.2643 -0.8873
 7509SOL     OW22777   1.016   4.540   2.884  0.6002  0.3274  0.2040
 7509SOL    HW122778   0.929   4.577   2.866 -0.4758 -1.3649  1.5848
 7509SOL    HW222779   1.034   4.563   2.975  1.9415  1.2385 -0.2672
 7510SOL     OW22780   2.053   2.168   1.600 -0.2378 -0.1383 -0.0838
 7510SOL    HW122781   2.037   2.158   1.694 -0.9500  2.5528  0.1671
 7510SOL    HW222782   1.974   2.132   1.559 -2.0492  2.6270  0.6503
 7511SOL     OW22783   5.117   3.078   5.151  0.6319 -0.9307  0.4107
 7511SOL    HW122784   5.065   3.000   5.131 -0.5368  0.3770 -2.2061
 7511SOL    HW222785   5.082   3.110   5.234 -1.9106 -0.8614 -0.5968
 7512SOL     OW22786   3.018   2.926   2.880 -0.0990 -0.2243  0.3453
 7512SOL    HW122787   2.957   2.871   2.830  0.1215 -0.2579  0.1062
 7512SOL    HW222788   3.099   2.922   2.830  0.5963 -1.5156  1.5235
 7513SOL     OW22789   3.963   0.735   0.892  0.4827  0.3893  0.0660
 7513SOL    HW122790   3.939   0.792   0.964 -1.0672 -0.2790  0.1105
 7513SOL    HW222791   3.955   0.646   0.927 -1.3927  0.0138 -1.2028
 7514SOL     OW22792   1.957   1.805   0.062  0.0510 -0.0241 -0.3724
 7514SOL    HW122793   2.030   1.765   0.110 -0.0986 -0.2434 -0.3266
 7514SOL    HW222794   1.978   1.789  -0.030 -0.5406 -1.1663 -0.3287
 7515SOL     OW22795   5.045   1.666   4.897  0.0137 -0.4872  0.6972
 7515SOL    HW122796   4.984   1.707   4.836  0.1280  1.4849  1.8118
 7515SOL    HW222797   5.029   1.572   4.888 -1.1560 -0.1724 -1.0856
 7516SOL     OW22798   0.906   0.356   3.401  0.7144 -0.3129  0.1750
 7516SOL    HW122799   0.880   0.315   3.483 -0.8209  0.5079  0.1350
 7516SOL    HW222800   0.837   0.420   3.382  1.9694  0.8247 -0.8234
 7517SOL     OW22801   3.319   0.486   3.437  0.2730 -0.1903 -0.8478
 7517SOL    HW122802   3.244   0.544   3.453 -0.2724 -1.3852  1.4048
 7517SOL    HW222803   3.388   0.521   3.494  0.1034 -1.3823  0.1364
 7518SOL     OW22804   4.929   5.192   4.681 -0.2802 -0.4356  0.0798
 7518SOL    HW122805   5.002   5.253   4.691 -0.0435 -0.8386  0.9197
 7518SOL    HW222806   4.909   5.193   4.587  2.6240 -2.3915 -0.6764
 7519SOL     OW22807   6.081   0.781   3.833  0.3752 -0.3299 -0.0397
 7519SOL    HW122808   6.114   0.826   3.911  2.5176  0.0255 -1.0699
 7519SOL    HW222809   6.002   0.736   3.863 -0.3928  1.9536  1.6666
 7520SOL     OW22810   0.647   4.088   5.440 -0.2132  0.2955 -0.0951
 7520SOL    HW122811   0.656   4.098   5.345  0.0871  1.0039  0.0022
 7520SOL    HW222812   0.587   4.158   5.466  1.5122  1.5904  0.5367
 7521SOL     OW22813   6.275   6.043   1.491  0.0830  0.4951  0.0488
 7521SOL    HW122814   6.269   6.131   1.454  0.5085  0.4838 -0.0512
 7521SOL    HW222815   6.369   6.024   1.493  0.0042  0.1134  0.2358
 7522SOL     OW22816   3.431   5.615   3.822 -0.0819 -0.1878 -0.2096
 7522SOL    HW122817   3.495   5.585   3.887 -0.2047  0.3226  0.1463
 7522SOL    HW222818   3.444   5.556   3.748  1.4442  0.4477 -0.5035
 7523SOL     OW22819   1.583   3.805   5.019 -0.0870 -0.5641  0.0986
 7523SOL    HW122820   1.565   3.736   5.083 -0.5379  0.1853  0.8027
 7523SOL    HW222821   1.663   3.777   4.974  0.8795 -0.5618  1.7678
 7524SOL     OW22822   2.817   4.187   4.544  0.4675  0.3596 -0.3280
 7524SOL    HW122823   2.900   4.147   4.569 -0.5401 -0.7881  1.3489
 7524SOL    HW222824   2.841   4.275   4.514  2.2492  0.1533  0.3616
 7525SOL     OW22825   1.798   2.120   2.330 -0.2304 -0.1416  0.6274
 7525SOL    HW122826   1.818   2.188   2.265  1.4315 -1.1568  0.0208
 7525SOL    HW222827   1.848   2.044   2.301 -0.4775 -1.0144  2.3935
 7526SOL     OW22828   4.197   4.167   3.726  0.2694 -0.2481 -0.6412
 7526SOL    HW122829   4.254   4.151   3.801 -1.7009  0.2889  1.0674
 7526SOL    HW222830   4.164   4.080   3.702 -0.6423 -0.2375  0.4692
 7527SOL     OW22831   5.837   4.966   0.768  0.1138  0.3947 -0.0697
 7527SOL    HW122832   5.923   5.006   0.753  1.0100 -0.0354  3.1519
 7527SOL    HW222833   5.791   5.029   0.824  0.5399 -1.7160  2.8839
 7528SOL     OW22834   4.053   5.495   3.198 -0.3897 -0.1091 -0.0725
 7528SOL    HW122835   4.064   5.553   3.274 -3.6937 -0.1088  0.5709
 7528SOL    HW222836   4.002   5.422   3.231 -0.6874 -0.8291 -1.9999
 7529SOL     OW22837   5.808   0.313   0.230  0.0671  0.1345 -0.9114
 7529SOL    HW122838   5.749   0.377   0.190  0.8113  0.6529 -1.1997
 7529SOL    HW222839   5.750   0.252   0.275 -0.7918 -0.2445 -2.4484
 7530SOL     OW22840   4.641   3.592   0.122  0.0279 -0.1998  0.2836
 7530SOL    HW122841   4.658   3.676   0.163 -0.1566 -0.8414  1.7285
 7530SOL    HW222842   4.546   3.582   0.125  0.1726 -1.4689  2.2832
 7531SOL     OW22843   4.050   1.391   1.782 -0.4300  0.7043 -0.0705
 7531SOL    HW122844   4.030   1.485   1.784  1.0601  1.0665 -0.6153
 7531SOL    HW222845   4.125   1.382   1.842  0.6401  0.2093 -1.4234
 7532SOL     OW22846   1.837   3.975   3.999  0.1198  0.0186  0.0136
 7532SOL    HW122847   1.907   4.025   4.041  0.7847 -0.9546  0.1109
 7532SOL    HW222848   1.883   3.912   3.943 -0.6965 -0.2124 -0.4119
 7533SOL     OW22849   0.929   3.568   6.237 -0.2116 -0.2425 -0.2637
 7533SOL    HW122850   0.850   3.619   6.257 -0.3549 -0.3636 -0.5170
 7533SOL    HW222851   0.910   3.481   6.272  0.2427  0.0089  0.6403
 7534SOL     OW22852   5.293   3.645   1.665  0.1362  0.0094  0.6312
 7534SOL    HW122853   5.209   3.689   1.681 -0.3042 -0.6463  0.1925
 7534SOL    HW222854   5.288   3.566   1.719  1.2834  0.9017  2.1014
 7535SOL     OW22855   0.182   4.090   0.167 -0.2784  0.1824  0.1921
 7535SOL    HW122856   0.222   4.141   0.238 -0.3769 -0.6345  0.8345
 7535SOL    HW222857   0.123   4.029   0.211 -1.5560  0.7423 -0.6938
 7536SOL     OW22858   1.793   4.804   1.082 -0.0211  0.1064 -0.1705
 7536SOL    HW122859   1.873   4.840   1.121  0.0080 -1.4047  1.2505
 7536SOL    HW222860   1.818   4.781   0.992  0.5130  1.6350 -0.4452
 7537SOL     OW22861   5.155   4.806   0.855 -0.2326 -0.0076  0.4110
 7537SOL    HW122862   5.174   4.715   0.877 -0.6679  0.0778  1.1704
 7537SOL    HW222863   5.205   4.822   0.775 -1.7068 -1.5154 -0.9010
 7538SOL     OW22864   3.975   4.862   3.245  0.3658  0.0807 -0.5031
 7538SOL    HW122865   3.999   4.791   3.186  1.2135 -1.3700  1.4839
 7538SOL    HW222866   4.053   4.876   3.298 -0.5255  0.9819  0.6190
 7539SOL     OW22867   4.896   0.109   0.759 -0.1603 -0.6226  0.4085
 7539SOL    HW122868   4.888   0.014   0.751  0.1904 -0.5016 -1.7888
 7539SOL    HW222869   4.846   0.129   0.838 -1.7806 -2.4438 -0.0621
 7540SOL     OW22870   4.363   1.480   4.506 -0.1777  0.9902  0.1704
 7540SOL    HW122871   4.281   1.452   4.465 -1.3825  1.8591  1.8424
 7540SOL    HW222872   4.371   1.573   4.482  1.2087  0.5215 -1.3219
 7541SOL     OW22873   0.456   2.924   4.713  0.1070 -0.2230 -0.2614
 7541SOL    HW122874   0.446   2.906   4.806 -0.3655 -2.6327 -0.6972
 7541SOL    HW222875   0.371   2.899   4.675  0.8260 -0.8381 -1.5149
 7542SOL     OW22876   2.617   2.587   2.152  0.0045  0.4489 -0.3555
 7542SOL    HW122877   2.590   2.676   2.129 -0.3472  0.2482 -0.7097
 7542SOL    HW222878   2.547   2.554   2.207  0.9528  1.0206  1.2793
 7543SOL     OW22879   5.876   2.083   1.582  0.0936  0.4378 -0.2822
 7543SOL    HW122880   5.920   2.087   1.497  0.4184 -1.6523 -0.2737
 7543SOL    HW222881   5.786   2.057   1.561  0.6133 -1.8078  0.0624
 7544SOL     OW22882   0.926   1.008   4.294  0.1862 -0.3502 -0.4276
 7544SOL    HW122883   0.987   1.042   4.229  0.6140 -1.3731 -0.5780
 7544SOL    HW222884   0.936   0.913   4.289  0.3689 -0.4481  1.2659
 7545SOL     OW22885   2.554   1.160   6.243 -0.1589  0.5622 -0.4105
 7545SOL    HW122886   2.513   1.075   6.257  1.0942 -0.4243 -2.3538
 7545SOL    HW222887   2.644   1.148   6.271  0.1652  1.0747 -1.2057
 7546SOL     OW22888   2.556   0.139   2.799  0.6402 -0.2713  0.0759
 7546SOL    HW122889   2.651   0.142   2.811  0.6227  1.2316  0.0979
 7546SOL    HW222890   2.520   0.149   2.887  0.4353 -2.0534  0.2185
 7547SOL     OW22891   1.745   4.846   3.609  0.7039 -0.0682 -0.3392
 7547SOL    HW122892   1.685   4.848   3.535 -0.5728  0.7428  0.6736
 7547SOL    HW222893   1.713   4.775   3.665  1.0138  0.0099 -0.0549
 7548SOL     OW22894   2.406   5.398   6.265 -0.5263  0.3327 -0.4114
 7548SOL    HW122895   2.388   5.409   6.359 -0.1991  0.7597 -0.3978
 7548SOL    HW222896   2.334   5.444   6.222 -1.3200 -0.8541 -0.3846
 7549SOL     OW22897   2.835   0.815   1.312 -0.0607  0.1088  0.0949
 7549SOL    HW122898   2.836   0.837   1.219  0.9326  0.0195  0.0794
 7549SOL    HW222899   2.823   0.899   1.356  1.2255  0.3979 -0.0599
 7550SOL     OW22900   2.017   4.412   3.175 -0.3431  0.5191 -0.0873
 7550SOL    HW122901   2.055   4.325   3.162 -0.5656  0.2474  0.9705
 7550SOL    HW222902   1.961   4.425   3.098  0.8862  0.3970 -1.0375
 7551SOL     OW22903   5.812   4.609   4.444 -0.6650  0.2764  0.0922
 7551SOL    HW122904   5.769   4.670   4.384  0.1851  0.0043 -0.8256
 7551SOL    HW222905   5.807   4.524   4.401 -0.3261  0.0118  0.5558
 7552SOL     OW22906   5.325   3.228   5.080 -0.4043 -0.2431  0.7431
 7552SOL    HW122907   5.343   3.238   4.986  0.5210 -0.2150  0.9081
 7552SOL    HW222908   5.242   3.180   5.083 -0.7581  0.2876 -0.0836
 7553SOL     OW22909   0.617   1.367   3.179 -0.2837 -0.0607 -0.6755
 7553SOL    HW122910   0.689   1.307   3.156  1.2834  1.8056 -0.9142
 7553SOL    HW222911   0.628   1.384   3.272 -0.8434 -0.2899 -0.5648
 7554SOL     OW22912   4.624   0.102   1.904  0.2085 -0.5106 -0.3376
 7554SOL    HW122913   4.571   0.155   1.963  2.2917  1.0797  0.1974
 7554SOL    HW222914   4.573   0.098   1.823 -1.4073 -0.3836  0.6284
 7555SOL     OW22915   4.680   3.421   0.937 -0.5012  0.3919  0.3221
 7555SOL    HW122916   4.585   3.412   0.942 -0.4274 -2.3069 -1.0610
 7555SOL    HW222917   4.711   3.398   1.024 -1.0745 -0.2463  0.3682
 7556SOL     OW22918   3.531   4.931   3.365 -0.0730  0.1324 -0.1975
 7556SOL    HW122919   3.486   5.016   3.360 -0.6656 -0.1487  0.1688
 7556SOL    HW222920   3.553   4.910   3.274 -1.7068 -0.2428 -0.5373
 7557SOL     OW22921   0.697   3.339   3.314  0.6146  0.0696 -0.2891
 7557SOL    HW122922   0.628   3.387   3.267  1.2516  0.5759 -0.7207
 7557SOL    HW222923   0.671   3.248   3.306 -0.3471  0.2941  0.1046
 7558SOL     OW22924   1.698   6.321   4.534  0.1657  0.2655  0.1487
 7558SOL    HW122925   1.605   6.301   4.543  0.0873  0.7376  0.3793
 7558SOL    HW222926   1.733   6.315   4.623  0.6802 -1.4754 -0.1308
 7559SOL     OW22927   2.473   5.447   3.127 -0.3117  0.0150  0.5683
 7559SOL    HW122928   2.539   5.506   3.090 -0.5368 -0.1088 -0.0448
 7559SOL    HW222929   2.523   5.386   3.181 -0.0227  0.4551  0.8062
 7560SOL     OW22930   5.392   4.779   2.800  0.6215 -0.1205 -0.0128
 7560SOL    HW122931   5.408   4.855   2.857 -1.4305 -0.6860  1.4446
 7560SOL    HW222932   5.439   4.707   2.844  0.1346 -0.2823  0.2494
 7561SOL     OW22933   3.084   0.679   4.043 -0.2348 -0.1728  0.3080
 7561SOL    HW122934   3.146   0.725   3.987 -0.5641  0.5990  0.5693
 7561SOL    HW222935   3.119   0.590   4.050 -1.7635 -1.2624 -3.6365
 7562SOL     OW22936   3.045   2.866   2.091  0.8017 -0.3681 -0.5121
 7562SOL    HW122937   2.966   2.884   2.142  0.6848 -1.0092 -0.4675
 7562SOL    HW222938   3.116   2.903   2.143  0.5346  0.2025 -0.5476
 7563SOL     OW22939   1.740   5.322   1.102  0.3746  0.4081  0.1915
 7563SOL    HW122940   1.731   5.252   1.167 -0.9683 -2.4770 -2.8609
 7563SOL    HW222941   1.651   5.354   1.088  0.5149  0.3928 -0.8137
 7564SOL     OW22942   0.736   5.573   5.479 -0.4101 -0.1195  0.8672
 7564SOL    HW122943   0.827   5.561   5.451 -1.1301 -0.4820 -1.5180
 7564SOL    HW222944   0.710   5.489   5.515 -0.5828 -0.9287 -1.0195
 7565SOL     OW22945   2.805   2.898   4.416  0.4948 -0.5247  0.3708
 7565SOL    HW122946   2.740   2.967   4.410  1.8410  0.6650 -1.2920
 7565SOL    HW222947   2.769   2.837   4.481 -1.4857  0.8813  0.6768
 7566SOL     OW22948   4.550   6.290   1.053  0.4755  0.8153 -0.4942
 7566SOL    HW122949   4.540   6.382   1.077 -0.2235  0.5254  0.3710
 7566SOL    HW222950   4.564   6.291   0.959 -1.8713  1.6688 -0.8913
 7567SOL     OW22951   5.349   2.174   2.130 -0.6817  0.0096 -0.2078
 7567SOL    HW122952   5.393   2.158   2.047 -1.2998 -0.9108 -0.3732
 7567SOL    HW222953   5.258   2.147   2.115 -1.2013  1.3568  0.2784
 7568SOL     OW22954   1.599   0.620   4.061 -0.1190 -0.1290 -0.3149
 7568SOL    HW122955   1.661   0.562   4.017  0.7595  1.4527 -1.2506
 7568SOL    HW222956   1.552   0.664   3.991 -1.3305 -0.2572  0.3804
 7569SOL     OW22957   1.810   4.644   5.672 -0.1799  0.7952 -0.3231
 7569SOL    HW122958   1.718   4.637   5.698 -0.4643 -0.7768 -1.5850
 7569SOL    HW222959   1.808   4.688   5.588  0.4723  2.9518  0.7160
 7570SOL     OW22960   4.963   5.445   6.151  0.0787 -0.2863  0.2479
 7570SOL    HW122961   4.983   5.377   6.087  0.4521  1.0223 -1.0636
 7570SOL    HW222962   4.977   5.527   6.105  0.9358  0.7257  2.1814
 7571SOL     OW22963   3.626   4.639   4.738  0.3619 -0.5523 -0.0202
 7571SOL    HW122964   3.555   4.699   4.714  0.8427 -0.0570 -0.2265
 7571SOL    HW222965   3.582   4.566   4.781 -0.1990  0.1880  0.7061
 7572SOL     OW22966   4.289   5.417   0.539 -0.0128 -0.3655  0.0972
 7572SOL    HW122967   4.224   5.482   0.567  0.1004 -0.1945 -0.0300
 7572SOL    HW222968   4.280   5.345   0.601 -0.4856 -0.4458 -0.0612
 7573SOL     OW22969   5.015   3.348   0.401  0.5200 -0.0776 -0.4203
 7573SOL    HW122970   5.093   3.402   0.418  0.8817 -0.8771  0.5554
 7573SOL    HW222971   4.942   3.408   0.413  0.8322 -0.1274  2.3585
 7574SOL     OW22972   3.784   3.635   2.302  0.2581  1.1708 -0.1756
 7574SOL    HW122973   3.733   3.568   2.257  2.7469 -0.6813 -0.4383
 7574SOL    HW222974   3.757   3.628   2.394  0.1330  0.1226 -0.2830
 7575SOL     OW22975   5.858   0.851   3.597  0.6763  0.7074 -0.2718
 7575SOL    HW122976   5.824   0.936   3.625  0.3600 -0.3143  2.8524
 7575SOL    HW222977   5.843   0.793   3.672 -0.8632 -2.6525 -2.8963
 7576SOL     OW22978   5.328   2.052   1.201  0.0938 -0.5154  0.0475
 7576SOL    HW122979   5.341   1.962   1.171  0.3257 -0.3721 -0.2817
 7576SOL    HW222980   5.235   2.055   1.225 -0.3505 -0.3870 -1.5488
 7577SOL     OW22981   3.419   4.729   3.503  0.4526 -0.0592  0.0958
 7577SOL    HW122982   3.453   4.807   3.458  0.4416  0.7292  1.3865
 7577SOL    HW222983   3.461   4.656   3.459  0.7214  0.6904 -0.9455
 7578SOL     OW22984   3.438   3.025   4.014  0.2841  0.2040 -0.2594
 7578SOL    HW122985   3.509   3.078   4.050 -0.3938  0.7385  0.3359
 7578SOL    HW222986   3.423   3.060   3.926  1.6765 -0.8373 -0.9466
 7579SOL     OW22987   1.116   2.586   4.363  0.2097  0.4049 -0.0307
 7579SOL    HW122988   1.134   2.528   4.290  0.5665  1.4705 -0.8222
 7579SOL    HW222989   1.020   2.588   4.369  0.1979 -0.3025  0.0508
 7580SOL     OW22990   1.836   0.378   4.433  0.4213  0.8502  0.6489
 7580SOL    HW122991   1.783   0.446   4.390  0.0758  0.5370  0.5750
 7580SOL    HW222992   1.772   0.320   4.474  0.7555  1.5616  2.2452
 7581SOL     OW22993   5.554   1.258   6.050 -0.3640  0.0827 -0.3902
 7581SOL    HW122994   5.525   1.332   6.103  1.9879  1.0718 -0.3234
 7581SOL    HW222995   5.481   1.240   5.991 -0.3931  3.8748 -1.8534
 7582SOL     OW22996   2.755   3.248   4.982  0.0519 -0.0208 -0.0076
 7582SOL    HW122997   2.749   3.298   5.063 -0.3205 -0.4298  0.2229
 7582SOL    HW222998   2.685   3.182   4.989  0.7290 -0.7780 -0.1534
 7583SOL     OW22999   1.297   5.339   6.325  0.3319 -0.6997  0.4750
 7583SOL    HW123000   1.239   5.414   6.328 -1.1391 -1.7888  0.4376
 7583SOL    HW223001   1.382   5.373   6.352 -0.0689  1.1542 -0.4363
 7584SOL     OW23002   3.503   1.359   2.042 -0.6699  0.2991 -0.5573
 7584SOL    HW123003   3.453   1.298   2.096 -1.4442  0.6345 -0.8720
 7584SOL    HW223004   3.474   1.342   1.953 -1.2884  1.4665 -0.5998
 7585SOL     OW23005   2.846   4.146   0.871  0.0325  0.4247 -0.2770
 7585SOL    HW123006   2.895   4.065   0.859 -0.6434 -0.1511  0.7150
 7585SOL    HW223007   2.899   4.212   0.826  0.1751 -0.6816 -1.8382
 7586SOL     OW23008   3.312   1.056   4.794 -0.3493 -1.0647 -0.0499
 7586SOL    HW123009   3.315   0.966   4.760  0.5975 -1.4016  0.8389
 7586SOL    HW223010   3.327   1.046   4.888 -0.3047  0.0261  0.0720
 7587SOL     OW23011   0.349   0.731   6.104  0.0857  0.0479 -0.0340
 7587SOL    HW123012   0.382   0.643   6.121  0.5869  0.0036 -1.1124
 7587SOL    HW223013   0.397   0.759   6.025  1.0361  1.8599  1.1186
 7588SOL     OW23014   1.305   4.849   3.707 -0.3160 -0.1943  0.1613
 7588SOL    HW123015   1.330   4.870   3.797 -2.4352  2.1990  0.2746
 7588SOL    HW223016   1.362   4.904   3.653 -0.2967 -0.2612  0.1132
 7589SOL     OW23017   4.534   4.994   1.125 -0.5892 -0.1192 -0.0345
 7589SOL    HW123018   4.571   4.906   1.119 -1.4739 -0.4362 -1.4612
 7589SOL    HW223019   4.478   4.991   1.203  0.2624 -0.4456  0.5837
 7590SOL     OW23020   3.698   3.429   6.230  0.0043 -0.1425 -1.1086
 7590SOL    HW123021   3.650   3.385   6.159 -0.6323  0.4705 -1.0667
 7590SOL    HW223022   3.762   3.364   6.259 -0.5499 -0.8451 -1.4262
 7591SOL     OW23023   1.526   0.998   6.070 -1.0463 -0.0772  0.4002
 7591SOL    HW123024   1.439   0.964   6.089 -0.7514 -0.6103  0.8222
 7591SOL    HW223025   1.535   0.989   5.975 -0.6366 -2.0555  0.5852
 7592SOL     OW23026   4.886   2.056   2.628 -0.4178  0.1258 -0.3089
 7592SOL    HW123027   4.974   2.025   2.606 -0.3309 -0.5942  0.9605
 7592SOL    HW223028   4.862   2.007   2.707 -0.5028  2.8478  1.4873
 7593SOL     OW23029   2.326   0.025   3.434  0.0137  0.0863  0.0405
 7593SOL    HW123030   2.264  -0.048   3.428 -2.2133  1.9508 -1.4367
 7593SOL    HW223031   2.391   0.005   3.367  1.5863 -2.2390  2.0601
 7594SOL     OW23032   0.050   3.209   5.556  0.2618  0.0062  0.2745
 7594SOL    HW123033   0.031   3.155   5.479  0.6834 -0.8568  0.7611
 7594SOL    HW223034  -0.022   3.192   5.616 -1.1063  2.1630 -0.6528
 7595SOL     OW23035   0.099   4.024   5.512  0.0377  0.0704 -0.8739
 7595SOL    HW123036   0.123   3.965   5.441 -0.6492 -2.5128  0.9307
 7595SOL    HW223037   0.177   4.028   5.567 -0.6201 -0.9309  0.1537
 7596SOL     OW23038   2.728   1.730   5.777 -0.0968  0.1055 -0.0545
 7596SOL    HW123039   2.643   1.724   5.734 -0.4312  0.2793  0.5576
 7596SOL    HW223040   2.731   1.819   5.811  0.9841  0.5916 -1.3601
 7597SOL     OW23041   0.704   2.571   2.268 -0.0358 -0.1905 -0.2931
 7597SOL    HW123042   0.687   2.650   2.318 -1.7447 -1.2469  0.8991
 7597SOL    HW223043   0.634   2.568   2.203 -0.7857 -1.3800  0.5399
 7598SOL     OW23044   5.853   2.752   5.307  0.4898  0.2280  0.1651
 7598SOL    HW123045   5.868   2.773   5.215  0.8382 -0.3747  0.0827
 7598SOL    HW223046   5.848   2.837   5.350  1.0772  0.5023 -0.2939
 7599SOL     OW23047   3.738   1.519   0.556  0.8981 -0.0732  0.3543
 7599SOL    HW123048   3.784   1.600   0.536 -1.0360  1.0824  0.4040
 7599SOL    HW223049   3.696   1.494   0.473 -0.7073  0.4637  0.9753
 7600SOL     OW23050   0.877   1.087   4.570 -0.0873 -0.1659 -0.2510
 7600SOL    HW123051   0.841   1.001   4.592  0.1457  0.1418  1.5629
 7600SOL    HW223052   0.906   1.079   4.480  0.9734 -2.3615  0.2117
 7601SOL     OW23053   0.094   2.031   2.323 -0.3519 -0.3850  0.3687
 7601SOL    HW123054   0.170   1.983   2.356  1.0291  0.7493 -1.0060
 7601SOL    HW223055   0.070   2.089   2.395  3.0615  2.5678 -0.5874
 7602SOL     OW23056   5.248   0.685   3.617 -0.3643  0.0582 -0.0302
 7602SOL    HW123057   5.338   0.655   3.632 -0.5693 -0.3592  0.4057
 7602SOL    HW223058   5.205   0.613   3.571 -0.5930  0.0747  0.1539
 7603SOL     OW23059   2.381   6.161   2.292  0.4140 -0.4181 -0.5313
 7603SOL    HW123060   2.349   6.181   2.204  2.1829  0.3822 -1.0378
 7603SOL    HW223061   2.428   6.239   2.320  2.0547 -1.5529  0.0699
 7604SOL     OW23062   2.800   6.099   3.149  0.5562 -0.0706  0.2565
 7604SOL    HW123063   2.705   6.099   3.164  0.6991  0.3270  1.2282
 7604SOL    HW223064   2.809   6.089   3.054 -0.4139 -1.8734  0.3198
 7605SOL     OW23065   2.077   2.450   5.167 -0.1856 -0.4057  0.0631
 7605SOL    HW123066   2.111   2.418   5.250  0.8856 -0.6595 -0.4558
 7605SOL    HW223067   2.001   2.504   5.191  0.0594 -0.5384  1.1864
 7606SOL     OW23068   2.202   6.132   5.603  0.1651  0.3104  0.2978
 7606SOL    HW123069   2.124   6.080   5.587  0.4019  0.6040 -2.3788
 7606SOL    HW223070   2.169   6.214   5.639 -0.5631 -0.2673  0.9715
 7607SOL     OW23071   4.188   1.932   4.112 -0.5508  0.4120 -0.2060
 7607SOL    HW123072   4.117   1.958   4.171 -0.8638  2.9562 -1.5844
 7607SOL    HW223073   4.259   1.994   4.130  1.0827 -1.5318  0.5189
 7608SOL     OW23074   6.267   5.962   4.879  0.9528 -0.4021 -0.0409
 7608SOL    HW123075   6.311   5.891   4.926  0.7685 -1.2454 -1.1263
 7608SOL    HW223076   6.206   5.998   4.943  0.5776 -1.6467  0.3239
 7609SOL     OW23077   5.340   5.885   2.718  0.1734 -0.8454 -0.3020
 7609SOL    HW123078   5.403   5.933   2.771 -2.1105  0.8754  1.0414
 7609SOL    HW223079   5.303   5.951   2.659 -0.2213 -1.8455 -1.2086
 7610SOL     OW23080   3.150   2.495   2.851 -0.1662 -0.0429  0.1075
 7610SOL    HW123081   3.067   2.522   2.890  1.1968  2.4015  1.5760
 7610SOL    HW223082   3.199   2.576   2.840  1.7419 -1.3077 -1.5180
 7611SOL     OW23083   5.951   2.972   0.030 -0.0062 -0.3804  0.2943
 7611SOL    HW123084   5.950   2.888  -0.016  2.3013 -1.4372  1.9891
 7611SOL    HW223085   6.041   2.982   0.059 -0.8062  1.4572  2.3500
 7612SOL     OW23086   0.056   4.961   3.554 -0.2354 -0.5094  0.1586
 7612SOL    HW123087   0.136   4.909   3.543 -0.6521 -0.9049 -1.2770
 7612SOL    HW223088   0.063   4.999   3.641  2.0691  0.4174 -0.3873
 7613SOL     OW23089   0.384   5.767   1.588 -0.0395  0.2114 -0.2087
 7613SOL    HW123090   0.290   5.778   1.604 -0.2297 -0.9310 -0.4652
 7613SOL    HW223091   0.389   5.701   1.519  0.9826 -0.6080  0.6245
 7614SOL     OW23092   1.425   3.696   6.256 -0.0443  0.5234 -0.2170
 7614SOL    HW123093   1.422   3.687   6.161  0.9992  1.2851 -0.3389
 7614SOL    HW223094   1.338   3.669   6.286  0.5123 -2.5609 -1.1021
 7615SOL     OW23095   5.171   6.316   2.738 -0.2709 -0.3686  0.7413
 7615SOL    HW123096   5.173   6.376   2.664 -0.1212 -0.7996  0.3979
 7615SOL    HW223097   5.151   6.373   2.813  2.1551  0.5135  0.8222
 7616SOL     OW23098   0.528   2.699   5.762  0.0715 -0.3541  0.3880
 7616SOL    HW123099   0.620   2.719   5.744 -0.1646  0.0480 -0.4125
 7616SOL    HW223100   0.509   2.744   5.845  0.0748  1.1810 -0.4144
 7617SOL     OW23101   2.333   0.240   2.376 -0.2080 -0.0164 -0.3884
 7617SOL    HW123102   2.382   0.170   2.418 -1.2677  0.2670  1.4522
 7617SOL    HW223103   2.310   0.300   2.448 -0.3688  1.5837 -1.7094
 7618SOL     OW23104   1.934   1.940   0.934  0.4974  0.2874 -0.4810
 7618SOL    HW123105   1.852   1.921   0.889  0.4970  1.4258 -0.9954
 7618SOL    HW223106   1.913   2.011   0.994  0.0391 -2.4222  2.8511
 7619SOL     OW23107   3.237   0.874   5.457  0.1286  0.1942 -0.0541
 7619SOL    HW123108   3.187   0.880   5.538  1.2706  3.3395  0.5601
 7619SOL    HW223109   3.231   0.782   5.432 -1.7908 -0.5172  2.5865
 7620SOL     OW23110   1.322   2.765   4.343 -0.0019  0.5595 -0.1789
 7620SOL    HW123111   1.230   2.741   4.347  0.4830 -1.8697 -1.3575
 7620SOL    HW223112   1.359   2.735   4.426 -0.0117  0.0658 -0.3457
 7621SOL     OW23113   0.449   5.176   3.327  0.2367  0.3739 -0.6716
 7621SOL    HW123114   0.481   5.111   3.265 -1.5669  0.1962 -1.4848
 7621SOL    HW223115   0.508   5.250   3.316  0.1105  0.2652 -2.4862
 7622SOL     OW23116   0.868   0.952   3.680  0.0748 -0.0105 -0.6405
 7622SOL    HW123117   0.898   0.943   3.770 -1.6379 -1.2334 -0.1313
 7622SOL    HW223118   0.863   0.862   3.648  0.2682  0.3872 -1.8355
 7623SOL     OW23119   0.479   0.181   2.996 -0.2110  0.2221  0.3290
 7623SOL    HW123120   0.473   0.085   2.998 -0.6781  0.1619 -1.6590
 7623SOL    HW223121   0.395   0.210   3.031 -0.9129 -0.1697 -0.9469
 7624SOL     OW23122   3.502   0.586   4.740  0.0122  0.2907 -0.1309
 7624SOL    HW123123   3.515   0.493   4.761  0.7486  0.5374  0.5833
 7624SOL    HW223124   3.503   0.630   4.825 -0.3155  0.9588 -0.4663
 7625SOL     OW23125   2.095   1.427   5.016 -0.1039 -0.4263  0.0320
 7625SOL    HW123126   2.039   1.381   4.954 -0.9802  0.9733 -0.2618
 7625SOL    HW223127   2.173   1.371   5.024 -0.8310 -1.6128 -0.7836
 7626SOL     OW23128   1.820   1.726   1.256 -0.0210 -0.2377  0.2383
 7626SOL    HW123129   1.806   1.636   1.284  2.2231 -1.2602 -1.5683
 7626SOL    HW223130   1.784   1.730   1.167  2.4385 -0.3022 -0.8540
 7627SOL     OW23131   5.410   6.151   2.193 -0.5097 -0.0959 -0.0059
 7627SOL    HW123132   5.470   6.077   2.201 -0.9806 -0.5249 -0.4001
 7627SOL    HW223133   5.341   6.134   2.257  0.1960  0.8150  1.0396
 7628SOL     OW23134   4.401   5.328   2.802  0.3134 -0.0032  0.2910
 7628SOL    HW123135   4.407   5.238   2.768 -0.2946 -0.9572  2.5267
 7628SOL    HW223136   4.417   5.319   2.896  0.4946  2.2905  0.5272
 7629SOL     OW23137   2.471   5.067   5.919  0.2450  0.4711  0.0688
 7629SOL    HW123138   2.493   5.149   5.963  0.6299  0.2385  0.3188
 7629SOL    HW223139   2.492   5.083   5.827  0.9492  0.4347  0.2210
 7630SOL     OW23140   5.550   1.008   1.620 -0.3423 -0.2890  0.6550
 7630SOL    HW123141   5.511   0.923   1.642 -1.6783  0.3577  0.8892
 7630SOL    HW223142   5.567   1.049   1.705  1.0292 -0.6155  0.5613
 7631SOL     OW23143   5.973   0.652   5.816 -0.3617 -0.3020  0.1543
 7631SOL    HW123144   6.013   0.576   5.773 -0.3715  0.2291 -0.8290
 7631SOL    HW223145   6.032   0.672   5.888 -0.0853 -0.9370  0.1138
 7632SOL     OW23146   3.377   1.762   3.586  0.0825  0.4560  0.5795
 7632SOL    HW123147   3.324   1.732   3.660  0.5479 -1.4414  0.2006
 7632SOL    HW223148   3.313   1.779   3.517 -0.3078  1.7041  1.2220
 7633SOL     OW23149   2.105   4.127   0.144 -0.7672  0.5535 -0.1243
 7633SOL    HW123150   2.110   4.111   0.238  1.2941  0.6195 -0.1746
 7633SOL    HW223151   2.036   4.069   0.113  0.2381 -1.3687  1.0684
 7634SOL     OW23152   2.022   0.642   1.202  0.2039  0.7867  0.4311
 7634SOL    HW123153   2.076   0.570   1.169  0.4198  1.3585 -0.4941
 7634SOL    HW223154   2.018   0.704   1.129  0.4178  1.9320  1.3756
 7635SOL     OW23155   2.865   5.728   2.025  0.2055  0.7670  0.3693
 7635SOL    HW123156   2.911   5.803   1.986  0.6129  0.0256 -0.5942
 7635SOL    HW223157   2.782   5.724   1.979  0.3048  0.4460  0.2198
 7636SOL     OW23158   6.004   1.476   2.648  0.5893 -1.1014 -0.4493
 7636SOL    HW123159   5.998   1.419   2.571  1.1891 -0.2018 -1.1981
 7636SOL    HW223160   6.062   1.548   2.620 -0.5967  0.1780  0.2478
 7637SOL     OW23161   5.608   1.090   2.437 -0.6233  0.6874 -0.3852
 7637SOL    HW123162   5.604   0.997   2.417 -0.6481  0.4482  0.6556
 7637SOL    HW223163   5.555   1.132   2.369 -1.6076 -0.1737 -0.1814
 7638SOL     OW23164   5.349   3.784   1.265 -0.2514  0.3989  0.0109
 7638SOL    HW123165   5.313   3.699   1.288 -2.2557  1.1314 -0.2590
 7638SOL    HW223166   5.328   3.795   1.172  0.2478  1.0718 -0.0323
 7639SOL     OW23167   3.202   0.609   1.671 -0.3541  0.3428  0.1616
 7639SOL    HW123168   3.124   0.623   1.617 -1.2747  1.3651  1.6902
 7639SOL    HW223169   3.252   0.690   1.663 -0.8926  0.8206  1.4329
 7640SOL     OW23170   3.672   1.961   0.736  0.3748 -0.1706  0.6168
 7640SOL    HW123171   3.584   1.965   0.699  0.8346  0.0702 -0.5197
 7640SOL    HW223172   3.663   1.993   0.825 -0.9350 -1.5619  1.0175
 7641SOL     OW23173   5.935   5.390   3.772  0.2483 -0.6881  0.0197
 7641SOL    HW123174   5.918   5.300   3.744 -0.3740  0.4068 -3.6150
 7641SOL    HW223175   5.857   5.416   3.820 -0.7327 -1.2951 -1.1948
 7642SOL     OW23176   5.159   0.596   4.377  0.4449  0.3824 -0.0724
 7642SOL    HW123177   5.252   0.599   4.357  0.3054 -2.0011 -1.5204
 7642SOL    HW223178   5.152   0.539   4.454  0.1770  0.6241  0.0876
 7643SOL     OW23179   6.309   3.508   1.425 -0.0255 -0.1529 -0.0122
 7643SOL    HW123180   6.218   3.525   1.400 -0.4145 -2.4158 -0.3440
 7643SOL    HW223181   6.360   3.535   1.348 -0.4111  0.8535  0.0635
 7644SOL     OW23182   3.420   4.056   4.721  0.3534 -0.5186 -0.1798
 7644SOL    HW123183   3.443   3.972   4.682  0.0213 -0.6198 -0.1584
 7644SOL    HW223184   3.415   4.116   4.647  3.2525  0.1183  0.0320
 7645SOL     OW23185   6.069   3.784   5.971  0.4878  0.7240 -0.0824
 7645SOL    HW123186   6.071   3.788   5.875  1.1057 -0.6917 -0.1382
 7645SOL    HW223187   5.998   3.844   5.995 -1.6154 -0.9845 -1.5832
 7646SOL     OW23188   2.586   2.630   4.855  0.2912 -0.0200  0.2784
 7646SOL    HW123189   2.646   2.555   4.864  1.3160  0.5276 -1.4235
 7646SOL    HW223190   2.500   2.590   4.841  1.0678 -1.0036 -2.2922
 7647SOL     OW23191   0.409   1.901   4.596  0.1086  0.4067  0.4821
 7647SOL    HW123192   0.472   1.969   4.573  0.1253 -0.1455 -1.2197
 7647SOL    HW223193   0.324   1.941   4.583  0.0908 -0.2929 -2.0582
 7648SOL     OW23194   4.855   2.972   1.915  0.3644 -0.2303 -0.5973
 7648SOL    HW123195   4.834   3.065   1.915 -0.6771 -0.4456 -0.7760
 7648SOL    HW223196   4.855   2.947   2.008 -1.4016 -0.4517 -0.6174
 7649SOL     OW23197   2.258   1.340   2.590  0.1166  0.1396  0.0009
 7649SOL    HW123198   2.241   1.246   2.585 -0.7875  0.2626  0.4443
 7649SOL    HW223199   2.284   1.355   2.681 -1.9217  0.6097  0.5704
 7650SOL     OW23200   3.204   2.755   1.370  0.2147  0.3249  0.4248
 7650SOL    HW123201   3.167   2.668   1.380 -1.6452  0.8057 -1.5635
 7650SOL    HW223202   3.240   2.756   1.281 -0.3826  1.7680  0.1714
 7651SOL     OW23203   3.088   5.042   2.287  0.2382  0.1435 -0.0688
 7651SOL    HW123204   3.169   5.051   2.237 -0.4618 -0.1041 -1.3011
 7651SOL    HW223205   3.045   5.128   2.278 -1.3810 -0.8221 -2.6726
 7652SOL     OW23206   0.063   0.726   4.361 -0.0655  0.2957 -0.2286
 7652SOL    HW123207  -0.023   0.700   4.395 -0.4440  0.0152 -1.3529
 7652SOL    HW223208   0.068   0.684   4.275  1.3368  0.0511 -0.0462
 7653SOL     OW23209   5.496   1.926   1.416  0.2713 -0.1992 -0.2793
 7653SOL    HW123210   5.442   1.875   1.476 -1.4939  2.5889  0.6662
 7653SOL    HW223211   5.435   1.963   1.353  1.1608  2.1380  0.1259
 7654SOL     OW23212   4.942   4.459   4.492 -0.8058 -0.0392  0.2354
 7654SOL    HW123213   4.861   4.506   4.512 -0.9226  0.1754 -0.6855
 7654SOL    HW223214   4.913   4.378   4.449 -0.5618 -0.4642  0.8475
 7655SOL     OW23215   3.080   1.934   0.276  0.3855 -0.0929  0.3428
 7655SOL    HW123216   3.010   1.887   0.321 -0.0972  0.1987 -0.0958
 7655SOL    HW223217   3.035   1.989   0.212  1.0635 -0.5584 -0.5521
 7656SOL     OW23218   0.520   0.180   3.384 -0.3337  0.0417 -0.4756
 7656SOL    HW123219   0.535   0.207   3.474 -0.0395 -0.3058 -0.4193
 7656SOL    HW223220   0.580   0.235   3.332 -1.1354  0.8683 -0.5502
 7657SOL     OW23221   0.494   2.293   0.525  0.7165  0.5057  0.4519
 7657SOL    HW123222   0.485   2.368   0.583  0.3174 -0.2956  1.4386
 7657SOL    HW223223   0.406   2.256   0.520  0.8531  0.2622 -0.2623
 7658SOL     OW23224   5.660   1.830   2.203 -0.0052  0.3755  0.2206
 7658SOL    HW123225   5.739   1.881   2.182 -0.9949  2.2876  0.8955
 7658SOL    HW223226   5.634   1.791   2.120  0.4892  1.4555 -0.4749
 7659SOL     OW23227   0.530   5.780   0.595 -0.1606  0.0323 -0.0921
 7659SOL    HW123228   0.443   5.820   0.587 -0.1787  0.1125  0.5096
 7659SOL    HW223229   0.583   5.846   0.640  0.1583 -0.0988 -0.2758
 7660SOL     OW23230   2.798   5.428   6.080  0.6701 -0.1511  0.0566
 7660SOL    HW123231   2.798   5.520   6.109 -0.4081  0.0192 -0.4502
 7660SOL    HW223232   2.886   5.414   6.045  1.4069  0.1877  1.6439
 7661SOL     OW23233   4.403   3.649   0.796 -0.2659 -0.0164 -0.1366
 7661SOL    HW123234   4.344   3.701   0.742  0.6321  1.6493  0.4039
 7661SOL    HW223235   4.482   3.638   0.742 -0.7043 -1.5009 -0.5297
 7662SOL     OW23236   3.626   2.699   4.664  0.1201  0.1922 -0.3540
 7662SOL    HW123237   3.664   2.630   4.718 -0.8774  1.0298  1.5219
 7662SOL    HW223238   3.654   2.780   4.707 -1.0192  0.8862 -0.8769
 7663SOL     OW23239   0.751   1.838   4.021  0.1142  0.2246  0.3773
 7663SOL    HW123240   0.776   1.750   3.993 -0.1033  0.7416 -1.5961
 7663SOL    HW223241   0.752   1.834   4.116  1.7971 -1.4289  0.3419
 7664SOL     OW23242   1.357   2.115   2.350  0.8370 -0.5090 -0.6553
 7664SOL    HW123243   1.295   2.171   2.304 -2.8641 -2.0505  1.9727
 7664SOL    HW223244   1.425   2.175   2.381 -1.1035  1.9557 -0.8403
 7665SOL     OW23245   3.611   2.670   0.289 -0.2919  0.1922 -0.7051
 7665SOL    HW123246   3.548   2.661   0.360 -0.1169 -0.9314 -0.6608
 7665SOL    HW223247   3.689   2.623   0.320 -0.2508 -0.4098 -1.6729
 7666SOL     OW23248   5.171   4.667   0.252  0.1618 -0.5166  0.2505
 7666SOL    HW123249   5.183   4.639   0.343 -0.3624  0.4478  0.6204
 7666SOL    HW223250   5.239   4.733   0.239  0.3954 -0.8272 -0.1504
 7667SOL     OW23251   5.029   1.048   1.356  0.1742  0.5335  0.5169
 7667SOL    HW123252   5.022   0.960   1.393 -0.2678  0.6955  0.8234
 7667SOL    HW223253   5.123   1.064   1.352  0.5304 -1.4382 -3.1420
 7668SOL     OW23254   2.659   4.663   4.805  0.3478  0.0139  0.4888
 7668SOL    HW123255   2.662   4.568   4.804  0.5598 -0.0610 -3.0234
 7668SOL    HW223256   2.566   4.684   4.806  0.2814 -0.2574 -0.0680
 7669SOL     OW23257   3.057   2.554   0.772  0.6695  0.1060 -0.4243
 7669SOL    HW123258   3.046   2.492   0.700  1.4837 -1.1168  0.4758
 7669SOL    HW223259   2.977   2.545   0.825  0.2893  0.6576 -0.8837
 7670SOL     OW23260   0.385   3.751   4.077  0.1749 -0.1488  0.1983
 7670SOL    HW123261   0.305   3.748   4.024  0.6658 -4.3166 -0.5979
 7670SOL    HW223262   0.361   3.805   4.153 -3.4264 -1.1909 -0.0029
 7671SOL     OW23263   5.675   3.328   5.976 -0.3197 -0.1377 -0.0282
 7671SOL    HW123264   5.754   3.340   6.029  0.0220  0.6729 -0.7020
 7671SOL    HW223265   5.621   3.404   5.996 -1.6559 -1.4478  1.6071
 7672SOL     OW23266   5.850   4.476   1.995 -0.2106 -0.0177  0.1285
 7672SOL    HW123267   5.936   4.449   2.028  0.5048  0.1218 -1.5209
 7672SOL    HW223268   5.811   4.395   1.961 -0.5205  0.0118  0.4094
 7673SOL     OW23269   2.787   3.841   0.960  0.1706 -0.2839  0.5002
 7673SOL    HW123270   2.772   3.747   0.946  2.9100 -0.9183  1.1905
 7673SOL    HW223271   2.821   3.872   0.876 -1.8459  0.4094 -0.0973
 7674SOL     OW23272   0.237   5.351   4.930 -0.7330 -0.5991  0.3412
 7674SOL    HW123273   0.245   5.446   4.919 -0.2455 -0.6552  0.1711
 7674SOL    HW223274   0.325   5.317   4.910 -0.8519 -1.0668  0.5996
 7675SOL     OW23275   2.074   5.510   2.748  0.5114  0.4742  0.5481
 7675SOL    HW123276   2.130   5.501   2.825 -1.4186  0.6324  2.0330
 7675SOL    HW223277   1.986   5.491   2.780 -0.5528  2.0153 -1.2857
 7676SOL     OW23278   3.553   0.462   4.172  0.0586 -0.6023  0.0036
 7676SOL    HW123279   3.566   0.527   4.103 -0.6240  0.9022  1.2364
 7676SOL    HW223280   3.560   0.378   4.127  1.1222  0.2957 -1.6187
 7677SOL     OW23281   3.559   3.479   3.676 -0.3302 -0.0648  0.1517
 7677SOL    HW123282   3.583   3.572   3.676  0.3797 -0.2393 -0.6234
 7677SOL    HW223283   3.545   3.458   3.769 -2.3259  1.2512  0.1992
 7678SOL     OW23284   1.851   5.862   0.866 -0.3064 -0.3137  0.6203
 7678SOL    HW123285   1.903   5.859   0.947 -1.0010 -0.2546  1.0801
 7678SOL    HW223286   1.782   5.798   0.880  0.9013 -2.0664 -0.9036
 7679SOL     OW23287   1.870   0.174   5.768 -0.7485  0.4552 -0.6390
 7679SOL    HW123288   1.795   0.233   5.773 -0.7417  0.4886 -0.9231
 7679SOL    HW223289   1.946   0.232   5.772 -0.7442  0.5497 -1.8773
 7680SOL     OW23290   5.811   3.482   5.556 -0.1278  0.2390  0.1930
 7680SOL    HW123291   5.790   3.405   5.610 -1.4572  2.3212  2.9323
 7680SOL    HW223292   5.748   3.478   5.484 -0.7004 -0.8617  0.7243
 7681SOL     OW23293   4.205   3.686   1.114 -0.3270  0.2529 -0.3838
 7681SOL    HW123294   4.291   3.726   1.112 -0.1296 -0.0475  0.8605
 7681SOL    HW223295   4.218   3.604   1.162 -1.3883  0.4450  0.2740
 7682SOL     OW23296   3.790   3.541   5.925  0.0132 -0.2789  0.3100
 7682SOL    HW123297   3.776   3.583   6.009  0.6296 -4.1288  2.6057
 7682SOL    HW223298   3.710   3.560   5.875 -0.4758  1.9372  1.7973
 7683SOL     OW23299   1.284   0.237   1.504  0.3069 -0.5953 -0.2088
 7683SOL    HW123300   1.329   0.236   1.589 -2.6670 -0.8453  1.5008
 7683SOL    HW223301   1.293   0.147   1.471  1.1602 -0.5949 -0.0089
 7684SOL     OW23302   0.433   2.286   2.348 -0.1277 -0.2117 -0.6099
 7684SOL    HW123303   0.382   2.363   2.321  1.6638  1.5987  0.7893
 7684SOL    HW223304   0.393   2.259   2.430 -1.3382 -1.4428 -1.5524
 7685SOL     OW23305   4.769   1.165   5.596 -0.1396  0.2798  0.8359
 7685SOL    HW123306   4.688   1.125   5.627 -0.8394  1.5019  0.6811
 7685SOL    HW223307   4.745   1.205   5.512  1.6622 -2.8591 -1.3953
 7686SOL     OW23308   4.579   0.466   2.832  0.2759 -0.0508  0.3897
 7686SOL    HW123309   4.660   0.516   2.832  0.5786 -0.4872 -1.2994
 7686SOL    HW223310   4.600   0.385   2.785 -1.2725  0.0857 -0.6262
 7687SOL     OW23311   0.777   0.972   1.174  0.1868 -0.1840  0.3869
 7687SOL    HW123312   0.836   0.912   1.220 -1.1763 -1.9452 -0.0587
 7687SOL    HW223313   0.769   1.047   1.234 -1.0572 -2.1200  2.8640
 7688SOL     OW23314   4.612   3.434   5.542 -0.0481  0.4806  0.1910
 7688SOL    HW123315   4.692   3.391   5.574 -0.5700 -0.0457  0.8135
 7688SOL    HW223316   4.620   3.431   5.447 -0.3777 -1.6597  0.1722
 7689SOL     OW23317   1.590   4.710   4.918 -0.0106  0.7931  0.3164
 7689SOL    HW123318   1.508   4.733   4.873  0.1544  0.3897 -0.2016
 7689SOL    HW223319   1.647   4.786   4.905  0.1367  0.5634 -0.4109
 7690SOL     OW23320   2.930   4.228   2.172 -0.2698  0.2345  0.0363
 7690SOL    HW123321   2.966   4.141   2.156  0.5119  0.6141 -0.2970
 7690SOL    HW223322   2.959   4.249   2.261 -2.7746 -0.9629  1.2504
 7691SOL     OW23323   1.565   0.615   2.762  0.7862  0.0800  0.1436
 7691SOL    HW123324   1.540   0.587   2.674 -1.8027 -2.3114  1.4586
 7691SOL    HW223325   1.482   0.638   2.804  1.6896 -0.7830  2.5544
 7692SOL     OW23326   4.275   5.451   5.883 -0.2650 -0.2547 -0.2148
 7692SOL    HW123327   4.318   5.428   5.800  3.0831  0.6258  1.1165
 7692SOL    HW223328   4.343   5.438   5.949 -2.6112 -0.2371  2.3511
 7693SOL     OW23329   4.753   0.153   0.987 -0.5986 -0.4617  0.0110
 7693SOL    HW123330   4.828   0.171   1.043 -0.0121  1.7879 -1.3315
 7693SOL    HW223331   4.677   0.182   1.038 -0.5183 -2.1021  1.1067
 7694SOL     OW23332   2.992   0.141   0.036 -0.0805 -0.7516  0.1078
 7694SOL    HW123333   2.997   0.105  -0.053  1.4854  0.0186 -0.1384
 7694SOL    HW223334   3.068   0.198   0.043 -0.1838 -0.7943  1.9580
 7695SOL     OW23335   0.860   3.041   2.461 -0.7597  0.5115 -0.2299
 7695SOL    HW123336   0.948   3.039   2.423 -0.9217 -0.2767 -0.6010
 7695SOL    HW223337   0.805   2.996   2.396 -0.9360 -1.4694  1.1797
 7696SOL     OW23338   0.987   1.500   5.646  0.3609 -0.2617  0.3103
 7696SOL    HW123339   0.910   1.551   5.619 -0.3960 -2.2168 -1.4448
 7696SOL    HW223340   1.034   1.484   5.565  1.8136 -0.4318  1.1574
 7697SOL     OW23341   3.352   5.963   0.640 -0.2906  0.5867  0.0883
 7697SOL    HW123342   3.307   6.011   0.710 -0.1296 -0.9565  1.2980
 7697SOL    HW223343   3.285   5.905   0.603  0.0940  0.0257  0.2631
 7698SOL     OW23344   1.113   4.967   6.026 -0.1325 -0.0859  0.5893
 7698SOL    HW123345   1.080   4.903   5.962 -0.4567 -1.3321  1.9548
 7698SOL    HW223346   1.200   4.936   6.049  0.0046  0.3857  0.7248
 7699SOL     OW23347   0.385   5.763   2.761  0.0827 -0.2006  0.3501
 7699SOL    HW123348   0.467   5.723   2.792 -1.2763 -4.4133 -0.7994
 7699SOL    HW223349   0.347   5.803   2.839  1.7981 -0.9032  1.6169
 7700SOL     OW23350   5.482   5.620   5.651 -0.1191 -0.3999 -0.1118
 7700SOL    HW123351   5.466   5.579   5.566  0.9424 -0.0667 -0.4849
 7700SOL    HW223352   5.459   5.553   5.715  1.7809 -1.7017 -0.7073
 7701SOL     OW23353   2.459   5.956   3.837 -0.0302 -0.5313  0.4189
 7701SOL    HW123354   2.375   6.001   3.827  0.9358  1.1405 -0.8099
 7701SOL    HW223355   2.489   5.981   3.925 -0.5519 -0.6832  0.6443
 7702SOL     OW23356   4.533   3.961   4.172 -0.4015 -0.0316 -0.3410
 7702SOL    HW123357   4.491   3.884   4.211 -0.2138  0.1157  0.1586
 7702SOL    HW223358   4.461   4.014   4.139 -0.5694 -0.1375 -0.1501
 7703SOL     OW23359   1.721   5.042   1.884  0.1578  0.1254 -0.2800
 7703SOL    HW123360   1.694   5.083   1.966 -0.7054  0.4048 -0.6893
 7703SOL    HW223361   1.669   4.961   1.879 -0.2441  0.4097 -0.8281
 7704SOL     OW23362   1.518   6.105   1.902  0.3101  0.7891 -0.3369
 7704SOL    HW123363   1.447   6.041   1.898  0.1391  0.9015  0.6884
 7704SOL    HW223364   1.596   6.052   1.918  0.5160  0.6380 -1.7598
 7705SOL     OW23365   1.676   1.765   3.113 -0.2662  0.4997  0.1663
 7705SOL    HW123366   1.644   1.738   3.027 -1.7381  0.3599  0.7203
 7705SOL    HW223367   1.722   1.688   3.147 -2.3091 -0.5517  0.7185
 7706SOL     OW23368   1.236   5.644   3.688  0.4014  0.8483  0.3277
 7706SOL    HW123369   1.178   5.604   3.753  2.2014 -1.2827  0.7166
 7706SOL    HW223370   1.297   5.697   3.740 -0.6295  2.4523 -0.0209
 7707SOL     OW23371   5.290   1.498   5.066 -0.1827  0.0838 -0.5975
 7707SOL    HW123372   5.245   1.435   5.122 -1.2313 -0.6390 -2.1747
 7707SOL    HW223373   5.220   1.541   5.016  0.7302  0.3275 -1.7114
 7708SOL     OW23374   0.931   4.463   5.776 -0.2355  0.1936  0.4655
 7708SOL    HW123375   0.951   4.557   5.785  0.6882  0.0350  0.1117
 7708SOL    HW223376   0.948   4.427   5.863  0.3962  0.1742  0.3349
 7709SOL     OW23377   1.400   6.007   2.761  0.0621  0.6421  0.4856
 7709SOL    HW123378   1.312   6.044   2.755 -0.5531 -0.8403  0.1368
 7709SOL    HW223379   1.458   6.084   2.763 -1.1664  1.6174 -0.2645
 7710SOL     OW23380   1.959   3.969   2.842  0.1359 -0.3072  0.2926
 7710SOL    HW123381   1.961   3.998   2.751  1.1883  1.6208  0.8742
 7710SOL    HW223382   1.868   3.980   2.868  0.0790  0.4099 -0.1681
 7711SOL     OW23383   3.731   1.098   4.818  0.0250  0.4020  0.0872
 7711SOL    HW123384   3.731   1.159   4.892  0.2444  0.0488  0.3862
 7711SOL    HW223385   3.722   1.011   4.859 -1.4781  0.3140 -0.4043
 7712SOL     OW23386   3.978   2.576   3.438 -0.2553 -0.4534 -0.2077
 7712SOL    HW123387   3.890   2.555   3.470 -0.9576  2.4719  0.0880
 7712SOL    HW223388   4.030   2.587   3.517 -0.1708 -0.1942 -0.2968
 7713SOL     OW23389   1.123   0.758   1.445  0.2536  0.7868 -0.6097
 7713SOL    HW123390   1.127   0.830   1.507  1.3535  0.8049 -0.6859
 7713SOL    HW223391   1.124   0.679   1.500  0.7043  0.8116 -0.5774
 7714SOL     OW23392   3.813   3.072   1.597  0.7443 -0.8922 -0.6420
 7714SOL    HW123393   3.722   3.101   1.588  1.6100  1.7630 -1.7926
 7714SOL    HW223394   3.829   3.018   1.520  0.5048 -0.2356 -1.1645
 7715SOL     OW23395   1.645   3.626   3.174  0.2035 -0.4029 -0.3792
 7715SOL    HW123396   1.720   3.572   3.198 -0.3996 -2.0322 -1.9276
 7715SOL    HW223397   1.663   3.712   3.213  1.3231 -1.6253  1.9583
 7716SOL     OW23398   5.580   1.657   6.169  0.1624  0.0960 -0.1622
 7716SOL    HW123399   5.588   1.678   6.076 -2.6819  0.9307 -0.3197
 7716SOL    HW223400   5.511   1.590   6.172 -1.8183  2.0582  1.4665
 7717SOL     OW23401   4.849   2.201   5.990  0.1395 -0.5497  0.0609
 7717SOL    HW123402   4.913   2.200   6.061  0.3367  0.9844 -0.0705
 7717SOL    HW223403   4.776   2.253   6.024 -0.7230 -1.6304 -0.0819
 7718SOL     OW23404   1.363   3.692   0.298 -0.1311  0.6315 -0.0341
 7718SOL    HW123405   1.280   3.654   0.267 -0.5448 -0.5253  2.2937
 7718SOL    HW223406   1.369   3.776   0.253 -2.1239  0.3571 -0.9198
 7719SOL     OW23407   3.241   2.533   1.015  0.1036 -0.6995 -0.4307
 7719SOL    HW123408   3.292   2.561   0.938  0.7861  0.6465  0.4662
 7719SOL    HW223409   3.191   2.458   0.984 -1.9610  1.5592 -3.0804
 7720SOL     OW23410   2.345   5.802   1.567  0.2247 -0.1064  0.7413
 7720SOL    HW123411   2.254   5.789   1.595 -0.6177 -0.4177 -1.7928
 7720SOL    HW223412   2.373   5.880   1.614 -0.8455 -0.8152  2.6602
 7721SOL     OW23413   0.627   5.672   3.424  0.3515  0.1830  0.4043
 7721SOL    HW123414   0.540   5.706   3.405  0.9669  1.7640  0.1784
 7721SOL    HW223415   0.636   5.682   3.519 -1.2673 -4.0744  1.2153
 7722SOL     OW23416   2.161   4.540   0.956  0.3798 -0.0644  0.1943
 7722SOL    HW123417   2.185   4.560   1.047  1.5032  0.4574 -0.1936
 7722SOL    HW223418   2.153   4.445   0.953  0.8058 -0.1232  0.7334
 7723SOL     OW23419   3.728   3.923   2.251  0.3713  0.1708 -0.3455
 7723SOL    HW123420   3.726   3.829   2.233  0.2704  0.0255  0.3838
 7723SOL    HW223421   3.782   3.931   2.330  0.2064  0.7069 -0.2812
 7724SOL     OW23422   5.274   4.912   0.161  0.0661 -0.4978  0.4013
 7724SOL    HW123423   5.315   4.961   0.232  0.7582 -0.8460  0.2483
 7724SOL    HW223424   5.209   4.972   0.125  1.8787  0.9078 -0.7345
 7725SOL     OW23425   4.486   4.416   3.567 -0.2425 -0.6254 -0.2151
 7725SOL    HW123426   4.392   4.399   3.557 -0.4243 -1.4657  2.2283
 7725SOL    HW223427   4.493   4.512   3.572 -1.3170 -0.5884  1.7242
 7726SOL     OW23428   4.085   0.028   5.191 -0.1042 -0.0447 -0.1836
 7726SOL    HW123429   4.003   0.009   5.146 -0.9413  2.3311  0.1565
 7726SOL    HW223430   4.149   0.039   5.122 -0.3997 -0.5205 -0.5388
 7727SOL     OW23431   2.986   5.774   3.482  0.2487  0.2198 -0.0524
 7727SOL    HW123432   3.009   5.810   3.396 -1.3976  1.9220  0.1673
 7727SOL    HW223433   3.042   5.822   3.543  0.8938 -0.4678 -0.0933
 7728SOL     OW23434   4.328   0.744   2.227  0.3261 -0.2202 -0.1899
 7728SOL    HW123435   4.240   0.768   2.198  0.5598 -1.9000 -2.5970
 7728SOL    HW223436   4.320   0.653   2.255  1.5542 -0.9615 -2.0491
 7729SOL     OW23437   1.114   3.266   2.115  0.3383 -0.2862 -0.0601
 7729SOL    HW123438   1.165   3.205   2.062  1.1436 -1.0068  1.4713
 7729SOL    HW223439   1.168   3.345   2.119  1.0895 -0.8304  1.0466
 7730SOL     OW23440   0.902   3.313   5.257  0.1453  0.3872  0.0635
 7730SOL    HW123441   0.837   3.352   5.199  0.1151 -0.5359 -0.5424
 7730SOL    HW223442   0.978   3.372   5.252 -0.9710  2.0741  1.6163
 7731SOL     OW23443   2.205   5.457   4.460  0.3323 -0.4135 -0.1282
 7731SOL    HW123444   2.173   5.435   4.547  1.9403 -1.1342  0.3184
 7731SOL    HW223445   2.223   5.373   4.418  2.9720 -0.1062  0.2088
 7732SOL     OW23446   2.881   0.616   5.989  0.3982  0.9533 -0.0335
 7732SOL    HW123447   2.972   0.638   6.009  1.4349 -1.0515 -2.0437
 7732SOL    HW223448   2.879   0.520   5.990 -1.3834  0.9343 -1.2900
 7733SOL     OW23449   5.763   4.815   5.198  0.4410 -0.2684 -0.8453
 7733SOL    HW123450   5.820   4.744   5.228  0.9804  0.6940  0.5511
 7733SOL    HW223451   5.789   4.890   5.252 -2.4613  0.0909  0.2088
 7734SOL     OW23452   0.351   6.061   4.168 -0.2367  0.2685 -0.0388
 7734SOL    HW123453   0.419   6.082   4.232  1.0118 -1.9349 -0.5295
 7734SOL    HW223454   0.270   6.092   4.207  0.7536  0.8297  1.6582
 7735SOL     OW23455   1.283   5.070   4.900  0.3143  0.1168 -0.3732
 7735SOL    HW123456   1.298   5.106   4.813 -1.9049  0.5274 -0.6591
 7735SOL    HW223457   1.306   5.142   4.960  0.9127  0.1710 -0.6625
 7736SOL     OW23458   1.000   2.821   2.635 -0.4030 -0.2874 -0.4810
 7736SOL    HW123459   0.907   2.802   2.622 -0.4895 -0.5741  0.5088
 7736SOL    HW223460   1.019   2.789   2.723  0.7195 -0.5456 -0.8034
 7737SOL     OW23461   3.604   2.144   1.670 -0.3144  0.1170  0.2179
 7737SOL    HW123462   3.535   2.113   1.612 -2.3268  2.4766  1.1498
 7737SOL    HW223463   3.685   2.110   1.632 -1.7953 -1.0412 -2.1262
 7738SOL     OW23464   0.889   5.803   4.545  0.0072  0.1113  1.0268
 7738SOL    HW123465   0.933   5.718   4.542 -0.4553 -0.1188  0.6564
 7738SOL    HW223466   0.961   5.867   4.543  0.3244 -0.1931 -2.3240
 7739SOL     OW23467   0.269   5.205   0.216 -0.2523 -0.1131 -0.2637
 7739SOL    HW123468   0.313   5.277   0.261 -0.9946 -0.3102  0.8226
 7739SOL    HW223469   0.340   5.158   0.173  0.8174 -1.0093  2.2463
 7740SOL     OW23470   3.938   6.011   4.130 -0.2918 -0.6482 -0.3180
 7740SOL    HW123471   3.865   5.957   4.100 -0.0120 -1.7734  0.9550
 7740SOL    HW223472   3.990   5.953   4.186  1.1668  0.3508 -0.5664
 7741SOL     OW23473   5.281   0.229   0.937  0.4062 -0.6052  0.1003
 7741SOL    HW123474   5.210   0.256   0.996  0.3725 -3.0091  1.2524
 7741SOL    HW223475   5.287   0.301   0.873 -2.1569  0.2790  0.7363
 7742SOL     OW23476   1.030   3.869   3.761 -0.3886  0.2152 -0.5624
 7742SOL    HW123477   0.992   3.821   3.835  1.0632 -1.5676 -0.9084
 7742SOL    HW223478   0.998   3.822   3.683 -0.2928  0.8583 -1.0018
 7743SOL     OW23479   4.927   4.842   5.523  0.3896  0.2236 -0.6915
 7743SOL    HW123480   4.960   4.855   5.434  0.7263 -0.1280 -0.6181
 7743SOL    HW223481   4.861   4.910   5.533  1.0214  0.8782 -0.8737
 7744SOL     OW23482   2.151   2.473   5.993 -0.1234 -0.0085  0.4215
 7744SOL    HW123483   2.164   2.543   6.058  1.8713  1.3715 -1.3405
 7744SOL    HW223484   2.106   2.517   5.921 -1.6111 -1.3364  0.4951
 7745SOL     OW23485   2.440   5.291   5.331  0.0143 -0.2751  0.4435
 7745SOL    HW123486   2.473   5.306   5.243 -2.4378 -2.2155 -0.9437
 7745SOL    HW223487   2.517   5.267   5.382  1.4255  0.3483 -1.3049
 7746SOL     OW23488   0.611   0.535   3.546 -0.2071  0.8681 -0.4608
 7746SOL    HW123489   0.676   0.499   3.605 -0.4357 -2.4466 -2.0295
 7746SOL    HW223490   0.530   0.536   3.597 -0.2679 -1.3488 -0.4183
 7747SOL     OW23491   1.541   4.175   6.089 -0.3654 -0.1214 -0.3237
 7747SOL    HW123492   1.604   4.202   6.156 -0.0946  3.1142 -1.7047
 7747SOL    HW223493   1.576   4.093   6.054  1.3324 -0.0500  1.0824
 7748SOL     OW23494   1.137   0.149   0.883 -0.0563 -0.4580  0.1027
 7748SOL    HW123495   1.159   0.235   0.846  0.2653 -0.8608 -0.6549
 7748SOL    HW223496   1.220   0.102   0.884 -0.2209 -0.7439  0.5819
 7749SOL     OW23497   6.029   4.898   3.572 -0.2802 -0.5433 -0.5270
 7749SOL    HW123498   6.012   4.804   3.567  0.5209 -0.6767 -1.1174
 7749SOL    HW223499   5.971   4.936   3.506 -0.3962 -0.6610 -0.4933
 7750SOL     OW23500   0.763   3.545   4.173  0.4842  0.1252  0.0359
 7750SOL    HW123501   0.770   3.525   4.079  0.5512  0.3257 -0.0024
 7750SOL    HW223502   0.671   3.565   4.187  0.5642  0.5960 -0.0894
 7751SOL     OW23503   4.377   5.135   2.018 -0.2794 -0.1615 -0.4401
 7751SOL    HW123504   4.464   5.106   1.992 -0.6652 -2.0669  0.2537
 7751SOL    HW223505   4.322   5.057   2.011 -1.9385  0.9930 -0.8314
 7752SOL     OW23506   2.304   1.575   3.930  0.2349 -0.0633 -0.0433
 7752SOL    HW123507   2.215   1.554   3.902  0.3328 -1.3880  0.5463
 7752SOL    HW223508   2.311   1.670   3.919 -1.6238  0.2488  0.9554
 7753SOL     OW23509   0.189   5.274   3.360 -0.2651  0.3474 -0.4174
 7753SOL    HW123510   0.279   5.255   3.384 -0.5655 -1.7419 -0.7037
 7753SOL    HW223511   0.155   5.327   3.432  1.4728  2.1341 -0.8530
 7754SOL     OW23512   0.416   2.178   3.787 -0.6966 -0.1592  0.2294
 7754SOL    HW123513   0.367   2.135   3.857 -0.1610 -0.3477  0.5007
 7754SOL    HW223514   0.508   2.156   3.806 -0.2260  2.3181  1.2688
 7755SOL     OW23515   0.465   3.168   1.942  0.7440 -0.3889  0.5455
 7755SOL    HW123516   0.537   3.121   1.901  1.5182 -0.4576  1.9120
 7755SOL    HW223517   0.506   3.218   2.013 -0.3174  0.9426  0.2579
 7756SOL     OW23518   4.269   1.003   6.159 -0.0268  0.2007 -0.0556
 7756SOL    HW123519   4.345   1.058   6.177  0.1441  0.8721 -2.4723
 7756SOL    HW223520   4.196   1.064   6.151  0.0299  0.0715 -2.0185
 7757SOL     OW23521   4.552   4.915   4.073  0.0686  0.0033 -0.5691
 7757SOL    HW123522   4.603   4.990   4.103  0.3902 -0.7622  0.8799
 7757SOL    HW223523   4.615   4.843   4.071 -0.9061 -0.9993  1.3885
 7758SOL     OW23524   4.071   3.970   0.916 -0.1328 -0.0326 -0.3128
 7758SOL    HW123525   4.112   4.056   0.920 -0.5468  0.1177  2.1683
 7758SOL    HW223526   4.142   3.909   0.936 -0.4524 -0.0012  0.9891
 7759SOL     OW23527   0.054   2.248   0.701  0.0483 -0.1466  0.1463
 7759SOL    HW123528   0.096   2.261   0.786  0.6839 -0.5269 -0.1031
 7759SOL    HW223529  -0.039   2.266   0.717  0.2562  0.4158  0.7721
 7760SOL     OW23530   4.068   5.437   3.858  0.0144 -0.1598  0.2805
 7760SOL    HW123531   4.089   5.429   3.765 -1.8668  1.4798 -0.3726
 7760SOL    HW223532   4.098   5.355   3.897 -0.4715 -1.5190 -2.0268
 7761SOL     OW23533   2.608   2.918   0.538 -0.2699  0.0159 -0.2623
 7761SOL    HW123534   2.638   2.987   0.598  2.6642 -0.9347 -0.4702
 7761SOL    HW223535   2.672   2.918   0.467 -0.3711 -2.6214 -0.4688
 7762SOL     OW23536   0.681   0.814   2.469  0.2053  0.1445  0.7062
 7762SOL    HW123537   0.742   0.741   2.464  2.1234  1.6306  1.0482
 7762SOL    HW223538   0.705   0.860   2.550 -1.1153  1.0051  0.6453
 7763SOL     OW23539   3.859   4.597   3.037  0.7951 -0.3589  0.1472
 7763SOL    HW123540   3.841   4.503   3.037  0.1490 -0.2571  1.8842
 7763SOL    HW223541   3.817   4.630   2.957 -0.4456 -1.2786  0.4024
 7764SOL     OW23542   5.900   5.158   2.902 -0.9441 -0.2941 -0.0448
 7764SOL    HW123543   5.942   5.228   2.852 -2.5202 -0.4838 -1.7783
 7764SOL    HW223544   5.844   5.203   2.965 -1.9363  0.0483 -1.1391
 7765SOL     OW23545   0.595   5.531   0.681  0.0192 -0.1080 -0.4287
 7765SOL    HW123546   0.557   5.613   0.650  2.2565  0.7499 -1.1472
 7765SOL    HW223547   0.586   5.534   0.776 -0.2867  0.7772 -0.4748
 7766SOL     OW23548   6.201   5.340   3.695 -0.3148  0.2031  0.0134
 7766SOL    HW123549   6.154   5.398   3.753  3.9782  3.0613  1.0947
 7766SOL    HW223550   6.192   5.253   3.735 -1.1278  1.3210  2.4331
 7767SOL     OW23551   4.538   1.117   3.627 -0.1718  0.0558  0.8662
 7767SOL    HW123552   4.622   1.163   3.634 -0.2587 -0.0252  3.7325
 7767SOL    HW223553   4.554   1.032   3.668 -1.3795 -0.4054  0.4197
 7768SOL     OW23554   1.003   3.215   1.672 -0.1707  0.2372  0.1955
 7768SOL    HW123555   1.020   3.122   1.657 -0.6851  0.1556  0.0933
 7768SOL    HW223556   0.915   3.229   1.636  0.9762  1.3939 -2.4187
 7769SOL     OW23557   0.245   2.048   5.144 -0.0450 -0.8735  0.1173
 7769SOL    HW123558   0.195   1.985   5.196 -0.0382 -1.2839 -0.3646
 7769SOL    HW223559   0.335   2.014   5.147  0.0868 -0.5004  0.4352
 7770SOL     OW23560   3.153   4.476   6.163  0.0776  0.0333 -0.1131
 7770SOL    HW123561   3.188   4.563   6.182  1.1979 -0.5362  0.5805
 7770SOL    HW223562   3.200   4.419   6.224 -0.7274 -1.0352 -0.4824
 7771SOL     OW23563   4.658   6.112   3.192 -0.1143 -0.9125  0.5820
 7771SOL    HW123564   4.648   6.017   3.183 -0.0599 -0.9837  1.2379
 7771SOL    HW223565   4.725   6.123   3.259 -1.1481 -0.4149  1.5633
 7772SOL     OW23566   2.318   1.071   0.788 -0.2292 -0.0123  0.3641
 7772SOL    HW123567   2.331   1.088   0.881 -2.8075 -0.9315  0.9847
 7772SOL    HW223568   2.297   0.978   0.783 -0.8029  0.1621 -1.0457
 7773SOL     OW23569   5.596   3.168   2.424  0.2450  0.5238  0.2278
 7773SOL    HW123570   5.575   3.131   2.509  1.5282 -0.0390  0.3113
 7773SOL    HW223571   5.663   3.234   2.442 -0.0352  0.9585 -0.2645
 7774SOL     OW23572   3.965   3.694   5.143  0.2254  0.0169  0.6160
 7774SOL    HW123573   3.989   3.605   5.169 -0.3592 -0.6552 -0.9866
 7774SOL    HW223574   3.895   3.719   5.203  0.3753 -0.6134  1.0582
 7775SOL     OW23575   4.959   4.879   1.378 -0.1806 -0.2263  0.2428
 7775SOL    HW123576   4.993   4.887   1.289  0.2024  0.6243  0.4588
 7775SOL    HW223577   4.893   4.948   1.385  0.0324 -0.0681  0.7278
 7776SOL     OW23578   2.142   0.876   4.043 -0.2983  0.4080 -0.2027
 7776SOL    HW123579   2.187   0.903   4.123  0.0461  0.8041 -0.5290
 7776SOL    HW223580   2.162   0.944   3.980 -0.5983  0.1113 -0.6217
 7777SOL     OW23581   0.190   3.764   3.881  0.2096 -0.7311 -0.0325
 7777SOL    HW123582   0.228   3.700   3.821 -0.0607  1.1910 -2.4086
 7777SOL    HW223583   0.122   3.716   3.927  0.2208 -2.2418 -1.4898
 7778SOL     OW23584   0.117   5.894   2.317  0.0011  0.0211 -0.2439
 7778SOL    HW123585   0.121   5.949   2.395  0.3723  0.4418 -0.5543
 7778SOL    HW223586   0.073   5.815   2.345  1.8008 -0.6415  0.8872
 7779SOL     OW23587   2.148   1.095   1.351  0.5847  0.0510 -0.7753
 7779SOL    HW123588   2.131   1.098   1.445 -1.3748 -1.2781 -1.0150
 7779SOL    HW223589   2.142   1.186   1.323  0.9797  0.4416  0.3435
 7780SOL     OW23590   1.149   4.498   3.750  0.4712 -0.4478  0.4450
 7780SOL    HW123591   1.069   4.521   3.797  0.4991 -0.3731  0.4551
 7780SOL    HW223592   1.122   4.427   3.691  0.6607 -1.2726  1.3233
 7781SOL     OW23593   4.839   1.794   5.139 -0.2653  0.0834 -0.1588
 7781SOL    HW123594   4.809   1.711   5.103 -2.1750 -0.4409  2.4045
 7781SOL    HW223595   4.930   1.777   5.164 -0.7757 -1.4156  0.7773
 7782SOL     OW23596   0.646   5.928   1.258  0.0487  0.1107 -0.1162
 7782SOL    HW123597   0.604   5.958   1.178  0.4716  0.3354 -0.2591
 7782SOL    HW223598   0.709   5.997   1.279  0.5194 -0.3342 -0.0432
 7783SOL     OW23599   5.862   0.616   0.469  0.2168  0.2387  0.0173
 7783SOL    HW123600   5.902   0.576   0.392  2.3157  0.0956  1.0980
 7783SOL    HW223601   5.911   0.580   0.543 -1.0456  1.1428  1.3554
 7784SOL     OW23602   4.389   4.919   1.353  0.3469 -0.6080 -0.0278
 7784SOL    HW123603   4.294   4.926   1.351  0.3751  0.5712  1.2768
 7784SOL    HW223604   4.408   4.861   1.426  0.6381 -0.4206  0.0489
 7785SOL     OW23605   5.556   4.558   6.033  0.0001 -0.0091  0.1099
 7785SOL    HW123606   5.630   4.618   6.023  1.4244 -1.9287 -1.7283
 7785SOL    HW223607   5.596   4.472   6.036 -2.0949 -1.0141  0.8369
 7786SOL     OW23608   0.066   5.379   6.324 -0.4469 -0.3439 -0.1919
 7786SOL    HW123609   0.111   5.370   6.240  2.0242 -0.1224  1.0186
 7786SOL    HW223610  -0.026   5.396   6.301  0.3781  1.0053 -2.8654
 7787SOL     OW23611   5.178   5.748   4.150 -0.0155 -0.0445  1.0186
 7787SOL    HW123612   5.237   5.781   4.217  1.7913 -1.1587  0.0448
 7787SOL    HW223613   5.187   5.810   4.078 -0.1723 -0.1270  0.9281
 7788SOL     OW23614   1.907   4.289   2.550 -0.5577  0.0927  0.3154
 7788SOL    HW123615   1.848   4.360   2.576  1.2259  2.1984 -0.9778
 7788SOL    HW223616   1.904   4.291   2.454  1.1320 -0.1315  0.2351
 7789SOL     OW23617   3.210   2.893   3.943 -0.1015  0.1418  0.1094
 7789SOL    HW123618   3.171   2.824   3.998 -0.2585  0.8177  0.8713
 7789SOL    HW223619   3.277   2.932   3.999  1.7674 -1.0291 -1.1863
 7790SOL     OW23620   3.257   2.664   0.264 -0.4982 -0.1491  0.0571
 7790SOL    HW123621   3.253   2.686   0.171 -1.5977 -1.0410 -0.1174
 7790SOL    HW223622   3.233   2.745   0.309  0.9269  0.5567 -0.3755
 7791SOL     OW23623   5.682   6.163   6.124  0.2226  0.3109  0.3289
 7791SOL    HW123624   5.719   6.244   6.159 -2.7801  1.3547  1.4348
 7791SOL    HW223625   5.725   6.094   6.175  3.9753  0.9087 -1.6647
 7792SOL     OW23626   3.299   5.606   3.519  0.3521  0.6068 -0.3021
 7792SOL    HW123627   3.341   5.626   3.436  0.2044  2.3605  0.0081
 7792SOL    HW223628   3.346   5.530   3.553 -0.9192 -1.5318 -2.9180
 7793SOL     OW23629   2.368   3.539   5.777 -0.2384  0.0437  0.3901
 7793SOL    HW123630   2.290   3.533   5.833 -0.5026 -0.2062  0.0044
 7793SOL    HW223631   2.344   3.603   5.710  0.1135  0.4191  0.6235
 7794SOL     OW23632   2.599   0.067   3.570 -0.0987 -0.2562 -0.3908
 7794SOL    HW123633   2.692   0.070   3.549  0.4087 -0.8804  1.6188
 7794SOL    HW223634   2.556   0.098   3.490  1.7921 -0.3333 -1.4947
 7795SOL     OW23635   3.689   4.294   1.931  0.6610 -0.2157  0.5175
 7795SOL    HW123636   3.755   4.239   1.974 -0.6408 -0.4878  2.2979
 7795SOL    HW223637   3.612   4.285   1.986  0.0165  2.4461  0.1758
 7796SOL     OW23638   2.656   1.951   2.572  0.3456 -0.5855  0.2716
 7796SOL    HW123639   2.661   1.927   2.665  0.5212  0.6125  0.5783
 7796SOL    HW223640   2.710   2.029   2.564 -2.5426  1.5717 -0.0583
 7797SOL     OW23641   4.368   5.560   1.323 -0.1116  0.4123  0.5616
 7797SOL    HW123642   4.356   5.469   1.350 -0.2688  0.2243 -0.0984
 7797SOL    HW223643   4.329   5.612   1.393  1.5927  0.0548  1.8388
 7798SOL     OW23644   5.606   5.927   1.978  0.1120  0.5756 -0.2403
 7798SOL    HW123645   5.522   5.881   1.985  0.6402 -0.4137 -0.1115
 7798SOL    HW223646   5.652   5.881   1.908 -0.3780  2.6517 -2.0254
 7799SOL     OW23647   5.206   3.234   2.750  0.3081  0.1262  0.2039
 7799SOL    HW123648   5.194   3.175   2.676  1.0546 -1.4340  1.2852
 7799SOL    HW223649   5.285   3.203   2.793  1.3820  2.6088  0.2032
 7800SOL     OW23650   5.442   1.644   4.508 -0.4108  0.6615 -0.5654
 7800SOL    HW123651   5.372   1.704   4.531 -1.4783 -1.1658  1.3226
 7800SOL    HW223652   5.519   1.680   4.553 -1.1890  0.3041  1.1429
 7801SOL     OW23653   2.178   3.129   5.040  0.6751  0.1343  0.0945
 7801SOL    HW123654   2.230   3.209   5.047 -1.9355  1.9708  0.3648
 7801SOL    HW223655   2.108   3.152   4.979  0.2784 -2.2505 -0.4344
 7802SOL     OW23656   4.723   0.955   1.903 -0.6988 -0.4447 -0.5510
 7802SOL    HW123657   4.679   0.911   1.976  0.8454 -1.9088 -0.4432
 7802SOL    HW223658   4.670   1.033   1.886 -2.5867 -1.4778  0.3721
 7803SOL     OW23659   3.275   3.458   2.386  0.1974  0.1688  0.3637
 7803SOL    HW123660   3.245   3.368   2.399 -1.8601  1.0916  3.0755
 7803SOL    HW223661   3.333   3.453   2.311 -1.3908 -3.0672 -0.8720
 7804SOL     OW23662   6.293   1.098   2.048 -0.8231  0.4302 -0.1409
 7804SOL    HW123663   6.317   1.009   2.023 -0.7281  0.1728  0.8238
 7804SOL    HW223664   6.250   1.089   2.133 -1.7347  1.2039 -0.5009
 7805SOL     OW23665   3.530   4.454   3.675  0.4834  0.2137  0.2015
 7805SOL    HW123666   3.610   4.407   3.648 -0.2426 -0.4082 -0.9568
 7805SOL    HW223667   3.528   4.445   3.770  1.6749  0.0310  0.2271
 7806SOL     OW23668   1.400   6.059   0.781 -0.0727 -0.1435  0.8186
 7806SOL    HW123669   1.354   6.048   0.864  0.6205  1.3239  1.4239
 7806SOL    HW223670   1.491   6.076   0.805  0.2984 -0.4311 -0.2798
 7807SOL     OW23671   4.185   5.078   4.589 -0.5853  0.2082  1.1714
 7807SOL    HW123672   4.247   5.132   4.637  1.1215  1.2372 -1.8953
 7807SOL    HW223673   4.228   5.060   4.506 -3.6868 -0.5365 -0.4402
 7808SOL     OW23674   1.634   4.858   1.422  0.3295 -0.1839 -0.2545
 7808SOL    HW123675   1.678   4.857   1.507  0.7400 -0.2073 -0.4646
 7808SOL    HW223676   1.626   4.766   1.398  0.2462 -0.1762 -0.2555
 7809SOL     OW23677   2.376   2.931   1.902  0.1130 -0.4402  0.0216
 7809SOL    HW123678   2.366   2.913   1.809  0.0488 -0.1003 -0.0376
 7809SOL    HW223679   2.292   2.906   1.941  0.2956 -1.0121  0.0578
 7810SOL     OW23680   2.358   0.606   1.036  0.2785  0.2483 -0.1383
 7810SOL    HW123681   2.322   0.539   1.095  2.9488 -0.8513  0.3797
 7810SOL    HW223682   2.358   0.564   0.950  2.6601 -0.8242  0.3121
 7811SOL     OW23683   3.034   4.680   0.082 -0.2489  0.1713  0.2712
 7811SOL    HW123684   2.954   4.704   0.129  0.5702  0.5219  1.5253
 7811SOL    HW223685   3.054   4.756   0.028  0.5303  1.0741  1.7632
 7812SOL     OW23686   0.128   5.758   4.758 -0.5232 -0.3716  0.3697
 7812SOL    HW123687   0.172   5.811   4.691 -2.6212  0.9229 -0.0600
 7812SOL    HW223688   0.143   5.806   4.840 -1.4859  0.3363  0.1487
 7813SOL     OW23689   4.687   0.538   3.454  0.1162  0.1732  0.6682
 7813SOL    HW123690   4.613   0.594   3.477  0.1940  0.5710 -0.0452
 7813SOL    HW223691   4.740   0.591   3.395  1.1878  0.0407  1.4810
 7814SOL     OW23692   4.108   2.580   0.858  0.4462  0.2632  0.3894
 7814SOL    HW123693   4.036   2.563   0.919  0.9770  0.3657  1.0569
 7814SOL    HW223694   4.094   2.670   0.828  0.4973  0.4079  0.7947
 7815SOL     OW23695   2.023   5.595   3.302 -0.5849  0.2861  0.2827
 7815SOL    HW123696   1.990   5.592   3.392  0.9397  0.5129  0.8786
 7815SOL    HW223697   1.945   5.611   3.249 -1.4687  0.5310  1.5927
 7816SOL     OW23698   1.833   6.267   5.860 -0.1573 -0.3939 -0.0286
 7816SOL    HW123699   1.864   6.354   5.834  0.4587 -0.7420 -0.4664
 7816SOL    HW223700   1.898   6.237   5.924  0.2673 -1.0070 -0.7361
 7817SOL     OW23701   2.891   0.412   4.942 -0.1937 -0.3869  0.1731
 7817SOL    HW123702   2.851   0.362   5.013  1.7029 -1.2259  0.7232
 7817SOL    HW223703   2.824   0.417   4.874 -1.0350 -2.1834  0.8271
 7818SOL     OW23704   6.063   1.835   4.197 -0.4301 -0.4245  0.1006
 7818SOL    HW123705   5.991   1.784   4.163  0.8050 -1.5795 -0.8881
 7818SOL    HW223706   6.141   1.781   4.182  0.6832  0.8607  0.9167
 7819SOL     OW23707   6.049   0.445   1.912 -0.1020  0.2511 -0.8192
 7819SOL    HW123708   5.959   0.465   1.937 -0.5326 -2.2500 -0.1061
 7819SOL    HW223709   6.101   0.465   1.990 -0.4117 -0.5996 -0.3845
 7820SOL     OW23710   2.637   1.140   2.850  0.0472 -0.6306 -0.6643
 7820SOL    HW123711   2.664   1.219   2.803 -0.8774 -0.2899 -0.6342
 7820SOL    HW223712   2.661   1.068   2.791 -1.5399 -0.1880 -1.9167
 7821SOL     OW23713   1.235   3.053   1.968 -0.1620  0.3839  0.6202
 7821SOL    HW123714   1.278   2.976   1.932 -1.2676 -0.1720  0.4522
 7821SOL    HW223715   1.293   3.126   1.945 -0.4090 -0.0389 -1.6093
 7822SOL     OW23716   2.866   3.808   0.279 -0.7665  0.0869  0.8307
 7822SOL    HW123717   2.894   3.736   0.334  1.1760  0.9238  1.0394
 7822SOL    HW223718   2.805   3.769   0.216 -0.0512 -1.6434  1.1664
 7823SOL     OW23719   2.288   2.155   5.296 -0.3903 -0.0003  0.2656
 7823SOL    HW123720   2.235   2.177   5.373 -1.2384 -1.2256  0.0486
 7823SOL    HW223721   2.232   2.098   5.243  0.8770 -0.7514 -0.3157
 7824SOL     OW23722   1.703   6.182   3.698 -0.2492  0.1166  0.2294
 7824SOL    HW123723   1.741   6.183   3.785  0.3281  0.1123 -0.0194
 7824SOL    HW223724   1.679   6.273   3.681  1.9887  0.6101 -0.6081
 7825SOL     OW23725   4.778   2.965   1.075 -0.8105  0.2814  0.1851
 7825SOL    HW123726   4.755   3.027   1.144 -2.4700  1.1293 -1.0425
 7825SOL    HW223727   4.756   2.880   1.111  0.2199  0.5021  1.4039
 7826SOL     OW23728   4.251   1.189   0.300 -0.1917 -0.1595  0.9829
 7826SOL    HW123729   4.237   1.210   0.392  0.1253  1.7280  0.6390
 7826SOL    HW223730   4.177   1.230   0.255 -0.0663 -0.6261  0.3300
 7827SOL     OW23731   5.248   0.147   5.430  0.3777  0.0763 -0.0837
 7827SOL    HW123732   5.210   0.176   5.347 -0.7022  1.3008  0.7985
 7827SOL    HW223733   5.194   0.072   5.455 -0.3181  0.6915  0.2812
 7828SOL     OW23734   0.884   3.034   5.249 -0.0351  0.1254  0.4245
 7828SOL    HW123735   0.848   2.998   5.330 -2.4376  3.5922  1.1314
 7828SOL    HW223736   0.901   3.126   5.269  0.8381  0.7328 -2.5786
 7829SOL     OW23737   4.249   2.733   4.759 -0.0110 -0.0125  0.5238
 7829SOL    HW123738   4.290   2.693   4.682 -0.6063 -0.4297  0.4135
 7829SOL    HW223739   4.222   2.659   4.813 -2.7605  0.0980 -0.5228
 7830SOL     OW23740   4.766   1.598   3.690  0.2569  0.1648 -0.2459
 7830SOL    HW123741   4.702   1.665   3.711 -1.6267 -0.8228 -2.4350
 7830SOL    HW223742   4.845   1.646   3.668 -0.3167  1.5231  0.5304
 7831SOL     OW23743   3.136   2.407   5.614  0.8180  0.2561 -0.6442
 7831SOL    HW123744   3.145   2.345   5.542 -1.7511 -1.7185  0.5681
 7831SOL    HW223745   3.187   2.368   5.686  0.6621  0.4813 -0.4094
 7832SOL     OW23746   4.455   4.767   1.577  0.4474 -0.1418  0.5499
 7832SOL    HW123747   4.508   4.834   1.621 -2.5357  1.5784  1.8612
 7832SOL    HW223748   4.382   4.752   1.638 -0.8170 -2.0125 -1.3184
 7833SOL     OW23749   2.685   3.309   2.873 -0.2339  0.0132 -0.0935
 7833SOL    HW123750   2.734   3.280   2.797 -1.0954 -1.2581 -0.1926
 7833SOL    HW223751   2.748   3.307   2.945  0.1206 -0.6274 -0.4116
 7834SOL     OW23752   0.813   6.000   0.498  0.4982 -0.9282 -0.0378
 7834SOL    HW123753   0.758   5.958   0.433  0.3338 -1.7099  0.5854
 7834SOL    HW223754   0.830   5.931   0.563  2.0318 -0.6534 -0.1044
 7835SOL     OW23755   1.617   0.814   2.066 -0.4067 -0.0091  0.6278
 7835SOL    HW123756   1.554   0.744   2.049 -0.8651  0.2673  1.1336
 7835SOL    HW223757   1.665   0.825   1.984 -0.4582 -0.7862  0.4926
 7836SOL     OW23758   0.396   4.675   1.060  0.1929 -0.0343 -0.0873
 7836SOL    HW123759   0.490   4.687   1.076  0.2389  0.5929 -0.7733
 7836SOL    HW223760   0.353   4.738   1.118  0.1503 -0.7611  0.6984
 7837SOL     OW23761   5.017   0.460   1.140  0.7827 -0.3204 -0.7177
 7837SOL    HW123762   4.979   0.373   1.144  2.2412 -0.9600  0.9173
 7837SOL    HW223763   5.027   0.478   1.047  2.6615 -2.9688 -1.1448
 7838SOL     OW23764   3.531   3.364   1.017 -0.4327  0.2221  0.4689
 7838SOL    HW123765   3.443   3.331   1.036 -0.3022 -0.6005 -0.3050
 7838SOL    HW223766   3.520   3.417   0.939 -0.1099 -0.5856 -0.1387
 7839SOL     OW23767   3.487   1.859   0.388  0.7159 -0.0977  0.0230
 7839SOL    HW123768   3.453   1.858   0.299  0.7557 -3.9979 -0.1456
 7839SOL    HW223769   3.411   1.876   0.443 -0.0701 -1.2613 -0.6600
 7840SOL     OW23770   3.529   1.153   3.927  0.5365  0.0113 -0.0209
 7840SOL    HW123771   3.470   1.102   3.871  1.3768 -0.0910 -0.8490
 7840SOL    HW223772   3.471   1.196   3.990 -0.5699  0.8112 -1.4864
 7841SOL     OW23773   2.005   0.746   5.404  0.0568 -0.2349  0.1822
 7841SOL    HW123774   2.047   0.831   5.414 -1.0722  0.1155  2.5628
 7841SOL    HW223775   2.070   0.693   5.357  0.6812  1.9576 -1.5943
 7842SOL     OW23776   2.527   6.140   3.087 -0.0078  0.0207  0.0099
 7842SOL    HW123777   2.523   6.078   3.013 -1.1859  0.5038 -0.3565
 7842SOL    HW223778   2.465   6.104   3.151  0.5515 -0.0659  0.5044
 7843SOL     OW23779   3.130   4.606   5.929  0.5147 -0.6690 -0.2540
 7843SOL    HW123780   3.213   4.616   5.882  0.5595 -2.2871 -0.5856
 7843SOL    HW223781   3.149   4.545   5.999  0.3506  1.4196  1.7402
 7844SOL     OW23782   0.922   2.783   0.279  0.2386  0.0812 -0.6322
 7844SOL    HW123783   1.008   2.817   0.252  0.2005 -0.8072 -1.9808
 7844SOL    HW223784   0.925   2.690   0.256 -1.0293  0.0090 -0.5500
 7845SOL     OW23785   1.901   1.664   3.451 -0.2187 -1.1460 -0.5041
 7845SOL    HW123786   1.895   1.593   3.515 -0.6671 -0.3972  0.3062
 7845SOL    HW223787   1.994   1.665   3.426 -0.0190 -1.3899  0.2026
 7846SOL     OW23788   2.754   2.763   4.699 -0.1689  0.6963 -0.1687
 7846SOL    HW123789   2.831   2.772   4.754 -0.1597 -1.6419  0.2994
 7846SOL    HW223790   2.694   2.709   4.750 -1.1676  0.5466 -1.4490
 7847SOL     OW23791   4.058   2.584   3.794 -0.5012 -0.2700  0.1753
 7847SOL    HW123792   4.097   2.546   3.873 -1.0329 -0.5447  0.3123
 7847SOL    HW223793   3.964   2.568   3.804 -0.8785  1.9692  0.7432
 7848SOL     OW23794   1.969   4.438   4.955  0.0368  0.0246  0.0353
 7848SOL    HW123795   1.875   4.455   4.966  0.4849  1.9392  1.7070
 7848SOL    HW223796   2.011   4.520   4.982  2.1486 -0.0665 -2.5687
 7849SOL     OW23797   3.305   1.215   5.714 -0.3211 -0.4407  0.4001
 7849SOL    HW123798   3.333   1.300   5.680 -1.2895 -0.5092 -0.6403
 7849SOL    HW223799   3.229   1.235   5.768  1.1904 -0.3366  2.6085
 7850SOL     OW23800   0.138   6.287   1.834  0.1185  0.1093 -0.7786
 7850SOL    HW123801   0.202   6.356   1.818  0.2845  0.2068  0.2501
 7850SOL    HW223802   0.084   6.320   1.906 -0.2960 -0.5029 -0.7962
 7851SOL     OW23803   3.178   3.543   3.106 -0.0892  0.0759 -0.3273
 7851SOL    HW123804   3.177   3.627   3.152 -0.8117 -0.8082  1.3789
 7851SOL    HW223805   3.224   3.483   3.165  0.9664 -0.6138 -1.7843
 7852SOL     OW23806   0.417   0.246   0.856 -0.4228 -0.2724  0.5372
 7852SOL    HW123807   0.381   0.307   0.792  0.6680  1.0678  1.1514
 7852SOL    HW223808   0.480   0.298   0.906  1.3682 -2.1384  0.3735
 7853SOL     OW23809   1.767   4.520   2.682  0.7183 -0.6668 -0.2454
 7853SOL    HW123810   1.737   4.553   2.767  2.8053 -1.5517  0.9001
 7853SOL    HW223811   1.776   4.598   2.628  0.4937  0.0478  0.7176
 7854SOL     OW23812   2.091   2.893   6.213  0.2740  0.0274 -0.0606
 7854SOL    HW123813   2.057   2.908   6.125 -1.1621 -3.2931 -0.2207
 7854SOL    HW223814   2.145   2.814   6.205  1.9652  0.9267  1.6718
 7855SOL     OW23815   2.708   2.683   2.671  0.1510 -0.1922  0.3698
 7855SOL    HW123816   2.728   2.626   2.596  0.9019  0.5222  0.0221
 7855SOL    HW223817   2.671   2.623   2.736  1.6010 -1.2296  0.2890
 7856SOL     OW23818   1.574   5.266   3.532  0.3651  0.4012  0.2838
 7856SOL    HW123819   1.636   5.245   3.463 -0.8423  1.6702 -1.2664
 7856SOL    HW223820   1.495   5.215   3.511 -1.4271  3.6619 -1.6684
 7857SOL     OW23821   1.644   4.992   4.832 -0.2172  1.1019 -0.0010
 7857SOL    HW123822   1.686   4.940   4.764 -1.0389  0.3267  0.0578
 7857SOL    HW223823   1.663   5.083   4.809 -0.4435  0.8486 -1.2400
 7858SOL     OW23824   5.752   1.466   3.940  0.5803 -0.3402  0.2889
 7858SOL    HW123825   5.770   1.379   3.975  0.5967  0.0863  1.3560
 7858SOL    HW223826   5.715   1.449   3.853 -0.7781 -1.4777  1.0519
 7859SOL     OW23827   2.843   3.997   3.612 -0.0656  0.1532  0.1154
 7859SOL    HW123828   2.818   4.066   3.673 -1.8061  0.7561 -1.2044
 7859SOL    HW223829   2.761   3.954   3.588  0.7881 -1.2484 -0.4236
 7860SOL     OW23830   1.179   4.588   0.818  0.1084 -0.1089  0.3724
 7860SOL    HW123831   1.176   4.571   0.912  2.2529 -0.3388  0.4488
 7860SOL    HW223832   1.089   4.576   0.789 -0.2333 -2.2681  2.0332
 7861SOL     OW23833   0.024   3.931   6.312 -0.4387  0.1178  0.0619
 7861SOL    HW123834  -0.031   3.963   6.241 -0.1598  3.2581  1.1045
 7861SOL    HW223835  -0.035   3.881   6.368 -1.2565 -0.1071 -0.9831
 7862SOL     OW23836   3.154   1.678   5.516  0.2484 -0.6000 -0.1332
 7862SOL    HW123837   3.188   1.757   5.557  0.7978 -0.9788  0.1631
 7862SOL    HW223838   3.102   1.636   5.585  0.7194 -0.9582  0.0139
 7863SOL     OW23839   0.400   0.727   4.563  0.0780  0.1634 -0.1166
 7863SOL    HW123840   0.374   0.766   4.647  0.6892  0.5115 -0.0860
 7863SOL    HW223841   0.331   0.664   4.544  0.9172 -1.3579  1.6135
 7864SOL     OW23842   5.815   4.202   2.259  0.4724  0.6535 -0.2085
 7864SOL    HW123843   5.853   4.117   2.237 -0.6683  0.4247 -1.4142
 7864SOL    HW223844   5.780   4.235   2.177 -0.1349  1.7662  0.4698
 7865SOL     OW23845   5.569   2.576   5.702 -0.8172  0.5388 -0.3145
 7865SOL    HW123846   5.589   2.483   5.716 -1.4305  0.3063 -0.9413
 7865SOL    HW223847   5.605   2.596   5.615 -0.9199  0.8189 -0.2949
 7866SOL     OW23848   5.359   0.447   1.187  0.0646 -0.5526 -0.5095
 7866SOL    HW123849   5.345   0.472   1.096  0.5927 -1.0432 -0.7303
 7866SOL    HW223850   5.296   0.500   1.236 -0.4425 -0.5089 -1.1854
 7867SOL     OW23851   1.078   5.541   0.005  0.3116  0.6669  0.1267
 7867SOL    HW123852   1.022   5.618  -0.008 -1.3472 -0.6179 -0.8174
 7867SOL    HW223853   1.020   5.466  -0.013  2.0452 -0.7903  0.3126
 7868SOL     OW23854   5.263   1.843   4.580  0.3675 -0.0913  0.2241
 7868SOL    HW123855   5.214   1.849   4.499  0.7207  1.1717  0.0933
 7868SOL    HW223856   5.203   1.874   4.648  0.3625 -0.3267  0.3300
 7869SOL     OW23857   0.555   3.371   1.742 -0.0649 -0.1315 -0.1331
 7869SOL    HW123858   0.519   3.311   1.807 -0.8785  0.4786 -0.0139
 7869SOL    HW223859   0.482   3.392   1.684  0.0946  1.0844  0.0825
 7870SOL     OW23860   0.020   2.573   4.697 -0.0637 -0.0788  0.0935
 7870SOL    HW123861  -0.040   2.643   4.724  0.1391 -0.0616  0.5072
 7870SOL    HW223862   0.097   2.585   4.752  0.0531 -0.5062  0.0225
 7871SOL     OW23863   5.625   4.153   3.999 -0.9177  0.5082 -0.0514
 7871SOL    HW123864   5.604   4.163   4.092 -2.9207  0.4275 -0.4483
 7871SOL    HW223865   5.593   4.234   3.959 -0.5950  0.2925 -0.7507
 7872SOL     OW23866   1.240   0.374   3.911  0.0707  0.1429 -0.0902
 7872SOL    HW123867   1.167   0.312   3.899 -0.0166  0.0973  0.6485
 7872SOL    HW223868   1.210   0.433   3.980 -0.3089  1.7146 -1.5056
 7873SOL     OW23869   4.607   1.672   5.489  0.0372  0.1605 -0.4983
 7873SOL    HW123870   4.536   1.674   5.425  0.6450 -0.0142 -1.1861
 7873SOL    HW223871   4.620   1.579   5.507 -0.0823  0.2057 -0.1699
 7874SOL     OW23872   2.914   6.028   5.480  0.5994  0.1951  0.1449
 7874SOL    HW123873   2.822   6.005   5.494  0.3236  0.5550 -0.9543
 7874SOL    HW223874   2.931   6.004   5.389  0.9496  2.0778 -0.3434
 7875SOL     OW23875   1.329   1.543   5.689  0.8919  0.5634  0.1110
 7875SOL    HW123876   1.263   1.562   5.755  2.8102  0.6577  2.1047
 7875SOL    HW223877   1.281   1.500   5.618 -1.4898  1.7873  0.8787
 7876SOL     OW23878   3.990   3.123   5.878 -0.1183  0.1472 -0.3455
 7876SOL    HW123879   4.048   3.171   5.820  0.7087  0.5205  0.7612
 7876SOL    HW223880   4.027   3.135   5.965 -0.4985 -1.6006  0.1036
 7877SOL     OW23881   3.577   6.064   4.012  0.4646  0.1442 -0.2502
 7877SOL    HW123882   3.541   6.116   4.083 -0.8585  0.2991 -1.0113
 7877SOL    HW223883   3.663   6.103   3.995  0.9213 -0.0737  1.4240
 7878SOL     OW23884   3.376   3.790   4.965 -0.4961  0.0109  0.2003
 7878SOL    HW123885   3.458   3.756   5.000 -0.5525  1.2657  1.6371
 7878SOL    HW223886   3.390   3.795   4.870 -0.2768 -3.3167 -0.0515
 7879SOL     OW23887   0.055   1.977   0.719  0.2923  0.7095 -0.0901
 7879SOL    HW123888   0.059   2.073   0.715 -1.8927  0.9131  1.1171
 7879SOL    HW223889  -0.003   1.953   0.646  2.6127  0.0330 -1.8475
 7880SOL     OW23890   1.322   1.018   3.752  0.5137  0.2101  0.0853
 7880SOL    HW123891   1.298   1.108   3.773  0.6230 -0.1355  1.7898
 7880SOL    HW223892   1.350   1.023   3.660 -1.3593  1.5146 -0.4861
 7881SOL     OW23893   4.229   5.844   0.874 -0.2782 -0.2295  0.0735
 7881SOL    HW123894   4.164   5.776   0.892 -1.7569  0.1226 -3.2397
 7881SOL    HW223895   4.204   5.917   0.932 -1.6082 -0.8457  0.3209
 7882SOL     OW23896   1.058   1.997   1.417  0.0306 -0.0138 -0.5166
 7882SOL    HW123897   1.037   1.911   1.381 -0.8679  0.2456 -0.6171
 7882SOL    HW223898   1.021   2.059   1.354  0.4464  0.4544 -0.3088
 7883SOL     OW23899   5.077   2.543   5.703  0.2196  0.0336 -0.3180
 7883SOL    HW123900   5.087   2.475   5.770 -0.3893 -0.1243 -0.3788
 7883SOL    HW223901   5.006   2.511   5.647  2.2752 -1.0406 -2.5049
 7884SOL     OW23902   4.998   5.909   3.652 -0.0173 -0.6418  0.4194
 7884SOL    HW123903   4.935   5.925   3.722  0.2735 -0.1070  0.5672
 7884SOL    HW223904   5.021   5.996   3.620  1.6510 -0.7278  1.2739
 7885SOL     OW23905   2.320   0.206   0.370  0.1773 -0.3799 -0.6357
 7885SOL    HW123906   2.279   0.130   0.412  0.0336 -0.9170 -1.6985
 7885SOL    HW223907   2.381   0.168   0.307  2.5475  0.4057  1.0582
 7886SOL     OW23908   5.902   3.240   4.945  0.2681 -0.3321  0.1221
 7886SOL    HW123909   5.984   3.231   4.994  0.0143 -2.8542  0.2482
 7886SOL    HW223910   5.917   3.190   4.865 -1.2361 -1.1210  0.2969
 7887SOL     OW23911   1.152   5.671   3.385  0.3794 -0.5079  0.3294
 7887SOL    HW123912   1.217   5.716   3.439 -1.0547  1.3933  0.5674
 7887SOL    HW223913   1.171   5.698   3.296  0.2901 -0.4363  0.3317
 7888SOL     OW23914   5.020   3.683   5.355 -0.2928 -0.1413 -0.3531
 7888SOL    HW123915   4.959   3.718   5.419 -1.2876 -2.7544  0.2451
 7888SOL    HW223916   5.070   3.616   5.402  1.0391 -0.0841 -1.5877
 7889SOL     OW23917   5.014   6.043   0.761  0.2348 -0.4727 -0.3769
 7889SOL    HW123918   4.925   6.077   0.769  0.6787  0.7084 -0.2716
 7889SOL    HW223919   5.023   6.023   0.667  0.0041 -0.1942 -0.4613
 7890SOL     OW23920   0.264   6.128   5.023  0.2802  0.0360 -0.5264
 7890SOL    HW123921   0.198   6.169   4.967 -0.4954 -1.1738 -0.5410
 7890SOL    HW223922   0.222   6.123   5.109  0.8836  0.5006 -0.1986
 7891SOL     OW23923   5.688   2.206   0.409  0.3244  0.0949 -0.1144
 7891SOL    HW123924   5.666   2.197   0.316  0.7768  1.8243 -0.4399
 7891SOL    HW223925   5.628   2.273   0.441 -0.2330 -0.9223  1.0172
 7892SOL     OW23926   3.178   3.061   5.040  0.1254 -0.5253 -0.4916
 7892SOL    HW123927   3.142   3.023   4.960 -0.5616 -1.2426  0.1368
 7892SOL    HW223928   3.270   3.078   5.019 -0.3969  0.7843 -1.9299
 7893SOL     OW23929   5.432   2.893   1.046  0.0572  0.0163  0.4329
 7893SOL    HW123930   5.408   2.966   0.990 -0.5014 -0.6235 -0.1758
 7893SOL    HW223931   5.493   2.931   1.110 -1.3411  1.3382  1.0576
 7894SOL     OW23932   2.405   1.332   0.028  0.2425 -0.2509 -0.2061
 7894SOL    HW123933   2.449   1.283  -0.041  0.9236 -0.3357  0.2864
 7894SOL    HW223934   2.415   1.278   0.106  0.2281  0.2519  0.1484
 7895SOL     OW23935   2.866   1.590   1.411 -0.2384 -0.2939  0.3210
 7895SOL    HW123936   2.957   1.560   1.410 -0.1236 -0.0167 -1.4202
 7895SOL    HW223937   2.814   1.510   1.408  0.0093 -0.4380 -0.7374
 7896SOL     OW23938   5.908   3.700   0.691 -0.0083  0.4878  0.2034
 7896SOL    HW123939   5.854   3.632   0.650 -0.6210  1.1666 -0.1371
 7896SOL    HW223940   5.955   3.740   0.618  1.4860 -0.5208  0.5622
 7897SOL     OW23941   5.450   1.198   3.984 -0.3372 -0.0371  0.2619
 7897SOL    HW123942   5.413   1.117   4.020  0.0966  0.4356  1.8813
 7897SOL    HW223943   5.399   1.215   3.905 -0.9673 -1.4612  0.3302
 7898SOL     OW23944   1.479   4.604   5.415 -0.7216 -0.4863  0.2510
 7898SOL    HW123945   1.401   4.585   5.363 -1.9455  1.3447  1.2952
 7898SOL    HW223946   1.550   4.607   5.351 -1.4990 -1.9942 -0.7571
 7899SOL     OW23947   3.537   0.587   0.157  0.0280 -0.3294  0.0228
 7899SOL    HW123948   3.513   0.650   0.090  1.7396  0.9862  0.5626
 7899SOL    HW223949   3.477   0.604   0.229  0.4695  0.7106  0.1593
 7900SOL     OW23950   5.588   5.981   2.844 -0.0354 -0.2127  0.7179
 7900SOL    HW123951   5.621   5.893   2.828 -1.4773 -0.3512 -2.2242
 7900SOL    HW223952   5.666   6.037   2.843  0.7343 -1.2444  1.0445
 7901SOL     OW23953   5.298   4.415   3.323 -0.4039  0.1013 -0.4761
 7901SOL    HW123954   5.255   4.470   3.388  0.5433 -1.1433  1.2854
 7901SOL    HW223955   5.369   4.469   3.288  0.2522  0.1725  0.9166
 7902SOL     OW23956   0.895   1.849   2.827 -0.2992 -0.5550 -0.8977
 7902SOL    HW123957   0.927   1.782   2.766 -0.7595 -2.3402  0.7273
 7902SOL    HW223958   0.969   1.866   2.885 -0.1969  0.3540 -1.2765
 7903SOL     OW23959   5.871   5.676   2.168 -0.1314  1.1037  0.0251
 7903SOL    HW123960   5.839   5.717   2.248 -1.7040 -1.0358  0.5496
 7903SOL    HW223961   5.802   5.617   2.141  0.5553  1.4074 -2.6982
 7904SOL     OW23962   4.890   0.195   4.856  0.0958  0.0588 -0.0426
 7904SOL    HW123963   4.905   0.101   4.857 -0.8950 -0.1480 -1.5709
 7904SOL    HW223964   4.900   0.220   4.765 -0.4566  1.2971  0.2152
 7905SOL     OW23965   0.700   5.720   3.697 -0.1766 -0.0547  0.1968
 7905SOL    HW123966   0.644   5.759   3.764  0.5921 -0.7639  1.2803
 7905SOL    HW223967   0.785   5.763   3.708  0.5007 -1.5292  0.9827
 7906SOL     OW23968   6.223   3.261   0.131  0.0773 -0.0658  0.5773
 7906SOL    HW123969   6.260   3.304   0.054  1.1443  0.8594  1.5703
 7906SOL    HW223970   6.249   3.169   0.122 -0.2901 -0.0819 -0.4328
 7907SOL     OW23971   3.391   1.693   3.215 -0.5667 -0.7231  0.1871
 7907SOL    HW123972   3.391   1.604   3.252 -1.2813 -0.3017  1.2483
 7907SOL    HW223973   3.479   1.725   3.232  0.3199 -1.8641 -1.8783
 7908SOL     OW23974   1.422   4.488   3.844  0.1136 -0.2585 -0.0762
 7908SOL    HW123975   1.385   4.499   3.931 -3.0854 -2.8826 -0.9084
 7908SOL    HW223976   1.352   4.515   3.784  2.5394  2.4379 -2.0161
 7909SOL     OW23977   5.071   4.792   4.488  0.1388 -0.3454 -0.1476
 7909SOL    HW123978   5.118   4.868   4.455  0.1905 -0.7302 -1.0165
 7909SOL    HW223979   5.011   4.768   4.416 -0.7174 -0.4164  0.5715
 7910SOL     OW23980   2.206   3.033   2.209  0.0420 -0.1107  0.0184
 7910SOL    HW123981   2.181   2.996   2.294  0.3946  0.6057  0.4477
 7910SOL    HW223982   2.129   3.023   2.154 -0.4971  0.2234  0.7022
 7911SOL     OW23983   5.067   4.692   2.566 -0.2762  0.4859 -0.1592
 7911SOL    HW123984   5.151   4.647   2.580 -0.2081  0.9102  0.9319
 7911SOL    HW223985   5.008   4.652   2.629 -0.3752  1.4914  0.4124
 7912SOL     OW23986   3.714   3.386   4.928 -0.6265 -0.5616 -0.1012
 7912SOL    HW123987   3.792   3.345   4.966  0.3782  0.1540 -1.3086
 7912SOL    HW223988   3.747   3.460   4.879 -2.1822  0.3020  0.0777
 7913SOL     OW23989   3.538   2.282   3.316 -0.3630  0.5703 -0.0827
 7913SOL    HW123990   3.560   2.337   3.241  1.7767 -0.3858 -0.2199
 7913SOL    HW223991   3.499   2.203   3.277  0.5128  0.1826 -0.1836
 7914SOL     OW23992   6.165   4.277   0.416  0.1686 -0.1884  0.1656
 7914SOL    HW123993   6.173   4.361   0.371 -0.5739 -0.6742 -0.8952
 7914SOL    HW223994   6.210   4.215   0.359 -0.2285 -0.7066  0.4154
 7915SOL     OW23995   2.187   2.211   0.760 -0.3258 -0.7078  1.0318
 7915SOL    HW123996   2.169   2.304   0.777 -1.2750 -0.9442  1.3611
 7915SOL    HW223997   2.231   2.180   0.839  1.9054 -0.0633  0.1199
 7916SOL     OW23998   2.186   3.842   2.543  0.5965  0.2922 -0.4477
 7916SOL    HW123999   2.096   3.873   2.556  0.4540 -0.3624  0.2475
 7916SOL    HW224000   2.236   3.921   2.524 -0.3376  0.5299 -2.1527
 7917SOL     OW24001   2.095   4.564   3.965  0.1484 -0.3469  0.1427
 7917SOL    HW124002   2.064   4.545   3.876 -0.0743 -0.4123  0.2360
 7917SOL    HW224003   2.150   4.489   3.988 -0.0531 -0.4791  0.1866
 7918SOL     OW24004   1.231   1.341   0.268 -0.3963 -0.6660 -0.3805
 7918SOL    HW124005   1.166   1.275   0.291 -0.0231 -1.6227 -1.9448
 7918SOL    HW224006   1.215   1.361   0.176  0.1316  0.7138 -0.2004
 7919SOL     OW24007   3.169   2.707   6.032 -0.4816  0.2463 -0.1367
 7919SOL    HW124008   3.250   2.668   5.999 -0.8363  0.4495 -1.2914
 7919SOL    HW224009   3.151   2.660   6.114  0.0211 -0.7946 -0.6103
 7920SOL     OW24010   4.455   1.629   5.013 -0.5782  0.1487  0.3583
 7920SOL    HW124011   4.419   1.714   4.988 -1.6084 -0.5049 -0.5001
 7920SOL    HW224012   4.429   1.617   5.104 -1.2742  0.3482  0.1928
 7921SOL     OW24013   5.505   6.069   0.637 -0.2343 -0.3300 -0.8408
 7921SOL    HW124014   5.553   6.020   0.570 -0.7621 -2.7163  0.4283
 7921SOL    HW224015   5.567   6.079   0.709 -0.0429  1.1952 -1.1878
 7922SOL     OW24016   3.876   2.068   1.523  0.8049  0.4005 -0.2760
 7922SOL    HW124017   3.893   2.139   1.460  0.0851  0.8737  0.0443
 7922SOL    HW224018   3.829   2.002   1.471  0.2724  0.7604 -0.2635
 7923SOL     OW24019   3.149   4.864   0.382 -0.2604 -0.7171 -0.1052
 7923SOL    HW124020   3.084   4.923   0.420 -0.1325 -0.8037  0.2493
 7923SOL    HW224021   3.159   4.894   0.292  0.7039  0.5803  0.4093
 7924SOL     OW24022   0.845   4.684   4.282 -0.3401 -0.0472 -0.5592
 7924SOL    HW124023   0.758   4.715   4.258 -0.5905 -0.7954 -0.6560
 7924SOL    HW224024   0.847   4.593   4.251  0.4149 -0.0813 -0.4171
 7925SOL     OW24025   4.901   3.130   0.711 -0.1663 -0.3644 -0.2124
 7925SOL    HW124026   4.935   3.042   0.691 -0.2401 -0.3096 -0.5905
 7925SOL    HW224027   4.979   3.185   0.717 -0.1702 -0.2830 -0.8558
 7926SOL     OW24028   3.883   2.829   3.634  0.3601 -0.1161  0.4746
 7926SOL    HW124029   3.826   2.792   3.566 -1.6737  0.9255  1.5068
 7926SOL    HW224030   3.888   2.761   3.701  0.9089 -0.4701  0.0789
 7927SOL     OW24031   0.824   4.666   2.478  0.9809  0.0397 -0.2787
 7927SOL    HW124032   0.738   4.632   2.501  1.5381 -0.7351  0.7516
 7927SOL    HW224033   0.828   4.752   2.519 -0.2115  1.1920 -2.4057
 7928SOL     OW24034   2.183   4.851   5.234 -0.8051 -0.5191 -0.8993
 7928SOL    HW124035   2.102   4.845   5.183 -2.3312  0.1516  1.2895
 7928SOL    HW224036   2.195   4.945   5.249 -0.9898 -0.7402  0.7943
 7929SOL     OW24037   0.200   2.786   2.442  0.1454  0.5175 -0.3135
 7929SOL    HW124038   0.193   2.848   2.369  1.1187 -0.7473 -1.5422
 7929SOL    HW224039   0.291   2.796   2.472  0.4104 -0.5171 -0.7391
 7930SOL     OW24040   1.853   2.877   3.572 -0.4058 -0.2172  0.4387
 7930SOL    HW124041   1.885   2.797   3.614  2.0257 -0.0026 -0.8135
 7930SOL    HW224042   1.802   2.846   3.497  1.6622 -0.7358 -0.8647
 7931SOL     OW24043   1.732   5.771   5.760 -0.5519  0.2627 -0.0896
 7931SOL    HW124044   1.815   5.739   5.795 -1.5290  0.8866  3.1864
 7931SOL    HW224045   1.676   5.694   5.757 -0.3178  0.1134 -0.8761
 7932SOL     OW24046   5.871   0.159   1.872 -0.0103  0.2400  0.0238
 7932SOL    HW124047   5.927   0.138   1.947 -1.0773  0.2964  0.8734
 7932SOL    HW224048   5.916   0.231   1.828  0.7489  0.0608  0.4829
 7933SOL     OW24049   1.807   3.037   5.708 -0.3114  0.0904  0.5412
 7933SOL    HW124050   1.775   2.973   5.644 -0.8401  1.7751 -0.9664
 7933SOL    HW224051   1.849   3.105   5.655  1.9760  0.0975  2.2062
 7934SOL     OW24052   1.634   6.155   0.632 -0.1701  0.3362  0.0445
 7934SOL    HW124053   1.579   6.215   0.581  0.4452  0.9103  0.0446
 7934SOL    HW224054   1.643   6.078   0.576 -1.7022 -0.1518  0.4149
 7935SOL     OW24055   3.952   5.415   1.239  0.4363  0.0090  0.5709
 7935SOL    HW124056   4.030   5.368   1.208 -0.1103 -1.1190  0.8462
 7935SOL    HW224057   3.889   5.404   1.168  1.2191  2.9470 -0.7513
 7936SOL     OW24058   0.366   0.719   1.143  0.3050 -0.1593  0.0928
 7936SOL    HW124059   0.433   0.738   1.077  0.1843  0.1873  0.0673
 7936SOL    HW224060   0.304   0.662   1.098  0.7910 -0.8133  0.2394
 7937SOL     OW24061   1.700   3.976   3.023 -0.3889 -0.5502 -0.1002
 7937SOL    HW124062   1.662   3.896   2.986 -1.2052 -0.7703  1.1462
 7937SOL    HW224063   1.722   3.952   3.113 -1.2370  0.8003  0.4869
 7938SOL     OW24064   3.521   2.776   2.399  0.0403  0.0345 -0.1676
 7938SOL    HW124065   3.467   2.785   2.320  1.1527  0.2911 -0.9261
 7938SOL    HW224066   3.463   2.739   2.464 -0.8665 -0.3272 -1.1619
 7939SOL     OW24067   1.203   0.670   2.384 -0.8553 -0.2420  0.0189
 7939SOL    HW124068   1.177   0.675   2.476  0.9699 -0.4241  0.5909
 7939SOL    HW224069   1.224   0.760   2.359 -1.4024 -0.1845 -0.2399
 7940SOL     OW24070   1.403   1.549   2.573 -0.6755  0.0894  0.0588
 7940SOL    HW124071   1.459   1.541   2.650  0.3175 -0.4845 -0.6871
 7940SOL    HW224072   1.314   1.550   2.608 -0.2071  2.1783  1.3631
 7941SOL     OW24073   5.591   1.691   4.272  0.2010 -0.4875 -0.0715
 7941SOL    HW124074   5.587   1.604   4.230 -0.4168  0.0365 -1.1554
 7941SOL    HW224075   5.541   1.680   4.353 -0.8563 -0.8785 -0.7416
 7942SOL     OW24076   4.408   2.161   5.075  0.5156  0.3743  0.2878
 7942SOL    HW124077   4.488   2.185   5.028  0.6822  1.1953  0.9636
 7942SOL    HW224078   4.398   2.229   5.142 -0.6434  0.1748  0.3431
 7943SOL     OW24079   6.130   1.653   0.674  0.4852 -0.1147  0.3582
 7943SOL    HW124080   6.083   1.584   0.628  3.0461 -2.1269  0.5578
 7943SOL    HW224081   6.135   1.725   0.610  0.0710 -1.1278 -0.8537
 7944SOL     OW24082   4.597   1.214   3.053  0.5248 -0.3334 -0.1547
 7944SOL    HW124083   4.569   1.305   3.042 -0.4667 -0.7296 -1.0244
 7944SOL    HW224084   4.548   1.183   3.128  0.7987 -0.1802  0.0896
 7945SOL     OW24085   2.009   6.164   1.582 -0.3092  0.0296 -0.3787
 7945SOL    HW124086   2.001   6.248   1.627  1.2481  0.7271 -1.3124
 7945SOL    HW224087   2.013   6.099   1.651 -1.6690  0.7007  0.3613
 7946SOL     OW24088   4.501   5.635   3.769 -0.2401 -0.2840 -0.5986
 7946SOL    HW124089   4.471   5.675   3.850  1.4321  0.5555 -0.3502
 7946SOL    HW224090   4.475   5.544   3.776 -0.6969 -0.0768  0.5856
 7947SOL     OW24091   4.325   5.292   1.419 -0.3485  0.1015 -0.0982
 7947SOL    HW124092   4.357   5.212   1.378 -1.5536 -0.6768  0.4170
 7947SOL    HW224093   4.280   5.262   1.498 -1.2572  1.2520 -0.1588
 7948SOL     OW24094   6.021   0.949   4.502  0.5749  0.4905 -0.6341
 7948SOL    HW124095   6.072   0.871   4.480  1.2255  0.8826 -0.5475
 7948SOL    HW224096   6.045   1.013   4.435  0.0463  0.6213 -0.7044
 7949SOL     OW24097   2.426   0.360   2.159 -0.1698 -0.0229  0.4559
 7949SOL    HW124098   2.381   0.316   2.230  0.0436 -0.1746  0.4972
 7949SOL    HW224099   2.519   0.358   2.183  0.4713 -3.5946 -1.6472
 7950SOL     OW24100   4.858   6.249   0.439  0.5871 -0.3009  0.4005
 7950SOL    HW124101   4.810   6.317   0.485  2.1054  1.7062 -0.7941
 7950SOL    HW224102   4.803   6.226   0.364 -0.0275 -0.5814  0.9268
 7951SOL     OW24103   4.347   0.532   1.533 -0.5003  0.4074  0.0091
 7951SOL    HW124104   4.287   0.600   1.503 -0.5401  0.9045  1.1559
 7951SOL    HW224105   4.396   0.506   1.455 -2.1095  0.0646 -0.9375
 7952SOL     OW24106   3.947   1.655   4.147  0.1272 -0.2794  0.4994
 7952SOL    HW124107   4.005   1.669   4.221  0.3123 -2.7424  0.9049
 7952SOL    HW224108   3.870   1.613   4.184 -0.1766 -0.7321 -0.5934
 7953SOL     OW24109   2.024   4.777   2.403 -0.2388  0.1317 -0.1215
 7953SOL    HW124110   2.080   4.802   2.329 -2.0006  2.4128 -0.7905
 7953SOL    HW224111   1.946   4.740   2.363 -0.4517 -0.3388  0.7052
 7954SOL     OW24112   1.830   2.493   1.521  0.3655 -0.3180 -0.0373
 7954SOL    HW124113   1.764   2.425   1.512  0.0859  0.1767 -2.3213
 7954SOL    HW224114   1.810   2.556   1.451  0.9903  1.8078  1.5771
 7955SOL     OW24115   2.867   0.176   3.165 -0.7218  0.5689  0.0901
 7955SOL    HW124116   2.929   0.247   3.148  0.2115  0.4970  2.7548
 7955SOL    HW224117   2.919   0.096   3.160 -0.9154  0.3873  0.7925
 7956SOL     OW24118   5.743   0.171   0.724 -0.7881  0.4871  0.4381
 7956SOL    HW124119   5.789   0.093   0.755 -1.8003 -0.8418 -1.2120
 7956SOL    HW224120   5.688   0.197   0.798 -2.3365 -1.9325  0.2431
 7957SOL     OW24121   5.349   0.308   3.587  0.2863  0.1820  0.1795
 7957SOL    HW124122   5.417   0.376   3.588  1.0637 -0.5179 -1.2636
 7957SOL    HW224123   5.269   0.354   3.563  0.9165  0.5299 -1.3712
 7958SOL     OW24124   1.467   2.584   3.909  0.1793 -0.2269  0.1909
 7958SOL    HW124125   1.542   2.525   3.897  0.1946 -0.3443  0.8421
 7958SOL    HW224126   1.390   2.529   3.891  0.2472 -0.0862 -0.5539
 7959SOL     OW24127   1.893   0.970   2.125  0.1337 -0.5052 -0.2308
 7959SOL    HW124128   1.878   0.876   2.117  0.3754 -0.6030  0.4252
 7959SOL    HW224129   1.806   1.008   2.138  0.2892 -0.9894  2.7996
 7960SOL     OW24130   3.218   0.866   3.866  0.4175 -0.3470  0.3820
 7960SOL    HW124131   3.222   0.921   3.943 -0.0204  0.1568  0.0487
 7960SOL    HW224132   3.257   0.919   3.796 -0.6029 -0.1892 -0.0871
 7961SOL     OW24133   0.087   1.293   1.446  0.0248  0.0058 -0.2977
 7961SOL    HW124134   0.137   1.347   1.384 -0.5928  0.5520 -0.3271
 7961SOL    HW224135   0.060   1.216   1.394  0.0685  0.1434 -0.5271
 7962SOL     OW24136   0.053   6.332   5.417 -0.0360 -0.5018  0.0746
 7962SOL    HW124137   0.008   6.403   5.461 -0.0073 -1.0299  0.9825
 7962SOL    HW224138   0.064   6.265   5.485  0.8452 -0.9537 -0.4947
 7963SOL     OW24139   0.989   3.734   0.877  0.2569  0.4954  0.1811
 7963SOL    HW124140   1.035   3.817   0.877  0.3661  0.4638  1.4577
 7963SOL    HW224141   0.968   3.717   0.785  2.1157  0.8681 -0.3480
 7964SOL     OW24142   0.263   0.088   3.805 -0.2443 -0.4176  0.1615
 7964SOL    HW124143   0.287   0.014   3.749  1.0909 -0.1918  0.4072
 7964SOL    HW224144   0.196   0.134   3.755 -0.2186 -1.1118 -0.5424
 7965SOL     OW24145   1.320   0.667   4.518  0.1041  0.0508 -0.1846
 7965SOL    HW124146   1.394   0.639   4.571  1.1377  2.3897 -0.2726
 7965SOL    HW224147   1.270   0.726   4.575 -1.6412 -1.3185 -0.1899
 7966SOL     OW24148   3.479   3.659   1.087  0.3997  0.0973 -0.3603
 7966SOL    HW124149   3.525   3.698   1.013  1.0388 -1.1900 -0.6545
 7966SOL    HW224150   3.515   3.571   1.095  1.5588  0.6947  2.4790
 7967SOL     OW24151   5.590   4.270   0.675  0.7359  0.1554 -0.4438
 7967SOL    HW124152   5.648   4.195   0.663  0.6139 -0.1031  0.5208
 7967SOL    HW224153   5.648   4.342   0.698  1.2820  1.2875 -4.5284
 7968SOL     OW24154   5.533   0.400   5.634  0.2990  0.1904 -0.1158
 7968SOL    HW124155   5.534   0.437   5.546  0.8570  2.7985  0.9077
 7968SOL    HW224156   5.592   0.456   5.684 -0.1938 -1.0802  2.0029
 7969SOL     OW24157   6.018   2.354   5.056 -0.1858 -0.1124 -0.2303
 7969SOL    HW124158   6.037   2.445   5.037  1.3186  0.2672  2.5726
 7969SOL    HW224159   6.097   2.307   5.031  0.4604 -0.0791  1.6230
 7970SOL     OW24160   4.072   0.977   0.224 -0.6312  0.2947 -0.0659
 7970SOL    HW124161   4.045   0.974   0.133  1.4368 -2.5041 -0.7158
 7970SOL    HW224162   4.138   1.046   0.228 -1.9295  1.5874 -0.2456
 7971SOL     OW24163   2.736   4.276   5.765 -0.3114 -0.1645 -0.3193
 7971SOL    HW124164   2.740   4.211   5.834  0.4518  0.9867  0.7660
 7971SOL    HW224165   2.645   4.273   5.734 -1.5559  1.2642  2.7565
 7972SOL     OW24166   1.428   0.650   1.977  0.3930 -0.1207  0.3101
 7972SOL    HW124167   1.362   0.635   2.045  0.7927  0.3454  0.8078
 7972SOL    HW224168   1.384   0.708   1.914 -0.3608 -1.4500 -0.4274
 7973SOL     OW24169   1.261   2.169   3.783  0.1595  0.1935 -0.1026
 7973SOL    HW124170   1.251   2.077   3.762 -0.1026  0.3922 -0.8524
 7973SOL    HW224171   1.328   2.170   3.852 -0.8223 -0.6658  0.9138
 7974SOL     OW24172   1.978   0.661   1.474 -0.0995 -0.5824 -0.1172
 7974SOL    HW124173   2.000   0.662   1.381 -1.7968 -0.5041 -0.5416
 7974SOL    HW224174   1.887   0.632   1.478 -1.1526  2.4651  1.2452
 7975SOL     OW24175   1.915   0.815   2.425  0.8648  0.0382 -0.1575
 7975SOL    HW124176   1.961   0.882   2.375 -0.0527  0.0158 -1.0705
 7975SOL    HW224177   1.878   0.862   2.500  0.6217  0.4714 -0.5421
 7976SOL     OW24178   2.372   4.764   1.845 -0.1428 -0.0808 -0.6032
 7976SOL    HW124179   2.327   4.792   1.765 -0.5816  0.3202 -0.2240
 7976SOL    HW224180   2.379   4.669   1.837  0.3838  0.0103 -1.4069
 7977SOL     OW24181   2.158   4.199   0.441  0.3248  1.0318 -0.1696
 7977SOL    HW124182   2.115   4.244   0.513 -0.3743  1.0128 -0.5725
 7977SOL    HW224183   2.217   4.265   0.404  2.4503  0.3984  1.8301
 7978SOL     OW24184   0.220   2.889   2.759  0.0823  0.3225  0.4248
 7978SOL    HW124185   0.161   2.814   2.746 -0.6730  0.5902  2.1033
 7978SOL    HW224186   0.242   2.917   2.670 -1.8671 -0.1370 -0.2539
 7979SOL     OW24187   6.243   4.242   5.887 -0.7946  0.3358  0.6926
 7979SOL    HW124188   6.170   4.208   5.940  0.0594  0.4405  1.9801
 7979SOL    HW224189   6.249   4.182   5.813 -1.4679 -0.3329  1.1612
 7980SOL     OW24190   2.342   0.844   3.745 -0.3611 -0.5660  0.0053
 7980SOL    HW124191   2.291   0.922   3.767 -1.9606 -1.7612  0.8131
 7980SOL    HW224192   2.409   0.838   3.813 -0.9265 -0.4739  0.5794
 7981SOL     OW24193   0.941   2.965   3.932 -0.5089  0.1279 -0.3248
 7981SOL    HW124194   0.893   2.936   4.009 -0.6988  0.8780 -0.1514
 7981SOL    HW224195   0.981   3.048   3.958  0.6579 -0.3447 -0.5540
 7982SOL     OW24196   4.392   2.508   1.063 -0.3123  0.3386  0.4410
 7982SOL    HW124197   4.414   2.484   0.973  1.1813  1.2620  0.5272
 7982SOL    HW224198   4.431   2.594   1.075  0.0759 -0.0499  2.1792
 7983SOL     OW24199   6.027   2.662   4.910 -0.5715 -0.2790  0.1767
 7983SOL    HW124200   5.976   2.731   4.866  0.9659  1.6822  1.2864
 7983SOL    HW224201   6.114   2.701   4.922  0.3849 -2.4789  0.7981
 7984SOL     OW24202   6.229   5.272   4.525  0.3822  0.2074 -0.0918
 7984SOL    HW124203   6.276   5.335   4.470 -0.0630 -0.0198 -0.7402
 7984SOL    HW224204   6.215   5.196   4.469 -0.9348  0.3458  0.0285
 7985SOL     OW24205   3.809   2.397   0.211 -0.1884  0.1971  0.2066
 7985SOL    HW124206   3.753   2.323   0.190 -2.1003  1.6412 -0.0161
 7985SOL    HW224207   3.854   2.371   0.291 -0.0477 -1.5684 -0.3902
 7986SOL     OW24208   3.533   5.119   3.675 -0.6809 -0.6858 -0.8543
 7986SOL    HW124209   3.621   5.144   3.647  0.0414 -0.5723  1.3808
 7986SOL    HW224210   3.536   5.023   3.680 -1.0265 -0.7586 -1.7212
 7987SOL     OW24211   6.281   2.727   4.917 -0.2290 -0.4751 -0.0005
 7987SOL    HW124212   6.322   2.682   4.991 -1.0522 -0.1115  0.6873
 7987SOL    HW224213   6.324   2.812   4.914 -0.4495 -0.3535  0.2858
 7988SOL     OW24214   5.139   0.073   3.607  0.1737  0.3027 -0.3504
 7988SOL    HW124215   5.201   0.116   3.548  2.1560 -0.4151  1.0689
 7988SOL    HW224216   5.168   0.099   3.694 -2.4047  0.9923  0.3599
 7989SOL     OW24217   2.914   1.681   0.337  0.5087  0.1916  0.3345
 7989SOL    HW124218   2.913   1.586   0.341  0.0208  0.1659 -0.2838
 7989SOL    HW224219   2.823   1.706   0.321  0.8033  0.6902 -0.6778
 7990SOL     OW24220   4.462   2.508   5.051 -0.0997  0.0563 -0.0934
 7990SOL    HW124221   4.482   2.470   4.966 -2.3861 -1.8637  0.1067
 7990SOL    HW224222   4.547   2.537   5.085  1.2948 -1.6861 -1.8305
 7991SOL     OW24223   1.327   3.671   3.877 -0.3887 -0.1900 -0.2978
 7991SOL    HW124224   1.361   3.604   3.936 -0.0776  0.7908  0.6754
 7991SOL    HW224225   1.370   3.654   3.793  0.5483 -0.5346  0.2382
 7992SOL     OW24226   4.733   4.671   3.265  0.6175 -0.1301  0.1729
 7992SOL    HW124227   4.749   4.750   3.316  0.3173  0.5240 -0.7229
 7992SOL    HW224228   4.645   4.682   3.231  0.9286 -0.4040 -0.7435
 7993SOL     OW24229   5.928   1.412   0.981  0.3159 -0.1404  0.7054
 7993SOL    HW124230   5.833   1.403   0.982  0.3651 -0.8846  2.5406
 7993SOL    HW224231   5.960   1.330   1.019  1.6251  0.5657  1.1797
 7994SOL     OW24232   4.356   3.333   3.407 -0.4655 -0.3864 -0.3005
 7994SOL    HW124233   4.316   3.339   3.320  0.3124  0.7956 -0.6109
 7994SOL    HW224234   4.398   3.247   3.408  1.4675  0.4383 -2.0161
 7995SOL     OW24235   2.929   3.676   2.881  0.4581  0.0295 -0.3274
 7995SOL    HW124236   2.860   3.612   2.898  0.5518  0.1962  0.7290
 7995SOL    HW224237   3.006   3.624   2.862  0.8844 -0.2358  1.8906
 7996SOL     OW24238   4.191   3.712   6.196  0.9405 -0.0834 -0.0793
 7996SOL    HW124239   4.227   3.764   6.124 -1.1727  1.3640 -0.1844
 7996SOL    HW224240   4.118   3.764   6.229 -1.1420 -2.8320  0.0459
 7997SOL     OW24241   5.654   0.031   0.456 -0.1595  0.2005 -0.1466
 7997SOL    HW124242   5.684   0.055   0.543 -1.2803  1.2441 -0.0206
 7997SOL    HW224243   5.680  -0.061   0.446  1.0434  0.4115  0.7914
 7998SOL     OW24244   3.921   1.810   1.141  0.2029  0.3631 -0.0839
 7998SOL    HW124245   3.878   1.764   1.069 -0.1118 -0.7684  0.7960
 7998SOL    HW224246   3.970   1.881   1.099 -0.9615  0.4937 -1.2885
 7999SOL     OW24247   4.979   0.565   0.487  0.3707 -0.3071  0.1279
 7999SOL    HW124248   4.944   0.489   0.534 -1.6798  0.4312 -0.0989
 7999SOL    HW224249   4.990   0.535   0.397  0.8365 -0.6957  0.3098
 8000SOL     OW24250   1.046   1.440   0.446 -0.3296  0.5699 -0.0551
 8000SOL    HW124251   1.108   1.423   0.375 -0.5360  0.6547 -0.2570
 8000SOL    HW224252   0.961   1.442   0.403 -0.5168  0.0431  0.2817
 8001SOL     OW24253   2.485   4.253   2.631 -0.0732 -0.5548  0.0562
 8001SOL    HW124254   2.546   4.250   2.557  0.4234  0.3931  0.4093
 8001SOL    HW224255   2.526   4.314   2.693 -2.6320  2.3597 -0.8524
 8002SOL     OW24256   1.626   0.619   6.046 -0.1724  0.9014  0.3985
 8002SOL    HW124257   1.534   0.638   6.027 -0.1331  0.0429 -0.7571
 8002SOL    HW224258   1.623   0.562   6.123 -0.4616  2.7285  1.7857
 8003SOL     OW24259   4.369   3.163   4.978 -0.0794  0.6054 -0.2496
 8003SOL    HW124260   4.419   3.239   4.952  0.1997  0.2206 -0.8474
 8003SOL    HW224261   4.427   3.089   4.961 -0.8913  0.1447 -1.0688
 8004SOL     OW24262   0.689   0.786   0.523  0.1366  0.4714 -0.6409
 8004SOL    HW124263   0.641   0.703   0.526 -2.0576  1.7008  1.3390
 8004SOL    HW224264   0.734   0.791   0.607  0.3622  1.2200 -0.7980
 8005SOL     OW24265   3.349   5.875   1.833  0.0760  0.0812 -0.4374
 8005SOL    HW124266   3.383   5.802   1.886  1.3880  0.0493 -1.2907
 8005SOL    HW224267   3.269   5.841   1.794 -1.9430  0.6653  2.8476
 8006SOL     OW24268   3.549   3.408   5.781  0.3255 -0.2007  0.1616
 8006SOL    HW124269   3.484   3.340   5.760 -0.1763 -0.4202  2.1734
 8006SOL    HW224270   3.625   3.385   5.728 -0.3970 -1.3944 -0.4147
 8007SOL     OW24271   2.469   0.652   1.646 -0.2242 -0.2283 -0.3906
 8007SOL    HW124272   2.465   0.559   1.624  1.8361 -0.5931  0.5180
 8007SOL    HW224273   2.463   0.654   1.742 -1.1205  0.6665 -0.4502
 8008SOL     OW24274   1.688   3.120   4.774  0.3471 -0.1883 -0.4831
 8008SOL    HW124275   1.646   3.162   4.850  0.0626  1.0678 -1.3058
 8008SOL    HW224276   1.707   3.031   4.804  0.3860  0.3228  1.1171
 8009SOL     OW24277   1.513   6.051   1.220 -0.4575 -0.1769 -0.8870
 8009SOL    HW124278   1.516   6.145   1.200  0.0102 -0.2585 -1.2164
 8009SOL    HW224279   1.521   6.008   1.135  1.5334 -0.5256 -0.5653
 8010SOL     OW24280   5.569   2.592   3.006  0.0122 -0.4809 -0.0278
 8010SOL    HW124281   5.530   2.509   3.031 -1.7367  0.5388  0.7937
 8010SOL    HW224282   5.598   2.579   2.916 -0.5082 -1.8787 -0.0115
 8011SOL     OW24283   3.175   5.654   6.295  0.3728  0.4054  0.2857
 8011SOL    HW124284   3.150   5.743   6.272 -0.2273  0.7095  1.9127
 8011SOL    HW224285   3.253   5.664   6.349 -1.4056  0.3200  3.1264
 8012SOL     OW24286   2.178   1.605   4.398  0.6558  0.0202 -0.0161
 8012SOL    HW124287   2.186   1.686   4.449  0.5986  0.0828 -0.1067
 8012SOL    HW224288   2.269   1.581   4.379  0.7960 -1.0928  1.8212
 8013SOL     OW24289   5.275   4.740   6.207 -0.2069  0.2568  0.3060
 8013SOL    HW124290   5.195   4.688   6.209 -0.3596  0.5063  0.9425
 8013SOL    HW224291   5.344   4.679   6.230 -0.5400  0.5767  2.3884
 8014SOL     OW24292   2.843   1.338   1.665  0.2778  0.3592 -0.5787
 8014SOL    HW124293   2.823   1.331   1.571 -0.7760  2.5542 -0.5700
 8014SOL    HW224294   2.875   1.251   1.689 -2.0754 -1.0953 -2.3378
 8015SOL     OW24295   0.595   0.240   5.334  0.2596  0.3631  0.0277
 8015SOL    HW124296   0.604   0.326   5.294 -0.8365  0.3100 -0.3581
 8015SOL    HW224297   0.685   0.210   5.348  0.6491  1.5001  0.0349
 8016SOL     OW24298   3.142   2.234   3.802  0.7290 -0.1089 -0.2572
 8016SOL    HW124299   3.075   2.226   3.735  0.8465  0.2670 -0.4182
 8016SOL    HW224300   3.180   2.146   3.808 -0.5979 -0.6508  0.7001
 8017SOL     OW24301   0.412   0.095   0.053 -0.1765 -0.3435 -0.1397
 8017SOL    HW124302   0.505   0.110   0.067  0.3030 -1.5418 -1.6709
 8017SOL    HW224303   0.407   0.057  -0.035 -2.0398 -0.9628  0.1808
 8018SOL     OW24304   1.264   3.816   0.776  0.5549  1.0298  0.5915
 8018SOL    HW124305   1.242   3.731   0.736 -0.9303  1.5414  0.2522
 8018SOL    HW224306   1.326   3.855   0.715 -0.5471  1.1584 -0.5009
 8019SOL     OW24307   6.252   5.625   1.213  0.2999  0.4183  0.1572
 8019SOL    HW124308   6.190   5.673   1.267 -1.5955 -1.2169 -0.4443
 8019SOL    HW224309   6.282   5.552   1.268  2.0123  1.3822  0.5614
 8020SOL     OW24310   5.370   4.649   2.248  0.3004  0.0387 -0.4053
 8020SOL    HW124311   5.289   4.650   2.197  1.7692 -0.6469 -2.9343
 8020SOL    HW224312   5.341   4.657   2.339 -2.6024 -0.6460 -1.1575
 8021SOL     OW24313   6.156   5.996   3.472 -0.1141  0.5908 -0.0317
 8021SOL    HW124314   6.193   5.929   3.415 -1.8264 -0.8351  0.4349
 8021SOL    HW224315   6.225   6.015   3.534  1.5976  1.7604 -2.1541
 8022SOL     OW24316   6.254   6.175   4.213  0.2651  0.0682 -0.1650
 8022SOL    HW124317   6.285   6.084   4.205  0.6663 -0.0109  1.7724
 8022SOL    HW224318   6.191   6.172   4.286  0.4977  1.3839  0.1139
 8023SOL     OW24319   0.259   0.145   2.185 -0.3061 -0.2174 -0.2832
 8023SOL    HW124320   0.307   0.072   2.146  1.0629  0.5558 -0.1009
 8023SOL    HW224321   0.217   0.188   2.111  1.2458  0.4904 -0.8020
 8024SOL     OW24322   0.948   6.177   1.041 -0.1044  0.0669  0.1039
 8024SOL    HW124323   0.937   6.270   1.060 -1.5997 -0.4097  1.9399
 8024SOL    HW224324   1.042   6.164   1.034  0.0982  1.7767 -0.5702
 8025SOL     OW24325   0.570   4.024   5.739  0.2811 -0.1079  0.0807
 8025SOL    HW124326   0.607   4.090   5.797  1.6954 -0.8166  0.0338
 8025SOL    HW224327   0.611   4.041   5.654  0.4954 -0.8810  0.0138
 8026SOL     OW24328   4.207   3.362   0.696  0.3923  0.1312 -0.6581
 8026SOL    HW124329   4.207   3.393   0.787 -0.2920  1.7868 -1.1986
 8026SOL    HW224330   4.122   3.320   0.685 -0.0330  1.0450 -0.8906
 8027SOL     OW24331   3.430   2.569   3.018  0.0642 -0.0572 -0.1393
 8027SOL    HW124332   3.512   2.533   3.054 -0.3653 -0.9103  0.0162
 8027SOL    HW224333   3.440   2.560   2.924 -1.2816 -3.6494 -0.1174
 8028SOL     OW24334   2.074   5.999   3.777 -0.9432 -0.4873 -0.4788
 8028SOL    HW124335   2.035   6.086   3.782 -0.2616 -0.2331  0.9146
 8028SOL    HW224336   2.001   5.939   3.795 -1.0420 -0.0939  0.5138
 8029SOL     OW24337   1.681   3.572   3.848  0.2913  0.5268 -0.8100
 8029SOL    HW124338   1.765   3.545   3.886  0.0729 -0.7647 -1.2180
 8029SOL    HW224339   1.662   3.655   3.892 -0.2919 -1.1867  2.5452
 8030SOL     OW24340   3.281   5.972   4.270 -0.2983 -0.0425  0.3322
 8030SOL    HW124341   3.298   5.878   4.263 -0.2951 -0.1142  1.1867
 8030SOL    HW224342   3.186   5.979   4.275 -0.2553 -0.2879  3.4208
 8031SOL     OW24343   4.013   4.748   6.168  0.2704  0.1795 -0.4385
 8031SOL    HW124344   4.056   4.724   6.086 -3.3757 -0.7888 -2.2845
 8031SOL    HW224345   3.991   4.841   6.158  1.9271  0.7095  0.5559
 8032SOL     OW24346   3.282   6.343   1.145  0.0674  0.3688 -0.2751
 8032SOL    HW124347   3.246   6.286   1.213  0.5389  0.2244 -0.1442
 8032SOL    HW224348   3.205   6.375   1.098 -0.2524  0.3376  0.2179
 8033SOL     OW24349   0.121   0.036   2.748  0.0590  0.2613  0.0020
 8033SOL    HW124350   0.096  -0.050   2.782  0.8954  0.8704  2.3636
 8033SOL    HW224351   0.207   0.023   2.709  0.4561  0.1182  0.8983
 8034SOL     OW24352   3.031   1.652   0.581  0.2356 -0.0295 -0.3199
 8034SOL    HW124353   2.998   1.673   0.494  0.8527  2.4158 -0.0421
 8034SOL    HW224354   2.966   1.689   0.641  0.5237 -0.4388  0.2500
 8035SOL     OW24355   5.356   2.533   4.029  0.2837  0.5578 -0.1215
 8035SOL    HW124356   5.416   2.549   4.102  0.7559 -0.5204 -0.2523
 8035SOL    HW224357   5.335   2.620   3.996 -0.7532  1.1592  1.9256
 8036SOL     OW24358   5.328   0.410   6.316 -0.7471 -0.6465 -0.0571
 8036SOL    HW124359   5.244   0.437   6.353 -1.1159 -1.7884 -0.0375
 8036SOL    HW224360   5.343   0.472   6.244 -0.3067  1.2248  1.5619
 8037SOL     OW24361   3.336   4.701   4.995  0.1435  0.1538  0.0327
 8037SOL    HW124362   3.314   4.610   5.014  0.0680  0.4695  1.5823
 8037SOL    HW224363   3.429   4.708   5.013 -0.1260  0.6956  1.3012
 8038SOL     OW24364   5.616   3.233   0.122  0.0705 -0.3927  0.0831
 8038SOL    HW124365   5.559   3.233   0.199  1.3175 -1.6151  1.0379
 8038SOL    HW224366   5.579   3.302   0.066  0.4413  2.1889  2.7525
 8039SOL     OW24367   4.487   4.581   2.670  0.4010  0.1351  0.4493
 8039SOL    HW124368   4.573   4.551   2.639  1.7699  1.2717  2.8605
 8039SOL    HW224369   4.505   4.666   2.709 -1.8117  0.2810  1.2421
 8040SOL     OW24370   2.477   3.954   4.449 -0.2864 -0.4232 -0.0912
 8040SOL    HW124371   2.486   3.976   4.542  0.4555 -0.5319 -0.1365
 8040SOL    HW224372   2.559   3.982   4.409 -0.0592 -1.5884 -0.4837
 8041SOL     OW24373   5.742   1.465   1.954  0.4678 -0.2389  0.0695
 8041SOL    HW124374   5.652   1.495   1.942  0.8406  0.9461  0.0533
 8041SOL    HW224375   5.756   1.401   1.885 -0.5337 -0.8398  0.4182
 8042SOL     OW24376   1.907   6.250   3.490  0.0194  0.8801  1.0796
 8042SOL    HW124377   1.857   6.219   3.566 -0.4307  0.2280  0.5259
 8042SOL    HW224378   1.882   6.342   3.481 -1.8435  0.3349  0.2398
 8043SOL     OW24379   0.030   4.022   4.973 -0.1549 -0.6786 -0.4139
 8043SOL    HW124380   0.077   4.032   5.056 -0.4246  0.6656 -0.4034
 8043SOL    HW224381  -0.046   3.969   4.994 -0.6013  0.2346  0.3752
 8044SOL     OW24382   1.131   3.202   2.785  0.3101  0.1812 -0.4501
 8044SOL    HW124383   1.156   3.176   2.697  0.3188  0.3646 -0.5029
 8044SOL    HW224384   1.099   3.292   2.776  0.6648  0.3344 -0.2082
 8045SOL     OW24385   5.286   6.019   3.440 -0.0279 -0.5541 -0.2192
 8045SOL    HW124386   5.373   6.017   3.400  0.2061 -2.6039  0.2743
 8045SOL    HW224387   5.226   6.004   3.366  0.0998 -0.2001 -0.3990
 8046SOL     OW24388   1.565   1.048   0.762  0.1133 -0.0439 -0.0672
 8046SOL    HW124389   1.486   1.062   0.815  0.3006  1.6865 -0.1879
 8046SOL    HW224390   1.605   1.135   0.756  1.4546 -0.6986 -0.9166
 8047SOL     OW24391   0.456   5.944   3.918  0.6459  0.4825  0.5784
 8047SOL    HW124392   0.500   5.872   3.962 -0.1488  0.6965  1.7675
 8047SOL    HW224393   0.461   6.017   3.980  1.4433  1.4821 -0.6024
 8048SOL     OW24394   2.855   1.756   2.506  0.0202  0.2372 -0.2759
 8048SOL    HW124395   2.807   1.735   2.426 -1.3259 -0.5014  0.6966
 8048SOL    HW224396   2.794   1.809   2.557  0.4003 -0.3496  0.7999
 8049SOL     OW24397   3.974   3.439   5.718  0.1305 -0.0218  0.4618
 8049SOL    HW124398   3.902   3.392   5.676  0.4899 -1.1700  1.0873
 8049SOL    HW224399   3.931   3.495   5.782 -0.1878 -2.4205  2.5410
 8050SOL     OW24400   4.041   2.939   2.694 -0.1927  0.3032 -0.2247
 8050SOL    HW124401   4.117   2.883   2.673 -0.8575 -0.7008 -0.0255
 8050SOL    HW224402   4.059   3.021   2.649  0.6776 -0.1725 -0.7819
 8051SOL     OW24403   2.673   5.077   1.521 -0.1065  0.4839  0.1197
 8051SOL    HW124404   2.739   5.080   1.452 -0.9953 -1.5847 -0.8845
 8051SOL    HW224405   2.663   4.985   1.543 -1.6557  0.8625  1.2573
 8052SOL     OW24406   0.342   4.128   4.226 -0.0878  0.0465 -0.0223
 8052SOL    HW124407   0.385   4.172   4.300  1.2180 -0.1537 -0.6378
 8052SOL    HW224408   0.335   4.037   4.253  2.1015 -0.4198 -0.8305
 8053SOL     OW24409   2.103   2.010   0.585  0.1312  0.2752 -0.5914
 8053SOL    HW124410   2.110   2.078   0.652  2.0597  0.0621 -0.5298
 8053SOL    HW224411   2.088   2.058   0.503  4.1674  1.1207 -1.0134
 8054SOL     OW24412   5.723   4.637   3.144 -0.2715  0.2497 -0.2006
 8054SOL    HW124413   5.749   4.721   3.183 -1.2504  0.7241 -0.5316
 8054SOL    HW224414   5.741   4.648   3.050  0.2530 -0.1713 -0.1522
 8055SOL     OW24415   0.103   2.792   5.366  0.0279  0.2135 -0.2980
 8055SOL    HW124416   0.136   2.876   5.335  1.5438 -0.6017 -0.9723
 8055SOL    HW224417   0.034   2.769   5.303  0.1027  0.5990 -0.5263
 8056SOL     OW24418   3.159   5.491   1.325 -0.4916  0.3503 -0.0688
 8056SOL    HW124419   3.202   5.411   1.295 -1.2484 -0.4971  1.0144
 8056SOL    HW224420   3.127   5.533   1.245  0.7243  0.0530 -0.7229
 8057SOL     OW24421   2.870   4.731   3.137 -0.1576  0.3171 -0.1630
 8057SOL    HW124422   2.890   4.796   3.205 -0.3917 -0.2927  0.5050
 8057SOL    HW224423   2.828   4.781   3.067 -2.0381  0.6228  1.1234
 8058SOL     OW24424   4.017   3.260   4.158 -0.8916 -0.4238  0.1805
 8058SOL    HW124425   4.086   3.198   4.183  0.5033  1.8143  2.2396
 8058SOL    HW224426   4.036   3.280   4.067  0.2316 -1.0410  0.2490
 8059SOL     OW24427   3.214   6.295   2.977  0.1462  0.0855  0.3303
 8059SOL    HW124428   3.221   6.319   2.884 -0.7002 -0.1558  0.1920
 8059SOL    HW224429   3.192   6.377   3.021 -0.9890 -0.0769  0.0976
 8060SOL     OW24430   2.153   5.903   4.093  0.0904 -0.0065  0.7116
 8060SOL    HW124431   2.150   5.933   4.002 -0.7413 -1.0476  0.3821
 8060SOL    HW224432   2.159   5.808   4.086  1.0329 -0.0369  1.7474
 8061SOL     OW24433   0.676   4.706   0.320  0.1048  0.2756  0.8982
 8061SOL    HW124434   0.630   4.678   0.399 -0.2997 -1.4552  0.0765
 8061SOL    HW224435   0.631   4.662   0.248  1.7192  0.2019 -0.1221
 8062SOL     OW24436   1.207   2.475   5.170  0.3141 -0.4232  0.1273
 8062SOL    HW124437   1.267   2.544   5.199 -0.4009  0.9290 -1.4739
 8062SOL    HW224438   1.261   2.417   5.117  0.0168  1.7112 -2.7455
 8063SOL     OW24439   0.586   0.537   4.530 -0.2695  0.1820  0.3962
 8063SOL    HW124440   0.598   0.555   4.437  1.5400 -0.3174  0.5021
 8063SOL    HW224441   0.500   0.574   4.550 -0.5793  0.5357 -1.4021
 8064SOL     OW24442   1.858   3.395   1.384 -0.5337 -0.0020  0.3731
 8064SOL    HW124443   1.806   3.346   1.447  0.5323 -0.5876  0.8074
 8064SOL    HW224444   1.891   3.471   1.433 -2.4050  1.3665 -0.3625
 8065SOL     OW24445   3.226   2.661   2.554  0.7423 -0.3832 -0.2031
 8065SOL    HW124446   3.146   2.689   2.599  0.1498 -0.0622 -1.4211
 8065SOL    HW224447   3.196   2.604   2.483  1.6788 -1.0989 -0.0484
 8066SOL     OW24448   0.474   2.458   5.027  0.4556  0.1916 -0.3024
 8066SOL    HW124449   0.501   2.444   5.117  1.0056  0.8347 -0.3645
 8066SOL    HW224450   0.397   2.402   5.016  0.0913  0.4725  0.7079
 8067SOL     OW24451   0.908   3.766   3.983 -0.2313 -0.0134 -0.2980
 8067SOL    HW124452   0.815   3.781   3.999 -0.4616 -0.2591 -1.3345
 8067SOL    HW224453   0.935   3.705   4.053 -1.1476 -0.9118 -0.7084
 8068SOL     OW24454   0.732   3.975   3.754  0.1000  0.4434 -0.4004
 8068SOL    HW124455   0.807   3.916   3.759 -0.3677 -0.0400  2.0022
 8068SOL    HW224456   0.670   3.941   3.819 -2.1562  0.9185 -2.1662
 8069SOL     OW24457   5.594   5.130   1.386  0.3387  0.7970 -0.1689
 8069SOL    HW124458   5.555   5.126   1.474 -0.6543  4.0855 -0.3229
 8069SOL    HW224459   5.683   5.161   1.401  0.4581  0.4948 -0.2607
 8070SOL     OW24460   3.331   3.920   6.297 -0.2009 -0.0222 -0.3165
 8070SOL    HW124461   3.377   3.866   6.233 -0.2887  1.6228 -1.8605
 8070SOL    HW224462   3.374   3.901   6.380 -0.0662 -2.2202 -0.8289
 8071SOL     OW24463   1.755   1.827   0.233  0.2656  0.2105 -0.0628
 8071SOL    HW124464   1.713   1.904   0.193  0.6607  0.3687 -0.1720
 8071SOL    HW224465   1.828   1.806   0.175 -0.3512 -0.7806 -0.5119
 8072SOL     OW24466   1.942   4.652   0.764 -0.4233 -0.4139  0.0118
 8072SOL    HW124467   2.021   4.599   0.767 -0.7500 -0.9175 -0.1649
 8072SOL    HW224468   1.874   4.597   0.802 -0.7386 -0.0744 -0.0486
 8073SOL     OW24469   2.004   3.333   6.228  0.2536 -0.0340  0.5599
 8073SOL    HW124470   2.084   3.383   6.245  1.1354 -1.7194  1.6384
 8073SOL    HW224471   2.003   3.265   6.296 -0.7147 -1.6569 -0.9938
 8074SOL     OW24472   6.194   0.403   2.152  0.0951  0.1802  0.4529
 8074SOL    HW124473   6.172   0.432   2.240  1.1096 -0.9586  1.1220
 8074SOL    HW224474   6.205   0.308   2.161  0.4561  0.0865 -0.8490
 8075SOL     OW24475   5.014   0.441   0.831 -0.0527 -0.1748  0.2868
 8075SOL    HW124476   4.999   0.392   0.750  1.0672 -0.8956  0.4965
 8075SOL    HW224477   5.057   0.522   0.804  0.1125 -0.3127  0.1368
 8076SOL     OW24478   2.333   0.854   1.518 -0.1454  0.4379  0.2940
 8076SOL    HW124479   2.358   0.771   1.558  0.9423  0.1199 -0.9583
 8076SOL    HW224480   2.247   0.837   1.478  1.0496 -0.8525 -1.9292
 8077SOL     OW24481   2.460   5.030   2.126  0.3499 -0.0705 -0.4507
 8077SOL    HW124482   2.497   4.941   2.128  0.5984  0.0489  0.2616
 8077SOL    HW224483   2.491   5.071   2.206 -0.3637  0.4260 -0.4184
 8078SOL     OW24484   5.105   3.747   4.351 -0.7289 -0.9552 -0.0199
 8078SOL    HW124485   5.150   3.780   4.428  1.4524 -0.9949 -1.1929
 8078SOL    HW224486   5.134   3.804   4.280  0.2568 -3.1109 -1.4478
 8079SOL     OW24487   2.936   3.180   2.775  0.2652 -0.6071  0.2082
 8079SOL    HW124488   2.977   3.109   2.824  0.2306 -0.4807  0.4187
 8079SOL    HW224489   2.960   3.260   2.822 -0.0229 -0.5116  0.1972
 8080SOL     OW24490   2.319   5.455   1.612 -0.0740 -0.0038  0.6036
 8080SOL    HW124491   2.249   5.520   1.603  0.0856  0.4352  2.2936
 8080SOL    HW224492   2.361   5.453   1.525 -1.0556  1.0114  0.0846
 8081SOL     OW24493   1.440   3.980   0.615  0.2419 -0.4177 -0.0899
 8081SOL    HW124494   1.362   3.982   0.560 -0.6235  0.5769  1.1160
 8081SOL    HW224495   1.501   4.040   0.572  0.0368 -0.5555 -0.5895
 8082SOL     OW24496   2.318   6.283   4.565 -0.1261  0.4721  0.3328
 8082SOL    HW124497   2.257   6.275   4.638 -1.3899  0.4738 -0.6929
 8082SOL    HW224498   2.402   6.253   4.601 -0.9770 -0.7120  1.4352
 8083SOL     OW24499   1.420   6.295   4.284 -0.1780 -0.0085 -0.0155
 8083SOL    HW124500   1.424   6.212   4.237 -0.9378 -0.1578  0.1756
 8083SOL    HW224501   1.448   6.360   4.219  0.8891 -0.4510 -0.0241
 8084SOL     OW24502   2.180   2.044   2.252  0.0477 -0.0405  0.5738
 8084SOL    HW124503   2.219   2.129   2.233  1.7180 -1.0070 -0.5794
 8084SOL    HW224504   2.245   2.000   2.308 -0.0229 -1.1295 -0.1604
 8085SOL     OW24505   6.166   3.934   4.411  0.2169  0.5457  0.1925
 8085SOL    HW124506   6.142   3.901   4.498  1.1625 -3.0044 -0.7061
 8085SOL    HW224507   6.234   3.999   4.428  0.1003  0.2434  2.1169
 8086SOL     OW24508   3.461   2.685   4.462  0.4916  0.1088 -0.2122
 8086SOL    HW124509   3.526   2.709   4.527  1.3095  0.5405 -1.1542
 8086SOL    HW224510   3.405   2.763   4.455 -1.0417 -0.7468  1.6022
 8087SOL     OW24511   4.811   3.335   3.187 -0.8095  0.1188 -0.4561
 8087SOL    HW124512   4.761   3.259   3.218 -1.1109  0.4430 -0.1450
 8087SOL    HW224513   4.829   3.386   3.266  0.6235 -0.3410 -0.4458
 8088SOL     OW24514   5.674   1.816   1.197 -0.0903  0.1344 -0.8838
 8088SOL    HW124515   5.600   1.804   1.138  0.0519 -2.2550 -0.6659
 8088SOL    HW224516   5.643   1.881   1.261 -1.7479 -0.3207 -1.1823
 8089SOL     OW24517   1.736   2.816   5.325  0.3904  0.0529 -0.1882
 8089SOL    HW124518   1.676   2.887   5.301 -0.8256 -1.2502 -1.1068
 8089SOL    HW224519   1.725   2.808   5.420  1.1375  1.5828  0.0682
 8090SOL     OW24520   2.339   4.650   0.756 -0.0779 -0.2230 -0.1423
 8090SOL    HW124521   2.306   4.640   0.846 -0.4402  1.3673 -0.0837
 8090SOL    HW224522   2.432   4.629   0.763 -0.1797 -0.4850  0.5301
 8091SOL     OW24523   4.652   0.056   5.607 -0.3592  0.4643 -0.1585
 8091SOL    HW124524   4.725   0.109   5.637 -0.1116  0.2990 -0.4705
 8091SOL    HW224525   4.587   0.063   5.677  0.8035 -1.1598  1.1825
 8092SOL     OW24526   1.420   1.922   1.752 -0.0552 -0.2258 -0.0677
 8092SOL    HW124527   1.440   1.990   1.817  1.5211  1.0277 -1.7419
 8092SOL    HW224528   1.392   1.971   1.675  3.7480 -1.1362 -2.2807
 8093SOL     OW24529   4.900   3.614   1.297  0.4121 -0.3491  0.4924
 8093SOL    HW124530   4.821   3.588   1.248 -0.8568  1.8350  1.1973
 8093SOL    HW224531   4.971   3.608   1.233 -0.6770 -0.5141 -0.7554
 8094SOL     OW24532   0.150   2.518   5.882 -0.1366  0.4699  0.6342
 8094SOL    HW124533   0.069   2.496   5.836  1.0777 -2.8895 -0.1685
 8094SOL    HW224534   0.142   2.472   5.966  1.3776 -0.9187  0.0568
 8095SOL     OW24535   2.737   4.602   4.527 -0.1115 -0.8382 -0.0141
 8095SOL    HW124536   2.744   4.609   4.622  0.8688 -1.7084 -0.0011
 8095SOL    HW224537   2.793   4.527   4.505 -0.8756 -1.0758 -1.2012
 8096SOL     OW24538   3.063   5.986   5.204  0.0713  0.7332  0.3239
 8096SOL    HW124539   3.134   6.020   5.259 -2.5810  3.0407  2.6717
 8096SOL    HW224540   3.034   6.062   5.153 -1.1103  0.0261 -0.0915
 8097SOL     OW24541   3.882   6.185   1.427 -0.0835 -0.5155 -0.2201
 8097SOL    HW124542   3.831   6.167   1.348  0.4738 -0.6432 -0.5559
 8097SOL    HW224543   3.819   6.225   1.487 -0.5409 -0.5198 -0.6854
 8098SOL     OW24544   1.907   3.776   2.301  0.4892 -1.0412  0.1216
 8098SOL    HW124545   1.890   3.715   2.228  0.4074 -0.1036 -0.6585
 8098SOL    HW224546   1.956   3.848   2.261  0.7692 -0.6915  1.0802
 8099SOL     OW24547   4.177   1.476   3.930 -0.1206 -0.0246 -0.3471
 8099SOL    HW124548   4.242   1.439   3.871 -0.3490 -0.3754 -0.3790
 8099SOL    HW224549   4.223   1.549   3.973  0.4528 -0.5807  0.0046
 8100SOL     OW24550   6.170   5.638   0.604  0.2456 -0.5435 -0.7413
 8100SOL    HW124551   6.251   5.592   0.583  1.4246  0.1325  1.9636
 8100SOL    HW224552   6.124   5.579   0.664  0.8269  0.8513  1.1566
 8101SOL     OW24553   3.602   6.176   1.857  0.0871  0.2646  0.1976
 8101SOL    HW124554   3.575   6.248   1.800  0.2162 -0.0134 -0.2220
 8101SOL    HW224555   3.619   6.103   1.797  1.8183  0.4401  0.4371
 8102SOL     OW24556   0.475   3.022   2.807  0.2611  0.0298 -0.2588
 8102SOL    HW124557   0.539   3.003   2.876 -0.3839 -0.7539  0.1408
 8102SOL    HW224558   0.493   2.958   2.738  1.2158  1.1168 -1.0573
 8103SOL     OW24559   3.479   0.788   3.101  0.0018  0.2357 -0.5561
 8103SOL    HW124560   3.513   0.863   3.149  0.2002 -0.6540  0.7502
 8103SOL    HW224561   3.470   0.819   3.011  2.7177  1.0009 -0.6434
 8104SOL     OW24562   3.177   3.685   5.372 -0.3464 -0.1095  0.4859
 8104SOL    HW124563   3.141   3.632   5.443 -1.8296 -0.4240 -0.4547
 8104SOL    HW224564   3.178   3.627   5.296  1.2184  0.2172  0.2286
 8105SOL     OW24565   5.740   2.243   4.171 -0.0092 -0.1786 -0.1158
 8105SOL    HW124566   5.734   2.151   4.145 -0.7600 -0.2196  0.1782
 8105SOL    HW224567   5.671   2.286   4.120 -0.1950  0.0773  0.3501
 8106SOL     OW24568   2.641   1.874   3.829  0.2832  0.2272 -0.4564
 8106SOL    HW124569   2.718   1.922   3.860 -0.4859  2.1574 -1.3640
 8106SOL    HW224570   2.641   1.886   3.734 -0.7580 -0.3434 -0.5486
 8107SOL     OW24571   3.782   1.429   4.895 -0.1009 -0.7028 -0.4855
 8107SOL    HW124572   3.786   1.522   4.914  1.0539 -0.8679  0.1954
 8107SOL    HW224573   3.781   1.423   4.800  1.7945 -0.0204 -0.5815
 8108SOL     OW24574   3.718   3.975   1.946 -0.8496  0.1274 -0.1080
 8108SOL    HW124575   3.791   4.006   1.893  0.4401 -1.5974  0.5633
 8108SOL    HW224576   3.741   3.999   2.036 -0.3960 -1.6169  0.2732
 8109SOL     OW24577   4.621   5.684   2.771 -0.8144 -0.6953  0.0853
 8109SOL    HW124578   4.557   5.720   2.709  0.2117 -1.4726 -1.4827
 8109SOL    HW224579   4.642   5.598   2.736  2.9031  0.4416 -0.9202
 8110SOL     OW24580   6.117   1.093   1.361  0.2299  0.0218  0.1612
 8110SOL    HW124581   6.066   1.173   1.360  0.0758 -0.0757 -1.4122
 8110SOL    HW224582   6.095   1.048   1.280  0.9660 -1.2088  0.5994
 8111SOL     OW24583   0.341   1.039   1.336 -0.1564  0.0933 -0.0887
 8111SOL    HW124584   0.302   1.017   1.421 -0.2403  1.9086  0.3893
 8111SOL    HW224585   0.267   1.036   1.275 -0.5131  0.7932  0.2991
 8112SOL     OW24586   1.860   3.666   6.126 -0.1111  0.5051 -0.2162
 8112SOL    HW124587   1.950   3.666   6.161 -0.1388 -1.4470 -0.0714
 8112SOL    HW224588   1.836   3.759   6.124  1.4849  0.9881  0.8389
 8113SOL     OW24589   0.751   3.514   1.457  0.0920  0.2820  0.0373
 8113SOL    HW124590   0.821   3.557   1.407  0.7034 -0.9936 -0.2682
 8113SOL    HW224591   0.792   3.492   1.541 -0.5464  1.2750  0.6179
 8114SOL     OW24592   5.939   0.216   1.426 -0.8712  0.7139 -0.2521
 8114SOL    HW124593   5.987   0.135   1.409 -0.0696  1.2449 -0.5617
 8114SOL    HW224594   5.866   0.215   1.363 -0.9156  0.2010 -0.1955
 8115SOL     OW24595   1.863   3.146   3.640 -0.2931 -0.0937 -0.3167
 8115SOL    HW124596   1.845   3.058   3.608 -0.4259  0.2083 -1.1008
 8115SOL    HW224597   1.783   3.171   3.686  0.1699 -0.8116  0.9333
 8116SOL     OW24598   3.362   3.547   4.548  0.2063 -0.5555  0.0241
 8116SOL    HW124599   3.273   3.517   4.568  0.4013 -0.4479  1.1237
 8116SOL    HW224600   3.358   3.575   4.456 -0.7571 -1.0416 -0.0949
 8117SOL     OW24601   4.980   4.314   1.668 -0.0245 -0.3664 -0.1409
 8117SOL    HW124602   4.963   4.408   1.662  1.8085 -0.0433 -0.6430
 8117SOL    HW224603   5.051   4.298   1.606 -1.5746 -2.4516 -1.5194
 8118SOL     OW24604   1.367   5.159   4.065  0.2356  0.0125 -0.4789
 8118SOL    HW124605   1.405   5.077   4.031 -0.0334  0.1268 -1.0707
 8118SOL    HW224606   1.276   5.156   4.038 -0.6771 -1.0464  2.3521
 8119SOL     OW24607   0.918   0.182   1.637 -0.0067  0.4548  0.2837
 8119SOL    HW124608   0.932   0.230   1.556  0.0066 -0.2415 -0.1389
 8119SOL    HW224609   0.830   0.145   1.628  0.3865 -0.4651  0.1381
 8120SOL     OW24610   3.013   6.003   4.243  0.0950 -0.6863  0.1944
 8120SOL    HW124611   2.987   5.927   4.190  1.1559  0.4587 -2.1028
 8120SOL    HW224612   2.966   6.077   4.204  0.1453  0.0636  1.5108
 8121SOL     OW24613   5.160   5.509   5.937  0.1139  0.5353 -0.5725
 8121SOL    HW124614   5.249   5.475   5.934 -0.4385 -0.9200 -1.5251
 8121SOL    HW224615   5.138   5.527   5.846 -1.1510 -0.7426 -0.5429
 8122SOL     OW24616   6.005   0.905   2.087 -0.1105 -0.0153 -0.6536
 8122SOL    HW124617   6.063   0.830   2.097 -0.9891 -0.6928 -0.5472
 8122SOL    HW224618   6.017   0.956   2.168  2.2812  1.2756 -1.7303
 8123SOL     OW24619   4.465   1.228   3.380 -0.0222  0.0783 -0.2963
 8123SOL    HW124620   4.473   1.208   3.474 -1.4004 -3.4752 -0.7737
 8123SOL    HW224621   4.435   1.319   3.378 -0.7665  0.0280  2.7395
 8124SOL     OW24622   5.209   1.589   6.188 -0.0137  0.3845  0.2141
 8124SOL    HW124623   5.191   1.665   6.243 -0.8114 -0.7657  1.5963
 8124SOL    HW224624   5.152   1.601   6.112 -1.9909 -0.0239  1.5654
 8125SOL     OW24625   4.820   2.703   0.903  1.0982 -0.3049 -0.0508
 8125SOL    HW124626   4.881   2.661   0.963  1.7904 -0.8475 -1.0975
 8125SOL    HW224627   4.814   2.793   0.934  0.6212 -0.8206  1.4445
 8126SOL     OW24628   4.917   1.632   5.462 -0.3093  0.5050  0.3183
 8126SOL    HW124629   4.822   1.630   5.463 -0.3722  0.1547 -1.8850
 8126SOL    HW224630   4.939   1.726   5.455 -0.5079  0.5479  0.2783
 8127SOL     OW24631   1.797   6.003   1.941 -0.0447 -0.5039  0.6524
 8127SOL    HW124632   1.853   5.974   1.870 -0.7394 -1.2596  0.3949
 8127SOL    HW224633   1.856   6.016   2.015  0.6994  0.3760 -0.0661
 8128SOL     OW24634   3.433   0.967   5.051 -0.0164 -0.5235  0.1509
 8128SOL    HW124635   3.493   0.973   5.125 -0.6840  2.2969  0.5803
 8128SOL    HW224636   3.349   0.943   5.089 -0.3726  0.9807  0.3888
 8129SOL     OW24637   4.190   3.680   0.398 -0.3162 -0.1934  0.8144
 8129SOL    HW124638   4.164   3.767   0.366  0.1287 -0.4170 -0.2012
 8129SOL    HW224639   4.167   3.621   0.327 -1.7465 -1.1058  1.9854
 8130SOL     OW24640   6.138   3.838   4.698 -0.2638 -0.4553  0.9039
 8130SOL    HW124641   6.222   3.822   4.742  0.3001  0.9856  0.4020
 8130SOL    HW224642   6.110   3.751   4.670  2.1691 -0.7724 -0.8726
 8131SOL     OW24643   0.335   1.378   5.181 -0.3454  0.2260  0.2613
 8131SOL    HW124644   0.293   1.417   5.257 -4.4368 -2.3548 -0.3297
 8131SOL    HW224645   0.262   1.358   5.121  1.3000 -5.9266 -0.4353
 8132SOL     OW24646   4.393   2.678   3.109  0.1156 -0.6510  0.4519
 8132SOL    HW124647   4.475   2.726   3.120 -1.0796  1.3514  1.1584
 8132SOL    HW224648   4.343   2.696   3.188 -0.4156 -3.1520  0.7610
 8133SOL     OW24649   1.575   1.725   1.947 -0.2659 -0.1549  0.2484
 8133SOL    HW124650   1.558   1.818   1.932 -0.6773 -0.2507  0.1185
 8133SOL    HW224651   1.611   1.693   1.864  0.8697  0.1113  0.6104
 8134SOL     OW24652   2.341   2.832   5.787 -0.0992  0.4922  0.0416
 8134SOL    HW124653   2.366   2.742   5.764 -2.1340 -0.7527  2.2659
 8134SOL    HW224654   2.329   2.875   5.702  1.2652 -1.2158 -1.0898
 8135SOL     OW24655   0.311   2.816   0.082 -0.9622  0.0043 -0.0458
 8135SOL    HW124656   0.356   2.794  -0.000 -1.0882 -0.5836  0.0355
 8135SOL    HW224657   0.245   2.748   0.092 -1.2611  0.3422  0.3080
 8136SOL     OW24658   4.533   5.327   2.378  0.0634  0.5128  0.0273
 8136SOL    HW124659   4.468   5.258   2.382  1.1431 -0.5691 -0.3971
 8136SOL    HW224660   4.487   5.403   2.343 -0.7886 -0.4268 -0.9406
 8137SOL     OW24661   0.525   6.102   5.094  0.2750  0.1753  0.3936
 8137SOL    HW124662   0.433   6.122   5.077 -0.4323 -1.3529  2.0861
 8137SOL    HW224663   0.540   6.134   5.182  1.1660 -0.2150  0.3895
 8138SOL     OW24664   4.969   3.259   1.226  0.2407 -0.1413 -0.0046
 8138SOL    HW124665   5.027   3.334   1.227  1.1725 -0.8283  1.7041
 8138SOL    HW224666   5.025   3.185   1.203 -0.6428 -0.3708 -1.5824
 8139SOL     OW24667   5.346   5.391   3.579  0.4240 -0.7021  0.1819
 8139SOL    HW124668   5.257   5.403   3.611  0.2342 -0.6549 -0.3573
 8139SOL    HW224669   5.369   5.475   3.540  0.7104 -0.7096  0.3292
 8140SOL     OW24670   6.138   5.512   1.900 -0.1468  0.8489  0.5488
 8140SOL    HW124671   6.067   5.570   1.874  0.0169  1.1385  0.7443
 8140SOL    HW224672   6.150   5.453   1.825  0.0857  1.4468  0.1033
 8141SOL     OW24673   5.856   0.633   2.445  0.2520  0.5524 -0.1745
 8141SOL    HW124674   5.914   0.559   2.465  0.0288  0.1063 -1.1107
 8141SOL    HW224675   5.830   0.667   2.531  0.9603  0.0209  0.2639
 8142SOL     OW24676   4.437   6.037   0.394 -0.2976 -0.0531  0.3175
 8142SOL    HW124677   4.402   5.970   0.453 -0.1252 -2.3914 -2.0285
 8142SOL    HW224678   4.526   6.051   0.424 -0.5170 -0.4777  1.1992
 8143SOL     OW24679   6.186   1.553   0.950 -0.1484  0.2246  0.4183
 8143SOL    HW124680   6.104   1.536   0.998 -1.3258 -0.0741 -1.5783
 8143SOL    HW224681   6.158   1.601   0.872  1.4915 -0.5479 -0.6955
 8144SOL     OW24682   0.827   6.133   2.260 -0.5435  0.1912  0.2748
 8144SOL    HW124683   0.876   6.063   2.302 -0.3073  0.6469  0.7836
 8144SOL    HW224684   0.893   6.182   2.211 -0.9084 -0.6803 -1.1426
 8145SOL     OW24685   4.057   5.132   1.876 -0.5295 -0.0631  0.0219
 8145SOL    HW124686   4.096   5.168   1.797 -0.4481  0.6491  0.3845
 8145SOL    HW224687   3.963   5.151   1.867 -0.4765  0.3108  0.2486
 8146SOL     OW24688   0.133   4.581   0.037  0.0197  0.0983 -0.0125
 8146SOL    HW124689   0.128   4.493   0.001 -2.3302 -0.2498  0.9734
 8146SOL    HW224690   0.046   4.618   0.022  0.4780  1.6747  0.9780
 8147SOL     OW24691   4.012   0.313   5.274  0.0769  0.2480  0.3528
 8147SOL    HW124692   4.010   0.234   5.221 -0.9642  0.2946  0.3000
 8147SOL    HW224693   4.082   0.366   5.235 -0.8271  0.3872 -1.1565
 8148SOL     OW24694   5.369   6.286   1.697  0.0335 -0.2130  0.1391
 8148SOL    HW124695   5.378   6.323   1.610 -1.9251  0.4751  0.1623
 8148SOL    HW224696   5.458   6.271   1.727  0.7459 -0.3852 -1.9338
 8149SOL     OW24697   2.571   5.968   0.027  0.4123  0.1216 -0.0188
 8149SOL    HW124698   2.537   6.038   0.083  0.6295  0.0852  0.1563
 8149SOL    HW224699   2.647   6.007  -0.017 -0.3211  0.4701 -1.0275
 8150SOL     OW24700   5.735   2.138   4.483 -0.4579 -0.3239 -0.4432
 8150SOL    HW124701   5.742   2.156   4.389  1.9681 -0.1906 -0.3006
 8150SOL    HW224702   5.654   2.089   4.492 -2.0190  1.7144 -2.2504
 8151SOL     OW24703   2.457   3.033   2.942 -0.0149  0.3480 -0.4450
 8151SOL    HW124704   2.456   3.128   2.933 -0.0448  0.4841  0.7834
 8151SOL    HW224705   2.550   3.011   2.951 -0.0648  0.9324  4.6759
 8152SOL     OW24706   3.896   5.290   5.227  0.2476  0.3275 -0.1595
 8152SOL    HW124707   3.880   5.385   5.223  1.6852  0.7273  1.9952
 8152SOL    HW224708   3.810   5.253   5.245  0.2662  1.7513  3.8771
 8153SOL     OW24709   2.485   6.011   0.403  0.2248  0.4241  0.0346
 8153SOL    HW124710   2.559   5.949   0.407  1.2026  1.6066  1.5697
 8153SOL    HW224711   2.418   5.971   0.459  0.2987  0.0799 -0.1186
 8154SOL     OW24712   4.536   4.445   1.579  0.3935 -0.5364 -0.5471
 8154SOL    HW124713   4.599   4.398   1.525 -0.7405 -0.9240 -1.5772
 8154SOL    HW224714   4.524   4.529   1.535  0.2185 -0.4507 -0.3393
 8155SOL     OW24715   5.666   1.051   1.275  0.4996  0.2668 -0.3160
 8155SOL    HW124716   5.599   0.986   1.255  1.1593 -0.4283 -0.3284
 8155SOL    HW224717   5.705   1.021   1.358  0.2609  1.0968  0.0982
 8156SOL     OW24718   4.470   0.222   1.092  0.9863  0.5598  0.1236
 8156SOL    HW124719   4.479   0.226   1.187  0.2284  1.1630  0.1780
 8156SOL    HW224720   4.376   0.229   1.076  1.0807  0.1805 -0.6630
 8157SOL     OW24721   0.678   0.371   5.063 -0.1268 -0.1922  0.2399
 8157SOL    HW124722   0.673   0.380   4.968  0.7963  0.3587  0.2298
 8157SOL    HW224723   0.764   0.331   5.079 -0.5590 -0.9172  0.8119
 8158SOL     OW24724   3.917   5.202   3.022  0.0603  0.4195 -1.0622
 8158SOL    HW124725   3.944   5.277   2.968  1.2872 -0.5672 -1.8635
 8158SOL    HW224726   3.844   5.163   2.973  0.4000  0.2211 -1.4166
 8159SOL     OW24727   0.519   4.889   5.895  0.2192 -0.0419  0.0976
 8159SOL    HW124728   0.601   4.851   5.927 -0.2804 -1.0168  0.2409
 8159SOL    HW224729   0.546   4.939   5.817  1.2537  1.3865  1.3078
 8160SOL     OW24730   2.181   3.466   1.734  0.3417 -0.3711  0.3867
 8160SOL    HW124731   2.105   3.415   1.761 -0.3861  0.5105  0.0860
 8160SOL    HW224732   2.145   3.552   1.713  1.4957  0.2002  0.6682
 8161SOL     OW24733   0.378   3.802   3.293 -0.6481 -0.1491 -0.0904
 8161SOL    HW124734   0.321   3.793   3.369  0.4834  0.7178  0.8896
 8161SOL    HW224735   0.408   3.893   3.295 -0.6617 -0.0708 -1.6362
 8162SOL     OW24736   1.616   5.215   2.845 -0.4353  0.3254  0.0652
 8162SOL    HW124737   1.524   5.194   2.856 -0.7683  2.2057  1.3123
 8162SOL    HW224738   1.621   5.259   2.760 -0.8254  0.8222  0.2933
 8163SOL     OW24739   5.392   6.335   3.309 -0.0422  0.0888  0.1496
 8163SOL    HW124740   5.455   6.400   3.341  1.4195 -1.4693  0.5758
 8163SOL    HW224741   5.438   6.251   3.317 -2.1365 -1.1021  0.3189
 8164SOL     OW24742   3.816   1.372   0.776  0.5149 -0.3833 -0.0470
 8164SOL    HW124743   3.785   1.442   0.719  1.5607 -0.0982 -0.2797
 8164SOL    HW224744   3.907   1.394   0.795  0.1407 -0.3556  1.9302
 8165SOL     OW24745   5.326   5.518   0.462 -0.6834  0.3032 -0.3192
 8165SOL    HW124746   5.389   5.448   0.441 -0.1957  0.8977 -0.8817
 8165SOL    HW224747   5.289   5.492   0.547  1.4545  0.6884  0.8081
 8166SOL     OW24748   5.200   6.222   5.530  0.2863  0.7086  0.5053
 8166SOL    HW124749   5.190   6.176   5.446  0.0681 -0.9948  1.4212
 8166SOL    HW224750   5.285   6.194   5.563  0.4402  1.4983  0.7972
 8167SOL     OW24751   5.677   4.093   5.679 -0.2386 -0.2673  0.2713
 8167SOL    HW124752   5.709   4.010   5.715  0.2552 -0.3351 -0.3226
 8167SOL    HW224753   5.746   4.156   5.699 -0.9601  0.1873  1.4297
 8168SOL     OW24754   4.476   1.695   0.837  0.9643  0.1751  0.4872
 8168SOL    HW124755   4.539   1.756   0.876  1.9491 -0.4131 -0.1483
 8168SOL    HW224756   4.490   1.704   0.743 -0.6860  0.8409  0.2689
 8169SOL     OW24757   3.212   3.935   0.952 -0.2918  0.0826 -0.2790
 8169SOL    HW124758   3.231   3.896   1.037  1.7993 -1.8242 -1.4820
 8169SOL    HW224759   3.259   4.018   0.952 -1.4475  0.7631  0.8785
 8170SOL     OW24760   3.818   5.507   3.714 -0.1802 -0.5476  0.2640
 8170SOL    HW124761   3.748   5.534   3.774 -0.0734  2.5562 -0.8163
 8170SOL    HW224762   3.886   5.472   3.771 -0.5601  1.1774  1.9029
 8171SOL     OW24763   4.674   0.978   2.926  0.0572  0.6249  0.1805
 8171SOL    HW124764   4.656   1.065   2.961 -0.7972  0.6635 -0.3196
 8171SOL    HW224765   4.650   0.985   2.833 -0.0442 -0.1469  0.1470
 8172SOL     OW24766   4.965   4.898   2.095 -0.0218  0.0040 -0.3133
 8172SOL    HW124767   4.977   4.871   2.186  1.6056 -0.8316 -0.7308
 8172SOL    HW224768   4.894   4.961   2.098 -0.2804 -0.3125  1.4811
 8173SOL     OW24769   4.251   6.205   0.462 -0.2959 -0.4939  0.2177
 8173SOL    HW124770   4.183   6.142   0.486  0.4522 -0.4998  2.5209
 8173SOL    HW224771   4.326   6.152   0.436 -0.5490 -0.5073 -0.4969
 8174SOL     OW24772   0.093   0.793   1.185  0.2510 -0.2522 -0.0068
 8174SOL    HW124773   0.074   0.724   1.121 -0.3002  0.4398 -0.5966
 8174SOL    HW224774   0.185   0.780   1.207  0.0121 -1.5178  0.3093
 8175SOL     OW24775   1.082   0.638   5.225  0.3942 -0.5492  0.1816
 8175SOL    HW124776   1.149   0.668   5.286  2.0088 -0.4036 -1.5518
 8175SOL    HW224777   1.115   0.553   5.193  0.2229 -0.0810 -1.3290
 8176SOL     OW24778   5.509   4.903   3.381  0.0355 -0.8147 -0.0535
 8176SOL    HW124779   5.490   4.921   3.473  3.6602  2.4361  0.3303
 8176SOL    HW224780   5.459   4.969   3.333  0.0775 -0.8675 -0.1683
 8177SOL     OW24781   2.635   1.481   1.970 -0.0915  0.1156 -0.3478
 8177SOL    HW124782   2.702   1.515   2.030 -0.7643  0.8912 -0.0192
 8177SOL    HW224783   2.669   1.500   1.883  0.7578 -0.7475 -0.2295
 8178SOL     OW24784   1.415   0.447   1.235 -0.6035  0.2138 -0.2447
 8178SOL    HW124785   1.363   0.386   1.287 -0.7380 -0.8043 -1.5326
 8178SOL    HW224786   1.492   0.398   1.209 -0.1780  0.9402 -0.4012
 8179SOL     OW24787   3.077   2.127   3.051  0.4310  0.1789 -0.3402
 8179SOL    HW124788   3.126   2.193   3.099 -1.0703  1.6849 -0.7920
 8179SOL    HW224789   3.141   2.058   3.032  1.9706  1.3694  0.3812
 8180SOL     OW24790   3.102   4.754   1.857  0.0819 -0.6696  0.1034
 8180SOL    HW124791   3.122   4.846   1.839 -0.1795 -0.5232  0.5402
 8180SOL    HW224792   3.149   4.705   1.790  2.0917 -0.3723  1.2281
 8181SOL     OW24793   1.230   5.791   5.018  0.2357  0.1542  0.3966
 8181SOL    HW124794   1.253   5.745   4.937  0.1467  1.7117 -0.5440
 8181SOL    HW224795   1.135   5.781   5.024  0.0661  1.1369 -0.4112
 8182SOL     OW24796   2.194   1.044   1.887  0.2937  0.2804 -0.0254
 8182SOL    HW124797   2.221   0.978   1.951  0.7895 -0.8359 -1.3393
 8182SOL    HW224798   2.257   1.115   1.898 -0.5380  0.8122  1.7422
 8183SOL     OW24799   4.108   5.176   2.132 -0.0559  0.5292  0.1684
 8183SOL    HW124800   4.108   5.138   2.044  0.5182  0.8361  0.0311
 8183SOL    HW224801   4.102   5.270   2.117 -0.6237  0.5412  0.4813
 8184SOL     OW24802   3.115   5.704   5.705  0.3636  0.3991  0.6293
 8184SOL    HW124803   3.062   5.624   5.713  1.8598 -0.6475  0.5168
 8184SOL    HW224804   3.052   5.775   5.716 -1.3643 -0.7405 -1.1106
 8185SOL     OW24805   0.689   0.818   4.038 -0.1359 -0.0697 -0.1895
 8185SOL    HW124806   0.627   0.889   4.052  0.9872  1.3547 -1.9051
 8185SOL    HW224807   0.774   0.862   4.026  0.3441 -1.5115 -2.9010
 8186SOL     OW24808   0.963   5.496   5.912 -0.4834  0.1113 -0.1775
 8186SOL    HW124809   0.891   5.491   5.975 -0.8353  1.0548 -0.4852
 8186SOL    HW224810   1.017   5.419   5.931 -0.6367  0.3185  1.1900
 8187SOL     OW24811   2.726   6.119   2.218  0.0955  0.4588 -0.0317
 8187SOL    HW124812   2.678   6.139   2.137 -0.1019 -1.6240 -0.4681
 8187SOL    HW224813   2.752   6.205   2.251 -1.2628  1.4691 -1.4134
 8188SOL     OW24814   1.579   1.115   4.903  0.0449 -0.6320 -0.4099
 8188SOL    HW124815   1.604   1.206   4.916 -0.1152 -0.6029 -0.3082
 8188SOL    HW224816   1.606   1.095   4.813 -0.7835 -0.2035 -0.7540
 8189SOL     OW24817   3.854   2.297   4.662 -0.8226  0.3911 -0.2708
 8189SOL    HW124818   3.885   2.323   4.575 -2.3430  0.3607 -0.8538
 8189SOL    HW224819   3.906   2.220   4.684  0.6320  1.2818 -0.4779
 8190SOL     OW24820   1.656   1.872   4.206  0.3961  0.1670  0.0665
 8190SOL    HW124821   1.587   1.816   4.243 -0.4911 -0.6166 -2.6024
 8190SOL    HW224822   1.609   1.941   4.160  1.2844 -0.9136 -2.6301
 8191SOL     OW24823   4.155   1.355   0.521 -0.6310 -0.1352  0.2395
 8191SOL    HW124824   4.084   1.382   0.462 -1.4522 -2.0676  0.2758
 8191SOL    HW224825   4.130   1.391   0.606 -0.8722  0.3284 -0.0234
 8192SOL     OW24826   1.596   3.496   0.014  0.0362 -0.7187 -0.0385
 8192SOL    HW124827   1.619   3.468  -0.074 -1.1611 -0.1794 -0.5471
 8192SOL    HW224828   1.551   3.580   0.002  0.1822 -0.4606  1.1160
 8193SOL     OW24829   2.227   5.587   5.948 -0.3757  0.0157  0.0524
 8193SOL    HW124830   2.203   5.527   6.017  0.2473 -1.8450 -1.2665
 8193SOL    HW224831   2.303   5.635   5.983 -0.5952 -0.2842  0.9580
 8194SOL     OW24832   3.878   0.893   3.212  0.2405  0.6206 -0.9753
 8194SOL    HW124833   3.851   0.835   3.141 -0.6327 -0.5480  0.2386
 8194SOL    HW224834   3.952   0.941   3.177  0.1731 -0.2999 -2.4892
 8195SOL     OW24835   2.814   3.066   4.032 -0.0026 -0.1083 -0.0531
 8195SOL    HW124836   2.763   3.137   4.073  0.0739  1.0747 -1.8961
 8195SOL    HW224837   2.898   3.070   4.077  0.6911  2.3278 -1.3797
 8196SOL     OW24838   2.137   2.597   0.259  0.2488  0.3121  0.6149
 8196SOL    HW124839   2.077   2.668   0.234  0.6258  0.4831  0.1720
 8196SOL    HW224840   2.133   2.595   0.355 -0.6855  0.1216  0.5762
 8197SOL     OW24841   3.352   1.830   1.819 -0.5023 -0.1005 -0.2645
 8197SOL    HW124842   3.366   1.751   1.766 -0.4755  0.8575 -1.7431
 8197SOL    HW224843   3.432   1.838   1.870 -0.7316 -1.3316  0.3320
 8198SOL     OW24844   4.440   1.938   0.170 -0.5379  0.4662 -0.2862
 8198SOL    HW124845   4.478   1.850   0.164 -0.5563  0.4634 -0.3672
 8198SOL    HW224846   4.500   1.993   0.118 -0.3018  0.5767  0.0917
 8199SOL     OW24847   3.978   4.656   1.636 -0.1897  0.2450  0.0987
 8199SOL    HW124848   3.936   4.621   1.715 -0.8874 -1.1499 -0.8392
 8199SOL    HW224849   3.980   4.582   1.575  4.4615 -0.1380  0.3126
 8200SOL     OW24850   3.689   5.759   4.333  0.0707  0.0091 -0.2456
 8200SOL    HW124851   3.640   5.770   4.251  0.6838  0.9027 -0.5131
 8200SOL    HW224852   3.644   5.816   4.395  0.7558  0.8495 -0.4976
 8201SOL     OW24853   5.728   5.805   1.746  0.0436 -0.3824 -0.4258
 8201SOL    HW124854   5.647   5.801   1.695  0.7217  1.0445 -1.6999
 8201SOL    HW224855   5.791   5.849   1.688  1.1693  0.3254  1.2529
 8202SOL     OW24856   3.128   4.305   3.722 -0.4347  0.2795  0.5285
 8202SOL    HW124857   3.177   4.340   3.648  0.1630  2.3205  1.7982
 8202SOL    HW224858   3.036   4.326   3.702 -0.2440  1.1026  0.4890
 8203SOL     OW24859   2.426   5.210   1.451  0.2765 -0.2493  0.3217
 8203SOL    HW124860   2.384   5.257   1.524 -0.8499 -1.0506  0.2125
 8203SOL    HW224861   2.511   5.184   1.486 -0.0528 -0.1969  1.2039
 8204SOL     OW24862   0.626   5.983   5.495 -0.2767 -1.1391 -0.0800
 8204SOL    HW124863   0.563   6.055   5.490 -1.0341 -1.8019 -0.3690
 8204SOL    HW224864   0.699   6.018   5.545  0.0177  0.3093 -1.4376
 8205SOL     OW24865   4.518   4.929   0.680  0.1444  0.0391 -0.5334
 8205SOL    HW124866   4.440   4.877   0.659 -1.9820  3.1583 -1.0939
 8205SOL    HW224867   4.585   4.897   0.620 -1.8596 -0.2539 -2.7630
 8206SOL     OW24868   3.546   1.267   5.883  0.1358 -0.1643 -0.9089
 8206SOL    HW124869   3.559   1.175   5.905 -0.0186 -0.2466 -1.1665
 8206SOL    HW224870   3.486   1.267   5.809  1.8998  0.0358 -2.4252
 8207SOL     OW24871   0.697   3.046   1.766  0.3349 -0.0911  0.2557
 8207SOL    HW124872   0.781   3.000   1.770  0.2506 -0.1486  1.9522
 8207SOL    HW224873   0.711   3.117   1.703  0.0874 -3.0798 -3.5449
 8208SOL     OW24874   3.030   3.960   4.861 -0.1867  0.0900  0.4503
 8208SOL    HW124875   3.102   4.024   4.866 -1.2550  1.6422 -1.9097
 8208SOL    HW224876   2.998   3.953   4.951  1.6775  0.8238  1.2312
 8209SOL     OW24877   4.776   4.187   6.119  0.1087  0.3666 -0.1122
 8209SOL    HW124878   4.763   4.203   6.026  0.4389  0.9478 -0.0592
 8209SOL    HW224879   4.835   4.112   6.123  0.5709  0.7135 -0.3768
 8210SOL     OW24880   5.786   4.640   6.175 -0.4688  0.8853 -0.0942
 8210SOL    HW124881   5.828   4.725   6.185  1.4967 -0.2133  1.6760
 8210SOL    HW224882   5.856   4.577   6.188 -1.9274 -1.0431 -1.1194
 8211SOL     OW24883   3.680   5.130   0.552  0.3401  0.6029  0.5487
 8211SOL    HW124884   3.632   5.130   0.469 -1.0004 -0.9194  1.2812
 8211SOL    HW224885   3.713   5.220   0.560 -0.6742  1.1516 -0.9633
 8212SOL     OW24886   3.703   5.056   2.273 -0.3130  0.4488  0.3458
 8212SOL    HW124887   3.787   5.011   2.282 -0.1284  0.7424  0.0839
 8212SOL    HW224888   3.683   5.051   2.179 -0.9848 -0.3383  0.5164
 8213SOL     OW24889   2.417   1.638   1.688 -0.1564  0.3278  0.6548
 8213SOL    HW124890   2.366   1.591   1.753 -0.0128 -0.6666  0.0681
 8213SOL    HW224891   2.503   1.596   1.691 -0.0269  0.5522  0.1214
 8214SOL     OW24892   5.660   2.792   3.949  0.0462  0.2676  0.6722
 8214SOL    HW124893   5.619   2.800   4.035 -0.3792 -0.6282  0.5725
 8214SOL    HW224894   5.707   2.875   3.936 -1.8472  1.3968  0.7322
 8215SOL     OW24895   3.544   4.777   5.340  0.3574  0.0594 -0.5448
 8215SOL    HW124896   3.486   4.703   5.318 -0.5745  0.8454 -0.7940
 8215SOL    HW224897   3.570   4.760   5.430  0.7412 -0.9517 -0.8317
 8216SOL     OW24898   5.348   5.685   3.580 -0.3180 -0.0015  0.2873
 8216SOL    HW124899   5.272   5.694   3.636 -0.5534  0.5856 -0.1178
 8216SOL    HW224900   5.319   5.715   3.494  0.1508 -0.5063 -0.0610
 8217SOL     OW24901   4.806   3.406   2.924 -0.0175 -0.1114  0.2531
 8217SOL    HW124902   4.898   3.431   2.932  0.7762 -2.2326 -1.1574
 8217SOL    HW224903   4.781   3.378   3.012  0.7341  0.3544  0.6198
 8218SOL     OW24904   2.817   0.167   5.113  0.2085 -0.2185  0.3023
 8218SOL    HW124905   2.732   0.167   5.157 -0.3389  2.2029 -0.6140
 8218SOL    HW224906   2.795   0.172   5.020  1.3147  1.8963  0.1107
 8219SOL     OW24907   4.419   0.648   2.673 -0.0857 -0.3435  0.0406
 8219SOL    HW124908   4.372   0.572   2.638 -0.6657  0.3232 -0.6544
 8219SOL    HW224909   4.484   0.610   2.733 -0.2993 -1.3905 -0.3647
 8220SOL     OW24910   0.067   1.136   2.683 -0.6511 -0.3166  0.4455
 8220SOL    HW124911   0.116   1.191   2.744  1.6451 -2.1446  0.3740
 8220SOL    HW224912  -0.009   1.190   2.660  1.0631  2.5423  0.8671
 8221SOL     OW24913   4.241   0.494   0.586  0.2292 -0.3995 -0.2925
 8221SOL    HW124914   4.177   0.502   0.515  0.7579 -0.5079 -0.7867
 8221SOL    HW224915   4.190   0.508   0.666 -0.3299 -0.0602 -0.7032
 8222SOL     OW24916   4.162   0.496   2.546 -0.6942  0.5210 -0.4103
 8222SOL    HW124917   4.219   0.494   2.469  0.3601  0.1358  0.3597
 8222SOL    HW224918   4.103   0.570   2.529  0.9060  1.8210 -0.6477
 8223SOL     OW24919   0.075   0.254   1.701  0.4846 -0.2928  0.1398
 8223SOL    HW124920   0.065   0.347   1.683  0.6770 -0.3398 -0.2285
 8223SOL    HW224921   0.115   0.218   1.621  1.1451 -0.5525  0.5702
 8224SOL     OW24922   0.331   1.627   2.163  0.1668  0.2588  0.3081
 8224SOL    HW124923   0.313   1.644   2.256 -1.0142  1.8542 -0.1640
 8224SOL    HW224924   0.409   1.680   2.144 -2.0880  3.5641 -0.5649
 8225SOL     OW24925   2.324   5.417   0.665 -0.3544 -0.4104 -0.3904
 8225SOL    HW124926   2.306   5.483   0.598  0.1647 -0.2498 -0.3746
 8225SOL    HW224927   2.286   5.337   0.629 -0.6304 -0.1923 -0.5956
 8226SOL     OW24928   2.238   3.521   0.010  0.1401 -0.3323  0.5198
 8226SOL    HW124929   2.220   3.613  -0.009  0.5234  0.4913  3.6340
 8226SOL    HW224930   2.315   3.500  -0.044  0.4905  1.3726  0.3174
 8227SOL     OW24931   0.261   2.675   4.012  0.4125  0.2859  0.2380
 8227SOL    HW124932   0.232   2.752   4.060 -1.1510  0.7995 -1.4256
 8227SOL    HW224933   0.354   2.691   3.995  0.0125  2.0651 -0.4995
 8228SOL     OW24934   3.880   0.502   0.986 -0.2045 -0.3613 -0.4887
 8228SOL    HW124935   3.852   0.477   1.074 -0.7799  0.7145 -0.3442
 8228SOL    HW224936   3.817   0.459   0.927  0.3657 -1.3335 -0.4111
 8229SOL     OW24937   5.387   0.708   5.556  0.2627  0.7670 -0.4109
 8229SOL    HW124938   5.379   0.778   5.491 -0.2361 -0.3127 -1.5451
 8229SOL    HW224939   5.423   0.634   5.507 -1.3453 -0.4785  0.2151
 8230SOL     OW24940   1.567   1.090   4.625  0.6402  0.1595  0.6298
 8230SOL    HW124941   1.514   1.017   4.594  1.1079 -0.6746  1.7317
 8230SOL    HW224942   1.503   1.159   4.645  0.1593 -0.1015  0.0016
 8231SOL     OW24943   3.671   1.065   0.526  0.1680  0.9305  0.3194
 8231SOL    HW124944   3.766   1.058   0.516 -0.0069 -1.3282 -0.2254
 8231SOL    HW224945   3.638   1.080   0.437 -0.0899 -0.2576  0.1964
 8232SOL     OW24946   1.022   5.814   5.438  0.3654  0.2844  0.0101
 8232SOL    HW124947   0.932   5.816   5.407 -0.2483 -2.1734  1.3668
 8232SOL    HW224948   1.037   5.723   5.464  2.8852  0.8412  0.8439
 8233SOL     OW24949   5.085   0.093   2.991  0.0305 -0.2557 -0.2267
 8233SOL    HW124950   5.125   0.038   3.058  0.3717  0.4490  0.1573
 8233SOL    HW224951   5.126   0.179   3.002 -0.4723  0.0749 -0.8324
 8234SOL     OW24952   5.840   1.789   3.550  0.5454  0.3081  0.0533
 8234SOL    HW124953   5.877   1.870   3.514  0.7474  0.7284  1.1631
 8234SOL    HW224954   5.746   1.797   3.536  0.2436  1.9390  2.3485
 8235SOL     OW24955   6.229   2.094   4.644 -0.2662 -0.3822  0.8263
 8235SOL    HW124956   6.192   2.094   4.556 -1.3027 -1.3739  1.2216
 8235SOL    HW224957   6.215   2.183   4.677 -3.1141 -0.8785  1.2261
 8236SOL     OW24958   5.048   4.229   1.286 -0.0472 -0.7412 -0.3748
 8236SOL    HW124959   5.004   4.197   1.207  1.8493  1.2715 -2.4058
 8236SOL    HW224960   4.993   4.302   1.316 -0.9165 -1.6802  0.3876
 8237SOL     OW24961   5.557   2.390   6.074  0.5429  0.6635  0.6913
 8237SOL    HW124962   5.489   2.455   6.061 -0.4038 -0.2749  0.8553
 8237SOL    HW224963   5.604   2.388   5.990  0.1659  1.0720  0.4656
 8238SOL     OW24964   0.680   1.619   6.212 -0.1641 -0.3542 -0.2051
 8238SOL    HW124965   0.672   1.711   6.188  0.3183 -0.2431  0.0390
 8238SOL    HW224966   0.658   1.617   6.306 -1.2864 -0.6656 -0.4623
 8239SOL     OW24967   1.680   3.405   1.137  0.6361  0.0404 -0.1022
 8239SOL    HW124968   1.757   3.422   1.082  1.8503 -0.8417  1.2304
 8239SOL    HW224969   1.717   3.385   1.223 -1.1972  2.1259  1.2914
 8240SOL     OW24970   2.756   0.860   2.170  0.1144 -0.1363 -0.2063
 8240SOL    HW124971   2.780   0.769   2.155  0.9460 -0.2458  1.6275
 8240SOL    HW224972   2.832   0.899   2.211 -0.5527  1.1722 -0.1602
 8241SOL     OW24973   5.160   3.149   3.683 -0.4027 -0.1624  0.2700
 8241SOL    HW124974   5.133   3.076   3.740  1.9181 -0.9384  0.4631
 8241SOL    HW224975   5.181   3.108   3.600  0.3110  0.3728  0.1796
 8242SOL     OW24976   2.236   5.675   0.798 -0.0460 -0.3034  0.5315
 8242SOL    HW124977   2.263   5.585   0.779 -2.2879 -0.9771  0.2054
 8242SOL    HW224978   2.142   5.676   0.780 -0.3031  1.8133  1.6666
 8243SOL     OW24979   1.729   3.421   0.248  0.3628 -0.2082  0.0852
 8243SOL    HW124980   1.756   3.337   0.284 -1.2981 -0.5888  0.5309
 8243SOL    HW224981   1.697   3.401   0.160  3.7752  0.6237 -1.5385
 8244SOL     OW24982   3.391   4.625   5.793  0.0559 -0.5385  0.6410
 8244SOL    HW124983   3.398   4.680   5.715  0.7942 -0.1827  0.9439
 8244SOL    HW224984   3.388   4.536   5.759 -1.6788 -0.3068  0.1178
 8245SOL     OW24985   0.773   1.067   2.179  0.4744  0.3297 -0.2857
 8245SOL    HW124986   0.707   1.025   2.125 -0.6236 -0.9072  1.8816
 8245SOL    HW224987   0.741   1.157   2.190 -0.7976 -0.1765  0.5121
 8246SOL     OW24988   6.091   4.797   5.407 -0.3791  0.1744  0.5345
 8246SOL    HW124989   6.098   4.840   5.322 -0.8184 -0.2209  0.2949
 8246SOL    HW224990   6.125   4.709   5.393 -1.3286 -0.2064  0.5178
 8247SOL     OW24991   4.700   4.368   2.476 -0.2170 -0.5055 -0.3619
 8247SOL    HW124992   4.618   4.390   2.431 -0.4863  0.0060  0.3540
 8247SOL    HW224993   4.721   4.279   2.445 -0.6629 -0.3696 -1.0858
 8248SOL     OW24994   0.046   0.077   6.112  0.7204  0.1370 -0.3499
 8248SOL    HW124995   0.007   0.100   6.028 -0.6653  0.1475  0.2694
 8248SOL    HW224996   0.056  -0.019   6.109  0.3782  0.1012 -0.4187
 8249SOL     OW24997   1.656   3.912   0.003  0.0700  0.2522  0.4932
 8249SOL    HW124998   1.592   3.872  -0.057  1.3710 -0.2684 -0.6111
 8249SOL    HW224999   1.626   3.887   0.090 -0.8640 -0.5291 -0.0239
 8250SOL     OW25000   1.598   2.217   5.181  0.4974 -0.0543  0.1539
 8250SOL    HW125001   1.579   2.173   5.264  3.3902  0.1235  1.0145
 8250SOL    HW225002   1.561   2.158   5.114  2.1301 -2.6575  1.3707
 8251SOL     OW25003   3.790   6.012   2.553 -0.0407  0.1322  0.3280
 8251SOL    HW125004   3.880   6.034   2.528  0.4241 -1.2331  0.7418
 8251SOL    HW225005   3.748   6.097   2.567  0.9501  0.8061 -0.6656
 8252SOL     OW25006   2.505   3.288   2.628 -0.6278 -0.4315 -0.6293
 8252SOL    HW125007   2.599   3.304   2.622 -0.3003 -2.0033 -0.1592
 8252SOL    HW225008   2.493   3.199   2.595 -1.7387 -0.8152  0.6879
 8253SOL     OW25009   0.233   6.087   3.400  0.3962 -0.3194 -0.4860
 8253SOL    HW125010   0.302   6.148   3.375  0.9447 -0.6528  0.1796
 8253SOL    HW225011   0.278   6.004   3.413 -0.0144 -0.3829  0.5975
 8254SOL     OW25012   1.666   2.446   4.369  0.1516  0.5269 -0.3174
 8254SOL    HW125013   1.696   2.479   4.284 -0.1898  0.5099 -0.4474
 8254SOL    HW225014   1.675   2.521   4.428  2.8398 -0.1451  0.2693
 8255SOL     OW25015   0.881   3.876   5.008 -0.1084 -0.0945  0.5251
 8255SOL    HW125016   0.797   3.865   5.051  0.1743 -1.7994  0.7152
 8255SOL    HW225017   0.941   3.903   5.078 -0.4578  0.9797  0.4160
 8256SOL     OW25018   1.048   5.547   0.770  0.7967  0.4109  0.0283
 8256SOL    HW125019   0.995   5.541   0.691  0.5171  1.8053  0.0865
 8256SOL    HW225020   1.134   5.513   0.744  0.5193  0.2441 -0.6832
 8257SOL     OW25021   5.728   1.667   0.853 -0.7282  0.2417  0.2202
 8257SOL    HW125022   5.634   1.682   0.852 -0.7865  0.0742 -1.7994
 8257SOL    HW225023   5.739   1.584   0.805  0.4334  0.1700  0.5873
 8258SOL     OW25024   4.623   4.525   4.244 -0.1778 -0.1498  0.0970
 8258SOL    HW125025   4.644   4.611   4.209 -0.3612  0.5139  1.5509
 8258SOL    HW225026   4.591   4.476   4.168  0.7625  0.7575 -0.9258
 8259SOL     OW25027   0.396   3.973   4.987 -0.1100  0.2021 -0.0012
 8259SOL    HW125028   0.337   4.014   5.051 -1.1790  0.6990 -1.2634
 8259SOL    HW225029   0.360   3.885   4.976  0.4036 -0.0740  0.4716
 8260SOL     OW25030   0.581   5.347   2.023  0.3814 -0.2962 -0.4553
 8260SOL    HW125031   0.511   5.337   2.088  2.1875 -1.5561  1.4169
 8260SOL    HW225032   0.570   5.436   1.990  0.2633  0.9808  2.7137
 8261SOL     OW25033   3.757   2.020   2.309  0.5035  0.1103  0.3153
 8261SOL    HW125034   3.674   2.063   2.331  0.5678  0.6575 -0.4843
 8261SOL    HW225035   3.737   1.926   2.315 -0.2600  0.2313 -0.1571
 8262SOL     OW25036   1.805   1.054   5.585  0.7079 -0.3440  0.0809
 8262SOL    HW125037   1.809   0.966   5.623  1.7924 -0.7174 -0.8285
 8262SOL    HW225038   1.896   1.076   5.568  0.3147  0.0150 -1.7687
 8263SOL     OW25039   0.874   2.726   0.873 -0.2844 -0.1131 -0.1855
 8263SOL    HW125040   0.910   2.638   0.863 -0.2483 -0.1943  0.5874
 8263SOL    HW225041   0.802   2.716   0.936 -1.1291  0.1906 -1.0677
 8264SOL     OW25042   0.098   1.492   1.011 -0.3086 -0.6871  0.0167
 8264SOL    HW125043   0.014   1.532   0.988  0.3360  0.6671 -0.0905
 8264SOL    HW225044   0.157   1.517   0.939  0.3017 -1.2173  0.3255
 8265SOL     OW25045   4.207   3.124   3.734 -0.4225 -0.1530  0.1620
 8265SOL    HW125046   4.168   3.076   3.661 -1.4428 -2.4319  2.0509
 8265SOL    HW225047   4.301   3.120   3.718 -0.6397  2.3796 -2.6611
 8266SOL     OW25048   1.641   2.351   1.928 -0.1191 -0.2934 -0.1939
 8266SOL    HW125049   1.710   2.396   1.880 -0.8612 -0.0693 -1.0884
 8266SOL    HW225050   1.560   2.396   1.902 -0.4643  0.5743  2.1257
 8267SOL     OW25051   4.590   3.902   6.278  0.3674 -0.3863  0.0750
 8267SOL    HW125052   4.650   3.962   6.324 -0.2604  1.3570 -1.2778
 8267SOL    HW225053   4.530   3.873   6.346  0.2224  1.1532  0.6607
 8268SOL     OW25054   4.081   1.109   2.913 -0.5364 -0.0094 -0.3742
 8268SOL    HW125055   4.103   1.040   2.850  1.2935 -0.2262  0.4343
 8268SOL    HW225056   4.122   1.188   2.878  1.3470 -0.3271  0.9429
 8269SOL     OW25057   2.581   4.362   0.748 -0.4575  0.3692  0.0149
 8269SOL    HW125058   2.647   4.415   0.703 -1.1981  1.3117  0.0008
 8269SOL    HW225059   2.593   4.274   0.712 -0.3028  0.8701 -1.2252
 8270SOL     OW25060   6.031   0.684   2.784  0.2856 -0.0341 -0.3741
 8270SOL    HW125061   6.019   0.654   2.874  0.7694 -0.9231 -0.5973
 8270SOL    HW225062   6.091   0.621   2.745  1.2528  1.1608 -0.9044
 8271SOL     OW25063   2.491   4.989   5.173  0.5079 -0.3746 -0.8942
 8271SOL    HW125064   2.535   4.904   5.169  2.4046  0.5965 -1.8005
 8271SOL    HW225065   2.486   5.009   5.266  0.2912 -1.3484 -0.6857
 8272SOL     OW25066   1.706   4.646   5.152  0.8229 -0.0919  0.3181
 8272SOL    HW125067   1.702   4.551   5.150  0.2258 -0.0854  0.7816
 8272SOL    HW225068   1.644   4.675   5.085 -0.1013 -0.0328  1.1710
 8273SOL     OW25069   1.748   1.138   1.100 -0.3027 -0.0829  0.6919
 8273SOL    HW125070   1.654   1.118   1.099 -0.1288 -1.0519  1.7683
 8273SOL    HW225071   1.757   1.212   1.160 -0.4993  0.7539 -0.2944
 8274SOL     OW25072   5.343   4.670   2.533 -0.2702  0.0797  0.1974
 8274SOL    HW125073   5.312   4.580   2.539  0.5521 -0.4084 -1.9714
 8274SOL    HW225074   5.394   4.683   2.614  0.2232 -1.6731  0.2097
 8275SOL     OW25075   4.926   0.179   1.194  0.0723  0.0788  0.1918
 8275SOL    HW125076   4.971   0.101   1.161 -0.7159 -0.3172  0.0258
 8275SOL    HW225077   4.874   0.146   1.268  0.3069  0.5928  0.5947
 8276SOL     OW25078   2.910   0.792   5.732  0.3531 -0.0624 -0.0677
 8276SOL    HW125079   2.938   0.754   5.815 -0.5614 -0.7426 -0.0662
 8276SOL    HW225080   2.978   0.858   5.712  1.0377 -0.4965  0.7708
 8277SOL     OW25081   5.267   3.937   0.626  0.1183 -0.6510  0.3712
 8277SOL    HW125082   5.312   3.856   0.602  2.6617  0.8327 -0.2370
 8277SOL    HW225083   5.332   3.986   0.676 -1.0802  1.3435  0.0523
 8278SOL     OW25084   1.742   4.725   2.040 -0.0246  0.4588 -0.0626
 8278SOL    HW125085   1.704   4.640   2.019  2.8708 -1.3498  1.4327
 8278SOL    HW225086   1.743   4.772   1.956  0.8292 -2.0721 -1.5619
 8279SOL     OW25087   0.444   3.466   3.924 -0.3137  0.7699  0.0319
 8279SOL    HW125088   0.446   3.519   4.004  0.5144 -1.0690  1.3067
 8279SOL    HW225089   0.507   3.508   3.865  1.1529  0.6233  1.4335
 8280SOL     OW25090   4.268   3.648   5.195  0.0513 -0.3182  0.1288
 8280SOL    HW125091   4.177   3.623   5.180  0.0386  0.2516 -0.8294
 8280SOL    HW225092   4.315   3.565   5.206 -0.4074 -0.6556 -0.4346
 8281SOL     OW25093   3.642   4.864   0.026  0.1164 -0.2278 -0.5437
 8281SOL    HW125094   3.611   4.829  -0.057 -1.4797 -0.1066 -0.0374
 8281SOL    HW225095   3.602   4.808   0.093  2.0766 -0.8752  0.1669
 8282SOL     OW25096   0.594   1.489   1.848  0.1391  0.1426  0.0679
 8282SOL    HW125097   0.681   1.461   1.877 -0.1466 -1.0277 -0.1810
 8282SOL    HW225098   0.598   1.487   1.753  1.0641  3.9518 -0.1311
 8283SOL     OW25099   0.848   5.450   2.041 -0.5398  0.0159 -0.3568
 8283SOL    HW125100   0.756   5.428   2.055 -0.4754 -0.0466 -0.0195
 8283SOL    HW225101   0.849   5.545   2.034 -0.2768  0.3224  2.6129
 8284SOL     OW25102   3.760   5.909   2.926  0.0007  0.2488 -0.0285
 8284SOL    HW125103   3.778   5.842   2.991 -1.1645  1.7409  1.9481
 8284SOL    HW225104   3.666   5.902   2.908  0.0143  0.8352 -0.3839
 8285SOL     OW25105   2.227   2.787   1.343  0.1978  0.2570  0.5363
 8285SOL    HW125106   2.136   2.767   1.364  0.0794 -0.4912 -0.5723
 8285SOL    HW225107   2.263   2.823   1.423 -0.9982  0.2941  1.0788
 8286SOL     OW25108   1.553   1.534   2.825  0.1042 -0.0806 -0.0406
 8286SOL    HW125109   1.534   1.478   2.900  0.0458  0.2301  0.1763
 8286SOL    HW225110   1.642   1.508   2.798  0.8074  0.9343  1.1645
 8287SOL     OW25111   3.939   2.883   2.434 -0.5708 -0.0995 -0.5050
 8287SOL    HW125112   3.896   2.904   2.517 -0.7890 -0.5581 -0.5018
 8287SOL    HW225113   3.979   2.798   2.448 -1.4314 -0.6293 -1.1728
 8288SOL     OW25114   5.312   1.980   1.904 -0.1454  0.2527  0.1558
 8288SOL    HW125115   5.308   2.003   1.811  0.1561 -1.2366 -0.2480
 8288SOL    HW225116   5.228   2.010   1.940 -1.5216 -1.6880 -1.2336
 8289SOL     OW25117   3.679   2.410   0.798  0.0189  0.3859  0.1622
 8289SOL    HW125118   3.741   2.345   0.766  2.3784  2.0544  0.9649
 8289SOL    HW225119   3.675   2.476   0.728 -1.1931  0.1255 -0.0355
 8290SOL     OW25120   3.940   5.543   1.692 -0.7016 -0.1304  0.4744
 8290SOL    HW125121   4.031   5.532   1.720 -0.5932 -0.5905 -0.0321
 8290SOL    HW225122   3.920   5.635   1.710 -0.8388 -0.5333  2.5775
 8291SOL     OW25123   5.329   2.064   3.637  0.1947  0.3057 -0.3143
 8291SOL    HW125124   5.258   2.113   3.679  0.3193  1.1871 -1.0939
 8291SOL    HW225125   5.297   1.974   3.633  0.3556  0.0679  2.0618
 8292SOL     OW25126   4.222   4.350   1.315  0.1614  0.3303  0.0662
 8292SOL    HW125127   4.172   4.312   1.243 -0.1491  2.0356 -0.6730
 8292SOL    HW225128   4.306   4.375   1.276  1.2660 -1.5827  1.0619
 8293SOL     OW25129   1.644   0.290   1.194 -0.0260  0.2426  0.0145
 8293SOL    HW125130   1.691   0.287   1.277  0.5042 -0.5425 -0.2971
 8293SOL    HW225131   1.590   0.210   1.194 -0.4113  0.5005 -0.1724
 8294SOL     OW25132   4.030   0.483   3.161  0.1555  0.0442 -0.0294
 8294SOL    HW125133   3.987   0.568   3.172 -0.4909 -0.1422 -1.0509
 8294SOL    HW225134   3.959   0.423   3.141  0.6302 -0.7282  0.5615
 8295SOL     OW25135   3.422   3.418   1.312  0.4031  0.1606 -0.2568
 8295SOL    HW125136   3.380   3.341   1.350 -1.3363  0.2231 -1.9112
 8295SOL    HW225137   3.461   3.386   1.230  0.2266  0.8938 -0.6366
 8296SOL     OW25138   2.307   0.440   0.782  0.1723  0.5812 -0.0981
 8296SOL    HW125139   2.260   0.487   0.714  0.9036 -0.4244 -1.3576
 8296SOL    HW225140   2.243   0.379   0.818 -0.1560  0.9527 -0.0521
 8297SOL     OW25141   2.678   5.552   2.341 -0.4856 -0.0015  0.5189
 8297SOL    HW125142   2.703   5.640   2.369 -0.3375 -0.4812  1.9939
 8297SOL    HW225143   2.704   5.547   2.249  0.4854  1.1295  0.7089
 8298SOL     OW25144   2.867   0.096   3.481 -1.0314 -0.7592 -0.4376
 8298SOL    HW125145   2.857   0.116   3.388 -1.1224 -0.4613 -0.3655
 8298SOL    HW225146   2.945   0.145   3.508 -1.1511 -0.6426 -0.2994
 8299SOL     OW25147   1.492   0.466   3.166  0.1354 -0.1153 -0.7328
 8299SOL    HW125148   1.455   0.554   3.180  0.0222 -0.3370  0.5117
 8299SOL    HW225149   1.586   0.478   3.180  0.0868 -0.2389 -0.2884
 8300SOL     OW25150   2.226   0.134   5.154  0.3786  0.3302 -0.1911
 8300SOL    HW125151   2.311   0.154   5.192  0.2071 -0.0301  0.3993
 8300SOL    HW225152   2.209   0.043   5.179 -0.7257  0.7656  0.7971
 8301SOL     OW25153   3.371   0.251   0.888 -0.6855 -0.5276 -0.3583
 8301SOL    HW125154   3.424   0.303   0.949  0.4494 -0.5134 -1.3191
 8301SOL    HW225155   3.286   0.296   0.886  0.5958  2.1385 -2.0803
 8302SOL     OW25156   5.345   0.594   2.749 -0.0896  0.0280 -0.0599
 8302SOL    HW125157   5.436   0.571   2.729  0.5787  2.5643 -0.3422
 8302SOL    HW225158   5.352   0.669   2.808 -2.0294 -0.0184  0.2998
 8303SOL     OW25159   1.611   1.251   5.507 -0.0125  0.2552 -0.8214
 8303SOL    HW125160   1.687   1.308   5.497  0.6897 -0.8403 -2.2205
 8303SOL    HW225161   1.647   1.167   5.537 -0.8519  0.1354 -0.0926
 8304SOL     OW25162   0.862   2.327   4.340  0.6597  0.7812 -0.1764
 8304SOL    HW125163   0.852   2.420   4.360 -0.7363  0.8626 -1.0876
 8304SOL    HW225164   0.907   2.324   4.256 -2.7889  0.8787 -2.2461
 8305SOL     OW25165   3.990   0.063   3.020  0.3473  0.4679  0.3186
 8305SOL    HW125166   3.973   0.133   2.957  1.4177  0.1465 -0.3561
 8305SOL    HW225167   3.957  -0.016   2.977  0.8642  0.2818  0.2605
 8306SOL     OW25168   5.941   4.872   4.004 -0.3825 -0.1048  0.2404
 8306SOL    HW125169   5.891   4.946   4.036  0.3090  0.5669 -0.1931
 8306SOL    HW225170   6.032   4.893   4.025 -0.1457 -0.6730 -0.1806
 8307SOL     OW25171   5.376   4.613   1.234 -0.2008 -0.1437 -0.3065
 8307SOL    HW125172   5.438   4.681   1.261 -0.7658  0.1601  0.2671
 8307SOL    HW225173   5.319   4.602   1.310 -1.0511 -0.1810 -0.9398
 8308SOL     OW25174   0.552   3.274   2.710  0.2334  0.1970 -0.4003
 8308SOL    HW125175   0.518   3.186   2.729  0.0697  0.5720  1.1442
 8308SOL    HW225176   0.581   3.307   2.794  1.8241  1.0155 -1.2246
 8309SOL     OW25177   3.067   5.720   2.402  0.0189 -0.0323  0.1136
 8309SOL    HW125178   3.047   5.802   2.357 -1.2092 -0.3596  0.0333
 8309SOL    HW225179   3.027   5.730   2.488  0.2346 -0.3871  0.2560
 8310SOL     OW25180   0.867   4.372   6.037  0.3826  0.1564  0.0924
 8310SOL    HW125181   0.790   4.412   6.079  1.3538  2.4968 -0.1904
 8310SOL    HW225182   0.873   4.285   6.077 -1.8051  0.2882  0.8613
 8311SOL     OW25183   2.678   1.474   5.308  0.2204 -0.0062  0.3598
 8311SOL    HW125184   2.644   1.561   5.288 -0.4756 -0.5030 -0.7837
 8311SOL    HW225185   2.653   1.421   5.231 -0.1367 -1.4090  1.3960
 8312SOL     OW25186   6.004   2.688   6.268 -0.1945  0.3585 -0.0621
 8312SOL    HW125187   6.047   2.604   6.255  1.5156  1.1808  0.0568
 8312SOL    HW225188   6.001   2.728   6.181  0.0189  0.6445  0.0605
 8313SOL     OW25189   2.910   5.040   0.411 -0.0968 -0.1873 -0.1714
 8313SOL    HW125190   2.899   4.989   0.491 -1.1378  0.8229  0.3457
 8313SOL    HW225191   2.909   5.131   0.439  0.5307  0.1700 -1.2296
 8314SOL     OW25192   0.288   0.573   2.661 -0.0238  0.1876 -0.8135
 8314SOL    HW125193   0.350   0.645   2.669 -0.8507  0.7794  0.7488
 8314SOL    HW225194   0.285   0.554   2.567  0.1721  2.2403 -1.2864
 8315SOL     OW25195   0.021   2.436   2.999 -0.0967  0.1055 -0.2953
 8315SOL    HW125196  -0.003   2.524   3.025 -0.4144 -0.4101  1.2593
 8315SOL    HW225197  -0.062   2.393   2.977  0.0080  0.0614 -0.6075
 8316SOL     OW25198   1.930   2.137   5.847  0.1987 -0.0844 -0.2432
 8316SOL    HW125199   1.953   2.111   5.936  0.3211  1.0802  0.0821
 8316SOL    HW225200   1.835   2.133   5.844  0.0639  1.7293  0.5607
 8317SOL     OW25201   1.120   4.562   0.174 -0.0850 -0.5617 -0.2223
 8317SOL    HW125202   1.166   4.480   0.157  0.7123 -0.0839 -0.4128
 8317SOL    HW225203   1.166   4.627   0.121 -1.5325 -0.2253 -1.1363
 8318SOL     OW25204   0.802   3.881   1.556 -0.6856  0.1135  0.0221
 8318SOL    HW125205   0.874   3.818   1.554 -2.0706 -1.5199 -0.6905
 8318SOL    HW225206   0.787   3.897   1.649 -1.4374 -2.0359  0.3399
 8319SOL     OW25207   0.271   6.143   6.327  0.4861 -0.1688 -0.3538
 8319SOL    HW125208   0.298   6.198   6.253  1.1255  0.1563  0.1124
 8319SOL    HW225209   0.182   6.117   6.305 -0.0186  1.4453 -0.3832
 8320SOL     OW25210   6.332   0.650   3.822 -0.4199 -0.4170  0.3284
 8320SOL    HW125211   6.313   0.558   3.806  1.7001 -0.6888 -0.9453
 8320SOL    HW225212   6.252   0.696   3.795 -0.0766 -1.5904 -3.0534
 8321SOL     OW25213   0.080   0.334   2.841  0.7759  0.5041  0.4624
 8321SOL    HW125214   0.145   0.399   2.815  0.1521  0.6747 -0.7477
 8321SOL    HW225215   0.101   0.257   2.788  1.7262 -0.4391  2.1352
 8322SOL     OW25216   6.320   2.219   1.163 -0.5155  0.1182 -0.0365
 8322SOL    HW125217   6.388   2.258   1.107 -0.9641 -2.1240 -2.3396
 8322SOL    HW225218   6.368   2.164   1.225 -0.1466 -0.3324 -0.7118
 8323NA      NA25219   5.221   5.731   4.999  0.0924 -0.2367 -0.4582
 8324NA      NA25220   3.725   2.475   2.283  0.0323  0.7245  0.5028
 8325NA      NA25221   2.765   2.551   5.872 -0.1409  0.2498 -0.2641
 8326NA      NA25222   5.471   3.577   2.745 -0.1098  0.0633  0.0151
 8327NA      NA25223   1.631   1.947   3.217 -0.4340 -0.2988 -0.3253
 8328NA      NA25224   5.547   1.755   3.016 -0.0292  0.2171  0.2312
 8329NA      NA25225   2.612   5.937   3.696 -0.0026 -0.3107  0.5732
 8330NA      NA25226   1.573   3.517   4.400  0.1465 -0.5613  0.2323
 8331NA      NA25227   1.891   0.979   1.062 -0.3196 -0.4902 -0.4383
 8332NA      NA25228   5.475   0.227   2.220 -0.5571 -0.4328  0.4934
 8333NA      NA25229   4.611   3.431   0.478  0.2369 -0.1188 -0.3900
 8334NA      NA25230   2.385   4.960   2.554  0.1860 -0.1853 -0.0988
 8335NA      NA25231   0.264   3.012   2.932 -0.0701 -0.5935  0.1100
 8336NA      NA25232   2.593   3.265   2.157 -0.4117  0.3397 -0.1063
 8337NA      NA25233   5.840   1.702   4.618 -0.2064  0.1477 -0.1262
 8338NA      NA25234   1.904   0.670   5.776  0.0004  0.0005 -0.4736
 8339NA      NA25235   1.350   1.916   2.288  0.4929 -0.3900 -0.5165
 8340NA      NA25236   0.777   4.916   3.277 -0.0359  0.1386 -0.6582
 8341NA      NA25237   4.576   4.232   3.569 -0.0107 -0.7483 -0.4893
 8342NA      NA25238   3.542   3.304   4.822 -0.2667 -0.0302  0.5301
 8343NA      NA25239   5.669   4.768   5.005 -0.2852  0.2257 -0.2343
 8344NA      NA25240   1.729   0.486   2.807  0.2916 -0.3778  0.0498
 8345NA      NA25241   0.774   5.507   4.430 -0.3276 -0.0189  0.1794
 8346NA      NA25242   1.242   2.194   0.382 -0.1681 -0.2314  0.8046
 8347CL      CL25243   2.932   3.575   0.472  0.4685  0.2292  0.1431
 8348CL      CL25244   3.028   5.527   0.662 -0.2445 -0.0419  0.0162
 8349CL      CL25245   5.228   5.760   5.258  0.3547  0.1750 -0.0182
 8350CL      CL25246   4.658   1.538   1.256 -0.0192  0.1913  0.1145
 8351CL      CL25247   1.806   1.430   1.351  0.2095 -0.6245  0.5263
 8352CL      CL25248   5.771   0.692   3.931  0.1637 -0.1254  0.1789
 8353CL      CL25249   5.709   1.467   5.580 -0.0525  0.1614  0.1525
 8354CL      CL25250   5.654   1.400   3.251  0.1117  0.0842 -0.0684
 8355CL      CL25251   2.989   0.801   2.825  0.1048  0.4324  0.0122
 8356CL      CL25252   2.442   6.020   1.748 -0.0408 -0.4780  0.4819
 8357CL      CL25253   0.486   5.191   4.761  0.2045 -0.0623  0.3234
 8358CL      CL25254   5.271   0.084   5.033 -0.0066 -0.5762  0.0194
 8359CL      CL25255   4.214   5.701   3.449 -0.1774 -0.0196 -0.4293
 8360CL      CL25256   5.436   2.905   4.156 -0.0258 -0.4177  0.1854
 8361CL      CL25257   1.510   2.110   3.975 -0.2477  0.0743 -0.0587
 8362CL      CL25258   4.325   4.143   4.006  0.0409 -0.1919 -0.2848
 8363CL      CL25259   3.112   5.898   2.916  0.0925  0.0185  0.2078
 8364CL      CL25260   4.955   2.759   5.222 -0.1748 -0.0732  0.2836
 8365CL      CL25261   0.391   3.198   5.352 -0.0891  0.2893  0.3559
 8366CL      CL25262   5.295   5.525   4.922  0.0843 -0.3846  0.0777
 8367CL      CL25263   2.525   0.240   5.262  0.0882  0.2748  0.2423
 8368CL      CL25264   4.653   5.719   4.216 -0.1818 -0.1027  0.2168
 8369CL      CL25265   3.484   3.094   4.980  0.6152  0.3876  0.2280
 8370CL      CL25266   4.058   5.166   5.650 -0.1508 -0.5156  0.1209
 8371CL      CL25267   0.750   1.473   0.404  0.1377 -0.3113 -0.1729
 8372CL      CL25268   3.033   0.233   1.905 -0.0331 -0.4196 -0.3002
 8373CL      CL25269   3.317   4.822   4.374 -0.0645 -0.5433  0.5700
 8374CL      CL25270   0.724   2.132   6.026  0.2133 -0.0064 -0.1785
 8375CL      CL25271   1.986   1.154   2.846  0.0413 -0.3409  0.0893
 8376CL      CL25272   3.328   2.466   5.047  0.0328 -0.4444 -0.0365
 8377CL      CL25273   1.520   2.633   5.969 -0.0651  0.0119  0.1883
 8378CL      CL25274   4.434   1.792   4.395  0.0858 -0.0786 -0.2896
 8379CL      CL25275   3.585   0.627   3.594 -0.0703 -0.0560  0.0543
 8380CL      CL25276   0.534   4.502   3.055  0.2628 -0.1787  0.2167
 8381CL      CL25277   4.558   5.021   3.187 -0.0957  0.2290  0.1258
 8382CL      CL25278   3.387   3.654   4.259  0.1010 -0.1476  0.2115
 8383CL      CL25279   4.345   1.524   3.403  0.0474  0.2299  0.1891
 8384CL      CL25280   0.098   3.309   4.661 -0.2588  0.2558 -0.3881
   6.34605   6.34605   6.34605
