;
;   File g2dpocore_petim_betagalactose.itp  was generated
;   By user: sairam (1000)
;   On host: sairam
;   At date: Tue. January  2 19:05:47 2025
;
;   This is a standalone topology file
;
;   Created by:
;   ParmEd:       amb2gro_top_gro.py, VERSION 3.4.1
;   Executable:   amb2gro_top_gro.py
;   Library dir:  /usr/local/gromacs/share/gromacs/top
;   Command line:
;     ./amb2gro_top_gro.py -p g2dpocore_petim_betagalactose.prmtop -c g2dpocore_petim_betagalactose.inpcrd -t g2dpocore_petim_betagalactose.itp -g g2dpocore_petim_betagalactose.gro -b g2dpocore_petim_betagalactose.pdb
;

;[ defaults ]
;; nbfunc        comb-rule       gen-pairs       fudgeLJ fudgeQQ
;1               2               yes             0.5          0.83333333  
;
;[ atomtypes ]
;; name    at.num    mass    charge ptype  sigma      epsilon
;os             8  16.000000  0.00000000  A     0.30000123        0.71128
;c3             6  12.010000  0.00000000  A     0.33996695      0.4577296
;h1             1   1.008000  0.00000000  A      0.2471353      0.0656888
;hc             1   1.008000  0.00000000  A     0.26495328      0.0656888
;hx             1   1.008000  0.00000000  A     0.19599772      0.0656888
;n4             7  14.010000  0.00000000  A     0.32499985        0.71128
;hn             1   1.008000  0.00000000  A     0.10690785      0.0656888
;h2             1   1.008000  0.00000000  A     0.22931733      0.0656888
;oh             8  16.000000  0.00000000  A     0.30664734      0.8803136
;ho             1   1.008000  0.00000000  A              0              0


[ moleculetype ]
; Name            nrexcl
g2dpocore_petim_betagalactose          3

[ atoms ]
;   nr       type  resnr residue  atom   cgnr    charge       mass  typeB    chargeB      massB
; residue    1 aaa rtp aaa q 2.0
    1         os      1    aaa     O1      1 -0.58111400  16.000000   ; qtot -0.581114
    2         c3      1    aaa     C1      2 0.17711200  12.010000   ; qtot -0.404002
    3         h1      1    aaa     H1      3 0.04565000   1.008000   ; qtot -0.358352
    4         h1      1    aaa     H2      4 0.04565000   1.008000   ; qtot -0.312702
    5         c3      1    aaa     C2      5 0.17711200  12.010000   ; qtot -0.135590
    6         h1      1    aaa     H3      6 0.04565000   1.008000   ; qtot -0.089940
    7         h1      1    aaa     H4      7 0.04565000   1.008000   ; qtot -0.044290
    8         c3      1    aaa     C3      8 0.15102100  12.010000   ; qtot 0.106731
    9         hc      1    aaa     H5      9 0.02538500   1.008000   ; qtot 0.132116
   10         hc      1    aaa     H6     10 0.02538500   1.008000   ; qtot 0.157501
   11         c3      1    aaa     C4     11 0.15102100  12.010000   ; qtot 0.308522
   12         hc      1    aaa     H7     12 0.02538500   1.008000   ; qtot 0.333907
   13         hc      1    aaa     H8     13 0.02538500   1.008000   ; qtot 0.359292
   14         c3      1    aaa     C5     14 -0.29474300  12.010000   ; qtot 0.064549
   15         hx      1    aaa     H9     15 0.12534200   1.008000   ; qtot 0.189891
   16         hx      1    aaa    H10     16 0.12534200   1.008000   ; qtot 0.315233
   17         c3      1    aaa     C6     17 -0.29474300  12.010000   ; qtot 0.020490
   18         hx      1    aaa    H11     18 0.12534200   1.008000   ; qtot 0.145832
   19         hx      1    aaa    H12     19 0.12534200   1.008000   ; qtot 0.271174
   20         n4      1    aaa     N1     20 -0.11447800  14.010000   ; qtot 0.156696
   21         n4      1    aaa     N2     21 -0.11447800  14.010000   ; qtot 0.042218
   22         c3      1    aaa     C7     22 -0.03432800  12.010000   ; qtot 0.007890
   23         hx      1    aaa    H13     23 0.10515400   1.008000   ; qtot 0.113044
   24         hx      1    aaa    H14     24 0.10515400   1.008000   ; qtot 0.218198
   25         c3      1    aaa     C8     25 -0.03432800  12.010000   ; qtot 0.183870
   26         hx      1    aaa    H15     26 0.10515400   1.008000   ; qtot 0.289024
   27         hx      1    aaa    H16     27 0.10515400   1.008000   ; qtot 0.394178
   28         c3      1    aaa     C9     28 -0.03432800  12.010000   ; qtot 0.359850
   29         hx      1    aaa    H17     29 0.10515400   1.008000   ; qtot 0.465004
   30         hx      1    aaa    H18     30 0.10515400   1.008000   ; qtot 0.570158
   31         c3      1    aaa    C10     31 -0.03432800  12.010000   ; qtot 0.535830
   32         hx      1    aaa    H19     32 0.10515400   1.008000   ; qtot 0.640984
   33         hx      1    aaa    H20     33 0.10515400   1.008000   ; qtot 0.746138
   34         c3      1    aaa    C11     34 -0.06183200  12.010000   ; qtot 0.684306
   35         hc      1    aaa    H21     35 0.08865200   1.008000   ; qtot 0.772958
   36         hc      1    aaa    H22     36 0.08865200   1.008000   ; qtot 0.861610
   37         c3      1    aaa    C12     37 -0.06183200  12.010000   ; qtot 0.799778
   38         hc      1    aaa    H23     38 0.08865200   1.008000   ; qtot 0.888430
   39         hc      1    aaa    H24     39 0.08865200   1.008000   ; qtot 0.977082
   40         c3      1    aaa    C13     40 -0.06183200  12.010000   ; qtot 0.915250
   41         hc      1    aaa    H25     41 0.08865200   1.008000   ; qtot 1.003902
   42         hc      1    aaa    H26     42 0.08865200   1.008000   ; qtot 1.092554
   43         c3      1    aaa    C14     43 -0.06183200  12.010000   ; qtot 1.030722
   44         hc      1    aaa    H27     44 0.08865200   1.008000   ; qtot 1.119374
   45         hc      1    aaa    H28     45 0.08865200   1.008000   ; qtot 1.208026
   46         c3      1    aaa    C15     46 -0.22217300  12.010000   ; qtot 0.985853
   47         hc      1    aaa    H29     47 0.16441900   1.008000   ; qtot 1.150272
   48         hc      1    aaa    H30     48 0.16441900   1.008000   ; qtot 1.314691
   49         c3      1    aaa    C16     49 -0.22217300  12.010000   ; qtot 1.092518
   50         hc      1    aaa    H31     50 0.16441900   1.008000   ; qtot 1.256937
   51         hc      1    aaa    H32     51 0.16441900   1.008000   ; qtot 1.421356
   52         c3      1    aaa    C17     52 -0.22217300  12.010000   ; qtot 1.199183
   53         hc      1    aaa    H33     53 0.16441900   1.008000   ; qtot 1.363602
   54         hc      1    aaa    H34     54 0.16441900   1.008000   ; qtot 1.528021
   55         c3      1    aaa    C18     55 -0.22217300  12.010000   ; qtot 1.305848
   56         hc      1    aaa    H35     56 0.16441900   1.008000   ; qtot 1.470267
   57         hc      1    aaa    H36     57 0.16441900   1.008000   ; qtot 1.634686
   58         hn      1    aaa    H38     58 0.18266300   1.008000   ; qtot 1.817349
   59         hn      1    aaa    H37     59 0.18266300   1.008000   ; qtot 2.000012
; residue    2 bbb rtp bbb q 1.0
   60         n4      2    bbb     N1     60 0.03726400  14.010000   ; qtot 2.037276
   61         c3      2    bbb     C1     61 -0.07020100  12.010000   ; qtot 1.967075
   62         hx      2    bbb     H1     62 0.12219000   1.008000   ; qtot 2.089265
   63         hx      2    bbb     H2     63 0.12219000   1.008000   ; qtot 2.211455
   64         c3      2    bbb     C2     64 -0.07020100  12.010000   ; qtot 2.141254
   65         hx      2    bbb     H3     65 0.12219000   1.008000   ; qtot 2.263444
   66         hx      2    bbb     H4     66 0.12219000   1.008000   ; qtot 2.385634
   67         c3      2    bbb     C3     67 -0.39007700  12.010000   ; qtot 1.995557
   68         hx      2    bbb     H5     68 0.14940300   1.008000   ; qtot 2.144960
   69         hx      2    bbb     H6     69 0.14940300   1.008000   ; qtot 2.294363
   70         c3      2    bbb     C4     70 0.18057300  12.010000   ; qtot 2.474936
   71         hc      2    bbb     H7     71 0.01788900   1.008000   ; qtot 2.492825
   72         hc      2    bbb     H8     72 0.01788900   1.008000   ; qtot 2.510714
   73         c3      2    bbb     C5     73 -0.11337700  12.010000   ; qtot 2.397337
   74         hc      2    bbb     H9     74 0.09515400   1.008000   ; qtot 2.492491
   75         hc      2    bbb    H10     75 0.09515400   1.008000   ; qtot 2.587645
   76         c3      2    bbb     C6     76 -0.11337700  12.010000   ; qtot 2.474268
   77         hc      2    bbb    H11     77 0.09515400   1.008000   ; qtot 2.569422
   78         hc      2    bbb    H12     78 0.09515400   1.008000   ; qtot 2.664576
   79         c3      2    bbb     C7     79 0.21842400  12.010000   ; qtot 2.883000
   80         h1      2    bbb    H13     80 0.04500300   1.008000   ; qtot 2.928003
   81         h1      2    bbb    H14     81 0.04500300   1.008000   ; qtot 2.973006
   82         c3      2    bbb     C8     82 -0.06455200  12.010000   ; qtot 2.908454
   83         h1      2    bbb    H15     83 0.13554100   1.008000   ; qtot 3.043995
   84         h1      2    bbb    H16     84 0.13554100   1.008000   ; qtot 3.179536
   85         c3      2    bbb     C9     85 -0.06455200  12.010000   ; qtot 3.114984
   86         h1      2    bbb    H17     86 0.13554100   1.008000   ; qtot 3.250525
   87         h1      2    bbb    H18     87 0.13554100   1.008000   ; qtot 3.386066
   88         os      2    bbb     O1     88 -0.62587700  16.000000   ; qtot 2.760189
   89         hn      2    bbb    H19     89 0.23982500   1.008000   ; qtot 3.000014
; residue    3 bbb rtp bbb q 1.0
   90         n4      3    bbb     N1     90 0.03726400  14.010000   ; qtot 3.037278
   91         c3      3    bbb     C1     91 -0.07020100  12.010000   ; qtot 2.967077
   92         hx      3    bbb     H1     92 0.12219000   1.008000   ; qtot 3.089267
   93         hx      3    bbb     H2     93 0.12219000   1.008000   ; qtot 3.211457
   94         c3      3    bbb     C2     94 -0.07020100  12.010000   ; qtot 3.141256
   95         hx      3    bbb     H3     95 0.12219000   1.008000   ; qtot 3.263446
   96         hx      3    bbb     H4     96 0.12219000   1.008000   ; qtot 3.385636
   97         c3      3    bbb     C3     97 -0.39007700  12.010000   ; qtot 2.995559
   98         hx      3    bbb     H5     98 0.14940300   1.008000   ; qtot 3.144962
   99         hx      3    bbb     H6     99 0.14940300   1.008000   ; qtot 3.294365
  100         c3      3    bbb     C4    100 0.18057300  12.010000   ; qtot 3.474938
  101         hc      3    bbb     H7    101 0.01788900   1.008000   ; qtot 3.492827
  102         hc      3    bbb     H8    102 0.01788900   1.008000   ; qtot 3.510716
  103         c3      3    bbb     C5    103 -0.11337700  12.010000   ; qtot 3.397339
  104         hc      3    bbb     H9    104 0.09515400   1.008000   ; qtot 3.492493
  105         hc      3    bbb    H10    105 0.09515400   1.008000   ; qtot 3.587647
  106         c3      3    bbb     C6    106 -0.11337700  12.010000   ; qtot 3.474270
  107         hc      3    bbb    H11    107 0.09515400   1.008000   ; qtot 3.569424
  108         hc      3    bbb    H12    108 0.09515400   1.008000   ; qtot 3.664578
  109         c3      3    bbb     C7    109 0.21842400  12.010000   ; qtot 3.883002
  110         h1      3    bbb    H13    110 0.04500300   1.008000   ; qtot 3.928005
  111         h1      3    bbb    H14    111 0.04500300   1.008000   ; qtot 3.973008
  112         c3      3    bbb     C8    112 -0.06455200  12.010000   ; qtot 3.908456
  113         h1      3    bbb    H15    113 0.13554100   1.008000   ; qtot 4.043997
  114         h1      3    bbb    H16    114 0.13554100   1.008000   ; qtot 4.179538
  115         c3      3    bbb     C9    115 -0.06455200  12.010000   ; qtot 4.114986
  116         h1      3    bbb    H17    116 0.13554100   1.008000   ; qtot 4.250527
  117         h1      3    bbb    H18    117 0.13554100   1.008000   ; qtot 4.386068
  118         os      3    bbb     O1    118 -0.62587700  16.000000   ; qtot 3.760191
  119         hn      3    bbb    H19    119 0.23982500   1.008000   ; qtot 4.000016
; residue    4 bbb rtp bbb q 1.0
  120         n4      4    bbb     N1    120 0.03726400  14.010000   ; qtot 4.037280
  121         c3      4    bbb     C1    121 -0.07020100  12.010000   ; qtot 3.967079
  122         hx      4    bbb     H1    122 0.12219000   1.008000   ; qtot 4.089269
  123         hx      4    bbb     H2    123 0.12219000   1.008000   ; qtot 4.211459
  124         c3      4    bbb     C2    124 -0.07020100  12.010000   ; qtot 4.141258
  125         hx      4    bbb     H3    125 0.12219000   1.008000   ; qtot 4.263448
  126         hx      4    bbb     H4    126 0.12219000   1.008000   ; qtot 4.385638
  127         c3      4    bbb     C3    127 -0.39007700  12.010000   ; qtot 3.995561
  128         hx      4    bbb     H5    128 0.14940300   1.008000   ; qtot 4.144964
  129         hx      4    bbb     H6    129 0.14940300   1.008000   ; qtot 4.294367
  130         c3      4    bbb     C4    130 0.18057300  12.010000   ; qtot 4.474940
  131         hc      4    bbb     H7    131 0.01788900   1.008000   ; qtot 4.492829
  132         hc      4    bbb     H8    132 0.01788900   1.008000   ; qtot 4.510718
  133         c3      4    bbb     C5    133 -0.11337700  12.010000   ; qtot 4.397341
  134         hc      4    bbb     H9    134 0.09515400   1.008000   ; qtot 4.492495
  135         hc      4    bbb    H10    135 0.09515400   1.008000   ; qtot 4.587649
  136         c3      4    bbb     C6    136 -0.11337700  12.010000   ; qtot 4.474272
  137         hc      4    bbb    H11    137 0.09515400   1.008000   ; qtot 4.569426
  138         hc      4    bbb    H12    138 0.09515400   1.008000   ; qtot 4.664580
  139         c3      4    bbb     C7    139 0.21842400  12.010000   ; qtot 4.883004
  140         h1      4    bbb    H13    140 0.04500300   1.008000   ; qtot 4.928007
  141         h1      4    bbb    H14    141 0.04500300   1.008000   ; qtot 4.973010
  142         c3      4    bbb     C8    142 -0.06455200  12.010000   ; qtot 4.908458
  143         h1      4    bbb    H15    143 0.13554100   1.008000   ; qtot 5.043999
  144         h1      4    bbb    H16    144 0.13554100   1.008000   ; qtot 5.179540
  145         c3      4    bbb     C9    145 -0.06455200  12.010000   ; qtot 5.114988
  146         h1      4    bbb    H17    146 0.13554100   1.008000   ; qtot 5.250529
  147         h1      4    bbb    H18    147 0.13554100   1.008000   ; qtot 5.386070
  148         os      4    bbb     O1    148 -0.62587700  16.000000   ; qtot 4.760193
  149         hn      4    bbb    H19    149 0.23982500   1.008000   ; qtot 5.000018
; residue    5 bbb rtp bbb q 1.0
  150         n4      5    bbb     N1    150 0.03726400  14.010000   ; qtot 5.037282
  151         c3      5    bbb     C1    151 -0.07020100  12.010000   ; qtot 4.967081
  152         hx      5    bbb     H1    152 0.12219000   1.008000   ; qtot 5.089271
  153         hx      5    bbb     H2    153 0.12219000   1.008000   ; qtot 5.211461
  154         c3      5    bbb     C2    154 -0.07020100  12.010000   ; qtot 5.141260
  155         hx      5    bbb     H3    155 0.12219000   1.008000   ; qtot 5.263450
  156         hx      5    bbb     H4    156 0.12219000   1.008000   ; qtot 5.385640
  157         c3      5    bbb     C3    157 -0.39007700  12.010000   ; qtot 4.995563
  158         hx      5    bbb     H5    158 0.14940300   1.008000   ; qtot 5.144966
  159         hx      5    bbb     H6    159 0.14940300   1.008000   ; qtot 5.294369
  160         c3      5    bbb     C4    160 0.18057300  12.010000   ; qtot 5.474942
  161         hc      5    bbb     H7    161 0.01788900   1.008000   ; qtot 5.492831
  162         hc      5    bbb     H8    162 0.01788900   1.008000   ; qtot 5.510720
  163         c3      5    bbb     C5    163 -0.11337700  12.010000   ; qtot 5.397343
  164         hc      5    bbb     H9    164 0.09515400   1.008000   ; qtot 5.492497
  165         hc      5    bbb    H10    165 0.09515400   1.008000   ; qtot 5.587651
  166         c3      5    bbb     C6    166 -0.11337700  12.010000   ; qtot 5.474274
  167         hc      5    bbb    H11    167 0.09515400   1.008000   ; qtot 5.569428
  168         hc      5    bbb    H12    168 0.09515400   1.008000   ; qtot 5.664582
  169         c3      5    bbb     C7    169 0.21842400  12.010000   ; qtot 5.883006
  170         h1      5    bbb    H13    170 0.04500300   1.008000   ; qtot 5.928009
  171         h1      5    bbb    H14    171 0.04500300   1.008000   ; qtot 5.973012
  172         c3      5    bbb     C8    172 -0.06455200  12.010000   ; qtot 5.908460
  173         h1      5    bbb    H15    173 0.13554100   1.008000   ; qtot 6.044001
  174         h1      5    bbb    H16    174 0.13554100   1.008000   ; qtot 6.179542
  175         c3      5    bbb     C9    175 -0.06455200  12.010000   ; qtot 6.114990
  176         h1      5    bbb    H17    176 0.13554100   1.008000   ; qtot 6.250531
  177         h1      5    bbb    H18    177 0.13554100   1.008000   ; qtot 6.386072
  178         os      5    bbb     O1    178 -0.62587700  16.000000   ; qtot 5.760195
  179         hn      5    bbb    H19    179 0.23982500   1.008000   ; qtot 6.000020
; residue    6 bbb rtp bbb q 1.0
  180         n4      6    bbb     N1    180 0.03726400  14.010000   ; qtot 6.037284
  181         c3      6    bbb     C1    181 -0.07020100  12.010000   ; qtot 5.967083
  182         hx      6    bbb     H1    182 0.12219000   1.008000   ; qtot 6.089273
  183         hx      6    bbb     H2    183 0.12219000   1.008000   ; qtot 6.211463
  184         c3      6    bbb     C2    184 -0.07020100  12.010000   ; qtot 6.141262
  185         hx      6    bbb     H3    185 0.12219000   1.008000   ; qtot 6.263452
  186         hx      6    bbb     H4    186 0.12219000   1.008000   ; qtot 6.385642
  187         c3      6    bbb     C3    187 -0.39007700  12.010000   ; qtot 5.995565
  188         hx      6    bbb     H5    188 0.14940300   1.008000   ; qtot 6.144968
  189         hx      6    bbb     H6    189 0.14940300   1.008000   ; qtot 6.294371
  190         c3      6    bbb     C4    190 0.18057300  12.010000   ; qtot 6.474944
  191         hc      6    bbb     H7    191 0.01788900   1.008000   ; qtot 6.492833
  192         hc      6    bbb     H8    192 0.01788900   1.008000   ; qtot 6.510722
  193         c3      6    bbb     C5    193 -0.11337700  12.010000   ; qtot 6.397345
  194         hc      6    bbb     H9    194 0.09515400   1.008000   ; qtot 6.492499
  195         hc      6    bbb    H10    195 0.09515400   1.008000   ; qtot 6.587653
  196         c3      6    bbb     C6    196 -0.11337700  12.010000   ; qtot 6.474276
  197         hc      6    bbb    H11    197 0.09515400   1.008000   ; qtot 6.569430
  198         hc      6    bbb    H12    198 0.09515400   1.008000   ; qtot 6.664584
  199         c3      6    bbb     C7    199 0.21842400  12.010000   ; qtot 6.883008
  200         h1      6    bbb    H13    200 0.04500300   1.008000   ; qtot 6.928011
  201         h1      6    bbb    H14    201 0.04500300   1.008000   ; qtot 6.973014
  202         c3      6    bbb     C8    202 -0.06455200  12.010000   ; qtot 6.908462
  203         h1      6    bbb    H15    203 0.13554100   1.008000   ; qtot 7.044003
  204         h1      6    bbb    H16    204 0.13554100   1.008000   ; qtot 7.179544
  205         c3      6    bbb     C9    205 -0.06455200  12.010000   ; qtot 7.114992
  206         h1      6    bbb    H17    206 0.13554100   1.008000   ; qtot 7.250533
  207         h1      6    bbb    H18    207 0.13554100   1.008000   ; qtot 7.386074
  208         os      6    bbb     O1    208 -0.62587700  16.000000   ; qtot 6.760197
  209         hn      6    bbb    H19    209 0.23982500   1.008000   ; qtot 7.000022
; residue    7 bbb rtp bbb q 1.0
  210         n4      7    bbb     N1    210 0.03726400  14.010000   ; qtot 7.037286
  211         c3      7    bbb     C1    211 -0.07020100  12.010000   ; qtot 6.967085
  212         hx      7    bbb     H1    212 0.12219000   1.008000   ; qtot 7.089275
  213         hx      7    bbb     H2    213 0.12219000   1.008000   ; qtot 7.211465
  214         c3      7    bbb     C2    214 -0.07020100  12.010000   ; qtot 7.141264
  215         hx      7    bbb     H3    215 0.12219000   1.008000   ; qtot 7.263454
  216         hx      7    bbb     H4    216 0.12219000   1.008000   ; qtot 7.385644
  217         c3      7    bbb     C3    217 -0.39007700  12.010000   ; qtot 6.995567
  218         hx      7    bbb     H5    218 0.14940300   1.008000   ; qtot 7.144970
  219         hx      7    bbb     H6    219 0.14940300   1.008000   ; qtot 7.294373
  220         c3      7    bbb     C4    220 0.18057300  12.010000   ; qtot 7.474946
  221         hc      7    bbb     H7    221 0.01788900   1.008000   ; qtot 7.492835
  222         hc      7    bbb     H8    222 0.01788900   1.008000   ; qtot 7.510724
  223         c3      7    bbb     C5    223 -0.11337700  12.010000   ; qtot 7.397347
  224         hc      7    bbb     H9    224 0.09515400   1.008000   ; qtot 7.492501
  225         hc      7    bbb    H10    225 0.09515400   1.008000   ; qtot 7.587655
  226         c3      7    bbb     C6    226 -0.11337700  12.010000   ; qtot 7.474278
  227         hc      7    bbb    H11    227 0.09515400   1.008000   ; qtot 7.569432
  228         hc      7    bbb    H12    228 0.09515400   1.008000   ; qtot 7.664586
  229         c3      7    bbb     C7    229 0.21842400  12.010000   ; qtot 7.883010
  230         h1      7    bbb    H13    230 0.04500300   1.008000   ; qtot 7.928013
  231         h1      7    bbb    H14    231 0.04500300   1.008000   ; qtot 7.973016
  232         c3      7    bbb     C8    232 -0.06455200  12.010000   ; qtot 7.908464
  233         h1      7    bbb    H15    233 0.13554100   1.008000   ; qtot 8.044005
  234         h1      7    bbb    H16    234 0.13554100   1.008000   ; qtot 8.179546
  235         c3      7    bbb     C9    235 -0.06455200  12.010000   ; qtot 8.114994
  236         h1      7    bbb    H17    236 0.13554100   1.008000   ; qtot 8.250535
  237         h1      7    bbb    H18    237 0.13554100   1.008000   ; qtot 8.386076
  238         os      7    bbb     O1    238 -0.62587700  16.000000   ; qtot 7.760199
  239         hn      7    bbb    H19    239 0.23982500   1.008000   ; qtot 8.000024
; residue    8 bbb rtp bbb q 1.0
  240         n4      8    bbb     N1    240 0.03726400  14.010000   ; qtot 8.037288
  241         c3      8    bbb     C1    241 -0.07020100  12.010000   ; qtot 7.967087
  242         hx      8    bbb     H1    242 0.12219000   1.008000   ; qtot 8.089277
  243         hx      8    bbb     H2    243 0.12219000   1.008000   ; qtot 8.211467
  244         c3      8    bbb     C2    244 -0.07020100  12.010000   ; qtot 8.141266
  245         hx      8    bbb     H3    245 0.12219000   1.008000   ; qtot 8.263456
  246         hx      8    bbb     H4    246 0.12219000   1.008000   ; qtot 8.385646
  247         c3      8    bbb     C3    247 -0.39007700  12.010000   ; qtot 7.995569
  248         hx      8    bbb     H5    248 0.14940300   1.008000   ; qtot 8.144972
  249         hx      8    bbb     H6    249 0.14940300   1.008000   ; qtot 8.294375
  250         c3      8    bbb     C4    250 0.18057300  12.010000   ; qtot 8.474948
  251         hc      8    bbb     H7    251 0.01788900   1.008000   ; qtot 8.492837
  252         hc      8    bbb     H8    252 0.01788900   1.008000   ; qtot 8.510726
  253         c3      8    bbb     C5    253 -0.11337700  12.010000   ; qtot 8.397349
  254         hc      8    bbb     H9    254 0.09515400   1.008000   ; qtot 8.492503
  255         hc      8    bbb    H10    255 0.09515400   1.008000   ; qtot 8.587657
  256         c3      8    bbb     C6    256 -0.11337700  12.010000   ; qtot 8.474280
  257         hc      8    bbb    H11    257 0.09515400   1.008000   ; qtot 8.569434
  258         hc      8    bbb    H12    258 0.09515400   1.008000   ; qtot 8.664588
  259         c3      8    bbb     C7    259 0.21842400  12.010000   ; qtot 8.883012
  260         h1      8    bbb    H13    260 0.04500300   1.008000   ; qtot 8.928015
  261         h1      8    bbb    H14    261 0.04500300   1.008000   ; qtot 8.973018
  262         c3      8    bbb     C8    262 -0.06455200  12.010000   ; qtot 8.908466
  263         h1      8    bbb    H15    263 0.13554100   1.008000   ; qtot 9.044007
  264         h1      8    bbb    H16    264 0.13554100   1.008000   ; qtot 9.179548
  265         c3      8    bbb     C9    265 -0.06455200  12.010000   ; qtot 9.114996
  266         h1      8    bbb    H17    266 0.13554100   1.008000   ; qtot 9.250537
  267         h1      8    bbb    H18    267 0.13554100   1.008000   ; qtot 9.386078
  268         os      8    bbb     O1    268 -0.62587700  16.000000   ; qtot 8.760201
  269         hn      8    bbb    H19    269 0.23982500   1.008000   ; qtot 9.000026
; residue    9 bbb rtp bbb q 1.0
  270         n4      9    bbb     N1    270 0.03726400  14.010000   ; qtot 9.037290
  271         c3      9    bbb     C1    271 -0.07020100  12.010000   ; qtot 8.967089
  272         hx      9    bbb     H1    272 0.12219000   1.008000   ; qtot 9.089279
  273         hx      9    bbb     H2    273 0.12219000   1.008000   ; qtot 9.211469
  274         c3      9    bbb     C2    274 -0.07020100  12.010000   ; qtot 9.141268
  275         hx      9    bbb     H3    275 0.12219000   1.008000   ; qtot 9.263458
  276         hx      9    bbb     H4    276 0.12219000   1.008000   ; qtot 9.385648
  277         c3      9    bbb     C3    277 -0.39007700  12.010000   ; qtot 8.995571
  278         hx      9    bbb     H5    278 0.14940300   1.008000   ; qtot 9.144974
  279         hx      9    bbb     H6    279 0.14940300   1.008000   ; qtot 9.294377
  280         c3      9    bbb     C4    280 0.18057300  12.010000   ; qtot 9.474950
  281         hc      9    bbb     H7    281 0.01788900   1.008000   ; qtot 9.492839
  282         hc      9    bbb     H8    282 0.01788900   1.008000   ; qtot 9.510728
  283         c3      9    bbb     C5    283 -0.11337700  12.010000   ; qtot 9.397351
  284         hc      9    bbb     H9    284 0.09515400   1.008000   ; qtot 9.492505
  285         hc      9    bbb    H10    285 0.09515400   1.008000   ; qtot 9.587659
  286         c3      9    bbb     C6    286 -0.11337700  12.010000   ; qtot 9.474282
  287         hc      9    bbb    H11    287 0.09515400   1.008000   ; qtot 9.569436
  288         hc      9    bbb    H12    288 0.09515400   1.008000   ; qtot 9.664590
  289         c3      9    bbb     C7    289 0.21842400  12.010000   ; qtot 9.883014
  290         h1      9    bbb    H13    290 0.04500300   1.008000   ; qtot 9.928017
  291         h1      9    bbb    H14    291 0.04500300   1.008000   ; qtot 9.973020
  292         c3      9    bbb     C8    292 -0.06455200  12.010000   ; qtot 9.908468
  293         h1      9    bbb    H15    293 0.13554100   1.008000   ; qtot 10.044009
  294         h1      9    bbb    H16    294 0.13554100   1.008000   ; qtot 10.179550
  295         c3      9    bbb     C9    295 -0.06455200  12.010000   ; qtot 10.114998
  296         h1      9    bbb    H17    296 0.13554100   1.008000   ; qtot 10.250539
  297         h1      9    bbb    H18    297 0.13554100   1.008000   ; qtot 10.386080
  298         os      9    bbb     O1    298 -0.62587700  16.000000   ; qtot 9.760203
  299         hn      9    bbb    H19    299 0.23982500   1.008000   ; qtot 10.000028
; residue   10 bbb rtp bbb q 1.0
  300         n4     10    bbb     N1    300 0.03726400  14.010000   ; qtot 10.037292
  301         c3     10    bbb     C1    301 -0.07020100  12.010000   ; qtot 9.967091
  302         hx     10    bbb     H1    302 0.12219000   1.008000   ; qtot 10.089281
  303         hx     10    bbb     H2    303 0.12219000   1.008000   ; qtot 10.211471
  304         c3     10    bbb     C2    304 -0.07020100  12.010000   ; qtot 10.141270
  305         hx     10    bbb     H3    305 0.12219000   1.008000   ; qtot 10.263460
  306         hx     10    bbb     H4    306 0.12219000   1.008000   ; qtot 10.385650
  307         c3     10    bbb     C3    307 -0.39007700  12.010000   ; qtot 9.995573
  308         hx     10    bbb     H5    308 0.14940300   1.008000   ; qtot 10.144976
  309         hx     10    bbb     H6    309 0.14940300   1.008000   ; qtot 10.294379
  310         c3     10    bbb     C4    310 0.18057300  12.010000   ; qtot 10.474952
  311         hc     10    bbb     H7    311 0.01788900   1.008000   ; qtot 10.492841
  312         hc     10    bbb     H8    312 0.01788900   1.008000   ; qtot 10.510730
  313         c3     10    bbb     C5    313 -0.11337700  12.010000   ; qtot 10.397353
  314         hc     10    bbb     H9    314 0.09515400   1.008000   ; qtot 10.492507
  315         hc     10    bbb    H10    315 0.09515400   1.008000   ; qtot 10.587661
  316         c3     10    bbb     C6    316 -0.11337700  12.010000   ; qtot 10.474284
  317         hc     10    bbb    H11    317 0.09515400   1.008000   ; qtot 10.569438
  318         hc     10    bbb    H12    318 0.09515400   1.008000   ; qtot 10.664592
  319         c3     10    bbb     C7    319 0.21842400  12.010000   ; qtot 10.883016
  320         h1     10    bbb    H13    320 0.04500300   1.008000   ; qtot 10.928019
  321         h1     10    bbb    H14    321 0.04500300   1.008000   ; qtot 10.973022
  322         c3     10    bbb     C8    322 -0.06455200  12.010000   ; qtot 10.908470
  323         h1     10    bbb    H15    323 0.13554100   1.008000   ; qtot 11.044011
  324         h1     10    bbb    H16    324 0.13554100   1.008000   ; qtot 11.179552
  325         c3     10    bbb     C9    325 -0.06455200  12.010000   ; qtot 11.115000
  326         h1     10    bbb    H17    326 0.13554100   1.008000   ; qtot 11.250541
  327         h1     10    bbb    H18    327 0.13554100   1.008000   ; qtot 11.386082
  328         os     10    bbb     O1    328 -0.62587700  16.000000   ; qtot 10.760205
  329         hn     10    bbb    H19    329 0.23982500   1.008000   ; qtot 11.000030
; residue   11 bbb rtp bbb q 1.0
  330         n4     11    bbb     N1    330 0.03726400  14.010000   ; qtot 11.037294
  331         c3     11    bbb     C1    331 -0.07020100  12.010000   ; qtot 10.967093
  332         hx     11    bbb     H1    332 0.12219000   1.008000   ; qtot 11.089283
  333         hx     11    bbb     H2    333 0.12219000   1.008000   ; qtot 11.211473
  334         c3     11    bbb     C2    334 -0.07020100  12.010000   ; qtot 11.141272
  335         hx     11    bbb     H3    335 0.12219000   1.008000   ; qtot 11.263462
  336         hx     11    bbb     H4    336 0.12219000   1.008000   ; qtot 11.385652
  337         c3     11    bbb     C3    337 -0.39007700  12.010000   ; qtot 10.995575
  338         hx     11    bbb     H5    338 0.14940300   1.008000   ; qtot 11.144978
  339         hx     11    bbb     H6    339 0.14940300   1.008000   ; qtot 11.294381
  340         c3     11    bbb     C4    340 0.18057300  12.010000   ; qtot 11.474954
  341         hc     11    bbb     H7    341 0.01788900   1.008000   ; qtot 11.492843
  342         hc     11    bbb     H8    342 0.01788900   1.008000   ; qtot 11.510732
  343         c3     11    bbb     C5    343 -0.11337700  12.010000   ; qtot 11.397355
  344         hc     11    bbb     H9    344 0.09515400   1.008000   ; qtot 11.492509
  345         hc     11    bbb    H10    345 0.09515400   1.008000   ; qtot 11.587663
  346         c3     11    bbb     C6    346 -0.11337700  12.010000   ; qtot 11.474286
  347         hc     11    bbb    H11    347 0.09515400   1.008000   ; qtot 11.569440
  348         hc     11    bbb    H12    348 0.09515400   1.008000   ; qtot 11.664594
  349         c3     11    bbb     C7    349 0.21842400  12.010000   ; qtot 11.883018
  350         h1     11    bbb    H13    350 0.04500300   1.008000   ; qtot 11.928021
  351         h1     11    bbb    H14    351 0.04500300   1.008000   ; qtot 11.973024
  352         c3     11    bbb     C8    352 -0.06455200  12.010000   ; qtot 11.908472
  353         h1     11    bbb    H15    353 0.13554100   1.008000   ; qtot 12.044013
  354         h1     11    bbb    H16    354 0.13554100   1.008000   ; qtot 12.179554
  355         c3     11    bbb     C9    355 -0.06455200  12.010000   ; qtot 12.115002
  356         h1     11    bbb    H17    356 0.13554100   1.008000   ; qtot 12.250543
  357         h1     11    bbb    H18    357 0.13554100   1.008000   ; qtot 12.386084
  358         os     11    bbb     O1    358 -0.62587700  16.000000   ; qtot 11.760207
  359         hn     11    bbb    H19    359 0.23982500   1.008000   ; qtot 12.000032
; residue   12 bbb rtp bbb q 1.0
  360         n4     12    bbb     N1    360 0.03726400  14.010000   ; qtot 12.037296
  361         c3     12    bbb     C1    361 -0.07020100  12.010000   ; qtot 11.967095
  362         hx     12    bbb     H1    362 0.12219000   1.008000   ; qtot 12.089285
  363         hx     12    bbb     H2    363 0.12219000   1.008000   ; qtot 12.211475
  364         c3     12    bbb     C2    364 -0.07020100  12.010000   ; qtot 12.141274
  365         hx     12    bbb     H3    365 0.12219000   1.008000   ; qtot 12.263464
  366         hx     12    bbb     H4    366 0.12219000   1.008000   ; qtot 12.385654
  367         c3     12    bbb     C3    367 -0.39007700  12.010000   ; qtot 11.995577
  368         hx     12    bbb     H5    368 0.14940300   1.008000   ; qtot 12.144980
  369         hx     12    bbb     H6    369 0.14940300   1.008000   ; qtot 12.294383
  370         c3     12    bbb     C4    370 0.18057300  12.010000   ; qtot 12.474956
  371         hc     12    bbb     H7    371 0.01788900   1.008000   ; qtot 12.492845
  372         hc     12    bbb     H8    372 0.01788900   1.008000   ; qtot 12.510734
  373         c3     12    bbb     C5    373 -0.11337700  12.010000   ; qtot 12.397357
  374         hc     12    bbb     H9    374 0.09515400   1.008000   ; qtot 12.492511
  375         hc     12    bbb    H10    375 0.09515400   1.008000   ; qtot 12.587665
  376         c3     12    bbb     C6    376 -0.11337700  12.010000   ; qtot 12.474288
  377         hc     12    bbb    H11    377 0.09515400   1.008000   ; qtot 12.569442
  378         hc     12    bbb    H12    378 0.09515400   1.008000   ; qtot 12.664596
  379         c3     12    bbb     C7    379 0.21842400  12.010000   ; qtot 12.883020
  380         h1     12    bbb    H13    380 0.04500300   1.008000   ; qtot 12.928023
  381         h1     12    bbb    H14    381 0.04500300   1.008000   ; qtot 12.973026
  382         c3     12    bbb     C8    382 -0.06455200  12.010000   ; qtot 12.908474
  383         h1     12    bbb    H15    383 0.13554100   1.008000   ; qtot 13.044015
  384         h1     12    bbb    H16    384 0.13554100   1.008000   ; qtot 13.179556
  385         c3     12    bbb     C9    385 -0.06455200  12.010000   ; qtot 13.115004
  386         h1     12    bbb    H17    386 0.13554100   1.008000   ; qtot 13.250545
  387         h1     12    bbb    H18    387 0.13554100   1.008000   ; qtot 13.386086
  388         os     12    bbb     O1    388 -0.62587700  16.000000   ; qtot 12.760209
  389         hn     12    bbb    H19    389 0.23982500   1.008000   ; qtot 13.000034
; residue   13 bbb rtp bbb q 1.0
  390         n4     13    bbb     N1    390 0.03726400  14.010000   ; qtot 13.037298
  391         c3     13    bbb     C1    391 -0.07020100  12.010000   ; qtot 12.967097
  392         hx     13    bbb     H1    392 0.12219000   1.008000   ; qtot 13.089287
  393         hx     13    bbb     H2    393 0.12219000   1.008000   ; qtot 13.211477
  394         c3     13    bbb     C2    394 -0.07020100  12.010000   ; qtot 13.141276
  395         hx     13    bbb     H3    395 0.12219000   1.008000   ; qtot 13.263466
  396         hx     13    bbb     H4    396 0.12219000   1.008000   ; qtot 13.385656
  397         c3     13    bbb     C3    397 -0.39007700  12.010000   ; qtot 12.995579
  398         hx     13    bbb     H5    398 0.14940300   1.008000   ; qtot 13.144982
  399         hx     13    bbb     H6    399 0.14940300   1.008000   ; qtot 13.294385
  400         c3     13    bbb     C4    400 0.18057300  12.010000   ; qtot 13.474958
  401         hc     13    bbb     H7    401 0.01788900   1.008000   ; qtot 13.492847
  402         hc     13    bbb     H8    402 0.01788900   1.008000   ; qtot 13.510736
  403         c3     13    bbb     C5    403 -0.11337700  12.010000   ; qtot 13.397359
  404         hc     13    bbb     H9    404 0.09515400   1.008000   ; qtot 13.492513
  405         hc     13    bbb    H10    405 0.09515400   1.008000   ; qtot 13.587667
  406         c3     13    bbb     C6    406 -0.11337700  12.010000   ; qtot 13.474290
  407         hc     13    bbb    H11    407 0.09515400   1.008000   ; qtot 13.569444
  408         hc     13    bbb    H12    408 0.09515400   1.008000   ; qtot 13.664598
  409         c3     13    bbb     C7    409 0.21842400  12.010000   ; qtot 13.883022
  410         h1     13    bbb    H13    410 0.04500300   1.008000   ; qtot 13.928025
  411         h1     13    bbb    H14    411 0.04500300   1.008000   ; qtot 13.973028
  412         c3     13    bbb     C8    412 -0.06455200  12.010000   ; qtot 13.908476
  413         h1     13    bbb    H15    413 0.13554100   1.008000   ; qtot 14.044017
  414         h1     13    bbb    H16    414 0.13554100   1.008000   ; qtot 14.179558
  415         c3     13    bbb     C9    415 -0.06455200  12.010000   ; qtot 14.115006
  416         h1     13    bbb    H17    416 0.13554100   1.008000   ; qtot 14.250547
  417         h1     13    bbb    H18    417 0.13554100   1.008000   ; qtot 14.386088
  418         os     13    bbb     O1    418 -0.62587700  16.000000   ; qtot 13.760211
  419         hn     13    bbb    H19    419 0.23982500   1.008000   ; qtot 14.000036
; residue   14 ccc rtp ccc q 0.0
  420         c3     14    ccc     C1    420 -0.33178800  12.010000   ; qtot 13.668248
  421         c3     14    ccc     C2    421 0.30606500  12.010000   ; qtot 13.974313
  422         h1     14    ccc     H1    422 0.11662300   1.008000   ; qtot 14.090936
  423         h1     14    ccc     H2    423 0.11526800   1.008000   ; qtot 14.206204
  424         c3     14    ccc     C3    424 0.15592700  12.010000   ; qtot 14.362131
  425         c3     14    ccc     C4    425 0.28383300  12.010000   ; qtot 14.645964
  426         c3     14    ccc     C5    426 0.32403300  12.010000   ; qtot 14.969997
  427         h1     14    ccc     H3    427 0.13386900   1.008000   ; qtot 15.103866
  428         h1     14    ccc     H4    428 0.10146700   1.008000   ; qtot 15.205333
  429         h2     14    ccc     H5    429 0.10960400   1.008000   ; qtot 15.314937
  430         os     14    ccc     O1    430 -0.28650000  16.000000   ; qtot 15.028437
  431         oh     14    ccc     O2    431 -0.86012500  16.000000   ; qtot 14.168312
  432         oh     14    ccc     O3    432 -0.83772800  16.000000   ; qtot 13.330584
  433         oh     14    ccc     O4    433 -0.77449700  16.000000   ; qtot 12.556087
  434         c3     14    ccc     C6    434 0.37576500  12.010000   ; qtot 12.931852
  435         ho     14    ccc     H6    435 0.53656000   1.008000   ; qtot 13.468412
  436         ho     14    ccc     H7    436 0.49492100   1.008000   ; qtot 13.963333
  437         ho     14    ccc     H8    437 0.51297200   1.008000   ; qtot 14.476305
  438         h1     14    ccc     H9    438 0.05653400   1.008000   ; qtot 14.532839
  439         h1     14    ccc    H10    439 0.05653400   1.008000   ; qtot 14.589373
  440         oh     14    ccc     O5    440 -0.84113600  16.000000   ; qtot 13.748237
  441         ho     14    ccc    H11    441 0.51201600   1.008000   ; qtot 14.260253
  442         os     14    ccc     O6    442 -0.26013600  16.000000   ; qtot 14.000117
; residue   15 ccc rtp ccc q 0.0
  443         c3     15    ccc     C1    443 -0.33178800  12.010000   ; qtot 13.668329
  444         c3     15    ccc     C2    444 0.30606500  12.010000   ; qtot 13.974394
  445         h1     15    ccc     H1    445 0.11662300   1.008000   ; qtot 14.091017
  446         h1     15    ccc     H2    446 0.11526800   1.008000   ; qtot 14.206285
  447         c3     15    ccc     C3    447 0.15592700  12.010000   ; qtot 14.362212
  448         c3     15    ccc     C4    448 0.28383300  12.010000   ; qtot 14.646045
  449         c3     15    ccc     C5    449 0.32403300  12.010000   ; qtot 14.970078
  450         h1     15    ccc     H3    450 0.13386900   1.008000   ; qtot 15.103947
  451         h1     15    ccc     H4    451 0.10146700   1.008000   ; qtot 15.205414
  452         h2     15    ccc     H5    452 0.10960400   1.008000   ; qtot 15.315018
  453         os     15    ccc     O1    453 -0.28650000  16.000000   ; qtot 15.028518
  454         oh     15    ccc     O2    454 -0.86012500  16.000000   ; qtot 14.168393
  455         oh     15    ccc     O3    455 -0.83772800  16.000000   ; qtot 13.330665
  456         oh     15    ccc     O4    456 -0.77449700  16.000000   ; qtot 12.556168
  457         c3     15    ccc     C6    457 0.37576500  12.010000   ; qtot 12.931933
  458         ho     15    ccc     H6    458 0.53656000   1.008000   ; qtot 13.468493
  459         ho     15    ccc     H7    459 0.49492100   1.008000   ; qtot 13.963414
  460         ho     15    ccc     H8    460 0.51297200   1.008000   ; qtot 14.476386
  461         h1     15    ccc     H9    461 0.05653400   1.008000   ; qtot 14.532920
  462         h1     15    ccc    H10    462 0.05653400   1.008000   ; qtot 14.589454
  463         oh     15    ccc     O5    463 -0.84113600  16.000000   ; qtot 13.748318
  464         ho     15    ccc    H11    464 0.51201600   1.008000   ; qtot 14.260334
  465         os     15    ccc     O6    465 -0.26013600  16.000000   ; qtot 14.000198
; residue   16 ccc rtp ccc q 0.0
  466         c3     16    ccc     C1    466 -0.33178800  12.010000   ; qtot 13.668410
  467         c3     16    ccc     C2    467 0.30606500  12.010000   ; qtot 13.974475
  468         h1     16    ccc     H1    468 0.11662300   1.008000   ; qtot 14.091098
  469         h1     16    ccc     H2    469 0.11526800   1.008000   ; qtot 14.206366
  470         c3     16    ccc     C3    470 0.15592700  12.010000   ; qtot 14.362293
  471         c3     16    ccc     C4    471 0.28383300  12.010000   ; qtot 14.646126
  472         c3     16    ccc     C5    472 0.32403300  12.010000   ; qtot 14.970159
  473         h1     16    ccc     H3    473 0.13386900   1.008000   ; qtot 15.104028
  474         h1     16    ccc     H4    474 0.10146700   1.008000   ; qtot 15.205495
  475         h2     16    ccc     H5    475 0.10960400   1.008000   ; qtot 15.315099
  476         os     16    ccc     O1    476 -0.28650000  16.000000   ; qtot 15.028599
  477         oh     16    ccc     O2    477 -0.86012500  16.000000   ; qtot 14.168474
  478         oh     16    ccc     O3    478 -0.83772800  16.000000   ; qtot 13.330746
  479         oh     16    ccc     O4    479 -0.77449700  16.000000   ; qtot 12.556249
  480         c3     16    ccc     C6    480 0.37576500  12.010000   ; qtot 12.932014
  481         ho     16    ccc     H6    481 0.53656000   1.008000   ; qtot 13.468574
  482         ho     16    ccc     H7    482 0.49492100   1.008000   ; qtot 13.963495
  483         ho     16    ccc     H8    483 0.51297200   1.008000   ; qtot 14.476467
  484         h1     16    ccc     H9    484 0.05653400   1.008000   ; qtot 14.533001
  485         h1     16    ccc    H10    485 0.05653400   1.008000   ; qtot 14.589535
  486         oh     16    ccc     O5    486 -0.84113600  16.000000   ; qtot 13.748399
  487         ho     16    ccc    H11    487 0.51201600   1.008000   ; qtot 14.260415
  488         os     16    ccc     O6    488 -0.26013600  16.000000   ; qtot 14.000279
; residue   17 ccc rtp ccc q 0.0
  489         c3     17    ccc     C1    489 -0.33178800  12.010000   ; qtot 13.668491
  490         c3     17    ccc     C2    490 0.30606500  12.010000   ; qtot 13.974556
  491         h1     17    ccc     H1    491 0.11662300   1.008000   ; qtot 14.091179
  492         h1     17    ccc     H2    492 0.11526800   1.008000   ; qtot 14.206447
  493         c3     17    ccc     C3    493 0.15592700  12.010000   ; qtot 14.362374
  494         c3     17    ccc     C4    494 0.28383300  12.010000   ; qtot 14.646207
  495         c3     17    ccc     C5    495 0.32403300  12.010000   ; qtot 14.970240
  496         h1     17    ccc     H3    496 0.13386900   1.008000   ; qtot 15.104109
  497         h1     17    ccc     H4    497 0.10146700   1.008000   ; qtot 15.205576
  498         h2     17    ccc     H5    498 0.10960400   1.008000   ; qtot 15.315180
  499         os     17    ccc     O1    499 -0.28650000  16.000000   ; qtot 15.028680
  500         oh     17    ccc     O2    500 -0.86012500  16.000000   ; qtot 14.168555
  501         oh     17    ccc     O3    501 -0.83772800  16.000000   ; qtot 13.330827
  502         oh     17    ccc     O4    502 -0.77449700  16.000000   ; qtot 12.556330
  503         c3     17    ccc     C6    503 0.37576500  12.010000   ; qtot 12.932095
  504         ho     17    ccc     H6    504 0.53656000   1.008000   ; qtot 13.468655
  505         ho     17    ccc     H7    505 0.49492100   1.008000   ; qtot 13.963576
  506         ho     17    ccc     H8    506 0.51297200   1.008000   ; qtot 14.476548
  507         h1     17    ccc     H9    507 0.05653400   1.008000   ; qtot 14.533082
  508         h1     17    ccc    H10    508 0.05653400   1.008000   ; qtot 14.589616
  509         oh     17    ccc     O5    509 -0.84113600  16.000000   ; qtot 13.748480
  510         ho     17    ccc    H11    510 0.51201600   1.008000   ; qtot 14.260496
  511         os     17    ccc     O6    511 -0.26013600  16.000000   ; qtot 14.000360
; residue   18 ccc rtp ccc q 0.0
  512         c3     18    ccc     C1    512 -0.33178800  12.010000   ; qtot 13.668572
  513         c3     18    ccc     C2    513 0.30606500  12.010000   ; qtot 13.974637
  514         h1     18    ccc     H1    514 0.11662300   1.008000   ; qtot 14.091260
  515         h1     18    ccc     H2    515 0.11526800   1.008000   ; qtot 14.206528
  516         c3     18    ccc     C3    516 0.15592700  12.010000   ; qtot 14.362455
  517         c3     18    ccc     C4    517 0.28383300  12.010000   ; qtot 14.646288
  518         c3     18    ccc     C5    518 0.32403300  12.010000   ; qtot 14.970321
  519         h1     18    ccc     H3    519 0.13386900   1.008000   ; qtot 15.104190
  520         h1     18    ccc     H4    520 0.10146700   1.008000   ; qtot 15.205657
  521         h2     18    ccc     H5    521 0.10960400   1.008000   ; qtot 15.315261
  522         os     18    ccc     O1    522 -0.28650000  16.000000   ; qtot 15.028761
  523         oh     18    ccc     O2    523 -0.86012500  16.000000   ; qtot 14.168636
  524         oh     18    ccc     O3    524 -0.83772800  16.000000   ; qtot 13.330908
  525         oh     18    ccc     O4    525 -0.77449700  16.000000   ; qtot 12.556411
  526         c3     18    ccc     C6    526 0.37576500  12.010000   ; qtot 12.932176
  527         ho     18    ccc     H6    527 0.53656000   1.008000   ; qtot 13.468736
  528         ho     18    ccc     H7    528 0.49492100   1.008000   ; qtot 13.963657
  529         ho     18    ccc     H8    529 0.51297200   1.008000   ; qtot 14.476629
  530         h1     18    ccc     H9    530 0.05653400   1.008000   ; qtot 14.533163
  531         h1     18    ccc    H10    531 0.05653400   1.008000   ; qtot 14.589697
  532         oh     18    ccc     O5    532 -0.84113600  16.000000   ; qtot 13.748561
  533         ho     18    ccc    H11    533 0.51201600   1.008000   ; qtot 14.260577
  534         os     18    ccc     O6    534 -0.26013600  16.000000   ; qtot 14.000441
; residue   19 ccc rtp ccc q 0.0
  535         c3     19    ccc     C1    535 -0.33178800  12.010000   ; qtot 13.668653
  536         c3     19    ccc     C2    536 0.30606500  12.010000   ; qtot 13.974718
  537         h1     19    ccc     H1    537 0.11662300   1.008000   ; qtot 14.091341
  538         h1     19    ccc     H2    538 0.11526800   1.008000   ; qtot 14.206609
  539         c3     19    ccc     C3    539 0.15592700  12.010000   ; qtot 14.362536
  540         c3     19    ccc     C4    540 0.28383300  12.010000   ; qtot 14.646369
  541         c3     19    ccc     C5    541 0.32403300  12.010000   ; qtot 14.970402
  542         h1     19    ccc     H3    542 0.13386900   1.008000   ; qtot 15.104271
  543         h1     19    ccc     H4    543 0.10146700   1.008000   ; qtot 15.205738
  544         h2     19    ccc     H5    544 0.10960400   1.008000   ; qtot 15.315342
  545         os     19    ccc     O1    545 -0.28650000  16.000000   ; qtot 15.028842
  546         oh     19    ccc     O2    546 -0.86012500  16.000000   ; qtot 14.168717
  547         oh     19    ccc     O3    547 -0.83772800  16.000000   ; qtot 13.330989
  548         oh     19    ccc     O4    548 -0.77449700  16.000000   ; qtot 12.556492
  549         c3     19    ccc     C6    549 0.37576500  12.010000   ; qtot 12.932257
  550         ho     19    ccc     H6    550 0.53656000   1.008000   ; qtot 13.468817
  551         ho     19    ccc     H7    551 0.49492100   1.008000   ; qtot 13.963738
  552         ho     19    ccc     H8    552 0.51297200   1.008000   ; qtot 14.476710
  553         h1     19    ccc     H9    553 0.05653400   1.008000   ; qtot 14.533244
  554         h1     19    ccc    H10    554 0.05653400   1.008000   ; qtot 14.589778
  555         oh     19    ccc     O5    555 -0.84113600  16.000000   ; qtot 13.748642
  556         ho     19    ccc    H11    556 0.51201600   1.008000   ; qtot 14.260658
  557         os     19    ccc     O6    557 -0.26013600  16.000000   ; qtot 14.000522
; residue   20 ccc rtp ccc q 0.0
  558         c3     20    ccc     C1    558 -0.33178800  12.010000   ; qtot 13.668734
  559         c3     20    ccc     C2    559 0.30606500  12.010000   ; qtot 13.974799
  560         h1     20    ccc     H1    560 0.11662300   1.008000   ; qtot 14.091422
  561         h1     20    ccc     H2    561 0.11526800   1.008000   ; qtot 14.206690
  562         c3     20    ccc     C3    562 0.15592700  12.010000   ; qtot 14.362617
  563         c3     20    ccc     C4    563 0.28383300  12.010000   ; qtot 14.646450
  564         c3     20    ccc     C5    564 0.32403300  12.010000   ; qtot 14.970483
  565         h1     20    ccc     H3    565 0.13386900   1.008000   ; qtot 15.104352
  566         h1     20    ccc     H4    566 0.10146700   1.008000   ; qtot 15.205819
  567         h2     20    ccc     H5    567 0.10960400   1.008000   ; qtot 15.315423
  568         os     20    ccc     O1    568 -0.28650000  16.000000   ; qtot 15.028923
  569         oh     20    ccc     O2    569 -0.86012500  16.000000   ; qtot 14.168798
  570         oh     20    ccc     O3    570 -0.83772800  16.000000   ; qtot 13.331070
  571         oh     20    ccc     O4    571 -0.77449700  16.000000   ; qtot 12.556573
  572         c3     20    ccc     C6    572 0.37576500  12.010000   ; qtot 12.932338
  573         ho     20    ccc     H6    573 0.53656000   1.008000   ; qtot 13.468898
  574         ho     20    ccc     H7    574 0.49492100   1.008000   ; qtot 13.963819
  575         ho     20    ccc     H8    575 0.51297200   1.008000   ; qtot 14.476791
  576         h1     20    ccc     H9    576 0.05653400   1.008000   ; qtot 14.533325
  577         h1     20    ccc    H10    577 0.05653400   1.008000   ; qtot 14.589859
  578         oh     20    ccc     O5    578 -0.84113600  16.000000   ; qtot 13.748723
  579         ho     20    ccc    H11    579 0.51201600   1.008000   ; qtot 14.260739
  580         os     20    ccc     O6    580 -0.26013600  16.000000   ; qtot 14.000603
; residue   21 ccc rtp ccc q 0.0
  581         c3     21    ccc     C1    581 -0.33178800  12.010000   ; qtot 13.668815
  582         c3     21    ccc     C2    582 0.30606500  12.010000   ; qtot 13.974880
  583         h1     21    ccc     H1    583 0.11662300   1.008000   ; qtot 14.091503
  584         h1     21    ccc     H2    584 0.11526800   1.008000   ; qtot 14.206771
  585         c3     21    ccc     C3    585 0.15592700  12.010000   ; qtot 14.362698
  586         c3     21    ccc     C4    586 0.28383300  12.010000   ; qtot 14.646531
  587         c3     21    ccc     C5    587 0.32403300  12.010000   ; qtot 14.970564
  588         h1     21    ccc     H3    588 0.13386900   1.008000   ; qtot 15.104433
  589         h1     21    ccc     H4    589 0.10146700   1.008000   ; qtot 15.205900
  590         h2     21    ccc     H5    590 0.10960400   1.008000   ; qtot 15.315504
  591         os     21    ccc     O1    591 -0.28650000  16.000000   ; qtot 15.029004
  592         oh     21    ccc     O2    592 -0.86012500  16.000000   ; qtot 14.168879
  593         oh     21    ccc     O3    593 -0.83772800  16.000000   ; qtot 13.331151
  594         oh     21    ccc     O4    594 -0.77449700  16.000000   ; qtot 12.556654
  595         c3     21    ccc     C6    595 0.37576500  12.010000   ; qtot 12.932419
  596         ho     21    ccc     H6    596 0.53656000   1.008000   ; qtot 13.468979
  597         ho     21    ccc     H7    597 0.49492100   1.008000   ; qtot 13.963900
  598         ho     21    ccc     H8    598 0.51297200   1.008000   ; qtot 14.476872
  599         h1     21    ccc     H9    599 0.05653400   1.008000   ; qtot 14.533406
  600         h1     21    ccc    H10    600 0.05653400   1.008000   ; qtot 14.589940
  601         oh     21    ccc     O5    601 -0.84113600  16.000000   ; qtot 13.748804
  602         ho     21    ccc    H11    602 0.51201600   1.008000   ; qtot 14.260820
  603         os     21    ccc     O6    603 -0.26013600  16.000000   ; qtot 14.000684
; residue   22 ccc rtp ccc q 0.0
  604         c3     22    ccc     C1    604 -0.33178800  12.010000   ; qtot 13.668896
  605         c3     22    ccc     C2    605 0.30606500  12.010000   ; qtot 13.974961
  606         h1     22    ccc     H1    606 0.11662300   1.008000   ; qtot 14.091584
  607         h1     22    ccc     H2    607 0.11526800   1.008000   ; qtot 14.206852
  608         c3     22    ccc     C3    608 0.15592700  12.010000   ; qtot 14.362779
  609         c3     22    ccc     C4    609 0.28383300  12.010000   ; qtot 14.646612
  610         c3     22    ccc     C5    610 0.32403300  12.010000   ; qtot 14.970645
  611         h1     22    ccc     H3    611 0.13386900   1.008000   ; qtot 15.104514
  612         h1     22    ccc     H4    612 0.10146700   1.008000   ; qtot 15.205981
  613         h2     22    ccc     H5    613 0.10960400   1.008000   ; qtot 15.315585
  614         os     22    ccc     O1    614 -0.28650000  16.000000   ; qtot 15.029085
  615         oh     22    ccc     O2    615 -0.86012500  16.000000   ; qtot 14.168960
  616         oh     22    ccc     O3    616 -0.83772800  16.000000   ; qtot 13.331232
  617         oh     22    ccc     O4    617 -0.77449700  16.000000   ; qtot 12.556735
  618         c3     22    ccc     C6    618 0.37576500  12.010000   ; qtot 12.932500
  619         ho     22    ccc     H6    619 0.53656000   1.008000   ; qtot 13.469060
  620         ho     22    ccc     H7    620 0.49492100   1.008000   ; qtot 13.963981
  621         ho     22    ccc     H8    621 0.51297200   1.008000   ; qtot 14.476953
  622         h1     22    ccc     H9    622 0.05653400   1.008000   ; qtot 14.533487
  623         h1     22    ccc    H10    623 0.05653400   1.008000   ; qtot 14.590021
  624         oh     22    ccc     O5    624 -0.84113600  16.000000   ; qtot 13.748885
  625         ho     22    ccc    H11    625 0.51201600   1.008000   ; qtot 14.260901
  626         os     22    ccc     O6    626 -0.26013600  16.000000   ; qtot 14.000765
; residue   23 ccc rtp ccc q 0.0
  627         c3     23    ccc     C1    627 -0.33178800  12.010000   ; qtot 13.668977
  628         c3     23    ccc     C2    628 0.30606500  12.010000   ; qtot 13.975042
  629         h1     23    ccc     H1    629 0.11662300   1.008000   ; qtot 14.091665
  630         h1     23    ccc     H2    630 0.11526800   1.008000   ; qtot 14.206933
  631         c3     23    ccc     C3    631 0.15592700  12.010000   ; qtot 14.362860
  632         c3     23    ccc     C4    632 0.28383300  12.010000   ; qtot 14.646693
  633         c3     23    ccc     C5    633 0.32403300  12.010000   ; qtot 14.970726
  634         h1     23    ccc     H3    634 0.13386900   1.008000   ; qtot 15.104595
  635         h1     23    ccc     H4    635 0.10146700   1.008000   ; qtot 15.206062
  636         h2     23    ccc     H5    636 0.10960400   1.008000   ; qtot 15.315666
  637         os     23    ccc     O1    637 -0.28650000  16.000000   ; qtot 15.029166
  638         oh     23    ccc     O2    638 -0.86012500  16.000000   ; qtot 14.169041
  639         oh     23    ccc     O3    639 -0.83772800  16.000000   ; qtot 13.331313
  640         oh     23    ccc     O4    640 -0.77449700  16.000000   ; qtot 12.556816
  641         c3     23    ccc     C6    641 0.37576500  12.010000   ; qtot 12.932581
  642         ho     23    ccc     H6    642 0.53656000   1.008000   ; qtot 13.469141
  643         ho     23    ccc     H7    643 0.49492100   1.008000   ; qtot 13.964062
  644         ho     23    ccc     H8    644 0.51297200   1.008000   ; qtot 14.477034
  645         h1     23    ccc     H9    645 0.05653400   1.008000   ; qtot 14.533568
  646         h1     23    ccc    H10    646 0.05653400   1.008000   ; qtot 14.590102
  647         oh     23    ccc     O5    647 -0.84113600  16.000000   ; qtot 13.748966
  648         ho     23    ccc    H11    648 0.51201600   1.008000   ; qtot 14.260982
  649         os     23    ccc     O6    649 -0.26013600  16.000000   ; qtot 14.000846
; residue   24 ccc rtp ccc q 0.0
  650         c3     24    ccc     C1    650 -0.33178800  12.010000   ; qtot 13.669058
  651         c3     24    ccc     C2    651 0.30606500  12.010000   ; qtot 13.975123
  652         h1     24    ccc     H1    652 0.11662300   1.008000   ; qtot 14.091746
  653         h1     24    ccc     H2    653 0.11526800   1.008000   ; qtot 14.207014
  654         c3     24    ccc     C3    654 0.15592700  12.010000   ; qtot 14.362941
  655         c3     24    ccc     C4    655 0.28383300  12.010000   ; qtot 14.646774
  656         c3     24    ccc     C5    656 0.32403300  12.010000   ; qtot 14.970807
  657         h1     24    ccc     H3    657 0.13386900   1.008000   ; qtot 15.104676
  658         h1     24    ccc     H4    658 0.10146700   1.008000   ; qtot 15.206143
  659         h2     24    ccc     H5    659 0.10960400   1.008000   ; qtot 15.315747
  660         os     24    ccc     O1    660 -0.28650000  16.000000   ; qtot 15.029247
  661         oh     24    ccc     O2    661 -0.86012500  16.000000   ; qtot 14.169122
  662         oh     24    ccc     O3    662 -0.83772800  16.000000   ; qtot 13.331394
  663         oh     24    ccc     O4    663 -0.77449700  16.000000   ; qtot 12.556897
  664         c3     24    ccc     C6    664 0.37576500  12.010000   ; qtot 12.932662
  665         ho     24    ccc     H6    665 0.53656000   1.008000   ; qtot 13.469222
  666         ho     24    ccc     H7    666 0.49492100   1.008000   ; qtot 13.964143
  667         ho     24    ccc     H8    667 0.51297200   1.008000   ; qtot 14.477115
  668         h1     24    ccc     H9    668 0.05653400   1.008000   ; qtot 14.533649
  669         h1     24    ccc    H10    669 0.05653400   1.008000   ; qtot 14.590183
  670         oh     24    ccc     O5    670 -0.84113600  16.000000   ; qtot 13.749047
  671         ho     24    ccc    H11    671 0.51201600   1.008000   ; qtot 14.261063
  672         os     24    ccc     O6    672 -0.26013600  16.000000   ; qtot 14.000927
; residue   25 ccc rtp ccc q 0.0
  673         c3     25    ccc     C1    673 -0.33178800  12.010000   ; qtot 13.669139
  674         c3     25    ccc     C2    674 0.30606500  12.010000   ; qtot 13.975204
  675         h1     25    ccc     H1    675 0.11662300   1.008000   ; qtot 14.091827
  676         h1     25    ccc     H2    676 0.11526800   1.008000   ; qtot 14.207095
  677         c3     25    ccc     C3    677 0.15592700  12.010000   ; qtot 14.363022
  678         c3     25    ccc     C4    678 0.28383300  12.010000   ; qtot 14.646855
  679         c3     25    ccc     C5    679 0.32403300  12.010000   ; qtot 14.970888
  680         h1     25    ccc     H3    680 0.13386900   1.008000   ; qtot 15.104757
  681         h1     25    ccc     H4    681 0.10146700   1.008000   ; qtot 15.206224
  682         h2     25    ccc     H5    682 0.10960400   1.008000   ; qtot 15.315828
  683         os     25    ccc     O1    683 -0.28650000  16.000000   ; qtot 15.029328
  684         oh     25    ccc     O2    684 -0.86012500  16.000000   ; qtot 14.169203
  685         oh     25    ccc     O3    685 -0.83772800  16.000000   ; qtot 13.331475
  686         oh     25    ccc     O4    686 -0.77449700  16.000000   ; qtot 12.556978
  687         c3     25    ccc     C6    687 0.37576500  12.010000   ; qtot 12.932743
  688         ho     25    ccc     H6    688 0.53656000   1.008000   ; qtot 13.469303
  689         ho     25    ccc     H7    689 0.49492100   1.008000   ; qtot 13.964224
  690         ho     25    ccc     H8    690 0.51297200   1.008000   ; qtot 14.477196
  691         h1     25    ccc     H9    691 0.05653400   1.008000   ; qtot 14.533730
  692         h1     25    ccc    H10    692 0.05653400   1.008000   ; qtot 14.590264
  693         oh     25    ccc     O5    693 -0.84113600  16.000000   ; qtot 13.749128
  694         ho     25    ccc    H11    694 0.51201600   1.008000   ; qtot 14.261144
  695         os     25    ccc     O6    695 -0.26013600  16.000000   ; qtot 14.001008
; residue   26 ccc rtp ccc q 0.0
  696         c3     26    ccc     C1    696 -0.33178800  12.010000   ; qtot 13.669220
  697         c3     26    ccc     C2    697 0.30606500  12.010000   ; qtot 13.975285
  698         h1     26    ccc     H1    698 0.11662300   1.008000   ; qtot 14.091908
  699         h1     26    ccc     H2    699 0.11526800   1.008000   ; qtot 14.207176
  700         c3     26    ccc     C3    700 0.15592700  12.010000   ; qtot 14.363103
  701         c3     26    ccc     C4    701 0.28383300  12.010000   ; qtot 14.646936
  702         c3     26    ccc     C5    702 0.32403300  12.010000   ; qtot 14.970969
  703         h1     26    ccc     H3    703 0.13386900   1.008000   ; qtot 15.104838
  704         h1     26    ccc     H4    704 0.10146700   1.008000   ; qtot 15.206305
  705         h2     26    ccc     H5    705 0.10960400   1.008000   ; qtot 15.315909
  706         os     26    ccc     O1    706 -0.28650000  16.000000   ; qtot 15.029409
  707         oh     26    ccc     O2    707 -0.86012500  16.000000   ; qtot 14.169284
  708         oh     26    ccc     O3    708 -0.83772800  16.000000   ; qtot 13.331556
  709         oh     26    ccc     O4    709 -0.77449700  16.000000   ; qtot 12.557059
  710         c3     26    ccc     C6    710 0.37576500  12.010000   ; qtot 12.932824
  711         ho     26    ccc     H6    711 0.53656000   1.008000   ; qtot 13.469384
  712         ho     26    ccc     H7    712 0.49492100   1.008000   ; qtot 13.964305
  713         ho     26    ccc     H8    713 0.51297200   1.008000   ; qtot 14.477277
  714         h1     26    ccc     H9    714 0.05653400   1.008000   ; qtot 14.533811
  715         h1     26    ccc    H10    715 0.05653400   1.008000   ; qtot 14.590345
  716         oh     26    ccc     O5    716 -0.84113600  16.000000   ; qtot 13.749209
  717         ho     26    ccc    H11    717 0.51201600   1.008000   ; qtot 14.261225
  718         os     26    ccc     O6    718 -0.26013600  16.000000   ; qtot 14.001089
; residue   27 ccc rtp ccc q 0.0
  719         c3     27    ccc     C1    719 -0.33178800  12.010000   ; qtot 13.669301
  720         c3     27    ccc     C2    720 0.30606500  12.010000   ; qtot 13.975366
  721         h1     27    ccc     H1    721 0.11662300   1.008000   ; qtot 14.091989
  722         h1     27    ccc     H2    722 0.11526800   1.008000   ; qtot 14.207257
  723         c3     27    ccc     C3    723 0.15592700  12.010000   ; qtot 14.363184
  724         c3     27    ccc     C4    724 0.28383300  12.010000   ; qtot 14.647017
  725         c3     27    ccc     C5    725 0.32403300  12.010000   ; qtot 14.971050
  726         h1     27    ccc     H3    726 0.13386900   1.008000   ; qtot 15.104919
  727         h1     27    ccc     H4    727 0.10146700   1.008000   ; qtot 15.206386
  728         h2     27    ccc     H5    728 0.10960400   1.008000   ; qtot 15.315990
  729         os     27    ccc     O1    729 -0.28650000  16.000000   ; qtot 15.029490
  730         oh     27    ccc     O2    730 -0.86012500  16.000000   ; qtot 14.169365
  731         oh     27    ccc     O3    731 -0.83772800  16.000000   ; qtot 13.331637
  732         oh     27    ccc     O4    732 -0.77449700  16.000000   ; qtot 12.557140
  733         c3     27    ccc     C6    733 0.37576500  12.010000   ; qtot 12.932905
  734         ho     27    ccc     H6    734 0.53656000   1.008000   ; qtot 13.469465
  735         ho     27    ccc     H7    735 0.49492100   1.008000   ; qtot 13.964386
  736         ho     27    ccc     H8    736 0.51297200   1.008000   ; qtot 14.477358
  737         h1     27    ccc     H9    737 0.05653400   1.008000   ; qtot 14.533892
  738         h1     27    ccc    H10    738 0.05653400   1.008000   ; qtot 14.590426
  739         oh     27    ccc     O5    739 -0.84113600  16.000000   ; qtot 13.749290
  740         ho     27    ccc    H11    740 0.51201600   1.008000   ; qtot 14.261306
  741         os     27    ccc     O6    741 -0.26013600  16.000000   ; qtot 14.001170
; residue   28 ccc rtp ccc q 0.0
  742         c3     28    ccc     C1    742 -0.33178800  12.010000   ; qtot 13.669382
  743         c3     28    ccc     C2    743 0.30606500  12.010000   ; qtot 13.975447
  744         h1     28    ccc     H1    744 0.11662300   1.008000   ; qtot 14.092070
  745         h1     28    ccc     H2    745 0.11526800   1.008000   ; qtot 14.207338
  746         c3     28    ccc     C3    746 0.15592700  12.010000   ; qtot 14.363265
  747         c3     28    ccc     C4    747 0.28383300  12.010000   ; qtot 14.647098
  748         c3     28    ccc     C5    748 0.32403300  12.010000   ; qtot 14.971131
  749         h1     28    ccc     H3    749 0.13386900   1.008000   ; qtot 15.105000
  750         h1     28    ccc     H4    750 0.10146700   1.008000   ; qtot 15.206467
  751         h2     28    ccc     H5    751 0.10960400   1.008000   ; qtot 15.316071
  752         os     28    ccc     O1    752 -0.28650000  16.000000   ; qtot 15.029571
  753         oh     28    ccc     O2    753 -0.86012500  16.000000   ; qtot 14.169446
  754         oh     28    ccc     O3    754 -0.83772800  16.000000   ; qtot 13.331718
  755         oh     28    ccc     O4    755 -0.77449700  16.000000   ; qtot 12.557221
  756         c3     28    ccc     C6    756 0.37576500  12.010000   ; qtot 12.932986
  757         ho     28    ccc     H6    757 0.53656000   1.008000   ; qtot 13.469546
  758         ho     28    ccc     H7    758 0.49492100   1.008000   ; qtot 13.964467
  759         ho     28    ccc     H8    759 0.51297200   1.008000   ; qtot 14.477439
  760         h1     28    ccc     H9    760 0.05653400   1.008000   ; qtot 14.533973
  761         h1     28    ccc    H10    761 0.05653400   1.008000   ; qtot 14.590507
  762         oh     28    ccc     O5    762 -0.84113600  16.000000   ; qtot 13.749371
  763         ho     28    ccc    H11    763 0.51201600   1.008000   ; qtot 14.261387
  764         os     28    ccc     O6    764 -0.26013600  16.000000   ; qtot 14.001251
; residue   29 ccc rtp ccc q 0.0
  765         c3     29    ccc     C1    765 -0.33178800  12.010000   ; qtot 13.669463
  766         c3     29    ccc     C2    766 0.30606500  12.010000   ; qtot 13.975528
  767         h1     29    ccc     H1    767 0.11662300   1.008000   ; qtot 14.092151
  768         h1     29    ccc     H2    768 0.11526800   1.008000   ; qtot 14.207419
  769         c3     29    ccc     C3    769 0.15592700  12.010000   ; qtot 14.363346
  770         c3     29    ccc     C4    770 0.28383300  12.010000   ; qtot 14.647179
  771         c3     29    ccc     C5    771 0.32403300  12.010000   ; qtot 14.971212
  772         h1     29    ccc     H3    772 0.13386900   1.008000   ; qtot 15.105081
  773         h1     29    ccc     H4    773 0.10146700   1.008000   ; qtot 15.206548
  774         h2     29    ccc     H5    774 0.10960400   1.008000   ; qtot 15.316152
  775         os     29    ccc     O1    775 -0.28650000  16.000000   ; qtot 15.029652
  776         oh     29    ccc     O2    776 -0.86012500  16.000000   ; qtot 14.169527
  777         oh     29    ccc     O3    777 -0.83772800  16.000000   ; qtot 13.331799
  778         oh     29    ccc     O4    778 -0.77449700  16.000000   ; qtot 12.557302
  779         c3     29    ccc     C6    779 0.37576500  12.010000   ; qtot 12.933067
  780         ho     29    ccc     H6    780 0.53656000   1.008000   ; qtot 13.469627
  781         ho     29    ccc     H7    781 0.49492100   1.008000   ; qtot 13.964548
  782         ho     29    ccc     H8    782 0.51297200   1.008000   ; qtot 14.477520
  783         h1     29    ccc     H9    783 0.05653400   1.008000   ; qtot 14.534054
  784         h1     29    ccc    H10    784 0.05653400   1.008000   ; qtot 14.590588
  785         oh     29    ccc     O5    785 -0.84113600  16.000000   ; qtot 13.749452
  786         ho     29    ccc    H11    786 0.51201600   1.008000   ; qtot 14.261468
  787         os     29    ccc     O6    787 -0.26013600  16.000000   ; qtot 14.001332

[ bonds ]
;    ai     aj funct         c0         c1         c2         c3
      1      2     1   0.14316 258236.480000
      1      5     1   0.14316 258236.480000
      2      8     1   0.15375 251793.120000
      5     11     1   0.15375 251793.120000
      8     14     1   0.15375 251793.120000
     11     17     1   0.15375 251793.120000
     14     20     1   0.15110 237065.440000
     17     21     1   0.15110 237065.440000
     20     28     1   0.15110 237065.440000
     20     31     1   0.15110 237065.440000
     21     22     1   0.15110 237065.440000
     21     25     1   0.15110 237065.440000
     22     34     1   0.15375 251793.120000
     25     37     1   0.15375 251793.120000
     28     40     1   0.15375 251793.120000
     31     43     1   0.15375 251793.120000
     34     55     1   0.15375 251793.120000
     37     52     1   0.15375 251793.120000
     40     49     1   0.15375 251793.120000
     43     46     1   0.15375 251793.120000
     46     88     1   0.14316 258236.480000
     49    118     1   0.14316 258236.480000
     52    148     1   0.14316 258236.480000
     55    178     1   0.14316 258236.480000
     60     61     1   0.15110 237065.440000
     60     64     1   0.15110 237065.440000
     60     67     1   0.15110 237065.440000
     61     73     1   0.15375 251793.120000
     64     76     1   0.15375 251793.120000
     67     70     1   0.15375 251793.120000
     70     79     1   0.15375 251793.120000
     73     85     1   0.15375 251793.120000
     76     82     1   0.15375 251793.120000
     79     88     1   0.14316 258236.480000
     82    208     1   0.14316 258236.480000
     85    238     1   0.14316 258236.480000
     90     91     1   0.15110 237065.440000
     90     94     1   0.15110 237065.440000
     90     97     1   0.15110 237065.440000
     91    103     1   0.15375 251793.120000
     94    106     1   0.15375 251793.120000
     97    100     1   0.15375 251793.120000
    100    109     1   0.15375 251793.120000
    103    115     1   0.15375 251793.120000
    106    112     1   0.15375 251793.120000
    109    118     1   0.14316 258236.480000
    112    268     1   0.14316 258236.480000
    115    298     1   0.14316 258236.480000
    120    121     1   0.15110 237065.440000
    120    124     1   0.15110 237065.440000
    120    127     1   0.15110 237065.440000
    121    133     1   0.15375 251793.120000
    124    136     1   0.15375 251793.120000
    127    130     1   0.15375 251793.120000
    130    139     1   0.15375 251793.120000
    133    145     1   0.15375 251793.120000
    136    142     1   0.15375 251793.120000
    139    148     1   0.14316 258236.480000
    142    328     1   0.14316 258236.480000
    145    358     1   0.14316 258236.480000
    150    151     1   0.15110 237065.440000
    150    154     1   0.15110 237065.440000
    150    157     1   0.15110 237065.440000
    151    163     1   0.15375 251793.120000
    154    166     1   0.15375 251793.120000
    157    160     1   0.15375 251793.120000
    160    169     1   0.15375 251793.120000
    163    175     1   0.15375 251793.120000
    166    172     1   0.15375 251793.120000
    169    178     1   0.14316 258236.480000
    172    388     1   0.14316 258236.480000
    175    418     1   0.14316 258236.480000
    180    181     1   0.15110 237065.440000
    180    184     1   0.15110 237065.440000
    180    187     1   0.15110 237065.440000
    181    193     1   0.15375 251793.120000
    184    196     1   0.15375 251793.120000
    187    190     1   0.15375 251793.120000
    190    199     1   0.15375 251793.120000
    193    205     1   0.15375 251793.120000
    196    202     1   0.15375 251793.120000
    199    208     1   0.14316 258236.480000
    202    430     1   0.14316 258236.480000
    205    453     1   0.14316 258236.480000
    210    211     1   0.15110 237065.440000
    210    214     1   0.15110 237065.440000
    210    217     1   0.15110 237065.440000
    211    223     1   0.15375 251793.120000
    214    226     1   0.15375 251793.120000
    217    220     1   0.15375 251793.120000
    220    229     1   0.15375 251793.120000
    223    235     1   0.15375 251793.120000
    226    232     1   0.15375 251793.120000
    229    238     1   0.14316 258236.480000
    232    476     1   0.14316 258236.480000
    235    499     1   0.14316 258236.480000
    240    241     1   0.15110 237065.440000
    240    244     1   0.15110 237065.440000
    240    247     1   0.15110 237065.440000
    241    253     1   0.15375 251793.120000
    244    256     1   0.15375 251793.120000
    247    250     1   0.15375 251793.120000
    250    259     1   0.15375 251793.120000
    253    265     1   0.15375 251793.120000
    256    262     1   0.15375 251793.120000
    259    268     1   0.14316 258236.480000
    262    522     1   0.14316 258236.480000
    265    545     1   0.14316 258236.480000
    270    271     1   0.15110 237065.440000
    270    274     1   0.15110 237065.440000
    270    277     1   0.15110 237065.440000
    271    283     1   0.15375 251793.120000
    274    286     1   0.15375 251793.120000
    277    280     1   0.15375 251793.120000
    280    289     1   0.15375 251793.120000
    283    295     1   0.15375 251793.120000
    286    292     1   0.15375 251793.120000
    289    298     1   0.14316 258236.480000
    292    568     1   0.14316 258236.480000
    295    591     1   0.14316 258236.480000
    300    301     1   0.15110 237065.440000
    300    304     1   0.15110 237065.440000
    300    307     1   0.15110 237065.440000
    301    313     1   0.15375 251793.120000
    304    316     1   0.15375 251793.120000
    307    310     1   0.15375 251793.120000
    310    319     1   0.15375 251793.120000
    313    325     1   0.15375 251793.120000
    316    322     1   0.15375 251793.120000
    319    328     1   0.14316 258236.480000
    322    614     1   0.14316 258236.480000
    325    637     1   0.14316 258236.480000
    330    331     1   0.15110 237065.440000
    330    334     1   0.15110 237065.440000
    330    337     1   0.15110 237065.440000
    331    343     1   0.15375 251793.120000
    334    346     1   0.15375 251793.120000
    337    340     1   0.15375 251793.120000
    340    349     1   0.15375 251793.120000
    343    355     1   0.15375 251793.120000
    346    352     1   0.15375 251793.120000
    349    358     1   0.14316 258236.480000
    352    660     1   0.14316 258236.480000
    355    683     1   0.14316 258236.480000
    360    361     1   0.15110 237065.440000
    360    364     1   0.15110 237065.440000
    360    367     1   0.15110 237065.440000
    361    373     1   0.15375 251793.120000
    364    376     1   0.15375 251793.120000
    367    370     1   0.15375 251793.120000
    370    379     1   0.15375 251793.120000
    373    385     1   0.15375 251793.120000
    376    382     1   0.15375 251793.120000
    379    388     1   0.14316 258236.480000
    382    706     1   0.14316 258236.480000
    385    729     1   0.14316 258236.480000
    390    391     1   0.15110 237065.440000
    390    394     1   0.15110 237065.440000
    390    397     1   0.15110 237065.440000
    391    403     1   0.15375 251793.120000
    394    406     1   0.15375 251793.120000
    397    400     1   0.15375 251793.120000
    400    409     1   0.15375 251793.120000
    403    415     1   0.15375 251793.120000
    406    412     1   0.15375 251793.120000
    409    418     1   0.14316 258236.480000
    412    752     1   0.14316 258236.480000
    415    775     1   0.14316 258236.480000
    420    421     1   0.15375 251793.120000
    420    434     1   0.15375 251793.120000
    420    442     1   0.14316 258236.480000
    421    424     1   0.15375 251793.120000
    421    433     1   0.14233 265014.560000
    424    425     1   0.15375 251793.120000
    424    432     1   0.14233 265014.560000
    425    426     1   0.15375 251793.120000
    425    431     1   0.14233 265014.560000
    426    430     1   0.14316 258236.480000
    426    442     1   0.14316 258236.480000
    434    440     1   0.14233 265014.560000
    443    444     1   0.15375 251793.120000
    443    457     1   0.15375 251793.120000
    443    465     1   0.14316 258236.480000
    444    447     1   0.15375 251793.120000
    444    456     1   0.14233 265014.560000
    447    448     1   0.15375 251793.120000
    447    455     1   0.14233 265014.560000
    448    449     1   0.15375 251793.120000
    448    454     1   0.14233 265014.560000
    449    453     1   0.14316 258236.480000
    449    465     1   0.14316 258236.480000
    457    463     1   0.14233 265014.560000
    466    467     1   0.15375 251793.120000
    466    480     1   0.15375 251793.120000
    466    488     1   0.14316 258236.480000
    467    470     1   0.15375 251793.120000
    467    479     1   0.14233 265014.560000
    470    471     1   0.15375 251793.120000
    470    478     1   0.14233 265014.560000
    471    472     1   0.15375 251793.120000
    471    477     1   0.14233 265014.560000
    472    476     1   0.14316 258236.480000
    472    488     1   0.14316 258236.480000
    480    486     1   0.14233 265014.560000
    489    490     1   0.15375 251793.120000
    489    503     1   0.15375 251793.120000
    489    511     1   0.14316 258236.480000
    490    493     1   0.15375 251793.120000
    490    502     1   0.14233 265014.560000
    493    494     1   0.15375 251793.120000
    493    501     1   0.14233 265014.560000
    494    495     1   0.15375 251793.120000
    494    500     1   0.14233 265014.560000
    495    499     1   0.14316 258236.480000
    495    511     1   0.14316 258236.480000
    503    509     1   0.14233 265014.560000
    512    513     1   0.15375 251793.120000
    512    526     1   0.15375 251793.120000
    512    534     1   0.14316 258236.480000
    513    516     1   0.15375 251793.120000
    513    525     1   0.14233 265014.560000
    516    517     1   0.15375 251793.120000
    516    524     1   0.14233 265014.560000
    517    518     1   0.15375 251793.120000
    517    523     1   0.14233 265014.560000
    518    522     1   0.14316 258236.480000
    518    534     1   0.14316 258236.480000
    526    532     1   0.14233 265014.560000
    535    536     1   0.15375 251793.120000
    535    549     1   0.15375 251793.120000
    535    557     1   0.14316 258236.480000
    536    539     1   0.15375 251793.120000
    536    548     1   0.14233 265014.560000
    539    540     1   0.15375 251793.120000
    539    547     1   0.14233 265014.560000
    540    541     1   0.15375 251793.120000
    540    546     1   0.14233 265014.560000
    541    545     1   0.14316 258236.480000
    541    557     1   0.14316 258236.480000
    549    555     1   0.14233 265014.560000
    558    559     1   0.15375 251793.120000
    558    572     1   0.15375 251793.120000
    558    580     1   0.14316 258236.480000
    559    562     1   0.15375 251793.120000
    559    571     1   0.14233 265014.560000
    562    563     1   0.15375 251793.120000
    562    570     1   0.14233 265014.560000
    563    564     1   0.15375 251793.120000
    563    569     1   0.14233 265014.560000
    564    568     1   0.14316 258236.480000
    564    580     1   0.14316 258236.480000
    572    578     1   0.14233 265014.560000
    581    582     1   0.15375 251793.120000
    581    595     1   0.15375 251793.120000
    581    603     1   0.14316 258236.480000
    582    585     1   0.15375 251793.120000
    582    594     1   0.14233 265014.560000
    585    586     1   0.15375 251793.120000
    585    593     1   0.14233 265014.560000
    586    587     1   0.15375 251793.120000
    586    592     1   0.14233 265014.560000
    587    591     1   0.14316 258236.480000
    587    603     1   0.14316 258236.480000
    595    601     1   0.14233 265014.560000
    604    605     1   0.15375 251793.120000
    604    618     1   0.15375 251793.120000
    604    626     1   0.14316 258236.480000
    605    608     1   0.15375 251793.120000
    605    617     1   0.14233 265014.560000
    608    609     1   0.15375 251793.120000
    608    616     1   0.14233 265014.560000
    609    610     1   0.15375 251793.120000
    609    615     1   0.14233 265014.560000
    610    614     1   0.14316 258236.480000
    610    626     1   0.14316 258236.480000
    618    624     1   0.14233 265014.560000
    627    628     1   0.15375 251793.120000
    627    641     1   0.15375 251793.120000
    627    649     1   0.14316 258236.480000
    628    631     1   0.15375 251793.120000
    628    640     1   0.14233 265014.560000
    631    632     1   0.15375 251793.120000
    631    639     1   0.14233 265014.560000
    632    633     1   0.15375 251793.120000
    632    638     1   0.14233 265014.560000
    633    637     1   0.14316 258236.480000
    633    649     1   0.14316 258236.480000
    641    647     1   0.14233 265014.560000
    650    651     1   0.15375 251793.120000
    650    664     1   0.15375 251793.120000
    650    672     1   0.14316 258236.480000
    651    654     1   0.15375 251793.120000
    651    663     1   0.14233 265014.560000
    654    655     1   0.15375 251793.120000
    654    662     1   0.14233 265014.560000
    655    656     1   0.15375 251793.120000
    655    661     1   0.14233 265014.560000
    656    660     1   0.14316 258236.480000
    656    672     1   0.14316 258236.480000
    664    670     1   0.14233 265014.560000
    673    674     1   0.15375 251793.120000
    673    687     1   0.15375 251793.120000
    673    695     1   0.14316 258236.480000
    674    677     1   0.15375 251793.120000
    674    686     1   0.14233 265014.560000
    677    678     1   0.15375 251793.120000
    677    685     1   0.14233 265014.560000
    678    679     1   0.15375 251793.120000
    678    684     1   0.14233 265014.560000
    679    683     1   0.14316 258236.480000
    679    695     1   0.14316 258236.480000
    687    693     1   0.14233 265014.560000
    696    697     1   0.15375 251793.120000
    696    710     1   0.15375 251793.120000
    696    718     1   0.14316 258236.480000
    697    700     1   0.15375 251793.120000
    697    709     1   0.14233 265014.560000
    700    701     1   0.15375 251793.120000
    700    708     1   0.14233 265014.560000
    701    702     1   0.15375 251793.120000
    701    707     1   0.14233 265014.560000
    702    706     1   0.14316 258236.480000
    702    718     1   0.14316 258236.480000
    710    716     1   0.14233 265014.560000
    719    720     1   0.15375 251793.120000
    719    733     1   0.15375 251793.120000
    719    741     1   0.14316 258236.480000
    720    723     1   0.15375 251793.120000
    720    732     1   0.14233 265014.560000
    723    724     1   0.15375 251793.120000
    723    731     1   0.14233 265014.560000
    724    725     1   0.15375 251793.120000
    724    730     1   0.14233 265014.560000
    725    729     1   0.14316 258236.480000
    725    741     1   0.14316 258236.480000
    733    739     1   0.14233 265014.560000
    742    743     1   0.15375 251793.120000
    742    756     1   0.15375 251793.120000
    742    764     1   0.14316 258236.480000
    743    746     1   0.15375 251793.120000
    743    755     1   0.14233 265014.560000
    746    747     1   0.15375 251793.120000
    746    754     1   0.14233 265014.560000
    747    748     1   0.15375 251793.120000
    747    753     1   0.14233 265014.560000
    748    752     1   0.14316 258236.480000
    748    764     1   0.14316 258236.480000
    756    762     1   0.14233 265014.560000
    765    766     1   0.15375 251793.120000
    765    779     1   0.15375 251793.120000
    765    787     1   0.14316 258236.480000
    766    769     1   0.15375 251793.120000
    766    778     1   0.14233 265014.560000
    769    770     1   0.15375 251793.120000
    769    777     1   0.14233 265014.560000
    770    771     1   0.15375 251793.120000
    770    776     1   0.14233 265014.560000
    771    775     1   0.14316 258236.480000
    771    787     1   0.14316 258236.480000
    779    785     1   0.14233 265014.560000
      2      3     1   0.10969 276646.080000
      2      4     1   0.10969 276646.080000
      5      6     1   0.10969 276646.080000
      5      7     1   0.10969 276646.080000
      8      9     1   0.10969 276646.080000
      8     10     1   0.10969 276646.080000
     11     12     1   0.10969 276646.080000
     11     13     1   0.10969 276646.080000
     14     15     1   0.10910 283424.160000
     14     16     1   0.10910 283424.160000
     17     18     1   0.10910 283424.160000
     17     19     1   0.10910 283424.160000
     20     58     1   0.10304 312293.760000
     21     59     1   0.10304 312293.760000
     22     23     1   0.10910 283424.160000
     22     24     1   0.10910 283424.160000
     25     26     1   0.10910 283424.160000
     25     27     1   0.10910 283424.160000
     28     29     1   0.10910 283424.160000
     28     30     1   0.10910 283424.160000
     31     32     1   0.10910 283424.160000
     31     33     1   0.10910 283424.160000
     34     35     1   0.10969 276646.080000
     34     36     1   0.10969 276646.080000
     37     38     1   0.10969 276646.080000
     37     39     1   0.10969 276646.080000
     40     41     1   0.10969 276646.080000
     40     42     1   0.10969 276646.080000
     43     44     1   0.10969 276646.080000
     43     45     1   0.10969 276646.080000
     46     47     1   0.10969 276646.080000
     46     48     1   0.10969 276646.080000
     49     50     1   0.10969 276646.080000
     49     51     1   0.10969 276646.080000
     52     53     1   0.10969 276646.080000
     52     54     1   0.10969 276646.080000
     55     56     1   0.10969 276646.080000
     55     57     1   0.10969 276646.080000
     60     89     1   0.10304 312293.760000
     61     62     1   0.10910 283424.160000
     61     63     1   0.10910 283424.160000
     64     65     1   0.10910 283424.160000
     64     66     1   0.10910 283424.160000
     67     68     1   0.10910 283424.160000
     67     69     1   0.10910 283424.160000
     70     71     1   0.10969 276646.080000
     70     72     1   0.10969 276646.080000
     73     74     1   0.10969 276646.080000
     73     75     1   0.10969 276646.080000
     76     77     1   0.10969 276646.080000
     76     78     1   0.10969 276646.080000
     79     80     1   0.10969 276646.080000
     79     81     1   0.10969 276646.080000
     82     83     1   0.10969 276646.080000
     82     84     1   0.10969 276646.080000
     85     86     1   0.10969 276646.080000
     85     87     1   0.10969 276646.080000
     90    119     1   0.10304 312293.760000
     91     92     1   0.10910 283424.160000
     91     93     1   0.10910 283424.160000
     94     95     1   0.10910 283424.160000
     94     96     1   0.10910 283424.160000
     97     98     1   0.10910 283424.160000
     97     99     1   0.10910 283424.160000
    100    101     1   0.10969 276646.080000
    100    102     1   0.10969 276646.080000
    103    104     1   0.10969 276646.080000
    103    105     1   0.10969 276646.080000
    106    107     1   0.10969 276646.080000
    106    108     1   0.10969 276646.080000
    109    110     1   0.10969 276646.080000
    109    111     1   0.10969 276646.080000
    112    113     1   0.10969 276646.080000
    112    114     1   0.10969 276646.080000
    115    116     1   0.10969 276646.080000
    115    117     1   0.10969 276646.080000
    120    149     1   0.10304 312293.760000
    121    122     1   0.10910 283424.160000
    121    123     1   0.10910 283424.160000
    124    125     1   0.10910 283424.160000
    124    126     1   0.10910 283424.160000
    127    128     1   0.10910 283424.160000
    127    129     1   0.10910 283424.160000
    130    131     1   0.10969 276646.080000
    130    132     1   0.10969 276646.080000
    133    134     1   0.10969 276646.080000
    133    135     1   0.10969 276646.080000
    136    137     1   0.10969 276646.080000
    136    138     1   0.10969 276646.080000
    139    140     1   0.10969 276646.080000
    139    141     1   0.10969 276646.080000
    142    143     1   0.10969 276646.080000
    142    144     1   0.10969 276646.080000
    145    146     1   0.10969 276646.080000
    145    147     1   0.10969 276646.080000
    150    179     1   0.10304 312293.760000
    151    152     1   0.10910 283424.160000
    151    153     1   0.10910 283424.160000
    154    155     1   0.10910 283424.160000
    154    156     1   0.10910 283424.160000
    157    158     1   0.10910 283424.160000
    157    159     1   0.10910 283424.160000
    160    161     1   0.10969 276646.080000
    160    162     1   0.10969 276646.080000
    163    164     1   0.10969 276646.080000
    163    165     1   0.10969 276646.080000
    166    167     1   0.10969 276646.080000
    166    168     1   0.10969 276646.080000
    169    170     1   0.10969 276646.080000
    169    171     1   0.10969 276646.080000
    172    173     1   0.10969 276646.080000
    172    174     1   0.10969 276646.080000
    175    176     1   0.10969 276646.080000
    175    177     1   0.10969 276646.080000
    180    209     1   0.10304 312293.760000
    181    182     1   0.10910 283424.160000
    181    183     1   0.10910 283424.160000
    184    185     1   0.10910 283424.160000
    184    186     1   0.10910 283424.160000
    187    188     1   0.10910 283424.160000
    187    189     1   0.10910 283424.160000
    190    191     1   0.10969 276646.080000
    190    192     1   0.10969 276646.080000
    193    194     1   0.10969 276646.080000
    193    195     1   0.10969 276646.080000
    196    197     1   0.10969 276646.080000
    196    198     1   0.10969 276646.080000
    199    200     1   0.10969 276646.080000
    199    201     1   0.10969 276646.080000
    202    203     1   0.10969 276646.080000
    202    204     1   0.10969 276646.080000
    205    206     1   0.10969 276646.080000
    205    207     1   0.10969 276646.080000
    210    239     1   0.10304 312293.760000
    211    212     1   0.10910 283424.160000
    211    213     1   0.10910 283424.160000
    214    215     1   0.10910 283424.160000
    214    216     1   0.10910 283424.160000
    217    218     1   0.10910 283424.160000
    217    219     1   0.10910 283424.160000
    220    221     1   0.10969 276646.080000
    220    222     1   0.10969 276646.080000
    223    224     1   0.10969 276646.080000
    223    225     1   0.10969 276646.080000
    226    227     1   0.10969 276646.080000
    226    228     1   0.10969 276646.080000
    229    230     1   0.10969 276646.080000
    229    231     1   0.10969 276646.080000
    232    233     1   0.10969 276646.080000
    232    234     1   0.10969 276646.080000
    235    236     1   0.10969 276646.080000
    235    237     1   0.10969 276646.080000
    240    269     1   0.10304 312293.760000
    241    242     1   0.10910 283424.160000
    241    243     1   0.10910 283424.160000
    244    245     1   0.10910 283424.160000
    244    246     1   0.10910 283424.160000
    247    248     1   0.10910 283424.160000
    247    249     1   0.10910 283424.160000
    250    251     1   0.10969 276646.080000
    250    252     1   0.10969 276646.080000
    253    254     1   0.10969 276646.080000
    253    255     1   0.10969 276646.080000
    256    257     1   0.10969 276646.080000
    256    258     1   0.10969 276646.080000
    259    260     1   0.10969 276646.080000
    259    261     1   0.10969 276646.080000
    262    263     1   0.10969 276646.080000
    262    264     1   0.10969 276646.080000
    265    266     1   0.10969 276646.080000
    265    267     1   0.10969 276646.080000
    270    299     1   0.10304 312293.760000
    271    272     1   0.10910 283424.160000
    271    273     1   0.10910 283424.160000
    274    275     1   0.10910 283424.160000
    274    276     1   0.10910 283424.160000
    277    278     1   0.10910 283424.160000
    277    279     1   0.10910 283424.160000
    280    281     1   0.10969 276646.080000
    280    282     1   0.10969 276646.080000
    283    284     1   0.10969 276646.080000
    283    285     1   0.10969 276646.080000
    286    287     1   0.10969 276646.080000
    286    288     1   0.10969 276646.080000
    289    290     1   0.10969 276646.080000
    289    291     1   0.10969 276646.080000
    292    293     1   0.10969 276646.080000
    292    294     1   0.10969 276646.080000
    295    296     1   0.10969 276646.080000
    295    297     1   0.10969 276646.080000
    300    329     1   0.10304 312293.760000
    301    302     1   0.10910 283424.160000
    301    303     1   0.10910 283424.160000
    304    305     1   0.10910 283424.160000
    304    306     1   0.10910 283424.160000
    307    308     1   0.10910 283424.160000
    307    309     1   0.10910 283424.160000
    310    311     1   0.10969 276646.080000
    310    312     1   0.10969 276646.080000
    313    314     1   0.10969 276646.080000
    313    315     1   0.10969 276646.080000
    316    317     1   0.10969 276646.080000
    316    318     1   0.10969 276646.080000
    319    320     1   0.10969 276646.080000
    319    321     1   0.10969 276646.080000
    322    323     1   0.10969 276646.080000
    322    324     1   0.10969 276646.080000
    325    326     1   0.10969 276646.080000
    325    327     1   0.10969 276646.080000
    330    359     1   0.10304 312293.760000
    331    332     1   0.10910 283424.160000
    331    333     1   0.10910 283424.160000
    334    335     1   0.10910 283424.160000
    334    336     1   0.10910 283424.160000
    337    338     1   0.10910 283424.160000
    337    339     1   0.10910 283424.160000
    340    341     1   0.10969 276646.080000
    340    342     1   0.10969 276646.080000
    343    344     1   0.10969 276646.080000
    343    345     1   0.10969 276646.080000
    346    347     1   0.10969 276646.080000
    346    348     1   0.10969 276646.080000
    349    350     1   0.10969 276646.080000
    349    351     1   0.10969 276646.080000
    352    353     1   0.10969 276646.080000
    352    354     1   0.10969 276646.080000
    355    356     1   0.10969 276646.080000
    355    357     1   0.10969 276646.080000
    360    389     1   0.10304 312293.760000
    361    362     1   0.10910 283424.160000
    361    363     1   0.10910 283424.160000
    364    365     1   0.10910 283424.160000
    364    366     1   0.10910 283424.160000
    367    368     1   0.10910 283424.160000
    367    369     1   0.10910 283424.160000
    370    371     1   0.10969 276646.080000
    370    372     1   0.10969 276646.080000
    373    374     1   0.10969 276646.080000
    373    375     1   0.10969 276646.080000
    376    377     1   0.10969 276646.080000
    376    378     1   0.10969 276646.080000
    379    380     1   0.10969 276646.080000
    379    381     1   0.10969 276646.080000
    382    383     1   0.10969 276646.080000
    382    384     1   0.10969 276646.080000
    385    386     1   0.10969 276646.080000
    385    387     1   0.10969 276646.080000
    390    419     1   0.10304 312293.760000
    391    392     1   0.10910 283424.160000
    391    393     1   0.10910 283424.160000
    394    395     1   0.10910 283424.160000
    394    396     1   0.10910 283424.160000
    397    398     1   0.10910 283424.160000
    397    399     1   0.10910 283424.160000
    400    401     1   0.10969 276646.080000
    400    402     1   0.10969 276646.080000
    403    404     1   0.10969 276646.080000
    403    405     1   0.10969 276646.080000
    406    407     1   0.10969 276646.080000
    406    408     1   0.10969 276646.080000
    409    410     1   0.10969 276646.080000
    409    411     1   0.10969 276646.080000
    412    413     1   0.10969 276646.080000
    412    414     1   0.10969 276646.080000
    415    416     1   0.10969 276646.080000
    415    417     1   0.10969 276646.080000
    420    422     1   0.10969 276646.080000
    421    423     1   0.10969 276646.080000
    424    428     1   0.10969 276646.080000
    425    427     1   0.10969 276646.080000
    426    429     1   0.10961 277566.560000
    431    437     1   0.09730 310787.520000
    432    435     1   0.09730 310787.520000
    433    436     1   0.09730 310787.520000
    434    438     1   0.10969 276646.080000
    434    439     1   0.10969 276646.080000
    440    441     1   0.09730 310787.520000
    443    445     1   0.10969 276646.080000
    444    446     1   0.10969 276646.080000
    447    451     1   0.10969 276646.080000
    448    450     1   0.10969 276646.080000
    449    452     1   0.10961 277566.560000
    454    460     1   0.09730 310787.520000
    455    458     1   0.09730 310787.520000
    456    459     1   0.09730 310787.520000
    457    461     1   0.10969 276646.080000
    457    462     1   0.10969 276646.080000
    463    464     1   0.09730 310787.520000
    466    468     1   0.10969 276646.080000
    467    469     1   0.10969 276646.080000
    470    474     1   0.10969 276646.080000
    471    473     1   0.10969 276646.080000
    472    475     1   0.10961 277566.560000
    477    483     1   0.09730 310787.520000
    478    481     1   0.09730 310787.520000
    479    482     1   0.09730 310787.520000
    480    484     1   0.10969 276646.080000
    480    485     1   0.10969 276646.080000
    486    487     1   0.09730 310787.520000
    489    491     1   0.10969 276646.080000
    490    492     1   0.10969 276646.080000
    493    497     1   0.10969 276646.080000
    494    496     1   0.10969 276646.080000
    495    498     1   0.10961 277566.560000
    500    506     1   0.09730 310787.520000
    501    504     1   0.09730 310787.520000
    502    505     1   0.09730 310787.520000
    503    507     1   0.10969 276646.080000
    503    508     1   0.10969 276646.080000
    509    510     1   0.09730 310787.520000
    512    514     1   0.10969 276646.080000
    513    515     1   0.10969 276646.080000
    516    520     1   0.10969 276646.080000
    517    519     1   0.10969 276646.080000
    518    521     1   0.10961 277566.560000
    523    529     1   0.09730 310787.520000
    524    527     1   0.09730 310787.520000
    525    528     1   0.09730 310787.520000
    526    530     1   0.10969 276646.080000
    526    531     1   0.10969 276646.080000
    532    533     1   0.09730 310787.520000
    535    537     1   0.10969 276646.080000
    536    538     1   0.10969 276646.080000
    539    543     1   0.10969 276646.080000
    540    542     1   0.10969 276646.080000
    541    544     1   0.10961 277566.560000
    546    552     1   0.09730 310787.520000
    547    550     1   0.09730 310787.520000
    548    551     1   0.09730 310787.520000
    549    553     1   0.10969 276646.080000
    549    554     1   0.10969 276646.080000
    555    556     1   0.09730 310787.520000
    558    560     1   0.10969 276646.080000
    559    561     1   0.10969 276646.080000
    562    566     1   0.10969 276646.080000
    563    565     1   0.10969 276646.080000
    564    567     1   0.10961 277566.560000
    569    575     1   0.09730 310787.520000
    570    573     1   0.09730 310787.520000
    571    574     1   0.09730 310787.520000
    572    576     1   0.10969 276646.080000
    572    577     1   0.10969 276646.080000
    578    579     1   0.09730 310787.520000
    581    583     1   0.10969 276646.080000
    582    584     1   0.10969 276646.080000
    585    589     1   0.10969 276646.080000
    586    588     1   0.10969 276646.080000
    587    590     1   0.10961 277566.560000
    592    598     1   0.09730 310787.520000
    593    596     1   0.09730 310787.520000
    594    597     1   0.09730 310787.520000
    595    599     1   0.10969 276646.080000
    595    600     1   0.10969 276646.080000
    601    602     1   0.09730 310787.520000
    604    606     1   0.10969 276646.080000
    605    607     1   0.10969 276646.080000
    608    612     1   0.10969 276646.080000
    609    611     1   0.10969 276646.080000
    610    613     1   0.10961 277566.560000
    615    621     1   0.09730 310787.520000
    616    619     1   0.09730 310787.520000
    617    620     1   0.09730 310787.520000
    618    622     1   0.10969 276646.080000
    618    623     1   0.10969 276646.080000
    624    625     1   0.09730 310787.520000
    627    629     1   0.10969 276646.080000
    628    630     1   0.10969 276646.080000
    631    635     1   0.10969 276646.080000
    632    634     1   0.10969 276646.080000
    633    636     1   0.10961 277566.560000
    638    644     1   0.09730 310787.520000
    639    642     1   0.09730 310787.520000
    640    643     1   0.09730 310787.520000
    641    645     1   0.10969 276646.080000
    641    646     1   0.10969 276646.080000
    647    648     1   0.09730 310787.520000
    650    652     1   0.10969 276646.080000
    651    653     1   0.10969 276646.080000
    654    658     1   0.10969 276646.080000
    655    657     1   0.10969 276646.080000
    656    659     1   0.10961 277566.560000
    661    667     1   0.09730 310787.520000
    662    665     1   0.09730 310787.520000
    663    666     1   0.09730 310787.520000
    664    668     1   0.10969 276646.080000
    664    669     1   0.10969 276646.080000
    670    671     1   0.09730 310787.520000
    673    675     1   0.10969 276646.080000
    674    676     1   0.10969 276646.080000
    677    681     1   0.10969 276646.080000
    678    680     1   0.10969 276646.080000
    679    682     1   0.10961 277566.560000
    684    690     1   0.09730 310787.520000
    685    688     1   0.09730 310787.520000
    686    689     1   0.09730 310787.520000
    687    691     1   0.10969 276646.080000
    687    692     1   0.10969 276646.080000
    693    694     1   0.09730 310787.520000
    696    698     1   0.10969 276646.080000
    697    699     1   0.10969 276646.080000
    700    704     1   0.10969 276646.080000
    701    703     1   0.10969 276646.080000
    702    705     1   0.10961 277566.560000
    707    713     1   0.09730 310787.520000
    708    711     1   0.09730 310787.520000
    709    712     1   0.09730 310787.520000
    710    714     1   0.10969 276646.080000
    710    715     1   0.10969 276646.080000
    716    717     1   0.09730 310787.520000
    719    721     1   0.10969 276646.080000
    720    722     1   0.10969 276646.080000
    723    727     1   0.10969 276646.080000
    724    726     1   0.10969 276646.080000
    725    728     1   0.10961 277566.560000
    730    736     1   0.09730 310787.520000
    731    734     1   0.09730 310787.520000
    732    735     1   0.09730 310787.520000
    733    737     1   0.10969 276646.080000
    733    738     1   0.10969 276646.080000
    739    740     1   0.09730 310787.520000
    742    744     1   0.10969 276646.080000
    743    745     1   0.10969 276646.080000
    746    750     1   0.10969 276646.080000
    747    749     1   0.10969 276646.080000
    748    751     1   0.10961 277566.560000
    753    759     1   0.09730 310787.520000
    754    757     1   0.09730 310787.520000
    755    758     1   0.09730 310787.520000
    756    760     1   0.10969 276646.080000
    756    761     1   0.10969 276646.080000
    762    763     1   0.09730 310787.520000
    765    767     1   0.10969 276646.080000
    766    768     1   0.10969 276646.080000
    769    773     1   0.10969 276646.080000
    770    772     1   0.10969 276646.080000
    771    774     1   0.10961 277566.560000
    776    782     1   0.09730 310787.520000
    777    780     1   0.09730 310787.520000
    778    781     1   0.09730 310787.520000
    779    783     1   0.10969 276646.080000
    779    784     1   0.10969 276646.080000
    785    786     1   0.09730 310787.520000

[ pairs ]
;    ai     aj funct         c0         c1         c2         c3
      1     14     1
      1     17     1
      2     11     1
      2     20     1
      5      8     1
      5     21     1
      8     28     1
      8     31     1
     11     22     1
     11     25     1
     14     40     1
     14     43     1
     17     34     1
     17     37     1
     20     49     1
     20     46     1
     21     55     1
     21     52     1
     22     37     1
     22    178     1
     25     34     1
     25    148     1
     28     43     1
     28    118     1
     31     40     1
     31     88     1
     34    169     1
     37    139     1
     40    109     1
     43     79     1
     46     70     1
     49    100     1
     52    130     1
     55    160     1
     60     85     1
     60     82     1
     60     79     1
     61     76     1
     61     70     1
     61    238     1
     64     73     1
     64     70     1
     64    208     1
     67     73     1
     67     76     1
     67     88     1
     73    229     1
     76    199     1
     82    190     1
     85    220     1
     90    115     1
     90    112     1
     90    109     1
     91    106     1
     91    100     1
     91    298     1
     94    103     1
     94    100     1
     94    268     1
     97    103     1
     97    106     1
     97    118     1
    103    289     1
    106    259     1
    112    250     1
    115    280     1
    120    145     1
    120    142     1
    120    139     1
    121    136     1
    121    130     1
    121    358     1
    124    133     1
    124    130     1
    124    328     1
    127    133     1
    127    136     1
    127    148     1
    133    349     1
    136    319     1
    142    310     1
    145    340     1
    150    175     1
    150    172     1
    150    169     1
    151    166     1
    151    160     1
    151    418     1
    154    163     1
    154    160     1
    154    388     1
    157    163     1
    157    166     1
    157    178     1
    163    409     1
    166    379     1
    172    370     1
    175    400     1
    180    205     1
    180    202     1
    180    199     1
    181    196     1
    181    190     1
    181    453     1
    184    193     1
    184    190     1
    184    430     1
    187    193     1
    187    196     1
    187    208     1
    193    449     1
    196    426     1
    202    425     1
    202    442     1
    205    465     1
    205    448     1
    210    235     1
    210    232     1
    210    229     1
    211    226     1
    211    220     1
    211    499     1
    214    223     1
    214    220     1
    214    476     1
    217    223     1
    217    226     1
    217    238     1
    223    495     1
    226    472     1
    232    471     1
    232    488     1
    235    511     1
    235    494     1
    240    265     1
    240    262     1
    240    259     1
    241    256     1
    241    250     1
    241    545     1
    244    253     1
    244    250     1
    244    522     1
    247    253     1
    247    256     1
    247    268     1
    253    541     1
    256    518     1
    262    517     1
    262    534     1
    265    557     1
    265    540     1
    270    295     1
    270    292     1
    270    289     1
    271    286     1
    271    280     1
    271    591     1
    274    283     1
    274    280     1
    274    568     1
    277    283     1
    277    286     1
    277    298     1
    283    587     1
    286    564     1
    292    563     1
    292    580     1
    295    603     1
    295    586     1
    300    325     1
    300    322     1
    300    319     1
    301    316     1
    301    310     1
    301    637     1
    304    313     1
    304    310     1
    304    614     1
    307    313     1
    307    316     1
    307    328     1
    313    633     1
    316    610     1
    322    609     1
    322    626     1
    325    649     1
    325    632     1
    330    355     1
    330    352     1
    330    349     1
    331    346     1
    331    340     1
    331    683     1
    334    343     1
    334    340     1
    334    660     1
    337    343     1
    337    346     1
    337    358     1
    343    679     1
    346    656     1
    352    655     1
    352    672     1
    355    695     1
    355    678     1
    360    385     1
    360    382     1
    360    379     1
    361    376     1
    361    370     1
    361    729     1
    364    373     1
    364    370     1
    364    706     1
    367    373     1
    367    376     1
    367    388     1
    373    725     1
    376    702     1
    382    701     1
    382    718     1
    385    741     1
    385    724     1
    390    415     1
    390    412     1
    390    409     1
    391    406     1
    391    400     1
    391    775     1
    394    403     1
    394    400     1
    394    752     1
    397    403     1
    397    406     1
    397    418     1
    403    771     1
    406    748     1
    412    747     1
    412    764     1
    415    787     1
    415    770     1
    420    425     1
    420    432     1
    420    430     1
    421    440     1
    421    426     1
    421    431     1
    424    434     1
    424    442     1
    424    430     1
    425    433     1
    426    432     1
    426    434     1
    430    431     1
    431    432     1
    431    442     1
    432    433     1
    433    434     1
    433    442     1
    440    442     1
    443    448     1
    443    455     1
    443    453     1
    444    449     1
    444    454     1
    444    463     1
    447    453     1
    447    465     1
    447    457     1
    448    456     1
    449    457     1
    449    455     1
    453    454     1
    454    465     1
    454    455     1
    455    456     1
    456    457     1
    456    465     1
    463    465     1
    466    471     1
    466    478     1
    466    476     1
    467    486     1
    467    472     1
    467    477     1
    470    480     1
    470    488     1
    470    476     1
    471    479     1
    472    478     1
    472    480     1
    476    477     1
    477    478     1
    477    488     1
    478    479     1
    479    480     1
    479    488     1
    486    488     1
    489    494     1
    489    501     1
    489    499     1
    490    495     1
    490    500     1
    490    509     1
    493    499     1
    493    511     1
    493    503     1
    494    502     1
    495    503     1
    495    501     1
    499    500     1
    500    511     1
    500    501     1
    501    502     1
    502    503     1
    502    511     1
    509    511     1
    512    517     1
    512    524     1
    512    522     1
    513    532     1
    513    518     1
    513    523     1
    516    526     1
    516    534     1
    516    522     1
    517    525     1
    518    524     1
    518    526     1
    522    523     1
    523    524     1
    523    534     1
    524    525     1
    525    526     1
    525    534     1
    532    534     1
    535    540     1
    535    547     1
    535    545     1
    536    541     1
    536    546     1
    536    555     1
    539    545     1
    539    557     1
    539    549     1
    540    548     1
    541    549     1
    541    547     1
    545    546     1
    546    557     1
    546    547     1
    547    548     1
    548    549     1
    548    557     1
    555    557     1
    558    563     1
    558    570     1
    558    568     1
    559    578     1
    559    564     1
    559    569     1
    562    572     1
    562    580     1
    562    568     1
    563    571     1
    564    570     1
    564    572     1
    568    569     1
    569    570     1
    569    580     1
    570    571     1
    571    572     1
    571    580     1
    578    580     1
    581    586     1
    581    593     1
    581    591     1
    582    587     1
    582    592     1
    582    601     1
    585    591     1
    585    603     1
    585    595     1
    586    594     1
    587    595     1
    587    593     1
    591    592     1
    592    603     1
    592    593     1
    593    594     1
    594    595     1
    594    603     1
    601    603     1
    604    609     1
    604    616     1
    604    614     1
    605    624     1
    605    610     1
    605    615     1
    608    618     1
    608    626     1
    608    614     1
    609    617     1
    610    616     1
    610    618     1
    614    615     1
    615    616     1
    615    626     1
    616    617     1
    617    618     1
    617    626     1
    624    626     1
    627    632     1
    627    639     1
    627    637     1
    628    633     1
    628    638     1
    628    647     1
    631    637     1
    631    649     1
    631    641     1
    632    640     1
    633    641     1
    633    639     1
    637    638     1
    638    649     1
    638    639     1
    639    640     1
    640    641     1
    640    649     1
    647    649     1
    650    655     1
    650    662     1
    650    660     1
    651    670     1
    651    656     1
    651    661     1
    654    664     1
    654    672     1
    654    660     1
    655    663     1
    656    662     1
    656    664     1
    660    661     1
    661    662     1
    661    672     1
    662    663     1
    663    664     1
    663    672     1
    670    672     1
    673    678     1
    673    685     1
    673    683     1
    674    679     1
    674    684     1
    674    693     1
    677    683     1
    677    695     1
    677    687     1
    678    686     1
    679    687     1
    679    685     1
    683    684     1
    684    695     1
    684    685     1
    685    686     1
    686    687     1
    686    695     1
    693    695     1
    696    701     1
    696    708     1
    696    706     1
    697    716     1
    697    702     1
    697    707     1
    700    710     1
    700    718     1
    700    706     1
    701    709     1
    702    708     1
    702    710     1
    706    707     1
    707    708     1
    707    718     1
    708    709     1
    709    710     1
    709    718     1
    716    718     1
    719    724     1
    719    731     1
    719    729     1
    720    725     1
    720    730     1
    720    739     1
    723    729     1
    723    741     1
    723    733     1
    724    732     1
    725    733     1
    725    731     1
    729    730     1
    730    741     1
    730    731     1
    731    732     1
    732    733     1
    732    741     1
    739    741     1
    742    747     1
    742    754     1
    742    752     1
    743    762     1
    743    748     1
    743    753     1
    746    756     1
    746    764     1
    746    752     1
    747    755     1
    748    754     1
    748    756     1
    752    753     1
    753    754     1
    753    764     1
    754    755     1
    755    756     1
    755    764     1
    762    764     1
    765    770     1
    765    777     1
    765    775     1
    766    771     1
    766    776     1
    766    785     1
    769    775     1
    769    787     1
    769    779     1
    770    778     1
    771    779     1
    771    777     1
    775    776     1
    776    787     1
    776    777     1
    777    778     1
    778    779     1
    778    787     1
    785    787     1
      1      9     1
      1     10     1
      1     12     1
      1     13     1
      2      6     1
      2      7     1
      2     15     1
      2     16     1
      5      3     1
      3     14     1
      3      9     1
      3     10     1
      5      4     1
      4     14     1
      4      9     1
      4     10     1
      5     18     1
      5     19     1
      6     17     1
      6     12     1
      6     13     1
      7     17     1
      7     12     1
      7     13     1
      8     58     1
      9     20     1
      9     15     1
      9     16     1
     10     20     1
     10     15     1
     10     16     1
     11     59     1
     12     21     1
     12     18     1
     12     19     1
     13     21     1
     13     18     1
     13     19     1
     14     29     1
     14     30     1
     14     32     1
     14     33     1
     15     28     1
     15     31     1
     15     58     1
     16     28     1
     16     31     1
     16     58     1
     17     23     1
     17     24     1
     17     26     1
     17     27     1
     18     22     1
     18     25     1
     18     59     1
     19     22     1
     19     25     1
     19     59     1
     20     41     1
     20     42     1
     20     44     1
     20     45     1
     21     35     1
     21     36     1
     21     38     1
     21     39     1
     22     26     1
     22     27     1
     22     56     1
     22     57     1
     23     25     1
     23     59     1
     23     55     1
     23     35     1
     23     36     1
     24     25     1
     24     59     1
     24     55     1
     24     35     1
     24     36     1
     25     53     1
     25     54     1
     26     59     1
     26     52     1
     26     38     1
     26     39     1
     27     59     1
     27     52     1
     27     38     1
     27     39     1
     28     32     1
     28     33     1
     28     50     1
     28     51     1
     29     31     1
     29     58     1
     29     49     1
     29     41     1
     29     42     1
     30     31     1
     30     58     1
     30     49     1
     30     41     1
     30     42     1
     31     47     1
     31     48     1
     32     58     1
     32     46     1
     32     44     1
     32     45     1
     33     58     1
     33     46     1
     33     44     1
     33     45     1
     34     59     1
     35    178     1
     35     56     1
     35     57     1
     36    178     1
     36     56     1
     36     57     1
     37     59     1
     38    148     1
     38     53     1
     38     54     1
     39    148     1
     39     53     1
     39     54     1
     40     58     1
     41    118     1
     41     50     1
     41     51     1
     42    118     1
     42     50     1
     42     51     1
     43     58     1
     44     88     1
     44     47     1
     44     48     1
     45     88     1
     45     47     1
     45     48     1
     46     80     1
     46     81     1
     47     79     1
     48     79     1
     49    110     1
     49    111     1
     50    109     1
     51    109     1
     52    140     1
     52    141     1
     53    139     1
     54    139     1
     55    170     1
     55    171     1
     56    169     1
     57    169     1
     60     74     1
     60     75     1
     60     77     1
     60     78     1
     60     71     1
     60     72     1
     61     65     1
     61     66     1
     61     68     1
     61     69     1
     61     86     1
     61     87     1
     62     64     1
     62     67     1
     62     89     1
     62     85     1
     62     74     1
     62     75     1
     63     64     1
     63     67     1
     63     89     1
     63     85     1
     63     74     1
     63     75     1
     64     68     1
     64     69     1
     64     83     1
     64     84     1
     65     67     1
     65     89     1
     65     82     1
     65     77     1
     65     78     1
     66     67     1
     66     89     1
     66     82     1
     66     77     1
     66     78     1
     67     80     1
     67     81     1
     68     89     1
     68     79     1
     68     71     1
     68     72     1
     69     89     1
     69     79     1
     69     71     1
     69     72     1
     70     89     1
     71     88     1
     71     80     1
     71     81     1
     72     88     1
     72     80     1
     72     81     1
     73     89     1
     74    238     1
     74     86     1
     74     87     1
     75    238     1
     75     86     1
     75     87     1
     76     89     1
     77    208     1
     77     83     1
     77     84     1
     78    208     1
     78     83     1
     78     84     1
     82    200     1
     82    201     1
     83    199     1
     84    199     1
     85    230     1
     85    231     1
     86    229     1
     87    229     1
     90    104     1
     90    105     1
     90    107     1
     90    108     1
     90    101     1
     90    102     1
     91     95     1
     91     96     1
     91     98     1
     91     99     1
     91    116     1
     91    117     1
     92     94     1
     92     97     1
     92    119     1
     92    115     1
     92    104     1
     92    105     1
     93     94     1
     93     97     1
     93    119     1
     93    115     1
     93    104     1
     93    105     1
     94     98     1
     94     99     1
     94    113     1
     94    114     1
     95     97     1
     95    119     1
     95    112     1
     95    107     1
     95    108     1
     96     97     1
     96    119     1
     96    112     1
     96    107     1
     96    108     1
     97    110     1
     97    111     1
     98    119     1
     98    109     1
     98    101     1
     98    102     1
     99    119     1
     99    109     1
     99    101     1
     99    102     1
    100    119     1
    101    118     1
    101    110     1
    101    111     1
    102    118     1
    102    110     1
    102    111     1
    103    119     1
    104    298     1
    104    116     1
    104    117     1
    105    298     1
    105    116     1
    105    117     1
    106    119     1
    107    268     1
    107    113     1
    107    114     1
    108    268     1
    108    113     1
    108    114     1
    112    260     1
    112    261     1
    113    259     1
    114    259     1
    115    290     1
    115    291     1
    116    289     1
    117    289     1
    120    134     1
    120    135     1
    120    137     1
    120    138     1
    120    131     1
    120    132     1
    121    125     1
    121    126     1
    121    128     1
    121    129     1
    121    146     1
    121    147     1
    122    124     1
    122    127     1
    122    149     1
    122    145     1
    122    134     1
    122    135     1
    123    124     1
    123    127     1
    123    149     1
    123    145     1
    123    134     1
    123    135     1
    124    128     1
    124    129     1
    124    143     1
    124    144     1
    125    127     1
    125    149     1
    125    142     1
    125    137     1
    125    138     1
    126    127     1
    126    149     1
    126    142     1
    126    137     1
    126    138     1
    127    140     1
    127    141     1
    128    149     1
    128    139     1
    128    131     1
    128    132     1
    129    149     1
    129    139     1
    129    131     1
    129    132     1
    130    149     1
    131    148     1
    131    140     1
    131    141     1
    132    148     1
    132    140     1
    132    141     1
    133    149     1
    134    358     1
    134    146     1
    134    147     1
    135    358     1
    135    146     1
    135    147     1
    136    149     1
    137    328     1
    137    143     1
    137    144     1
    138    328     1
    138    143     1
    138    144     1
    142    320     1
    142    321     1
    143    319     1
    144    319     1
    145    350     1
    145    351     1
    146    349     1
    147    349     1
    150    164     1
    150    165     1
    150    167     1
    150    168     1
    150    161     1
    150    162     1
    151    155     1
    151    156     1
    151    158     1
    151    159     1
    151    176     1
    151    177     1
    152    154     1
    152    157     1
    152    179     1
    152    175     1
    152    164     1
    152    165     1
    153    154     1
    153    157     1
    153    179     1
    153    175     1
    153    164     1
    153    165     1
    154    158     1
    154    159     1
    154    173     1
    154    174     1
    155    157     1
    155    179     1
    155    172     1
    155    167     1
    155    168     1
    156    157     1
    156    179     1
    156    172     1
    156    167     1
    156    168     1
    157    170     1
    157    171     1
    158    179     1
    158    169     1
    158    161     1
    158    162     1
    159    179     1
    159    169     1
    159    161     1
    159    162     1
    160    179     1
    161    178     1
    161    170     1
    161    171     1
    162    178     1
    162    170     1
    162    171     1
    163    179     1
    164    418     1
    164    176     1
    164    177     1
    165    418     1
    165    176     1
    165    177     1
    166    179     1
    167    388     1
    167    173     1
    167    174     1
    168    388     1
    168    173     1
    168    174     1
    172    380     1
    172    381     1
    173    379     1
    174    379     1
    175    410     1
    175    411     1
    176    409     1
    177    409     1
    180    194     1
    180    195     1
    180    197     1
    180    198     1
    180    191     1
    180    192     1
    181    185     1
    181    186     1
    181    188     1
    181    189     1
    181    206     1
    181    207     1
    182    184     1
    182    187     1
    182    209     1
    182    205     1
    182    194     1
    182    195     1
    183    184     1
    183    187     1
    183    209     1
    183    205     1
    183    194     1
    183    195     1
    184    188     1
    184    189     1
    184    203     1
    184    204     1
    185    187     1
    185    209     1
    185    202     1
    185    197     1
    185    198     1
    186    187     1
    186    209     1
    186    202     1
    186    197     1
    186    198     1
    187    200     1
    187    201     1
    188    209     1
    188    199     1
    188    191     1
    188    192     1
    189    209     1
    189    199     1
    189    191     1
    189    192     1
    190    209     1
    191    208     1
    191    200     1
    191    201     1
    192    208     1
    192    200     1
    192    201     1
    193    209     1
    194    453     1
    194    206     1
    194    207     1
    195    453     1
    195    206     1
    195    207     1
    196    209     1
    197    430     1
    197    203     1
    197    204     1
    198    430     1
    198    203     1
    198    204     1
    202    429     1
    203    426     1
    204    426     1
    205    452     1
    206    449     1
    207    449     1
    210    224     1
    210    225     1
    210    227     1
    210    228     1
    210    221     1
    210    222     1
    211    215     1
    211    216     1
    211    218     1
    211    219     1
    211    236     1
    211    237     1
    212    214     1
    212    217     1
    212    239     1
    212    235     1
    212    224     1
    212    225     1
    213    214     1
    213    217     1
    213    239     1
    213    235     1
    213    224     1
    213    225     1
    214    218     1
    214    219     1
    214    233     1
    214    234     1
    215    217     1
    215    239     1
    215    232     1
    215    227     1
    215    228     1
    216    217     1
    216    239     1
    216    232     1
    216    227     1
    216    228     1
    217    230     1
    217    231     1
    218    239     1
    218    229     1
    218    221     1
    218    222     1
    219    239     1
    219    229     1
    219    221     1
    219    222     1
    220    239     1
    221    238     1
    221    230     1
    221    231     1
    222    238     1
    222    230     1
    222    231     1
    223    239     1
    224    499     1
    224    236     1
    224    237     1
    225    499     1
    225    236     1
    225    237     1
    226    239     1
    227    476     1
    227    233     1
    227    234     1
    228    476     1
    228    233     1
    228    234     1
    232    475     1
    233    472     1
    234    472     1
    235    498     1
    236    495     1
    237    495     1
    240    254     1
    240    255     1
    240    257     1
    240    258     1
    240    251     1
    240    252     1
    241    245     1
    241    246     1
    241    248     1
    241    249     1
    241    266     1
    241    267     1
    242    244     1
    242    247     1
    242    269     1
    242    265     1
    242    254     1
    242    255     1
    243    244     1
    243    247     1
    243    269     1
    243    265     1
    243    254     1
    243    255     1
    244    248     1
    244    249     1
    244    263     1
    244    264     1
    245    247     1
    245    269     1
    245    262     1
    245    257     1
    245    258     1
    246    247     1
    246    269     1
    246    262     1
    246    257     1
    246    258     1
    247    260     1
    247    261     1
    248    269     1
    248    259     1
    248    251     1
    248    252     1
    249    269     1
    249    259     1
    249    251     1
    249    252     1
    250    269     1
    251    268     1
    251    260     1
    251    261     1
    252    268     1
    252    260     1
    252    261     1
    253    269     1
    254    545     1
    254    266     1
    254    267     1
    255    545     1
    255    266     1
    255    267     1
    256    269     1
    257    522     1
    257    263     1
    257    264     1
    258    522     1
    258    263     1
    258    264     1
    262    521     1
    263    518     1
    264    518     1
    265    544     1
    266    541     1
    267    541     1
    270    284     1
    270    285     1
    270    287     1
    270    288     1
    270    281     1
    270    282     1
    271    275     1
    271    276     1
    271    278     1
    271    279     1
    271    296     1
    271    297     1
    272    274     1
    272    277     1
    272    299     1
    272    295     1
    272    284     1
    272    285     1
    273    274     1
    273    277     1
    273    299     1
    273    295     1
    273    284     1
    273    285     1
    274    278     1
    274    279     1
    274    293     1
    274    294     1
    275    277     1
    275    299     1
    275    292     1
    275    287     1
    275    288     1
    276    277     1
    276    299     1
    276    292     1
    276    287     1
    276    288     1
    277    290     1
    277    291     1
    278    299     1
    278    289     1
    278    281     1
    278    282     1
    279    299     1
    279    289     1
    279    281     1
    279    282     1
    280    299     1
    281    298     1
    281    290     1
    281    291     1
    282    298     1
    282    290     1
    282    291     1
    283    299     1
    284    591     1
    284    296     1
    284    297     1
    285    591     1
    285    296     1
    285    297     1
    286    299     1
    287    568     1
    287    293     1
    287    294     1
    288    568     1
    288    293     1
    288    294     1
    292    567     1
    293    564     1
    294    564     1
    295    590     1
    296    587     1
    297    587     1
    300    314     1
    300    315     1
    300    317     1
    300    318     1
    300    311     1
    300    312     1
    301    305     1
    301    306     1
    301    308     1
    301    309     1
    301    326     1
    301    327     1
    302    304     1
    302    307     1
    302    329     1
    302    325     1
    302    314     1
    302    315     1
    303    304     1
    303    307     1
    303    329     1
    303    325     1
    303    314     1
    303    315     1
    304    308     1
    304    309     1
    304    323     1
    304    324     1
    305    307     1
    305    329     1
    305    322     1
    305    317     1
    305    318     1
    306    307     1
    306    329     1
    306    322     1
    306    317     1
    306    318     1
    307    320     1
    307    321     1
    308    329     1
    308    319     1
    308    311     1
    308    312     1
    309    329     1
    309    319     1
    309    311     1
    309    312     1
    310    329     1
    311    328     1
    311    320     1
    311    321     1
    312    328     1
    312    320     1
    312    321     1
    313    329     1
    314    637     1
    314    326     1
    314    327     1
    315    637     1
    315    326     1
    315    327     1
    316    329     1
    317    614     1
    317    323     1
    317    324     1
    318    614     1
    318    323     1
    318    324     1
    322    613     1
    323    610     1
    324    610     1
    325    636     1
    326    633     1
    327    633     1
    330    344     1
    330    345     1
    330    347     1
    330    348     1
    330    341     1
    330    342     1
    331    335     1
    331    336     1
    331    338     1
    331    339     1
    331    356     1
    331    357     1
    332    334     1
    332    337     1
    332    359     1
    332    355     1
    332    344     1
    332    345     1
    333    334     1
    333    337     1
    333    359     1
    333    355     1
    333    344     1
    333    345     1
    334    338     1
    334    339     1
    334    353     1
    334    354     1
    335    337     1
    335    359     1
    335    352     1
    335    347     1
    335    348     1
    336    337     1
    336    359     1
    336    352     1
    336    347     1
    336    348     1
    337    350     1
    337    351     1
    338    359     1
    338    349     1
    338    341     1
    338    342     1
    339    359     1
    339    349     1
    339    341     1
    339    342     1
    340    359     1
    341    358     1
    341    350     1
    341    351     1
    342    358     1
    342    350     1
    342    351     1
    343    359     1
    344    683     1
    344    356     1
    344    357     1
    345    683     1
    345    356     1
    345    357     1
    346    359     1
    347    660     1
    347    353     1
    347    354     1
    348    660     1
    348    353     1
    348    354     1
    352    659     1
    353    656     1
    354    656     1
    355    682     1
    356    679     1
    357    679     1
    360    374     1
    360    375     1
    360    377     1
    360    378     1
    360    371     1
    360    372     1
    361    365     1
    361    366     1
    361    368     1
    361    369     1
    361    386     1
    361    387     1
    362    364     1
    362    367     1
    362    389     1
    362    385     1
    362    374     1
    362    375     1
    363    364     1
    363    367     1
    363    389     1
    363    385     1
    363    374     1
    363    375     1
    364    368     1
    364    369     1
    364    383     1
    364    384     1
    365    367     1
    365    389     1
    365    382     1
    365    377     1
    365    378     1
    366    367     1
    366    389     1
    366    382     1
    366    377     1
    366    378     1
    367    380     1
    367    381     1
    368    389     1
    368    379     1
    368    371     1
    368    372     1
    369    389     1
    369    379     1
    369    371     1
    369    372     1
    370    389     1
    371    388     1
    371    380     1
    371    381     1
    372    388     1
    372    380     1
    372    381     1
    373    389     1
    374    729     1
    374    386     1
    374    387     1
    375    729     1
    375    386     1
    375    387     1
    376    389     1
    377    706     1
    377    383     1
    377    384     1
    378    706     1
    378    383     1
    378    384     1
    382    705     1
    383    702     1
    384    702     1
    385    728     1
    386    725     1
    387    725     1
    390    404     1
    390    405     1
    390    407     1
    390    408     1
    390    401     1
    390    402     1
    391    395     1
    391    396     1
    391    398     1
    391    399     1
    391    416     1
    391    417     1
    392    394     1
    392    397     1
    392    419     1
    392    415     1
    392    404     1
    392    405     1
    393    394     1
    393    397     1
    393    419     1
    393    415     1
    393    404     1
    393    405     1
    394    398     1
    394    399     1
    394    413     1
    394    414     1
    395    397     1
    395    419     1
    395    412     1
    395    407     1
    395    408     1
    396    397     1
    396    419     1
    396    412     1
    396    407     1
    396    408     1
    397    410     1
    397    411     1
    398    419     1
    398    409     1
    398    401     1
    398    402     1
    399    419     1
    399    409     1
    399    401     1
    399    402     1
    400    419     1
    401    418     1
    401    410     1
    401    411     1
    402    418     1
    402    410     1
    402    411     1
    403    419     1
    404    775     1
    404    416     1
    404    417     1
    405    775     1
    405    416     1
    405    417     1
    406    419     1
    407    752     1
    407    413     1
    407    414     1
    408    752     1
    408    413     1
    408    414     1
    412    751     1
    413    748     1
    414    748     1
    415    774     1
    416    771     1
    417    771     1
    420    428     1
    420    436     1
    420    441     1
    420    429     1
    421    438     1
    421    439     1
    421    427     1
    421    435     1
    422    424     1
    422    433     1
    422    423     1
    422    440     1
    422    438     1
    422    439     1
    422    426     1
    423    434     1
    423    442     1
    423    425     1
    423    432     1
    423    428     1
    423    436     1
    424    436     1
    424    429     1
    424    437     1
    425    435     1
    426    428     1
    426    437     1
    427    432     1
    427    428     1
    427    430     1
    427    442     1
    427    429     1
    427    437     1
    428    433     1
    428    431     1
    428    435     1
    429    431     1
    438    442     1
    438    441     1
    439    442     1
    439    441     1
    443    451     1
    443    459     1
    443    464     1
    443    452     1
    444    450     1
    444    458     1
    444    461     1
    444    462     1
    445    447     1
    445    456     1
    445    446     1
    445    463     1
    445    461     1
    445    462     1
    445    449     1
    446    448     1
    446    455     1
    446    451     1
    446    459     1
    446    457     1
    446    465     1
    447    452     1
    447    460     1
    447    459     1
    448    458     1
    449    460     1
    449    451     1
    450    453     1
    450    465     1
    450    452     1
    450    460     1
    450    455     1
    450    451     1
    451    454     1
    451    458     1
    451    456     1
    452    454     1
    461    464     1
    461    465     1
    462    464     1
    462    465     1
    466    474     1
    466    482     1
    466    487     1
    466    475     1
    467    484     1
    467    485     1
    467    473     1
    467    481     1
    468    470     1
    468    479     1
    468    469     1
    468    486     1
    468    484     1
    468    485     1
    468    472     1
    469    480     1
    469    488     1
    469    471     1
    469    478     1
    469    474     1
    469    482     1
    470    482     1
    470    475     1
    470    483     1
    471    481     1
    472    474     1
    472    483     1
    473    478     1
    473    474     1
    473    476     1
    473    488     1
    473    475     1
    473    483     1
    474    479     1
    474    477     1
    474    481     1
    475    477     1
    484    488     1
    484    487     1
    485    488     1
    485    487     1
    489    497     1
    489    505     1
    489    510     1
    489    498     1
    490    496     1
    490    504     1
    490    507     1
    490    508     1
    491    493     1
    491    502     1
    491    492     1
    491    509     1
    491    507     1
    491    508     1
    491    495     1
    492    494     1
    492    501     1
    492    497     1
    492    505     1
    492    503     1
    492    511     1
    493    498     1
    493    506     1
    493    505     1
    494    504     1
    495    506     1
    495    497     1
    496    499     1
    496    511     1
    496    498     1
    496    506     1
    496    501     1
    496    497     1
    497    500     1
    497    504     1
    497    502     1
    498    500     1
    507    510     1
    507    511     1
    508    510     1
    508    511     1
    512    520     1
    512    528     1
    512    533     1
    512    521     1
    513    530     1
    513    531     1
    513    519     1
    513    527     1
    514    516     1
    514    525     1
    514    515     1
    514    532     1
    514    530     1
    514    531     1
    514    518     1
    515    526     1
    515    534     1
    515    517     1
    515    524     1
    515    520     1
    515    528     1
    516    528     1
    516    521     1
    516    529     1
    517    527     1
    518    520     1
    518    529     1
    519    524     1
    519    520     1
    519    522     1
    519    534     1
    519    521     1
    519    529     1
    520    525     1
    520    523     1
    520    527     1
    521    523     1
    530    534     1
    530    533     1
    531    534     1
    531    533     1
    535    543     1
    535    551     1
    535    556     1
    535    544     1
    536    542     1
    536    550     1
    536    553     1
    536    554     1
    537    539     1
    537    548     1
    537    538     1
    537    555     1
    537    553     1
    537    554     1
    537    541     1
    538    540     1
    538    547     1
    538    543     1
    538    551     1
    538    549     1
    538    557     1
    539    544     1
    539    552     1
    539    551     1
    540    550     1
    541    552     1
    541    543     1
    542    545     1
    542    557     1
    542    544     1
    542    552     1
    542    547     1
    542    543     1
    543    546     1
    543    550     1
    543    548     1
    544    546     1
    553    556     1
    553    557     1
    554    556     1
    554    557     1
    558    566     1
    558    574     1
    558    579     1
    558    567     1
    559    576     1
    559    577     1
    559    565     1
    559    573     1
    560    562     1
    560    571     1
    560    561     1
    560    578     1
    560    576     1
    560    577     1
    560    564     1
    561    572     1
    561    580     1
    561    563     1
    561    570     1
    561    566     1
    561    574     1
    562    574     1
    562    567     1
    562    575     1
    563    573     1
    564    566     1
    564    575     1
    565    570     1
    565    566     1
    565    568     1
    565    580     1
    565    567     1
    565    575     1
    566    571     1
    566    569     1
    566    573     1
    567    569     1
    576    580     1
    576    579     1
    577    580     1
    577    579     1
    581    589     1
    581    597     1
    581    602     1
    581    590     1
    582    588     1
    582    596     1
    582    599     1
    582    600     1
    583    585     1
    583    594     1
    583    584     1
    583    601     1
    583    599     1
    583    600     1
    583    587     1
    584    586     1
    584    593     1
    584    589     1
    584    597     1
    584    595     1
    584    603     1
    585    590     1
    585    598     1
    585    597     1
    586    596     1
    587    598     1
    587    589     1
    588    591     1
    588    603     1
    588    590     1
    588    598     1
    588    593     1
    588    589     1
    589    592     1
    589    596     1
    589    594     1
    590    592     1
    599    602     1
    599    603     1
    600    602     1
    600    603     1
    604    612     1
    604    620     1
    604    625     1
    604    613     1
    605    622     1
    605    623     1
    605    611     1
    605    619     1
    606    608     1
    606    617     1
    606    607     1
    606    624     1
    606    622     1
    606    623     1
    606    610     1
    607    618     1
    607    626     1
    607    609     1
    607    616     1
    607    612     1
    607    620     1
    608    620     1
    608    613     1
    608    621     1
    609    619     1
    610    612     1
    610    621     1
    611    616     1
    611    612     1
    611    614     1
    611    626     1
    611    613     1
    611    621     1
    612    617     1
    612    615     1
    612    619     1
    613    615     1
    622    626     1
    622    625     1
    623    626     1
    623    625     1
    627    635     1
    627    643     1
    627    648     1
    627    636     1
    628    634     1
    628    642     1
    628    645     1
    628    646     1
    629    631     1
    629    640     1
    629    630     1
    629    647     1
    629    645     1
    629    646     1
    629    633     1
    630    632     1
    630    639     1
    630    635     1
    630    643     1
    630    641     1
    630    649     1
    631    636     1
    631    644     1
    631    643     1
    632    642     1
    633    644     1
    633    635     1
    634    637     1
    634    649     1
    634    636     1
    634    644     1
    634    639     1
    634    635     1
    635    638     1
    635    642     1
    635    640     1
    636    638     1
    645    648     1
    645    649     1
    646    648     1
    646    649     1
    650    658     1
    650    666     1
    650    671     1
    650    659     1
    651    668     1
    651    669     1
    651    657     1
    651    665     1
    652    654     1
    652    663     1
    652    653     1
    652    670     1
    652    668     1
    652    669     1
    652    656     1
    653    664     1
    653    672     1
    653    655     1
    653    662     1
    653    658     1
    653    666     1
    654    666     1
    654    659     1
    654    667     1
    655    665     1
    656    658     1
    656    667     1
    657    662     1
    657    658     1
    657    660     1
    657    672     1
    657    659     1
    657    667     1
    658    663     1
    658    661     1
    658    665     1
    659    661     1
    668    672     1
    668    671     1
    669    672     1
    669    671     1
    673    681     1
    673    689     1
    673    694     1
    673    682     1
    674    680     1
    674    688     1
    674    691     1
    674    692     1
    675    677     1
    675    686     1
    675    676     1
    675    693     1
    675    691     1
    675    692     1
    675    679     1
    676    678     1
    676    685     1
    676    681     1
    676    689     1
    676    687     1
    676    695     1
    677    682     1
    677    690     1
    677    689     1
    678    688     1
    679    690     1
    679    681     1
    680    683     1
    680    695     1
    680    682     1
    680    690     1
    680    685     1
    680    681     1
    681    684     1
    681    688     1
    681    686     1
    682    684     1
    691    694     1
    691    695     1
    692    694     1
    692    695     1
    696    704     1
    696    712     1
    696    717     1
    696    705     1
    697    714     1
    697    715     1
    697    703     1
    697    711     1
    698    700     1
    698    709     1
    698    699     1
    698    716     1
    698    714     1
    698    715     1
    698    702     1
    699    710     1
    699    718     1
    699    701     1
    699    708     1
    699    704     1
    699    712     1
    700    712     1
    700    705     1
    700    713     1
    701    711     1
    702    704     1
    702    713     1
    703    708     1
    703    704     1
    703    706     1
    703    718     1
    703    705     1
    703    713     1
    704    709     1
    704    707     1
    704    711     1
    705    707     1
    714    718     1
    714    717     1
    715    718     1
    715    717     1
    719    727     1
    719    735     1
    719    740     1
    719    728     1
    720    726     1
    720    734     1
    720    737     1
    720    738     1
    721    723     1
    721    732     1
    721    722     1
    721    739     1
    721    737     1
    721    738     1
    721    725     1
    722    724     1
    722    731     1
    722    727     1
    722    735     1
    722    733     1
    722    741     1
    723    728     1
    723    736     1
    723    735     1
    724    734     1
    725    736     1
    725    727     1
    726    729     1
    726    741     1
    726    728     1
    726    736     1
    726    731     1
    726    727     1
    727    730     1
    727    734     1
    727    732     1
    728    730     1
    737    740     1
    737    741     1
    738    740     1
    738    741     1
    742    750     1
    742    758     1
    742    763     1
    742    751     1
    743    760     1
    743    761     1
    743    749     1
    743    757     1
    744    746     1
    744    755     1
    744    745     1
    744    762     1
    744    760     1
    744    761     1
    744    748     1
    745    756     1
    745    764     1
    745    747     1
    745    754     1
    745    750     1
    745    758     1
    746    758     1
    746    751     1
    746    759     1
    747    757     1
    748    750     1
    748    759     1
    749    754     1
    749    750     1
    749    752     1
    749    764     1
    749    751     1
    749    759     1
    750    755     1
    750    753     1
    750    757     1
    751    753     1
    760    764     1
    760    763     1
    761    764     1
    761    763     1
    765    773     1
    765    781     1
    765    786     1
    765    774     1
    766    772     1
    766    780     1
    766    783     1
    766    784     1
    767    769     1
    767    778     1
    767    768     1
    767    785     1
    767    783     1
    767    784     1
    767    771     1
    768    770     1
    768    777     1
    768    773     1
    768    781     1
    768    779     1
    768    787     1
    769    774     1
    769    782     1
    769    781     1
    770    780     1
    771    782     1
    771    773     1
    772    775     1
    772    787     1
    772    774     1
    772    782     1
    772    777     1
    772    773     1
    773    776     1
    773    780     1
    773    778     1
    774    776     1
    783    786     1
    783    787     1
    784    786     1
    784    787     1

[ angles ]
;    ai     aj     ak funct         c0         c1         c2         c3
      1      2      8     1   107.9700462 569.024000
      1      5     11     1   107.9700462 569.024000
      2      1      5     1   112.4800480 524.673600
      2      8     14     1   111.5100476 526.347200
      5     11     17     1   111.5100476 526.347200
      8     14     20     1   114.2100488 537.225600
     11     17     21     1   114.2100488 537.225600
     14     20     28     1   109.6600471 523.836800
     14     20     31     1   109.6600471 523.836800
     17     21     22     1   109.6600471 523.836800
     17     21     25     1   109.6600471 523.836800
     20     28     40     1   114.2100488 537.225600
     20     31     43     1   114.2100488 537.225600
     21     22     34     1   114.2100488 537.225600
     21     25     37     1   114.2100488 537.225600
     22     21     25     1   109.6600471 523.836800
     22     34     55     1   111.5100476 526.347200
     25     37     52     1   111.5100476 526.347200
     28     20     31     1   109.6600471 523.836800
     28     40     49     1   111.5100476 526.347200
     31     43     46     1   111.5100476 526.347200
     34     55    178     1   107.9700462 569.024000
     37     52    148     1   107.9700462 569.024000
     40     49    118     1   107.9700462 569.024000
     43     46     88     1   107.9700462 569.024000
     46     88     79     1   112.4800480 524.673600
     49    118    109     1   112.4800480 524.673600
     52    148    139     1   112.4800480 524.673600
     55    178    169     1   112.4800480 524.673600
     60     61     73     1   114.2100488 537.225600
     60     64     76     1   114.2100488 537.225600
     60     67     70     1   114.2100488 537.225600
     61     60     64     1   109.6600471 523.836800
     61     60     67     1   109.6600471 523.836800
     61     73     85     1   111.5100476 526.347200
     64     60     67     1   109.6600471 523.836800
     64     76     82     1   111.5100476 526.347200
     67     70     79     1   111.5100476 526.347200
     70     79     88     1   107.9700462 569.024000
     73     85    238     1   107.9700462 569.024000
     76     82    208     1   107.9700462 569.024000
     82    208    199     1   112.4800480 524.673600
     85    238    229     1   112.4800480 524.673600
     90     91    103     1   114.2100488 537.225600
     90     94    106     1   114.2100488 537.225600
     90     97    100     1   114.2100488 537.225600
     91     90     94     1   109.6600471 523.836800
     91     90     97     1   109.6600471 523.836800
     91    103    115     1   111.5100476 526.347200
     94     90     97     1   109.6600471 523.836800
     94    106    112     1   111.5100476 526.347200
     97    100    109     1   111.5100476 526.347200
    100    109    118     1   107.9700462 569.024000
    103    115    298     1   107.9700462 569.024000
    106    112    268     1   107.9700462 569.024000
    112    268    259     1   112.4800480 524.673600
    115    298    289     1   112.4800480 524.673600
    120    121    133     1   114.2100488 537.225600
    120    124    136     1   114.2100488 537.225600
    120    127    130     1   114.2100488 537.225600
    121    120    124     1   109.6600471 523.836800
    121    120    127     1   109.6600471 523.836800
    121    133    145     1   111.5100476 526.347200
    124    120    127     1   109.6600471 523.836800
    124    136    142     1   111.5100476 526.347200
    127    130    139     1   111.5100476 526.347200
    130    139    148     1   107.9700462 569.024000
    133    145    358     1   107.9700462 569.024000
    136    142    328     1   107.9700462 569.024000
    142    328    319     1   112.4800480 524.673600
    145    358    349     1   112.4800480 524.673600
    150    151    163     1   114.2100488 537.225600
    150    154    166     1   114.2100488 537.225600
    150    157    160     1   114.2100488 537.225600
    151    150    154     1   109.6600471 523.836800
    151    150    157     1   109.6600471 523.836800
    151    163    175     1   111.5100476 526.347200
    154    150    157     1   109.6600471 523.836800
    154    166    172     1   111.5100476 526.347200
    157    160    169     1   111.5100476 526.347200
    160    169    178     1   107.9700462 569.024000
    163    175    418     1   107.9700462 569.024000
    166    172    388     1   107.9700462 569.024000
    172    388    379     1   112.4800480 524.673600
    175    418    409     1   112.4800480 524.673600
    180    181    193     1   114.2100488 537.225600
    180    184    196     1   114.2100488 537.225600
    180    187    190     1   114.2100488 537.225600
    181    180    184     1   109.6600471 523.836800
    181    180    187     1   109.6600471 523.836800
    181    193    205     1   111.5100476 526.347200
    184    180    187     1   109.6600471 523.836800
    184    196    202     1   111.5100476 526.347200
    187    190    199     1   111.5100476 526.347200
    190    199    208     1   107.9700462 569.024000
    193    205    453     1   107.9700462 569.024000
    196    202    430     1   107.9700462 569.024000
    202    430    426     1   112.4800480 524.673600
    205    453    449     1   112.4800480 524.673600
    210    211    223     1   114.2100488 537.225600
    210    214    226     1   114.2100488 537.225600
    210    217    220     1   114.2100488 537.225600
    211    210    214     1   109.6600471 523.836800
    211    210    217     1   109.6600471 523.836800
    211    223    235     1   111.5100476 526.347200
    214    210    217     1   109.6600471 523.836800
    214    226    232     1   111.5100476 526.347200
    217    220    229     1   111.5100476 526.347200
    220    229    238     1   107.9700462 569.024000
    223    235    499     1   107.9700462 569.024000
    226    232    476     1   107.9700462 569.024000
    232    476    472     1   112.4800480 524.673600
    235    499    495     1   112.4800480 524.673600
    240    241    253     1   114.2100488 537.225600
    240    244    256     1   114.2100488 537.225600
    240    247    250     1   114.2100488 537.225600
    241    240    244     1   109.6600471 523.836800
    241    240    247     1   109.6600471 523.836800
    241    253    265     1   111.5100476 526.347200
    244    240    247     1   109.6600471 523.836800
    244    256    262     1   111.5100476 526.347200
    247    250    259     1   111.5100476 526.347200
    250    259    268     1   107.9700462 569.024000
    253    265    545     1   107.9700462 569.024000
    256    262    522     1   107.9700462 569.024000
    262    522    518     1   112.4800480 524.673600
    265    545    541     1   112.4800480 524.673600
    270    271    283     1   114.2100488 537.225600
    270    274    286     1   114.2100488 537.225600
    270    277    280     1   114.2100488 537.225600
    271    270    274     1   109.6600471 523.836800
    271    270    277     1   109.6600471 523.836800
    271    283    295     1   111.5100476 526.347200
    274    270    277     1   109.6600471 523.836800
    274    286    292     1   111.5100476 526.347200
    277    280    289     1   111.5100476 526.347200
    280    289    298     1   107.9700462 569.024000
    283    295    591     1   107.9700462 569.024000
    286    292    568     1   107.9700462 569.024000
    292    568    564     1   112.4800480 524.673600
    295    591    587     1   112.4800480 524.673600
    300    301    313     1   114.2100488 537.225600
    300    304    316     1   114.2100488 537.225600
    300    307    310     1   114.2100488 537.225600
    301    300    304     1   109.6600471 523.836800
    301    300    307     1   109.6600471 523.836800
    301    313    325     1   111.5100476 526.347200
    304    300    307     1   109.6600471 523.836800
    304    316    322     1   111.5100476 526.347200
    307    310    319     1   111.5100476 526.347200
    310    319    328     1   107.9700462 569.024000
    313    325    637     1   107.9700462 569.024000
    316    322    614     1   107.9700462 569.024000
    322    614    610     1   112.4800480 524.673600
    325    637    633     1   112.4800480 524.673600
    330    331    343     1   114.2100488 537.225600
    330    334    346     1   114.2100488 537.225600
    330    337    340     1   114.2100488 537.225600
    331    330    334     1   109.6600471 523.836800
    331    330    337     1   109.6600471 523.836800
    331    343    355     1   111.5100476 526.347200
    334    330    337     1   109.6600471 523.836800
    334    346    352     1   111.5100476 526.347200
    337    340    349     1   111.5100476 526.347200
    340    349    358     1   107.9700462 569.024000
    343    355    683     1   107.9700462 569.024000
    346    352    660     1   107.9700462 569.024000
    352    660    656     1   112.4800480 524.673600
    355    683    679     1   112.4800480 524.673600
    360    361    373     1   114.2100488 537.225600
    360    364    376     1   114.2100488 537.225600
    360    367    370     1   114.2100488 537.225600
    361    360    364     1   109.6600471 523.836800
    361    360    367     1   109.6600471 523.836800
    361    373    385     1   111.5100476 526.347200
    364    360    367     1   109.6600471 523.836800
    364    376    382     1   111.5100476 526.347200
    367    370    379     1   111.5100476 526.347200
    370    379    388     1   107.9700462 569.024000
    373    385    729     1   107.9700462 569.024000
    376    382    706     1   107.9700462 569.024000
    382    706    702     1   112.4800480 524.673600
    385    729    725     1   112.4800480 524.673600
    390    391    403     1   114.2100488 537.225600
    390    394    406     1   114.2100488 537.225600
    390    397    400     1   114.2100488 537.225600
    391    390    394     1   109.6600471 523.836800
    391    390    397     1   109.6600471 523.836800
    391    403    415     1   111.5100476 526.347200
    394    390    397     1   109.6600471 523.836800
    394    406    412     1   111.5100476 526.347200
    397    400    409     1   111.5100476 526.347200
    400    409    418     1   107.9700462 569.024000
    403    415    775     1   107.9700462 569.024000
    406    412    752     1   107.9700462 569.024000
    412    752    748     1   112.4800480 524.673600
    415    775    771     1   112.4800480 524.673600
    420    421    424     1   111.5100476 526.347200
    420    421    433     1   110.1900474 564.840000
    420    434    440     1   110.1900474 564.840000
    420    442    426     1   112.4800480 524.673600
    421    420    434     1   111.5100476 526.347200
    421    420    442     1   107.9700462 569.024000
    421    424    425     1   111.5100476 526.347200
    421    424    432     1   110.1900474 564.840000
    424    421    433     1   110.1900474 564.840000
    424    425    426     1   111.5100476 526.347200
    424    425    431     1   110.1900474 564.840000
    425    424    432     1   110.1900474 564.840000
    425    426    430     1   107.9700462 569.024000
    425    426    442     1   107.9700462 569.024000
    426    425    431     1   110.1900474 564.840000
    430    426    442     1   108.2900466 608.353600
    434    420    442     1   107.9700462 569.024000
    443    444    447     1   111.5100476 526.347200
    443    444    456     1   110.1900474 564.840000
    443    457    463     1   110.1900474 564.840000
    443    465    449     1   112.4800480 524.673600
    444    447    448     1   111.5100476 526.347200
    444    447    455     1   110.1900474 564.840000
    444    443    457     1   111.5100476 526.347200
    444    443    465     1   107.9700462 569.024000
    447    448    449     1   111.5100476 526.347200
    447    448    454     1   110.1900474 564.840000
    447    444    456     1   110.1900474 564.840000
    448    449    453     1   107.9700462 569.024000
    448    449    465     1   107.9700462 569.024000
    448    447    455     1   110.1900474 564.840000
    449    448    454     1   110.1900474 564.840000
    453    449    465     1   108.2900466 608.353600
    457    443    465     1   107.9700462 569.024000
    466    467    470     1   111.5100476 526.347200
    466    467    479     1   110.1900474 564.840000
    466    480    486     1   110.1900474 564.840000
    466    488    472     1   112.4800480 524.673600
    467    466    480     1   111.5100476 526.347200
    467    466    488     1   107.9700462 569.024000
    467    470    471     1   111.5100476 526.347200
    467    470    478     1   110.1900474 564.840000
    470    467    479     1   110.1900474 564.840000
    470    471    472     1   111.5100476 526.347200
    470    471    477     1   110.1900474 564.840000
    471    470    478     1   110.1900474 564.840000
    471    472    476     1   107.9700462 569.024000
    471    472    488     1   107.9700462 569.024000
    472    471    477     1   110.1900474 564.840000
    476    472    488     1   108.2900466 608.353600
    480    466    488     1   107.9700462 569.024000
    489    490    493     1   111.5100476 526.347200
    489    490    502     1   110.1900474 564.840000
    489    503    509     1   110.1900474 564.840000
    489    511    495     1   112.4800480 524.673600
    490    493    494     1   111.5100476 526.347200
    490    493    501     1   110.1900474 564.840000
    490    489    503     1   111.5100476 526.347200
    490    489    511     1   107.9700462 569.024000
    493    494    495     1   111.5100476 526.347200
    493    494    500     1   110.1900474 564.840000
    493    490    502     1   110.1900474 564.840000
    494    495    499     1   107.9700462 569.024000
    494    495    511     1   107.9700462 569.024000
    494    493    501     1   110.1900474 564.840000
    495    494    500     1   110.1900474 564.840000
    499    495    511     1   108.2900466 608.353600
    503    489    511     1   107.9700462 569.024000
    512    513    516     1   111.5100476 526.347200
    512    513    525     1   110.1900474 564.840000
    512    526    532     1   110.1900474 564.840000
    512    534    518     1   112.4800480 524.673600
    513    512    526     1   111.5100476 526.347200
    513    512    534     1   107.9700462 569.024000
    513    516    517     1   111.5100476 526.347200
    513    516    524     1   110.1900474 564.840000
    516    513    525     1   110.1900474 564.840000
    516    517    518     1   111.5100476 526.347200
    516    517    523     1   110.1900474 564.840000
    517    516    524     1   110.1900474 564.840000
    517    518    522     1   107.9700462 569.024000
    517    518    534     1   107.9700462 569.024000
    518    517    523     1   110.1900474 564.840000
    522    518    534     1   108.2900466 608.353600
    526    512    534     1   107.9700462 569.024000
    535    536    539     1   111.5100476 526.347200
    535    536    548     1   110.1900474 564.840000
    535    549    555     1   110.1900474 564.840000
    535    557    541     1   112.4800480 524.673600
    536    539    540     1   111.5100476 526.347200
    536    539    547     1   110.1900474 564.840000
    536    535    549     1   111.5100476 526.347200
    536    535    557     1   107.9700462 569.024000
    539    540    541     1   111.5100476 526.347200
    539    540    546     1   110.1900474 564.840000
    539    536    548     1   110.1900474 564.840000
    540    541    545     1   107.9700462 569.024000
    540    541    557     1   107.9700462 569.024000
    540    539    547     1   110.1900474 564.840000
    541    540    546     1   110.1900474 564.840000
    545    541    557     1   108.2900466 608.353600
    549    535    557     1   107.9700462 569.024000
    558    559    562     1   111.5100476 526.347200
    558    559    571     1   110.1900474 564.840000
    558    572    578     1   110.1900474 564.840000
    558    580    564     1   112.4800480 524.673600
    559    558    572     1   111.5100476 526.347200
    559    558    580     1   107.9700462 569.024000
    559    562    563     1   111.5100476 526.347200
    559    562    570     1   110.1900474 564.840000
    562    559    571     1   110.1900474 564.840000
    562    563    564     1   111.5100476 526.347200
    562    563    569     1   110.1900474 564.840000
    563    562    570     1   110.1900474 564.840000
    563    564    568     1   107.9700462 569.024000
    563    564    580     1   107.9700462 569.024000
    564    563    569     1   110.1900474 564.840000
    568    564    580     1   108.2900466 608.353600
    572    558    580     1   107.9700462 569.024000
    581    582    585     1   111.5100476 526.347200
    581    582    594     1   110.1900474 564.840000
    581    595    601     1   110.1900474 564.840000
    581    603    587     1   112.4800480 524.673600
    582    585    586     1   111.5100476 526.347200
    582    585    593     1   110.1900474 564.840000
    582    581    595     1   111.5100476 526.347200
    582    581    603     1   107.9700462 569.024000
    585    586    587     1   111.5100476 526.347200
    585    586    592     1   110.1900474 564.840000
    585    582    594     1   110.1900474 564.840000
    586    587    591     1   107.9700462 569.024000
    586    587    603     1   107.9700462 569.024000
    586    585    593     1   110.1900474 564.840000
    587    586    592     1   110.1900474 564.840000
    591    587    603     1   108.2900466 608.353600
    595    581    603     1   107.9700462 569.024000
    604    605    608     1   111.5100476 526.347200
    604    605    617     1   110.1900474 564.840000
    604    618    624     1   110.1900474 564.840000
    604    626    610     1   112.4800480 524.673600
    605    604    618     1   111.5100476 526.347200
    605    604    626     1   107.9700462 569.024000
    605    608    609     1   111.5100476 526.347200
    605    608    616     1   110.1900474 564.840000
    608    605    617     1   110.1900474 564.840000
    608    609    610     1   111.5100476 526.347200
    608    609    615     1   110.1900474 564.840000
    609    608    616     1   110.1900474 564.840000
    609    610    614     1   107.9700462 569.024000
    609    610    626     1   107.9700462 569.024000
    610    609    615     1   110.1900474 564.840000
    614    610    626     1   108.2900466 608.353600
    618    604    626     1   107.9700462 569.024000
    627    628    631     1   111.5100476 526.347200
    627    628    640     1   110.1900474 564.840000
    627    641    647     1   110.1900474 564.840000
    627    649    633     1   112.4800480 524.673600
    628    631    632     1   111.5100476 526.347200
    628    631    639     1   110.1900474 564.840000
    628    627    641     1   111.5100476 526.347200
    628    627    649     1   107.9700462 569.024000
    631    632    633     1   111.5100476 526.347200
    631    632    638     1   110.1900474 564.840000
    631    628    640     1   110.1900474 564.840000
    632    633    637     1   107.9700462 569.024000
    632    633    649     1   107.9700462 569.024000
    632    631    639     1   110.1900474 564.840000
    633    632    638     1   110.1900474 564.840000
    637    633    649     1   108.2900466 608.353600
    641    627    649     1   107.9700462 569.024000
    650    651    654     1   111.5100476 526.347200
    650    651    663     1   110.1900474 564.840000
    650    664    670     1   110.1900474 564.840000
    650    672    656     1   112.4800480 524.673600
    651    650    664     1   111.5100476 526.347200
    651    650    672     1   107.9700462 569.024000
    651    654    655     1   111.5100476 526.347200
    651    654    662     1   110.1900474 564.840000
    654    651    663     1   110.1900474 564.840000
    654    655    656     1   111.5100476 526.347200
    654    655    661     1   110.1900474 564.840000
    655    654    662     1   110.1900474 564.840000
    655    656    660     1   107.9700462 569.024000
    655    656    672     1   107.9700462 569.024000
    656    655    661     1   110.1900474 564.840000
    660    656    672     1   108.2900466 608.353600
    664    650    672     1   107.9700462 569.024000
    673    674    677     1   111.5100476 526.347200
    673    674    686     1   110.1900474 564.840000
    673    687    693     1   110.1900474 564.840000
    673    695    679     1   112.4800480 524.673600
    674    677    678     1   111.5100476 526.347200
    674    677    685     1   110.1900474 564.840000
    674    673    687     1   111.5100476 526.347200
    674    673    695     1   107.9700462 569.024000
    677    678    679     1   111.5100476 526.347200
    677    678    684     1   110.1900474 564.840000
    677    674    686     1   110.1900474 564.840000
    678    679    683     1   107.9700462 569.024000
    678    679    695     1   107.9700462 569.024000
    678    677    685     1   110.1900474 564.840000
    679    678    684     1   110.1900474 564.840000
    683    679    695     1   108.2900466 608.353600
    687    673    695     1   107.9700462 569.024000
    696    697    700     1   111.5100476 526.347200
    696    697    709     1   110.1900474 564.840000
    696    710    716     1   110.1900474 564.840000
    696    718    702     1   112.4800480 524.673600
    697    696    710     1   111.5100476 526.347200
    697    696    718     1   107.9700462 569.024000
    697    700    701     1   111.5100476 526.347200
    697    700    708     1   110.1900474 564.840000
    700    697    709     1   110.1900474 564.840000
    700    701    702     1   111.5100476 526.347200
    700    701    707     1   110.1900474 564.840000
    701    700    708     1   110.1900474 564.840000
    701    702    706     1   107.9700462 569.024000
    701    702    718     1   107.9700462 569.024000
    702    701    707     1   110.1900474 564.840000
    706    702    718     1   108.2900466 608.353600
    710    696    718     1   107.9700462 569.024000
    719    720    723     1   111.5100476 526.347200
    719    720    732     1   110.1900474 564.840000
    719    733    739     1   110.1900474 564.840000
    719    741    725     1   112.4800480 524.673600
    720    723    724     1   111.5100476 526.347200
    720    723    731     1   110.1900474 564.840000
    720    719    733     1   111.5100476 526.347200
    720    719    741     1   107.9700462 569.024000
    723    724    725     1   111.5100476 526.347200
    723    724    730     1   110.1900474 564.840000
    723    720    732     1   110.1900474 564.840000
    724    725    729     1   107.9700462 569.024000
    724    725    741     1   107.9700462 569.024000
    724    723    731     1   110.1900474 564.840000
    725    724    730     1   110.1900474 564.840000
    729    725    741     1   108.2900466 608.353600
    733    719    741     1   107.9700462 569.024000
    742    743    746     1   111.5100476 526.347200
    742    743    755     1   110.1900474 564.840000
    742    756    762     1   110.1900474 564.840000
    742    764    748     1   112.4800480 524.673600
    743    742    756     1   111.5100476 526.347200
    743    742    764     1   107.9700462 569.024000
    743    746    747     1   111.5100476 526.347200
    743    746    754     1   110.1900474 564.840000
    746    743    755     1   110.1900474 564.840000
    746    747    748     1   111.5100476 526.347200
    746    747    753     1   110.1900474 564.840000
    747    746    754     1   110.1900474 564.840000
    747    748    752     1   107.9700462 569.024000
    747    748    764     1   107.9700462 569.024000
    748    747    753     1   110.1900474 564.840000
    752    748    764     1   108.2900466 608.353600
    756    742    764     1   107.9700462 569.024000
    765    766    769     1   111.5100476 526.347200
    765    766    778     1   110.1900474 564.840000
    765    779    785     1   110.1900474 564.840000
    765    787    771     1   112.4800480 524.673600
    766    769    770     1   111.5100476 526.347200
    766    769    777     1   110.1900474 564.840000
    766    765    779     1   111.5100476 526.347200
    766    765    787     1   107.9700462 569.024000
    769    770    771     1   111.5100476 526.347200
    769    770    776     1   110.1900474 564.840000
    769    766    778     1   110.1900474 564.840000
    770    771    775     1   107.9700462 569.024000
    770    771    787     1   107.9700462 569.024000
    770    769    777     1   110.1900474 564.840000
    771    770    776     1   110.1900474 564.840000
    775    771    787     1   108.2900466 608.353600
    779    765    787     1   107.9700462 569.024000
      1      2      3     1   109.7800468 425.094400
      1      2      4     1   109.7800468 425.094400
      1      5      6     1   109.7800468 425.094400
      1      5      7     1   109.7800468 425.094400
      2      8      9     1   109.8000471 387.438400
      2      8     10     1   109.8000471 387.438400
      3      2      8     1   109.5600471 388.275200
      3      2      4     1   108.4600466 328.025600
      4      2      8     1   109.5600471 388.275200
      5     11     12     1   109.8000471 387.438400
      5     11     13     1   109.8000471 387.438400
      6      5     11     1   109.5600471 388.275200
      6      5      7     1   108.4600466 328.025600
      7      5     11     1   109.5600471 388.275200
      8     14     15     1   110.5600475 386.601600
      8     14     16     1   110.5600475 386.601600
      9      8     14     1   109.8000471 387.438400
      9      8     10     1   107.5800459 329.699200
     10      8     14     1   109.8000471 387.438400
     11     17     18     1   110.5600475 386.601600
     11     17     19     1   110.5600475 386.601600
     12     11     17     1   109.8000471 387.438400
     12     11     13     1   107.5800459 329.699200
     13     11     17     1   109.8000471 387.438400
     14     20     58     1   110.1100470 384.091200
     15     14     20     1   108.0100461 406.684800
     15     14     16     1   109.7500473 328.025600
     16     14     20     1   108.0100461 406.684800
     17     21     59     1   110.1100470 384.091200
     18     17     21     1   108.0100461 406.684800
     18     17     19     1   109.7500473 328.025600
     19     17     21     1   108.0100461 406.684800
     20     28     29     1   108.0100461 406.684800
     20     28     30     1   108.0100461 406.684800
     20     31     32     1   108.0100461 406.684800
     20     31     33     1   108.0100461 406.684800
     21     22     23     1   108.0100461 406.684800
     21     22     24     1   108.0100461 406.684800
     21     25     26     1   108.0100461 406.684800
     21     25     27     1   108.0100461 406.684800
     22     21     59     1   110.1100470 384.091200
     22     34     35     1   109.8000471 387.438400
     22     34     36     1   109.8000471 387.438400
     23     22     34     1   110.5600475 386.601600
     23     22     24     1   109.7500473 328.025600
     24     22     34     1   110.5600475 386.601600
     25     21     59     1   110.1100470 384.091200
     25     37     38     1   109.8000471 387.438400
     25     37     39     1   109.8000471 387.438400
     26     25     37     1   110.5600475 386.601600
     26     25     27     1   109.7500473 328.025600
     27     25     37     1   110.5600475 386.601600
     28     20     58     1   110.1100470 384.091200
     28     40     41     1   109.8000471 387.438400
     28     40     42     1   109.8000471 387.438400
     29     28     40     1   110.5600475 386.601600
     29     28     30     1   109.7500473 328.025600
     30     28     40     1   110.5600475 386.601600
     31     20     58     1   110.1100470 384.091200
     31     43     44     1   109.8000471 387.438400
     31     43     45     1   109.8000471 387.438400
     32     31     43     1   110.5600475 386.601600
     32     31     33     1   109.7500473 328.025600
     33     31     43     1   110.5600475 386.601600
     34     55     56     1   109.8000471 387.438400
     34     55     57     1   109.8000471 387.438400
     35     34     55     1   109.8000471 387.438400
     35     34     36     1   107.5800459 329.699200
     36     34     55     1   109.8000471 387.438400
     37     52     53     1   109.8000471 387.438400
     37     52     54     1   109.8000471 387.438400
     38     37     52     1   109.8000471 387.438400
     38     37     39     1   107.5800459 329.699200
     39     37     52     1   109.8000471 387.438400
     40     49     50     1   109.8000471 387.438400
     40     49     51     1   109.8000471 387.438400
     41     40     49     1   109.8000471 387.438400
     41     40     42     1   107.5800459 329.699200
     42     40     49     1   109.8000471 387.438400
     43     46     47     1   109.8000471 387.438400
     43     46     48     1   109.8000471 387.438400
     44     43     46     1   109.8000471 387.438400
     44     43     45     1   107.5800459 329.699200
     45     43     46     1   109.8000471 387.438400
     47     46     88     1   108.7000466 426.768000
     47     46     48     1   107.5800459 329.699200
     48     46     88     1   108.7000466 426.768000
     50     49    118     1   108.7000466 426.768000
     50     49     51     1   107.5800459 329.699200
     51     49    118     1   108.7000466 426.768000
     53     52    148     1   108.7000466 426.768000
     53     52     54     1   107.5800459 329.699200
     54     52    148     1   108.7000466 426.768000
     56     55    178     1   108.7000466 426.768000
     56     55     57     1   107.5800459 329.699200
     57     55    178     1   108.7000466 426.768000
     60     61     62     1   108.0100461 406.684800
     60     61     63     1   108.0100461 406.684800
     60     64     65     1   108.0100461 406.684800
     60     64     66     1   108.0100461 406.684800
     60     67     68     1   108.0100461 406.684800
     60     67     69     1   108.0100461 406.684800
     61     60     89     1   110.1100470 384.091200
     61     73     74     1   109.8000471 387.438400
     61     73     75     1   109.8000471 387.438400
     62     61     73     1   110.5600475 386.601600
     62     61     63     1   109.7500473 328.025600
     63     61     73     1   110.5600475 386.601600
     64     60     89     1   110.1100470 384.091200
     64     76     77     1   109.8000471 387.438400
     64     76     78     1   109.8000471 387.438400
     65     64     76     1   110.5600475 386.601600
     65     64     66     1   109.7500473 328.025600
     66     64     76     1   110.5600475 386.601600
     67     60     89     1   110.1100470 384.091200
     67     70     71     1   109.8000471 387.438400
     67     70     72     1   109.8000471 387.438400
     68     67     70     1   110.5600475 386.601600
     68     67     69     1   109.7500473 328.025600
     69     67     70     1   110.5600475 386.601600
     70     79     80     1   109.5600471 388.275200
     70     79     81     1   109.5600471 388.275200
     71     70     79     1   109.8000471 387.438400
     71     70     72     1   107.5800459 329.699200
     72     70     79     1   109.8000471 387.438400
     73     85     86     1   109.5600471 388.275200
     73     85     87     1   109.5600471 388.275200
     74     73     85     1   109.8000471 387.438400
     74     73     75     1   107.5800459 329.699200
     75     73     85     1   109.8000471 387.438400
     76     82     83     1   109.5600471 388.275200
     76     82     84     1   109.5600471 388.275200
     77     76     82     1   109.8000471 387.438400
     77     76     78     1   107.5800459 329.699200
     78     76     82     1   109.8000471 387.438400
     80     79     88     1   109.7800468 425.094400
     80     79     81     1   108.4600466 328.025600
     81     79     88     1   109.7800468 425.094400
     83     82    208     1   109.7800468 425.094400
     83     82     84     1   108.4600466 328.025600
     84     82    208     1   109.7800468 425.094400
     86     85    238     1   109.7800468 425.094400
     86     85     87     1   108.4600466 328.025600
     87     85    238     1   109.7800468 425.094400
     90     91     92     1   108.0100461 406.684800
     90     91     93     1   108.0100461 406.684800
     90     94     95     1   108.0100461 406.684800
     90     94     96     1   108.0100461 406.684800
     90     97     98     1   108.0100461 406.684800
     90     97     99     1   108.0100461 406.684800
     91     90    119     1   110.1100470 384.091200
     91    103    104     1   109.8000471 387.438400
     91    103    105     1   109.8000471 387.438400
     92     91    103     1   110.5600475 386.601600
     92     91     93     1   109.7500473 328.025600
     93     91    103     1   110.5600475 386.601600
     94     90    119     1   110.1100470 384.091200
     94    106    107     1   109.8000471 387.438400
     94    106    108     1   109.8000471 387.438400
     95     94    106     1   110.5600475 386.601600
     95     94     96     1   109.7500473 328.025600
     96     94    106     1   110.5600475 386.601600
     97     90    119     1   110.1100470 384.091200
     97    100    101     1   109.8000471 387.438400
     97    100    102     1   109.8000471 387.438400
     98     97    100     1   110.5600475 386.601600
     98     97     99     1   109.7500473 328.025600
     99     97    100     1   110.5600475 386.601600
    100    109    110     1   109.5600471 388.275200
    100    109    111     1   109.5600471 388.275200
    101    100    109     1   109.8000471 387.438400
    101    100    102     1   107.5800459 329.699200
    102    100    109     1   109.8000471 387.438400
    103    115    116     1   109.5600471 388.275200
    103    115    117     1   109.5600471 388.275200
    104    103    115     1   109.8000471 387.438400
    104    103    105     1   107.5800459 329.699200
    105    103    115     1   109.8000471 387.438400
    106    112    113     1   109.5600471 388.275200
    106    112    114     1   109.5600471 388.275200
    107    106    112     1   109.8000471 387.438400
    107    106    108     1   107.5800459 329.699200
    108    106    112     1   109.8000471 387.438400
    110    109    118     1   109.7800468 425.094400
    110    109    111     1   108.4600466 328.025600
    111    109    118     1   109.7800468 425.094400
    113    112    268     1   109.7800468 425.094400
    113    112    114     1   108.4600466 328.025600
    114    112    268     1   109.7800468 425.094400
    116    115    298     1   109.7800468 425.094400
    116    115    117     1   108.4600466 328.025600
    117    115    298     1   109.7800468 425.094400
    120    121    122     1   108.0100461 406.684800
    120    121    123     1   108.0100461 406.684800
    120    124    125     1   108.0100461 406.684800
    120    124    126     1   108.0100461 406.684800
    120    127    128     1   108.0100461 406.684800
    120    127    129     1   108.0100461 406.684800
    121    120    149     1   110.1100470 384.091200
    121    133    134     1   109.8000471 387.438400
    121    133    135     1   109.8000471 387.438400
    122    121    133     1   110.5600475 386.601600
    122    121    123     1   109.7500473 328.025600
    123    121    133     1   110.5600475 386.601600
    124    120    149     1   110.1100470 384.091200
    124    136    137     1   109.8000471 387.438400
    124    136    138     1   109.8000471 387.438400
    125    124    136     1   110.5600475 386.601600
    125    124    126     1   109.7500473 328.025600
    126    124    136     1   110.5600475 386.601600
    127    120    149     1   110.1100470 384.091200
    127    130    131     1   109.8000471 387.438400
    127    130    132     1   109.8000471 387.438400
    128    127    130     1   110.5600475 386.601600
    128    127    129     1   109.7500473 328.025600
    129    127    130     1   110.5600475 386.601600
    130    139    140     1   109.5600471 388.275200
    130    139    141     1   109.5600471 388.275200
    131    130    139     1   109.8000471 387.438400
    131    130    132     1   107.5800459 329.699200
    132    130    139     1   109.8000471 387.438400
    133    145    146     1   109.5600471 388.275200
    133    145    147     1   109.5600471 388.275200
    134    133    145     1   109.8000471 387.438400
    134    133    135     1   107.5800459 329.699200
    135    133    145     1   109.8000471 387.438400
    136    142    143     1   109.5600471 388.275200
    136    142    144     1   109.5600471 388.275200
    137    136    142     1   109.8000471 387.438400
    137    136    138     1   107.5800459 329.699200
    138    136    142     1   109.8000471 387.438400
    140    139    148     1   109.7800468 425.094400
    140    139    141     1   108.4600466 328.025600
    141    139    148     1   109.7800468 425.094400
    143    142    328     1   109.7800468 425.094400
    143    142    144     1   108.4600466 328.025600
    144    142    328     1   109.7800468 425.094400
    146    145    358     1   109.7800468 425.094400
    146    145    147     1   108.4600466 328.025600
    147    145    358     1   109.7800468 425.094400
    150    151    152     1   108.0100461 406.684800
    150    151    153     1   108.0100461 406.684800
    150    154    155     1   108.0100461 406.684800
    150    154    156     1   108.0100461 406.684800
    150    157    158     1   108.0100461 406.684800
    150    157    159     1   108.0100461 406.684800
    151    150    179     1   110.1100470 384.091200
    151    163    164     1   109.8000471 387.438400
    151    163    165     1   109.8000471 387.438400
    152    151    163     1   110.5600475 386.601600
    152    151    153     1   109.7500473 328.025600
    153    151    163     1   110.5600475 386.601600
    154    150    179     1   110.1100470 384.091200
    154    166    167     1   109.8000471 387.438400
    154    166    168     1   109.8000471 387.438400
    155    154    166     1   110.5600475 386.601600
    155    154    156     1   109.7500473 328.025600
    156    154    166     1   110.5600475 386.601600
    157    150    179     1   110.1100470 384.091200
    157    160    161     1   109.8000471 387.438400
    157    160    162     1   109.8000471 387.438400
    158    157    160     1   110.5600475 386.601600
    158    157    159     1   109.7500473 328.025600
    159    157    160     1   110.5600475 386.601600
    160    169    170     1   109.5600471 388.275200
    160    169    171     1   109.5600471 388.275200
    161    160    169     1   109.8000471 387.438400
    161    160    162     1   107.5800459 329.699200
    162    160    169     1   109.8000471 387.438400
    163    175    176     1   109.5600471 388.275200
    163    175    177     1   109.5600471 388.275200
    164    163    175     1   109.8000471 387.438400
    164    163    165     1   107.5800459 329.699200
    165    163    175     1   109.8000471 387.438400
    166    172    173     1   109.5600471 388.275200
    166    172    174     1   109.5600471 388.275200
    167    166    172     1   109.8000471 387.438400
    167    166    168     1   107.5800459 329.699200
    168    166    172     1   109.8000471 387.438400
    170    169    178     1   109.7800468 425.094400
    170    169    171     1   108.4600466 328.025600
    171    169    178     1   109.7800468 425.094400
    173    172    388     1   109.7800468 425.094400
    173    172    174     1   108.4600466 328.025600
    174    172    388     1   109.7800468 425.094400
    176    175    418     1   109.7800468 425.094400
    176    175    177     1   108.4600466 328.025600
    177    175    418     1   109.7800468 425.094400
    180    181    182     1   108.0100461 406.684800
    180    181    183     1   108.0100461 406.684800
    180    184    185     1   108.0100461 406.684800
    180    184    186     1   108.0100461 406.684800
    180    187    188     1   108.0100461 406.684800
    180    187    189     1   108.0100461 406.684800
    181    180    209     1   110.1100470 384.091200
    181    193    194     1   109.8000471 387.438400
    181    193    195     1   109.8000471 387.438400
    182    181    193     1   110.5600475 386.601600
    182    181    183     1   109.7500473 328.025600
    183    181    193     1   110.5600475 386.601600
    184    180    209     1   110.1100470 384.091200
    184    196    197     1   109.8000471 387.438400
    184    196    198     1   109.8000471 387.438400
    185    184    196     1   110.5600475 386.601600
    185    184    186     1   109.7500473 328.025600
    186    184    196     1   110.5600475 386.601600
    187    180    209     1   110.1100470 384.091200
    187    190    191     1   109.8000471 387.438400
    187    190    192     1   109.8000471 387.438400
    188    187    190     1   110.5600475 386.601600
    188    187    189     1   109.7500473 328.025600
    189    187    190     1   110.5600475 386.601600
    190    199    200     1   109.5600471 388.275200
    190    199    201     1   109.5600471 388.275200
    191    190    199     1   109.8000471 387.438400
    191    190    192     1   107.5800459 329.699200
    192    190    199     1   109.8000471 387.438400
    193    205    206     1   109.5600471 388.275200
    193    205    207     1   109.5600471 388.275200
    194    193    205     1   109.8000471 387.438400
    194    193    195     1   107.5800459 329.699200
    195    193    205     1   109.8000471 387.438400
    196    202    203     1   109.5600471 388.275200
    196    202    204     1   109.5600471 388.275200
    197    196    202     1   109.8000471 387.438400
    197    196    198     1   107.5800459 329.699200
    198    196    202     1   109.8000471 387.438400
    200    199    208     1   109.7800468 425.094400
    200    199    201     1   108.4600466 328.025600
    201    199    208     1   109.7800468 425.094400
    203    202    430     1   109.7800468 425.094400
    203    202    204     1   108.4600466 328.025600
    204    202    430     1   109.7800468 425.094400
    206    205    453     1   109.7800468 425.094400
    206    205    207     1   108.4600466 328.025600
    207    205    453     1   109.7800468 425.094400
    210    211    212     1   108.0100461 406.684800
    210    211    213     1   108.0100461 406.684800
    210    214    215     1   108.0100461 406.684800
    210    214    216     1   108.0100461 406.684800
    210    217    218     1   108.0100461 406.684800
    210    217    219     1   108.0100461 406.684800
    211    210    239     1   110.1100470 384.091200
    211    223    224     1   109.8000471 387.438400
    211    223    225     1   109.8000471 387.438400
    212    211    223     1   110.5600475 386.601600
    212    211    213     1   109.7500473 328.025600
    213    211    223     1   110.5600475 386.601600
    214    210    239     1   110.1100470 384.091200
    214    226    227     1   109.8000471 387.438400
    214    226    228     1   109.8000471 387.438400
    215    214    226     1   110.5600475 386.601600
    215    214    216     1   109.7500473 328.025600
    216    214    226     1   110.5600475 386.601600
    217    210    239     1   110.1100470 384.091200
    217    220    221     1   109.8000471 387.438400
    217    220    222     1   109.8000471 387.438400
    218    217    220     1   110.5600475 386.601600
    218    217    219     1   109.7500473 328.025600
    219    217    220     1   110.5600475 386.601600
    220    229    230     1   109.5600471 388.275200
    220    229    231     1   109.5600471 388.275200
    221    220    229     1   109.8000471 387.438400
    221    220    222     1   107.5800459 329.699200
    222    220    229     1   109.8000471 387.438400
    223    235    236     1   109.5600471 388.275200
    223    235    237     1   109.5600471 388.275200
    224    223    235     1   109.8000471 387.438400
    224    223    225     1   107.5800459 329.699200
    225    223    235     1   109.8000471 387.438400
    226    232    233     1   109.5600471 388.275200
    226    232    234     1   109.5600471 388.275200
    227    226    232     1   109.8000471 387.438400
    227    226    228     1   107.5800459 329.699200
    228    226    232     1   109.8000471 387.438400
    230    229    238     1   109.7800468 425.094400
    230    229    231     1   108.4600466 328.025600
    231    229    238     1   109.7800468 425.094400
    233    232    476     1   109.7800468 425.094400
    233    232    234     1   108.4600466 328.025600
    234    232    476     1   109.7800468 425.094400
    236    235    499     1   109.7800468 425.094400
    236    235    237     1   108.4600466 328.025600
    237    235    499     1   109.7800468 425.094400
    240    241    242     1   108.0100461 406.684800
    240    241    243     1   108.0100461 406.684800
    240    244    245     1   108.0100461 406.684800
    240    244    246     1   108.0100461 406.684800
    240    247    248     1   108.0100461 406.684800
    240    247    249     1   108.0100461 406.684800
    241    240    269     1   110.1100470 384.091200
    241    253    254     1   109.8000471 387.438400
    241    253    255     1   109.8000471 387.438400
    242    241    253     1   110.5600475 386.601600
    242    241    243     1   109.7500473 328.025600
    243    241    253     1   110.5600475 386.601600
    244    240    269     1   110.1100470 384.091200
    244    256    257     1   109.8000471 387.438400
    244    256    258     1   109.8000471 387.438400
    245    244    256     1   110.5600475 386.601600
    245    244    246     1   109.7500473 328.025600
    246    244    256     1   110.5600475 386.601600
    247    240    269     1   110.1100470 384.091200
    247    250    251     1   109.8000471 387.438400
    247    250    252     1   109.8000471 387.438400
    248    247    250     1   110.5600475 386.601600
    248    247    249     1   109.7500473 328.025600
    249    247    250     1   110.5600475 386.601600
    250    259    260     1   109.5600471 388.275200
    250    259    261     1   109.5600471 388.275200
    251    250    259     1   109.8000471 387.438400
    251    250    252     1   107.5800459 329.699200
    252    250    259     1   109.8000471 387.438400
    253    265    266     1   109.5600471 388.275200
    253    265    267     1   109.5600471 388.275200
    254    253    265     1   109.8000471 387.438400
    254    253    255     1   107.5800459 329.699200
    255    253    265     1   109.8000471 387.438400
    256    262    263     1   109.5600471 388.275200
    256    262    264     1   109.5600471 388.275200
    257    256    262     1   109.8000471 387.438400
    257    256    258     1   107.5800459 329.699200
    258    256    262     1   109.8000471 387.438400
    260    259    268     1   109.7800468 425.094400
    260    259    261     1   108.4600466 328.025600
    261    259    268     1   109.7800468 425.094400
    263    262    522     1   109.7800468 425.094400
    263    262    264     1   108.4600466 328.025600
    264    262    522     1   109.7800468 425.094400
    266    265    545     1   109.7800468 425.094400
    266    265    267     1   108.4600466 328.025600
    267    265    545     1   109.7800468 425.094400
    270    271    272     1   108.0100461 406.684800
    270    271    273     1   108.0100461 406.684800
    270    274    275     1   108.0100461 406.684800
    270    274    276     1   108.0100461 406.684800
    270    277    278     1   108.0100461 406.684800
    270    277    279     1   108.0100461 406.684800
    271    270    299     1   110.1100470 384.091200
    271    283    284     1   109.8000471 387.438400
    271    283    285     1   109.8000471 387.438400
    272    271    283     1   110.5600475 386.601600
    272    271    273     1   109.7500473 328.025600
    273    271    283     1   110.5600475 386.601600
    274    270    299     1   110.1100470 384.091200
    274    286    287     1   109.8000471 387.438400
    274    286    288     1   109.8000471 387.438400
    275    274    286     1   110.5600475 386.601600
    275    274    276     1   109.7500473 328.025600
    276    274    286     1   110.5600475 386.601600
    277    270    299     1   110.1100470 384.091200
    277    280    281     1   109.8000471 387.438400
    277    280    282     1   109.8000471 387.438400
    278    277    280     1   110.5600475 386.601600
    278    277    279     1   109.7500473 328.025600
    279    277    280     1   110.5600475 386.601600
    280    289    290     1   109.5600471 388.275200
    280    289    291     1   109.5600471 388.275200
    281    280    289     1   109.8000471 387.438400
    281    280    282     1   107.5800459 329.699200
    282    280    289     1   109.8000471 387.438400
    283    295    296     1   109.5600471 388.275200
    283    295    297     1   109.5600471 388.275200
    284    283    295     1   109.8000471 387.438400
    284    283    285     1   107.5800459 329.699200
    285    283    295     1   109.8000471 387.438400
    286    292    293     1   109.5600471 388.275200
    286    292    294     1   109.5600471 388.275200
    287    286    292     1   109.8000471 387.438400
    287    286    288     1   107.5800459 329.699200
    288    286    292     1   109.8000471 387.438400
    290    289    298     1   109.7800468 425.094400
    290    289    291     1   108.4600466 328.025600
    291    289    298     1   109.7800468 425.094400
    293    292    568     1   109.7800468 425.094400
    293    292    294     1   108.4600466 328.025600
    294    292    568     1   109.7800468 425.094400
    296    295    591     1   109.7800468 425.094400
    296    295    297     1   108.4600466 328.025600
    297    295    591     1   109.7800468 425.094400
    300    301    302     1   108.0100461 406.684800
    300    301    303     1   108.0100461 406.684800
    300    304    305     1   108.0100461 406.684800
    300    304    306     1   108.0100461 406.684800
    300    307    308     1   108.0100461 406.684800
    300    307    309     1   108.0100461 406.684800
    301    300    329     1   110.1100470 384.091200
    301    313    314     1   109.8000471 387.438400
    301    313    315     1   109.8000471 387.438400
    302    301    313     1   110.5600475 386.601600
    302    301    303     1   109.7500473 328.025600
    303    301    313     1   110.5600475 386.601600
    304    300    329     1   110.1100470 384.091200
    304    316    317     1   109.8000471 387.438400
    304    316    318     1   109.8000471 387.438400
    305    304    316     1   110.5600475 386.601600
    305    304    306     1   109.7500473 328.025600
    306    304    316     1   110.5600475 386.601600
    307    300    329     1   110.1100470 384.091200
    307    310    311     1   109.8000471 387.438400
    307    310    312     1   109.8000471 387.438400
    308    307    310     1   110.5600475 386.601600
    308    307    309     1   109.7500473 328.025600
    309    307    310     1   110.5600475 386.601600
    310    319    320     1   109.5600471 388.275200
    310    319    321     1   109.5600471 388.275200
    311    310    319     1   109.8000471 387.438400
    311    310    312     1   107.5800459 329.699200
    312    310    319     1   109.8000471 387.438400
    313    325    326     1   109.5600471 388.275200
    313    325    327     1   109.5600471 388.275200
    314    313    325     1   109.8000471 387.438400
    314    313    315     1   107.5800459 329.699200
    315    313    325     1   109.8000471 387.438400
    316    322    323     1   109.5600471 388.275200
    316    322    324     1   109.5600471 388.275200
    317    316    322     1   109.8000471 387.438400
    317    316    318     1   107.5800459 329.699200
    318    316    322     1   109.8000471 387.438400
    320    319    328     1   109.7800468 425.094400
    320    319    321     1   108.4600466 328.025600
    321    319    328     1   109.7800468 425.094400
    323    322    614     1   109.7800468 425.094400
    323    322    324     1   108.4600466 328.025600
    324    322    614     1   109.7800468 425.094400
    326    325    637     1   109.7800468 425.094400
    326    325    327     1   108.4600466 328.025600
    327    325    637     1   109.7800468 425.094400
    330    331    332     1   108.0100461 406.684800
    330    331    333     1   108.0100461 406.684800
    330    334    335     1   108.0100461 406.684800
    330    334    336     1   108.0100461 406.684800
    330    337    338     1   108.0100461 406.684800
    330    337    339     1   108.0100461 406.684800
    331    330    359     1   110.1100470 384.091200
    331    343    344     1   109.8000471 387.438400
    331    343    345     1   109.8000471 387.438400
    332    331    343     1   110.5600475 386.601600
    332    331    333     1   109.7500473 328.025600
    333    331    343     1   110.5600475 386.601600
    334    330    359     1   110.1100470 384.091200
    334    346    347     1   109.8000471 387.438400
    334    346    348     1   109.8000471 387.438400
    335    334    346     1   110.5600475 386.601600
    335    334    336     1   109.7500473 328.025600
    336    334    346     1   110.5600475 386.601600
    337    330    359     1   110.1100470 384.091200
    337    340    341     1   109.8000471 387.438400
    337    340    342     1   109.8000471 387.438400
    338    337    340     1   110.5600475 386.601600
    338    337    339     1   109.7500473 328.025600
    339    337    340     1   110.5600475 386.601600
    340    349    350     1   109.5600471 388.275200
    340    349    351     1   109.5600471 388.275200
    341    340    349     1   109.8000471 387.438400
    341    340    342     1   107.5800459 329.699200
    342    340    349     1   109.8000471 387.438400
    343    355    356     1   109.5600471 388.275200
    343    355    357     1   109.5600471 388.275200
    344    343    355     1   109.8000471 387.438400
    344    343    345     1   107.5800459 329.699200
    345    343    355     1   109.8000471 387.438400
    346    352    353     1   109.5600471 388.275200
    346    352    354     1   109.5600471 388.275200
    347    346    352     1   109.8000471 387.438400
    347    346    348     1   107.5800459 329.699200
    348    346    352     1   109.8000471 387.438400
    350    349    358     1   109.7800468 425.094400
    350    349    351     1   108.4600466 328.025600
    351    349    358     1   109.7800468 425.094400
    353    352    660     1   109.7800468 425.094400
    353    352    354     1   108.4600466 328.025600
    354    352    660     1   109.7800468 425.094400
    356    355    683     1   109.7800468 425.094400
    356    355    357     1   108.4600466 328.025600
    357    355    683     1   109.7800468 425.094400
    360    361    362     1   108.0100461 406.684800
    360    361    363     1   108.0100461 406.684800
    360    364    365     1   108.0100461 406.684800
    360    364    366     1   108.0100461 406.684800
    360    367    368     1   108.0100461 406.684800
    360    367    369     1   108.0100461 406.684800
    361    360    389     1   110.1100470 384.091200
    361    373    374     1   109.8000471 387.438400
    361    373    375     1   109.8000471 387.438400
    362    361    373     1   110.5600475 386.601600
    362    361    363     1   109.7500473 328.025600
    363    361    373     1   110.5600475 386.601600
    364    360    389     1   110.1100470 384.091200
    364    376    377     1   109.8000471 387.438400
    364    376    378     1   109.8000471 387.438400
    365    364    376     1   110.5600475 386.601600
    365    364    366     1   109.7500473 328.025600
    366    364    376     1   110.5600475 386.601600
    367    360    389     1   110.1100470 384.091200
    367    370    371     1   109.8000471 387.438400
    367    370    372     1   109.8000471 387.438400
    368    367    370     1   110.5600475 386.601600
    368    367    369     1   109.7500473 328.025600
    369    367    370     1   110.5600475 386.601600
    370    379    380     1   109.5600471 388.275200
    370    379    381     1   109.5600471 388.275200
    371    370    379     1   109.8000471 387.438400
    371    370    372     1   107.5800459 329.699200
    372    370    379     1   109.8000471 387.438400
    373    385    386     1   109.5600471 388.275200
    373    385    387     1   109.5600471 388.275200
    374    373    385     1   109.8000471 387.438400
    374    373    375     1   107.5800459 329.699200
    375    373    385     1   109.8000471 387.438400
    376    382    383     1   109.5600471 388.275200
    376    382    384     1   109.5600471 388.275200
    377    376    382     1   109.8000471 387.438400
    377    376    378     1   107.5800459 329.699200
    378    376    382     1   109.8000471 387.438400
    380    379    388     1   109.7800468 425.094400
    380    379    381     1   108.4600466 328.025600
    381    379    388     1   109.7800468 425.094400
    383    382    706     1   109.7800468 425.094400
    383    382    384     1   108.4600466 328.025600
    384    382    706     1   109.7800468 425.094400
    386    385    729     1   109.7800468 425.094400
    386    385    387     1   108.4600466 328.025600
    387    385    729     1   109.7800468 425.094400
    390    391    392     1   108.0100461 406.684800
    390    391    393     1   108.0100461 406.684800
    390    394    395     1   108.0100461 406.684800
    390    394    396     1   108.0100461 406.684800
    390    397    398     1   108.0100461 406.684800
    390    397    399     1   108.0100461 406.684800
    391    390    419     1   110.1100470 384.091200
    391    403    404     1   109.8000471 387.438400
    391    403    405     1   109.8000471 387.438400
    392    391    403     1   110.5600475 386.601600
    392    391    393     1   109.7500473 328.025600
    393    391    403     1   110.5600475 386.601600
    394    390    419     1   110.1100470 384.091200
    394    406    407     1   109.8000471 387.438400
    394    406    408     1   109.8000471 387.438400
    395    394    406     1   110.5600475 386.601600
    395    394    396     1   109.7500473 328.025600
    396    394    406     1   110.5600475 386.601600
    397    390    419     1   110.1100470 384.091200
    397    400    401     1   109.8000471 387.438400
    397    400    402     1   109.8000471 387.438400
    398    397    400     1   110.5600475 386.601600
    398    397    399     1   109.7500473 328.025600
    399    397    400     1   110.5600475 386.601600
    400    409    410     1   109.5600471 388.275200
    400    409    411     1   109.5600471 388.275200
    401    400    409     1   109.8000471 387.438400
    401    400    402     1   107.5800459 329.699200
    402    400    409     1   109.8000471 387.438400
    403    415    416     1   109.5600471 388.275200
    403    415    417     1   109.5600471 388.275200
    404    403    415     1   109.8000471 387.438400
    404    403    405     1   107.5800459 329.699200
    405    403    415     1   109.8000471 387.438400
    406    412    413     1   109.5600471 388.275200
    406    412    414     1   109.5600471 388.275200
    407    406    412     1   109.8000471 387.438400
    407    406    408     1   107.5800459 329.699200
    408    406    412     1   109.8000471 387.438400
    410    409    418     1   109.7800468 425.094400
    410    409    411     1   108.4600466 328.025600
    411    409    418     1   109.7800468 425.094400
    413    412    752     1   109.7800468 425.094400
    413    412    414     1   108.4600466 328.025600
    414    412    752     1   109.7800468 425.094400
    416    415    775     1   109.7800468 425.094400
    416    415    417     1   108.4600466 328.025600
    417    415    775     1   109.7800468 425.094400
    420    421    423     1   109.5600471 388.275200
    420    434    438     1   109.5600471 388.275200
    420    434    439     1   109.5600471 388.275200
    421    420    422     1   109.5600471 388.275200
    421    424    428     1   109.5600471 388.275200
    421    433    436     1   107.2600461 396.643200
    422    420    434     1   109.5600471 388.275200
    422    420    442     1   109.7800468 425.094400
    423    421    424     1   109.5600471 388.275200
    423    421    433     1   110.2600474 425.931200
    424    425    427     1   109.5600471 388.275200
    424    432    435     1   107.2600461 396.643200
    425    424    428     1   109.5600471 388.275200
    425    426    429     1   110.2200475 386.601600
    425    431    437     1   107.2600461 396.643200
    426    425    427     1   109.5600471 388.275200
    427    425    431     1   110.2600474 425.931200
    428    424    432     1   110.2600474 425.931200
    429    426    430     1   109.5800467 425.931200
    429    426    442     1   109.5800467 425.931200
    434    440    441     1   107.2600461 396.643200
    438    434    440     1   110.2600474 425.931200
    438    434    439     1   108.4600466 328.025600
    439    434    440     1   110.2600474 425.931200
    443    444    446     1   109.5600471 388.275200
    443    457    461     1   109.5600471 388.275200
    443    457    462     1   109.5600471 388.275200
    444    447    451     1   109.5600471 388.275200
    444    456    459     1   107.2600461 396.643200
    444    443    445     1   109.5600471 388.275200
    445    443    457     1   109.5600471 388.275200
    445    443    465     1   109.7800468 425.094400
    446    444    447     1   109.5600471 388.275200
    446    444    456     1   110.2600474 425.931200
    447    448    450     1   109.5600471 388.275200
    447    455    458     1   107.2600461 396.643200
    448    449    452     1   110.2200475 386.601600
    448    454    460     1   107.2600461 396.643200
    448    447    451     1   109.5600471 388.275200
    449    448    450     1   109.5600471 388.275200
    450    448    454     1   110.2600474 425.931200
    451    447    455     1   110.2600474 425.931200
    452    449    453     1   109.5800467 425.931200
    452    449    465     1   109.5800467 425.931200
    457    463    464     1   107.2600461 396.643200
    461    457    463     1   110.2600474 425.931200
    461    457    462     1   108.4600466 328.025600
    462    457    463     1   110.2600474 425.931200
    466    467    469     1   109.5600471 388.275200
    466    480    484     1   109.5600471 388.275200
    466    480    485     1   109.5600471 388.275200
    467    466    468     1   109.5600471 388.275200
    467    470    474     1   109.5600471 388.275200
    467    479    482     1   107.2600461 396.643200
    468    466    480     1   109.5600471 388.275200
    468    466    488     1   109.7800468 425.094400
    469    467    470     1   109.5600471 388.275200
    469    467    479     1   110.2600474 425.931200
    470    471    473     1   109.5600471 388.275200
    470    478    481     1   107.2600461 396.643200
    471    470    474     1   109.5600471 388.275200
    471    472    475     1   110.2200475 386.601600
    471    477    483     1   107.2600461 396.643200
    472    471    473     1   109.5600471 388.275200
    473    471    477     1   110.2600474 425.931200
    474    470    478     1   110.2600474 425.931200
    475    472    476     1   109.5800467 425.931200
    475    472    488     1   109.5800467 425.931200
    480    486    487     1   107.2600461 396.643200
    484    480    486     1   110.2600474 425.931200
    484    480    485     1   108.4600466 328.025600
    485    480    486     1   110.2600474 425.931200
    489    490    492     1   109.5600471 388.275200
    489    503    507     1   109.5600471 388.275200
    489    503    508     1   109.5600471 388.275200
    490    493    497     1   109.5600471 388.275200
    490    502    505     1   107.2600461 396.643200
    490    489    491     1   109.5600471 388.275200
    491    489    503     1   109.5600471 388.275200
    491    489    511     1   109.7800468 425.094400
    492    490    493     1   109.5600471 388.275200
    492    490    502     1   110.2600474 425.931200
    493    494    496     1   109.5600471 388.275200
    493    501    504     1   107.2600461 396.643200
    494    495    498     1   110.2200475 386.601600
    494    500    506     1   107.2600461 396.643200
    494    493    497     1   109.5600471 388.275200
    495    494    496     1   109.5600471 388.275200
    496    494    500     1   110.2600474 425.931200
    497    493    501     1   110.2600474 425.931200
    498    495    499     1   109.5800467 425.931200
    498    495    511     1   109.5800467 425.931200
    503    509    510     1   107.2600461 396.643200
    507    503    509     1   110.2600474 425.931200
    507    503    508     1   108.4600466 328.025600
    508    503    509     1   110.2600474 425.931200
    512    513    515     1   109.5600471 388.275200
    512    526    530     1   109.5600471 388.275200
    512    526    531     1   109.5600471 388.275200
    513    512    514     1   109.5600471 388.275200
    513    516    520     1   109.5600471 388.275200
    513    525    528     1   107.2600461 396.643200
    514    512    526     1   109.5600471 388.275200
    514    512    534     1   109.7800468 425.094400
    515    513    516     1   109.5600471 388.275200
    515    513    525     1   110.2600474 425.931200
    516    517    519     1   109.5600471 388.275200
    516    524    527     1   107.2600461 396.643200
    517    516    520     1   109.5600471 388.275200
    517    518    521     1   110.2200475 386.601600
    517    523    529     1   107.2600461 396.643200
    518    517    519     1   109.5600471 388.275200
    519    517    523     1   110.2600474 425.931200
    520    516    524     1   110.2600474 425.931200
    521    518    522     1   109.5800467 425.931200
    521    518    534     1   109.5800467 425.931200
    526    532    533     1   107.2600461 396.643200
    530    526    532     1   110.2600474 425.931200
    530    526    531     1   108.4600466 328.025600
    531    526    532     1   110.2600474 425.931200
    535    536    538     1   109.5600471 388.275200
    535    549    553     1   109.5600471 388.275200
    535    549    554     1   109.5600471 388.275200
    536    539    543     1   109.5600471 388.275200
    536    548    551     1   107.2600461 396.643200
    536    535    537     1   109.5600471 388.275200
    537    535    549     1   109.5600471 388.275200
    537    535    557     1   109.7800468 425.094400
    538    536    539     1   109.5600471 388.275200
    538    536    548     1   110.2600474 425.931200
    539    540    542     1   109.5600471 388.275200
    539    547    550     1   107.2600461 396.643200
    540    541    544     1   110.2200475 386.601600
    540    546    552     1   107.2600461 396.643200
    540    539    543     1   109.5600471 388.275200
    541    540    542     1   109.5600471 388.275200
    542    540    546     1   110.2600474 425.931200
    543    539    547     1   110.2600474 425.931200
    544    541    545     1   109.5800467 425.931200
    544    541    557     1   109.5800467 425.931200
    549    555    556     1   107.2600461 396.643200
    553    549    555     1   110.2600474 425.931200
    553    549    554     1   108.4600466 328.025600
    554    549    555     1   110.2600474 425.931200
    558    559    561     1   109.5600471 388.275200
    558    572    576     1   109.5600471 388.275200
    558    572    577     1   109.5600471 388.275200
    559    558    560     1   109.5600471 388.275200
    559    562    566     1   109.5600471 388.275200
    559    571    574     1   107.2600461 396.643200
    560    558    572     1   109.5600471 388.275200
    560    558    580     1   109.7800468 425.094400
    561    559    562     1   109.5600471 388.275200
    561    559    571     1   110.2600474 425.931200
    562    563    565     1   109.5600471 388.275200
    562    570    573     1   107.2600461 396.643200
    563    562    566     1   109.5600471 388.275200
    563    564    567     1   110.2200475 386.601600
    563    569    575     1   107.2600461 396.643200
    564    563    565     1   109.5600471 388.275200
    565    563    569     1   110.2600474 425.931200
    566    562    570     1   110.2600474 425.931200
    567    564    568     1   109.5800467 425.931200
    567    564    580     1   109.5800467 425.931200
    572    578    579     1   107.2600461 396.643200
    576    572    578     1   110.2600474 425.931200
    576    572    577     1   108.4600466 328.025600
    577    572    578     1   110.2600474 425.931200
    581    582    584     1   109.5600471 388.275200
    581    595    599     1   109.5600471 388.275200
    581    595    600     1   109.5600471 388.275200
    582    585    589     1   109.5600471 388.275200
    582    594    597     1   107.2600461 396.643200
    582    581    583     1   109.5600471 388.275200
    583    581    595     1   109.5600471 388.275200
    583    581    603     1   109.7800468 425.094400
    584    582    585     1   109.5600471 388.275200
    584    582    594     1   110.2600474 425.931200
    585    586    588     1   109.5600471 388.275200
    585    593    596     1   107.2600461 396.643200
    586    587    590     1   110.2200475 386.601600
    586    592    598     1   107.2600461 396.643200
    586    585    589     1   109.5600471 388.275200
    587    586    588     1   109.5600471 388.275200
    588    586    592     1   110.2600474 425.931200
    589    585    593     1   110.2600474 425.931200
    590    587    591     1   109.5800467 425.931200
    590    587    603     1   109.5800467 425.931200
    595    601    602     1   107.2600461 396.643200
    599    595    601     1   110.2600474 425.931200
    599    595    600     1   108.4600466 328.025600
    600    595    601     1   110.2600474 425.931200
    604    605    607     1   109.5600471 388.275200
    604    618    622     1   109.5600471 388.275200
    604    618    623     1   109.5600471 388.275200
    605    604    606     1   109.5600471 388.275200
    605    608    612     1   109.5600471 388.275200
    605    617    620     1   107.2600461 396.643200
    606    604    618     1   109.5600471 388.275200
    606    604    626     1   109.7800468 425.094400
    607    605    608     1   109.5600471 388.275200
    607    605    617     1   110.2600474 425.931200
    608    609    611     1   109.5600471 388.275200
    608    616    619     1   107.2600461 396.643200
    609    608    612     1   109.5600471 388.275200
    609    610    613     1   110.2200475 386.601600
    609    615    621     1   107.2600461 396.643200
    610    609    611     1   109.5600471 388.275200
    611    609    615     1   110.2600474 425.931200
    612    608    616     1   110.2600474 425.931200
    613    610    614     1   109.5800467 425.931200
    613    610    626     1   109.5800467 425.931200
    618    624    625     1   107.2600461 396.643200
    622    618    624     1   110.2600474 425.931200
    622    618    623     1   108.4600466 328.025600
    623    618    624     1   110.2600474 425.931200
    627    628    630     1   109.5600471 388.275200
    627    641    645     1   109.5600471 388.275200
    627    641    646     1   109.5600471 388.275200
    628    631    635     1   109.5600471 388.275200
    628    640    643     1   107.2600461 396.643200
    628    627    629     1   109.5600471 388.275200
    629    627    641     1   109.5600471 388.275200
    629    627    649     1   109.7800468 425.094400
    630    628    631     1   109.5600471 388.275200
    630    628    640     1   110.2600474 425.931200
    631    632    634     1   109.5600471 388.275200
    631    639    642     1   107.2600461 396.643200
    632    633    636     1   110.2200475 386.601600
    632    638    644     1   107.2600461 396.643200
    632    631    635     1   109.5600471 388.275200
    633    632    634     1   109.5600471 388.275200
    634    632    638     1   110.2600474 425.931200
    635    631    639     1   110.2600474 425.931200
    636    633    637     1   109.5800467 425.931200
    636    633    649     1   109.5800467 425.931200
    641    647    648     1   107.2600461 396.643200
    645    641    647     1   110.2600474 425.931200
    645    641    646     1   108.4600466 328.025600
    646    641    647     1   110.2600474 425.931200
    650    651    653     1   109.5600471 388.275200
    650    664    668     1   109.5600471 388.275200
    650    664    669     1   109.5600471 388.275200
    651    650    652     1   109.5600471 388.275200
    651    654    658     1   109.5600471 388.275200
    651    663    666     1   107.2600461 396.643200
    652    650    664     1   109.5600471 388.275200
    652    650    672     1   109.7800468 425.094400
    653    651    654     1   109.5600471 388.275200
    653    651    663     1   110.2600474 425.931200
    654    655    657     1   109.5600471 388.275200
    654    662    665     1   107.2600461 396.643200
    655    654    658     1   109.5600471 388.275200
    655    656    659     1   110.2200475 386.601600
    655    661    667     1   107.2600461 396.643200
    656    655    657     1   109.5600471 388.275200
    657    655    661     1   110.2600474 425.931200
    658    654    662     1   110.2600474 425.931200
    659    656    660     1   109.5800467 425.931200
    659    656    672     1   109.5800467 425.931200
    664    670    671     1   107.2600461 396.643200
    668    664    670     1   110.2600474 425.931200
    668    664    669     1   108.4600466 328.025600
    669    664    670     1   110.2600474 425.931200
    673    674    676     1   109.5600471 388.275200
    673    687    691     1   109.5600471 388.275200
    673    687    692     1   109.5600471 388.275200
    674    677    681     1   109.5600471 388.275200
    674    686    689     1   107.2600461 396.643200
    674    673    675     1   109.5600471 388.275200
    675    673    687     1   109.5600471 388.275200
    675    673    695     1   109.7800468 425.094400
    676    674    677     1   109.5600471 388.275200
    676    674    686     1   110.2600474 425.931200
    677    678    680     1   109.5600471 388.275200
    677    685    688     1   107.2600461 396.643200
    678    679    682     1   110.2200475 386.601600
    678    684    690     1   107.2600461 396.643200
    678    677    681     1   109.5600471 388.275200
    679    678    680     1   109.5600471 388.275200
    680    678    684     1   110.2600474 425.931200
    681    677    685     1   110.2600474 425.931200
    682    679    683     1   109.5800467 425.931200
    682    679    695     1   109.5800467 425.931200
    687    693    694     1   107.2600461 396.643200
    691    687    693     1   110.2600474 425.931200
    691    687    692     1   108.4600466 328.025600
    692    687    693     1   110.2600474 425.931200
    696    697    699     1   109.5600471 388.275200
    696    710    714     1   109.5600471 388.275200
    696    710    715     1   109.5600471 388.275200
    697    696    698     1   109.5600471 388.275200
    697    700    704     1   109.5600471 388.275200
    697    709    712     1   107.2600461 396.643200
    698    696    710     1   109.5600471 388.275200
    698    696    718     1   109.7800468 425.094400
    699    697    700     1   109.5600471 388.275200
    699    697    709     1   110.2600474 425.931200
    700    701    703     1   109.5600471 388.275200
    700    708    711     1   107.2600461 396.643200
    701    700    704     1   109.5600471 388.275200
    701    702    705     1   110.2200475 386.601600
    701    707    713     1   107.2600461 396.643200
    702    701    703     1   109.5600471 388.275200
    703    701    707     1   110.2600474 425.931200
    704    700    708     1   110.2600474 425.931200
    705    702    706     1   109.5800467 425.931200
    705    702    718     1   109.5800467 425.931200
    710    716    717     1   107.2600461 396.643200
    714    710    716     1   110.2600474 425.931200
    714    710    715     1   108.4600466 328.025600
    715    710    716     1   110.2600474 425.931200
    719    720    722     1   109.5600471 388.275200
    719    733    737     1   109.5600471 388.275200
    719    733    738     1   109.5600471 388.275200
    720    723    727     1   109.5600471 388.275200
    720    732    735     1   107.2600461 396.643200
    720    719    721     1   109.5600471 388.275200
    721    719    733     1   109.5600471 388.275200
    721    719    741     1   109.7800468 425.094400
    722    720    723     1   109.5600471 388.275200
    722    720    732     1   110.2600474 425.931200
    723    724    726     1   109.5600471 388.275200
    723    731    734     1   107.2600461 396.643200
    724    725    728     1   110.2200475 386.601600
    724    730    736     1   107.2600461 396.643200
    724    723    727     1   109.5600471 388.275200
    725    724    726     1   109.5600471 388.275200
    726    724    730     1   110.2600474 425.931200
    727    723    731     1   110.2600474 425.931200
    728    725    729     1   109.5800467 425.931200
    728    725    741     1   109.5800467 425.931200
    733    739    740     1   107.2600461 396.643200
    737    733    739     1   110.2600474 425.931200
    737    733    738     1   108.4600466 328.025600
    738    733    739     1   110.2600474 425.931200
    742    743    745     1   109.5600471 388.275200
    742    756    760     1   109.5600471 388.275200
    742    756    761     1   109.5600471 388.275200
    743    742    744     1   109.5600471 388.275200
    743    746    750     1   109.5600471 388.275200
    743    755    758     1   107.2600461 396.643200
    744    742    756     1   109.5600471 388.275200
    744    742    764     1   109.7800468 425.094400
    745    743    746     1   109.5600471 388.275200
    745    743    755     1   110.2600474 425.931200
    746    747    749     1   109.5600471 388.275200
    746    754    757     1   107.2600461 396.643200
    747    746    750     1   109.5600471 388.275200
    747    748    751     1   110.2200475 386.601600
    747    753    759     1   107.2600461 396.643200
    748    747    749     1   109.5600471 388.275200
    749    747    753     1   110.2600474 425.931200
    750    746    754     1   110.2600474 425.931200
    751    748    752     1   109.5800467 425.931200
    751    748    764     1   109.5800467 425.931200
    756    762    763     1   107.2600461 396.643200
    760    756    762     1   110.2600474 425.931200
    760    756    761     1   108.4600466 328.025600
    761    756    762     1   110.2600474 425.931200
    765    766    768     1   109.5600471 388.275200
    765    779    783     1   109.5600471 388.275200
    765    779    784     1   109.5600471 388.275200
    766    769    773     1   109.5600471 388.275200
    766    778    781     1   107.2600461 396.643200
    766    765    767     1   109.5600471 388.275200
    767    765    779     1   109.5600471 388.275200
    767    765    787     1   109.7800468 425.094400
    768    766    769     1   109.5600471 388.275200
    768    766    778     1   110.2600474 425.931200
    769    770    772     1   109.5600471 388.275200
    769    777    780     1   107.2600461 396.643200
    770    771    774     1   110.2200475 386.601600
    770    776    782     1   107.2600461 396.643200
    770    769    773     1   109.5600471 388.275200
    771    770    772     1   109.5600471 388.275200
    772    770    776     1   110.2600474 425.931200
    773    769    777     1   110.2600474 425.931200
    774    771    775     1   109.5800467 425.931200
    774    771    787     1   109.5800467 425.931200
    779    785    786     1   107.2600461 396.643200
    783    779    785     1   110.2600474 425.931200
    783    779    784     1   108.4600466 328.025600
    784    779    785     1   110.2600474 425.931200

[ dihedrals ]
;    ai     aj     ak     al funct         c0         c1         c2         c3         c4         c5
      1      2      8     14     1  0.0000000  0.6508444  3
      1      5     11     17     1  0.0000000  0.6508444  3
      2      1      5     11     1  180.0000771  0.4184000  2
      2      1      5     11     1  0.0000000  1.6024720  3
      2      8     14     20     1  0.0000000  0.6508444  3
      5      1      2      8     1  180.0000771  0.4184000  2
      5      1      2      8     1  0.0000000  1.6024720  3
      5     11     17     21     1  0.0000000  0.6508444  3
      8     14     20     28     1  0.0000000  0.6508444  3
      8     14     20     31     1  0.0000000  0.6508444  3
     11     17     21     22     1  0.0000000  0.6508444  3
     11     17     21     25     1  0.0000000  0.6508444  3
     14     20     28     40     1  0.0000000  0.6508444  3
     14     20     31     43     1  0.0000000  0.6508444  3
     17     21     22     34     1  0.0000000  0.6508444  3
     17     21     25     37     1  0.0000000  0.6508444  3
     20     28     40     49     1  0.0000000  0.6508444  3
     20     31     43     46     1  0.0000000  0.6508444  3
     21     22     34     55     1  0.0000000  0.6508444  3
     21     25     37     52     1  0.0000000  0.6508444  3
     22     21     25     37     1  0.0000000  0.6508444  3
     22     34     55    178     1  0.0000000  0.6508444  3
     25     21     22     34     1  0.0000000  0.6508444  3
     25     37     52    148     1  0.0000000  0.6508444  3
     28     20     31     43     1  0.0000000  0.6508444  3
     28     40     49    118     1  0.0000000  0.6508444  3
     31     20     28     40     1  0.0000000  0.6508444  3
     31     43     46     88     1  0.0000000  0.6508444  3
     34     55    178    169     1  180.0000771  0.4184000  2
     34     55    178    169     1  0.0000000  1.6024720  3
     37     52    148    139     1  180.0000771  0.4184000  2
     37     52    148    139     1  0.0000000  1.6024720  3
     40     49    118    109     1  180.0000771  0.4184000  2
     40     49    118    109     1  0.0000000  1.6024720  3
     43     46     88     79     1  180.0000771  0.4184000  2
     43     46     88     79     1  0.0000000  1.6024720  3
     46     88     79     70     1  180.0000771  0.4184000  2
     46     88     79     70     1  0.0000000  1.6024720  3
     49    118    109    100     1  180.0000771  0.4184000  2
     49    118    109    100     1  0.0000000  1.6024720  3
     52    148    139    130     1  180.0000771  0.4184000  2
     52    148    139    130     1  0.0000000  1.6024720  3
     55    178    169    160     1  180.0000771  0.4184000  2
     55    178    169    160     1  0.0000000  1.6024720  3
     60     61     73     85     1  0.0000000  0.6508444  3
     60     64     76     82     1  0.0000000  0.6508444  3
     60     67     70     79     1  0.0000000  0.6508444  3
     61     60     64     76     1  0.0000000  0.6508444  3
     61     60     67     70     1  0.0000000  0.6508444  3
     61     73     85    238     1  0.0000000  0.6508444  3
     64     60     61     73     1  0.0000000  0.6508444  3
     64     60     67     70     1  0.0000000  0.6508444  3
     64     76     82    208     1  0.0000000  0.6508444  3
     67     60     61     73     1  0.0000000  0.6508444  3
     67     60     64     76     1  0.0000000  0.6508444  3
     67     70     79     88     1  0.0000000  0.6508444  3
     73     85    238    229     1  180.0000771  0.4184000  2
     73     85    238    229     1  0.0000000  1.6024720  3
     76     82    208    199     1  180.0000771  0.4184000  2
     76     82    208    199     1  0.0000000  1.6024720  3
     82    208    199    190     1  180.0000771  0.4184000  2
     82    208    199    190     1  0.0000000  1.6024720  3
     85    238    229    220     1  180.0000771  0.4184000  2
     85    238    229    220     1  0.0000000  1.6024720  3
     90     91    103    115     1  0.0000000  0.6508444  3
     90     94    106    112     1  0.0000000  0.6508444  3
     90     97    100    109     1  0.0000000  0.6508444  3
     91     90     94    106     1  0.0000000  0.6508444  3
     91     90     97    100     1  0.0000000  0.6508444  3
     91    103    115    298     1  0.0000000  0.6508444  3
     94     90     91    103     1  0.0000000  0.6508444  3
     94     90     97    100     1  0.0000000  0.6508444  3
     94    106    112    268     1  0.0000000  0.6508444  3
     97     90     91    103     1  0.0000000  0.6508444  3
     97     90     94    106     1  0.0000000  0.6508444  3
     97    100    109    118     1  0.0000000  0.6508444  3
    103    115    298    289     1  180.0000771  0.4184000  2
    103    115    298    289     1  0.0000000  1.6024720  3
    106    112    268    259     1  180.0000771  0.4184000  2
    106    112    268    259     1  0.0000000  1.6024720  3
    112    268    259    250     1  180.0000771  0.4184000  2
    112    268    259    250     1  0.0000000  1.6024720  3
    115    298    289    280     1  180.0000771  0.4184000  2
    115    298    289    280     1  0.0000000  1.6024720  3
    120    121    133    145     1  0.0000000  0.6508444  3
    120    124    136    142     1  0.0000000  0.6508444  3
    120    127    130    139     1  0.0000000  0.6508444  3
    121    120    124    136     1  0.0000000  0.6508444  3
    121    120    127    130     1  0.0000000  0.6508444  3
    121    133    145    358     1  0.0000000  0.6508444  3
    124    120    121    133     1  0.0000000  0.6508444  3
    124    120    127    130     1  0.0000000  0.6508444  3
    124    136    142    328     1  0.0000000  0.6508444  3
    127    120    121    133     1  0.0000000  0.6508444  3
    127    120    124    136     1  0.0000000  0.6508444  3
    127    130    139    148     1  0.0000000  0.6508444  3
    133    145    358    349     1  180.0000771  0.4184000  2
    133    145    358    349     1  0.0000000  1.6024720  3
    136    142    328    319     1  180.0000771  0.4184000  2
    136    142    328    319     1  0.0000000  1.6024720  3
    142    328    319    310     1  180.0000771  0.4184000  2
    142    328    319    310     1  0.0000000  1.6024720  3
    145    358    349    340     1  180.0000771  0.4184000  2
    145    358    349    340     1  0.0000000  1.6024720  3
    150    151    163    175     1  0.0000000  0.6508444  3
    150    154    166    172     1  0.0000000  0.6508444  3
    150    157    160    169     1  0.0000000  0.6508444  3
    151    150    154    166     1  0.0000000  0.6508444  3
    151    150    157    160     1  0.0000000  0.6508444  3
    151    163    175    418     1  0.0000000  0.6508444  3
    154    150    151    163     1  0.0000000  0.6508444  3
    154    150    157    160     1  0.0000000  0.6508444  3
    154    166    172    388     1  0.0000000  0.6508444  3
    157    150    151    163     1  0.0000000  0.6508444  3
    157    150    154    166     1  0.0000000  0.6508444  3
    157    160    169    178     1  0.0000000  0.6508444  3
    163    175    418    409     1  180.0000771  0.4184000  2
    163    175    418    409     1  0.0000000  1.6024720  3
    166    172    388    379     1  180.0000771  0.4184000  2
    166    172    388    379     1  0.0000000  1.6024720  3
    172    388    379    370     1  180.0000771  0.4184000  2
    172    388    379    370     1  0.0000000  1.6024720  3
    175    418    409    400     1  180.0000771  0.4184000  2
    175    418    409    400     1  0.0000000  1.6024720  3
    180    181    193    205     1  0.0000000  0.6508444  3
    180    184    196    202     1  0.0000000  0.6508444  3
    180    187    190    199     1  0.0000000  0.6508444  3
    181    180    184    196     1  0.0000000  0.6508444  3
    181    180    187    190     1  0.0000000  0.6508444  3
    181    193    205    453     1  0.0000000  0.6508444  3
    184    180    181    193     1  0.0000000  0.6508444  3
    184    180    187    190     1  0.0000000  0.6508444  3
    184    196    202    430     1  0.0000000  0.6508444  3
    187    180    181    193     1  0.0000000  0.6508444  3
    187    180    184    196     1  0.0000000  0.6508444  3
    187    190    199    208     1  0.0000000  0.6508444  3
    193    205    453    449     1  180.0000771  0.4184000  2
    193    205    453    449     1  0.0000000  1.6024720  3
    196    202    430    426     1  180.0000771  0.4184000  2
    196    202    430    426     1  0.0000000  1.6024720  3
    202    430    426    425     1  180.0000771  0.4184000  2
    202    430    426    425     1  0.0000000  1.6024720  3
    202    430    426    442     1  180.0000771  5.6484000  1
    202    430    426    442     1  180.0000771  3.5564000  2
    202    430    426    442     1  0.0000000  0.4184000  3
    205    453    449    465     1  180.0000771  5.6484000  1
    205    453    449    465     1  180.0000771  3.5564000  2
    205    453    449    465     1  0.0000000  0.4184000  3
    205    453    449    448     1  180.0000771  0.4184000  2
    205    453    449    448     1  0.0000000  1.6024720  3
    210    211    223    235     1  0.0000000  0.6508444  3
    210    214    226    232     1  0.0000000  0.6508444  3
    210    217    220    229     1  0.0000000  0.6508444  3
    211    210    214    226     1  0.0000000  0.6508444  3
    211    210    217    220     1  0.0000000  0.6508444  3
    211    223    235    499     1  0.0000000  0.6508444  3
    214    210    211    223     1  0.0000000  0.6508444  3
    214    210    217    220     1  0.0000000  0.6508444  3
    214    226    232    476     1  0.0000000  0.6508444  3
    217    210    211    223     1  0.0000000  0.6508444  3
    217    210    214    226     1  0.0000000  0.6508444  3
    217    220    229    238     1  0.0000000  0.6508444  3
    223    235    499    495     1  180.0000771  0.4184000  2
    223    235    499    495     1  0.0000000  1.6024720  3
    226    232    476    472     1  180.0000771  0.4184000  2
    226    232    476    472     1  0.0000000  1.6024720  3
    232    476    472    471     1  180.0000771  0.4184000  2
    232    476    472    471     1  0.0000000  1.6024720  3
    232    476    472    488     1  180.0000771  5.6484000  1
    232    476    472    488     1  180.0000771  3.5564000  2
    232    476    472    488     1  0.0000000  0.4184000  3
    235    499    495    511     1  180.0000771  5.6484000  1
    235    499    495    511     1  180.0000771  3.5564000  2
    235    499    495    511     1  0.0000000  0.4184000  3
    235    499    495    494     1  180.0000771  0.4184000  2
    235    499    495    494     1  0.0000000  1.6024720  3
    240    241    253    265     1  0.0000000  0.6508444  3
    240    244    256    262     1  0.0000000  0.6508444  3
    240    247    250    259     1  0.0000000  0.6508444  3
    241    240    244    256     1  0.0000000  0.6508444  3
    241    240    247    250     1  0.0000000  0.6508444  3
    241    253    265    545     1  0.0000000  0.6508444  3
    244    240    241    253     1  0.0000000  0.6508444  3
    244    240    247    250     1  0.0000000  0.6508444  3
    244    256    262    522     1  0.0000000  0.6508444  3
    247    240    241    253     1  0.0000000  0.6508444  3
    247    240    244    256     1  0.0000000  0.6508444  3
    247    250    259    268     1  0.0000000  0.6508444  3
    253    265    545    541     1  180.0000771  0.4184000  2
    253    265    545    541     1  0.0000000  1.6024720  3
    256    262    522    518     1  180.0000771  0.4184000  2
    256    262    522    518     1  0.0000000  1.6024720  3
    262    522    518    517     1  180.0000771  0.4184000  2
    262    522    518    517     1  0.0000000  1.6024720  3
    262    522    518    534     1  180.0000771  5.6484000  1
    262    522    518    534     1  180.0000771  3.5564000  2
    262    522    518    534     1  0.0000000  0.4184000  3
    265    545    541    557     1  180.0000771  5.6484000  1
    265    545    541    557     1  180.0000771  3.5564000  2
    265    545    541    557     1  0.0000000  0.4184000  3
    265    545    541    540     1  180.0000771  0.4184000  2
    265    545    541    540     1  0.0000000  1.6024720  3
    270    271    283    295     1  0.0000000  0.6508444  3
    270    274    286    292     1  0.0000000  0.6508444  3
    270    277    280    289     1  0.0000000  0.6508444  3
    271    270    274    286     1  0.0000000  0.6508444  3
    271    270    277    280     1  0.0000000  0.6508444  3
    271    283    295    591     1  0.0000000  0.6508444  3
    274    270    271    283     1  0.0000000  0.6508444  3
    274    270    277    280     1  0.0000000  0.6508444  3
    274    286    292    568     1  0.0000000  0.6508444  3
    277    270    271    283     1  0.0000000  0.6508444  3
    277    270    274    286     1  0.0000000  0.6508444  3
    277    280    289    298     1  0.0000000  0.6508444  3
    283    295    591    587     1  180.0000771  0.4184000  2
    283    295    591    587     1  0.0000000  1.6024720  3
    286    292    568    564     1  180.0000771  0.4184000  2
    286    292    568    564     1  0.0000000  1.6024720  3
    292    568    564    563     1  180.0000771  0.4184000  2
    292    568    564    563     1  0.0000000  1.6024720  3
    292    568    564    580     1  180.0000771  5.6484000  1
    292    568    564    580     1  180.0000771  3.5564000  2
    292    568    564    580     1  0.0000000  0.4184000  3
    295    591    587    603     1  180.0000771  5.6484000  1
    295    591    587    603     1  180.0000771  3.5564000  2
    295    591    587    603     1  0.0000000  0.4184000  3
    295    591    587    586     1  180.0000771  0.4184000  2
    295    591    587    586     1  0.0000000  1.6024720  3
    300    301    313    325     1  0.0000000  0.6508444  3
    300    304    316    322     1  0.0000000  0.6508444  3
    300    307    310    319     1  0.0000000  0.6508444  3
    301    300    304    316     1  0.0000000  0.6508444  3
    301    300    307    310     1  0.0000000  0.6508444  3
    301    313    325    637     1  0.0000000  0.6508444  3
    304    300    301    313     1  0.0000000  0.6508444  3
    304    300    307    310     1  0.0000000  0.6508444  3
    304    316    322    614     1  0.0000000  0.6508444  3
    307    300    301    313     1  0.0000000  0.6508444  3
    307    300    304    316     1  0.0000000  0.6508444  3
    307    310    319    328     1  0.0000000  0.6508444  3
    313    325    637    633     1  180.0000771  0.4184000  2
    313    325    637    633     1  0.0000000  1.6024720  3
    316    322    614    610     1  180.0000771  0.4184000  2
    316    322    614    610     1  0.0000000  1.6024720  3
    322    614    610    609     1  180.0000771  0.4184000  2
    322    614    610    609     1  0.0000000  1.6024720  3
    322    614    610    626     1  180.0000771  5.6484000  1
    322    614    610    626     1  180.0000771  3.5564000  2
    322    614    610    626     1  0.0000000  0.4184000  3
    325    637    633    649     1  180.0000771  5.6484000  1
    325    637    633    649     1  180.0000771  3.5564000  2
    325    637    633    649     1  0.0000000  0.4184000  3
    325    637    633    632     1  180.0000771  0.4184000  2
    325    637    633    632     1  0.0000000  1.6024720  3
    330    331    343    355     1  0.0000000  0.6508444  3
    330    334    346    352     1  0.0000000  0.6508444  3
    330    337    340    349     1  0.0000000  0.6508444  3
    331    330    334    346     1  0.0000000  0.6508444  3
    331    330    337    340     1  0.0000000  0.6508444  3
    331    343    355    683     1  0.0000000  0.6508444  3
    334    330    331    343     1  0.0000000  0.6508444  3
    334    330    337    340     1  0.0000000  0.6508444  3
    334    346    352    660     1  0.0000000  0.6508444  3
    337    330    331    343     1  0.0000000  0.6508444  3
    337    330    334    346     1  0.0000000  0.6508444  3
    337    340    349    358     1  0.0000000  0.6508444  3
    343    355    683    679     1  180.0000771  0.4184000  2
    343    355    683    679     1  0.0000000  1.6024720  3
    346    352    660    656     1  180.0000771  0.4184000  2
    346    352    660    656     1  0.0000000  1.6024720  3
    352    660    656    655     1  180.0000771  0.4184000  2
    352    660    656    655     1  0.0000000  1.6024720  3
    352    660    656    672     1  180.0000771  5.6484000  1
    352    660    656    672     1  180.0000771  3.5564000  2
    352    660    656    672     1  0.0000000  0.4184000  3
    355    683    679    695     1  180.0000771  5.6484000  1
    355    683    679    695     1  180.0000771  3.5564000  2
    355    683    679    695     1  0.0000000  0.4184000  3
    355    683    679    678     1  180.0000771  0.4184000  2
    355    683    679    678     1  0.0000000  1.6024720  3
    360    361    373    385     1  0.0000000  0.6508444  3
    360    364    376    382     1  0.0000000  0.6508444  3
    360    367    370    379     1  0.0000000  0.6508444  3
    361    360    364    376     1  0.0000000  0.6508444  3
    361    360    367    370     1  0.0000000  0.6508444  3
    361    373    385    729     1  0.0000000  0.6508444  3
    364    360    361    373     1  0.0000000  0.6508444  3
    364    360    367    370     1  0.0000000  0.6508444  3
    364    376    382    706     1  0.0000000  0.6508444  3
    367    360    361    373     1  0.0000000  0.6508444  3
    367    360    364    376     1  0.0000000  0.6508444  3
    367    370    379    388     1  0.0000000  0.6508444  3
    373    385    729    725     1  180.0000771  0.4184000  2
    373    385    729    725     1  0.0000000  1.6024720  3
    376    382    706    702     1  180.0000771  0.4184000  2
    376    382    706    702     1  0.0000000  1.6024720  3
    382    706    702    701     1  180.0000771  0.4184000  2
    382    706    702    701     1  0.0000000  1.6024720  3
    382    706    702    718     1  180.0000771  5.6484000  1
    382    706    702    718     1  180.0000771  3.5564000  2
    382    706    702    718     1  0.0000000  0.4184000  3
    385    729    725    741     1  180.0000771  5.6484000  1
    385    729    725    741     1  180.0000771  3.5564000  2
    385    729    725    741     1  0.0000000  0.4184000  3
    385    729    725    724     1  180.0000771  0.4184000  2
    385    729    725    724     1  0.0000000  1.6024720  3
    390    391    403    415     1  0.0000000  0.6508444  3
    390    394    406    412     1  0.0000000  0.6508444  3
    390    397    400    409     1  0.0000000  0.6508444  3
    391    390    394    406     1  0.0000000  0.6508444  3
    391    390    397    400     1  0.0000000  0.6508444  3
    391    403    415    775     1  0.0000000  0.6508444  3
    394    390    391    403     1  0.0000000  0.6508444  3
    394    390    397    400     1  0.0000000  0.6508444  3
    394    406    412    752     1  0.0000000  0.6508444  3
    397    390    391    403     1  0.0000000  0.6508444  3
    397    390    394    406     1  0.0000000  0.6508444  3
    397    400    409    418     1  0.0000000  0.6508444  3
    403    415    775    771     1  180.0000771  0.4184000  2
    403    415    775    771     1  0.0000000  1.6024720  3
    406    412    752    748     1  180.0000771  0.4184000  2
    406    412    752    748     1  0.0000000  1.6024720  3
    412    752    748    747     1  180.0000771  0.4184000  2
    412    752    748    747     1  0.0000000  1.6024720  3
    412    752    748    764     1  180.0000771  5.6484000  1
    412    752    748    764     1  180.0000771  3.5564000  2
    412    752    748    764     1  0.0000000  0.4184000  3
    415    775    771    787     1  180.0000771  5.6484000  1
    415    775    771    787     1  180.0000771  3.5564000  2
    415    775    771    787     1  0.0000000  0.4184000  3
    415    775    771    770     1  180.0000771  0.4184000  2
    415    775    771    770     1  0.0000000  1.6024720  3
    420    421    424    425     1  180.0000771  0.8368000  1
    420    421    424    425     1  180.0000771  1.0460000  2
    420    421    424    425     1  0.0000000  0.7531200  3
    420    421    424    432     1  0.0000000  0.6508444  3
    420    442    426    425     1  180.0000771  0.4184000  2
    420    442    426    425     1  0.0000000  1.6024720  3
    420    442    426    430     1  180.0000771  5.6484000  1
    420    442    426    430     1  180.0000771  3.5564000  2
    420    442    426    430     1  0.0000000  0.4184000  3
    421    420    434    440     1  0.0000000  0.6508444  3
    421    420    442    426     1  180.0000771  0.4184000  2
    421    420    442    426     1  0.0000000  1.6024720  3
    421    424    425    426     1  180.0000771  0.8368000  1
    421    424    425    426     1  180.0000771  1.0460000  2
    421    424    425    426     1  0.0000000  0.7531200  3
    421    424    425    431     1  0.0000000  0.6508444  3
    424    421    420    434     1  180.0000771  0.8368000  1
    424    421    420    434     1  180.0000771  1.0460000  2
    424    421    420    434     1  0.0000000  0.7531200  3
    424    421    420    442     1  0.0000000  0.6508444  3
    424    425    426    430     1  0.0000000  0.6508444  3
    424    425    426    442     1  0.0000000  0.6508444  3
    425    424    421    433     1  0.0000000  0.6508444  3
    426    425    424    432     1  0.0000000  0.6508444  3
    426    442    420    434     1  180.0000771  0.4184000  2
    426    442    420    434     1  0.0000000  1.6024720  3
    430    426    425    431     1  0.0000000  4.9162000  2
    430    426    425    431     1  0.0000000  0.6024960  3
    431    425    424    432     1  0.0000000  4.9162000  2
    431    425    424    432     1  0.0000000  0.6024960  3
    431    425    426    442     1  0.0000000  4.9162000  2
    431    425    426    442     1  0.0000000  0.6024960  3
    432    424    421    433     1  0.0000000  4.9162000  2
    432    424    421    433     1  0.0000000  0.6024960  3
    433    421    420    434     1  0.0000000  0.6508444  3
    433    421    420    442     1  0.0000000  4.9162000  2
    433    421    420    442     1  0.0000000  0.6024960  3
    440    434    420    442     1  0.0000000  4.9162000  2
    440    434    420    442     1  0.0000000  0.6024960  3
    443    444    447    448     1  180.0000771  0.8368000  1
    443    444    447    448     1  180.0000771  1.0460000  2
    443    444    447    448     1  0.0000000  0.7531200  3
    443    444    447    455     1  0.0000000  0.6508444  3
    443    465    449    453     1  180.0000771  5.6484000  1
    443    465    449    453     1  180.0000771  3.5564000  2
    443    465    449    453     1  0.0000000  0.4184000  3
    443    465    449    448     1  180.0000771  0.4184000  2
    443    465    449    448     1  0.0000000  1.6024720  3
    444    447    448    449     1  180.0000771  0.8368000  1
    444    447    448    449     1  180.0000771  1.0460000  2
    444    447    448    449     1  0.0000000  0.7531200  3
    444    447    448    454     1  0.0000000  0.6508444  3
    444    443    457    463     1  0.0000000  0.6508444  3
    444    443    465    449     1  180.0000771  0.4184000  2
    444    443    465    449     1  0.0000000  1.6024720  3
    447    448    449    453     1  0.0000000  0.6508444  3
    447    448    449    465     1  0.0000000  0.6508444  3
    447    444    443    457     1  180.0000771  0.8368000  1
    447    444    443    457     1  180.0000771  1.0460000  2
    447    444    443    457     1  0.0000000  0.7531200  3
    447    444    443    465     1  0.0000000  0.6508444  3
    448    447    444    456     1  0.0000000  0.6508444  3
    449    465    443    457     1  180.0000771  0.4184000  2
    449    465    443    457     1  0.0000000  1.6024720  3
    449    448    447    455     1  0.0000000  0.6508444  3
    453    449    448    454     1  0.0000000  4.9162000  2
    453    449    448    454     1  0.0000000  0.6024960  3
    454    448    449    465     1  0.0000000  4.9162000  2
    454    448    449    465     1  0.0000000  0.6024960  3
    454    448    447    455     1  0.0000000  4.9162000  2
    454    448    447    455     1  0.0000000  0.6024960  3
    455    447    444    456     1  0.0000000  4.9162000  2
    455    447    444    456     1  0.0000000  0.6024960  3
    456    444    443    457     1  0.0000000  0.6508444  3
    456    444    443    465     1  0.0000000  4.9162000  2
    456    444    443    465     1  0.0000000  0.6024960  3
    463    457    443    465     1  0.0000000  4.9162000  2
    463    457    443    465     1  0.0000000  0.6024960  3
    466    467    470    471     1  180.0000771  0.8368000  1
    466    467    470    471     1  180.0000771  1.0460000  2
    466    467    470    471     1  0.0000000  0.7531200  3
    466    467    470    478     1  0.0000000  0.6508444  3
    466    488    472    471     1  180.0000771  0.4184000  2
    466    488    472    471     1  0.0000000  1.6024720  3
    466    488    472    476     1  180.0000771  5.6484000  1
    466    488    472    476     1  180.0000771  3.5564000  2
    466    488    472    476     1  0.0000000  0.4184000  3
    467    466    480    486     1  0.0000000  0.6508444  3
    467    466    488    472     1  180.0000771  0.4184000  2
    467    466    488    472     1  0.0000000  1.6024720  3
    467    470    471    472     1  180.0000771  0.8368000  1
    467    470    471    472     1  180.0000771  1.0460000  2
    467    470    471    472     1  0.0000000  0.7531200  3
    467    470    471    477     1  0.0000000  0.6508444  3
    470    467    466    480     1  180.0000771  0.8368000  1
    470    467    466    480     1  180.0000771  1.0460000  2
    470    467    466    480     1  0.0000000  0.7531200  3
    470    467    466    488     1  0.0000000  0.6508444  3
    470    471    472    476     1  0.0000000  0.6508444  3
    470    471    472    488     1  0.0000000  0.6508444  3
    471    470    467    479     1  0.0000000  0.6508444  3
    472    471    470    478     1  0.0000000  0.6508444  3
    472    488    466    480     1  180.0000771  0.4184000  2
    472    488    466    480     1  0.0000000  1.6024720  3
    476    472    471    477     1  0.0000000  4.9162000  2
    476    472    471    477     1  0.0000000  0.6024960  3
    477    471    470    478     1  0.0000000  4.9162000  2
    477    471    470    478     1  0.0000000  0.6024960  3
    477    471    472    488     1  0.0000000  4.9162000  2
    477    471    472    488     1  0.0000000  0.6024960  3
    478    470    467    479     1  0.0000000  4.9162000  2
    478    470    467    479     1  0.0000000  0.6024960  3
    479    467    466    480     1  0.0000000  0.6508444  3
    479    467    466    488     1  0.0000000  4.9162000  2
    479    467    466    488     1  0.0000000  0.6024960  3
    486    480    466    488     1  0.0000000  4.9162000  2
    486    480    466    488     1  0.0000000  0.6024960  3
    489    490    493    494     1  180.0000771  0.8368000  1
    489    490    493    494     1  180.0000771  1.0460000  2
    489    490    493    494     1  0.0000000  0.7531200  3
    489    490    493    501     1  0.0000000  0.6508444  3
    489    511    495    499     1  180.0000771  5.6484000  1
    489    511    495    499     1  180.0000771  3.5564000  2
    489    511    495    499     1  0.0000000  0.4184000  3
    489    511    495    494     1  180.0000771  0.4184000  2
    489    511    495    494     1  0.0000000  1.6024720  3
    490    493    494    495     1  180.0000771  0.8368000  1
    490    493    494    495     1  180.0000771  1.0460000  2
    490    493    494    495     1  0.0000000  0.7531200  3
    490    493    494    500     1  0.0000000  0.6508444  3
    490    489    503    509     1  0.0000000  0.6508444  3
    490    489    511    495     1  180.0000771  0.4184000  2
    490    489    511    495     1  0.0000000  1.6024720  3
    493    494    495    499     1  0.0000000  0.6508444  3
    493    494    495    511     1  0.0000000  0.6508444  3
    493    490    489    503     1  180.0000771  0.8368000  1
    493    490    489    503     1  180.0000771  1.0460000  2
    493    490    489    503     1  0.0000000  0.7531200  3
    493    490    489    511     1  0.0000000  0.6508444  3
    494    493    490    502     1  0.0000000  0.6508444  3
    495    511    489    503     1  180.0000771  0.4184000  2
    495    511    489    503     1  0.0000000  1.6024720  3
    495    494    493    501     1  0.0000000  0.6508444  3
    499    495    494    500     1  0.0000000  4.9162000  2
    499    495    494    500     1  0.0000000  0.6024960  3
    500    494    495    511     1  0.0000000  4.9162000  2
    500    494    495    511     1  0.0000000  0.6024960  3
    500    494    493    501     1  0.0000000  4.9162000  2
    500    494    493    501     1  0.0000000  0.6024960  3
    501    493    490    502     1  0.0000000  4.9162000  2
    501    493    490    502     1  0.0000000  0.6024960  3
    502    490    489    503     1  0.0000000  0.6508444  3
    502    490    489    511     1  0.0000000  4.9162000  2
    502    490    489    511     1  0.0000000  0.6024960  3
    509    503    489    511     1  0.0000000  4.9162000  2
    509    503    489    511     1  0.0000000  0.6024960  3
    512    513    516    517     1  180.0000771  0.8368000  1
    512    513    516    517     1  180.0000771  1.0460000  2
    512    513    516    517     1  0.0000000  0.7531200  3
    512    513    516    524     1  0.0000000  0.6508444  3
    512    534    518    517     1  180.0000771  0.4184000  2
    512    534    518    517     1  0.0000000  1.6024720  3
    512    534    518    522     1  180.0000771  5.6484000  1
    512    534    518    522     1  180.0000771  3.5564000  2
    512    534    518    522     1  0.0000000  0.4184000  3
    513    512    526    532     1  0.0000000  0.6508444  3
    513    512    534    518     1  180.0000771  0.4184000  2
    513    512    534    518     1  0.0000000  1.6024720  3
    513    516    517    518     1  180.0000771  0.8368000  1
    513    516    517    518     1  180.0000771  1.0460000  2
    513    516    517    518     1  0.0000000  0.7531200  3
    513    516    517    523     1  0.0000000  0.6508444  3
    516    513    512    526     1  180.0000771  0.8368000  1
    516    513    512    526     1  180.0000771  1.0460000  2
    516    513    512    526     1  0.0000000  0.7531200  3
    516    513    512    534     1  0.0000000  0.6508444  3
    516    517    518    522     1  0.0000000  0.6508444  3
    516    517    518    534     1  0.0000000  0.6508444  3
    517    516    513    525     1  0.0000000  0.6508444  3
    518    517    516    524     1  0.0000000  0.6508444  3
    518    534    512    526     1  180.0000771  0.4184000  2
    518    534    512    526     1  0.0000000  1.6024720  3
    522    518    517    523     1  0.0000000  4.9162000  2
    522    518    517    523     1  0.0000000  0.6024960  3
    523    517    516    524     1  0.0000000  4.9162000  2
    523    517    516    524     1  0.0000000  0.6024960  3
    523    517    518    534     1  0.0000000  4.9162000  2
    523    517    518    534     1  0.0000000  0.6024960  3
    524    516    513    525     1  0.0000000  4.9162000  2
    524    516    513    525     1  0.0000000  0.6024960  3
    525    513    512    526     1  0.0000000  0.6508444  3
    525    513    512    534     1  0.0000000  4.9162000  2
    525    513    512    534     1  0.0000000  0.6024960  3
    532    526    512    534     1  0.0000000  4.9162000  2
    532    526    512    534     1  0.0000000  0.6024960  3
    535    536    539    540     1  180.0000771  0.8368000  1
    535    536    539    540     1  180.0000771  1.0460000  2
    535    536    539    540     1  0.0000000  0.7531200  3
    535    536    539    547     1  0.0000000  0.6508444  3
    535    557    541    545     1  180.0000771  5.6484000  1
    535    557    541    545     1  180.0000771  3.5564000  2
    535    557    541    545     1  0.0000000  0.4184000  3
    535    557    541    540     1  180.0000771  0.4184000  2
    535    557    541    540     1  0.0000000  1.6024720  3
    536    539    540    541     1  180.0000771  0.8368000  1
    536    539    540    541     1  180.0000771  1.0460000  2
    536    539    540    541     1  0.0000000  0.7531200  3
    536    539    540    546     1  0.0000000  0.6508444  3
    536    535    549    555     1  0.0000000  0.6508444  3
    536    535    557    541     1  180.0000771  0.4184000  2
    536    535    557    541     1  0.0000000  1.6024720  3
    539    540    541    545     1  0.0000000  0.6508444  3
    539    540    541    557     1  0.0000000  0.6508444  3
    539    536    535    549     1  180.0000771  0.8368000  1
    539    536    535    549     1  180.0000771  1.0460000  2
    539    536    535    549     1  0.0000000  0.7531200  3
    539    536    535    557     1  0.0000000  0.6508444  3
    540    539    536    548     1  0.0000000  0.6508444  3
    541    557    535    549     1  180.0000771  0.4184000  2
    541    557    535    549     1  0.0000000  1.6024720  3
    541    540    539    547     1  0.0000000  0.6508444  3
    545    541    540    546     1  0.0000000  4.9162000  2
    545    541    540    546     1  0.0000000  0.6024960  3
    546    540    541    557     1  0.0000000  4.9162000  2
    546    540    541    557     1  0.0000000  0.6024960  3
    546    540    539    547     1  0.0000000  4.9162000  2
    546    540    539    547     1  0.0000000  0.6024960  3
    547    539    536    548     1  0.0000000  4.9162000  2
    547    539    536    548     1  0.0000000  0.6024960  3
    548    536    535    549     1  0.0000000  0.6508444  3
    548    536    535    557     1  0.0000000  4.9162000  2
    548    536    535    557     1  0.0000000  0.6024960  3
    555    549    535    557     1  0.0000000  4.9162000  2
    555    549    535    557     1  0.0000000  0.6024960  3
    558    559    562    563     1  180.0000771  0.8368000  1
    558    559    562    563     1  180.0000771  1.0460000  2
    558    559    562    563     1  0.0000000  0.7531200  3
    558    559    562    570     1  0.0000000  0.6508444  3
    558    580    564    563     1  180.0000771  0.4184000  2
    558    580    564    563     1  0.0000000  1.6024720  3
    558    580    564    568     1  180.0000771  5.6484000  1
    558    580    564    568     1  180.0000771  3.5564000  2
    558    580    564    568     1  0.0000000  0.4184000  3
    559    558    572    578     1  0.0000000  0.6508444  3
    559    558    580    564     1  180.0000771  0.4184000  2
    559    558    580    564     1  0.0000000  1.6024720  3
    559    562    563    564     1  180.0000771  0.8368000  1
    559    562    563    564     1  180.0000771  1.0460000  2
    559    562    563    564     1  0.0000000  0.7531200  3
    559    562    563    569     1  0.0000000  0.6508444  3
    562    559    558    572     1  180.0000771  0.8368000  1
    562    559    558    572     1  180.0000771  1.0460000  2
    562    559    558    572     1  0.0000000  0.7531200  3
    562    559    558    580     1  0.0000000  0.6508444  3
    562    563    564    568     1  0.0000000  0.6508444  3
    562    563    564    580     1  0.0000000  0.6508444  3
    563    562    559    571     1  0.0000000  0.6508444  3
    564    563    562    570     1  0.0000000  0.6508444  3
    564    580    558    572     1  180.0000771  0.4184000  2
    564    580    558    572     1  0.0000000  1.6024720  3
    568    564    563    569     1  0.0000000  4.9162000  2
    568    564    563    569     1  0.0000000  0.6024960  3
    569    563    562    570     1  0.0000000  4.9162000  2
    569    563    562    570     1  0.0000000  0.6024960  3
    569    563    564    580     1  0.0000000  4.9162000  2
    569    563    564    580     1  0.0000000  0.6024960  3
    570    562    559    571     1  0.0000000  4.9162000  2
    570    562    559    571     1  0.0000000  0.6024960  3
    571    559    558    572     1  0.0000000  0.6508444  3
    571    559    558    580     1  0.0000000  4.9162000  2
    571    559    558    580     1  0.0000000  0.6024960  3
    578    572    558    580     1  0.0000000  4.9162000  2
    578    572    558    580     1  0.0000000  0.6024960  3
    581    582    585    586     1  180.0000771  0.8368000  1
    581    582    585    586     1  180.0000771  1.0460000  2
    581    582    585    586     1  0.0000000  0.7531200  3
    581    582    585    593     1  0.0000000  0.6508444  3
    581    603    587    591     1  180.0000771  5.6484000  1
    581    603    587    591     1  180.0000771  3.5564000  2
    581    603    587    591     1  0.0000000  0.4184000  3
    581    603    587    586     1  180.0000771  0.4184000  2
    581    603    587    586     1  0.0000000  1.6024720  3
    582    585    586    587     1  180.0000771  0.8368000  1
    582    585    586    587     1  180.0000771  1.0460000  2
    582    585    586    587     1  0.0000000  0.7531200  3
    582    585    586    592     1  0.0000000  0.6508444  3
    582    581    595    601     1  0.0000000  0.6508444  3
    582    581    603    587     1  180.0000771  0.4184000  2
    582    581    603    587     1  0.0000000  1.6024720  3
    585    586    587    591     1  0.0000000  0.6508444  3
    585    586    587    603     1  0.0000000  0.6508444  3
    585    582    581    595     1  180.0000771  0.8368000  1
    585    582    581    595     1  180.0000771  1.0460000  2
    585    582    581    595     1  0.0000000  0.7531200  3
    585    582    581    603     1  0.0000000  0.6508444  3
    586    585    582    594     1  0.0000000  0.6508444  3
    587    603    581    595     1  180.0000771  0.4184000  2
    587    603    581    595     1  0.0000000  1.6024720  3
    587    586    585    593     1  0.0000000  0.6508444  3
    591    587    586    592     1  0.0000000  4.9162000  2
    591    587    586    592     1  0.0000000  0.6024960  3
    592    586    587    603     1  0.0000000  4.9162000  2
    592    586    587    603     1  0.0000000  0.6024960  3
    592    586    585    593     1  0.0000000  4.9162000  2
    592    586    585    593     1  0.0000000  0.6024960  3
    593    585    582    594     1  0.0000000  4.9162000  2
    593    585    582    594     1  0.0000000  0.6024960  3
    594    582    581    595     1  0.0000000  0.6508444  3
    594    582    581    603     1  0.0000000  4.9162000  2
    594    582    581    603     1  0.0000000  0.6024960  3
    601    595    581    603     1  0.0000000  4.9162000  2
    601    595    581    603     1  0.0000000  0.6024960  3
    604    605    608    609     1  180.0000771  0.8368000  1
    604    605    608    609     1  180.0000771  1.0460000  2
    604    605    608    609     1  0.0000000  0.7531200  3
    604    605    608    616     1  0.0000000  0.6508444  3
    604    626    610    609     1  180.0000771  0.4184000  2
    604    626    610    609     1  0.0000000  1.6024720  3
    604    626    610    614     1  180.0000771  5.6484000  1
    604    626    610    614     1  180.0000771  3.5564000  2
    604    626    610    614     1  0.0000000  0.4184000  3
    605    604    618    624     1  0.0000000  0.6508444  3
    605    604    626    610     1  180.0000771  0.4184000  2
    605    604    626    610     1  0.0000000  1.6024720  3
    605    608    609    610     1  180.0000771  0.8368000  1
    605    608    609    610     1  180.0000771  1.0460000  2
    605    608    609    610     1  0.0000000  0.7531200  3
    605    608    609    615     1  0.0000000  0.6508444  3
    608    605    604    618     1  180.0000771  0.8368000  1
    608    605    604    618     1  180.0000771  1.0460000  2
    608    605    604    618     1  0.0000000  0.7531200  3
    608    605    604    626     1  0.0000000  0.6508444  3
    608    609    610    614     1  0.0000000  0.6508444  3
    608    609    610    626     1  0.0000000  0.6508444  3
    609    608    605    617     1  0.0000000  0.6508444  3
    610    609    608    616     1  0.0000000  0.6508444  3
    610    626    604    618     1  180.0000771  0.4184000  2
    610    626    604    618     1  0.0000000  1.6024720  3
    614    610    609    615     1  0.0000000  4.9162000  2
    614    610    609    615     1  0.0000000  0.6024960  3
    615    609    608    616     1  0.0000000  4.9162000  2
    615    609    608    616     1  0.0000000  0.6024960  3
    615    609    610    626     1  0.0000000  4.9162000  2
    615    609    610    626     1  0.0000000  0.6024960  3
    616    608    605    617     1  0.0000000  4.9162000  2
    616    608    605    617     1  0.0000000  0.6024960  3
    617    605    604    618     1  0.0000000  0.6508444  3
    617    605    604    626     1  0.0000000  4.9162000  2
    617    605    604    626     1  0.0000000  0.6024960  3
    624    618    604    626     1  0.0000000  4.9162000  2
    624    618    604    626     1  0.0000000  0.6024960  3
    627    628    631    632     1  180.0000771  0.8368000  1
    627    628    631    632     1  180.0000771  1.0460000  2
    627    628    631    632     1  0.0000000  0.7531200  3
    627    628    631    639     1  0.0000000  0.6508444  3
    627    649    633    637     1  180.0000771  5.6484000  1
    627    649    633    637     1  180.0000771  3.5564000  2
    627    649    633    637     1  0.0000000  0.4184000  3
    627    649    633    632     1  180.0000771  0.4184000  2
    627    649    633    632     1  0.0000000  1.6024720  3
    628    631    632    633     1  180.0000771  0.8368000  1
    628    631    632    633     1  180.0000771  1.0460000  2
    628    631    632    633     1  0.0000000  0.7531200  3
    628    631    632    638     1  0.0000000  0.6508444  3
    628    627    641    647     1  0.0000000  0.6508444  3
    628    627    649    633     1  180.0000771  0.4184000  2
    628    627    649    633     1  0.0000000  1.6024720  3
    631    632    633    637     1  0.0000000  0.6508444  3
    631    632    633    649     1  0.0000000  0.6508444  3
    631    628    627    641     1  180.0000771  0.8368000  1
    631    628    627    641     1  180.0000771  1.0460000  2
    631    628    627    641     1  0.0000000  0.7531200  3
    631    628    627    649     1  0.0000000  0.6508444  3
    632    631    628    640     1  0.0000000  0.6508444  3
    633    649    627    641     1  180.0000771  0.4184000  2
    633    649    627    641     1  0.0000000  1.6024720  3
    633    632    631    639     1  0.0000000  0.6508444  3
    637    633    632    638     1  0.0000000  4.9162000  2
    637    633    632    638     1  0.0000000  0.6024960  3
    638    632    633    649     1  0.0000000  4.9162000  2
    638    632    633    649     1  0.0000000  0.6024960  3
    638    632    631    639     1  0.0000000  4.9162000  2
    638    632    631    639     1  0.0000000  0.6024960  3
    639    631    628    640     1  0.0000000  4.9162000  2
    639    631    628    640     1  0.0000000  0.6024960  3
    640    628    627    641     1  0.0000000  0.6508444  3
    640    628    627    649     1  0.0000000  4.9162000  2
    640    628    627    649     1  0.0000000  0.6024960  3
    647    641    627    649     1  0.0000000  4.9162000  2
    647    641    627    649     1  0.0000000  0.6024960  3
    650    651    654    655     1  180.0000771  0.8368000  1
    650    651    654    655     1  180.0000771  1.0460000  2
    650    651    654    655     1  0.0000000  0.7531200  3
    650    651    654    662     1  0.0000000  0.6508444  3
    650    672    656    655     1  180.0000771  0.4184000  2
    650    672    656    655     1  0.0000000  1.6024720  3
    650    672    656    660     1  180.0000771  5.6484000  1
    650    672    656    660     1  180.0000771  3.5564000  2
    650    672    656    660     1  0.0000000  0.4184000  3
    651    650    664    670     1  0.0000000  0.6508444  3
    651    650    672    656     1  180.0000771  0.4184000  2
    651    650    672    656     1  0.0000000  1.6024720  3
    651    654    655    656     1  180.0000771  0.8368000  1
    651    654    655    656     1  180.0000771  1.0460000  2
    651    654    655    656     1  0.0000000  0.7531200  3
    651    654    655    661     1  0.0000000  0.6508444  3
    654    651    650    664     1  180.0000771  0.8368000  1
    654    651    650    664     1  180.0000771  1.0460000  2
    654    651    650    664     1  0.0000000  0.7531200  3
    654    651    650    672     1  0.0000000  0.6508444  3
    654    655    656    660     1  0.0000000  0.6508444  3
    654    655    656    672     1  0.0000000  0.6508444  3
    655    654    651    663     1  0.0000000  0.6508444  3
    656    655    654    662     1  0.0000000  0.6508444  3
    656    672    650    664     1  180.0000771  0.4184000  2
    656    672    650    664     1  0.0000000  1.6024720  3
    660    656    655    661     1  0.0000000  4.9162000  2
    660    656    655    661     1  0.0000000  0.6024960  3
    661    655    654    662     1  0.0000000  4.9162000  2
    661    655    654    662     1  0.0000000  0.6024960  3
    661    655    656    672     1  0.0000000  4.9162000  2
    661    655    656    672     1  0.0000000  0.6024960  3
    662    654    651    663     1  0.0000000  4.9162000  2
    662    654    651    663     1  0.0000000  0.6024960  3
    663    651    650    664     1  0.0000000  0.6508444  3
    663    651    650    672     1  0.0000000  4.9162000  2
    663    651    650    672     1  0.0000000  0.6024960  3
    670    664    650    672     1  0.0000000  4.9162000  2
    670    664    650    672     1  0.0000000  0.6024960  3
    673    674    677    678     1  180.0000771  0.8368000  1
    673    674    677    678     1  180.0000771  1.0460000  2
    673    674    677    678     1  0.0000000  0.7531200  3
    673    674    677    685     1  0.0000000  0.6508444  3
    673    695    679    683     1  180.0000771  5.6484000  1
    673    695    679    683     1  180.0000771  3.5564000  2
    673    695    679    683     1  0.0000000  0.4184000  3
    673    695    679    678     1  180.0000771  0.4184000  2
    673    695    679    678     1  0.0000000  1.6024720  3
    674    677    678    679     1  180.0000771  0.8368000  1
    674    677    678    679     1  180.0000771  1.0460000  2
    674    677    678    679     1  0.0000000  0.7531200  3
    674    677    678    684     1  0.0000000  0.6508444  3
    674    673    687    693     1  0.0000000  0.6508444  3
    674    673    695    679     1  180.0000771  0.4184000  2
    674    673    695    679     1  0.0000000  1.6024720  3
    677    678    679    683     1  0.0000000  0.6508444  3
    677    678    679    695     1  0.0000000  0.6508444  3
    677    674    673    687     1  180.0000771  0.8368000  1
    677    674    673    687     1  180.0000771  1.0460000  2
    677    674    673    687     1  0.0000000  0.7531200  3
    677    674    673    695     1  0.0000000  0.6508444  3
    678    677    674    686     1  0.0000000  0.6508444  3
    679    695    673    687     1  180.0000771  0.4184000  2
    679    695    673    687     1  0.0000000  1.6024720  3
    679    678    677    685     1  0.0000000  0.6508444  3
    683    679    678    684     1  0.0000000  4.9162000  2
    683    679    678    684     1  0.0000000  0.6024960  3
    684    678    679    695     1  0.0000000  4.9162000  2
    684    678    679    695     1  0.0000000  0.6024960  3
    684    678    677    685     1  0.0000000  4.9162000  2
    684    678    677    685     1  0.0000000  0.6024960  3
    685    677    674    686     1  0.0000000  4.9162000  2
    685    677    674    686     1  0.0000000  0.6024960  3
    686    674    673    687     1  0.0000000  0.6508444  3
    686    674    673    695     1  0.0000000  4.9162000  2
    686    674    673    695     1  0.0000000  0.6024960  3
    693    687    673    695     1  0.0000000  4.9162000  2
    693    687    673    695     1  0.0000000  0.6024960  3
    696    697    700    701     1  180.0000771  0.8368000  1
    696    697    700    701     1  180.0000771  1.0460000  2
    696    697    700    701     1  0.0000000  0.7531200  3
    696    697    700    708     1  0.0000000  0.6508444  3
    696    718    702    701     1  180.0000771  0.4184000  2
    696    718    702    701     1  0.0000000  1.6024720  3
    696    718    702    706     1  180.0000771  5.6484000  1
    696    718    702    706     1  180.0000771  3.5564000  2
    696    718    702    706     1  0.0000000  0.4184000  3
    697    696    710    716     1  0.0000000  0.6508444  3
    697    696    718    702     1  180.0000771  0.4184000  2
    697    696    718    702     1  0.0000000  1.6024720  3
    697    700    701    702     1  180.0000771  0.8368000  1
    697    700    701    702     1  180.0000771  1.0460000  2
    697    700    701    702     1  0.0000000  0.7531200  3
    697    700    701    707     1  0.0000000  0.6508444  3
    700    697    696    710     1  180.0000771  0.8368000  1
    700    697    696    710     1  180.0000771  1.0460000  2
    700    697    696    710     1  0.0000000  0.7531200  3
    700    697    696    718     1  0.0000000  0.6508444  3
    700    701    702    706     1  0.0000000  0.6508444  3
    700    701    702    718     1  0.0000000  0.6508444  3
    701    700    697    709     1  0.0000000  0.6508444  3
    702    701    700    708     1  0.0000000  0.6508444  3
    702    718    696    710     1  180.0000771  0.4184000  2
    702    718    696    710     1  0.0000000  1.6024720  3
    706    702    701    707     1  0.0000000  4.9162000  2
    706    702    701    707     1  0.0000000  0.6024960  3
    707    701    700    708     1  0.0000000  4.9162000  2
    707    701    700    708     1  0.0000000  0.6024960  3
    707    701    702    718     1  0.0000000  4.9162000  2
    707    701    702    718     1  0.0000000  0.6024960  3
    708    700    697    709     1  0.0000000  4.9162000  2
    708    700    697    709     1  0.0000000  0.6024960  3
    709    697    696    710     1  0.0000000  0.6508444  3
    709    697    696    718     1  0.0000000  4.9162000  2
    709    697    696    718     1  0.0000000  0.6024960  3
    716    710    696    718     1  0.0000000  4.9162000  2
    716    710    696    718     1  0.0000000  0.6024960  3
    719    720    723    724     1  180.0000771  0.8368000  1
    719    720    723    724     1  180.0000771  1.0460000  2
    719    720    723    724     1  0.0000000  0.7531200  3
    719    720    723    731     1  0.0000000  0.6508444  3
    719    741    725    729     1  180.0000771  5.6484000  1
    719    741    725    729     1  180.0000771  3.5564000  2
    719    741    725    729     1  0.0000000  0.4184000  3
    719    741    725    724     1  180.0000771  0.4184000  2
    719    741    725    724     1  0.0000000  1.6024720  3
    720    723    724    725     1  180.0000771  0.8368000  1
    720    723    724    725     1  180.0000771  1.0460000  2
    720    723    724    725     1  0.0000000  0.7531200  3
    720    723    724    730     1  0.0000000  0.6508444  3
    720    719    733    739     1  0.0000000  0.6508444  3
    720    719    741    725     1  180.0000771  0.4184000  2
    720    719    741    725     1  0.0000000  1.6024720  3
    723    724    725    729     1  0.0000000  0.6508444  3
    723    724    725    741     1  0.0000000  0.6508444  3
    723    720    719    733     1  180.0000771  0.8368000  1
    723    720    719    733     1  180.0000771  1.0460000  2
    723    720    719    733     1  0.0000000  0.7531200  3
    723    720    719    741     1  0.0000000  0.6508444  3
    724    723    720    732     1  0.0000000  0.6508444  3
    725    741    719    733     1  180.0000771  0.4184000  2
    725    741    719    733     1  0.0000000  1.6024720  3
    725    724    723    731     1  0.0000000  0.6508444  3
    729    725    724    730     1  0.0000000  4.9162000  2
    729    725    724    730     1  0.0000000  0.6024960  3
    730    724    725    741     1  0.0000000  4.9162000  2
    730    724    725    741     1  0.0000000  0.6024960  3
    730    724    723    731     1  0.0000000  4.9162000  2
    730    724    723    731     1  0.0000000  0.6024960  3
    731    723    720    732     1  0.0000000  4.9162000  2
    731    723    720    732     1  0.0000000  0.6024960  3
    732    720    719    733     1  0.0000000  0.6508444  3
    732    720    719    741     1  0.0000000  4.9162000  2
    732    720    719    741     1  0.0000000  0.6024960  3
    739    733    719    741     1  0.0000000  4.9162000  2
    739    733    719    741     1  0.0000000  0.6024960  3
    742    743    746    747     1  180.0000771  0.8368000  1
    742    743    746    747     1  180.0000771  1.0460000  2
    742    743    746    747     1  0.0000000  0.7531200  3
    742    743    746    754     1  0.0000000  0.6508444  3
    742    764    748    747     1  180.0000771  0.4184000  2
    742    764    748    747     1  0.0000000  1.6024720  3
    742    764    748    752     1  180.0000771  5.6484000  1
    742    764    748    752     1  180.0000771  3.5564000  2
    742    764    748    752     1  0.0000000  0.4184000  3
    743    742    756    762     1  0.0000000  0.6508444  3
    743    742    764    748     1  180.0000771  0.4184000  2
    743    742    764    748     1  0.0000000  1.6024720  3
    743    746    747    748     1  180.0000771  0.8368000  1
    743    746    747    748     1  180.0000771  1.0460000  2
    743    746    747    748     1  0.0000000  0.7531200  3
    743    746    747    753     1  0.0000000  0.6508444  3
    746    743    742    756     1  180.0000771  0.8368000  1
    746    743    742    756     1  180.0000771  1.0460000  2
    746    743    742    756     1  0.0000000  0.7531200  3
    746    743    742    764     1  0.0000000  0.6508444  3
    746    747    748    752     1  0.0000000  0.6508444  3
    746    747    748    764     1  0.0000000  0.6508444  3
    747    746    743    755     1  0.0000000  0.6508444  3
    748    747    746    754     1  0.0000000  0.6508444  3
    748    764    742    756     1  180.0000771  0.4184000  2
    748    764    742    756     1  0.0000000  1.6024720  3
    752    748    747    753     1  0.0000000  4.9162000  2
    752    748    747    753     1  0.0000000  0.6024960  3
    753    747    746    754     1  0.0000000  4.9162000  2
    753    747    746    754     1  0.0000000  0.6024960  3
    753    747    748    764     1  0.0000000  4.9162000  2
    753    747    748    764     1  0.0000000  0.6024960  3
    754    746    743    755     1  0.0000000  4.9162000  2
    754    746    743    755     1  0.0000000  0.6024960  3
    755    743    742    756     1  0.0000000  0.6508444  3
    755    743    742    764     1  0.0000000  4.9162000  2
    755    743    742    764     1  0.0000000  0.6024960  3
    762    756    742    764     1  0.0000000  4.9162000  2
    762    756    742    764     1  0.0000000  0.6024960  3
    765    766    769    770     1  180.0000771  0.8368000  1
    765    766    769    770     1  180.0000771  1.0460000  2
    765    766    769    770     1  0.0000000  0.7531200  3
    765    766    769    777     1  0.0000000  0.6508444  3
    765    787    771    775     1  180.0000771  5.6484000  1
    765    787    771    775     1  180.0000771  3.5564000  2
    765    787    771    775     1  0.0000000  0.4184000  3
    765    787    771    770     1  180.0000771  0.4184000  2
    765    787    771    770     1  0.0000000  1.6024720  3
    766    769    770    771     1  180.0000771  0.8368000  1
    766    769    770    771     1  180.0000771  1.0460000  2
    766    769    770    771     1  0.0000000  0.7531200  3
    766    769    770    776     1  0.0000000  0.6508444  3
    766    765    779    785     1  0.0000000  0.6508444  3
    766    765    787    771     1  180.0000771  0.4184000  2
    766    765    787    771     1  0.0000000  1.6024720  3
    769    770    771    775     1  0.0000000  0.6508444  3
    769    770    771    787     1  0.0000000  0.6508444  3
    769    766    765    779     1  180.0000771  0.8368000  1
    769    766    765    779     1  180.0000771  1.0460000  2
    769    766    765    779     1  0.0000000  0.7531200  3
    769    766    765    787     1  0.0000000  0.6508444  3
    770    769    766    778     1  0.0000000  0.6508444  3
    771    787    765    779     1  180.0000771  0.4184000  2
    771    787    765    779     1  0.0000000  1.6024720  3
    771    770    769    777     1  0.0000000  0.6508444  3
    775    771    770    776     1  0.0000000  4.9162000  2
    775    771    770    776     1  0.0000000  0.6024960  3
    776    770    771    787     1  0.0000000  4.9162000  2
    776    770    771    787     1  0.0000000  0.6024960  3
    776    770    769    777     1  0.0000000  4.9162000  2
    776    770    769    777     1  0.0000000  0.6024960  3
    777    769    766    778     1  0.0000000  4.9162000  2
    777    769    766    778     1  0.0000000  0.6024960  3
    778    766    765    779     1  0.0000000  0.6508444  3
    778    766    765    787     1  0.0000000  4.9162000  2
    778    766    765    787     1  0.0000000  0.6024960  3
    785    779    765    787     1  0.0000000  4.9162000  2
    785    779    765    787     1  0.0000000  0.6024960  3
      1      2      8      9     1  0.0000000  1.0460000  1
      1      2      8      9     1  0.0000000  0.0000000  3
      1      2      8     10     1  0.0000000  1.0460000  1
      1      2      8     10     1  0.0000000  0.0000000  3
      1      5     11     12     1  0.0000000  1.0460000  1
      1      5     11     12     1  0.0000000  0.0000000  3
      1      5     11     13     1  0.0000000  1.0460000  1
      1      5     11     13     1  0.0000000  0.0000000  3
      2      1      5      6     1  0.0000000  1.6038667  3
      2      1      5      7     1  0.0000000  1.6038667  3
      2      8     14     15     1  0.0000000  0.6508444  3
      2      8     14     16     1  0.0000000  0.6508444  3
      5      1      2      3     1  0.0000000  1.6038667  3
      3      2      8     14     1  0.0000000  0.6508444  3
      3      2      8      9     1  0.0000000  0.6508444  3
      3      2      8     10     1  0.0000000  0.6508444  3
      5      1      2      4     1  0.0000000  1.6038667  3
      4      2      8     14     1  0.0000000  0.6508444  3
      4      2      8      9     1  0.0000000  0.6508444  3
      4      2      8     10     1  0.0000000  0.6508444  3
      5     11     17     18     1  0.0000000  0.6508444  3
      5     11     17     19     1  0.0000000  0.6508444  3
      6      5     11     17     1  0.0000000  0.6508444  3
      6      5     11     12     1  0.0000000  0.6508444  3
      6      5     11     13     1  0.0000000  0.6508444  3
      7      5     11     17     1  0.0000000  0.6508444  3
      7      5     11     12     1  0.0000000  0.6508444  3
      7      5     11     13     1  0.0000000  0.6508444  3
      8     14     20     58     1  0.0000000  0.6508444  3
      9      8     14     20     1  0.0000000  0.6508444  3
      9      8     14     15     1  0.0000000  0.6508444  3
      9      8     14     16     1  0.0000000  0.6508444  3
     10      8     14     20     1  0.0000000  0.6508444  3
     10      8     14     15     1  0.0000000  0.6508444  3
     10      8     14     16     1  0.0000000  0.6508444  3
     11     17     21     59     1  0.0000000  0.6508444  3
     12     11     17     21     1  0.0000000  0.6508444  3
     12     11     17     18     1  0.0000000  0.6508444  3
     12     11     17     19     1  0.0000000  0.6508444  3
     13     11     17     21     1  0.0000000  0.6508444  3
     13     11     17     18     1  0.0000000  0.6508444  3
     13     11     17     19     1  0.0000000  0.6508444  3
     14     20     28     29     1  0.0000000  0.6508444  3
     14     20     28     30     1  0.0000000  0.6508444  3
     14     20     31     32     1  0.0000000  0.6508444  3
     14     20     31     33     1  0.0000000  0.6508444  3
     15     14     20     28     1  0.0000000  0.6508444  3
     15     14     20     31     1  0.0000000  0.6508444  3
     15     14     20     58     1  0.0000000  0.6508444  3
     16     14     20     28     1  0.0000000  0.6508444  3
     16     14     20     31     1  0.0000000  0.6508444  3
     16     14     20     58     1  0.0000000  0.6508444  3
     17     21     22     23     1  0.0000000  0.6508444  3
     17     21     22     24     1  0.0000000  0.6508444  3
     17     21     25     26     1  0.0000000  0.6508444  3
     17     21     25     27     1  0.0000000  0.6508444  3
     18     17     21     22     1  0.0000000  0.6508444  3
     18     17     21     25     1  0.0000000  0.6508444  3
     18     17     21     59     1  0.0000000  0.6508444  3
     19     17     21     22     1  0.0000000  0.6508444  3
     19     17     21     25     1  0.0000000  0.6508444  3
     19     17     21     59     1  0.0000000  0.6508444  3
     20     28     40     41     1  0.0000000  0.6508444  3
     20     28     40     42     1  0.0000000  0.6508444  3
     20     31     43     44     1  0.0000000  0.6508444  3
     20     31     43     45     1  0.0000000  0.6508444  3
     21     22     34     35     1  0.0000000  0.6508444  3
     21     22     34     36     1  0.0000000  0.6508444  3
     21     25     37     38     1  0.0000000  0.6508444  3
     21     25     37     39     1  0.0000000  0.6508444  3
     22     21     25     26     1  0.0000000  0.6508444  3
     22     21     25     27     1  0.0000000  0.6508444  3
     22     34     55     56     1  0.0000000  0.6694400  3
     22     34     55     57     1  0.0000000  0.6694400  3
     23     22     21     25     1  0.0000000  0.6508444  3
     23     22     21     59     1  0.0000000  0.6508444  3
     23     22     34     55     1  0.0000000  0.6508444  3
     23     22     34     35     1  0.0000000  0.6508444  3
     23     22     34     36     1  0.0000000  0.6508444  3
     24     22     21     25     1  0.0000000  0.6508444  3
     24     22     21     59     1  0.0000000  0.6508444  3
     24     22     34     55     1  0.0000000  0.6508444  3
     24     22     34     35     1  0.0000000  0.6508444  3
     24     22     34     36     1  0.0000000  0.6508444  3
     25     37     52     53     1  0.0000000  0.6694400  3
     25     37     52     54     1  0.0000000  0.6694400  3
     26     25     21     59     1  0.0000000  0.6508444  3
     26     25     37     52     1  0.0000000  0.6508444  3
     26     25     37     38     1  0.0000000  0.6508444  3
     26     25     37     39     1  0.0000000  0.6508444  3
     27     25     21     59     1  0.0000000  0.6508444  3
     27     25     37     52     1  0.0000000  0.6508444  3
     27     25     37     38     1  0.0000000  0.6508444  3
     27     25     37     39     1  0.0000000  0.6508444  3
     28     20     31     32     1  0.0000000  0.6508444  3
     28     20     31     33     1  0.0000000  0.6508444  3
     28     40     49     50     1  0.0000000  0.6694400  3
     28     40     49     51     1  0.0000000  0.6694400  3
     29     28     20     31     1  0.0000000  0.6508444  3
     29     28     20     58     1  0.0000000  0.6508444  3
     29     28     40     49     1  0.0000000  0.6508444  3
     29     28     40     41     1  0.0000000  0.6508444  3
     29     28     40     42     1  0.0000000  0.6508444  3
     30     28     20     31     1  0.0000000  0.6508444  3
     30     28     20     58     1  0.0000000  0.6508444  3
     30     28     40     49     1  0.0000000  0.6508444  3
     30     28     40     41     1  0.0000000  0.6508444  3
     30     28     40     42     1  0.0000000  0.6508444  3
     31     43     46     47     1  0.0000000  0.6694400  3
     31     43     46     48     1  0.0000000  0.6694400  3
     32     31     20     58     1  0.0000000  0.6508444  3
     32     31     43     46     1  0.0000000  0.6508444  3
     32     31     43     44     1  0.0000000  0.6508444  3
     32     31     43     45     1  0.0000000  0.6508444  3
     33     31     20     58     1  0.0000000  0.6508444  3
     33     31     43     46     1  0.0000000  0.6508444  3
     33     31     43     44     1  0.0000000  0.6508444  3
     33     31     43     45     1  0.0000000  0.6508444  3
     34     22     21     59     1  0.0000000  0.6508444  3
     35     34     55    178     1  0.0000000  1.0460000  1
     35     34     55    178     1  0.0000000  0.0000000  3
     35     34     55     56     1  0.0000000  0.6276000  3
     35     34     55     57     1  0.0000000  0.6276000  3
     36     34     55    178     1  0.0000000  1.0460000  1
     36     34     55    178     1  0.0000000  0.0000000  3
     36     34     55     56     1  0.0000000  0.6276000  3
     36     34     55     57     1  0.0000000  0.6276000  3
     37     25     21     59     1  0.0000000  0.6508444  3
     38     37     52    148     1  0.0000000  1.0460000  1
     38     37     52    148     1  0.0000000  0.0000000  3
     38     37     52     53     1  0.0000000  0.6276000  3
     38     37     52     54     1  0.0000000  0.6276000  3
     39     37     52    148     1  0.0000000  1.0460000  1
     39     37     52    148     1  0.0000000  0.0000000  3
     39     37     52     53     1  0.0000000  0.6276000  3
     39     37     52     54     1  0.0000000  0.6276000  3
     40     28     20     58     1  0.0000000  0.6508444  3
     41     40     49    118     1  0.0000000  1.0460000  1
     41     40     49    118     1  0.0000000  0.0000000  3
     41     40     49     50     1  0.0000000  0.6276000  3
     41     40     49     51     1  0.0000000  0.6276000  3
     42     40     49    118     1  0.0000000  1.0460000  1
     42     40     49    118     1  0.0000000  0.0000000  3
     42     40     49     50     1  0.0000000  0.6276000  3
     42     40     49     51     1  0.0000000  0.6276000  3
     43     31     20     58     1  0.0000000  0.6508444  3
     44     43     46     88     1  0.0000000  1.0460000  1
     44     43     46     88     1  0.0000000  0.0000000  3
     44     43     46     47     1  0.0000000  0.6276000  3
     44     43     46     48     1  0.0000000  0.6276000  3
     45     43     46     88     1  0.0000000  1.0460000  1
     45     43     46     88     1  0.0000000  0.0000000  3
     45     43     46     47     1  0.0000000  0.6276000  3
     45     43     46     48     1  0.0000000  0.6276000  3
     46     88     79     80     1  0.0000000  1.6038667  3
     46     88     79     81     1  0.0000000  1.6038667  3
     47     46     88     79     1  0.0000000  1.6038667  3
     48     46     88     79     1  0.0000000  1.6038667  3
     49    118    109    110     1  0.0000000  1.6038667  3
     49    118    109    111     1  0.0000000  1.6038667  3
     50     49    118    109     1  0.0000000  1.6038667  3
     51     49    118    109     1  0.0000000  1.6038667  3
     52    148    139    140     1  0.0000000  1.6038667  3
     52    148    139    141     1  0.0000000  1.6038667  3
     53     52    148    139     1  0.0000000  1.6038667  3
     54     52    148    139     1  0.0000000  1.6038667  3
     55    178    169    170     1  0.0000000  1.6038667  3
     55    178    169    171     1  0.0000000  1.6038667  3
     56     55    178    169     1  0.0000000  1.6038667  3
     57     55    178    169     1  0.0000000  1.6038667  3
     60     61     73     74     1  0.0000000  0.6508444  3
     60     61     73     75     1  0.0000000  0.6508444  3
     60     64     76     77     1  0.0000000  0.6508444  3
     60     64     76     78     1  0.0000000  0.6508444  3
     60     67     70     71     1  0.0000000  0.6508444  3
     60     67     70     72     1  0.0000000  0.6508444  3
     61     60     64     65     1  0.0000000  0.6508444  3
     61     60     64     66     1  0.0000000  0.6508444  3
     61     60     67     68     1  0.0000000  0.6508444  3
     61     60     67     69     1  0.0000000  0.6508444  3
     61     73     85     86     1  0.0000000  0.6508444  3
     61     73     85     87     1  0.0000000  0.6508444  3
     62     61     60     64     1  0.0000000  0.6508444  3
     62     61     60     67     1  0.0000000  0.6508444  3
     62     61     60     89     1  0.0000000  0.6508444  3
     62     61     73     85     1  0.0000000  0.6508444  3
     62     61     73     74     1  0.0000000  0.6508444  3
     62     61     73     75     1  0.0000000  0.6508444  3
     63     61     60     64     1  0.0000000  0.6508444  3
     63     61     60     67     1  0.0000000  0.6508444  3
     63     61     60     89     1  0.0000000  0.6508444  3
     63     61     73     85     1  0.0000000  0.6508444  3
     63     61     73     74     1  0.0000000  0.6508444  3
     63     61     73     75     1  0.0000000  0.6508444  3
     64     60     67     68     1  0.0000000  0.6508444  3
     64     60     67     69     1  0.0000000  0.6508444  3
     64     76     82     83     1  0.0000000  0.6508444  3
     64     76     82     84     1  0.0000000  0.6508444  3
     65     64     60     67     1  0.0000000  0.6508444  3
     65     64     60     89     1  0.0000000  0.6508444  3
     65     64     76     82     1  0.0000000  0.6508444  3
     65     64     76     77     1  0.0000000  0.6508444  3
     65     64     76     78     1  0.0000000  0.6508444  3
     66     64     60     67     1  0.0000000  0.6508444  3
     66     64     60     89     1  0.0000000  0.6508444  3
     66     64     76     82     1  0.0000000  0.6508444  3
     66     64     76     77     1  0.0000000  0.6508444  3
     66     64     76     78     1  0.0000000  0.6508444  3
     67     70     79     80     1  0.0000000  0.6508444  3
     67     70     79     81     1  0.0000000  0.6508444  3
     68     67     60     89     1  0.0000000  0.6508444  3
     68     67     70     79     1  0.0000000  0.6508444  3
     68     67     70     71     1  0.0000000  0.6508444  3
     68     67     70     72     1  0.0000000  0.6508444  3
     69     67     60     89     1  0.0000000  0.6508444  3
     69     67     70     79     1  0.0000000  0.6508444  3
     69     67     70     71     1  0.0000000  0.6508444  3
     69     67     70     72     1  0.0000000  0.6508444  3
     70     67     60     89     1  0.0000000  0.6508444  3
     71     70     79     88     1  0.0000000  1.0460000  1
     71     70     79     88     1  0.0000000  0.0000000  3
     71     70     79     80     1  0.0000000  0.6508444  3
     71     70     79     81     1  0.0000000  0.6508444  3
     72     70     79     88     1  0.0000000  1.0460000  1
     72     70     79     88     1  0.0000000  0.0000000  3
     72     70     79     80     1  0.0000000  0.6508444  3
     72     70     79     81     1  0.0000000  0.6508444  3
     73     61     60     89     1  0.0000000  0.6508444  3
     74     73     85    238     1  0.0000000  1.0460000  1
     74     73     85    238     1  0.0000000  0.0000000  3
     74     73     85     86     1  0.0000000  0.6508444  3
     74     73     85     87     1  0.0000000  0.6508444  3
     75     73     85    238     1  0.0000000  1.0460000  1
     75     73     85    238     1  0.0000000  0.0000000  3
     75     73     85     86     1  0.0000000  0.6508444  3
     75     73     85     87     1  0.0000000  0.6508444  3
     76     64     60     89     1  0.0000000  0.6508444  3
     77     76     82    208     1  0.0000000  1.0460000  1
     77     76     82    208     1  0.0000000  0.0000000  3
     77     76     82     83     1  0.0000000  0.6508444  3
     77     76     82     84     1  0.0000000  0.6508444  3
     78     76     82    208     1  0.0000000  1.0460000  1
     78     76     82    208     1  0.0000000  0.0000000  3
     78     76     82     83     1  0.0000000  0.6508444  3
     78     76     82     84     1  0.0000000  0.6508444  3
     82    208    199    200     1  0.0000000  1.6038667  3
     82    208    199    201     1  0.0000000  1.6038667  3
     83     82    208    199     1  0.0000000  1.6038667  3
     84     82    208    199     1  0.0000000  1.6038667  3
     85    238    229    230     1  0.0000000  1.6038667  3
     85    238    229    231     1  0.0000000  1.6038667  3
     86     85    238    229     1  0.0000000  1.6038667  3
     87     85    238    229     1  0.0000000  1.6038667  3
     90     91    103    104     1  0.0000000  0.6508444  3
     90     91    103    105     1  0.0000000  0.6508444  3
     90     94    106    107     1  0.0000000  0.6508444  3
     90     94    106    108     1  0.0000000  0.6508444  3
     90     97    100    101     1  0.0000000  0.6508444  3
     90     97    100    102     1  0.0000000  0.6508444  3
     91     90     94     95     1  0.0000000  0.6508444  3
     91     90     94     96     1  0.0000000  0.6508444  3
     91     90     97     98     1  0.0000000  0.6508444  3
     91     90     97     99     1  0.0000000  0.6508444  3
     91    103    115    116     1  0.0000000  0.6508444  3
     91    103    115    117     1  0.0000000  0.6508444  3
     92     91     90     94     1  0.0000000  0.6508444  3
     92     91     90     97     1  0.0000000  0.6508444  3
     92     91     90    119     1  0.0000000  0.6508444  3
     92     91    103    115     1  0.0000000  0.6508444  3
     92     91    103    104     1  0.0000000  0.6508444  3
     92     91    103    105     1  0.0000000  0.6508444  3
     93     91     90     94     1  0.0000000  0.6508444  3
     93     91     90     97     1  0.0000000  0.6508444  3
     93     91     90    119     1  0.0000000  0.6508444  3
     93     91    103    115     1  0.0000000  0.6508444  3
     93     91    103    104     1  0.0000000  0.6508444  3
     93     91    103    105     1  0.0000000  0.6508444  3
     94     90     97     98     1  0.0000000  0.6508444  3
     94     90     97     99     1  0.0000000  0.6508444  3
     94    106    112    113     1  0.0000000  0.6508444  3
     94    106    112    114     1  0.0000000  0.6508444  3
     95     94     90     97     1  0.0000000  0.6508444  3
     95     94     90    119     1  0.0000000  0.6508444  3
     95     94    106    112     1  0.0000000  0.6508444  3
     95     94    106    107     1  0.0000000  0.6508444  3
     95     94    106    108     1  0.0000000  0.6508444  3
     96     94     90     97     1  0.0000000  0.6508444  3
     96     94     90    119     1  0.0000000  0.6508444  3
     96     94    106    112     1  0.0000000  0.6508444  3
     96     94    106    107     1  0.0000000  0.6508444  3
     96     94    106    108     1  0.0000000  0.6508444  3
     97    100    109    110     1  0.0000000  0.6508444  3
     97    100    109    111     1  0.0000000  0.6508444  3
     98     97     90    119     1  0.0000000  0.6508444  3
     98     97    100    109     1  0.0000000  0.6508444  3
     98     97    100    101     1  0.0000000  0.6508444  3
     98     97    100    102     1  0.0000000  0.6508444  3
     99     97     90    119     1  0.0000000  0.6508444  3
     99     97    100    109     1  0.0000000  0.6508444  3
     99     97    100    101     1  0.0000000  0.6508444  3
     99     97    100    102     1  0.0000000  0.6508444  3
    100     97     90    119     1  0.0000000  0.6508444  3
    101    100    109    118     1  0.0000000  1.0460000  1
    101    100    109    118     1  0.0000000  0.0000000  3
    101    100    109    110     1  0.0000000  0.6508444  3
    101    100    109    111     1  0.0000000  0.6508444  3
    102    100    109    118     1  0.0000000  1.0460000  1
    102    100    109    118     1  0.0000000  0.0000000  3
    102    100    109    110     1  0.0000000  0.6508444  3
    102    100    109    111     1  0.0000000  0.6508444  3
    103     91     90    119     1  0.0000000  0.6508444  3
    104    103    115    298     1  0.0000000  1.0460000  1
    104    103    115    298     1  0.0000000  0.0000000  3
    104    103    115    116     1  0.0000000  0.6508444  3
    104    103    115    117     1  0.0000000  0.6508444  3
    105    103    115    298     1  0.0000000  1.0460000  1
    105    103    115    298     1  0.0000000  0.0000000  3
    105    103    115    116     1  0.0000000  0.6508444  3
    105    103    115    117     1  0.0000000  0.6508444  3
    106     94     90    119     1  0.0000000  0.6508444  3
    107    106    112    268     1  0.0000000  1.0460000  1
    107    106    112    268     1  0.0000000  0.0000000  3
    107    106    112    113     1  0.0000000  0.6508444  3
    107    106    112    114     1  0.0000000  0.6508444  3
    108    106    112    268     1  0.0000000  1.0460000  1
    108    106    112    268     1  0.0000000  0.0000000  3
    108    106    112    113     1  0.0000000  0.6508444  3
    108    106    112    114     1  0.0000000  0.6508444  3
    112    268    259    260     1  0.0000000  1.6038667  3
    112    268    259    261     1  0.0000000  1.6038667  3
    113    112    268    259     1  0.0000000  1.6038667  3
    114    112    268    259     1  0.0000000  1.6038667  3
    115    298    289    290     1  0.0000000  1.6038667  3
    115    298    289    291     1  0.0000000  1.6038667  3
    116    115    298    289     1  0.0000000  1.6038667  3
    117    115    298    289     1  0.0000000  1.6038667  3
    120    121    133    134     1  0.0000000  0.6508444  3
    120    121    133    135     1  0.0000000  0.6508444  3
    120    124    136    137     1  0.0000000  0.6508444  3
    120    124    136    138     1  0.0000000  0.6508444  3
    120    127    130    131     1  0.0000000  0.6508444  3
    120    127    130    132     1  0.0000000  0.6508444  3
    121    120    124    125     1  0.0000000  0.6508444  3
    121    120    124    126     1  0.0000000  0.6508444  3
    121    120    127    128     1  0.0000000  0.6508444  3
    121    120    127    129     1  0.0000000  0.6508444  3
    121    133    145    146     1  0.0000000  0.6508444  3
    121    133    145    147     1  0.0000000  0.6508444  3
    122    121    120    124     1  0.0000000  0.6508444  3
    122    121    120    127     1  0.0000000  0.6508444  3
    122    121    120    149     1  0.0000000  0.6508444  3
    122    121    133    145     1  0.0000000  0.6508444  3
    122    121    133    134     1  0.0000000  0.6508444  3
    122    121    133    135     1  0.0000000  0.6508444  3
    123    121    120    124     1  0.0000000  0.6508444  3
    123    121    120    127     1  0.0000000  0.6508444  3
    123    121    120    149     1  0.0000000  0.6508444  3
    123    121    133    145     1  0.0000000  0.6508444  3
    123    121    133    134     1  0.0000000  0.6508444  3
    123    121    133    135     1  0.0000000  0.6508444  3
    124    120    127    128     1  0.0000000  0.6508444  3
    124    120    127    129     1  0.0000000  0.6508444  3
    124    136    142    143     1  0.0000000  0.6508444  3
    124    136    142    144     1  0.0000000  0.6508444  3
    125    124    120    127     1  0.0000000  0.6508444  3
    125    124    120    149     1  0.0000000  0.6508444  3
    125    124    136    142     1  0.0000000  0.6508444  3
    125    124    136    137     1  0.0000000  0.6508444  3
    125    124    136    138     1  0.0000000  0.6508444  3
    126    124    120    127     1  0.0000000  0.6508444  3
    126    124    120    149     1  0.0000000  0.6508444  3
    126    124    136    142     1  0.0000000  0.6508444  3
    126    124    136    137     1  0.0000000  0.6508444  3
    126    124    136    138     1  0.0000000  0.6508444  3
    127    130    139    140     1  0.0000000  0.6508444  3
    127    130    139    141     1  0.0000000  0.6508444  3
    128    127    120    149     1  0.0000000  0.6508444  3
    128    127    130    139     1  0.0000000  0.6508444  3
    128    127    130    131     1  0.0000000  0.6508444  3
    128    127    130    132     1  0.0000000  0.6508444  3
    129    127    120    149     1  0.0000000  0.6508444  3
    129    127    130    139     1  0.0000000  0.6508444  3
    129    127    130    131     1  0.0000000  0.6508444  3
    129    127    130    132     1  0.0000000  0.6508444  3
    130    127    120    149     1  0.0000000  0.6508444  3
    131    130    139    148     1  0.0000000  1.0460000  1
    131    130    139    148     1  0.0000000  0.0000000  3
    131    130    139    140     1  0.0000000  0.6508444  3
    131    130    139    141     1  0.0000000  0.6508444  3
    132    130    139    148     1  0.0000000  1.0460000  1
    132    130    139    148     1  0.0000000  0.0000000  3
    132    130    139    140     1  0.0000000  0.6508444  3
    132    130    139    141     1  0.0000000  0.6508444  3
    133    121    120    149     1  0.0000000  0.6508444  3
    134    133    145    358     1  0.0000000  1.0460000  1
    134    133    145    358     1  0.0000000  0.0000000  3
    134    133    145    146     1  0.0000000  0.6508444  3
    134    133    145    147     1  0.0000000  0.6508444  3
    135    133    145    358     1  0.0000000  1.0460000  1
    135    133    145    358     1  0.0000000  0.0000000  3
    135    133    145    146     1  0.0000000  0.6508444  3
    135    133    145    147     1  0.0000000  0.6508444  3
    136    124    120    149     1  0.0000000  0.6508444  3
    137    136    142    328     1  0.0000000  1.0460000  1
    137    136    142    328     1  0.0000000  0.0000000  3
    137    136    142    143     1  0.0000000  0.6508444  3
    137    136    142    144     1  0.0000000  0.6508444  3
    138    136    142    328     1  0.0000000  1.0460000  1
    138    136    142    328     1  0.0000000  0.0000000  3
    138    136    142    143     1  0.0000000  0.6508444  3
    138    136    142    144     1  0.0000000  0.6508444  3
    142    328    319    320     1  0.0000000  1.6038667  3
    142    328    319    321     1  0.0000000  1.6038667  3
    143    142    328    319     1  0.0000000  1.6038667  3
    144    142    328    319     1  0.0000000  1.6038667  3
    145    358    349    350     1  0.0000000  1.6038667  3
    145    358    349    351     1  0.0000000  1.6038667  3
    146    145    358    349     1  0.0000000  1.6038667  3
    147    145    358    349     1  0.0000000  1.6038667  3
    150    151    163    164     1  0.0000000  0.6508444  3
    150    151    163    165     1  0.0000000  0.6508444  3
    150    154    166    167     1  0.0000000  0.6508444  3
    150    154    166    168     1  0.0000000  0.6508444  3
    150    157    160    161     1  0.0000000  0.6508444  3
    150    157    160    162     1  0.0000000  0.6508444  3
    151    150    154    155     1  0.0000000  0.6508444  3
    151    150    154    156     1  0.0000000  0.6508444  3
    151    150    157    158     1  0.0000000  0.6508444  3
    151    150    157    159     1  0.0000000  0.6508444  3
    151    163    175    176     1  0.0000000  0.6508444  3
    151    163    175    177     1  0.0000000  0.6508444  3
    152    151    150    154     1  0.0000000  0.6508444  3
    152    151    150    157     1  0.0000000  0.6508444  3
    152    151    150    179     1  0.0000000  0.6508444  3
    152    151    163    175     1  0.0000000  0.6508444  3
    152    151    163    164     1  0.0000000  0.6508444  3
    152    151    163    165     1  0.0000000  0.6508444  3
    153    151    150    154     1  0.0000000  0.6508444  3
    153    151    150    157     1  0.0000000  0.6508444  3
    153    151    150    179     1  0.0000000  0.6508444  3
    153    151    163    175     1  0.0000000  0.6508444  3
    153    151    163    164     1  0.0000000  0.6508444  3
    153    151    163    165     1  0.0000000  0.6508444  3
    154    150    157    158     1  0.0000000  0.6508444  3
    154    150    157    159     1  0.0000000  0.6508444  3
    154    166    172    173     1  0.0000000  0.6508444  3
    154    166    172    174     1  0.0000000  0.6508444  3
    155    154    150    157     1  0.0000000  0.6508444  3
    155    154    150    179     1  0.0000000  0.6508444  3
    155    154    166    172     1  0.0000000  0.6508444  3
    155    154    166    167     1  0.0000000  0.6508444  3
    155    154    166    168     1  0.0000000  0.6508444  3
    156    154    150    157     1  0.0000000  0.6508444  3
    156    154    150    179     1  0.0000000  0.6508444  3
    156    154    166    172     1  0.0000000  0.6508444  3
    156    154    166    167     1  0.0000000  0.6508444  3
    156    154    166    168     1  0.0000000  0.6508444  3
    157    160    169    170     1  0.0000000  0.6508444  3
    157    160    169    171     1  0.0000000  0.6508444  3
    158    157    150    179     1  0.0000000  0.6508444  3
    158    157    160    169     1  0.0000000  0.6508444  3
    158    157    160    161     1  0.0000000  0.6508444  3
    158    157    160    162     1  0.0000000  0.6508444  3
    159    157    150    179     1  0.0000000  0.6508444  3
    159    157    160    169     1  0.0000000  0.6508444  3
    159    157    160    161     1  0.0000000  0.6508444  3
    159    157    160    162     1  0.0000000  0.6508444  3
    160    157    150    179     1  0.0000000  0.6508444  3
    161    160    169    178     1  0.0000000  1.0460000  1
    161    160    169    178     1  0.0000000  0.0000000  3
    161    160    169    170     1  0.0000000  0.6508444  3
    161    160    169    171     1  0.0000000  0.6508444  3
    162    160    169    178     1  0.0000000  1.0460000  1
    162    160    169    178     1  0.0000000  0.0000000  3
    162    160    169    170     1  0.0000000  0.6508444  3
    162    160    169    171     1  0.0000000  0.6508444  3
    163    151    150    179     1  0.0000000  0.6508444  3
    164    163    175    418     1  0.0000000  1.0460000  1
    164    163    175    418     1  0.0000000  0.0000000  3
    164    163    175    176     1  0.0000000  0.6508444  3
    164    163    175    177     1  0.0000000  0.6508444  3
    165    163    175    418     1  0.0000000  1.0460000  1
    165    163    175    418     1  0.0000000  0.0000000  3
    165    163    175    176     1  0.0000000  0.6508444  3
    165    163    175    177     1  0.0000000  0.6508444  3
    166    154    150    179     1  0.0000000  0.6508444  3
    167    166    172    388     1  0.0000000  1.0460000  1
    167    166    172    388     1  0.0000000  0.0000000  3
    167    166    172    173     1  0.0000000  0.6508444  3
    167    166    172    174     1  0.0000000  0.6508444  3
    168    166    172    388     1  0.0000000  1.0460000  1
    168    166    172    388     1  0.0000000  0.0000000  3
    168    166    172    173     1  0.0000000  0.6508444  3
    168    166    172    174     1  0.0000000  0.6508444  3
    172    388    379    380     1  0.0000000  1.6038667  3
    172    388    379    381     1  0.0000000  1.6038667  3
    173    172    388    379     1  0.0000000  1.6038667  3
    174    172    388    379     1  0.0000000  1.6038667  3
    175    418    409    410     1  0.0000000  1.6038667  3
    175    418    409    411     1  0.0000000  1.6038667  3
    176    175    418    409     1  0.0000000  1.6038667  3
    177    175    418    409     1  0.0000000  1.6038667  3
    180    181    193    194     1  0.0000000  0.6508444  3
    180    181    193    195     1  0.0000000  0.6508444  3
    180    184    196    197     1  0.0000000  0.6508444  3
    180    184    196    198     1  0.0000000  0.6508444  3
    180    187    190    191     1  0.0000000  0.6508444  3
    180    187    190    192     1  0.0000000  0.6508444  3
    181    180    184    185     1  0.0000000  0.6508444  3
    181    180    184    186     1  0.0000000  0.6508444  3
    181    180    187    188     1  0.0000000  0.6508444  3
    181    180    187    189     1  0.0000000  0.6508444  3
    181    193    205    206     1  0.0000000  0.6508444  3
    181    193    205    207     1  0.0000000  0.6508444  3
    182    181    180    184     1  0.0000000  0.6508444  3
    182    181    180    187     1  0.0000000  0.6508444  3
    182    181    180    209     1  0.0000000  0.6508444  3
    182    181    193    205     1  0.0000000  0.6508444  3
    182    181    193    194     1  0.0000000  0.6508444  3
    182    181    193    195     1  0.0000000  0.6508444  3
    183    181    180    184     1  0.0000000  0.6508444  3
    183    181    180    187     1  0.0000000  0.6508444  3
    183    181    180    209     1  0.0000000  0.6508444  3
    183    181    193    205     1  0.0000000  0.6508444  3
    183    181    193    194     1  0.0000000  0.6508444  3
    183    181    193    195     1  0.0000000  0.6508444  3
    184    180    187    188     1  0.0000000  0.6508444  3
    184    180    187    189     1  0.0000000  0.6508444  3
    184    196    202    203     1  0.0000000  0.6508444  3
    184    196    202    204     1  0.0000000  0.6508444  3
    185    184    180    187     1  0.0000000  0.6508444  3
    185    184    180    209     1  0.0000000  0.6508444  3
    185    184    196    202     1  0.0000000  0.6508444  3
    185    184    196    197     1  0.0000000  0.6508444  3
    185    184    196    198     1  0.0000000  0.6508444  3
    186    184    180    187     1  0.0000000  0.6508444  3
    186    184    180    209     1  0.0000000  0.6508444  3
    186    184    196    202     1  0.0000000  0.6508444  3
    186    184    196    197     1  0.0000000  0.6508444  3
    186    184    196    198     1  0.0000000  0.6508444  3
    187    190    199    200     1  0.0000000  0.6508444  3
    187    190    199    201     1  0.0000000  0.6508444  3
    188    187    180    209     1  0.0000000  0.6508444  3
    188    187    190    199     1  0.0000000  0.6508444  3
    188    187    190    191     1  0.0000000  0.6508444  3
    188    187    190    192     1  0.0000000  0.6508444  3
    189    187    180    209     1  0.0000000  0.6508444  3
    189    187    190    199     1  0.0000000  0.6508444  3
    189    187    190    191     1  0.0000000  0.6508444  3
    189    187    190    192     1  0.0000000  0.6508444  3
    190    187    180    209     1  0.0000000  0.6508444  3
    191    190    199    208     1  0.0000000  1.0460000  1
    191    190    199    208     1  0.0000000  0.0000000  3
    191    190    199    200     1  0.0000000  0.6508444  3
    191    190    199    201     1  0.0000000  0.6508444  3
    192    190    199    208     1  0.0000000  1.0460000  1
    192    190    199    208     1  0.0000000  0.0000000  3
    192    190    199    200     1  0.0000000  0.6508444  3
    192    190    199    201     1  0.0000000  0.6508444  3
    193    181    180    209     1  0.0000000  0.6508444  3
    194    193    205    453     1  0.0000000  1.0460000  1
    194    193    205    453     1  0.0000000  0.0000000  3
    194    193    205    206     1  0.0000000  0.6508444  3
    194    193    205    207     1  0.0000000  0.6508444  3
    195    193    205    453     1  0.0000000  1.0460000  1
    195    193    205    453     1  0.0000000  0.0000000  3
    195    193    205    206     1  0.0000000  0.6508444  3
    195    193    205    207     1  0.0000000  0.6508444  3
    196    184    180    209     1  0.0000000  0.6508444  3
    197    196    202    430     1  0.0000000  1.0460000  1
    197    196    202    430     1  0.0000000  0.0000000  3
    197    196    202    203     1  0.0000000  0.6508444  3
    197    196    202    204     1  0.0000000  0.6508444  3
    198    196    202    430     1  0.0000000  1.0460000  1
    198    196    202    430     1  0.0000000  0.0000000  3
    198    196    202    203     1  0.0000000  0.6508444  3
    198    196    202    204     1  0.0000000  0.6508444  3
    202    430    426    429     1  0.0000000  1.6038667  3
    203    202    430    426     1  0.0000000  1.6038667  3
    204    202    430    426     1  0.0000000  1.6038667  3
    205    453    449    452     1  0.0000000  1.6038667  3
    206    205    453    449     1  0.0000000  1.6038667  3
    207    205    453    449     1  0.0000000  1.6038667  3
    210    211    223    224     1  0.0000000  0.6508444  3
    210    211    223    225     1  0.0000000  0.6508444  3
    210    214    226    227     1  0.0000000  0.6508444  3
    210    214    226    228     1  0.0000000  0.6508444  3
    210    217    220    221     1  0.0000000  0.6508444  3
    210    217    220    222     1  0.0000000  0.6508444  3
    211    210    214    215     1  0.0000000  0.6508444  3
    211    210    214    216     1  0.0000000  0.6508444  3
    211    210    217    218     1  0.0000000  0.6508444  3
    211    210    217    219     1  0.0000000  0.6508444  3
    211    223    235    236     1  0.0000000  0.6508444  3
    211    223    235    237     1  0.0000000  0.6508444  3
    212    211    210    214     1  0.0000000  0.6508444  3
    212    211    210    217     1  0.0000000  0.6508444  3
    212    211    210    239     1  0.0000000  0.6508444  3
    212    211    223    235     1  0.0000000  0.6508444  3
    212    211    223    224     1  0.0000000  0.6508444  3
    212    211    223    225     1  0.0000000  0.6508444  3
    213    211    210    214     1  0.0000000  0.6508444  3
    213    211    210    217     1  0.0000000  0.6508444  3
    213    211    210    239     1  0.0000000  0.6508444  3
    213    211    223    235     1  0.0000000  0.6508444  3
    213    211    223    224     1  0.0000000  0.6508444  3
    213    211    223    225     1  0.0000000  0.6508444  3
    214    210    217    218     1  0.0000000  0.6508444  3
    214    210    217    219     1  0.0000000  0.6508444  3
    214    226    232    233     1  0.0000000  0.6508444  3
    214    226    232    234     1  0.0000000  0.6508444  3
    215    214    210    217     1  0.0000000  0.6508444  3
    215    214    210    239     1  0.0000000  0.6508444  3
    215    214    226    232     1  0.0000000  0.6508444  3
    215    214    226    227     1  0.0000000  0.6508444  3
    215    214    226    228     1  0.0000000  0.6508444  3
    216    214    210    217     1  0.0000000  0.6508444  3
    216    214    210    239     1  0.0000000  0.6508444  3
    216    214    226    232     1  0.0000000  0.6508444  3
    216    214    226    227     1  0.0000000  0.6508444  3
    216    214    226    228     1  0.0000000  0.6508444  3
    217    220    229    230     1  0.0000000  0.6508444  3
    217    220    229    231     1  0.0000000  0.6508444  3
    218    217    210    239     1  0.0000000  0.6508444  3
    218    217    220    229     1  0.0000000  0.6508444  3
    218    217    220    221     1  0.0000000  0.6508444  3
    218    217    220    222     1  0.0000000  0.6508444  3
    219    217    210    239     1  0.0000000  0.6508444  3
    219    217    220    229     1  0.0000000  0.6508444  3
    219    217    220    221     1  0.0000000  0.6508444  3
    219    217    220    222     1  0.0000000  0.6508444  3
    220    217    210    239     1  0.0000000  0.6508444  3
    221    220    229    238     1  0.0000000  1.0460000  1
    221    220    229    238     1  0.0000000  0.0000000  3
    221    220    229    230     1  0.0000000  0.6508444  3
    221    220    229    231     1  0.0000000  0.6508444  3
    222    220    229    238     1  0.0000000  1.0460000  1
    222    220    229    238     1  0.0000000  0.0000000  3
    222    220    229    230     1  0.0000000  0.6508444  3
    222    220    229    231     1  0.0000000  0.6508444  3
    223    211    210    239     1  0.0000000  0.6508444  3
    224    223    235    499     1  0.0000000  1.0460000  1
    224    223    235    499     1  0.0000000  0.0000000  3
    224    223    235    236     1  0.0000000  0.6508444  3
    224    223    235    237     1  0.0000000  0.6508444  3
    225    223    235    499     1  0.0000000  1.0460000  1
    225    223    235    499     1  0.0000000  0.0000000  3
    225    223    235    236     1  0.0000000  0.6508444  3
    225    223    235    237     1  0.0000000  0.6508444  3
    226    214    210    239     1  0.0000000  0.6508444  3
    227    226    232    476     1  0.0000000  1.0460000  1
    227    226    232    476     1  0.0000000  0.0000000  3
    227    226    232    233     1  0.0000000  0.6508444  3
    227    226    232    234     1  0.0000000  0.6508444  3
    228    226    232    476     1  0.0000000  1.0460000  1
    228    226    232    476     1  0.0000000  0.0000000  3
    228    226    232    233     1  0.0000000  0.6508444  3
    228    226    232    234     1  0.0000000  0.6508444  3
    232    476    472    475     1  0.0000000  1.6038667  3
    233    232    476    472     1  0.0000000  1.6038667  3
    234    232    476    472     1  0.0000000  1.6038667  3
    235    499    495    498     1  0.0000000  1.6038667  3
    236    235    499    495     1  0.0000000  1.6038667  3
    237    235    499    495     1  0.0000000  1.6038667  3
    240    241    253    254     1  0.0000000  0.6508444  3
    240    241    253    255     1  0.0000000  0.6508444  3
    240    244    256    257     1  0.0000000  0.6508444  3
    240    244    256    258     1  0.0000000  0.6508444  3
    240    247    250    251     1  0.0000000  0.6508444  3
    240    247    250    252     1  0.0000000  0.6508444  3
    241    240    244    245     1  0.0000000  0.6508444  3
    241    240    244    246     1  0.0000000  0.6508444  3
    241    240    247    248     1  0.0000000  0.6508444  3
    241    240    247    249     1  0.0000000  0.6508444  3
    241    253    265    266     1  0.0000000  0.6508444  3
    241    253    265    267     1  0.0000000  0.6508444  3
    242    241    240    244     1  0.0000000  0.6508444  3
    242    241    240    247     1  0.0000000  0.6508444  3
    242    241    240    269     1  0.0000000  0.6508444  3
    242    241    253    265     1  0.0000000  0.6508444  3
    242    241    253    254     1  0.0000000  0.6508444  3
    242    241    253    255     1  0.0000000  0.6508444  3
    243    241    240    244     1  0.0000000  0.6508444  3
    243    241    240    247     1  0.0000000  0.6508444  3
    243    241    240    269     1  0.0000000  0.6508444  3
    243    241    253    265     1  0.0000000  0.6508444  3
    243    241    253    254     1  0.0000000  0.6508444  3
    243    241    253    255     1  0.0000000  0.6508444  3
    244    240    247    248     1  0.0000000  0.6508444  3
    244    240    247    249     1  0.0000000  0.6508444  3
    244    256    262    263     1  0.0000000  0.6508444  3
    244    256    262    264     1  0.0000000  0.6508444  3
    245    244    240    247     1  0.0000000  0.6508444  3
    245    244    240    269     1  0.0000000  0.6508444  3
    245    244    256    262     1  0.0000000  0.6508444  3
    245    244    256    257     1  0.0000000  0.6508444  3
    245    244    256    258     1  0.0000000  0.6508444  3
    246    244    240    247     1  0.0000000  0.6508444  3
    246    244    240    269     1  0.0000000  0.6508444  3
    246    244    256    262     1  0.0000000  0.6508444  3
    246    244    256    257     1  0.0000000  0.6508444  3
    246    244    256    258     1  0.0000000  0.6508444  3
    247    250    259    260     1  0.0000000  0.6508444  3
    247    250    259    261     1  0.0000000  0.6508444  3
    248    247    240    269     1  0.0000000  0.6508444  3
    248    247    250    259     1  0.0000000  0.6508444  3
    248    247    250    251     1  0.0000000  0.6508444  3
    248    247    250    252     1  0.0000000  0.6508444  3
    249    247    240    269     1  0.0000000  0.6508444  3
    249    247    250    259     1  0.0000000  0.6508444  3
    249    247    250    251     1  0.0000000  0.6508444  3
    249    247    250    252     1  0.0000000  0.6508444  3
    250    247    240    269     1  0.0000000  0.6508444  3
    251    250    259    268     1  0.0000000  1.0460000  1
    251    250    259    268     1  0.0000000  0.0000000  3
    251    250    259    260     1  0.0000000  0.6508444  3
    251    250    259    261     1  0.0000000  0.6508444  3
    252    250    259    268     1  0.0000000  1.0460000  1
    252    250    259    268     1  0.0000000  0.0000000  3
    252    250    259    260     1  0.0000000  0.6508444  3
    252    250    259    261     1  0.0000000  0.6508444  3
    253    241    240    269     1  0.0000000  0.6508444  3
    254    253    265    545     1  0.0000000  1.0460000  1
    254    253    265    545     1  0.0000000  0.0000000  3
    254    253    265    266     1  0.0000000  0.6508444  3
    254    253    265    267     1  0.0000000  0.6508444  3
    255    253    265    545     1  0.0000000  1.0460000  1
    255    253    265    545     1  0.0000000  0.0000000  3
    255    253    265    266     1  0.0000000  0.6508444  3
    255    253    265    267     1  0.0000000  0.6508444  3
    256    244    240    269     1  0.0000000  0.6508444  3
    257    256    262    522     1  0.0000000  1.0460000  1
    257    256    262    522     1  0.0000000  0.0000000  3
    257    256    262    263     1  0.0000000  0.6508444  3
    257    256    262    264     1  0.0000000  0.6508444  3
    258    256    262    522     1  0.0000000  1.0460000  1
    258    256    262    522     1  0.0000000  0.0000000  3
    258    256    262    263     1  0.0000000  0.6508444  3
    258    256    262    264     1  0.0000000  0.6508444  3
    262    522    518    521     1  0.0000000  1.6038667  3
    263    262    522    518     1  0.0000000  1.6038667  3
    264    262    522    518     1  0.0000000  1.6038667  3
    265    545    541    544     1  0.0000000  1.6038667  3
    266    265    545    541     1  0.0000000  1.6038667  3
    267    265    545    541     1  0.0000000  1.6038667  3
    270    271    283    284     1  0.0000000  0.6508444  3
    270    271    283    285     1  0.0000000  0.6508444  3
    270    274    286    287     1  0.0000000  0.6508444  3
    270    274    286    288     1  0.0000000  0.6508444  3
    270    277    280    281     1  0.0000000  0.6508444  3
    270    277    280    282     1  0.0000000  0.6508444  3
    271    270    274    275     1  0.0000000  0.6508444  3
    271    270    274    276     1  0.0000000  0.6508444  3
    271    270    277    278     1  0.0000000  0.6508444  3
    271    270    277    279     1  0.0000000  0.6508444  3
    271    283    295    296     1  0.0000000  0.6508444  3
    271    283    295    297     1  0.0000000  0.6508444  3
    272    271    270    274     1  0.0000000  0.6508444  3
    272    271    270    277     1  0.0000000  0.6508444  3
    272    271    270    299     1  0.0000000  0.6508444  3
    272    271    283    295     1  0.0000000  0.6508444  3
    272    271    283    284     1  0.0000000  0.6508444  3
    272    271    283    285     1  0.0000000  0.6508444  3
    273    271    270    274     1  0.0000000  0.6508444  3
    273    271    270    277     1  0.0000000  0.6508444  3
    273    271    270    299     1  0.0000000  0.6508444  3
    273    271    283    295     1  0.0000000  0.6508444  3
    273    271    283    284     1  0.0000000  0.6508444  3
    273    271    283    285     1  0.0000000  0.6508444  3
    274    270    277    278     1  0.0000000  0.6508444  3
    274    270    277    279     1  0.0000000  0.6508444  3
    274    286    292    293     1  0.0000000  0.6508444  3
    274    286    292    294     1  0.0000000  0.6508444  3
    275    274    270    277     1  0.0000000  0.6508444  3
    275    274    270    299     1  0.0000000  0.6508444  3
    275    274    286    292     1  0.0000000  0.6508444  3
    275    274    286    287     1  0.0000000  0.6508444  3
    275    274    286    288     1  0.0000000  0.6508444  3
    276    274    270    277     1  0.0000000  0.6508444  3
    276    274    270    299     1  0.0000000  0.6508444  3
    276    274    286    292     1  0.0000000  0.6508444  3
    276    274    286    287     1  0.0000000  0.6508444  3
    276    274    286    288     1  0.0000000  0.6508444  3
    277    280    289    290     1  0.0000000  0.6508444  3
    277    280    289    291     1  0.0000000  0.6508444  3
    278    277    270    299     1  0.0000000  0.6508444  3
    278    277    280    289     1  0.0000000  0.6508444  3
    278    277    280    281     1  0.0000000  0.6508444  3
    278    277    280    282     1  0.0000000  0.6508444  3
    279    277    270    299     1  0.0000000  0.6508444  3
    279    277    280    289     1  0.0000000  0.6508444  3
    279    277    280    281     1  0.0000000  0.6508444  3
    279    277    280    282     1  0.0000000  0.6508444  3
    280    277    270    299     1  0.0000000  0.6508444  3
    281    280    289    298     1  0.0000000  1.0460000  1
    281    280    289    298     1  0.0000000  0.0000000  3
    281    280    289    290     1  0.0000000  0.6508444  3
    281    280    289    291     1  0.0000000  0.6508444  3
    282    280    289    298     1  0.0000000  1.0460000  1
    282    280    289    298     1  0.0000000  0.0000000  3
    282    280    289    290     1  0.0000000  0.6508444  3
    282    280    289    291     1  0.0000000  0.6508444  3
    283    271    270    299     1  0.0000000  0.6508444  3
    284    283    295    591     1  0.0000000  1.0460000  1
    284    283    295    591     1  0.0000000  0.0000000  3
    284    283    295    296     1  0.0000000  0.6508444  3
    284    283    295    297     1  0.0000000  0.6508444  3
    285    283    295    591     1  0.0000000  1.0460000  1
    285    283    295    591     1  0.0000000  0.0000000  3
    285    283    295    296     1  0.0000000  0.6508444  3
    285    283    295    297     1  0.0000000  0.6508444  3
    286    274    270    299     1  0.0000000  0.6508444  3
    287    286    292    568     1  0.0000000  1.0460000  1
    287    286    292    568     1  0.0000000  0.0000000  3
    287    286    292    293     1  0.0000000  0.6508444  3
    287    286    292    294     1  0.0000000  0.6508444  3
    288    286    292    568     1  0.0000000  1.0460000  1
    288    286    292    568     1  0.0000000  0.0000000  3
    288    286    292    293     1  0.0000000  0.6508444  3
    288    286    292    294     1  0.0000000  0.6508444  3
    292    568    564    567     1  0.0000000  1.6038667  3
    293    292    568    564     1  0.0000000  1.6038667  3
    294    292    568    564     1  0.0000000  1.6038667  3
    295    591    587    590     1  0.0000000  1.6038667  3
    296    295    591    587     1  0.0000000  1.6038667  3
    297    295    591    587     1  0.0000000  1.6038667  3
    300    301    313    314     1  0.0000000  0.6508444  3
    300    301    313    315     1  0.0000000  0.6508444  3
    300    304    316    317     1  0.0000000  0.6508444  3
    300    304    316    318     1  0.0000000  0.6508444  3
    300    307    310    311     1  0.0000000  0.6508444  3
    300    307    310    312     1  0.0000000  0.6508444  3
    301    300    304    305     1  0.0000000  0.6508444  3
    301    300    304    306     1  0.0000000  0.6508444  3
    301    300    307    308     1  0.0000000  0.6508444  3
    301    300    307    309     1  0.0000000  0.6508444  3
    301    313    325    326     1  0.0000000  0.6508444  3
    301    313    325    327     1  0.0000000  0.6508444  3
    302    301    300    304     1  0.0000000  0.6508444  3
    302    301    300    307     1  0.0000000  0.6508444  3
    302    301    300    329     1  0.0000000  0.6508444  3
    302    301    313    325     1  0.0000000  0.6508444  3
    302    301    313    314     1  0.0000000  0.6508444  3
    302    301    313    315     1  0.0000000  0.6508444  3
    303    301    300    304     1  0.0000000  0.6508444  3
    303    301    300    307     1  0.0000000  0.6508444  3
    303    301    300    329     1  0.0000000  0.6508444  3
    303    301    313    325     1  0.0000000  0.6508444  3
    303    301    313    314     1  0.0000000  0.6508444  3
    303    301    313    315     1  0.0000000  0.6508444  3
    304    300    307    308     1  0.0000000  0.6508444  3
    304    300    307    309     1  0.0000000  0.6508444  3
    304    316    322    323     1  0.0000000  0.6508444  3
    304    316    322    324     1  0.0000000  0.6508444  3
    305    304    300    307     1  0.0000000  0.6508444  3
    305    304    300    329     1  0.0000000  0.6508444  3
    305    304    316    322     1  0.0000000  0.6508444  3
    305    304    316    317     1  0.0000000  0.6508444  3
    305    304    316    318     1  0.0000000  0.6508444  3
    306    304    300    307     1  0.0000000  0.6508444  3
    306    304    300    329     1  0.0000000  0.6508444  3
    306    304    316    322     1  0.0000000  0.6508444  3
    306    304    316    317     1  0.0000000  0.6508444  3
    306    304    316    318     1  0.0000000  0.6508444  3
    307    310    319    320     1  0.0000000  0.6508444  3
    307    310    319    321     1  0.0000000  0.6508444  3
    308    307    300    329     1  0.0000000  0.6508444  3
    308    307    310    319     1  0.0000000  0.6508444  3
    308    307    310    311     1  0.0000000  0.6508444  3
    308    307    310    312     1  0.0000000  0.6508444  3
    309    307    300    329     1  0.0000000  0.6508444  3
    309    307    310    319     1  0.0000000  0.6508444  3
    309    307    310    311     1  0.0000000  0.6508444  3
    309    307    310    312     1  0.0000000  0.6508444  3
    310    307    300    329     1  0.0000000  0.6508444  3
    311    310    319    328     1  0.0000000  1.0460000  1
    311    310    319    328     1  0.0000000  0.0000000  3
    311    310    319    320     1  0.0000000  0.6508444  3
    311    310    319    321     1  0.0000000  0.6508444  3
    312    310    319    328     1  0.0000000  1.0460000  1
    312    310    319    328     1  0.0000000  0.0000000  3
    312    310    319    320     1  0.0000000  0.6508444  3
    312    310    319    321     1  0.0000000  0.6508444  3
    313    301    300    329     1  0.0000000  0.6508444  3
    314    313    325    637     1  0.0000000  1.0460000  1
    314    313    325    637     1  0.0000000  0.0000000  3
    314    313    325    326     1  0.0000000  0.6508444  3
    314    313    325    327     1  0.0000000  0.6508444  3
    315    313    325    637     1  0.0000000  1.0460000  1
    315    313    325    637     1  0.0000000  0.0000000  3
    315    313    325    326     1  0.0000000  0.6508444  3
    315    313    325    327     1  0.0000000  0.6508444  3
    316    304    300    329     1  0.0000000  0.6508444  3
    317    316    322    614     1  0.0000000  1.0460000  1
    317    316    322    614     1  0.0000000  0.0000000  3
    317    316    322    323     1  0.0000000  0.6508444  3
    317    316    322    324     1  0.0000000  0.6508444  3
    318    316    322    614     1  0.0000000  1.0460000  1
    318    316    322    614     1  0.0000000  0.0000000  3
    318    316    322    323     1  0.0000000  0.6508444  3
    318    316    322    324     1  0.0000000  0.6508444  3
    322    614    610    613     1  0.0000000  1.6038667  3
    323    322    614    610     1  0.0000000  1.6038667  3
    324    322    614    610     1  0.0000000  1.6038667  3
    325    637    633    636     1  0.0000000  1.6038667  3
    326    325    637    633     1  0.0000000  1.6038667  3
    327    325    637    633     1  0.0000000  1.6038667  3
    330    331    343    344     1  0.0000000  0.6508444  3
    330    331    343    345     1  0.0000000  0.6508444  3
    330    334    346    347     1  0.0000000  0.6508444  3
    330    334    346    348     1  0.0000000  0.6508444  3
    330    337    340    341     1  0.0000000  0.6508444  3
    330    337    340    342     1  0.0000000  0.6508444  3
    331    330    334    335     1  0.0000000  0.6508444  3
    331    330    334    336     1  0.0000000  0.6508444  3
    331    330    337    338     1  0.0000000  0.6508444  3
    331    330    337    339     1  0.0000000  0.6508444  3
    331    343    355    356     1  0.0000000  0.6508444  3
    331    343    355    357     1  0.0000000  0.6508444  3
    332    331    330    334     1  0.0000000  0.6508444  3
    332    331    330    337     1  0.0000000  0.6508444  3
    332    331    330    359     1  0.0000000  0.6508444  3
    332    331    343    355     1  0.0000000  0.6508444  3
    332    331    343    344     1  0.0000000  0.6508444  3
    332    331    343    345     1  0.0000000  0.6508444  3
    333    331    330    334     1  0.0000000  0.6508444  3
    333    331    330    337     1  0.0000000  0.6508444  3
    333    331    330    359     1  0.0000000  0.6508444  3
    333    331    343    355     1  0.0000000  0.6508444  3
    333    331    343    344     1  0.0000000  0.6508444  3
    333    331    343    345     1  0.0000000  0.6508444  3
    334    330    337    338     1  0.0000000  0.6508444  3
    334    330    337    339     1  0.0000000  0.6508444  3
    334    346    352    353     1  0.0000000  0.6508444  3
    334    346    352    354     1  0.0000000  0.6508444  3
    335    334    330    337     1  0.0000000  0.6508444  3
    335    334    330    359     1  0.0000000  0.6508444  3
    335    334    346    352     1  0.0000000  0.6508444  3
    335    334    346    347     1  0.0000000  0.6508444  3
    335    334    346    348     1  0.0000000  0.6508444  3
    336    334    330    337     1  0.0000000  0.6508444  3
    336    334    330    359     1  0.0000000  0.6508444  3
    336    334    346    352     1  0.0000000  0.6508444  3
    336    334    346    347     1  0.0000000  0.6508444  3
    336    334    346    348     1  0.0000000  0.6508444  3
    337    340    349    350     1  0.0000000  0.6508444  3
    337    340    349    351     1  0.0000000  0.6508444  3
    338    337    330    359     1  0.0000000  0.6508444  3
    338    337    340    349     1  0.0000000  0.6508444  3
    338    337    340    341     1  0.0000000  0.6508444  3
    338    337    340    342     1  0.0000000  0.6508444  3
    339    337    330    359     1  0.0000000  0.6508444  3
    339    337    340    349     1  0.0000000  0.6508444  3
    339    337    340    341     1  0.0000000  0.6508444  3
    339    337    340    342     1  0.0000000  0.6508444  3
    340    337    330    359     1  0.0000000  0.6508444  3
    341    340    349    358     1  0.0000000  1.0460000  1
    341    340    349    358     1  0.0000000  0.0000000  3
    341    340    349    350     1  0.0000000  0.6508444  3
    341    340    349    351     1  0.0000000  0.6508444  3
    342    340    349    358     1  0.0000000  1.0460000  1
    342    340    349    358     1  0.0000000  0.0000000  3
    342    340    349    350     1  0.0000000  0.6508444  3
    342    340    349    351     1  0.0000000  0.6508444  3
    343    331    330    359     1  0.0000000  0.6508444  3
    344    343    355    683     1  0.0000000  1.0460000  1
    344    343    355    683     1  0.0000000  0.0000000  3
    344    343    355    356     1  0.0000000  0.6508444  3
    344    343    355    357     1  0.0000000  0.6508444  3
    345    343    355    683     1  0.0000000  1.0460000  1
    345    343    355    683     1  0.0000000  0.0000000  3
    345    343    355    356     1  0.0000000  0.6508444  3
    345    343    355    357     1  0.0000000  0.6508444  3
    346    334    330    359     1  0.0000000  0.6508444  3
    347    346    352    660     1  0.0000000  1.0460000  1
    347    346    352    660     1  0.0000000  0.0000000  3
    347    346    352    353     1  0.0000000  0.6508444  3
    347    346    352    354     1  0.0000000  0.6508444  3
    348    346    352    660     1  0.0000000  1.0460000  1
    348    346    352    660     1  0.0000000  0.0000000  3
    348    346    352    353     1  0.0000000  0.6508444  3
    348    346    352    354     1  0.0000000  0.6508444  3
    352    660    656    659     1  0.0000000  1.6038667  3
    353    352    660    656     1  0.0000000  1.6038667  3
    354    352    660    656     1  0.0000000  1.6038667  3
    355    683    679    682     1  0.0000000  1.6038667  3
    356    355    683    679     1  0.0000000  1.6038667  3
    357    355    683    679     1  0.0000000  1.6038667  3
    360    361    373    374     1  0.0000000  0.6508444  3
    360    361    373    375     1  0.0000000  0.6508444  3
    360    364    376    377     1  0.0000000  0.6508444  3
    360    364    376    378     1  0.0000000  0.6508444  3
    360    367    370    371     1  0.0000000  0.6508444  3
    360    367    370    372     1  0.0000000  0.6508444  3
    361    360    364    365     1  0.0000000  0.6508444  3
    361    360    364    366     1  0.0000000  0.6508444  3
    361    360    367    368     1  0.0000000  0.6508444  3
    361    360    367    369     1  0.0000000  0.6508444  3
    361    373    385    386     1  0.0000000  0.6508444  3
    361    373    385    387     1  0.0000000  0.6508444  3
    362    361    360    364     1  0.0000000  0.6508444  3
    362    361    360    367     1  0.0000000  0.6508444  3
    362    361    360    389     1  0.0000000  0.6508444  3
    362    361    373    385     1  0.0000000  0.6508444  3
    362    361    373    374     1  0.0000000  0.6508444  3
    362    361    373    375     1  0.0000000  0.6508444  3
    363    361    360    364     1  0.0000000  0.6508444  3
    363    361    360    367     1  0.0000000  0.6508444  3
    363    361    360    389     1  0.0000000  0.6508444  3
    363    361    373    385     1  0.0000000  0.6508444  3
    363    361    373    374     1  0.0000000  0.6508444  3
    363    361    373    375     1  0.0000000  0.6508444  3
    364    360    367    368     1  0.0000000  0.6508444  3
    364    360    367    369     1  0.0000000  0.6508444  3
    364    376    382    383     1  0.0000000  0.6508444  3
    364    376    382    384     1  0.0000000  0.6508444  3
    365    364    360    367     1  0.0000000  0.6508444  3
    365    364    360    389     1  0.0000000  0.6508444  3
    365    364    376    382     1  0.0000000  0.6508444  3
    365    364    376    377     1  0.0000000  0.6508444  3
    365    364    376    378     1  0.0000000  0.6508444  3
    366    364    360    367     1  0.0000000  0.6508444  3
    366    364    360    389     1  0.0000000  0.6508444  3
    366    364    376    382     1  0.0000000  0.6508444  3
    366    364    376    377     1  0.0000000  0.6508444  3
    366    364    376    378     1  0.0000000  0.6508444  3
    367    370    379    380     1  0.0000000  0.6508444  3
    367    370    379    381     1  0.0000000  0.6508444  3
    368    367    360    389     1  0.0000000  0.6508444  3
    368    367    370    379     1  0.0000000  0.6508444  3
    368    367    370    371     1  0.0000000  0.6508444  3
    368    367    370    372     1  0.0000000  0.6508444  3
    369    367    360    389     1  0.0000000  0.6508444  3
    369    367    370    379     1  0.0000000  0.6508444  3
    369    367    370    371     1  0.0000000  0.6508444  3
    369    367    370    372     1  0.0000000  0.6508444  3
    370    367    360    389     1  0.0000000  0.6508444  3
    371    370    379    388     1  0.0000000  1.0460000  1
    371    370    379    388     1  0.0000000  0.0000000  3
    371    370    379    380     1  0.0000000  0.6508444  3
    371    370    379    381     1  0.0000000  0.6508444  3
    372    370    379    388     1  0.0000000  1.0460000  1
    372    370    379    388     1  0.0000000  0.0000000  3
    372    370    379    380     1  0.0000000  0.6508444  3
    372    370    379    381     1  0.0000000  0.6508444  3
    373    361    360    389     1  0.0000000  0.6508444  3
    374    373    385    729     1  0.0000000  1.0460000  1
    374    373    385    729     1  0.0000000  0.0000000  3
    374    373    385    386     1  0.0000000  0.6508444  3
    374    373    385    387     1  0.0000000  0.6508444  3
    375    373    385    729     1  0.0000000  1.0460000  1
    375    373    385    729     1  0.0000000  0.0000000  3
    375    373    385    386     1  0.0000000  0.6508444  3
    375    373    385    387     1  0.0000000  0.6508444  3
    376    364    360    389     1  0.0000000  0.6508444  3
    377    376    382    706     1  0.0000000  1.0460000  1
    377    376    382    706     1  0.0000000  0.0000000  3
    377    376    382    383     1  0.0000000  0.6508444  3
    377    376    382    384     1  0.0000000  0.6508444  3
    378    376    382    706     1  0.0000000  1.0460000  1
    378    376    382    706     1  0.0000000  0.0000000  3
    378    376    382    383     1  0.0000000  0.6508444  3
    378    376    382    384     1  0.0000000  0.6508444  3
    382    706    702    705     1  0.0000000  1.6038667  3
    383    382    706    702     1  0.0000000  1.6038667  3
    384    382    706    702     1  0.0000000  1.6038667  3
    385    729    725    728     1  0.0000000  1.6038667  3
    386    385    729    725     1  0.0000000  1.6038667  3
    387    385    729    725     1  0.0000000  1.6038667  3
    390    391    403    404     1  0.0000000  0.6508444  3
    390    391    403    405     1  0.0000000  0.6508444  3
    390    394    406    407     1  0.0000000  0.6508444  3
    390    394    406    408     1  0.0000000  0.6508444  3
    390    397    400    401     1  0.0000000  0.6508444  3
    390    397    400    402     1  0.0000000  0.6508444  3
    391    390    394    395     1  0.0000000  0.6508444  3
    391    390    394    396     1  0.0000000  0.6508444  3
    391    390    397    398     1  0.0000000  0.6508444  3
    391    390    397    399     1  0.0000000  0.6508444  3
    391    403    415    416     1  0.0000000  0.6508444  3
    391    403    415    417     1  0.0000000  0.6508444  3
    392    391    390    394     1  0.0000000  0.6508444  3
    392    391    390    397     1  0.0000000  0.6508444  3
    392    391    390    419     1  0.0000000  0.6508444  3
    392    391    403    415     1  0.0000000  0.6508444  3
    392    391    403    404     1  0.0000000  0.6508444  3
    392    391    403    405     1  0.0000000  0.6508444  3
    393    391    390    394     1  0.0000000  0.6508444  3
    393    391    390    397     1  0.0000000  0.6508444  3
    393    391    390    419     1  0.0000000  0.6508444  3
    393    391    403    415     1  0.0000000  0.6508444  3
    393    391    403    404     1  0.0000000  0.6508444  3
    393    391    403    405     1  0.0000000  0.6508444  3
    394    390    397    398     1  0.0000000  0.6508444  3
    394    390    397    399     1  0.0000000  0.6508444  3
    394    406    412    413     1  0.0000000  0.6508444  3
    394    406    412    414     1  0.0000000  0.6508444  3
    395    394    390    397     1  0.0000000  0.6508444  3
    395    394    390    419     1  0.0000000  0.6508444  3
    395    394    406    412     1  0.0000000  0.6508444  3
    395    394    406    407     1  0.0000000  0.6508444  3
    395    394    406    408     1  0.0000000  0.6508444  3
    396    394    390    397     1  0.0000000  0.6508444  3
    396    394    390    419     1  0.0000000  0.6508444  3
    396    394    406    412     1  0.0000000  0.6508444  3
    396    394    406    407     1  0.0000000  0.6508444  3
    396    394    406    408     1  0.0000000  0.6508444  3
    397    400    409    410     1  0.0000000  0.6508444  3
    397    400    409    411     1  0.0000000  0.6508444  3
    398    397    390    419     1  0.0000000  0.6508444  3
    398    397    400    409     1  0.0000000  0.6508444  3
    398    397    400    401     1  0.0000000  0.6508444  3
    398    397    400    402     1  0.0000000  0.6508444  3
    399    397    390    419     1  0.0000000  0.6508444  3
    399    397    400    409     1  0.0000000  0.6508444  3
    399    397    400    401     1  0.0000000  0.6508444  3
    399    397    400    402     1  0.0000000  0.6508444  3
    400    397    390    419     1  0.0000000  0.6508444  3
    401    400    409    418     1  0.0000000  1.0460000  1
    401    400    409    418     1  0.0000000  0.0000000  3
    401    400    409    410     1  0.0000000  0.6508444  3
    401    400    409    411     1  0.0000000  0.6508444  3
    402    400    409    418     1  0.0000000  1.0460000  1
    402    400    409    418     1  0.0000000  0.0000000  3
    402    400    409    410     1  0.0000000  0.6508444  3
    402    400    409    411     1  0.0000000  0.6508444  3
    403    391    390    419     1  0.0000000  0.6508444  3
    404    403    415    775     1  0.0000000  1.0460000  1
    404    403    415    775     1  0.0000000  0.0000000  3
    404    403    415    416     1  0.0000000  0.6508444  3
    404    403    415    417     1  0.0000000  0.6508444  3
    405    403    415    775     1  0.0000000  1.0460000  1
    405    403    415    775     1  0.0000000  0.0000000  3
    405    403    415    416     1  0.0000000  0.6508444  3
    405    403    415    417     1  0.0000000  0.6508444  3
    406    394    390    419     1  0.0000000  0.6508444  3
    407    406    412    752     1  0.0000000  1.0460000  1
    407    406    412    752     1  0.0000000  0.0000000  3
    407    406    412    413     1  0.0000000  0.6508444  3
    407    406    412    414     1  0.0000000  0.6508444  3
    408    406    412    752     1  0.0000000  1.0460000  1
    408    406    412    752     1  0.0000000  0.0000000  3
    408    406    412    413     1  0.0000000  0.6508444  3
    408    406    412    414     1  0.0000000  0.6508444  3
    412    752    748    751     1  0.0000000  1.6038667  3
    413    412    752    748     1  0.0000000  1.6038667  3
    414    412    752    748     1  0.0000000  1.6038667  3
    415    775    771    774     1  0.0000000  1.6038667  3
    416    415    775    771     1  0.0000000  1.6038667  3
    417    415    775    771     1  0.0000000  1.6038667  3
    420    421    424    428     1  0.0000000  0.6508444  3
    420    421    433    436     1  0.0000000  1.0460000  1
    420    421    433    436     1  0.0000000  0.6694400  3
    420    434    440    441     1  0.0000000  1.0460000  1
    420    434    440    441     1  0.0000000  0.6694400  3
    420    442    426    429     1  0.0000000  1.6038667  3
    421    420    434    438     1  0.0000000  0.6508444  3
    421    420    434    439     1  0.0000000  0.6508444  3
    421    424    425    427     1  0.0000000  0.6508444  3
    421    424    432    435     1  0.0000000  1.0460000  1
    421    424    432    435     1  0.0000000  0.6694400  3
    422    420    421    424     1  0.0000000  0.6508444  3
    422    420    421    433     1  0.0000000  1.0460000  1
    422    420    421    433     1  0.0000000  0.0000000  3
    422    420    421    423     1  0.0000000  0.6508444  3
    422    420    434    440     1  0.0000000  1.0460000  1
    422    420    434    440     1  0.0000000  0.0000000  3
    422    420    434    438     1  0.0000000  0.6508444  3
    422    420    434    439     1  0.0000000  0.6508444  3
    422    420    442    426     1  0.0000000  1.6038667  3
    423    421    420    434     1  0.0000000  0.6508444  3
    423    421    420    442     1  0.0000000  1.0460000  1
    423    421    420    442     1  0.0000000  0.0000000  3
    423    421    424    425     1  0.0000000  0.6508444  3
    423    421    424    432     1  0.0000000  1.0460000  1
    423    421    424    432     1  0.0000000  0.0000000  3
    423    421    424    428     1  0.0000000  0.6508444  3
    423    421    433    436     1  0.0000000  0.6973333  3
    424    421    433    436     1  0.0000000  1.0460000  1
    424    421    433    436     1  0.0000000  0.6694400  3
    424    425    426    429     1  0.0000000  0.6508444  3
    424    425    431    437     1  0.0000000  1.0460000  1
    424    425    431    437     1  0.0000000  0.6694400  3
    425    424    432    435     1  0.0000000  1.0460000  1
    425    424    432    435     1  0.0000000  0.6694400  3
    426    425    424    428     1  0.0000000  0.6508444  3
    426    425    431    437     1  0.0000000  1.0460000  1
    426    425    431    437     1  0.0000000  0.6694400  3
    427    425    424    432     1  0.0000000  1.0460000  1
    427    425    424    432     1  0.0000000  0.0000000  3
    427    425    424    428     1  0.0000000  0.6508444  3
    427    425    426    430     1  0.0000000  1.0460000  1
    427    425    426    430     1  0.0000000  0.0000000  3
    427    425    426    442     1  0.0000000  1.0460000  1
    427    425    426    442     1  0.0000000  0.0000000  3
    427    425    426    429     1  0.0000000  0.6508444  3
    427    425    431    437     1  0.0000000  0.6973333  3
    428    424    421    433     1  0.0000000  1.0460000  1
    428    424    421    433     1  0.0000000  0.0000000  3
    428    424    425    431     1  0.0000000  1.0460000  1
    428    424    425    431     1  0.0000000  0.0000000  3
    428    424    432    435     1  0.0000000  0.6973333  3
    429    426    425    431     1  0.0000000  0.6508444  3
    438    434    420    442     1  0.0000000  1.0460000  1
    438    434    420    442     1  0.0000000  0.0000000  3
    438    434    440    441     1  0.0000000  0.6973333  3
    439    434    420    442     1  0.0000000  1.0460000  1
    439    434    420    442     1  0.0000000  0.0000000  3
    439    434    440    441     1  0.0000000  0.6973333  3
    443    444    447    451     1  0.0000000  0.6508444  3
    443    444    456    459     1  0.0000000  1.0460000  1
    443    444    456    459     1  0.0000000  0.6694400  3
    443    457    463    464     1  0.0000000  1.0460000  1
    443    457    463    464     1  0.0000000  0.6694400  3
    443    465    449    452     1  0.0000000  1.6038667  3
    444    447    448    450     1  0.0000000  0.6508444  3
    444    447    455    458     1  0.0000000  1.0460000  1
    444    447    455    458     1  0.0000000  0.6694400  3
    444    443    457    461     1  0.0000000  0.6508444  3
    444    443    457    462     1  0.0000000  0.6508444  3
    445    443    444    447     1  0.0000000  0.6508444  3
    445    443    444    456     1  0.0000000  1.0460000  1
    445    443    444    456     1  0.0000000  0.0000000  3
    445    443    444    446     1  0.0000000  0.6508444  3
    445    443    457    463     1  0.0000000  1.0460000  1
    445    443    457    463     1  0.0000000  0.0000000  3
    445    443    457    461     1  0.0000000  0.6508444  3
    445    443    457    462     1  0.0000000  0.6508444  3
    445    443    465    449     1  0.0000000  1.6038667  3
    446    444    447    448     1  0.0000000  0.6508444  3
    446    444    447    455     1  0.0000000  1.0460000  1
    446    444    447    455     1  0.0000000  0.0000000  3
    446    444    447    451     1  0.0000000  0.6508444  3
    446    444    456    459     1  0.0000000  0.6973333  3
    446    444    443    457     1  0.0000000  0.6508444  3
    446    444    443    465     1  0.0000000  1.0460000  1
    446    444    443    465     1  0.0000000  0.0000000  3
    447    448    449    452     1  0.0000000  0.6508444  3
    447    448    454    460     1  0.0000000  1.0460000  1
    447    448    454    460     1  0.0000000  0.6694400  3
    447    444    456    459     1  0.0000000  1.0460000  1
    447    444    456    459     1  0.0000000  0.6694400  3
    448    447    455    458     1  0.0000000  1.0460000  1
    448    447    455    458     1  0.0000000  0.6694400  3
    449    448    454    460     1  0.0000000  1.0460000  1
    449    448    454    460     1  0.0000000  0.6694400  3
    449    448    447    451     1  0.0000000  0.6508444  3
    450    448    449    453     1  0.0000000  1.0460000  1
    450    448    449    453     1  0.0000000  0.0000000  3
    450    448    449    465     1  0.0000000  1.0460000  1
    450    448    449    465     1  0.0000000  0.0000000  3
    450    448    449    452     1  0.0000000  0.6508444  3
    450    448    454    460     1  0.0000000  0.6973333  3
    450    448    447    455     1  0.0000000  1.0460000  1
    450    448    447    455     1  0.0000000  0.0000000  3
    450    448    447    451     1  0.0000000  0.6508444  3
    451    447    448    454     1  0.0000000  1.0460000  1
    451    447    448    454     1  0.0000000  0.0000000  3
    451    447    455    458     1  0.0000000  0.6973333  3
    451    447    444    456     1  0.0000000  1.0460000  1
    451    447    444    456     1  0.0000000  0.0000000  3
    452    449    448    454     1  0.0000000  0.6508444  3
    461    457    463    464     1  0.0000000  0.6973333  3
    461    457    443    465     1  0.0000000  1.0460000  1
    461    457    443    465     1  0.0000000  0.0000000  3
    462    457    463    464     1  0.0000000  0.6973333  3
    462    457    443    465     1  0.0000000  1.0460000  1
    462    457    443    465     1  0.0000000  0.0000000  3
    466    467    470    474     1  0.0000000  0.6508444  3
    466    467    479    482     1  0.0000000  1.0460000  1
    466    467    479    482     1  0.0000000  0.6694400  3
    466    480    486    487     1  0.0000000  1.0460000  1
    466    480    486    487     1  0.0000000  0.6694400  3
    466    488    472    475     1  0.0000000  1.6038667  3
    467    466    480    484     1  0.0000000  0.6508444  3
    467    466    480    485     1  0.0000000  0.6508444  3
    467    470    471    473     1  0.0000000  0.6508444  3
    467    470    478    481     1  0.0000000  1.0460000  1
    467    470    478    481     1  0.0000000  0.6694400  3
    468    466    467    470     1  0.0000000  0.6508444  3
    468    466    467    479     1  0.0000000  1.0460000  1
    468    466    467    479     1  0.0000000  0.0000000  3
    468    466    467    469     1  0.0000000  0.6508444  3
    468    466    480    486     1  0.0000000  1.0460000  1
    468    466    480    486     1  0.0000000  0.0000000  3
    468    466    480    484     1  0.0000000  0.6508444  3
    468    466    480    485     1  0.0000000  0.6508444  3
    468    466    488    472     1  0.0000000  1.6038667  3
    469    467    466    480     1  0.0000000  0.6508444  3
    469    467    466    488     1  0.0000000  1.0460000  1
    469    467    466    488     1  0.0000000  0.0000000  3
    469    467    470    471     1  0.0000000  0.6508444  3
    469    467    470    478     1  0.0000000  1.0460000  1
    469    467    470    478     1  0.0000000  0.0000000  3
    469    467    470    474     1  0.0000000  0.6508444  3
    469    467    479    482     1  0.0000000  0.6973333  3
    470    467    479    482     1  0.0000000  1.0460000  1
    470    467    479    482     1  0.0000000  0.6694400  3
    470    471    472    475     1  0.0000000  0.6508444  3
    470    471    477    483     1  0.0000000  1.0460000  1
    470    471    477    483     1  0.0000000  0.6694400  3
    471    470    478    481     1  0.0000000  1.0460000  1
    471    470    478    481     1  0.0000000  0.6694400  3
    472    471    470    474     1  0.0000000  0.6508444  3
    472    471    477    483     1  0.0000000  1.0460000  1
    472    471    477    483     1  0.0000000  0.6694400  3
    473    471    470    478     1  0.0000000  1.0460000  1
    473    471    470    478     1  0.0000000  0.0000000  3
    473    471    470    474     1  0.0000000  0.6508444  3
    473    471    472    476     1  0.0000000  1.0460000  1
    473    471    472    476     1  0.0000000  0.0000000  3
    473    471    472    488     1  0.0000000  1.0460000  1
    473    471    472    488     1  0.0000000  0.0000000  3
    473    471    472    475     1  0.0000000  0.6508444  3
    473    471    477    483     1  0.0000000  0.6973333  3
    474    470    467    479     1  0.0000000  1.0460000  1
    474    470    467    479     1  0.0000000  0.0000000  3
    474    470    471    477     1  0.0000000  1.0460000  1
    474    470    471    477     1  0.0000000  0.0000000  3
    474    470    478    481     1  0.0000000  0.6973333  3
    475    472    471    477     1  0.0000000  0.6508444  3
    484    480    466    488     1  0.0000000  1.0460000  1
    484    480    466    488     1  0.0000000  0.0000000  3
    484    480    486    487     1  0.0000000  0.6973333  3
    485    480    466    488     1  0.0000000  1.0460000  1
    485    480    466    488     1  0.0000000  0.0000000  3
    485    480    486    487     1  0.0000000  0.6973333  3
    489    490    493    497     1  0.0000000  0.6508444  3
    489    490    502    505     1  0.0000000  1.0460000  1
    489    490    502    505     1  0.0000000  0.6694400  3
    489    503    509    510     1  0.0000000  1.0460000  1
    489    503    509    510     1  0.0000000  0.6694400  3
    489    511    495    498     1  0.0000000  1.6038667  3
    490    493    494    496     1  0.0000000  0.6508444  3
    490    493    501    504     1  0.0000000  1.0460000  1
    490    493    501    504     1  0.0000000  0.6694400  3
    490    489    503    507     1  0.0000000  0.6508444  3
    490    489    503    508     1  0.0000000  0.6508444  3
    491    489    490    493     1  0.0000000  0.6508444  3
    491    489    490    502     1  0.0000000  1.0460000  1
    491    489    490    502     1  0.0000000  0.0000000  3
    491    489    490    492     1  0.0000000  0.6508444  3
    491    489    503    509     1  0.0000000  1.0460000  1
    491    489    503    509     1  0.0000000  0.0000000  3
    491    489    503    507     1  0.0000000  0.6508444  3
    491    489    503    508     1  0.0000000  0.6508444  3
    491    489    511    495     1  0.0000000  1.6038667  3
    492    490    493    494     1  0.0000000  0.6508444  3
    492    490    493    501     1  0.0000000  1.0460000  1
    492    490    493    501     1  0.0000000  0.0000000  3
    492    490    493    497     1  0.0000000  0.6508444  3
    492    490    502    505     1  0.0000000  0.6973333  3
    492    490    489    503     1  0.0000000  0.6508444  3
    492    490    489    511     1  0.0000000  1.0460000  1
    492    490    489    511     1  0.0000000  0.0000000  3
    493    494    495    498     1  0.0000000  0.6508444  3
    493    494    500    506     1  0.0000000  1.0460000  1
    493    494    500    506     1  0.0000000  0.6694400  3
    493    490    502    505     1  0.0000000  1.0460000  1
    493    490    502    505     1  0.0000000  0.6694400  3
    494    493    501    504     1  0.0000000  1.0460000  1
    494    493    501    504     1  0.0000000  0.6694400  3
    495    494    500    506     1  0.0000000  1.0460000  1
    495    494    500    506     1  0.0000000  0.6694400  3
    495    494    493    497     1  0.0000000  0.6508444  3
    496    494    495    499     1  0.0000000  1.0460000  1
    496    494    495    499     1  0.0000000  0.0000000  3
    496    494    495    511     1  0.0000000  1.0460000  1
    496    494    495    511     1  0.0000000  0.0000000  3
    496    494    495    498     1  0.0000000  0.6508444  3
    496    494    500    506     1  0.0000000  0.6973333  3
    496    494    493    501     1  0.0000000  1.0460000  1
    496    494    493    501     1  0.0000000  0.0000000  3
    496    494    493    497     1  0.0000000  0.6508444  3
    497    493    494    500     1  0.0000000  1.0460000  1
    497    493    494    500     1  0.0000000  0.0000000  3
    497    493    501    504     1  0.0000000  0.6973333  3
    497    493    490    502     1  0.0000000  1.0460000  1
    497    493    490    502     1  0.0000000  0.0000000  3
    498    495    494    500     1  0.0000000  0.6508444  3
    507    503    509    510     1  0.0000000  0.6973333  3
    507    503    489    511     1  0.0000000  1.0460000  1
    507    503    489    511     1  0.0000000  0.0000000  3
    508    503    509    510     1  0.0000000  0.6973333  3
    508    503    489    511     1  0.0000000  1.0460000  1
    508    503    489    511     1  0.0000000  0.0000000  3
    512    513    516    520     1  0.0000000  0.6508444  3
    512    513    525    528     1  0.0000000  1.0460000  1
    512    513    525    528     1  0.0000000  0.6694400  3
    512    526    532    533     1  0.0000000  1.0460000  1
    512    526    532    533     1  0.0000000  0.6694400  3
    512    534    518    521     1  0.0000000  1.6038667  3
    513    512    526    530     1  0.0000000  0.6508444  3
    513    512    526    531     1  0.0000000  0.6508444  3
    513    516    517    519     1  0.0000000  0.6508444  3
    513    516    524    527     1  0.0000000  1.0460000  1
    513    516    524    527     1  0.0000000  0.6694400  3
    514    512    513    516     1  0.0000000  0.6508444  3
    514    512    513    525     1  0.0000000  1.0460000  1
    514    512    513    525     1  0.0000000  0.0000000  3
    514    512    513    515     1  0.0000000  0.6508444  3
    514    512    526    532     1  0.0000000  1.0460000  1
    514    512    526    532     1  0.0000000  0.0000000  3
    514    512    526    530     1  0.0000000  0.6508444  3
    514    512    526    531     1  0.0000000  0.6508444  3
    514    512    534    518     1  0.0000000  1.6038667  3
    515    513    512    526     1  0.0000000  0.6508444  3
    515    513    512    534     1  0.0000000  1.0460000  1
    515    513    512    534     1  0.0000000  0.0000000  3
    515    513    516    517     1  0.0000000  0.6508444  3
    515    513    516    524     1  0.0000000  1.0460000  1
    515    513    516    524     1  0.0000000  0.0000000  3
    515    513    516    520     1  0.0000000  0.6508444  3
    515    513    525    528     1  0.0000000  0.6973333  3
    516    513    525    528     1  0.0000000  1.0460000  1
    516    513    525    528     1  0.0000000  0.6694400  3
    516    517    518    521     1  0.0000000  0.6508444  3
    516    517    523    529     1  0.0000000  1.0460000  1
    516    517    523    529     1  0.0000000  0.6694400  3
    517    516    524    527     1  0.0000000  1.0460000  1
    517    516    524    527     1  0.0000000  0.6694400  3
    518    517    516    520     1  0.0000000  0.6508444  3
    518    517    523    529     1  0.0000000  1.0460000  1
    518    517    523    529     1  0.0000000  0.6694400  3
    519    517    516    524     1  0.0000000  1.0460000  1
    519    517    516    524     1  0.0000000  0.0000000  3
    519    517    516    520     1  0.0000000  0.6508444  3
    519    517    518    522     1  0.0000000  1.0460000  1
    519    517    518    522     1  0.0000000  0.0000000  3
    519    517    518    534     1  0.0000000  1.0460000  1
    519    517    518    534     1  0.0000000  0.0000000  3
    519    517    518    521     1  0.0000000  0.6508444  3
    519    517    523    529     1  0.0000000  0.6973333  3
    520    516    513    525     1  0.0000000  1.0460000  1
    520    516    513    525     1  0.0000000  0.0000000  3
    520    516    517    523     1  0.0000000  1.0460000  1
    520    516    517    523     1  0.0000000  0.0000000  3
    520    516    524    527     1  0.0000000  0.6973333  3
    521    518    517    523     1  0.0000000  0.6508444  3
    530    526    512    534     1  0.0000000  1.0460000  1
    530    526    512    534     1  0.0000000  0.0000000  3
    530    526    532    533     1  0.0000000  0.6973333  3
    531    526    512    534     1  0.0000000  1.0460000  1
    531    526    512    534     1  0.0000000  0.0000000  3
    531    526    532    533     1  0.0000000  0.6973333  3
    535    536    539    543     1  0.0000000  0.6508444  3
    535    536    548    551     1  0.0000000  1.0460000  1
    535    536    548    551     1  0.0000000  0.6694400  3
    535    549    555    556     1  0.0000000  1.0460000  1
    535    549    555    556     1  0.0000000  0.6694400  3
    535    557    541    544     1  0.0000000  1.6038667  3
    536    539    540    542     1  0.0000000  0.6508444  3
    536    539    547    550     1  0.0000000  1.0460000  1
    536    539    547    550     1  0.0000000  0.6694400  3
    536    535    549    553     1  0.0000000  0.6508444  3
    536    535    549    554     1  0.0000000  0.6508444  3
    537    535    536    539     1  0.0000000  0.6508444  3
    537    535    536    548     1  0.0000000  1.0460000  1
    537    535    536    548     1  0.0000000  0.0000000  3
    537    535    536    538     1  0.0000000  0.6508444  3
    537    535    549    555     1  0.0000000  1.0460000  1
    537    535    549    555     1  0.0000000  0.0000000  3
    537    535    549    553     1  0.0000000  0.6508444  3
    537    535    549    554     1  0.0000000  0.6508444  3
    537    535    557    541     1  0.0000000  1.6038667  3
    538    536    539    540     1  0.0000000  0.6508444  3
    538    536    539    547     1  0.0000000  1.0460000  1
    538    536    539    547     1  0.0000000  0.0000000  3
    538    536    539    543     1  0.0000000  0.6508444  3
    538    536    548    551     1  0.0000000  0.6973333  3
    538    536    535    549     1  0.0000000  0.6508444  3
    538    536    535    557     1  0.0000000  1.0460000  1
    538    536    535    557     1  0.0000000  0.0000000  3
    539    540    541    544     1  0.0000000  0.6508444  3
    539    540    546    552     1  0.0000000  1.0460000  1
    539    540    546    552     1  0.0000000  0.6694400  3
    539    536    548    551     1  0.0000000  1.0460000  1
    539    536    548    551     1  0.0000000  0.6694400  3
    540    539    547    550     1  0.0000000  1.0460000  1
    540    539    547    550     1  0.0000000  0.6694400  3
    541    540    546    552     1  0.0000000  1.0460000  1
    541    540    546    552     1  0.0000000  0.6694400  3
    541    540    539    543     1  0.0000000  0.6508444  3
    542    540    541    545     1  0.0000000  1.0460000  1
    542    540    541    545     1  0.0000000  0.0000000  3
    542    540    541    557     1  0.0000000  1.0460000  1
    542    540    541    557     1  0.0000000  0.0000000  3
    542    540    541    544     1  0.0000000  0.6508444  3
    542    540    546    552     1  0.0000000  0.6973333  3
    542    540    539    547     1  0.0000000  1.0460000  1
    542    540    539    547     1  0.0000000  0.0000000  3
    542    540    539    543     1  0.0000000  0.6508444  3
    543    539    540    546     1  0.0000000  1.0460000  1
    543    539    540    546     1  0.0000000  0.0000000  3
    543    539    547    550     1  0.0000000  0.6973333  3
    543    539    536    548     1  0.0000000  1.0460000  1
    543    539    536    548     1  0.0000000  0.0000000  3
    544    541    540    546     1  0.0000000  0.6508444  3
    553    549    555    556     1  0.0000000  0.6973333  3
    553    549    535    557     1  0.0000000  1.0460000  1
    553    549    535    557     1  0.0000000  0.0000000  3
    554    549    555    556     1  0.0000000  0.6973333  3
    554    549    535    557     1  0.0000000  1.0460000  1
    554    549    535    557     1  0.0000000  0.0000000  3
    558    559    562    566     1  0.0000000  0.6508444  3
    558    559    571    574     1  0.0000000  1.0460000  1
    558    559    571    574     1  0.0000000  0.6694400  3
    558    572    578    579     1  0.0000000  1.0460000  1
    558    572    578    579     1  0.0000000  0.6694400  3
    558    580    564    567     1  0.0000000  1.6038667  3
    559    558    572    576     1  0.0000000  0.6508444  3
    559    558    572    577     1  0.0000000  0.6508444  3
    559    562    563    565     1  0.0000000  0.6508444  3
    559    562    570    573     1  0.0000000  1.0460000  1
    559    562    570    573     1  0.0000000  0.6694400  3
    560    558    559    562     1  0.0000000  0.6508444  3
    560    558    559    571     1  0.0000000  1.0460000  1
    560    558    559    571     1  0.0000000  0.0000000  3
    560    558    559    561     1  0.0000000  0.6508444  3
    560    558    572    578     1  0.0000000  1.0460000  1
    560    558    572    578     1  0.0000000  0.0000000  3
    560    558    572    576     1  0.0000000  0.6508444  3
    560    558    572    577     1  0.0000000  0.6508444  3
    560    558    580    564     1  0.0000000  1.6038667  3
    561    559    558    572     1  0.0000000  0.6508444  3
    561    559    558    580     1  0.0000000  1.0460000  1
    561    559    558    580     1  0.0000000  0.0000000  3
    561    559    562    563     1  0.0000000  0.6508444  3
    561    559    562    570     1  0.0000000  1.0460000  1
    561    559    562    570     1  0.0000000  0.0000000  3
    561    559    562    566     1  0.0000000  0.6508444  3
    561    559    571    574     1  0.0000000  0.6973333  3
    562    559    571    574     1  0.0000000  1.0460000  1
    562    559    571    574     1  0.0000000  0.6694400  3
    562    563    564    567     1  0.0000000  0.6508444  3
    562    563    569    575     1  0.0000000  1.0460000  1
    562    563    569    575     1  0.0000000  0.6694400  3
    563    562    570    573     1  0.0000000  1.0460000  1
    563    562    570    573     1  0.0000000  0.6694400  3
    564    563    562    566     1  0.0000000  0.6508444  3
    564    563    569    575     1  0.0000000  1.0460000  1
    564    563    569    575     1  0.0000000  0.6694400  3
    565    563    562    570     1  0.0000000  1.0460000  1
    565    563    562    570     1  0.0000000  0.0000000  3
    565    563    562    566     1  0.0000000  0.6508444  3
    565    563    564    568     1  0.0000000  1.0460000  1
    565    563    564    568     1  0.0000000  0.0000000  3
    565    563    564    580     1  0.0000000  1.0460000  1
    565    563    564    580     1  0.0000000  0.0000000  3
    565    563    564    567     1  0.0000000  0.6508444  3
    565    563    569    575     1  0.0000000  0.6973333  3
    566    562    559    571     1  0.0000000  1.0460000  1
    566    562    559    571     1  0.0000000  0.0000000  3
    566    562    563    569     1  0.0000000  1.0460000  1
    566    562    563    569     1  0.0000000  0.0000000  3
    566    562    570    573     1  0.0000000  0.6973333  3
    567    564    563    569     1  0.0000000  0.6508444  3
    576    572    558    580     1  0.0000000  1.0460000  1
    576    572    558    580     1  0.0000000  0.0000000  3
    576    572    578    579     1  0.0000000  0.6973333  3
    577    572    558    580     1  0.0000000  1.0460000  1
    577    572    558    580     1  0.0000000  0.0000000  3
    577    572    578    579     1  0.0000000  0.6973333  3
    581    582    585    589     1  0.0000000  0.6508444  3
    581    582    594    597     1  0.0000000  1.0460000  1
    581    582    594    597     1  0.0000000  0.6694400  3
    581    595    601    602     1  0.0000000  1.0460000  1
    581    595    601    602     1  0.0000000  0.6694400  3
    581    603    587    590     1  0.0000000  1.6038667  3
    582    585    586    588     1  0.0000000  0.6508444  3
    582    585    593    596     1  0.0000000  1.0460000  1
    582    585    593    596     1  0.0000000  0.6694400  3
    582    581    595    599     1  0.0000000  0.6508444  3
    582    581    595    600     1  0.0000000  0.6508444  3
    583    581    582    585     1  0.0000000  0.6508444  3
    583    581    582    594     1  0.0000000  1.0460000  1
    583    581    582    594     1  0.0000000  0.0000000  3
    583    581    582    584     1  0.0000000  0.6508444  3
    583    581    595    601     1  0.0000000  1.0460000  1
    583    581    595    601     1  0.0000000  0.0000000  3
    583    581    595    599     1  0.0000000  0.6508444  3
    583    581    595    600     1  0.0000000  0.6508444  3
    583    581    603    587     1  0.0000000  1.6038667  3
    584    582    585    586     1  0.0000000  0.6508444  3
    584    582    585    593     1  0.0000000  1.0460000  1
    584    582    585    593     1  0.0000000  0.0000000  3
    584    582    585    589     1  0.0000000  0.6508444  3
    584    582    594    597     1  0.0000000  0.6973333  3
    584    582    581    595     1  0.0000000  0.6508444  3
    584    582    581    603     1  0.0000000  1.0460000  1
    584    582    581    603     1  0.0000000  0.0000000  3
    585    586    587    590     1  0.0000000  0.6508444  3
    585    586    592    598     1  0.0000000  1.0460000  1
    585    586    592    598     1  0.0000000  0.6694400  3
    585    582    594    597     1  0.0000000  1.0460000  1
    585    582    594    597     1  0.0000000  0.6694400  3
    586    585    593    596     1  0.0000000  1.0460000  1
    586    585    593    596     1  0.0000000  0.6694400  3
    587    586    592    598     1  0.0000000  1.0460000  1
    587    586    592    598     1  0.0000000  0.6694400  3
    587    586    585    589     1  0.0000000  0.6508444  3
    588    586    587    591     1  0.0000000  1.0460000  1
    588    586    587    591     1  0.0000000  0.0000000  3
    588    586    587    603     1  0.0000000  1.0460000  1
    588    586    587    603     1  0.0000000  0.0000000  3
    588    586    587    590     1  0.0000000  0.6508444  3
    588    586    592    598     1  0.0000000  0.6973333  3
    588    586    585    593     1  0.0000000  1.0460000  1
    588    586    585    593     1  0.0000000  0.0000000  3
    588    586    585    589     1  0.0000000  0.6508444  3
    589    585    586    592     1  0.0000000  1.0460000  1
    589    585    586    592     1  0.0000000  0.0000000  3
    589    585    593    596     1  0.0000000  0.6973333  3
    589    585    582    594     1  0.0000000  1.0460000  1
    589    585    582    594     1  0.0000000  0.0000000  3
    590    587    586    592     1  0.0000000  0.6508444  3
    599    595    601    602     1  0.0000000  0.6973333  3
    599    595    581    603     1  0.0000000  1.0460000  1
    599    595    581    603     1  0.0000000  0.0000000  3
    600    595    601    602     1  0.0000000  0.6973333  3
    600    595    581    603     1  0.0000000  1.0460000  1
    600    595    581    603     1  0.0000000  0.0000000  3
    604    605    608    612     1  0.0000000  0.6508444  3
    604    605    617    620     1  0.0000000  1.0460000  1
    604    605    617    620     1  0.0000000  0.6694400  3
    604    618    624    625     1  0.0000000  1.0460000  1
    604    618    624    625     1  0.0000000  0.6694400  3
    604    626    610    613     1  0.0000000  1.6038667  3
    605    604    618    622     1  0.0000000  0.6508444  3
    605    604    618    623     1  0.0000000  0.6508444  3
    605    608    609    611     1  0.0000000  0.6508444  3
    605    608    616    619     1  0.0000000  1.0460000  1
    605    608    616    619     1  0.0000000  0.6694400  3
    606    604    605    608     1  0.0000000  0.6508444  3
    606    604    605    617     1  0.0000000  1.0460000  1
    606    604    605    617     1  0.0000000  0.0000000  3
    606    604    605    607     1  0.0000000  0.6508444  3
    606    604    618    624     1  0.0000000  1.0460000  1
    606    604    618    624     1  0.0000000  0.0000000  3
    606    604    618    622     1  0.0000000  0.6508444  3
    606    604    618    623     1  0.0000000  0.6508444  3
    606    604    626    610     1  0.0000000  1.6038667  3
    607    605    604    618     1  0.0000000  0.6508444  3
    607    605    604    626     1  0.0000000  1.0460000  1
    607    605    604    626     1  0.0000000  0.0000000  3
    607    605    608    609     1  0.0000000  0.6508444  3
    607    605    608    616     1  0.0000000  1.0460000  1
    607    605    608    616     1  0.0000000  0.0000000  3
    607    605    608    612     1  0.0000000  0.6508444  3
    607    605    617    620     1  0.0000000  0.6973333  3
    608    605    617    620     1  0.0000000  1.0460000  1
    608    605    617    620     1  0.0000000  0.6694400  3
    608    609    610    613     1  0.0000000  0.6508444  3
    608    609    615    621     1  0.0000000  1.0460000  1
    608    609    615    621     1  0.0000000  0.6694400  3
    609    608    616    619     1  0.0000000  1.0460000  1
    609    608    616    619     1  0.0000000  0.6694400  3
    610    609    608    612     1  0.0000000  0.6508444  3
    610    609    615    621     1  0.0000000  1.0460000  1
    610    609    615    621     1  0.0000000  0.6694400  3
    611    609    608    616     1  0.0000000  1.0460000  1
    611    609    608    616     1  0.0000000  0.0000000  3
    611    609    608    612     1  0.0000000  0.6508444  3
    611    609    610    614     1  0.0000000  1.0460000  1
    611    609    610    614     1  0.0000000  0.0000000  3
    611    609    610    626     1  0.0000000  1.0460000  1
    611    609    610    626     1  0.0000000  0.0000000  3
    611    609    610    613     1  0.0000000  0.6508444  3
    611    609    615    621     1  0.0000000  0.6973333  3
    612    608    605    617     1  0.0000000  1.0460000  1
    612    608    605    617     1  0.0000000  0.0000000  3
    612    608    609    615     1  0.0000000  1.0460000  1
    612    608    609    615     1  0.0000000  0.0000000  3
    612    608    616    619     1  0.0000000  0.6973333  3
    613    610    609    615     1  0.0000000  0.6508444  3
    622    618    604    626     1  0.0000000  1.0460000  1
    622    618    604    626     1  0.0000000  0.0000000  3
    622    618    624    625     1  0.0000000  0.6973333  3
    623    618    604    626     1  0.0000000  1.0460000  1
    623    618    604    626     1  0.0000000  0.0000000  3
    623    618    624    625     1  0.0000000  0.6973333  3
    627    628    631    635     1  0.0000000  0.6508444  3
    627    628    640    643     1  0.0000000  1.0460000  1
    627    628    640    643     1  0.0000000  0.6694400  3
    627    641    647    648     1  0.0000000  1.0460000  1
    627    641    647    648     1  0.0000000  0.6694400  3
    627    649    633    636     1  0.0000000  1.6038667  3
    628    631    632    634     1  0.0000000  0.6508444  3
    628    631    639    642     1  0.0000000  1.0460000  1
    628    631    639    642     1  0.0000000  0.6694400  3
    628    627    641    645     1  0.0000000  0.6508444  3
    628    627    641    646     1  0.0000000  0.6508444  3
    629    627    628    631     1  0.0000000  0.6508444  3
    629    627    628    640     1  0.0000000  1.0460000  1
    629    627    628    640     1  0.0000000  0.0000000  3
    629    627    628    630     1  0.0000000  0.6508444  3
    629    627    641    647     1  0.0000000  1.0460000  1
    629    627    641    647     1  0.0000000  0.0000000  3
    629    627    641    645     1  0.0000000  0.6508444  3
    629    627    641    646     1  0.0000000  0.6508444  3
    629    627    649    633     1  0.0000000  1.6038667  3
    630    628    631    632     1  0.0000000  0.6508444  3
    630    628    631    639     1  0.0000000  1.0460000  1
    630    628    631    639     1  0.0000000  0.0000000  3
    630    628    631    635     1  0.0000000  0.6508444  3
    630    628    640    643     1  0.0000000  0.6973333  3
    630    628    627    641     1  0.0000000  0.6508444  3
    630    628    627    649     1  0.0000000  1.0460000  1
    630    628    627    649     1  0.0000000  0.0000000  3
    631    632    633    636     1  0.0000000  0.6508444  3
    631    632    638    644     1  0.0000000  1.0460000  1
    631    632    638    644     1  0.0000000  0.6694400  3
    631    628    640    643     1  0.0000000  1.0460000  1
    631    628    640    643     1  0.0000000  0.6694400  3
    632    631    639    642     1  0.0000000  1.0460000  1
    632    631    639    642     1  0.0000000  0.6694400  3
    633    632    638    644     1  0.0000000  1.0460000  1
    633    632    638    644     1  0.0000000  0.6694400  3
    633    632    631    635     1  0.0000000  0.6508444  3
    634    632    633    637     1  0.0000000  1.0460000  1
    634    632    633    637     1  0.0000000  0.0000000  3
    634    632    633    649     1  0.0000000  1.0460000  1
    634    632    633    649     1  0.0000000  0.0000000  3
    634    632    633    636     1  0.0000000  0.6508444  3
    634    632    638    644     1  0.0000000  0.6973333  3
    634    632    631    639     1  0.0000000  1.0460000  1
    634    632    631    639     1  0.0000000  0.0000000  3
    634    632    631    635     1  0.0000000  0.6508444  3
    635    631    632    638     1  0.0000000  1.0460000  1
    635    631    632    638     1  0.0000000  0.0000000  3
    635    631    639    642     1  0.0000000  0.6973333  3
    635    631    628    640     1  0.0000000  1.0460000  1
    635    631    628    640     1  0.0000000  0.0000000  3
    636    633    632    638     1  0.0000000  0.6508444  3
    645    641    647    648     1  0.0000000  0.6973333  3
    645    641    627    649     1  0.0000000  1.0460000  1
    645    641    627    649     1  0.0000000  0.0000000  3
    646    641    647    648     1  0.0000000  0.6973333  3
    646    641    627    649     1  0.0000000  1.0460000  1
    646    641    627    649     1  0.0000000  0.0000000  3
    650    651    654    658     1  0.0000000  0.6508444  3
    650    651    663    666     1  0.0000000  1.0460000  1
    650    651    663    666     1  0.0000000  0.6694400  3
    650    664    670    671     1  0.0000000  1.0460000  1
    650    664    670    671     1  0.0000000  0.6694400  3
    650    672    656    659     1  0.0000000  1.6038667  3
    651    650    664    668     1  0.0000000  0.6508444  3
    651    650    664    669     1  0.0000000  0.6508444  3
    651    654    655    657     1  0.0000000  0.6508444  3
    651    654    662    665     1  0.0000000  1.0460000  1
    651    654    662    665     1  0.0000000  0.6694400  3
    652    650    651    654     1  0.0000000  0.6508444  3
    652    650    651    663     1  0.0000000  1.0460000  1
    652    650    651    663     1  0.0000000  0.0000000  3
    652    650    651    653     1  0.0000000  0.6508444  3
    652    650    664    670     1  0.0000000  1.0460000  1
    652    650    664    670     1  0.0000000  0.0000000  3
    652    650    664    668     1  0.0000000  0.6508444  3
    652    650    664    669     1  0.0000000  0.6508444  3
    652    650    672    656     1  0.0000000  1.6038667  3
    653    651    650    664     1  0.0000000  0.6508444  3
    653    651    650    672     1  0.0000000  1.0460000  1
    653    651    650    672     1  0.0000000  0.0000000  3
    653    651    654    655     1  0.0000000  0.6508444  3
    653    651    654    662     1  0.0000000  1.0460000  1
    653    651    654    662     1  0.0000000  0.0000000  3
    653    651    654    658     1  0.0000000  0.6508444  3
    653    651    663    666     1  0.0000000  0.6973333  3
    654    651    663    666     1  0.0000000  1.0460000  1
    654    651    663    666     1  0.0000000  0.6694400  3
    654    655    656    659     1  0.0000000  0.6508444  3
    654    655    661    667     1  0.0000000  1.0460000  1
    654    655    661    667     1  0.0000000  0.6694400  3
    655    654    662    665     1  0.0000000  1.0460000  1
    655    654    662    665     1  0.0000000  0.6694400  3
    656    655    654    658     1  0.0000000  0.6508444  3
    656    655    661    667     1  0.0000000  1.0460000  1
    656    655    661    667     1  0.0000000  0.6694400  3
    657    655    654    662     1  0.0000000  1.0460000  1
    657    655    654    662     1  0.0000000  0.0000000  3
    657    655    654    658     1  0.0000000  0.6508444  3
    657    655    656    660     1  0.0000000  1.0460000  1
    657    655    656    660     1  0.0000000  0.0000000  3
    657    655    656    672     1  0.0000000  1.0460000  1
    657    655    656    672     1  0.0000000  0.0000000  3
    657    655    656    659     1  0.0000000  0.6508444  3
    657    655    661    667     1  0.0000000  0.6973333  3
    658    654    651    663     1  0.0000000  1.0460000  1
    658    654    651    663     1  0.0000000  0.0000000  3
    658    654    655    661     1  0.0000000  1.0460000  1
    658    654    655    661     1  0.0000000  0.0000000  3
    658    654    662    665     1  0.0000000  0.6973333  3
    659    656    655    661     1  0.0000000  0.6508444  3
    668    664    650    672     1  0.0000000  1.0460000  1
    668    664    650    672     1  0.0000000  0.0000000  3
    668    664    670    671     1  0.0000000  0.6973333  3
    669    664    650    672     1  0.0000000  1.0460000  1
    669    664    650    672     1  0.0000000  0.0000000  3
    669    664    670    671     1  0.0000000  0.6973333  3
    673    674    677    681     1  0.0000000  0.6508444  3
    673    674    686    689     1  0.0000000  1.0460000  1
    673    674    686    689     1  0.0000000  0.6694400  3
    673    687    693    694     1  0.0000000  1.0460000  1
    673    687    693    694     1  0.0000000  0.6694400  3
    673    695    679    682     1  0.0000000  1.6038667  3
    674    677    678    680     1  0.0000000  0.6508444  3
    674    677    685    688     1  0.0000000  1.0460000  1
    674    677    685    688     1  0.0000000  0.6694400  3
    674    673    687    691     1  0.0000000  0.6508444  3
    674    673    687    692     1  0.0000000  0.6508444  3
    675    673    674    677     1  0.0000000  0.6508444  3
    675    673    674    686     1  0.0000000  1.0460000  1
    675    673    674    686     1  0.0000000  0.0000000  3
    675    673    674    676     1  0.0000000  0.6508444  3
    675    673    687    693     1  0.0000000  1.0460000  1
    675    673    687    693     1  0.0000000  0.0000000  3
    675    673    687    691     1  0.0000000  0.6508444  3
    675    673    687    692     1  0.0000000  0.6508444  3
    675    673    695    679     1  0.0000000  1.6038667  3
    676    674    677    678     1  0.0000000  0.6508444  3
    676    674    677    685     1  0.0000000  1.0460000  1
    676    674    677    685     1  0.0000000  0.0000000  3
    676    674    677    681     1  0.0000000  0.6508444  3
    676    674    686    689     1  0.0000000  0.6973333  3
    676    674    673    687     1  0.0000000  0.6508444  3
    676    674    673    695     1  0.0000000  1.0460000  1
    676    674    673    695     1  0.0000000  0.0000000  3
    677    678    679    682     1  0.0000000  0.6508444  3
    677    678    684    690     1  0.0000000  1.0460000  1
    677    678    684    690     1  0.0000000  0.6694400  3
    677    674    686    689     1  0.0000000  1.0460000  1
    677    674    686    689     1  0.0000000  0.6694400  3
    678    677    685    688     1  0.0000000  1.0460000  1
    678    677    685    688     1  0.0000000  0.6694400  3
    679    678    684    690     1  0.0000000  1.0460000  1
    679    678    684    690     1  0.0000000  0.6694400  3
    679    678    677    681     1  0.0000000  0.6508444  3
    680    678    679    683     1  0.0000000  1.0460000  1
    680    678    679    683     1  0.0000000  0.0000000  3
    680    678    679    695     1  0.0000000  1.0460000  1
    680    678    679    695     1  0.0000000  0.0000000  3
    680    678    679    682     1  0.0000000  0.6508444  3
    680    678    684    690     1  0.0000000  0.6973333  3
    680    678    677    685     1  0.0000000  1.0460000  1
    680    678    677    685     1  0.0000000  0.0000000  3
    680    678    677    681     1  0.0000000  0.6508444  3
    681    677    678    684     1  0.0000000  1.0460000  1
    681    677    678    684     1  0.0000000  0.0000000  3
    681    677    685    688     1  0.0000000  0.6973333  3
    681    677    674    686     1  0.0000000  1.0460000  1
    681    677    674    686     1  0.0000000  0.0000000  3
    682    679    678    684     1  0.0000000  0.6508444  3
    691    687    693    694     1  0.0000000  0.6973333  3
    691    687    673    695     1  0.0000000  1.0460000  1
    691    687    673    695     1  0.0000000  0.0000000  3
    692    687    693    694     1  0.0000000  0.6973333  3
    692    687    673    695     1  0.0000000  1.0460000  1
    692    687    673    695     1  0.0000000  0.0000000  3
    696    697    700    704     1  0.0000000  0.6508444  3
    696    697    709    712     1  0.0000000  1.0460000  1
    696    697    709    712     1  0.0000000  0.6694400  3
    696    710    716    717     1  0.0000000  1.0460000  1
    696    710    716    717     1  0.0000000  0.6694400  3
    696    718    702    705     1  0.0000000  1.6038667  3
    697    696    710    714     1  0.0000000  0.6508444  3
    697    696    710    715     1  0.0000000  0.6508444  3
    697    700    701    703     1  0.0000000  0.6508444  3
    697    700    708    711     1  0.0000000  1.0460000  1
    697    700    708    711     1  0.0000000  0.6694400  3
    698    696    697    700     1  0.0000000  0.6508444  3
    698    696    697    709     1  0.0000000  1.0460000  1
    698    696    697    709     1  0.0000000  0.0000000  3
    698    696    697    699     1  0.0000000  0.6508444  3
    698    696    710    716     1  0.0000000  1.0460000  1
    698    696    710    716     1  0.0000000  0.0000000  3
    698    696    710    714     1  0.0000000  0.6508444  3
    698    696    710    715     1  0.0000000  0.6508444  3
    698    696    718    702     1  0.0000000  1.6038667  3
    699    697    696    710     1  0.0000000  0.6508444  3
    699    697    696    718     1  0.0000000  1.0460000  1
    699    697    696    718     1  0.0000000  0.0000000  3
    699    697    700    701     1  0.0000000  0.6508444  3
    699    697    700    708     1  0.0000000  1.0460000  1
    699    697    700    708     1  0.0000000  0.0000000  3
    699    697    700    704     1  0.0000000  0.6508444  3
    699    697    709    712     1  0.0000000  0.6973333  3
    700    697    709    712     1  0.0000000  1.0460000  1
    700    697    709    712     1  0.0000000  0.6694400  3
    700    701    702    705     1  0.0000000  0.6508444  3
    700    701    707    713     1  0.0000000  1.0460000  1
    700    701    707    713     1  0.0000000  0.6694400  3
    701    700    708    711     1  0.0000000  1.0460000  1
    701    700    708    711     1  0.0000000  0.6694400  3
    702    701    700    704     1  0.0000000  0.6508444  3
    702    701    707    713     1  0.0000000  1.0460000  1
    702    701    707    713     1  0.0000000  0.6694400  3
    703    701    700    708     1  0.0000000  1.0460000  1
    703    701    700    708     1  0.0000000  0.0000000  3
    703    701    700    704     1  0.0000000  0.6508444  3
    703    701    702    706     1  0.0000000  1.0460000  1
    703    701    702    706     1  0.0000000  0.0000000  3
    703    701    702    718     1  0.0000000  1.0460000  1
    703    701    702    718     1  0.0000000  0.0000000  3
    703    701    702    705     1  0.0000000  0.6508444  3
    703    701    707    713     1  0.0000000  0.6973333  3
    704    700    697    709     1  0.0000000  1.0460000  1
    704    700    697    709     1  0.0000000  0.0000000  3
    704    700    701    707     1  0.0000000  1.0460000  1
    704    700    701    707     1  0.0000000  0.0000000  3
    704    700    708    711     1  0.0000000  0.6973333  3
    705    702    701    707     1  0.0000000  0.6508444  3
    714    710    696    718     1  0.0000000  1.0460000  1
    714    710    696    718     1  0.0000000  0.0000000  3
    714    710    716    717     1  0.0000000  0.6973333  3
    715    710    696    718     1  0.0000000  1.0460000  1
    715    710    696    718     1  0.0000000  0.0000000  3
    715    710    716    717     1  0.0000000  0.6973333  3
    719    720    723    727     1  0.0000000  0.6508444  3
    719    720    732    735     1  0.0000000  1.0460000  1
    719    720    732    735     1  0.0000000  0.6694400  3
    719    733    739    740     1  0.0000000  1.0460000  1
    719    733    739    740     1  0.0000000  0.6694400  3
    719    741    725    728     1  0.0000000  1.6038667  3
    720    723    724    726     1  0.0000000  0.6508444  3
    720    723    731    734     1  0.0000000  1.0460000  1
    720    723    731    734     1  0.0000000  0.6694400  3
    720    719    733    737     1  0.0000000  0.6508444  3
    720    719    733    738     1  0.0000000  0.6508444  3
    721    719    720    723     1  0.0000000  0.6508444  3
    721    719    720    732     1  0.0000000  1.0460000  1
    721    719    720    732     1  0.0000000  0.0000000  3
    721    719    720    722     1  0.0000000  0.6508444  3
    721    719    733    739     1  0.0000000  1.0460000  1
    721    719    733    739     1  0.0000000  0.0000000  3
    721    719    733    737     1  0.0000000  0.6508444  3
    721    719    733    738     1  0.0000000  0.6508444  3
    721    719    741    725     1  0.0000000  1.6038667  3
    722    720    723    724     1  0.0000000  0.6508444  3
    722    720    723    731     1  0.0000000  1.0460000  1
    722    720    723    731     1  0.0000000  0.0000000  3
    722    720    723    727     1  0.0000000  0.6508444  3
    722    720    732    735     1  0.0000000  0.6973333  3
    722    720    719    733     1  0.0000000  0.6508444  3
    722    720    719    741     1  0.0000000  1.0460000  1
    722    720    719    741     1  0.0000000  0.0000000  3
    723    724    725    728     1  0.0000000  0.6508444  3
    723    724    730    736     1  0.0000000  1.0460000  1
    723    724    730    736     1  0.0000000  0.6694400  3
    723    720    732    735     1  0.0000000  1.0460000  1
    723    720    732    735     1  0.0000000  0.6694400  3
    724    723    731    734     1  0.0000000  1.0460000  1
    724    723    731    734     1  0.0000000  0.6694400  3
    725    724    730    736     1  0.0000000  1.0460000  1
    725    724    730    736     1  0.0000000  0.6694400  3
    725    724    723    727     1  0.0000000  0.6508444  3
    726    724    725    729     1  0.0000000  1.0460000  1
    726    724    725    729     1  0.0000000  0.0000000  3
    726    724    725    741     1  0.0000000  1.0460000  1
    726    724    725    741     1  0.0000000  0.0000000  3
    726    724    725    728     1  0.0000000  0.6508444  3
    726    724    730    736     1  0.0000000  0.6973333  3
    726    724    723    731     1  0.0000000  1.0460000  1
    726    724    723    731     1  0.0000000  0.0000000  3
    726    724    723    727     1  0.0000000  0.6508444  3
    727    723    724    730     1  0.0000000  1.0460000  1
    727    723    724    730     1  0.0000000  0.0000000  3
    727    723    731    734     1  0.0000000  0.6973333  3
    727    723    720    732     1  0.0000000  1.0460000  1
    727    723    720    732     1  0.0000000  0.0000000  3
    728    725    724    730     1  0.0000000  0.6508444  3
    737    733    739    740     1  0.0000000  0.6973333  3
    737    733    719    741     1  0.0000000  1.0460000  1
    737    733    719    741     1  0.0000000  0.0000000  3
    738    733    739    740     1  0.0000000  0.6973333  3
    738    733    719    741     1  0.0000000  1.0460000  1
    738    733    719    741     1  0.0000000  0.0000000  3
    742    743    746    750     1  0.0000000  0.6508444  3
    742    743    755    758     1  0.0000000  1.0460000  1
    742    743    755    758     1  0.0000000  0.6694400  3
    742    756    762    763     1  0.0000000  1.0460000  1
    742    756    762    763     1  0.0000000  0.6694400  3
    742    764    748    751     1  0.0000000  1.6038667  3
    743    742    756    760     1  0.0000000  0.6508444  3
    743    742    756    761     1  0.0000000  0.6508444  3
    743    746    747    749     1  0.0000000  0.6508444  3
    743    746    754    757     1  0.0000000  1.0460000  1
    743    746    754    757     1  0.0000000  0.6694400  3
    744    742    743    746     1  0.0000000  0.6508444  3
    744    742    743    755     1  0.0000000  1.0460000  1
    744    742    743    755     1  0.0000000  0.0000000  3
    744    742    743    745     1  0.0000000  0.6508444  3
    744    742    756    762     1  0.0000000  1.0460000  1
    744    742    756    762     1  0.0000000  0.0000000  3
    744    742    756    760     1  0.0000000  0.6508444  3
    744    742    756    761     1  0.0000000  0.6508444  3
    744    742    764    748     1  0.0000000  1.6038667  3
    745    743    742    756     1  0.0000000  0.6508444  3
    745    743    742    764     1  0.0000000  1.0460000  1
    745    743    742    764     1  0.0000000  0.0000000  3
    745    743    746    747     1  0.0000000  0.6508444  3
    745    743    746    754     1  0.0000000  1.0460000  1
    745    743    746    754     1  0.0000000  0.0000000  3
    745    743    746    750     1  0.0000000  0.6508444  3
    745    743    755    758     1  0.0000000  0.6973333  3
    746    743    755    758     1  0.0000000  1.0460000  1
    746    743    755    758     1  0.0000000  0.6694400  3
    746    747    748    751     1  0.0000000  0.6508444  3
    746    747    753    759     1  0.0000000  1.0460000  1
    746    747    753    759     1  0.0000000  0.6694400  3
    747    746    754    757     1  0.0000000  1.0460000  1
    747    746    754    757     1  0.0000000  0.6694400  3
    748    747    746    750     1  0.0000000  0.6508444  3
    748    747    753    759     1  0.0000000  1.0460000  1
    748    747    753    759     1  0.0000000  0.6694400  3
    749    747    746    754     1  0.0000000  1.0460000  1
    749    747    746    754     1  0.0000000  0.0000000  3
    749    747    746    750     1  0.0000000  0.6508444  3
    749    747    748    752     1  0.0000000  1.0460000  1
    749    747    748    752     1  0.0000000  0.0000000  3
    749    747    748    764     1  0.0000000  1.0460000  1
    749    747    748    764     1  0.0000000  0.0000000  3
    749    747    748    751     1  0.0000000  0.6508444  3
    749    747    753    759     1  0.0000000  0.6973333  3
    750    746    743    755     1  0.0000000  1.0460000  1
    750    746    743    755     1  0.0000000  0.0000000  3
    750    746    747    753     1  0.0000000  1.0460000  1
    750    746    747    753     1  0.0000000  0.0000000  3
    750    746    754    757     1  0.0000000  0.6973333  3
    751    748    747    753     1  0.0000000  0.6508444  3
    760    756    742    764     1  0.0000000  1.0460000  1
    760    756    742    764     1  0.0000000  0.0000000  3
    760    756    762    763     1  0.0000000  0.6973333  3
    761    756    742    764     1  0.0000000  1.0460000  1
    761    756    742    764     1  0.0000000  0.0000000  3
    761    756    762    763     1  0.0000000  0.6973333  3
    765    766    769    773     1  0.0000000  0.6508444  3
    765    766    778    781     1  0.0000000  1.0460000  1
    765    766    778    781     1  0.0000000  0.6694400  3
    765    779    785    786     1  0.0000000  1.0460000  1
    765    779    785    786     1  0.0000000  0.6694400  3
    765    787    771    774     1  0.0000000  1.6038667  3
    766    769    770    772     1  0.0000000  0.6508444  3
    766    769    777    780     1  0.0000000  1.0460000  1
    766    769    777    780     1  0.0000000  0.6694400  3
    766    765    779    783     1  0.0000000  0.6508444  3
    766    765    779    784     1  0.0000000  0.6508444  3
    767    765    766    769     1  0.0000000  0.6508444  3
    767    765    766    778     1  0.0000000  1.0460000  1
    767    765    766    778     1  0.0000000  0.0000000  3
    767    765    766    768     1  0.0000000  0.6508444  3
    767    765    779    785     1  0.0000000  1.0460000  1
    767    765    779    785     1  0.0000000  0.0000000  3
    767    765    779    783     1  0.0000000  0.6508444  3
    767    765    779    784     1  0.0000000  0.6508444  3
    767    765    787    771     1  0.0000000  1.6038667  3
    768    766    769    770     1  0.0000000  0.6508444  3
    768    766    769    777     1  0.0000000  1.0460000  1
    768    766    769    777     1  0.0000000  0.0000000  3
    768    766    769    773     1  0.0000000  0.6508444  3
    768    766    778    781     1  0.0000000  0.6973333  3
    768    766    765    779     1  0.0000000  0.6508444  3
    768    766    765    787     1  0.0000000  1.0460000  1
    768    766    765    787     1  0.0000000  0.0000000  3
    769    770    771    774     1  0.0000000  0.6508444  3
    769    770    776    782     1  0.0000000  1.0460000  1
    769    770    776    782     1  0.0000000  0.6694400  3
    769    766    778    781     1  0.0000000  1.0460000  1
    769    766    778    781     1  0.0000000  0.6694400  3
    770    769    777    780     1  0.0000000  1.0460000  1
    770    769    777    780     1  0.0000000  0.6694400  3
    771    770    776    782     1  0.0000000  1.0460000  1
    771    770    776    782     1  0.0000000  0.6694400  3
    771    770    769    773     1  0.0000000  0.6508444  3
    772    770    771    775     1  0.0000000  1.0460000  1
    772    770    771    775     1  0.0000000  0.0000000  3
    772    770    771    787     1  0.0000000  1.0460000  1
    772    770    771    787     1  0.0000000  0.0000000  3
    772    770    771    774     1  0.0000000  0.6508444  3
    772    770    776    782     1  0.0000000  0.6973333  3
    772    770    769    777     1  0.0000000  1.0460000  1
    772    770    769    777     1  0.0000000  0.0000000  3
    772    770    769    773     1  0.0000000  0.6508444  3
    773    769    770    776     1  0.0000000  1.0460000  1
    773    769    770    776     1  0.0000000  0.0000000  3
    773    769    777    780     1  0.0000000  0.6973333  3
    773    769    766    778     1  0.0000000  1.0460000  1
    773    769    766    778     1  0.0000000  0.0000000  3
    774    771    770    776     1  0.0000000  0.6508444  3
    783    779    785    786     1  0.0000000  0.6973333  3
    783    779    765    787     1  0.0000000  1.0460000  1
    783    779    765    787     1  0.0000000  0.0000000  3
    784    779    785    786     1  0.0000000  0.6973333  3
    784    779    765    787     1  0.0000000  1.0460000  1
    784    779    765    787     1  0.0000000  0.0000000  3

;[ system ]
;; Name
;Generic title
;
;[ molecules ]
;; Compound       #mols
;system1              1
