G2DPncore-PETIM in water
50228
    1aaa     O1    1   0.344   6.896   7.848 -0.3935 -0.3866 -0.0399
    1aaa     C1    2   0.366   7.019   7.917 -0.2329  0.5400  0.1278
    1aaa     H1    3   0.389   6.993   8.021  0.8332 -1.8501 -0.6602
    1aaa     H2    4   0.274   7.079   7.925 -1.7619 -1.8283  1.7319
    1aaa     C2    5   0.247   6.798   7.905  1.0664 -0.8943 -0.5822
    1aaa     H3    6   0.149   6.814   7.859  0.6989 -2.4450 -0.4103
    1aaa     H4    7   0.245   6.823   8.012 -1.5791  1.7609 -1.1319
    1aaa     C3    8   0.486   7.088   7.834  0.3294 -0.2635 -0.1228
    1aaa     H5    9   0.570   7.019   7.819  1.1650  0.2353  1.8151
    1aaa     H6   10   0.528   7.163   7.903  0.7876  0.5217 -1.2302
    1aaa     C4   11   0.284   6.654   7.887  0.3318  0.4734 -0.1959
    1aaa     H7   12   0.204   6.595   7.934  1.5038 -0.8515  0.2394
    1aaa     H8   13   0.364   6.630   7.959 -2.3951 -0.0799  2.9187
    1aaa     C5   14   0.450   7.169   7.709 -0.1901  0.2819 -0.2883
    1aaa     H9   15   0.380   7.244   7.745  0.9618  0.4485  1.7177
    1aaa    H10   16   0.534   7.217   7.660  1.7764 -3.3537 -0.8505
    1aaa     C6   17   0.314   6.621   7.737 -0.0254  0.5904 -0.5509
    1aaa    H11   18   0.379   6.694   7.688 -0.1889  0.1103 -1.5102
    1aaa    H12   19   0.221   6.631   7.681  0.0698  0.2672 -0.7696
    1aaa     N1   20   0.381   7.092   7.594 -0.0885  0.5316 -0.2401
    1aaa     N2   21   0.365   6.480   7.711  0.1514  0.5027 -0.6636
    1aaa     C7   22   0.509   6.481   7.717 -0.4096 -0.3682 -0.7129
    1aaa    H13   23   0.543   6.557   7.647  2.0883 -1.0321 -0.3346
    1aaa    H14   24   0.534   6.512   7.819 -0.1139 -1.1001 -0.5525
    1aaa     C8   25   0.313   6.423   7.584 -0.0998  0.2962  0.3881
    1aaa    H15   26   0.361   6.480   7.504  0.2799  0.7702  0.9442
    1aaa    H16   27   0.343   6.318   7.582 -0.0237  0.2702  1.7740
    1aaa     C9   28   0.359   7.187   7.477  1.2199 -0.2078 -0.2801
    1aaa    H17   29   0.453   7.224   7.434 -0.3614  0.6317 -3.3228
    1aaa    H18   30   0.310   7.130   7.398  2.0969 -0.7243 -0.4685
    1aaa    C10   31   0.472   6.983   7.549 -0.2008  0.2293  0.4610
    1aaa    H19   32   0.558   7.037   7.509  1.3285 -1.6200  1.1345
    1aaa    H20   33   0.500   6.921   7.634  1.1336  0.3481  0.1259
    1aaa    C11   34   0.583   6.348   7.688 -0.3271  0.0177  0.2817
    1aaa    H21   35   0.505   6.277   7.718 -1.8306  2.3324  2.1691
    1aaa    H22   36   0.611   6.343   7.582  1.5646 -1.6345  0.7868
    1aaa    C12   37   0.160   6.421   7.572 -0.1100 -0.4854  0.3031
    1aaa    H23   38   0.119   6.374   7.662 -0.9234 -0.7833 -0.2122
    1aaa    H24   39   0.114   6.518   7.553  2.6211  0.6594 -1.1553
    1aaa    C13   40   0.267   7.301   7.515  0.5776 -0.2249 -0.1559
    1aaa    H25   41   0.163   7.285   7.545  1.6923  0.8279  5.2522
    1aaa    H26   42   0.299   7.358   7.603 -0.0042 -0.5106  0.2437
    1aaa    C14   43   0.407   6.881   7.447  0.1656  0.1878  0.3612
    1aaa    H27   44   0.316   6.832   7.483  1.0626 -0.2696  2.1172
    1aaa    H28   45   0.385   6.941   7.358  2.5380 -0.6245 -0.8476
    1aaa    C15   46   0.497   6.762   7.409 -0.9596 -0.1345 -0.5251
    1aaa    H29   47   0.592   6.806   7.377 -0.0777  0.7106  2.8577
    1aaa    H30   48   0.526   6.708   7.500  0.4291 -1.7389 -1.8467
    1aaa    C16   49   0.284   7.391   7.389  0.3471 -0.5128  0.1164
    1aaa    H31   50   0.256   7.495   7.412  2.1766  0.4822 -1.7749
    1aaa    H32   51   0.391   7.395   7.364  0.2524  0.6542 -0.1706
    1aaa    C17   52   0.121   6.341   7.441  0.2734  0.2271  0.7861
    1aaa    H33   53   0.013   6.349   7.423 -0.1226 -1.0786  2.4038
    1aaa    H34   54   0.171   6.391   7.357 -1.0766  0.9436  0.3790
    1aaa    C18   55   0.716   6.331   7.764 -0.2642  0.4699  0.5025
    1aaa    H35   56   0.754   6.233   7.733  2.1039  1.3456  0.4534
    1aaa    H36   57   0.791   6.407   7.742 -1.9704  1.5651 -1.9874
    1aaa    H38   58   0.290   7.051   7.621 -0.1439  1.5108  1.1567
    1aaa    H37   59   0.329   6.425   7.790  1.4999 -0.4672 -0.6998
    2bbb     N1   60   0.621   6.382   6.977  0.2110  0.2865  0.1794
    2bbb     C1   61   0.713   6.263   6.941  0.2809 -0.4073 -0.0144
    2bbb     H1   62   0.783   6.244   7.022 -0.5889 -0.8879  0.6411
    2bbb     H2   63   0.761   6.302   6.850  0.0066  0.1876  0.0899
    2bbb     C2   64   0.529   6.441   6.877  0.5698  0.1861  0.1777
    2bbb     H3   65   0.464   6.510   6.931 -0.2454 -0.6443  0.2873
    2bbb     H4   66   0.471   6.365   6.823 -0.9950  1.2329  0.3421
    2bbb     C3   67   0.549   6.357   7.117 -0.9157  0.6906 -0.0040
    2bbb     H5   68   0.618   6.321   7.194 -2.7141 -0.9368  0.9243
    2bbb     H6   69   0.491   6.269   7.090 -0.2675  0.1636  0.2762
    2bbb     C4   70   0.452   6.465   7.182  0.1217 -0.6111 -0.2168
    2bbb     H7   71   0.365   6.421   7.231  0.0243  1.1874  1.3228
    2bbb     H8   72   0.417   6.533   7.103 -1.4956 -0.3602  0.6718
    2bbb     C5   73   0.637   6.129   6.912  0.1165  0.2365 -0.1859
    2bbb     H9   74   0.533   6.148   6.883 -0.4352  0.5053  1.8221
    2bbb    H10   75   0.633   6.077   7.008  4.0578  1.7504  1.0143
    2bbb     C6   76   0.614   6.522   6.772  0.1691 -0.5344  0.5639
    2bbb    H11   77   0.683   6.445   6.735 -0.5037 -0.7869 -0.1958
    2bbb    H12   78   0.680   6.598   6.815  0.0849  0.1510 -0.4885
    2bbb     C7   79   0.529   6.550   7.287  0.3130  0.5346 -0.3810
    2bbb    H13   80   0.615   6.593   7.235 -0.2221  2.7604  0.4461
    2bbb    H14   81   0.555   6.500   7.381  0.4375  2.8675  0.9271
    2bbb     C8   82   0.536   6.587   6.664 -0.3042  1.5456 -0.0676
    2bbb    H15   83   0.617   6.616   6.597  0.2752 -2.8796 -1.5967
    2bbb    H16   84   0.473   6.523   6.600  0.5161  0.2316  0.4180
    2bbb     C9   85   0.710   6.038   6.815  0.2178  0.2142 -1.1707
    2bbb    H17   86   0.649   5.953   6.782 -0.7362  0.5719 -0.3594
    2bbb    H18   87   0.796   5.996   6.869 -0.7899 -1.8872 -1.0794
    2bbb     O1   88   0.444   6.664   7.323  0.1035 -0.4504  1.0691
    2bbb    H19   89   0.688   6.454   7.009 -0.3338  0.2606  1.4237
    3bbb     N1   90  -0.059   7.380   6.903  0.5258  0.0461  0.5988
    3bbb     C1   91   0.008   7.425   6.774  0.7094 -1.6898  0.2792
    3bbb     H1   92  -0.016   7.361   6.690  0.8339  0.0568 -1.1539
    3bbb     H2   93   0.116   7.432   6.789  0.5151 -1.2708  1.5638
    3bbb     C2   94  -0.088   7.228   6.904 -1.2153  0.0757  0.0792
    3bbb     H3   95  -0.134   7.195   6.997 -1.1652  0.4139  0.2244
    3bbb     H4   96   0.005   7.172   6.901 -1.7477 -0.8877  0.8602
    3bbb     C3   97   0.028   7.413   7.021  0.0237 -0.1708 -0.2122
    3bbb     H5   98  -0.016   7.376   7.114 -0.0966 -0.9711 -0.5748
    3bbb     H6   99   0.043   7.520   7.037 -2.4099  0.0653  1.0466
    3bbb     C4  100   0.166   7.338   7.036 -1.0949  0.2015 -0.6002
    3bbb     H7  101   0.220   7.334   6.941 -1.6872  1.1559 -0.9933
    3bbb     H8  102   0.144   7.233   7.058  0.8724  0.2202  1.9499
    3bbb     C5  103  -0.039   7.574   6.734 -0.4168  0.2445  0.7652
    3bbb     H9  104   0.005   7.637   6.813 -0.2170 -0.7195  1.4450
    3bbb    H10  105  -0.148   7.577   6.740 -0.4303  1.0236  0.3327
    3bbb     C6  106  -0.185   7.168   6.790 -0.4618  0.2014 -0.3389
    3bbb    H11  107  -0.138   7.151   6.692  1.5172 -2.7912  0.9746
    3bbb    H12  108  -0.263   7.244   6.787  0.3631  1.0762 -0.2234
    3bbb     C7  109   0.258   7.383   7.153  0.3473 -0.1706 -0.2354
    3bbb    H13  110   0.264   7.493   7.146  0.8140 -0.2454 -1.1351
    3bbb    H14  111   0.357   7.338   7.140 -0.5168 -1.8139 -1.3790
    3bbb     C8  112  -0.233   7.027   6.825  0.2139  0.1772  0.1116
    3bbb    H15  113  -0.267   6.976   6.735 -0.3948  2.7370 -1.2118
    3bbb    H16  114  -0.150   6.966   6.862  0.9404  0.7762 -0.4766
    3bbb     C9  115   0.014   7.610   6.597 -0.2763  0.0591 -0.3242
    3bbb    H17  116   0.102   7.549   6.576 -0.5395 -0.0056 -1.2840
    3bbb    H18  117   0.037   7.717   6.604  0.9156 -0.0285 -2.2428
    3bbb     O1  118   0.208   7.338   7.276 -0.2109  0.1748 -0.3867
    3bbb    H19  119  -0.150   7.428   6.913  1.2277  1.1798  1.9997
    4bbb     N1  120   0.082   5.764   7.478 -0.4220 -0.3764 -0.5333
    4bbb     C1  121   0.211   5.728   7.549 -0.4000  0.2713  0.4777
    4bbb     H1  122   0.175   5.714   7.651  1.7050 -0.8204  1.1423
    4bbb     H2  123   0.278   5.814   7.545  0.6942 -0.5988 -0.4549
    4bbb     C2  124  -0.037   5.706   7.548  0.1307 -0.2916 -1.0625
    4bbb     H3  125  -0.048   5.766   7.639 -1.7565  0.8513 -1.9845
    4bbb     H4  126  -0.000   5.609   7.582  1.6419  1.1533  1.8218
    4bbb     C3  127   0.068   5.917   7.473 -0.7057  0.2759  0.3313
    4bbb     H5  128   0.100   5.949   7.572  3.8875  0.6934 -1.0584
    4bbb     H6  129  -0.031   5.956   7.447 -0.8830 -0.1820  0.2973
    4bbb     C4  130   0.168   5.979   7.370  0.3448  0.5329 -0.3319
    4bbb     H7  131   0.159   5.932   7.271 -1.6269  2.3900 -1.1161
    4bbb     H8  132   0.270   5.983   7.409 -0.3888  1.1607  1.7033
    4bbb     C5  133   0.282   5.593   7.495 -0.4337  0.0131 -0.6666
    4bbb     H9  134   0.240   5.509   7.553 -1.1768  1.1454  0.4961
    4bbb    H10  135   0.387   5.585   7.522 -0.6484 -1.0306 -0.0725
    4bbb     C6  136  -0.173   5.705   7.480 -0.2476  0.4172 -0.2926
    4bbb    H11  137  -0.160   5.648   7.387  1.2951 -2.8696  1.7625
    4bbb    H12  138  -0.207   5.807   7.455 -1.3516  0.6017  1.7037
    4bbb     C7  139   0.112   6.122   7.344  0.6603  0.0509 -0.1823
    4bbb    H13  140   0.002   6.120   7.340  0.6671 -0.3583 -0.2441
    4bbb    H14  141   0.148   6.152   7.245 -0.3447  0.7070 -0.3621
    4bbb     C8  142  -0.277   5.639   7.573  0.0011  0.2982 -0.5687
    4bbb    H15  143  -0.259   5.534   7.598  1.8879  0.5661 -0.7021
    4bbb    H16  144  -0.293   5.692   7.669 -0.3083 -0.8412  0.0279
    4bbb     C9  145   0.282   5.575   7.349 -0.5153 -0.6894  0.4288
    4bbb    H17  146   0.333   5.485   7.313  0.3342 -0.3448  0.7350
    4bbb    H18  147   0.332   5.663   7.306 -2.2813 -0.1709 -0.6584
    4bbb     O1  148   0.157   6.201   7.456 -0.5890  0.5944 -0.3239
    4bbb    H19  149   0.093   5.717   7.386 -1.0908 -3.6626  0.9077
    5bbb     N1  150   0.824   6.137   8.354 -0.0691  0.2512  0.3682
    5bbb     C1  151   0.736   6.011   8.345  0.3947 -0.0953  0.3331
    5bbb     H1  152   0.799   5.939   8.292  0.7206 -0.7675  1.5712
    5bbb     H2  153   0.653   6.042   8.281  1.7112  2.7884 -0.1178
    5bbb     C2  154   0.943   6.118   8.446  0.3184  0.1402 -0.3062
    5bbb     H3  155   1.015   6.069   8.380  0.0526 -1.0661  0.2822
    5bbb     H4  156   0.914   6.060   8.534 -0.1149  2.6961  1.3636
    5bbb     C3  157   0.867   6.163   8.212 -0.0395 -0.2592 -0.3357
    5bbb     H5  158   0.910   6.075   8.164 -0.2202  0.3840 -1.7549
    5bbb     H6  159   0.940   6.244   8.220 -0.5698  0.1922 -0.0615
    5bbb     C4  160   0.761   6.238   8.124  1.5177  0.0205 -0.3676
    5bbb     H7  161   0.737   6.326   8.185  2.1872 -1.1080  1.6264
    5bbb     H8  162   0.666   6.183   8.123  1.6261 -0.2860  1.5554
    5bbb     C5  163   0.673   5.965   8.481  0.0062  0.0690 -0.4792
    5bbb     H9  164   0.599   6.040   8.511  0.5487  1.1132 -1.6610
    5bbb    H10  165   0.736   5.957   8.570 -1.4925  2.9501  0.9754
    5bbb     C6  166   1.000   6.252   8.492  0.2101  0.6368 -0.4200
    5bbb    H11  167   1.042   6.236   8.593  1.1883 -0.8684 -1.0206
    5bbb    H12  168   0.922   6.328   8.497 -0.3657  0.0928 -0.9649
    5bbb     C7  169   0.795   6.263   7.974 -0.2284  0.0264 -1.3125
    5bbb    H13  170   0.838   6.175   7.924  1.2916  0.0662 -0.1652
    5bbb    H14  171   0.873   6.340   7.977 -0.1805 -0.0479 -0.2044
    5bbb     C8  172   1.101   6.300   8.390 -0.2178 -0.3345  0.1203
    5bbb    H15  173   1.056   6.366   8.314  2.1694 -0.0980 -1.2005
    5bbb    H16  174   1.173   6.372   8.431 -0.3318 -0.3515  0.3517
    5bbb     C9  175   0.606   5.825   8.462 -0.0975  0.0884  0.2983
    5bbb    H17  176   0.560   5.824   8.363  0.7845  2.0022 -0.1762
    5bbb    H18  177   0.538   5.794   8.542  0.5183 -0.6883  0.5378
    5bbb     O1  178   0.683   6.321   7.905  0.2036 -0.4376  0.4097
    5bbb    H19  179   0.768   6.214   8.394 -0.5598  1.3729 -2.2961
    6bbb     N1  180   0.386   6.980   6.284  0.3688 -0.4138 -0.0533
    6bbb     C1  181   0.265   6.999   6.192  0.1719 -0.2858  0.2304
    6bbb     H1  182   0.303   7.057   6.107  0.6914 -2.2281 -0.9135
    6bbb     H2  183   0.197   7.065   6.246  2.0102  2.3343 -0.4180
    6bbb     C2  184   0.452   7.110   6.312 -0.4057 -0.4432  0.3306
    6bbb     H3  185   0.525   7.103   6.394  1.9067  0.9750 -1.4722
    6bbb     H4  186   0.382   7.189   6.338 -0.5784 -0.7367  0.7648
    6bbb     C3  187   0.344   6.911   6.413  0.7537  0.2373 -0.3970
    6bbb     H5  188   0.260   6.847   6.388  2.2175 -2.0423  0.2110
    6bbb     H6  189   0.308   6.987   6.482  0.9332  1.9087 -2.0565
    6bbb     C4  190   0.447   6.821   6.489  0.0637 -0.3018 -0.4876
    6bbb     H7  191   0.525   6.881   6.538  0.6611 -0.1611 -1.5718
    6bbb     H8  192   0.497   6.742   6.431  2.0204 -0.4830  1.3217
    6bbb     C5  193   0.201   6.871   6.128  1.3587 -0.4430 -0.4827
    6bbb     H9  194   0.100   6.900   6.097  0.3639  0.0527  2.8313
    6bbb    H10  195   0.183   6.786   6.196  1.0089 -0.0405 -0.0669
    6bbb     C6  196   0.537   7.161   6.189 -0.6074  0.1893  0.1987
    6bbb    H11  197   0.473   7.229   6.132  1.4557  1.5001 -0.6565
    6bbb    H12  198   0.585   7.078   6.136  1.7395  1.6684 -0.1496
    6bbb     C7  199   0.366   6.746   6.599  0.7719  0.4550 -0.6515
    6bbb    H13  200   0.309   6.662   6.556  0.4651  1.1963 -1.7282
    6bbb    H14  201   0.291   6.816   6.637  3.0651  3.3361 -1.0333
    6bbb     C8  202   0.643   7.269   6.223 -0.1456  0.2147  0.6679
    6bbb    H15  203   0.709   7.305   6.143  2.6999 -0.9783  2.3306
    6bbb    H16  204   0.595   7.366   6.245  0.5690  1.0020 -1.0936
    6bbb     C9  205   0.291   6.809   6.015 -0.9177 -0.6954 -0.1752
    6bbb    H17  206   0.295   6.878   5.930 -1.9827 -0.7576 -0.2907
    6bbb    H18  207   0.244   6.724   5.965 -0.6963 -0.5132 -0.6998
    6bbb     O1  208   0.453   6.702   6.704  0.0448  0.1367  0.4687
    6bbb    H19  209   0.458   6.924   6.237 -0.2301 -1.1371 -0.1232
    7bbb     N1  210   1.012   6.236   6.286 -0.5585  0.0641  0.5074
    7bbb     C1  211   1.127   6.187   6.197  1.3755 -0.0943 -0.4828
    7bbb     H1  212   1.089   6.092   6.160 -1.4343  0.5501  0.5496
    7bbb     H2  213   1.219   6.173   6.254  2.0419  0.3273 -1.4104
    7bbb     C2  214   0.895   6.287   6.199  0.3361  0.2571  0.3565
    7bbb     H3  215   0.914   6.388   6.161 -1.1306  1.6385  2.9492
    7bbb     H4  216   0.811   6.307   6.267 -1.4050 -1.4955 -1.1446
    7bbb     C3  217   0.967   6.126   6.387  0.3496 -0.5354  0.1045
    7bbb     H5  218   1.061   6.115   6.440 -1.2017 -1.9113  2.8151
    7bbb     H6  219   0.955   6.030   6.336  1.5259 -0.2045 -0.8420
    7bbb     C4  220   0.836   6.139   6.477  0.5977 -0.5161 -0.1176
    7bbb     H7  221   0.740   6.118   6.429 -0.3031  2.3513  0.1893
    7bbb     H8  222   0.835   6.245   6.506 -2.1599 -0.9117  1.6269
    7bbb     C5  223   1.153   6.284   6.079 -0.4377 -0.6830 -0.0720
    7bbb     H9  224   1.066   6.325   6.026  0.9798 -0.5564 -2.4033
    7bbb    H10  225   1.218   6.230   6.009 -1.3470 -2.8865  0.7248
    7bbb     C6  226   0.837   6.182   6.104  0.1440  0.2167 -0.0029
    7bbb    H11  227   0.782   6.106   6.159  0.9007 -0.5797 -0.3203
    7bbb    H12  228   0.908   6.139   6.032 -0.0740  1.9704 -1.3375
    7bbb     C7  229   0.841   6.068   6.606 -0.5461  0.1248  0.0921
    7bbb    H13  230   0.942   6.090   6.643  0.5512 -1.2266 -1.9327
    7bbb    H14  231   0.829   5.960   6.592 -0.6350  0.0888  0.4409
    7bbb     C8  232   0.732   6.251   6.026 -0.1378 -0.8824  0.8604
    7bbb    H15  233   0.668   6.306   6.096 -1.4396  2.7447 -2.7703
    7bbb    H16  234   0.773   6.321   5.951 -1.5266  0.4610  1.3042
    7bbb     C9  235   1.229   6.408   6.140  0.3919 -0.4162  0.2954
    7bbb    H17  236   1.294   6.460   6.069  3.8008 -0.9420  2.7644
    7bbb    H18  237   1.306   6.375   6.211 -0.1064 -1.2564  0.4649
    7bbb     O1  238   0.743   6.117   6.696 -1.0118 -0.1122 -0.0600
    7bbb    H19  239   1.050   6.319   6.333  1.3901 -0.8345  0.5861
    8bbb     N1  240  -0.435   6.993   7.354  0.3177 -0.4101 -0.1567
    8bbb     C1  241  -0.293   7.023   7.407  0.9797 -0.2581  0.3626
    8bbb     H1  242  -0.260   7.118   7.365 -0.4744  1.5271  2.9473
    8bbb     H2  243  -0.236   6.948   7.353  0.5954  0.5216 -1.1827
    8bbb     C2  244  -0.537   7.101   7.399 -0.0523  0.2882 -0.4667
    8bbb     H3  245  -0.548   7.098   7.507  1.5922  1.9770 -0.1955
    8bbb     H4  246  -0.637   7.075   7.364 -1.2823 -0.0084  2.9137
    8bbb     C3  247  -0.440   7.000   7.201 -0.5272 -0.2845 -0.4318
    8bbb     H5  248  -0.408   7.101   7.176 -3.0660  1.2142  1.8667
    8bbb     H6  249  -0.547   6.986   7.183 -0.7488  1.3559 -0.5709
    8bbb     C4  250  -0.359   6.893   7.119  0.0715  0.1048  0.0529
    8bbb     H7  251  -0.391   6.792   7.148 -1.9813  1.0616  1.3393
    8bbb     H8  252  -0.250   6.902   7.131  0.5146 -2.4553 -1.3515
    8bbb     C5  253  -0.276   7.033   7.559  0.1488 -0.0694  0.8482
    8bbb     H9  254  -0.338   7.116   7.598 -2.6250 -0.3913 -2.3560
    8bbb    H10  255  -0.170   7.054   7.574  0.0517 -0.6510  2.5039
    8bbb     C6  256  -0.510   7.244   7.365  0.3178  0.3357  0.0859
    8bbb    H11  257  -0.577   7.273   7.283  0.3898  2.0941  0.6021
    8bbb    H12  258  -0.404   7.256   7.343  0.2216 -0.4228 -0.8175
    8bbb     C7  259  -0.391   6.911   6.966 -0.0713  0.3311 -0.1877
    8bbb    H13  260  -0.501   6.912   6.958 -0.0992  1.3578  0.2152
    8bbb    H14  261  -0.334   6.835   6.910  1.6835  1.9240 -0.6446
    8bbb     C8  262  -0.547   7.342   7.481  0.0667  0.2016 -0.1881
    8bbb    H15  263  -0.486   7.322   7.570  3.0518  2.7850 -1.4645
    8bbb    H16  264  -0.512   7.442   7.451 -0.0108 -0.2114 -1.7057
    8bbb     C9  265  -0.300   6.902   7.632 -0.1335  0.1240 -0.7882
    8bbb    H17  266  -0.257   6.903   7.733  0.5947 -0.6559 -1.0776
    8bbb    H18  267  -0.245   6.820   7.584 -0.0858  0.4015 -1.2072
    8bbb     O1  268  -0.339   7.042   6.915 -0.0741  0.2551  0.0561
    8bbb    H19  269  -0.465   6.901   7.390  1.0560 -0.5329  0.1773
    9bbb     N1  270  -0.258   7.603   6.026 -0.4865  0.1759 -0.7664
    9bbb     C1  271  -0.223   7.654   5.890 -0.4177  0.5650  0.4170
    9bbb     H1  272  -0.231   7.761   5.904  1.4102  0.6324  1.1502
    9bbb     H2  273  -0.310   7.626   5.829  0.6131  0.3148 -0.9966
    9bbb     C2  274  -0.317   7.463   6.018 -0.4250 -0.2570  0.0643
    9bbb     H3  275  -0.339   7.422   6.117 -0.9958  0.0363  0.0642
    9bbb     H4  276  -0.238   7.394   5.988 -0.5754 -0.6876  0.6418
    9bbb     C3  277  -0.130   7.615   6.117 -0.1312  0.6108 -0.2073
    9bbb     H5  278  -0.096   7.719   6.113 -2.0290  1.2882 -0.0871
    9bbb     H6  279  -0.062   7.542   6.074 -2.6165 -0.6266 -2.3631
    9bbb     C4  280  -0.156   7.580   6.269 -0.1859 -0.3149  0.2210
    9bbb     H7  281  -0.166   7.471   6.271  1.6220 -0.5172  2.8074
    9bbb     H8  282  -0.248   7.624   6.309  1.2583  1.4624  1.7845
    9bbb     C5  283  -0.098   7.602   5.815  0.0048  0.1542  0.1837
    9bbb     H9  284  -0.113   7.495   5.795  1.3607 -0.0985  0.4050
    9bbb    H10  285  -0.007   7.617   5.876 -1.2505  2.7887  1.5904
    9bbb     C6  286  -0.442   7.458   5.932  0.2814  0.1894 -0.0549
    9bbb    H11  287  -0.417   7.444   5.826 -0.1179  0.8601 -0.2448
    9bbb    H12  288  -0.504   7.548   5.946 -1.4219 -0.9259 -0.1961
    9bbb     C7  289  -0.032   7.613   6.362  0.1483  0.0262  0.6869
    9bbb    H13  290  -0.010   7.720   6.355 -2.4306  0.6561  1.2237
    9bbb    H14  291   0.057   7.559   6.328  1.3785  2.1204  0.4226
    9bbb     C8  292  -0.530   7.335   5.976 -0.3806  0.1975 -0.8412
    9bbb    H15  293  -0.618   7.326   5.911  0.1321  0.3345 -1.5666
    9bbb    H16  294  -0.469   7.246   5.956  1.4496  1.2614 -0.2009
    9bbb     C9  295  -0.080   7.680   5.678 -0.0728 -0.8893 -0.2899
    9bbb    H17  296  -0.153   7.651   5.602  0.5176 -1.8055 -0.5225
    9bbb    H18  297   0.020   7.662   5.636  0.9859  0.9098  1.3058
    9bbb     O1  298  -0.072   7.573   6.494  0.1806 -0.2426 -0.9897
    9bbb    H19  299  -0.329   7.667   6.064  0.4673  1.7511 -1.5170
   10bbb     N1  300  -0.718   5.499   7.248 -0.2386  0.6236  0.0544
   10bbb     C1  301  -0.684   5.363   7.191  0.7313 -0.5914 -0.6022
   10bbb     H1  302  -0.780   5.319   7.161  0.2401 -0.1405  0.2555
   10bbb     H2  303  -0.660   5.298   7.275 -0.0626 -0.0157  0.0846
   10bbb     C2  304  -0.864   5.500   7.300 -0.3239  0.5895  0.1867
   10bbb     H3  305  -0.925   5.465   7.216 -1.5742 -0.7874  1.6102
   10bbb     H4  306  -0.901   5.602   7.310 -2.5740  0.2160 -2.8870
   10bbb     C3  307  -0.625   5.515   7.370  0.3559 -0.8402  0.7542
   10bbb     H5  308  -0.527   5.495   7.327  0.4793 -0.3930  0.8260
   10bbb     H6  309  -0.639   5.437   7.445  1.2282 -1.5216  0.2228
   10bbb     C4  310  -0.633   5.652   7.441 -0.2500  0.3724 -0.3442
   10bbb     H7  311  -0.731   5.662   7.489  0.7083 -2.7274  2.6434
   10bbb     H8  312  -0.621   5.732   7.367 -0.3577  0.4345 -0.2934
   10bbb     C5  313  -0.577   5.363   7.085 -0.7359  0.7709 -0.2477
   10bbb     H9  314  -0.490   5.409   7.134  0.1669 -2.6613  1.6259
   10bbb    H10  315  -0.610   5.428   7.003 -1.0857 -0.9208 -1.4937
   10bbb     C6  316  -0.890   5.413   7.426 -0.5038 -0.2796 -0.0404
   10bbb    H11  317  -0.894   5.457   7.526  2.0064 -1.5819  0.7268
   10bbb    H12  318  -0.819   5.331   7.442 -2.1776 -1.6312  0.7853
   10bbb     C7  319  -0.527   5.665   7.553 -0.7463 -0.2240 -0.1326
   10bbb    H13  320  -0.527   5.588   7.632 -0.4256 -0.9710 -0.8454
   10bbb    H14  321  -0.528   5.768   7.591 -1.7003  0.5530 -2.1500
   10bbb     C8  322  -1.012   5.324   7.392 -0.1113 -0.1056  0.9632
   10bbb    H15  323  -1.017   5.244   7.467  1.3850  0.3417  1.5832
   10bbb    H16  324  -1.106   5.381   7.392  0.7083  1.2712  1.3386
   10bbb     C9  325  -0.544   5.221   7.025 -0.2456  0.6302  0.5314
   10bbb    H17  326  -0.513   5.151   7.105 -2.3079 -1.0774 -0.0811
   10bbb    H18  327  -0.459   5.231   6.957 -0.8544 -1.1792 -0.5749
   10bbb     O1  328  -0.397   5.644   7.492 -0.1565  0.2750 -0.4220
   10bbb    H19  329  -0.699   5.569   7.176  2.2254 -1.5490 -1.6223
   11bbb     N1  330   0.092   5.201   7.028 -0.1501 -0.3321 -0.5264
   11bbb     C1  331   0.238   5.160   7.010 -0.8446 -0.5369 -0.7512
   11bbb     H1  332   0.282   5.134   7.107  0.7273 -0.3342 -1.3850
   11bbb     H2  333   0.293   5.253   6.991  0.9397 -1.1966  0.8186
   11bbb     C2  334  -0.003   5.088   7.076  0.8295  0.0708 -0.9619
   11bbb     H3  335   0.027   5.058   7.176 -3.7830 -2.0656  0.0456
   11bbb     H4  336   0.022   5.005   7.010  1.1573 -1.3356  0.8536
   11bbb     C3  337   0.082   5.320   7.121  0.1346 -0.3503  0.2898
   11bbb     H5  338   0.115   5.285   7.219 -2.3119  1.1915  1.7649
   11bbb     H6  339  -0.020   5.358   7.124  0.2360  0.0673 -1.0445
   11bbb     C4  340   0.164   5.444   7.084 -0.5839 -0.7344  0.0147
   11bbb     H7  341   0.147   5.457   6.976 -0.0750 -1.7001 -0.2026
   11bbb     H8  342   0.270   5.422   7.106  0.0575  3.5502  2.1980
   11bbb     C5  343   0.274   5.040   6.920  0.5034 -0.1476 -0.3474
   11bbb     H9  344   0.216   4.950   6.946  0.4575 -0.7711 -2.4315
   11bbb    H10  345   0.380   5.016   6.935  0.2910 -0.7394  0.2640
   11bbb     C6  346  -0.161   5.115   7.067 -0.6531 -0.1256  0.2272
   11bbb    H11  347  -0.183   5.164   6.971  0.0261 -2.3973 -1.1689
   11bbb    H12  348  -0.195   5.173   7.154 -2.5768 -2.3199  1.0408
   11bbb     C7  349   0.133   5.578   7.155  0.8593  0.0846  0.0267
   11bbb    H13  350   0.026   5.599   7.140  0.6534  0.6024  1.9446
   11bbb    H14  351   0.188   5.664   7.115  2.3534 -0.3906  0.9875
   11bbb     C8  352  -0.252   4.992   7.059  0.0065 -0.2679 -0.3063
   11bbb    H15  353  -0.356   5.015   7.033 -0.6468 -3.4304 -0.8838
   11bbb    H16  354  -0.213   4.922   6.984 -0.8335 -0.1956 -0.8260
   11bbb     C9  355   0.268   5.080   6.772  0.0816  1.0875 -0.0505
   11bbb    H17  356   0.335   5.013   6.718 -1.4956 -0.9662  0.4038
   11bbb    H18  357   0.317   5.177   6.754  0.3616  1.0256  0.3574
   11bbb     O1  358   0.148   5.573   7.299 -0.1046 -0.0889  0.2313
   11bbb    H19  359   0.061   5.226   6.933 -0.4685 -0.9848 -0.5997
   12bbb     N1  360   1.608   6.227   8.072  0.0301  0.6708 -0.8197
   12bbb     C1  361   1.668   6.227   7.933 -0.0464 -0.2203 -0.0448
   12bbb     H1  362   1.769   6.190   7.950  1.0705  2.4285 -0.3626
   12bbb     H2  363   1.690   6.329   7.901 -1.2572  0.1698  0.3027
   12bbb     C2  364   1.687   6.336   8.153  0.5685 -0.6108  0.2332
   12bbb     H3  365   1.629   6.365   8.241  0.5401 -2.2763  0.7983
   12bbb     H4  366   1.701   6.420   8.086  3.1211 -1.9938 -1.1156
   12bbb     C3  367   1.457   6.257   8.071  0.4300  0.5612  0.4595
   12bbb     H5  368   1.429   6.180   7.999  1.2854  1.6966 -1.1415
   12bbb     H6  369   1.434   6.356   8.034 -1.7736 -0.3785 -0.8589
   12bbb     C4  370   1.389   6.222   8.207 -0.2069 -0.3173 -0.4076
   12bbb     H7  371   1.412   6.297   8.283  2.2873  0.0694 -1.4401
   12bbb     H8  372   1.422   6.124   8.241 -1.7819 -1.0540 -0.8763
   12bbb     C5  373   1.597   6.145   7.815 -0.3776  0.6572 -0.2991
   12bbb     H9  374   1.505   6.199   7.790 -1.1070 -0.5365 -0.2588
   12bbb    H10  375   1.569   6.049   7.859 -0.2118  0.0140 -1.5690
   12bbb     C6  376   1.819   6.290   8.215 -0.2531 -0.4117 -0.3669
   12bbb    H11  377   1.855   6.380   8.266 -0.7512  0.1871 -1.0416
   12bbb    H12  378   1.893   6.276   8.135 -0.9920  0.4670 -1.2280
   12bbb     C7  379   1.240   6.205   8.204  0.0634 -0.5401  0.1462
   12bbb    H13  380   1.225   6.122   8.133 -0.9460  0.0414 -0.3376
   12bbb    H14  381   1.206   6.301   8.164  2.9146  0.8949  0.8910
   12bbb     C8  382   1.816   6.169   8.318  0.2200  0.1718  0.1078
   12bbb    H15  383   1.843   6.075   8.270 -0.6946 -1.6141  2.8555
   12bbb    H16  384   1.891   6.197   8.394  1.0903 -1.1232 -0.2425
   12bbb     C9  385   1.675   6.145   7.681  0.1277 -0.1916  0.4576
   12bbb    H17  386   1.651   6.229   7.615  0.1447  0.2024  0.9533
   12bbb    H18  387   1.648   6.050   7.633  0.9965  0.8367 -2.2356
   12bbb     O1  388   1.174   6.182   8.336 -0.1846  0.0841 -0.4316
   12bbb    H19  389   1.618   6.132   8.111 -0.3215  0.6809 -0.7016
   13bbb     N1  390   0.994   5.391   8.540  0.2008  0.3106 -0.1248
   13bbb     C1  391   1.088   5.412   8.665 -0.2485  0.3283  0.0786
   13bbb     H1  392   1.172   5.343   8.664  0.5491  1.2745 -0.3928
   13bbb     H2  393   1.023   5.391   8.750 -0.1866 -1.8124 -0.3609
   13bbb     C2  394   0.951   5.253   8.530  0.3602  0.7700 -0.0173
   13bbb     H3  395   0.897   5.244   8.436  0.3384  1.0258 -0.0300
   13bbb     H4  396   0.890   5.241   8.619 -0.0320  3.1119  0.0970
   13bbb     C3  397   0.873   5.477   8.553 -0.0735 -0.7490  0.8680
   13bbb     H5  398   0.916   5.576   8.565 -1.7442  0.1833 -0.3404
   13bbb     H6  399   0.819   5.446   8.643 -1.4103  2.0815  1.1351
   13bbb     C4  400   0.781   5.484   8.423  0.0027  0.1419  0.4380
   13bbb     H7  401   0.743   5.385   8.396 -2.2204  1.3496 -1.1299
   13bbb     H8  402   0.837   5.513   8.334 -0.4167 -0.2760  0.0368
   13bbb     C5  403   1.154   5.552   8.680  0.1485 -0.2940 -0.4324
   13bbb     H9  404   1.073   5.616   8.718  0.0256  0.0267 -1.2266
   13bbb    H10  405   1.194   5.582   8.583  2.3355 -0.7577  0.2648
   13bbb     C6  406   1.067   5.146   8.537  0.1318 -0.5992  0.9571
   13bbb    H11  407   1.023   5.046   8.525 -2.3149  0.4175  0.8520
   13bbb    H12  408   1.105   5.147   8.640  0.9525  0.1983  0.6536
   13bbb     C7  409   0.665   5.582   8.446  0.4348 -0.6294  0.2821
   13bbb    H13  410   0.611   5.561   8.539 -0.1247 -0.4220  0.0110
   13bbb    H14  411   0.597   5.573   8.360 -0.6581  1.3480  0.8575
   13bbb     C8  412   1.182   5.152   8.433 -0.3963 -0.7640 -0.1062
   13bbb    H15  413   1.248   5.068   8.459  0.1219 -0.0031  1.1318
   13bbb    H16  414   1.131   5.151   8.336  1.8847  1.6586 -1.4689
   13bbb     C9  415   1.272   5.548   8.779 -0.3975  0.9749  0.9068
   13bbb    H17  416   1.245   5.495   8.871 -1.7091  0.3966  0.2111
   13bbb    H18  417   1.301   5.649   8.810 -0.4210  2.1165 -2.4122
   13bbb     O1  418   0.715   5.722   8.448  0.2157 -0.5903 -0.4721
   13bbb    H19  419   1.042   5.412   8.451  0.0085 -1.7234 -0.7773
   14ccc     C1  420   1.065   7.340   6.341 -0.4714  0.1354  0.0317
   14ccc     C2  421   1.111   7.270   6.475 -0.3028  0.0744 -0.4152
   14ccc     H1  422   1.038   7.443   6.366  0.5793  0.4605 -0.0968
   14ccc     H2  423   1.195   7.322   6.523 -1.6553  1.6104  0.3963
   14ccc     C3  424   0.995   7.281   6.579  0.4838  0.6970 -0.4965
   14ccc     C4  425   0.866   7.226   6.519  0.9354  0.8398 -0.1883
   14ccc     C5  426   0.832   7.290   6.385  0.2010 -0.5984 -0.0578
   14ccc     H3  427   0.882   7.121   6.492 -0.8208  0.9892 -2.0630
   14ccc     H4  428   0.989   7.389   6.599  1.8860  1.2446 -2.6537
   14ccc     H5  429   0.808   7.395   6.406 -1.2570 -0.6394 -1.3313
   14ccc     O1  430   0.730   7.220   6.326 -0.0440 -0.3124 -0.3816
   14ccc     O2  431   0.764   7.248   6.623  0.1801 -0.1745  0.6095
   14ccc     O3  432   1.027   7.212   6.705  0.1105 -0.2958 -0.0023
   14ccc     O4  433   1.152   7.133   6.446  0.1425 -0.0446 -0.2394
   14ccc     C6  434   1.174   7.345   6.234 -0.0676 -0.1161 -0.6041
   14ccc     H6  435   0.955   7.239   6.764  1.7762  0.1284  1.9732
   14ccc     H7  436   1.192   7.151   6.359  0.2541  0.0766 -0.1633
   14ccc     H8  437   0.741   7.155   6.637 -1.8033  0.2837  0.6592
   14ccc     H9  438   1.261   7.410   6.252 -0.3771  1.2459 -3.4767
   14ccc    H10  439   1.138   7.397   6.145  2.7939  3.7878  0.2396
   14ccc     O5  440   1.214   7.205   6.212  0.5050 -0.6713 -0.4224
   14ccc    H11  441   1.246   7.209   6.121  0.5983 -1.2374 -0.4189
   14ccc     O6  442   0.945   7.280   6.290  0.1302 -0.4243 -0.0088
   15ccc     C1  443   0.638   6.727   5.796 -0.4097 -0.0844 -0.2613
   15ccc     C2  444   0.746   6.643   5.853  0.6866  0.7095  0.0342
   15ccc     H1  445   0.674   6.831   5.800 -1.0179  0.1020  0.7837
   15ccc     H2  446   0.838   6.674   5.803  1.0437 -0.8890 -0.3569
   15ccc     C3  447   0.781   6.680   5.999 -0.3722 -0.5275  0.1362
   15ccc     C4  448   0.646   6.668   6.082  0.1279  0.9282  0.4022
   15ccc     C5  449   0.536   6.759   6.019 -0.2152 -0.0218 -0.6091
   15ccc     H3  450   0.611   6.564   6.075 -3.9670  2.2337 -2.8335
   15ccc     H4  451   0.815   6.785   6.005 -1.6168 -0.0501 -0.7241
   15ccc     H5  452   0.578   6.858   6.040 -0.9584  0.5371 -1.6689
   15ccc     O1  453   0.411   6.754   6.089 -0.4472 -0.0089 -0.3810
   15ccc     O2  454   0.677   6.701   6.223 -0.6022  0.1026  0.7160
   15ccc     O3  455   0.881   6.593   6.052  0.0777  0.1777  0.2050
   15ccc     O4  456   0.722   6.507   5.841  0.3570  0.0262  0.2671
   15ccc     C6  457   0.600   6.695   5.647 -0.5267  1.0862 -0.4087
   15ccc     H6  458   0.923   6.645   6.123 -2.0652 -0.6844  2.2324
   15ccc     H7  459   0.811   6.469   5.851  1.2954  1.5408 -1.6505
   15ccc     H8  460   0.749   6.640   6.246 -1.1447 -0.9234 -0.1925
   15ccc     H9  461   0.690   6.702   5.584 -0.6610  0.1965 -0.7106
   15ccc    H10  462   0.518   6.759   5.614 -0.3362  2.2459  1.2641
   15ccc     O5  463   0.550   6.562   5.642 -0.7666 -0.0165  0.2112
   15ccc    H11  464   0.597   6.525   5.718 -0.3939 -1.6640 -0.7815
   15ccc     O6  465   0.519   6.725   5.878  0.2776  0.6049  0.0115
   16ccc     C1  466   0.363   6.345   5.847  0.3559 -0.0680 -0.1580
   16ccc     C2  467   0.284   6.215   5.844  0.2160  0.1968 -0.3997
   16ccc     H1  468   0.386   6.384   5.746  1.9867 -0.3530  0.0718
   16ccc     H2  469   0.183   6.226   5.801  0.8617 -1.0128 -2.3443
   16ccc     C3  470   0.354   6.117   5.750 -0.3920  0.2924 -0.1873
   16ccc     C4  471   0.495   6.086   5.812 -0.8164  0.4064  0.2445
   16ccc     C5  472   0.575   6.208   5.859  0.3271 -0.0735  0.6185
   16ccc     H3  473   0.487   6.023   5.901  2.4224  0.2762  0.5575
   16ccc     H4  474   0.372   6.160   5.651 -1.1931 -0.1419 -0.5323
   16ccc     H5  475   0.639   6.241   5.775 -1.2978  0.1568 -0.5822
   16ccc     O1  476   0.661   6.150   5.955  0.5686  0.0914 -0.3175
   16ccc     O2  477   0.571   6.017   5.714  0.7781 -0.5163 -0.2474
   16ccc     O3  478   0.279   5.991   5.709 -0.1540 -0.5885 -0.3135
   16ccc     O4  479   0.280   6.151   5.977 -0.3914 -0.0519  0.4137
   16ccc     C6  480   0.296   6.453   5.926  0.1825 -0.4591 -0.1852
   16ccc     H6  481   0.227   6.018   5.632 -0.8490  0.9559  0.6383
   16ccc     H7  482   0.264   6.055   5.967  1.8480 -0.5989  1.3393
   16ccc     H8  483   0.519   5.944   5.675 -1.2737  0.5093  0.4315
   16ccc     H9  484   0.214   6.492   5.864  0.3715 -2.7772 -2.0407
   16ccc    H10  485   0.366   6.535   5.949 -2.2169  1.6726 -0.0405
   16ccc     O5  486   0.251   6.400   6.041 -0.3341  0.1554  0.3830
   16ccc    H11  487   0.263   6.304   6.034 -2.7229 -0.2696  1.0013
   16ccc     O6  488   0.489   6.314   5.914 -0.4251 -0.1371  0.4115
   17ccc     C1  489   1.334   6.619   6.494 -0.2831  0.2822 -0.0505
   17ccc     C2  490   1.239   6.731   6.548 -0.5561  0.6094  0.0218
   17ccc     H1  491   1.423   6.661   6.446  0.2539  0.1389  0.7977
   17ccc     H2  492   1.309   6.804   6.591  1.0039 -1.9432  2.1066
   17ccc     C3  493   1.149   6.795   6.439 -0.3926 -0.4120  0.1049
   17ccc     C4  494   1.092   6.689   6.350  0.2876 -0.0424  0.6670
   17ccc     C5  495   1.200   6.598   6.289  0.1202 -0.4189  0.0973
   17ccc     H3  496   1.029   6.630   6.418 -1.7595  4.1099  2.7797
   17ccc     H4  497   1.220   6.847   6.372 -0.2214  0.0360  0.6228
   17ccc     H5  498   1.269   6.660   6.229 -1.3954  3.1585  1.7242
   17ccc     O1  499   1.135   6.494   6.209 -0.7038 -0.0502 -1.1281
   17ccc     O2  500   1.001   6.745   6.246 -0.5564 -0.5434 -0.8180
   17ccc     O3  501   1.061   6.898   6.499 -0.4587 -0.0125 -0.6734
   17ccc     O4  502   1.150   6.676   6.648 -0.1812  0.4754 -0.3013
   17ccc     C6  503   1.392   6.528   6.597  0.2732  0.5606  0.1301
   17ccc     H6  504   1.085   6.991   6.484 -0.6561  0.2492  0.4844
   17ccc     H7  505   1.102   6.758   6.666  2.2564  2.0250 -0.4857
   17ccc     H8  506   1.018   6.841   6.251  0.2837 -0.7496  1.9405
   17ccc     H9  507   1.311   6.470   6.643  1.3796 -2.2712 -1.2666
   17ccc    H10  508   1.438   6.583   6.679 -0.7604  0.3476  0.8731
   17ccc     O5  509   1.486   6.440   6.540  0.7605  0.1689  0.9555
   17ccc    H11  510   1.551   6.502   6.503  1.1763 -1.3736 -1.0532
   17ccc     O6  511   1.277   6.532   6.399 -0.3981 -0.2577  0.0039
   18ccc     C1  512  -0.739   7.449   7.857  1.0478 -0.4507 -0.6618
   18ccc     C2  513  -0.895   7.441   7.868  0.0947 -0.5708 -0.5767
   18ccc     H1  514  -0.715   7.555   7.844  0.3146 -0.1522  0.2537
   18ccc     H2  515  -0.932   7.499   7.954  0.1444 -0.9709 -0.2812
   18ccc     C3  516  -0.967   7.490   7.738 -0.3101 -0.3516  0.0304
   18ccc     C4  517  -0.901   7.427   7.607  0.4908 -0.3957 -0.0800
   18ccc     C5  518  -0.748   7.425   7.608 -0.1337 -0.8396  0.3129
   18ccc     H3  519  -0.942   7.325   7.605  0.0123 -0.2335  0.8296
   18ccc     H4  520  -0.948   7.598   7.736  1.0365 -0.5813 -0.6761
   18ccc     H5  521  -0.721   7.530   7.591 -3.5146  0.3460  1.4879
   18ccc     O1  522  -0.692   7.339   7.503 -0.4117  0.3357 -0.1956
   18ccc     O2  523  -0.961   7.487   7.491  0.4088 -0.6924 -0.2189
   18ccc     O3  524  -1.108   7.467   7.754 -0.1114 -0.1794 -0.2727
   18ccc     O4  525  -0.929   7.307   7.894 -0.5990 -0.2028 -0.5745
   18ccc     C6  526  -0.661   7.400   7.979 -0.3430 -0.0152 -0.3471
   18ccc     H6  527  -1.140   7.428   7.671  0.1756 -0.0662 -0.4365
   18ccc     H7  528  -1.026   7.312   7.903 -0.4012  1.5785  1.2864
   18ccc     H8  529  -0.981   7.411   7.433 -0.1597 -2.1712  1.7783
   18ccc     H9  530  -0.685   7.465   8.064  1.4034  1.3622 -0.8325
   18ccc    H10  531  -0.559   7.420   7.943 -0.5796  0.9709 -0.4979
   18ccc     O5  532  -0.678   7.261   7.989 -0.5993 -0.0158  0.7490
   18ccc    H11  533  -0.773   7.263   7.969 -0.5896 -1.8896  0.3496
   18ccc     O6  534  -0.694   7.382   7.735 -0.3236  0.3373 -0.1448
   19ccc     C1  535  -0.493   6.510   7.600  0.1153  0.4012  0.3872
   19ccc     C2  536  -0.642   6.508   7.614  0.1030  0.2708 -0.6073
   19ccc     H1  537  -0.456   6.457   7.688  0.9094 -1.7460 -1.1390
   19ccc     H2  538  -0.673   6.404   7.629  1.2399  0.0749  0.4788
   19ccc     C3  539  -0.673   6.593   7.743 -0.2567 -0.5230 -0.5122
   19ccc     C4  540  -0.624   6.741   7.729 -0.4752 -0.7903  0.1042
   19ccc     C5  541  -0.475   6.742   7.691  0.0010 -0.4659 -0.5309
   19ccc     H3  542  -0.686   6.779   7.647 -0.9377 -1.1751  0.2660
   19ccc     H4  543  -0.629   6.545   7.832 -2.0544 -1.4758 -0.1021
   19ccc     H5  544  -0.424   6.709   7.782  0.6609  0.5073 -0.5386
   19ccc     O1  545  -0.443   6.878   7.642  0.5636 -0.3970 -0.3680
   19ccc     O2  546  -0.647   6.826   7.843  0.6768 -0.4476  0.2863
   19ccc     O3  547  -0.811   6.589   7.768  0.0265 -0.1493 -0.1576
   19ccc     O4  548  -0.701   6.553   7.490 -0.3611  0.1412 -1.4689
   19ccc     C6  549  -0.449   6.422   7.483  1.0281 -0.7288 -0.1422
   19ccc     H6  550  -0.837   6.679   7.795  2.3465 -0.3560  3.4355
   19ccc     H7  551  -0.789   6.587   7.510 -0.8874 -2.0064  0.1483
   19ccc     H8  552  -0.661   6.918   7.815  0.8500 -0.1983  1.0044
   19ccc     H9  553  -0.489   6.456   7.386  2.3625 -1.2056 -0.8917
   19ccc    H10  554  -0.489   6.320   7.492 -2.1135  0.3549 -0.3390
   19ccc     O5  555  -0.306   6.426   7.478  0.4960  0.1571  0.7759
   19ccc    H11  556  -0.293   6.359   7.409 -0.6045  0.5779  0.1443
   19ccc     O6  557  -0.448   6.647   7.586 -0.2997  0.2528 -0.1632
   20ccc     C1  558  -0.851   7.178   6.216 -0.5716  0.3896 -0.3228
   20ccc     C2  559  -0.844   7.214   6.367  0.6982 -0.0430  0.6006
   20ccc     H1  560  -0.811   7.077   6.201  1.2240  1.0283 -0.0163
   20ccc     H2  561  -0.909   7.151   6.429 -1.0505  0.3090 -0.8042
   20ccc     C3  562  -0.702   7.199   6.422 -0.5464 -0.2653  0.5728
   20ccc     C4  563  -0.600   7.277   6.332  0.6721 -0.0493  0.0331
   20ccc     C5  564  -0.625   7.255   6.178  0.0727 -0.2833  0.2655
   20ccc     H3  565  -0.617   7.385   6.343 -2.3387 -0.3658 -0.8240
   20ccc     H4  566  -0.679   7.092   6.407  2.5924  0.1759  1.5934
   20ccc     H5  567  -0.592   7.156   6.144 -1.8328 -0.2599 -1.9275
   20ccc     O1  568  -0.556   7.357   6.110  0.2266 -0.4162  0.0485
   20ccc     O2  569  -0.455   7.253   6.361 -0.0704  0.1720 -0.3660
   20ccc     O3  570  -0.682   7.250   6.555  0.9365 -0.3540 -0.1135
   20ccc     O4  571  -0.883   7.348   6.365 -0.1591  0.1245 -0.5651
   20ccc     C6  572  -0.989   7.172   6.155  0.0839 -0.9170  0.2999
   20ccc     H6  573  -0.721   7.188   6.619  4.0552 -0.6273  1.6865
   20ccc     H7  574  -0.943   7.340   6.289 -1.7951 -0.6797  0.7564
   20ccc     H8  575  -0.420   7.323   6.418  0.3542 -0.5688  0.3092
   20ccc     H9  576  -1.035   7.086   6.206  0.3306 -0.9597  0.4540
   20ccc    H10  577  -0.983   7.146   6.049 -0.0836  1.8907 -0.4800
   20ccc     O5  578  -1.051   7.298   6.176 -0.3401 -0.6119  0.0772
   20ccc    H11  579  -1.141   7.281   6.143 -0.0364  0.8064 -1.6036
   20ccc     O6  580  -0.764   7.262   6.139  0.1229  0.2355 -0.4433
   21ccc     C1  581  -0.054   8.017   5.380  0.3775 -0.3805 -0.3769
   21ccc     C2  582  -0.053   8.153   5.440  0.8176  0.0931  0.2277
   21ccc     H1  583  -0.157   8.006   5.345  0.0362 -1.8442  0.9476
   21ccc     H2  584  -0.085   8.220   5.359  0.8652 -0.4468 -0.2408
   21ccc     C3  585  -0.161   8.165   5.545 -0.2246 -0.1631  0.1768
   21ccc     C4  586  -0.147   8.062   5.656 -0.3390  0.5491 -0.4424
   21ccc     C5  587  -0.139   7.913   5.598  0.3786 -0.5791 -0.1887
   21ccc     H3  588  -0.053   8.075   5.711 -0.4528 -0.1905 -0.0641
   21ccc     H4  589  -0.258   8.138   5.502  0.1543  1.1957 -1.6254
   21ccc     H5  590  -0.239   7.896   5.554  0.1557  1.8028 -0.7531
   21ccc     O1  591  -0.095   7.822   5.703 -0.3817  0.1620  0.0801
   21ccc     O2  592  -0.261   8.084   5.741 -0.0375 -0.8560  0.1649
   21ccc     O3  593  -0.172   8.299   5.603  0.1644  0.5542  0.0576
   21ccc     O4  594   0.078   8.185   5.492  0.0268 -0.2533 -0.4443
   21ccc     C6  595   0.046   7.993   5.264 -0.0746  0.0058 -0.1805
   21ccc     H6  596  -0.233   8.273   5.674  1.9017  1.6328  2.0514
   21ccc     H7  597   0.096   8.276   5.464  0.0330 -0.1263 -0.0334
   21ccc     H8  598  -0.256   8.022   5.816 -0.6641 -0.2813  0.6832
   21ccc     H9  599   0.148   7.998   5.304  0.1284  0.2634 -0.7194
   21ccc    H10  600   0.031   8.071   5.188 -0.7702 -0.2129 -0.2799
   21ccc     O5  601   0.018   7.865   5.200 -0.4900  0.2855  0.1628
   21ccc    H11  602  -0.067   7.883   5.156 -0.6923 -1.2256 -0.1223
   21ccc     O6  603  -0.046   7.909   5.482  0.3704  0.3552 -0.1637
   22ccc     C1  604  -1.238   4.996   7.287  0.4562 -0.0576 -0.5124
   22ccc     C2  605  -1.183   4.917   7.168  0.1676 -0.1706  0.5922
   22ccc     H1  606  -1.337   5.036   7.263 -0.3424 -0.5495  1.7229
   22ccc     H2  607  -1.255   4.838   7.146  1.9929 -2.1531  1.3964
   22ccc     C3  608  -1.159   5.009   7.044  0.9758  0.4197  0.3581
   22ccc     C4  609  -1.072   5.135   7.080  0.3748  0.7382 -0.0387
   22ccc     C5  610  -1.116   5.190   7.219  0.2563  0.4962  1.0491
   22ccc     H3  611  -0.965   5.112   7.081  0.0557 -0.9333  1.3606
   22ccc     H4  612  -1.262   5.040   7.020  0.4543  0.7530  2.7553
   22ccc     H5  613  -1.201   5.259   7.212 -0.2444 -0.2721 -1.8121
   22ccc     O1  614  -1.001   5.266   7.259 -0.2273 -1.1073 -0.8548
   22ccc     O2  615  -1.104   5.223   6.974 -0.0477 -0.6342 -0.4133
   22ccc     O3  616  -1.098   4.940   6.929  0.4183  0.1520 -0.2852
   22ccc     O4  617  -1.061   4.861   7.215 -0.3082  0.8446 -0.6059
   22ccc     C6  618  -1.255   4.906   7.414  0.3681 -0.3623  0.4662
   22ccc     H6  619  -1.170   4.900   6.878 -0.0832 -0.3012  0.7327
   22ccc     H7  620  -1.035   4.786   7.158  0.3574  0.2474  0.4587
   22ccc     H8  621  -1.099   5.167   6.894  1.6438 -1.3078  0.1070
   22ccc     H9  622  -1.166   4.896   7.477  1.2565  1.4468 -0.4251
   22ccc    H10  623  -1.297   4.809   7.385  0.9205 -0.4519 -0.0617
   22ccc     O5  624  -1.357   4.977   7.483 -0.2309  0.0938  0.0726
   22ccc    H11  625  -1.423   4.999   7.415 -0.7903 -1.4220  0.0781
   22ccc     O6  626  -1.145   5.099   7.321  0.3538 -0.0917 -0.1992
   23ccc     C1  627  -0.576   5.081   6.615  0.4084  0.2179  0.1219
   23ccc     C2  628  -0.713   5.040   6.562 -0.1722  0.2460 -0.4313
   23ccc     H1  629  -0.519   4.987   6.617  1.5286  0.9019  1.2452
   23ccc     H2  630  -0.710   4.986   6.467 -3.1515  0.4256 -0.7387
   23ccc     C3  631  -0.780   4.953   6.674 -0.9068  0.1567  0.1033
   23ccc     C4  632  -0.781   5.027   6.814 -0.7351  0.4192 -0.2068
   23ccc     C5  633  -0.642   5.073   6.855 -0.5377 -0.3652 -0.8271
   23ccc     H3  634  -0.850   5.113   6.813 -0.2078  0.9215  1.9840
   23ccc     H4  635  -0.713   4.866   6.681  0.5597  1.1413 -1.1092
   23ccc     H5  636  -0.590   4.984   6.893 -0.7230 -0.2247 -0.2264
   23ccc     O1  637  -0.664   5.166   6.969 -0.6518  0.1805 -0.1737
   23ccc     O2  638  -0.836   4.933   6.915  0.2152 -0.3012  0.0515
   23ccc     O3  639  -0.913   4.918   6.646 -0.4153 -0.0104 -0.0124
   23ccc     O4  640  -0.792   5.157   6.537  0.0715 -0.1380 -0.1901
   23ccc     C6  641  -0.501   5.170   6.518  0.4500  0.8169 -0.7358
   23ccc     H6  642  -0.905   4.849   6.578  1.2247  1.7535 -1.7369
   23ccc     H7  643  -0.859   5.122   6.475  0.2665  0.2541 -0.6209
   23ccc     H8  644  -0.933   4.937   6.922  0.3379  0.3337  2.3700
   23ccc     H9  645  -0.560   5.258   6.490  0.8142  0.7828 -1.6621
   23ccc    H10  646  -0.482   5.112   6.426 -0.4107  2.1249 -1.7823
   23ccc     O5  647  -0.383   5.206   6.577  0.1884  0.2482 -0.3246
   23ccc    H11  648  -0.323   5.215   6.501 -1.8891 -2.8264 -2.5628
   23ccc     O6  649  -0.581   5.144   6.745  0.2092 -0.2488  0.3858
   24ccc     C1  650  -0.536   4.704   7.149  0.0371 -0.2515  0.2385
   24ccc     C2  651  -0.550   4.674   7.302  0.3442  0.4849 -0.2295
   24ccc     H1  652  -0.489   4.622   7.093  0.2539 -0.8345  1.2461
   24ccc     H2  653  -0.618   4.589   7.315 -0.1467  1.0662  1.2700
   24ccc     C3  654  -0.412   4.633   7.350  0.3162 -0.0286  0.0553
   24ccc     C4  655  -0.315   4.750   7.336 -0.0843 -0.2505  0.3058
   24ccc     C5  656  -0.311   4.801   7.187 -0.0324 -0.1280  0.1435
   24ccc     H3  657  -0.355   4.837   7.391  1.0854  0.7928 -0.4395
   24ccc     H4  658  -0.374   4.558   7.279 -1.2324  1.9784 -3.1489
   24ccc     H5  659  -0.261   4.724   7.126  2.6058  0.1746  1.7804
   24ccc     O1  660  -0.253   4.937   7.187 -0.2792 -0.3611  0.1453
   24ccc     O2  661  -0.182   4.707   7.378 -0.5447 -0.2509 -0.1660
   24ccc     O3  662  -0.415   4.576   7.485  0.2755 -0.4657 -0.2433
   24ccc     O4  663  -0.607   4.792   7.366  0.7332  0.3366  0.0420
   24ccc     C6  664  -0.666   4.737   7.069  0.1673 -0.1701 -0.1504
   24ccc     H6  665  -0.330   4.529   7.481  0.6563  0.2481 -2.8714
   24ccc     H7  666  -0.663   4.807   7.288  0.6253 -1.7641 -0.3422
   24ccc     H8  667  -0.136   4.646   7.317  0.8592  0.8304 -0.2572
   24ccc     H9  668  -0.721   4.645   7.045  1.8460 -0.9266 -1.2691
   24ccc    H10  669  -0.631   4.785   6.977 -1.5697 -0.4545 -1.0043
   24ccc     O5  670  -0.740   4.831   7.150  1.0684 -0.2200 -0.2723
   24ccc    H11  671  -0.796   4.877   7.084  0.6483 -0.4840 -0.1018
   24ccc     O6  672  -0.443   4.812   7.125  0.5746  0.3557 -0.1992
   25ccc     C1  673   0.130   5.368   6.490  0.2304 -0.3538 -0.4174
   25ccc     C2  674  -0.018   5.356   6.445 -0.2898 -0.0462 -0.1195
   25ccc     H1  675   0.191   5.372   6.399 -1.0746  2.1900 -1.2763
   25ccc     H2  676  -0.033   5.419   6.357 -1.2858  0.5581  0.4632
   25ccc     C3  677  -0.054   5.208   6.413  0.5512  0.4700  0.5044
   25ccc     C4  678  -0.015   5.123   6.534  0.3198  0.1663 -0.2136
   25ccc     C5  679   0.128   5.139   6.585 -0.7879 -0.1707  0.1116
   25ccc     H3  680  -0.083   5.171   6.606 -0.2135 -0.8717  0.0112
   25ccc     H4  681   0.012   5.163   6.338  0.1813  0.4702  0.1754
   25ccc     H5  682   0.196   5.084   6.519 -1.5429 -0.9572 -0.0315
   25ccc     O1  683   0.134   5.092   6.722 -0.2716 -0.4226 -0.0804
   25ccc     O2  684  -0.062   4.983   6.503  0.1629 -0.0841 -0.3683
   25ccc     O3  685  -0.201   5.195   6.380  0.4123  0.7939  0.6632
   25ccc     O4  686  -0.105   5.406   6.552 -0.0194  0.7537  0.3323
   25ccc     C6  687   0.147   5.509   6.552  0.0474 -0.4006  0.2904
   25ccc     H6  688  -0.215   5.215   6.286  1.6376 -0.8042  0.0994
   25ccc     H7  689  -0.177   5.442   6.497  0.3816  0.3901 -0.4527
   25ccc     H8  690  -0.158   4.978   6.517  0.3974 -2.1503  0.9880
   25ccc     H9  691   0.137   5.493   6.660 -2.0220 -1.4221 -0.0019
   25ccc    H10  692   0.076   5.582   6.512  1.4087  1.4042  1.0286
   25ccc     O5  693   0.284   5.548   6.538  0.0608 -0.0786 -0.7331
   25ccc    H11  694   0.347   5.479   6.563  0.9362  1.1945  0.7339
   25ccc     O6  695   0.161   5.274   6.587 -0.3161 -0.0577 -0.1332
   26ccc     C1  696   1.807   5.957   8.668  0.1781 -0.4951  0.1817
   26ccc     C2  697   1.681   5.872   8.705 -0.3723  0.2181 -0.0619
   26ccc     H1  698   1.822   6.041   8.737  0.0533  1.2894 -1.8680
   26ccc     H2  699   1.681   5.836   8.809 -1.0381  0.0569 -0.1131
   26ccc     C3  700   1.562   5.955   8.683  0.5589  0.0197  0.2896
   26ccc     C4  701   1.551   6.036   8.547 -0.1805  0.8528 -0.7709
   26ccc     C5  702   1.682   6.114   8.511  0.5544  0.2757 -0.3175
   26ccc     H3  703   1.529   5.951   8.482  0.0323 -0.5174  0.8910
   26ccc     H4  704   1.560   6.029   8.764 -0.9463  0.3360 -0.0018
   26ccc     H5  705   1.691   6.198   8.581 -0.9708  1.1060 -1.0757
   26ccc     O1  706   1.687   6.157   8.371 -0.0112  0.2141  0.3635
   26ccc     O2  707   1.442   6.122   8.549 -0.3122  0.1549  0.0605
   26ccc     O3  708   1.447   5.870   8.699 -0.9768  0.1090 -0.8489
   26ccc     O4  709   1.674   5.754   8.626 -0.3110 -0.0712  0.5646
   26ccc     C6  710   1.943   5.881   8.681 -0.6811  0.0723  0.4207
   26ccc     H6  711   1.461   5.802   8.630 -1.4663 -0.1309 -0.7140
   26ccc     H7  712   1.730   5.682   8.660 -1.4579 -0.8637  0.8475
   26ccc     H8  713   1.368   6.070   8.586 -0.5741  1.0991  0.8840
   26ccc     H9  714   1.943   5.795   8.613 -0.9265 -0.1685  0.7217
   26ccc    H10  715   1.943   5.842   8.783 -2.5727  0.4113  0.5858
   26ccc     O5  716   2.050   5.973   8.661 -1.0851 -0.2890  0.1806
   26ccc    H11  717   2.131   5.934   8.698 -0.1532 -0.4964 -1.9394
   26ccc     O6  718   1.791   6.023   8.538  0.2272  0.6166 -0.7965
   27ccc     C1  719   1.955   5.856   7.541  0.0212  0.1224  0.0596
   27ccc     C2  720   2.102   5.858   7.575  0.1051 -0.5501 -0.5256
   27ccc     H1  721   1.943   5.895   7.439  0.7920 -1.6832 -0.7581
   27ccc     H2  722   2.161   5.798   7.504 -1.5597 -1.1863 -1.4355
   27ccc     C3  723   2.143   6.009   7.575  0.1374  0.1739 -0.3064
   27ccc     C4  724   2.049   6.105   7.659 -0.4701  0.0234 -0.4156
   27ccc     C5  725   1.904   6.075   7.628  0.2585  0.3245 -0.1533
   27ccc     H3  726   2.066   6.080   7.764  0.8955 -0.4628 -0.7241
   27ccc     H4  727   2.131   6.035   7.469 -0.6374 -1.5117 -0.6653
   27ccc     H5  728   1.882   6.107   7.525  1.5162 -0.5963 -0.7446
   27ccc     O1  729   1.815   6.146   7.718  0.5001 -0.1898  0.0411
   27ccc     O2  730   2.086   6.236   7.622  0.3986  0.1970 -0.0733
   27ccc     O3  731   2.275   6.026   7.614  0.1147 -0.0880  0.4466
   27ccc     O4  732   2.105   5.799   7.701 -0.0970  0.2663  0.1718
   27ccc     C6  733   1.900   5.712   7.523  0.1235  0.2148  0.7402
   27ccc     H6  734   2.304   6.111   7.577  0.4615 -0.6893 -0.6979
   27ccc     H7  735   2.028   5.739   7.690 -0.1508 -0.0735  2.0816
   27ccc     H8  736   2.159   6.252   7.685  0.2560  1.6408 -0.2379
   27ccc     H9  737   1.961   5.671   7.441  2.7755 -1.2231  3.2426
   27ccc    H10  738   1.798   5.715   7.483  0.9532  2.3376 -1.4231
   27ccc     O5  739   1.911   5.639   7.649 -0.2207  0.1509  0.0043
   27ccc    H11  740   1.883   5.550   7.622  1.3397 -0.4465  0.2689
   27ccc     O6  741   1.887   5.930   7.637  0.8563 -0.5680 -0.1429
   28ccc     C1  742   1.564   5.176   8.241  0.5556  0.0596 -0.1118
   28ccc     C2  743   1.647   5.301   8.260 -0.4072  0.0089 -0.2698
   28ccc     H1  744   1.513   5.170   8.144 -0.3869 -1.7997  0.4411
   28ccc     H2  745   1.721   5.308   8.180 -0.7616  1.0115 -0.5263
   28ccc     C3  746   1.564   5.427   8.247  0.3722 -0.2169  0.2557
   28ccc     C4  747   1.442   5.422   8.341 -0.1591  0.1055 -0.2524
   28ccc     C5  748   1.366   5.281   8.331 -0.0150 -0.0476 -0.5251
   28ccc     H3  749   1.465   5.443   8.446 -1.1582  1.5479 -0.2865
   28ccc     H4  750   1.532   5.427   8.142 -0.6158 -0.8748  0.5456
   28ccc     H5  751   1.324   5.280   8.230 -0.7806  0.4284 -0.2188
   28ccc     O1  752   1.263   5.268   8.435  0.0936 -0.5279 -0.2883
   28ccc     O2  753   1.353   5.529   8.297 -0.6498  0.2634  0.4535
   28ccc     O3  754   1.639   5.551   8.274  0.2475 -0.1800 -0.3122
   28ccc     O4  755   1.701   5.291   8.391 -0.0946 -0.1257 -0.3681
   28ccc     C6  756   1.637   5.043   8.244 -0.0426 -0.5918 -0.4790
   28ccc     H6  757   1.709   5.558   8.207  0.4719  1.0612  0.0197
   28ccc     H7  758   1.794   5.265   8.374 -0.0011  0.5534 -0.9613
   28ccc     H8  759   1.409   5.582   8.238 -0.7499 -1.0915 -0.9147
   28ccc     H9  760   1.664   5.019   8.348 -1.2639 -1.6652 -0.3900
   28ccc    H10  761   1.729   5.036   8.185 -0.0440 -1.1732 -0.4227
   28ccc     O5  762   1.539   4.946   8.197  0.0415 -0.0308 -0.1035
   28ccc    H11  763   1.501   4.921   8.284 -0.6030  0.2680 -0.2935
   28ccc     O6  764   1.451   5.173   8.341  0.0682  0.4752 -0.3266
   29ccc     C1  765   1.657   5.512   8.944 -1.0492 -0.6354  0.2688
   29ccc     C2  766   1.770   5.480   8.843  0.0551 -0.3912 -0.2879
   29ccc     H1  767   1.649   5.423   9.007  0.6581 -0.6672  0.5068
   29ccc     H2  768   1.844   5.443   8.916 -1.3810  0.9350  1.9549
   29ccc     C3  769   1.736   5.370   8.749  0.0497  0.3141  0.5184
   29ccc     C4  770   1.596   5.393   8.680  0.2549 -0.0367 -0.4294
   29ccc     C5  771   1.492   5.441   8.781  0.8033  0.0913  1.1019
   29ccc     H3  772   1.621   5.473   8.609  1.1172 -0.3075 -0.4392
   29ccc     H4  773   1.726   5.281   8.812 -0.8882  0.4662  0.5955
   29ccc     H5  774   1.455   5.363   8.848 -1.7085  2.0520  2.1652
   29ccc     O1  775   1.379   5.487   8.702  0.2073  0.6171  0.0624
   29ccc     O2  776   1.559   5.267   8.605  0.1734 -0.7171  0.0049
   29ccc     O3  777   1.846   5.349   8.660 -0.0749 -0.4568  0.1410
   29ccc     O4  778   1.811   5.599   8.777 -0.3572  0.3226  0.0603
   29ccc     C6  779   1.696   5.627   9.035  0.3268 -1.2089 -0.3048
   29ccc     H6  780   1.850   5.426   8.601  0.6587  0.0095  0.7742
   29ccc     H7  781   1.907   5.603   8.789  0.2477 -1.9525 -2.8404
   29ccc     H8  782   1.624   5.273   8.532 -0.1961 -1.1087 -0.3586
   29ccc     H9  783   1.705   5.720   8.978  1.3457 -0.5972  0.7997
   29ccc    H10  784   1.793   5.608   9.084  1.0374  2.6267  0.0513
   29ccc     O5  785   1.594   5.628   9.135 -0.1544  0.1910  0.4646
   29ccc    H11  786   1.510   5.646   9.090  0.7598 -1.8052 -2.3439
   29ccc     O6  787   1.546   5.546   8.861  0.1119 -0.3300  0.1568
   30SOL     OW  788   7.857   0.836   4.397  0.1372  0.3859 -0.2567
   30SOL    HW1  789   7.891   0.822   4.486  0.5778  0.8651 -0.3428
   30SOL    HW2  790   7.825   0.926   4.398 -1.4687 -0.1443 -0.0811
   31SOL     OW  791   1.705   2.778   4.350  0.7033  0.4399 -0.2936
   31SOL    HW1  792   1.723   2.871   4.363 -0.2921  0.5176  0.6491
   31SOL    HW2  793   1.766   2.752   4.280  2.3135  1.3477  0.6919
   32SOL     OW  794   5.442   3.595   1.947  0.1599  0.3407 -0.3655
   32SOL    HW1  795   5.536   3.585   1.964  0.4721  1.1325 -1.5480
   32SOL    HW2  796   5.405   3.622   2.031  0.5330 -2.5388  0.8354
   33SOL     OW  797   4.731   5.643   1.865  0.5327 -0.3094  0.3234
   33SOL    HW1  798   4.723   5.675   1.775 -1.0056 -0.4898  0.3641
   33SOL    HW2  799   4.779   5.712   1.911 -1.1555  1.1576 -0.0050
   34SOL     OW  800   0.280   3.138   4.587 -0.3403  0.6829 -0.2884
   34SOL    HW1  801   0.232   3.172   4.663 -0.6691  1.7304 -0.9506
   34SOL    HW2  802   0.356   3.194   4.579 -0.2746  0.5378 -0.7000
   35SOL     OW  803   6.872   4.268   3.590  0.2975  0.6352 -0.3073
   35SOL    HW1  804   6.833   4.270   3.502 -0.3521  0.3351 -0.0316
   35SOL    HW2  805   6.798   4.250   3.648  0.4871  2.1159  0.4397
   36SOL     OW  806   7.283   4.639   7.946 -0.1246 -0.3097  0.1646
   36SOL    HW1  807   7.234   4.605   7.870  1.0138 -0.7945 -0.3683
   36SOL    HW2  808   7.299   4.563   8.001 -0.0969 -0.1229  0.4192
   37SOL     OW  809   7.385   6.866   6.593 -0.2766  0.4892  0.7189
   37SOL    HW1  810   7.352   6.843   6.506  0.4788  1.2993  0.1938
   37SOL    HW2  811   7.456   6.928   6.576 -0.6710  1.3255  1.9583
   38SOL     OW  812   1.750   6.451   4.445  0.6746 -0.4156  0.2326
   38SOL    HW1  813   1.660   6.437   4.414  0.6031 -1.7615  1.0110
   38SOL    HW2  814   1.770   6.375   4.499  2.6981 -0.7303 -0.8365
   39SOL     OW  815   5.151   0.903   6.345 -0.2825 -0.3414  0.0972
   39SOL    HW1  816   5.155   0.821   6.395 -3.1389 -0.8615 -0.4018
   39SOL    HW2  817   5.113   0.879   6.261 -0.8801  1.4441 -0.1854
   40SOL     OW  818   0.804   4.915   7.014 -0.4525  0.2130 -0.6644
   40SOL    HW1  819   0.828   4.827   6.985  1.8697  0.6234 -0.1483
   40SOL    HW2  820   0.831   4.972   6.943 -0.6286  0.6443 -0.3852
   41SOL     OW  821   1.478   0.998   3.398 -0.5516 -0.2407 -0.4634
   41SOL    HW1  822   1.432   0.971   3.319 -1.1246 -0.6391 -0.0029
   41SOL    HW2  823   1.424   1.068   3.436 -0.5202 -0.3643 -0.1853
   42SOL     OW  824   5.802   1.544   2.248 -0.4225  0.0813 -0.0544
   42SOL    HW1  825   5.840   1.540   2.160 -0.0858 -1.1082  0.1278
   42SOL    HW2  826   5.763   1.457   2.261 -0.0263  0.0729  1.1737
   43SOL     OW  827   6.826   3.964   2.866 -0.2105  0.3902  0.1724
   43SOL    HW1  828   6.854   4.042   2.914 -1.2779  0.8707  0.0303
   43SOL    HW2  829   6.817   3.897   2.934 -1.4922  1.0045  0.6361
   44SOL     OW  830   0.472   2.438   2.041  0.0718  1.1050  0.1853
   44SOL    HW1  831   0.491   2.410   2.130 -1.4460  1.0504  0.5201
   44SOL    HW2  832   0.502   2.366   1.986  1.1709  1.2101  0.6377
   45SOL     OW  833   7.891   6.382   0.856 -0.5012  0.0125 -0.1498
   45SOL    HW1  834   7.844   6.407   0.776  0.7295 -0.8059 -1.1674
   45SOL    HW2  835   7.930   6.464   0.887  0.8358  0.0187 -1.6639
   46SOL     OW  836   2.766   5.324   2.342  0.3291  0.2481  0.1634
   46SOL    HW1  837   2.761   5.412   2.304  0.9867  0.1452 -0.1678
   46SOL    HW2  838   2.675   5.295   2.345  0.0377  1.1555  0.7993
   47SOL     OW  839   0.484   3.530   0.762  0.1451  0.2074 -0.0701
   47SOL    HW1  840   0.517   3.576   0.839 -0.8069 -0.2099  0.6087
   47SOL    HW2  841   0.518   3.441   0.771 -0.8839 -0.1513  0.4905
   48SOL     OW  842   0.750   2.203   2.812  0.5744 -0.0913 -0.2543
   48SOL    HW1  843   0.844   2.201   2.829  0.6390 -0.4585 -0.6391
   48SOL    HW2  844   0.742   2.230   2.721  0.2117  2.4856  0.4629
   49SOL     OW  845   5.063   5.748   2.842 -0.2295  0.7106  0.1951
   49SOL    HW1  846   4.971   5.724   2.847  0.1391 -0.7593  0.3607
   49SOL    HW2  847   5.102   5.709   2.921  0.7852  0.0733 -0.5978
   50SOL     OW  848   1.625   2.380   4.263  0.6816  0.4074  0.1704
   50SOL    HW1  849   1.662   2.428   4.337  1.6617 -2.5094  1.7518
   50SOL    HW2  850   1.670   2.295   4.265 -1.3704 -0.8595 -2.0230
   51SOL     OW  851   6.144   4.172   7.549  0.0855  0.6227 -0.1161
   51SOL    HW1  852   6.132   4.261   7.515 -0.1098  0.4756 -0.4412
   51SOL    HW2  853   6.162   4.184   7.642 -0.3561  0.9782 -0.0752
   52SOL     OW  854   2.744   2.717   5.125 -0.6641 -0.4549 -0.6785
   52SOL    HW1  855   2.791   2.785   5.077  0.5414 -0.8953 -0.1695
   52SOL    HW2  856   2.755   2.740   5.217 -0.2534 -1.3210 -0.4984
   53SOL     OW  857   7.690   2.200   4.260 -0.7499  0.3663 -0.3111
   53SOL    HW1  858   7.744   2.213   4.182  0.4637  3.3630  0.8545
   53SOL    HW2  859   7.678   2.288   4.296 -1.9432 -0.7870  2.4506
   54SOL     OW  860   7.586   1.406   6.623  0.0923  0.7214  0.0580
   54SOL    HW1  861   7.611   1.497   6.606  0.7255  0.6008  0.3051
   54SOL    HW2  862   7.509   1.391   6.568  2.5238  0.0690 -3.5310
   55SOL     OW  863   2.475   3.947   6.819  0.2359 -0.5869 -0.1209
   55SOL    HW1  864   2.492   3.860   6.856 -0.4567 -0.4568  0.5114
   55SOL    HW2  865   2.407   3.984   6.874  1.5424  0.9590  0.5110
   56SOL     OW  866   7.249   7.232   2.596  0.4133 -0.0855 -0.0729
   56SOL    HW1  867   7.272   7.216   2.505  0.5350 -1.3184  0.1601
   56SOL    HW2  868   7.252   7.327   2.605  1.0715  0.0130 -1.1726
   57SOL     OW  869   6.539   6.904   3.470  0.0413  0.1292  0.3732
   57SOL    HW1  870   6.577   6.947   3.394  1.8729 -1.1454  0.5189
   57SOL    HW2  871   6.607   6.908   3.537 -1.0825  0.1401  1.5620
   58SOL     OW  872   0.917   2.653   7.876  0.1652  0.1135 -0.2757
   58SOL    HW1  873   0.870   2.736   7.863  2.7978  1.5983 -1.1110
   58SOL    HW2  874   0.880   2.594   7.810 -2.5347  0.1571  1.0555
   59SOL     OW  875   2.522   0.130   5.918 -0.0833  0.3312 -0.1314
   59SOL    HW1  876   2.585   0.149   5.988 -2.4433  0.5211  2.0809
   59SOL    HW2  877   2.514   0.034   5.919  2.2649 -0.0086 -2.4953
   60SOL     OW  878   1.921   7.327   2.810  0.6145 -0.0804  0.4557
   60SOL    HW1  879   2.001   7.351   2.763  0.6096  0.4134  0.6962
   60SOL    HW2  880   1.852   7.376   2.766  0.5930  0.2898  0.8971
   61SOL     OW  881   3.462   4.122   7.559  0.2784  0.1978 -0.2182
   61SOL    HW1  882   3.391   4.059   7.546  0.0800  0.3342  0.1832
   61SOL    HW2  883   3.482   4.116   7.652  0.1515  0.8422 -0.1440
   62SOL     OW  884   6.336   6.838   3.630  0.3000 -0.2754 -0.4559
   62SOL    HW1  885   6.304   6.912   3.681 -0.1240 -1.7584  1.5342
   62SOL    HW2  886   6.402   6.876   3.572  1.3783  1.4001  1.7335
   63SOL     OW  887   3.625   0.824   7.136 -0.5147 -0.2127  0.0456
   63SOL    HW1  888   3.593   0.787   7.219  1.4710  0.7787  1.3537
   63SOL    HW2  889   3.579   0.907   7.127 -0.8358 -0.3852  0.1019
   64SOL     OW  890   5.214   4.532   2.631  0.1491  0.5880 -0.4074
   64SOL    HW1  891   5.267   4.592   2.684  0.4120  1.0801 -1.2100
   64SOL    HW2  892   5.170   4.588   2.568  2.7062 -0.2303 -3.1815
   65SOL     OW  893   7.597   6.067   2.751  0.0998  0.6167 -0.0798
   65SOL    HW1  894   7.593   6.123   2.828  5.6247  0.4832  0.7367
   65SOL    HW2  895   7.571   5.981   2.781  1.1883  0.7921  1.4743
   66SOL     OW  896   2.092   0.334   4.929 -0.4125  0.0550  0.1454
   66SOL    HW1  897   2.168   0.276   4.917 -1.4252 -1.1356 -0.8322
   66SOL    HW2  898   2.105   0.372   5.016 -0.6068 -3.1228  1.7282
   67SOL     OW  899   1.040   4.557   0.238 -0.0837  0.7020 -0.2486
   67SOL    HW1  900   0.998   4.515   0.314 -0.5178  2.2494  0.3982
   67SOL    HW2  901   0.971   4.560   0.171  0.3999 -0.9838 -0.8769
   68SOL     OW  902   0.734   1.620   0.031 -0.1251 -0.1523  0.2146
   68SOL    HW1  903   0.690   1.565  -0.034  0.2252 -0.0592 -0.1010
   68SOL    HW2  904   0.704   1.709   0.012 -1.0077 -0.2698  0.9790
   69SOL     OW  905   4.019   3.212   2.655 -0.4097 -0.2771 -0.0274
   69SOL    HW1  906   4.014   3.124   2.691 -1.5742  0.5069  1.8396
   69SOL    HW2  907   3.980   3.204   2.567 -0.6379 -1.5735  0.1709
   70SOL     OW  908   6.887   7.770   5.893 -0.0393 -0.4556  0.0394
   70SOL    HW1  909   6.878   7.721   5.811 -0.0166 -0.1674 -0.1383
   70SOL    HW2  910   6.916   7.705   5.957 -0.7940 -0.8453 -0.0010
   71SOL     OW  911   6.892   4.148   5.149  0.2035  0.2965 -0.1626
   71SOL    HW1  912   6.837   4.101   5.211 -2.8301 -0.1424 -2.9330
   71SOL    HW2  913   6.944   4.080   5.106  1.6806  0.5075  1.2057
   72SOL     OW  914   0.442   5.557   0.750  0.0933 -0.3325 -0.1268
   72SOL    HW1  915   0.389   5.540   0.827 -0.1362  0.5062 -0.0845
   72SOL    HW2  916   0.471   5.648   0.760 -2.0415  0.6843 -2.2332
   73SOL     OW  917   2.470   0.624   3.699  0.6220  0.4780 -0.0625
   73SOL    HW1  918   2.549   0.637   3.647  0.8722  0.9508  0.4313
   73SOL    HW2  919   2.462   0.703   3.751  0.1978  0.1415  0.3932
   74SOL     OW  920   4.826   1.720   6.298  0.0685 -0.3489  0.1616
   74SOL    HW1  921   4.900   1.705   6.358 -0.2173 -0.5737  0.4582
   74SOL    HW2  922   4.781   1.796   6.335  1.7208  1.5885 -1.5292
   75SOL     OW  923   6.585   3.346   1.957 -0.2740 -0.2889 -0.1086
   75SOL    HW1  924   6.666   3.351   1.907 -0.0154 -0.5308  0.2791
   75SOL    HW2  925   6.587   3.259   1.998 -2.1879 -1.5754 -2.5165
   76SOL     OW  926   5.119   6.482   0.319 -0.4614  0.2809  0.0996
   76SOL    HW1  927   5.148   6.554   0.374  0.0173  0.9267 -0.9566
   76SOL    HW2  928   5.181   6.481   0.246 -1.1577 -0.4412 -0.5066
   77SOL     OW  929   3.792   6.052   4.659 -0.0377 -0.2480 -0.3925
   77SOL    HW1  930   3.772   6.045   4.566  1.8799 -0.3676 -0.8249
   77SOL    HW2  931   3.886   6.068   4.663 -0.2999  1.1965  1.4797
   78SOL     OW  932   0.166   7.456   3.060 -0.2493 -0.0059  0.2870
   78SOL    HW1  933   0.122   7.379   3.024 -1.7040  0.9585 -0.1349
   78SOL    HW2  934   0.221   7.488   2.989 -1.6850  0.8227 -0.5126
   79SOL     OW  935   0.197   4.474   5.497  0.1317  0.1620  0.0557
   79SOL    HW1  936   0.267   4.539   5.493  0.4876 -0.2337 -0.2662
   79SOL    HW2  937   0.214   4.424   5.577  0.7777 -0.5440 -0.5048
   80SOL     OW  938   1.028   3.660   0.837 -0.8963  0.2317  0.0758
   80SOL    HW1  939   0.962   3.591   0.843 -1.1424  0.5142  0.7172
   80SOL    HW2  940   0.977   3.741   0.828 -0.6086  0.3057 -1.1106
   81SOL     OW  941   5.709   7.884   2.923 -0.0093  0.1696 -0.2139
   81SOL    HW1  942   5.769   7.811   2.906 -1.0727 -0.4221 -1.5718
   81SOL    HW2  943   5.676   7.867   3.012  0.1116 -0.7519 -0.3305
   82SOL     OW  944   4.684   3.167   7.542 -0.4849 -0.0110  0.3640
   82SOL    HW1  945   4.609   3.210   7.584  0.6008  1.2754  1.0393
   82SOL    HW2  946   4.664   3.172   7.448 -0.4510  1.9152  0.4190
   83SOL     OW  947   3.915   4.944   2.552 -0.2797 -0.2390 -0.0718
   83SOL    HW1  948   3.970   4.913   2.624  0.5552  0.9194 -0.1887
   83SOL    HW2  949   3.832   4.969   2.593  0.1383  0.2648  0.4728
   84SOL     OW  950   0.467   2.456   3.704 -0.0254  0.2352  0.1167
   84SOL    HW1  951   0.551   2.482   3.665  0.1475  1.3009  1.1255
   84SOL    HW2  952   0.481   2.464   3.798 -0.5145 -2.0189  0.4333
   85SOL     OW  953   6.558   7.256   2.308  0.2944  0.1249 -0.1639
   85SOL    HW1  954   6.500   7.284   2.238  1.3737 -0.7224 -1.4511
   85SOL    HW2  955   6.642   7.298   2.287  0.0950  1.6794  1.8902
   86SOL     OW  956   3.866   0.587   3.359  0.0844 -0.0250 -0.2479
   86SOL    HW1  957   3.907   0.594   3.445  0.7235  1.7297 -0.6630
   86SOL    HW2  958   3.772   0.600   3.376  0.1593 -0.0845  0.2216
   87SOL     OW  959   7.035   0.150   4.405 -0.0622  0.1541 -0.2580
   87SOL    HW1  960   7.003   0.165   4.316  0.2288 -1.5383 -0.6757
   87SOL    HW2  961   7.005   0.062   4.427  1.1094 -0.0225  0.7484
   88SOL     OW  962   7.837   0.571   4.338  0.5230 -0.7561  0.4523
   88SOL    HW1  963   7.827   0.662   4.367 -2.7999 -0.6125 -0.6559
   88SOL    HW2  964   7.793   0.520   4.406 -1.0589 -1.0890 -0.7573
   89SOL     OW  965   2.520   2.088   0.497 -0.1074 -0.4286  0.0605
   89SOL    HW1  966   2.545   2.149   0.566  0.0611  0.4050 -0.7218
   89SOL    HW2  967   2.482   2.143   0.429  0.5249 -1.1286 -0.8874
   90SOL     OW  968   7.397   4.530   3.497 -0.3597  0.4917 -0.4751
   90SOL    HW1  969   7.442   4.511   3.580 -0.6529 -0.6393 -0.5623
   90SOL    HW2  970   7.334   4.598   3.520  0.6090  1.2987 -0.1151
   91SOL     OW  971   6.028   7.285   5.374 -0.3245 -0.1259 -0.1323
   91SOL    HW1  972   6.073   7.284   5.289  0.1105  0.2531  0.0898
   91SOL    HW2  973   5.970   7.209   5.370 -0.8231  0.2851 -1.0414
   92SOL     OW  974   3.102   4.147   4.994 -0.0759  0.1306 -0.6628
   92SOL    HW1  975   3.019   4.173   5.033  0.8100  1.7999  0.2245
   92SOL    HW2  976   3.117   4.058   5.025 -0.5927  0.5291  0.7825
   93SOL     OW  977   0.828   2.033   0.353 -1.0249  0.3217 -0.0599
   93SOL    HW1  978   0.874   2.085   0.419 -1.1237  0.3404 -0.0048
   93SOL    HW2  979   0.866   1.946   0.359 -2.1503 -0.1191  1.1620
   94SOL     OW  980   2.903   1.585   0.446  0.0294  0.2259  0.1271
   94SOL    HW1  981   2.946   1.505   0.415  1.7215  1.3177 -0.4948
   94SOL    HW2  982   2.872   1.564   0.534  0.7315 -1.0055  0.0903
   95SOL     OW  983   5.996   2.055   7.911  0.2986  0.2217  0.3540
   95SOL    HW1  984   6.008   2.132   7.855 -1.2404  0.0876 -0.1999
   95SOL    HW2  985   6.046   2.075   7.991  1.5730  0.9054 -0.5731
   96SOL     OW  986   0.395   6.438   4.330  0.1626  0.2550 -0.2248
   96SOL    HW1  987   0.437   6.414   4.248 -2.3124 -1.7515 -1.0496
   96SOL    HW2  988   0.392   6.357   4.381 -3.4183 -0.0779 -0.6695
   97SOL     OW  989   7.215   7.649   0.840  0.0137  0.0510  0.1265
   97SOL    HW1  990   7.244   7.728   0.887  0.3089  0.2912 -0.4469
   97SOL    HW2  991   7.283   7.634   0.774 -0.1786 -0.5314  0.0576
   98SOL     OW  992   5.530   1.721   4.512  0.6394 -0.0114 -0.3951
   98SOL    HW1  993   5.511   1.663   4.586 -1.0114  0.2265 -0.5858
   98SOL    HW2  994   5.477   1.800   4.529  0.4406  0.1598 -1.6741
   99SOL     OW  995   6.781   4.507   6.494  0.5871 -0.3154  0.2281
   99SOL    HW1  996   6.749   4.427   6.536 -0.8055 -0.3344 -0.7737
   99SOL    HW2  997   6.842   4.477   6.427 -1.9498 -0.8453 -1.9954
  100SOL     OW  998   6.084   0.610   1.058 -0.5828  0.0109  0.9201
  100SOL    HW1  999   6.126   0.686   1.097 -1.6187  1.0066  0.1405
  100SOL    HW2 1000   5.996   0.639   1.035 -0.0898 -0.5112 -2.1003
  101SOL     OW 1001   3.161   0.879   2.237 -0.1173 -0.0921  0.2150
  101SOL    HW1 1002   3.116   0.953   2.196  1.3809  0.3510 -0.7197
  101SOL    HW2 1003   3.221   0.919   2.300  0.5067 -0.5136 -0.0961
  102SOL     OW 1004   4.188   2.849   5.087  0.5281  0.7937 -0.1423
  102SOL    HW1 1005   4.223   2.889   5.166 -1.7057  1.7430  0.4485
  102SOL    HW2 1006   4.227   2.899   5.015 -1.1516  3.2611  0.5418
  103SOL     OW 1007   6.314   1.755   6.697 -0.2074 -0.1187 -0.0956
  103SOL    HW1 1008   6.242   1.815   6.675 -0.0104 -0.1196 -0.7639
  103SOL    HW2 1009   6.390   1.813   6.709 -0.6147  0.0410  2.1124
  104SOL     OW 1010   2.965   3.712   3.647 -0.2042 -0.1246 -1.3062
  104SOL    HW1 1011   3.048   3.731   3.603 -0.2579  0.1885 -1.2726
  104SOL    HW2 1012   2.954   3.617   3.638  1.4308 -0.5923  0.9230
  105SOL     OW 1013   4.163   5.216   5.137  0.8761 -0.0668  0.1819
  105SOL    HW1 1014   4.182   5.218   5.044  0.2572 -1.3176  0.0085
  105SOL    HW2 1015   4.209   5.139   5.170  2.7711  1.4905  1.3336
  106SOL     OW 1016   7.196   5.459   2.127  0.3561 -0.0522  0.4307
  106SOL    HW1 1017   7.103   5.482   2.133  0.2469 -0.5728  0.7649
  106SOL    HW2 1018   7.234   5.529   2.074 -0.4662 -0.5410 -0.8669
  107SOL     OW 1019   7.763   7.383   5.491  0.3176 -0.5315 -0.4936
  107SOL    HW1 1020   7.717   7.344   5.416  0.5214 -0.4885 -0.6403
  107SOL    HW2 1021   7.844   7.418   5.454  1.7141 -2.8396  0.1722
  108SOL     OW 1022   1.346   6.277   4.481  0.2280 -0.7466  0.5204
  108SOL    HW1 1023   1.297   6.359   4.486  0.4826 -0.4880 -0.9127
  108SOL    HW2 1024   1.369   6.258   4.572 -1.8189 -0.4721  1.1470
  109SOL     OW 1025   6.277   0.656   0.265 -0.3221 -0.3602 -0.3437
  109SOL    HW1 1026   6.253   0.594   0.334  0.1176  0.2665  0.3775
  109SOL    HW2 1027   6.358   0.621   0.228  0.7287  0.5332  1.0410
  110SOL     OW 1028   6.219   4.134   7.115  0.0253  0.2190 -0.5469
  110SOL    HW1 1029   6.187   4.164   7.030  0.4377  0.8103 -0.5034
  110SOL    HW2 1030   6.300   4.088   7.094 -0.9008 -1.3958 -0.6722
  111SOL     OW 1031   6.794   7.939   1.757 -0.1692  0.1357 -0.1320
  111SOL    HW1 1032   6.775   7.863   1.812 -0.1726 -0.6788 -1.2206
  111SOL    HW2 1033   6.855   7.992   1.809  1.2500 -1.5041 -0.0392
  112SOL     OW 1034   7.777   4.148   1.317  0.2726  0.0114  0.1866
  112SOL    HW1 1035   7.786   4.126   1.225  1.9776 -1.5987  0.6914
  112SOL    HW2 1036   7.763   4.243   1.318 -1.0397 -0.1219 -1.7557
  113SOL     OW 1037   0.453   1.595   3.135 -0.1963  0.1422  0.7990
  113SOL    HW1 1038   0.497   1.523   3.090 -0.8819 -0.9544  1.8360
  113SOL    HW2 1039   0.360   1.573   3.132 -0.5784  1.6785 -0.0445
  114SOL     OW 1040   5.122   3.379   0.110 -0.4281 -0.3806  0.4698
  114SOL    HW1 1041   5.203   3.404   0.066 -0.6004  1.2839  1.0231
  114SOL    HW2 1042   5.122   3.283   0.108  1.8164 -0.4454  0.9273
  115SOL     OW 1043   3.204   3.635   1.747  0.1899  0.1669  0.1137
  115SOL    HW1 1044   3.297   3.630   1.727  0.2338 -3.1628  0.6156
  115SOL    HW2 1045   3.199   3.621   1.842 -0.7885  2.2669  0.4428
  116SOL     OW 1046   3.193   5.818   3.643  0.1899 -0.6808  0.1925
  116SOL    HW1 1047   3.122   5.767   3.603 -0.9244 -0.2877  1.5891
  116SOL    HW2 1048   3.154   5.904   3.661  1.5218  0.1149 -0.5126
  117SOL     OW 1049   4.398   7.355   2.144  0.0509  0.0022  0.3789
  117SOL    HW1 1050   4.380   7.338   2.051  1.3545  0.1010  0.0944
  117SOL    HW2 1051   4.429   7.271   2.178  1.2613  0.3825  0.2805
  118SOL     OW 1052   0.013   3.465   4.775 -0.0899  0.3352 -0.4415
  118SOL    HW1 1053  -0.072   3.509   4.760  0.6427  1.3998 -1.7033
  118SOL    HW2 1054   0.061   3.479   4.694  1.2860 -0.3175  0.2410
  119SOL     OW 1055   7.781   4.426   1.306  0.5975  0.0872 -0.0180
  119SOL    HW1 1056   7.868   4.465   1.292 -1.0664  4.2659 -0.1899
  119SOL    HW2 1057   7.744   4.476   1.379 -1.5254 -1.9880  0.4642
  120SOL     OW 1058   1.718   5.185   1.099  0.1626 -0.0550 -0.2278
  120SOL    HW1 1059   1.771   5.120   1.054 -0.1648 -0.5744  0.1287
  120SOL    HW2 1060   1.781   5.245   1.138  0.4586  0.0855 -0.9085
  121SOL     OW 1061   6.064   1.359   3.045  0.2957  0.1395 -0.2378
  121SOL    HW1 1062   6.130   1.420   3.078  0.2882  0.2213 -0.3724
  121SOL    HW2 1063   6.065   1.286   3.108 -0.1636  0.5772  0.2836
  122SOL     OW 1064   1.743   4.753   0.521  0.3003  0.1794 -0.9997
  122SOL    HW1 1065   1.800   4.778   0.448  0.1894 -2.4327 -2.1093
  122SOL    HW2 1066   1.667   4.811   0.512  2.4024  3.3560  0.1900
  123SOL     OW 1067   1.909   1.160   0.078  0.1036 -0.3956  0.4116
  123SOL    HW1 1068   1.822   1.157   0.117  0.0320 -0.2881  0.2591
  123SOL    HW2 1069   1.940   1.249   0.095 -0.8297  0.4038 -1.7404
  124SOL     OW 1070   4.700   2.699   5.669  0.2278 -0.3711  0.1640
  124SOL    HW1 1071   4.708   2.615   5.714  0.5564 -0.0502  0.7190
  124SOL    HW2 1072   4.614   2.732   5.695 -0.1627 -0.8011 -0.5367
  125SOL     OW 1073   0.075   6.043   0.098  0.2160 -0.6831  0.0678
  125SOL    HW1 1074   0.035   6.125   0.130 -1.2531 -2.0923  2.0891
  125SOL    HW2 1075   0.019   6.017   0.025 -0.8017 -1.0778  0.9570
  126SOL     OW 1076   7.451   0.940   5.908 -0.3540 -0.4026 -0.3102
  126SOL    HW1 1077   7.414   1.024   5.882  1.4135  0.2966 -0.7136
  126SOL    HW2 1078   7.544   0.947   5.886  0.4653 -1.3045  2.4530
  127SOL     OW 1079   4.957   5.279   6.457 -0.0387 -0.1387 -0.2664
  127SOL    HW1 1080   4.981   5.203   6.510 -2.8198 -1.5790 -0.9189
  127SOL    HW2 1081   4.947   5.350   6.520  1.1667 -0.6348  0.5255
  128SOL     OW 1082   5.690   6.469   0.723  0.1191 -0.4552 -0.2272
  128SOL    HW1 1083   5.610   6.477   0.671  0.1977  1.9284 -0.0955
  128SOL    HW2 1084   5.660   6.441   0.809 -0.8223  1.6486  0.2080
  129SOL     OW 1085   1.193   1.178   4.448 -0.0564  0.1546 -0.5290
  129SOL    HW1 1086   1.233   1.126   4.517 -1.1461  0.1892  0.1593
  129SOL    HW2 1087   1.221   1.268   4.465 -0.8934  0.2677  0.3099
  130SOL     OW 1088   5.614   7.037   0.476  0.1625  0.0959  0.0605
  130SOL    HW1 1089   5.678   7.025   0.407  1.0582  2.8226  0.3144
  130SOL    HW2 1090   5.530   7.046   0.430  0.6999  1.5373 -0.6693
  131SOL     OW 1091   1.059   4.835   4.911  0.4845  0.5868  0.1240
  131SOL    HW1 1092   1.071   4.922   4.950  0.6923  0.4118  0.4553
  131SOL    HW2 1093   1.119   4.833   4.836 -0.5205  1.2350 -0.7318
  132SOL     OW 1094   4.981   5.465   5.036  0.5150 -0.1895  0.2829
  132SOL    HW1 1095   4.958   5.508   4.954 -1.2632  0.5914  1.1344
  132SOL    HW2 1096   5.074   5.442   5.026  0.9399  1.8585 -1.0876
  133SOL     OW 1097   7.159   6.354   3.049 -0.0321 -0.4402  0.2486
  133SOL    HW1 1098   7.171   6.407   2.970 -0.9648  0.9435  0.9908
  133SOL    HW2 1099   7.219   6.393   3.113  1.1302 -1.9034  0.0972
  134SOL     OW 1100   7.189   6.445   6.368 -0.1814 -0.0162  0.2693
  134SOL    HW1 1101   7.096   6.427   6.352 -0.0045 -0.9640  0.2382
  134SOL    HW2 1102   7.231   6.360   6.360  0.7799  0.4998 -0.2878
  135SOL     OW 1103   3.697   4.725   7.975 -0.1854  0.8707  0.2536
  135SOL    HW1 1104   3.710   4.802   8.029  1.7477  1.6783 -1.2383
  135SOL    HW2 1105   3.779   4.676   7.983 -0.6221  0.0022 -0.3987
  136SOL     OW 1106   0.020   0.752   6.724 -0.3356 -0.3084 -0.2425
  136SOL    HW1 1107   0.115   0.754   6.736 -0.1472 -1.1581 -1.5137
  136SOL    HW2 1108  -0.014   0.716   6.807  0.6110 -1.9413 -0.5267
  137SOL     OW 1109   4.755   4.887   7.287  0.7060 -0.1784 -0.1352
  137SOL    HW1 1110   4.835   4.872   7.237  1.2752 -1.3158  1.0425
  137SOL    HW2 1111   4.754   4.816   7.352 -0.6864  0.4614  0.5859
  138SOL     OW 1112   3.180   1.740   1.249  0.2888 -0.4850 -0.5281
  138SOL    HW1 1113   3.198   1.656   1.291  0.2664 -0.2755 -0.0916
  138SOL    HW2 1114   3.188   1.722   1.156  1.1835 -0.7620 -0.4109
  139SOL     OW 1115   2.246   7.412   4.592  0.2952 -0.1557  0.6161
  139SOL    HW1 1116   2.207   7.332   4.628  0.6760  0.2859  2.1098
  139SOL    HW2 1117   2.189   7.483   4.624  0.7731  0.2708  0.5383
  140SOL     OW 1118   2.570   0.158   5.314  0.2296 -0.0446  0.3511
  140SOL    HW1 1119   2.573   0.063   5.322 -1.4906 -0.0257  1.9204
  140SOL    HW2 1120   2.593   0.191   5.401 -2.9835  0.7880  1.0229
  141SOL     OW 1121   2.871   7.971   1.419 -0.8168  0.2234  0.3237
  141SOL    HW1 1122   2.848   7.879   1.431 -1.2294  0.0830 -1.3133
  141SOL    HW2 1123   2.960   7.978   1.452 -0.3168 -1.0724 -0.6595
  142SOL     OW 1124   6.470   6.256   2.691  0.2798  0.6997 -0.1438
  142SOL    HW1 1125   6.555   6.296   2.712  0.7233 -1.8903  4.4998
  142SOL    HW2 1126   6.492   6.168   2.660 -0.7281  0.7843 -1.1534
  143SOL     OW 1127   6.206   0.834   1.259 -0.1454  0.4383  0.2033
  143SOL    HW1 1128   6.249   0.882   1.329 -1.1149  0.7528  0.6085
  143SOL    HW2 1129   6.127   0.885   1.240 -1.5253 -1.2551  1.0504
  144SOL     OW 1130   1.993   2.455   1.343  0.1661  0.1664  0.3252
  144SOL    HW1 1131   1.940   2.376   1.345  1.0279 -0.5222 -1.9301
  144SOL    HW2 1132   1.929   2.527   1.346 -0.7837 -0.6327 -0.2488
  145SOL     OW 1133   7.109   2.963   3.717  0.0407 -0.1854 -0.0576
  145SOL    HW1 1134   7.060   2.895   3.671 -3.3064  1.3784  0.9463
  145SOL    HW2 1135   7.129   2.924   3.802 -1.9111  0.0057  0.5355
  146SOL     OW 1136   3.722   6.493   1.751 -0.0569 -0.0245  0.1512
  146SOL    HW1 1137   3.639   6.453   1.777  0.2868 -1.2924 -0.6392
  146SOL    HW2 1138   3.770   6.506   1.832 -0.0215 -1.6009  0.4040
  147SOL     OW 1139   7.467   6.821   2.922  0.0491  0.2264  0.3613
  147SOL    HW1 1140   7.485   6.892   2.983 -0.4054  0.0609  0.6841
  147SOL    HW2 1141   7.451   6.866   2.838 -0.3492  0.5110  0.5871
  148SOL     OW 1142   4.580   6.886   5.209  0.6086  0.2703 -0.3612
  148SOL    HW1 1143   4.577   6.982   5.212 -0.6431  0.2891 -1.4635
  148SOL    HW2 1144   4.662   6.864   5.252  0.4733  1.7937  0.7595
  149SOL     OW 1145   3.103   7.381   6.308  0.5061 -0.4358 -0.0725
  149SOL    HW1 1146   3.155   7.351   6.233  1.2814  2.1417 -0.6816
  149SOL    HW2 1147   3.140   7.335   6.383  1.9404 -0.6394 -0.8585
  150SOL     OW 1148   2.299   7.207   5.869  0.3549 -0.1802 -0.2035
  150SOL    HW1 1149   2.393   7.189   5.875  0.3424  0.0775  1.4576
  150SOL    HW2 1150   2.293   7.289   5.820  1.0031 -0.2392 -0.3852
  151SOL     OW 1151   4.225   3.329   0.075 -0.2057 -0.4632  0.2442
  151SOL    HW1 1152   4.229   3.272  -0.002 -0.0983 -0.2953  0.1244
  151SOL    HW2 1153   4.304   3.307   0.124  0.2986  0.1932 -0.2399
  152SOL     OW 1154   3.072   2.965   3.335  0.4749  1.4801  0.7692
  152SOL    HW1 1155   3.063   2.901   3.265  1.2722  2.1882 -0.0054
  152SOL    HW2 1156   3.092   3.047   3.290  0.9426  1.9578  1.8142
  153SOL     OW 1157   7.052   5.083   0.588  0.6474 -0.3199  0.4057
  153SOL    HW1 1158   7.104   5.032   0.651  2.7503 -0.0281 -0.9795
  153SOL    HW2 1159   7.087   5.057   0.503 -1.1603  0.3375 -0.5730
  154SOL     OW 1160   2.578   1.416   6.500  0.4154 -0.0355 -0.3188
  154SOL    HW1 1161   2.519   1.491   6.487 -0.4410 -0.1786  2.2865
  154SOL    HW2 1162   2.532   1.343   6.460  1.0788  0.6842 -2.5401
  155SOL     OW 1163   4.441   2.269   2.488 -0.3605  0.2900  0.0719
  155SOL    HW1 1164   4.357   2.224   2.500 -0.5110  0.4127 -0.4733
  155SOL    HW2 1165   4.417   2.360   2.471 -0.1970  0.0998 -1.3157
  156SOL     OW 1166   6.479   6.190   7.400 -0.0331  0.6543 -0.0704
  156SOL    HW1 1167   6.461   6.177   7.493  1.5197 -1.2510  0.0357
  156SOL    HW2 1168   6.421   6.262   7.374  0.8925  2.6406  2.8123
  157SOL     OW 1169   7.253   1.551   0.285  0.0231 -0.2244 -0.1278
  157SOL    HW1 1170   7.297   1.595   0.358  0.2902 -0.6102 -0.0543
  157SOL    HW2 1171   7.214   1.622   0.235  2.5612  0.3593 -1.4531
  158SOL     OW 1172   7.206   5.682   6.571  0.0264  0.0506  0.5229
  158SOL    HW1 1173   7.208   5.586   6.565  0.3304  0.1004 -0.4940
  158SOL    HW2 1174   7.128   5.707   6.522  1.4035  0.4255 -1.6337
  159SOL     OW 1175   1.935   2.613   7.677  0.0154 -0.1940  0.1621
  159SOL    HW1 1176   1.995   2.685   7.654  1.4344 -1.6379 -0.8733
  159SOL    HW2 1177   1.895   2.641   7.759 -0.5228  2.3834 -0.8575
  160SOL     OW 1178   4.558   7.590   6.377  0.1842 -0.2794  0.0836
  160SOL    HW1 1179   4.541   7.630   6.462  1.3201 -1.1573  0.7469
  160SOL    HW2 1180   4.647   7.555   6.384  1.2596  1.6722 -2.2444
  161SOL     OW 1181   6.548   1.273   7.633 -0.5054 -0.5994  0.2910
  161SOL    HW1 1182   6.476   1.335   7.633 -0.6455 -0.7602  0.1928
  161SOL    HW2 1183   6.622   1.322   7.598 -0.3529 -0.1955  1.1673
  162SOL     OW 1184   0.987   5.103   3.383  0.3413 -0.0310 -0.4748
  162SOL    HW1 1185   0.899   5.142   3.382  1.1177  1.8488 -0.5953
  162SOL    HW2 1186   1.000   5.077   3.474 -0.6244 -1.0531 -0.6103
  163SOL     OW 1187   6.533   1.863   7.594 -0.0310  0.3002 -0.2250
  163SOL    HW1 1188   6.596   1.932   7.574  0.3007  0.1945  0.4423
  163SOL    HW2 1189   6.455   1.886   7.543  0.3597  0.7152 -0.6468
  164SOL     OW 1190   4.359   6.675   1.171 -0.2881 -0.1975 -0.1240
  164SOL    HW1 1191   4.282   6.730   1.184 -0.3677 -0.7935  2.3895
  164SOL    HW2 1192   4.421   6.732   1.125 -1.2993  1.1151  0.0746
  165SOL     OW 1193   6.383   6.402   4.216 -0.1781 -0.5715  0.3737
  165SOL    HW1 1194   6.400   6.476   4.274 -2.1787  0.6791 -0.5327
  165SOL    HW2 1195   6.307   6.359   4.254  1.4962 -2.8419  1.4244
  166SOL     OW 1196   4.825   7.307   2.918 -0.3107 -0.5821 -0.0272
  166SOL    HW1 1197   4.750   7.365   2.929  0.7613  0.5468  1.7362
  166SOL    HW2 1198   4.864   7.300   3.005  0.0310 -3.3978 -0.3191
  167SOL     OW 1199   6.807   4.864   1.471 -0.2271  0.0196  0.2903
  167SOL    HW1 1200   6.752   4.795   1.435  1.2655 -0.8926 -0.3127
  167SOL    HW2 1201   6.816   4.842   1.564  0.6577 -0.9088 -0.0027
  168SOL     OW 1202   6.321   0.119   1.488 -0.1817 -0.2614 -0.3012
  168SOL    HW1 1203   6.339   0.092   1.398 -0.5980 -0.6189 -0.2759
  168SOL    HW2 1204   6.381   0.066   1.541 -1.8374 -2.0940 -0.1450
  169SOL     OW 1205   7.027   0.705   7.109  0.8190  0.3243  0.0269
  169SOL    HW1 1206   6.973   0.737   7.037  0.9696 -0.4863 -0.4647
  169SOL    HW2 1207   6.967   0.655   7.164  0.9638 -0.1773 -0.2636
  170SOL     OW 1208   2.769   4.584   5.831 -0.6480  0.0235 -0.1114
  170SOL    HW1 1209   2.789   4.526   5.904  1.9032  1.4455  0.4255
  170SOL    HW2 1210   2.762   4.525   5.755  2.4814 -1.0444  0.2939
  171SOL     OW 1211   1.417   2.174   3.387  0.0543 -0.2533  0.1678
  171SOL    HW1 1212   1.453   2.149   3.302  1.0397  3.3067 -0.6464
  171SOL    HW2 1213   1.322   2.171   3.374  0.1578  1.6539 -1.6738
  172SOL     OW 1214   5.355   4.183   6.964 -0.2199 -0.0659 -0.3405
  172SOL    HW1 1215   5.264   4.209   6.976  0.4382  2.3800 -0.1612
  172SOL    HW2 1216   5.376   4.132   7.042 -1.0271  0.6084  0.3356
  173SOL     OW 1217   3.784   6.315   7.949  0.2644  0.7393 -0.4539
  173SOL    HW1 1218   3.878   6.324   7.964  0.1241 -0.1298  1.1009
  173SOL    HW2 1219   3.760   6.394   7.901  2.0534  0.2336 -2.3217
  174SOL     OW 1220   3.121   7.510   7.709 -0.3759 -0.4409 -0.7341
  174SOL    HW1 1221   3.045   7.539   7.658  0.7421 -0.5811 -2.5760
  174SOL    HW2 1222   3.187   7.578   7.695  0.9234 -1.8568 -1.8694
  175SOL     OW 1223   2.143   2.722   0.202 -0.8847 -0.0351  0.5942
  175SOL    HW1 1224   2.177   2.641   0.240 -0.0975  0.8684  1.9044
  175SOL    HW2 1225   2.072   2.749   0.261 -1.9667 -0.3861 -0.5110
  176SOL     OW 1226   3.649   1.651   6.334 -0.3440 -0.6579 -0.0295
  176SOL    HW1 1227   3.602   1.568   6.349 -1.0174 -0.7875 -2.4417
  176SOL    HW2 1228   3.696   1.666   6.416  0.7478 -4.0338  0.1301
  177SOL     OW 1229   1.207   6.438   3.047  0.2291  0.3598  0.3081
  177SOL    HW1 1230   1.207   6.346   3.071 -2.5514  0.2248  0.0886
  177SOL    HW2 1231   1.246   6.482   3.123  1.4428 -0.9222  0.4817
  178SOL     OW 1232   7.540   7.211   1.030 -0.0768 -0.0647 -0.5946
  178SOL    HW1 1233   7.599   7.250   1.093 -0.7678  0.5167 -0.2980
  178SOL    HW2 1234   7.562   7.253   0.947  0.7978 -0.7950 -0.7521
  179SOL     OW 1235   4.912   3.542   7.951  0.4954  0.5786 -0.0946
  179SOL    HW1 1236   4.881   3.543   8.042 -0.7556  0.0434 -0.4876
  179SOL    HW2 1237   4.961   3.460   7.943  2.7639  1.7768  0.7355
  180SOL     OW 1238   3.420   0.183   6.803 -0.1136 -0.6254 -0.4591
  180SOL    HW1 1239   3.472   0.200   6.881  2.0138  0.3767 -2.0203
  180SOL    HW2 1240   3.361   0.258   6.796 -2.2552 -1.9753  1.5571
  181SOL     OW 1241   2.982   7.726   0.926  0.1702 -0.2188  1.2171
  181SOL    HW1 1242   2.982   7.634   0.953 -0.9129 -0.2669  1.1078
  181SOL    HW2 1243   3.065   7.738   0.881  0.3583 -1.1297  1.3011
  182SOL     OW 1244   1.506   0.042   4.144 -0.5959 -0.1384 -0.6952
  182SOL    HW1 1245   1.598   0.022   4.127 -0.7359 -1.5552  0.0098
  182SOL    HW2 1246   1.459  -0.035   4.113 -1.8304  1.4797 -3.1741
  183SOL     OW 1247   2.946   5.889   7.172 -0.0332  0.0176 -0.4329
  183SOL    HW1 1248   3.012   5.950   7.141  0.3340 -0.5107 -0.7151
  183SOL    HW2 1249   2.863   5.932   7.155  0.2432  1.0369  0.6559
  184SOL     OW 1250   3.621   7.354   2.878 -0.1201 -0.0929 -0.3400
  184SOL    HW1 1251   3.565   7.405   2.820  0.2018 -0.1603 -0.7158
  184SOL    HW2 1252   3.607   7.392   2.964  0.1862  0.7014 -0.6293
  185SOL     OW 1253   7.525   6.201   3.648  0.0719 -0.2097  0.5039
  185SOL    HW1 1254   7.548   6.291   3.672 -0.6337 -0.0483  0.6015
  185SOL    HW2 1255   7.504   6.206   3.555 -1.4979  0.0602  0.8395
  186SOL     OW 1256   2.482   3.818   2.227  0.2286 -0.1435  0.4373
  186SOL    HW1 1257   2.439   3.839   2.310  0.4845 -1.5958  0.9574
  186SOL    HW2 1258   2.502   3.725   2.233  3.4700  0.4458  0.1970
  187SOL     OW 1259   7.743   7.244   3.037 -0.0256  0.4841  0.3610
  187SOL    HW1 1260   7.834   7.268   3.051  0.4507 -1.6999  1.3638
  187SOL    HW2 1261   7.695   7.294   3.103  0.4886  1.2661  0.1567
  188SOL     OW 1262   3.528   4.667   7.522  0.0997 -0.3793  0.2778
  188SOL    HW1 1263   3.564   4.580   7.504  0.9176 -0.0749  0.3845
  188SOL    HW2 1264   3.604   4.718   7.551 -0.2874  0.4922 -0.2194
  189SOL     OW 1265   3.987   5.563   5.376  0.2472  0.2576 -1.1159
  189SOL    HW1 1266   3.936   5.637   5.408 -0.1531 -0.1831 -0.7215
  189SOL    HW2 1267   4.011   5.514   5.455  1.0775  0.3265 -1.3160
  190SOL     OW 1268   6.870   6.225   4.406  0.4441  0.3694 -0.0836
  190SOL    HW1 1269   6.803   6.294   4.403 -0.6253 -0.3009  3.3422
  190SOL    HW2 1270   6.819   6.144   4.415  1.6722 -0.3029  1.0988
  191SOL     OW 1271   7.742   4.531   1.554  0.1947 -0.0589 -0.0730
  191SOL    HW1 1272   7.651   4.505   1.561  0.1255  0.1175 -0.2751
  191SOL    HW2 1273   7.791   4.466   1.605 -0.2876  1.4256  2.4479
  192SOL     OW 1274   3.242   4.892   1.980  0.1892  0.2455  0.2882
  192SOL    HW1 1275   3.317   4.846   1.943 -0.6764 -2.3203  1.4572
  192SOL    HW2 1276   3.229   4.852   2.066 -2.7918  0.2153 -0.0534
  193SOL     OW 1277   7.425   3.557   2.273 -0.0035 -0.7027 -0.1876
  193SOL    HW1 1278   7.356   3.558   2.208  1.3655 -0.9497 -1.7162
  193SOL    HW2 1279   7.381   3.533   2.355 -1.7509 -0.4684 -1.0149
  194SOL     OW 1280   4.445   0.513   1.796 -0.2794 -0.2279  0.1074
  194SOL    HW1 1281   4.378   0.581   1.793  0.6891  0.7166 -1.1381
  194SOL    HW2 1282   4.397   0.431   1.794 -1.4164  0.4304 -0.1234
  195SOL     OW 1283   7.101   1.100   5.682 -0.1066 -0.1765 -0.1527
  195SOL    HW1 1284   7.044   1.075   5.755  0.3095 -0.9983 -0.0977
  195SOL    HW2 1285   7.135   1.186   5.706 -1.6510  0.5364 -0.3863
  196SOL     OW 1286   5.813   2.637   0.315  0.1945 -0.2770  0.3246
  196SOL    HW1 1287   5.770   2.683   0.388  0.4778 -0.2454  0.4733
  196SOL    HW2 1288   5.830   2.706   0.250 -0.2382 -0.3406  0.1429
  197SOL     OW 1289   7.789   0.613   1.558  0.1178 -0.3823  0.0558
  197SOL    HW1 1290   7.855   0.567   1.609  0.0775 -1.6690 -1.0273
  197SOL    HW2 1291   7.758   0.682   1.618 -0.0201 -1.8952  1.8204
  198SOL     OW 1292   4.134   2.328   1.711 -0.1117 -0.2591  0.2988
  198SOL    HW1 1293   4.144   2.413   1.670  0.6540 -0.7598 -0.5873
  198SOL    HW2 1294   4.110   2.348   1.802  2.5542  0.9794  0.8208
  199SOL     OW 1295   2.856   0.574   1.916 -0.4201 -0.2235 -0.2250
  199SOL    HW1 1296   2.886   0.486   1.936 -4.0336 -2.5251 -3.4249
  199SOL    HW2 1297   2.892   0.592   1.829  1.3356  2.2205  0.8689
  200SOL     OW 1298   6.502   3.103   7.115  0.3511 -0.5800 -0.3036
  200SOL    HW1 1299   6.572   3.044   7.088  0.7740 -1.7274  2.8795
  200SOL    HW2 1300   6.422   3.063   7.081  0.8957 -1.4382 -0.5913
  201SOL     OW 1301   3.614   0.085   2.554 -0.2567  0.4681  0.1237
  201SOL    HW1 1302   3.661   0.065   2.635  1.1669 -0.6915 -0.9349
  201SOL    HW2 1303   3.522   0.072   2.576 -0.1465  2.4599  2.1644
  202SOL     OW 1304   4.620   4.474   5.741  0.7769  0.1877  0.7544
  202SOL    HW1 1305   4.656   4.411   5.679 -0.5080  1.2454 -1.1975
  202SOL    HW2 1306   4.526   4.455   5.743  0.2579  2.2479 -0.2860
  203SOL     OW 1307   2.060   2.257   5.373  0.1860  0.3446  0.0696
  203SOL    HW1 1308   2.070   2.279   5.281  0.7602  0.2934  0.1171
  203SOL    HW2 1309   2.150   2.253   5.407 -0.0283  0.6032  0.6842
  204SOL     OW 1310   7.727   2.478   4.333 -0.1486  0.2595  0.3550
  204SOL    HW1 1311   7.749   2.571   4.329  2.0648 -0.2192 -0.1499
  204SOL    HW2 1312   7.782   2.443   4.403 -0.9273 -0.6901  0.5261
  205SOL     OW 1313   7.226   5.588   4.753 -0.4742 -0.1105  0.0236
  205SOL    HW1 1314   7.211   5.576   4.847 -0.8365 -0.2268 -0.0463
  205SOL    HW2 1315   7.263   5.676   4.745 -0.6850 -0.0010  0.2483
  206SOL     OW 1316   0.838   6.920   0.130 -0.5389  0.1520  0.7418
  206SOL    HW1 1317   0.851   6.986   0.061  0.7252 -0.8989 -0.0726
  206SOL    HW2 1318   0.758   6.948   0.175  0.8836  3.2270  1.6151
  207SOL     OW 1319   0.250   0.995   4.967 -0.1170  0.2683 -0.6938
  207SOL    HW1 1320   0.275   0.904   4.979  0.3853  0.5133  0.2223
  207SOL    HW2 1321   0.161   0.992   4.934 -0.8200 -0.5160  1.1733
  208SOL     OW 1322   2.675   6.801   3.844  0.0780  0.1042  0.6101
  208SOL    HW1 1323   2.674   6.896   3.833 -0.8472  0.0634  0.2206
  208SOL    HW2 1324   2.745   6.771   3.787  2.1445  0.7417  2.6655
  209SOL     OW 1325   7.509   4.127   7.249  0.1309 -0.0619 -0.3539
  209SOL    HW1 1326   7.533   4.193   7.315  0.5775 -0.0873 -0.4858
  209SOL    HW2 1327   7.586   4.120   7.193 -0.2167 -0.0996 -0.8349
  210SOL     OW 1328   2.773   4.383   7.472 -0.0456  0.3102  0.1338
  210SOL    HW1 1329   2.864   4.398   7.499  0.0520 -0.7860  0.4910
  210SOL    HW2 1330   2.756   4.451   7.407  0.5013  1.5316  1.2087
  211SOL     OW 1331   7.967   3.883   5.871  1.0994 -0.2730 -0.1628
  211SOL    HW1 1332   7.983   3.814   5.806 -0.4457 -0.5162 -0.3278
  211SOL    HW2 1333   7.978   3.839   5.955 -0.5480 -0.9391 -0.2601
  212SOL     OW 1334   4.412   0.601   2.741  0.0568  0.5216  0.2086
  212SOL    HW1 1335   4.505   0.602   2.765  0.1569 -0.2889 -0.1026
  212SOL    HW2 1336   4.389   0.508   2.743 -0.9408  0.7713  1.0077
  213SOL     OW 1337   1.467   7.192   1.423 -0.0995 -0.0101  0.0044
  213SOL    HW1 1338   1.486   7.103   1.451  2.6600  0.3997 -0.3529
  213SOL    HW2 1339   1.435   7.236   1.502  1.8326 -0.4244  1.0657
  214SOL     OW 1340   5.743   3.352   5.035 -0.4842 -0.2693 -0.0248
  214SOL    HW1 1341   5.796   3.347   5.114 -0.4406 -0.7000 -0.0754
  214SOL    HW2 1342   5.677   3.284   5.046 -0.6995 -0.0874 -0.1957
  215SOL     OW 1343   7.654   2.291   6.402  0.5117  0.2852 -0.3457
  215SOL    HW1 1344   7.610   2.337   6.474 -2.3803 -1.2556 -0.9881
  215SOL    HW2 1345   7.656   2.355   6.331 -0.9406  0.3257 -0.3661
  216SOL     OW 1346   3.300   5.954   2.033 -0.2660 -0.1773 -0.1596
  216SOL    HW1 1347   3.344   5.884   1.984  0.3441 -0.6098  0.9713
  216SOL    HW2 1348   3.300   5.924   2.123  0.1698  1.3622  0.3808
  217SOL     OW 1349   1.072   4.689   2.014 -0.1899 -0.4924  0.1494
  217SOL    HW1 1350   0.999   4.628   2.019  0.5482 -1.4474 -0.2323
  217SOL    HW2 1351   1.082   4.707   1.920 -0.7959  0.7198  0.3093
  218SOL     OW 1352   3.490   6.690   4.251 -0.5799  0.0108 -0.1439
  218SOL    HW1 1353   3.521   6.780   4.246  2.7998 -1.0464 -0.4425
  218SOL    HW2 1354   3.415   6.687   4.190  0.2341  2.2074 -1.3750
  219SOL     OW 1355   1.590   1.082   2.587  0.0435  0.3764 -0.4474
  219SOL    HW1 1356   1.502   1.114   2.605 -0.8967 -1.9271 -0.7122
  219SOL    HW2 1357   1.637   1.159   2.553 -1.2345  2.1486  1.5150
  220SOL     OW 1358   5.221   1.874   2.868  0.1184  0.1437  0.0495
  220SOL    HW1 1359   5.292   1.818   2.834 -1.4069 -1.4129 -0.7223
  220SOL    HW2 1360   5.141   1.828   2.843 -1.1780  1.8382  0.9418
  221SOL     OW 1361   2.157   0.337   4.319 -0.1993 -0.4556 -0.1926
  221SOL    HW1 1362   2.170   0.400   4.247 -0.4791 -0.5556 -0.3303
  221SOL    HW2 1363   2.202   0.258   4.289 -1.3756 -0.9120 -0.8166
  222SOL     OW 1364   0.155   3.601   1.601  0.2690 -0.0163  0.5460
  222SOL    HW1 1365   0.060   3.592   1.597  0.3466 -0.2691 -2.4106
  222SOL    HW2 1366   0.170   3.695   1.599  0.0806  0.0062 -1.7061
  223SOL     OW 1367   7.120   1.029   2.054 -0.1643 -0.0002 -0.0924
  223SOL    HW1 1368   7.056   1.060   1.990 -1.3590 -0.1727  0.9785
  223SOL    HW2 1369   7.205   1.056   2.018 -0.9065  1.2690 -0.9696
  224SOL     OW 1370   1.789   2.187   1.026  0.3144 -0.1000  0.6394
  224SOL    HW1 1371   1.783   2.093   1.009 -0.5700 -0.4939  2.7865
  224SOL    HW2 1372   1.881   2.208   1.014  0.8855 -1.6575  1.8959
  225SOL     OW 1373   5.582   2.829   2.747 -0.4077  0.4361 -0.0087
  225SOL    HW1 1374   5.577   2.748   2.697  3.3258 -0.1889  0.3002
  225SOL    HW2 1375   5.607   2.895   2.682 -1.1110  0.8377  0.1266
  226SOL     OW 1376   4.737   4.176   6.043  0.3248 -0.3059  0.3659
  226SOL    HW1 1377   4.673   4.109   6.019  0.1590 -1.0067  2.5396
  226SOL    HW2 1378   4.820   4.145   6.007 -0.0449 -0.8510 -0.0174
  227SOL     OW 1379   6.403   6.773   3.161  0.2284 -0.2497  0.2160
  227SOL    HW1 1380   6.411   6.868   3.170  0.6969 -0.3741  1.3137
  227SOL    HW2 1381   6.330   6.749   3.219 -1.8547 -0.2779 -2.2068
  228SOL     OW 1382   3.824   3.257   1.840 -0.1058  0.0273  0.1078
  228SOL    HW1 1383   3.896   3.321   1.836  1.1953 -1.3599  0.2568
  228SOL    HW2 1384   3.856   3.182   1.789 -1.1727 -0.9086  0.7692
  229SOL     OW 1385   2.857   5.035   6.014 -0.0432  0.1082  0.0696
  229SOL    HW1 1386   2.908   5.069   6.087  0.3739 -0.1525 -0.0975
  229SOL    HW2 1387   2.885   4.944   6.006  2.0649  0.8365 -2.2084
  230SOL     OW 1388   4.963   3.666   4.730  0.4875 -0.1908 -0.2755
  230SOL    HW1 1389   4.963   3.761   4.720 -0.0651 -0.1357  0.1761
  230SOL    HW2 1390   4.895   3.636   4.669 -0.1701 -0.1876  0.4429
  231SOL     OW 1391   5.020   0.208   1.944  0.0520  0.5411 -0.2766
  231SOL    HW1 1392   4.997   0.281   2.001 -0.8797  1.1131 -1.3290
  231SOL    HW2 1393   5.106   0.231   1.909  1.0120 -0.2022  1.4546
  232SOL     OW 1394   7.605   3.789   4.256 -0.1643  0.0920 -0.3279
  232SOL    HW1 1395   7.649   3.872   4.241  0.9480 -0.2719  0.7351
  232SOL    HW2 1396   7.601   3.747   4.170  0.7567  0.5198 -0.5855
  233SOL     OW 1397   7.254   5.941   5.418  0.0669  0.0948  0.5484
  233SOL    HW1 1398   7.171   5.893   5.410  0.3985 -0.2978 -0.9621
  233SOL    HW2 1399   7.320   5.878   5.390  0.6712  0.9622 -0.0176
  234SOL     OW 1400   1.257   2.177   3.687 -0.0983 -0.3542  0.1775
  234SOL    HW1 1401   1.321   2.111   3.716  1.7842  0.7859 -1.1426
  234SOL    HW2 1402   1.310   2.255   3.669 -2.1779  1.3850  1.1726
  235SOL     OW 1403   2.576   2.594   0.353  0.0856 -0.4828 -0.2949
  235SOL    HW1 1404   2.565   2.512   0.305  0.5029 -1.4196  1.1207
  235SOL    HW2 1405   2.489   2.610   0.392  0.4544 -1.3065  0.9517
  236SOL     OW 1406   6.335   1.920   1.528  0.0169 -0.0000 -0.6587
  236SOL    HW1 1407   6.354   1.827   1.544 -0.5738  0.1608  1.2917
  236SOL    HW2 1408   6.331   1.958   1.616 -0.9917  1.6170 -1.3775
  237SOL     OW 1409   1.119   0.008   0.224  0.0622 -0.1118 -0.0781
  237SOL    HW1 1410   1.184   0.078   0.226 -1.4561  1.3732 -0.6905
  237SOL    HW2 1411   1.159  -0.063   0.274  1.0015  1.7507  1.9558
  238SOL     OW 1412   5.154   1.159   5.512  0.4712  0.1726 -0.0824
  238SOL    HW1 1413   5.201   1.080   5.484 -1.1332 -1.9220  2.6065
  238SOL    HW2 1414   5.079   1.165   5.453  0.7269 -0.1825 -0.4505
  239SOL     OW 1415   3.077   3.445   5.320  0.3592  0.3297 -0.1060
  239SOL    HW1 1416   2.994   3.489   5.338  0.8012  0.6221  1.3596
  239SOL    HW2 1417   3.135   3.474   5.390  1.8692  0.5270 -1.3820
  240SOL     OW 1418   5.105   4.200   2.157 -0.1213 -0.2520 -0.1532
  240SOL    HW1 1419   5.149   4.115   2.160 -0.4160 -0.3992  2.0279
  240SOL    HW2 1420   5.172   4.263   2.183 -0.4376 -0.1030  0.3173
  241SOL     OW 1421   6.318   7.592   2.157  0.1194 -0.1894  0.2784
  241SOL    HW1 1422   6.404   7.624   2.183 -0.7434  1.1557  1.6713
  241SOL    HW2 1423   6.288   7.654   2.090 -0.6684  0.7148  1.4290
  242SOL     OW 1424   6.741   1.388   2.881 -0.0372  0.3409  0.0377
  242SOL    HW1 1425   6.793   1.469   2.875 -0.4635  0.6963  0.9405
  242SOL    HW2 1426   6.795   1.322   2.837 -0.1524  1.3181 -1.7010
  243SOL     OW 1427   3.268   5.234   1.152  0.2299  0.3534 -0.3662
  243SOL    HW1 1428   3.283   5.144   1.125 -0.7372  0.0477  0.0707
  243SOL    HW2 1429   3.306   5.240   1.239 -0.0837  0.2468 -0.2218
  244SOL     OW 1430   7.041   6.867   6.369 -0.4848  0.0870  0.3118
  244SOL    HW1 1431   7.011   6.823   6.449 -0.4026  0.5883  0.6217
  244SOL    HW2 1432   6.962   6.874   6.315 -0.1352 -2.1810 -0.5909
  245SOL     OW 1433   0.708   0.326   1.479  0.3115 -0.6805 -0.2232
  245SOL    HW1 1434   0.714   0.387   1.552  0.1740 -0.5627 -0.3093
  245SOL    HW2 1435   0.630   0.274   1.497 -0.2662 -0.0234 -0.7571
  246SOL     OW 1436   3.237   4.672   7.707 -0.2609 -0.1688 -0.9675
  246SOL    HW1 1437   3.269   4.760   7.685 -1.4598  0.0166 -2.1262
  246SOL    HW2 1438   3.303   4.637   7.767 -0.6941  2.2619  1.1499
  247SOL     OW 1439   3.092   3.931   0.755 -0.1628  0.1348  0.2844
  247SOL    HW1 1440   3.096   3.858   0.818  1.3138 -1.9563 -2.0576
  247SOL    HW2 1441   3.166   3.987   0.779  0.7601 -0.9584  0.1086
  248SOL     OW 1442   1.390   0.035   5.617 -0.5277  0.1650  0.2738
  248SOL    HW1 1443   1.325   0.047   5.686 -1.8835 -2.0764 -0.4864
  248SOL    HW2 1444   1.341  -0.007   5.546  1.3718  0.1265 -1.0759
  249SOL     OW 1445   3.488   7.790   3.090  0.6207 -0.4101  0.5947
  249SOL    HW1 1446   3.581   7.774   3.103  1.1564  1.5076 -0.5420
  249SOL    HW2 1447   3.453   7.801   3.179  1.6843 -0.1621  1.0000
  250SOL     OW 1448   1.296   5.338   3.588 -0.5943 -0.1319  0.3953
  250SOL    HW1 1449   1.209   5.338   3.549  0.1200 -1.0418 -1.2883
  250SOL    HW2 1450   1.304   5.253   3.631 -0.8898  0.3563  1.4560
  251SOL     OW 1451   0.596   1.452   4.936 -0.4343 -0.1235  0.0429
  251SOL    HW1 1452   0.508   1.421   4.960 -1.0841  0.7531 -1.1225
  251SOL    HW2 1453   0.611   1.528   4.992 -0.2316 -0.5251  0.5416
  252SOL     OW 1454   2.391   7.078   0.481 -0.4150  0.0638  0.0070
  252SOL    HW1 1455   2.325   7.033   0.534 -1.8625  0.3113 -1.4986
  252SOL    HW2 1456   2.354   7.165   0.466 -0.8748 -0.5331 -2.7742
  253SOL     OW 1457   5.365   0.596   5.349  0.0496 -0.1909  0.4218
  253SOL    HW1 1458   5.286   0.588   5.403 -0.2879  0.1542 -0.0030
  253SOL    HW2 1459   5.331   0.597   5.259  0.5748 -0.4304  0.2222
  254SOL     OW 1460   7.822   7.660   4.292  0.3591 -0.2338 -0.3613
  254SOL    HW1 1461   7.788   7.579   4.330  0.2875 -0.9686 -1.8976
  254SOL    HW2 1462   7.764   7.678   4.218 -0.5022  2.0393  0.7838
  255SOL     OW 1463   6.495   1.473   3.655 -0.6946 -0.3256 -0.0107
  255SOL    HW1 1464   6.567   1.446   3.599  0.2115  1.3257  0.2983
  255SOL    HW2 1465   6.460   1.552   3.613 -1.0668 -0.0155  0.8558
  256SOL     OW 1466   2.576   6.209   7.279 -0.5425  0.5882  0.1417
  256SOL    HW1 1467   2.656   6.261   7.274 -1.1558  1.4902 -0.5629
  256SOL    HW2 1468   2.572   6.179   7.369  1.7137 -1.3040 -0.3067
  257SOL     OW 1469   3.744   1.498   4.857 -0.2950 -0.2257  0.1646
  257SOL    HW1 1470   3.719   1.565   4.793 -1.1506  1.2333  1.9237
  257SOL    HW2 1471   3.721   1.415   4.814 -0.9222  0.6832 -1.3690
  258SOL     OW 1472   6.419   4.663   7.302 -0.3687 -0.3464  0.3550
  258SOL    HW1 1473   6.375   4.633   7.382 -1.3367  0.6017  0.2043
  258SOL    HW2 1474   6.443   4.582   7.257 -1.6242 -0.9187  0.6528
  259SOL     OW 1475   6.226   2.324   0.330  0.6016  0.0283 -0.2353
  259SOL    HW1 1476   6.217   2.254   0.395  0.1601  1.0655  0.8696
  259SOL    HW2 1477   6.179   2.398   0.369  0.7409  0.8272 -1.5417
  260SOL     OW 1478   3.988   4.313   5.251  0.1759 -0.0391  0.2670
  260SOL    HW1 1479   4.023   4.379   5.191  0.6888 -1.2946 -0.8614
  260SOL    HW2 1480   3.946   4.364   5.320  1.6495  1.4737  0.1065
  261SOL     OW 1481   6.640   5.379   6.185  0.2906 -0.2475  0.0902
  261SOL    HW1 1482   6.684   5.444   6.240  1.1571  0.2854 -1.1727
  261SOL    HW2 1483   6.567   5.427   6.146  0.6504 -0.1410 -0.4727
  262SOL     OW 1484   0.958   0.760   7.233 -0.2142  0.3660 -1.1063
  262SOL    HW1 1485   1.009   0.779   7.155  0.1991 -0.9513 -1.1843
  262SOL    HW2 1486   0.933   0.668   7.224  1.4756 -0.4150  1.1951
  263SOL     OW 1487   2.780   4.142   6.476 -0.2556 -0.0258  0.2065
  263SOL    HW1 1488   2.773   4.111   6.567  0.0943  1.5237  0.7951
  263SOL    HW2 1489   2.701   4.109   6.433 -0.3488 -0.9128  1.0245
  264SOL     OW 1490   4.442   2.453   0.891  0.6664 -1.0148 -0.3682
  264SOL    HW1 1491   4.449   2.539   0.933  2.1505 -0.6302 -1.3278
  264SOL    HW2 1492   4.505   2.398   0.938 -0.3000 -1.6240  0.2644
  265SOL     OW 1493   6.405   3.614   3.655 -0.6499 -0.2722  0.3303
  265SOL    HW1 1494   6.349   3.581   3.584 -0.2329 -0.5506  0.1285
  265SOL    HW2 1495   6.494   3.602   3.623 -0.2784 -3.4016  2.1336
  266SOL     OW 1496   1.101   5.061   5.041  0.8919 -0.3940  0.7112
  266SOL    HW1 1497   1.128   5.148   5.013 -1.1162 -0.3073 -1.2543
  266SOL    HW2 1498   1.078   5.071   5.134 -2.3581  2.0864 -0.1779
  267SOL     OW 1499   5.926   6.398   4.044  0.2696  0.1473 -0.3441
  267SOL    HW1 1500   5.869   6.323   4.057  0.5352 -0.1216 -0.6981
  267SOL    HW2 1501   5.904   6.458   4.114  0.5282 -0.5528  0.3456
  268SOL     OW 1502   0.463   0.792   0.334 -0.0933 -0.0430  0.2001
  268SOL    HW1 1503   0.477   0.773   0.241  1.9319 -1.2357  0.6883
  268SOL    HW2 1504   0.425   0.880   0.335 -2.6516 -0.9772 -1.8318
  269SOL     OW 1505   5.315   4.122   1.821  0.0336  0.0065 -0.0188
  269SOL    HW1 1506   5.227   4.101   1.854 -0.5466  0.6515 -1.0890
  269SOL    HW2 1507   5.302   4.201   1.768  1.1850 -0.1619 -0.5777
  270SOL     OW 1508   6.986   2.069   5.482  0.4557 -0.9388  0.5035
  270SOL    HW1 1509   7.046   2.059   5.408  0.7475 -0.5293  0.6869
  270SOL    HW2 1510   7.007   1.996   5.540  0.4297 -1.0859  0.3312
  271SOL     OW 1511   2.843   7.560   7.600  0.0740 -0.4228  0.4792
  271SOL    HW1 1512   2.812   7.594   7.684 -0.8153 -0.1857  0.0609
  271SOL    HW2 1513   2.776   7.586   7.537 -0.4156 -2.4768  0.0524
  272SOL     OW 1514   3.264   6.163   3.859  0.3200  0.6712  0.7014
  272SOL    HW1 1515   3.190   6.144   3.917  1.1199  0.2697  1.6181
  272SOL    HW2 1516   3.338   6.119   3.900  0.9392  0.4905 -0.5743
  273SOL     OW 1517   1.279   3.638   0.296  0.0462  0.4778 -0.0383
  273SOL    HW1 1518   1.308   3.553   0.331  0.6079  0.4125 -0.6509
  273SOL    HW2 1519   1.216   3.616   0.228  2.0029  0.4090 -1.9423
  274SOL     OW 1520   6.179   2.976   2.715  0.4811 -0.0640  0.0071
  274SOL    HW1 1521   6.261   2.998   2.671  0.8654 -2.7948 -0.8427
  274SOL    HW2 1522   6.129   3.057   2.715  1.4802  0.6962 -3.2438
  275SOL     OW 1523   6.861   3.834   3.414 -0.0138  0.1863 -0.0450
  275SOL    HW1 1524   6.936   3.845   3.473 -0.0075  0.6767 -0.1363
  275SOL    HW2 1525   6.899   3.837   3.326 -0.0586 -0.2620 -0.0825
  276SOL     OW 1526   3.942   7.254   4.365 -0.2275  0.7867  0.3337
  276SOL    HW1 1527   3.860   7.299   4.385 -1.6673 -2.1668  1.7489
  276SOL    HW2 1528   3.917   7.163   4.351  2.5173  0.2450 -2.1255
  277SOL     OW 1529   4.182   6.899   3.596  0.0549  0.3327 -0.2990
  277SOL    HW1 1530   4.123   6.970   3.620 -0.1158  0.2621 -0.4995
  277SOL    HW2 1531   4.241   6.890   3.671  0.3755  0.9908 -0.4626
  278SOL     OW 1532   4.459   3.350   6.587  0.2443  0.3537  0.4642
  278SOL    HW1 1533   4.513   3.273   6.570 -0.9364 -0.9674  2.2850
  278SOL    HW2 1534   4.387   3.318   6.642 -2.0409  2.1679 -1.2510
  279SOL     OW 1535   3.617   0.938   1.305  0.0364 -0.2327 -0.6839
  279SOL    HW1 1536   3.628   1.032   1.295 -0.2736 -0.0194  0.7956
  279SOL    HW2 1537   3.550   0.928   1.373 -0.3589 -1.5213 -1.2297
  280SOL     OW 1538   2.829   2.943   2.742 -0.6353  0.4636  0.1719
  280SOL    HW1 1539   2.774   2.929   2.820  2.6290 -1.5224  2.3873
  280SOL    HW2 1540   2.836   2.856   2.702  0.9684  0.6007  0.0840
  281SOL     OW 1541   1.150   6.286   6.733 -0.3979  0.0853 -0.4242
  281SOL    HW1 1542   1.151   6.343   6.809  1.4459 -1.7593  1.0586
  281SOL    HW2 1543   1.172   6.199   6.768 -3.0449 -1.5878 -2.5329
  282SOL     OW 1544   4.625   3.442   4.220 -0.1857  0.0504 -0.1983
  282SOL    HW1 1545   4.570   3.403   4.288  0.1329  0.3066  0.2135
  282SOL    HW2 1546   4.599   3.534   4.217 -0.0889  0.0746 -0.3165
  283SOL     OW 1547   5.917   1.566   5.204  0.1633 -0.5058  0.0081
  283SOL    HW1 1548   5.977   1.542   5.133  0.0490  1.7473 -0.9581
  283SOL    HW2 1549   5.889   1.483   5.242  0.9702 -1.7533 -1.9843
  284SOL     OW 1550   2.345   4.118   0.935 -0.5482  0.2019  0.7511
  284SOL    HW1 1551   2.320   4.158   0.852 -0.4970 -0.8072  0.2274
  284SOL    HW2 1552   2.436   4.144   0.948 -0.7443  0.8644  0.7968
  285SOL     OW 1553   4.467   4.546   1.218  0.4242 -0.5331 -0.4267
  285SOL    HW1 1554   4.374   4.560   1.202  0.6005  0.7185 -0.4874
  285SOL    HW2 1555   4.473   4.458   1.254 -0.7842 -0.6195 -0.4115
  286SOL     OW 1556   7.611   4.993   1.436 -0.6003  0.4003  0.2551
  286SOL    HW1 1557   7.525   4.963   1.406 -0.9398  1.0659  0.5503
  286SOL    HW2 1558   7.635   4.932   1.506 -0.6226 -0.0604 -0.1343
  287SOL     OW 1559   2.161   6.090   3.282 -0.1512 -0.1815  0.4817
  287SOL    HW1 1560   2.151   5.998   3.261 -1.1261 -0.4144  1.7978
  287SOL    HW2 1561   2.076   6.116   3.319  0.9755  0.4299  2.8877
  288SOL     OW 1562   0.809   6.137   2.584  0.0506  0.6412  0.0934
  288SOL    HW1 1563   0.886   6.153   2.530 -0.5779  0.6189 -0.8543
  288SOL    HW2 1564   0.810   6.042   2.599 -1.2518  0.1396 -2.3304
  289SOL     OW 1565   7.063   1.066   1.467  0.0472 -0.0592  0.1518
  289SOL    HW1 1566   7.004   1.014   1.412  1.4577 -0.5516 -0.9436
  289SOL    HW2 1567   7.146   1.068   1.419  0.6714  1.3936  1.2161
  290SOL     OW 1568   6.758   4.224   7.729 -0.1082  0.0278 -0.1514
  290SOL    HW1 1569   6.753   4.240   7.635 -0.0721 -1.8085 -0.5089
  290SOL    HW2 1570   6.669   4.199   7.754 -0.1997  0.8412  0.3956
  291SOL     OW 1571   2.879   6.825   3.632  0.1770 -0.2328 -0.4207
  291SOL    HW1 1572   2.942   6.805   3.562 -1.3109 -0.0155 -1.8918
  291SOL    HW2 1573   2.930   6.872   3.697  1.4524  0.3614 -1.7818
  292SOL     OW 1574   6.597   2.584   0.929  0.9031  0.0859 -0.3879
  292SOL    HW1 1575   6.692   2.584   0.938  0.7898 -0.1429  1.0353
  292SOL    HW2 1576   6.568   2.663   0.975  0.2447 -1.2152  1.5642
  293SOL     OW 1577   4.225   7.385   5.144  0.4226  0.4263  0.3112
  293SOL    HW1 1578   4.294   7.332   5.106 -0.5144 -0.9909  0.5172
  293SOL    HW2 1579   4.218   7.356   5.235  0.1676  1.1900  0.5453
  294SOL     OW 1580   6.122   2.441   2.542  0.2564  0.3240  0.6717
  294SOL    HW1 1581   6.187   2.447   2.472  0.4440 -0.2203  0.7989
  294SOL    HW2 1582   6.106   2.532   2.567  0.2463  0.5161 -0.0244
  295SOL     OW 1583   7.875   2.642   3.858 -0.0876 -0.6660  0.5963
  295SOL    HW1 1584   7.953   2.679   3.899  0.7190 -0.3288 -1.1714
  295SOL    HW2 1585   7.829   2.598   3.930  1.1328  0.1037  1.8904
  296SOL     OW 1586   5.713   1.140   5.084 -0.3199  0.3108 -0.5535
  296SOL    HW1 1587   5.685   1.194   5.010 -0.0870  0.4301 -0.5557
  296SOL    HW2 1588   5.713   1.051   5.050  1.5806  0.5197 -1.2754
  297SOL     OW 1589   7.605   0.113   0.685 -0.4190  0.3696  0.1442
  297SOL    HW1 1590   7.613   0.036   0.741  0.2830 -0.1504 -0.6511
  297SOL    HW2 1591   7.532   0.092   0.627  0.4672 -0.1843 -0.7987
  298SOL     OW 1592   4.072   3.950   1.270  0.5131  0.6604 -0.0778
  298SOL    HW1 1593   4.051   3.879   1.208  0.8115  0.2565  0.2755
  298SOL    HW2 1594   4.092   4.025   1.214  0.3313  0.4282 -0.4633
  299SOL     OW 1595   1.131   1.440   7.167  0.5523 -0.6573 -0.1119
  299SOL    HW1 1596   1.049   1.489   7.158 -0.0650 -1.8864 -1.6782
  299SOL    HW2 1597   1.184   1.467   7.093  2.0737  0.9249  1.4645
  300SOL     OW 1598   5.805   2.144   5.056 -0.3710 -0.1642 -0.6181
  300SOL    HW1 1599   5.805   2.151   4.960 -0.9198  0.1975 -0.5969
  300SOL    HW2 1600   5.805   2.234   5.087  1.5244 -0.2528 -0.2488
  301SOL     OW 1601   4.987   4.784   7.792 -0.0210 -0.1017  0.2233
  301SOL    HW1 1602   5.024   4.871   7.808 -1.1219  0.4267  0.0021
  301SOL    HW2 1603   4.896   4.801   7.770 -0.6889 -1.4256  1.7525
  302SOL     OW 1604   4.183   5.030   5.566  0.2666  0.0662  0.8502
  302SOL    HW1 1605   4.266   5.023   5.613 -0.1734  0.0737  1.6466
  302SOL    HW2 1606   4.124   4.973   5.614 -0.7316  1.6085  1.5344
  303SOL     OW 1607   7.517   7.493   2.319 -0.2130  0.6801 -0.2525
  303SOL    HW1 1608   7.514   7.535   2.233  0.1090  1.8908  0.3181
  303SOL    HW2 1609   7.440   7.527   2.365  0.5323  1.3552  0.5248
  304SOL     OW 1610   5.916   7.508   1.755  0.1166 -0.0747 -0.5465
  304SOL    HW1 1611   5.869   7.446   1.700 -1.3783  1.1020 -0.6729
  304SOL    HW2 1612   5.884   7.491   1.843 -1.3378  1.3201 -0.7456
  305SOL     OW 1613   3.585   4.092   7.304 -0.4154 -0.1378 -0.7640
  305SOL    HW1 1614   3.571   4.118   7.395  0.6605 -1.4117 -0.1976
  305SOL    HW2 1615   3.520   4.024   7.288  0.2098 -0.8027 -0.5252
  306SOL     OW 1616   6.025   1.581   5.847  0.3022 -1.0238  0.3099
  306SOL    HW1 1617   6.068   1.663   5.871 -1.5802  0.4486 -1.0139
  306SOL    HW2 1618   6.090   1.534   5.795  0.2570  1.4257 -2.2096
  307SOL     OW 1619   3.127   0.670   5.828 -0.0595 -0.3541  0.2479
  307SOL    HW1 1620   3.038   0.670   5.864 -0.5119 -1.4129 -0.8148
  307SOL    HW2 1621   3.115   0.672   5.733  1.0969  1.7211  0.0729
  308SOL     OW 1622   4.688   2.029   6.263  0.4585  0.0471 -0.2083
  308SOL    HW1 1623   4.745   2.081   6.206 -0.8873  0.7528 -0.9635
  308SOL    HW2 1624   4.646   1.967   6.204 -1.8447  1.5540 -0.2893
  309SOL     OW 1625   2.475   0.818   0.160  0.3169 -0.0418 -0.2202
  309SOL    HW1 1626   2.397   0.764   0.174  1.1952 -1.3075 -0.0137
  309SOL    HW2 1627   2.515   0.825   0.247  0.6516  0.2521 -0.3977
  310SOL     OW 1628   0.251   0.030   1.590  0.7535 -0.4420  0.6513
  310SOL    HW1 1629   0.192   0.010   1.517 -0.1975  2.3104  0.5458
  310SOL    HW2 1630   0.254  -0.051   1.641  0.7103 -2.1573 -1.8919
  311SOL     OW 1631   5.964   1.653   6.651 -0.2637  0.2615 -0.6715
  311SOL    HW1 1632   6.044   1.697   6.623 -0.1201 -1.1957 -2.7650
  311SOL    HW2 1633   5.912   1.645   6.571 -1.5411 -0.7522  0.2262
  312SOL     OW 1634   2.237   4.932   4.026 -0.1822 -0.2431  0.1603
  312SOL    HW1 1635   2.303   4.875   3.986 -0.3557 -0.5229  0.2682
  312SOL    HW2 1636   2.252   5.018   3.987  0.6621 -0.1589  0.6549
  313SOL     OW 1637   4.652   6.424   6.531  0.0523  0.0223 -0.0719
  313SOL    HW1 1638   4.620   6.488   6.467  0.5886 -1.4889 -1.9473
  313SOL    HW2 1639   4.719   6.375   6.484 -0.4434 -2.0074  1.2369
  314SOL     OW 1640   2.040   1.378   2.238 -0.2882 -0.4167 -0.3675
  314SOL    HW1 1641   2.075   1.305   2.289  2.5689  0.4820 -0.8902
  314SOL    HW2 1642   2.085   1.372   2.153 -0.3954  1.6041 -0.6204
  315SOL     OW 1643   7.891   3.125   0.748  0.5506  0.1438  0.2597
  315SOL    HW1 1644   7.806   3.104   0.788  0.8892  1.0726  1.5195
  315SOL    HW2 1645   7.929   3.040   0.728  0.4040 -0.3916  2.0656
  316SOL     OW 1646   4.423   3.196   1.007 -0.0858 -0.0363 -0.0273
  316SOL    HW1 1647   4.438   3.290   1.018 -0.5987  0.0543 -0.1047
  316SOL    HW2 1648   4.349   3.190   0.947  1.0280 -0.4984 -1.4117
  317SOL     OW 1649   1.816   4.277   7.364  0.5797 -0.1530  0.0678
  317SOL    HW1 1650   1.908   4.290   7.384  0.4541 -0.3861  0.8627
  317SOL    HW2 1651   1.771   4.348   7.411  0.3297 -0.2058 -0.0869
  318SOL     OW 1652   6.184   7.666   7.002 -1.0565  0.0581 -0.5284
  318SOL    HW1 1653   6.210   7.579   6.973 -0.4933 -0.5864  1.7142
  318SOL    HW2 1654   6.255   7.724   6.973 -1.4718 -0.1752 -2.0924
  319SOL     OW 1655   4.963   2.186   7.679 -0.5292 -0.0625 -0.4994
  319SOL    HW1 1656   4.911   2.254   7.723 -1.1962 -1.5664  1.1350
  319SOL    HW2 1657   4.902   2.114   7.665  1.0344 -1.8944  1.4680
  320SOL     OW 1658   5.481   5.937   0.556  0.4969  0.5877 -0.5181
  320SOL    HW1 1659   5.413   5.996   0.589  0.7330  1.2805 -1.2434
  320SOL    HW2 1660   5.564   5.981   0.578  0.6633  1.1730 -2.1444
  321SOL     OW 1661   2.375   1.813   1.167 -0.6407  0.1679  0.0956
  321SOL    HW1 1662   2.361   1.726   1.205 -0.7629 -0.5402 -1.5053
  321SOL    HW2 1663   2.323   1.871   1.222 -1.0285 -0.8409  0.8412
  322SOL     OW 1664   6.317   2.934   6.728  0.4051 -0.1214  0.1334
  322SOL    HW1 1665   6.360   3.017   6.710 -1.4434  0.6288 -1.0780
  322SOL    HW2 1666   6.276   2.946   6.814  0.1236  0.2370 -0.0484
  323SOL     OW 1667   3.181   1.283   1.960 -0.1986  0.7275 -0.0406
  323SOL    HW1 1668   3.182   1.354   1.896 -1.5063  1.3658  0.6142
  323SOL    HW2 1669   3.269   1.280   1.995  0.1535  1.3003 -0.8503
  324SOL     OW 1670   0.241   3.730   6.724 -0.0117  0.2085  0.2218
  324SOL    HW1 1671   0.256   3.824   6.737  0.2024  0.0522  1.2445
  324SOL    HW2 1672   0.153   3.715   6.760  1.1767 -0.5035  3.1762
  325SOL     OW 1673   2.120   3.003   1.944  0.0559  0.4492 -0.2497
  325SOL    HW1 1674   2.137   3.095   1.920 -1.7991  1.1609  0.9309
  325SOL    HW2 1675   2.034   3.005   1.986 -0.2952 -1.9489 -0.7179
  326SOL     OW 1676   3.172   4.523   1.165 -0.1103 -0.2750 -0.2866
  326SOL    HW1 1677   3.119   4.601   1.183  1.0698  0.8143 -1.3179
  326SOL    HW2 1678   3.249   4.532   1.222 -0.4382 -1.2405  0.3403
  327SOL     OW 1679   0.896   2.133   4.283 -0.0248 -0.9398 -0.7552
  327SOL    HW1 1680   0.920   2.054   4.330  0.1106 -0.6698 -0.3610
  327SOL    HW2 1681   0.801   2.140   4.294  0.0434 -0.7366 -0.2987
  328SOL     OW 1682   5.916   4.784   4.020 -0.0365 -0.7077 -0.0996
  328SOL    HW1 1683   5.885   4.710   4.071  1.3822 -0.3313  1.3899
  328SOL    HW2 1684   6.010   4.769   4.009  0.4917  1.2866  1.0593
  329SOL     OW 1685   1.690   0.324   3.745 -0.7148  0.2472  0.4731
  329SOL    HW1 1686   1.625   0.351   3.680 -1.4561  1.5820  1.7191
  329SOL    HW2 1687   1.762   0.386   3.735  0.7568 -1.6111 -1.3408
  330SOL     OW 1688   1.375   6.311   0.759  0.1489  0.2359 -0.0487
  330SOL    HW1 1689   1.400   6.251   0.829  0.9224 -0.3224 -0.7821
  330SOL    HW2 1690   1.406   6.269   0.679  1.1236  1.8268 -0.5479
  331SOL     OW 1691   3.294   6.835   2.605 -0.7526 -0.0142 -0.1364
  331SOL    HW1 1692   3.200   6.819   2.612 -0.6773 -0.1194  0.7480
  331SOL    HW2 1693   3.333   6.783   2.675 -0.3150  2.2657  1.4192
  332SOL     OW 1694   4.430   0.848   3.350  0.0670  0.1032  0.6252
  332SOL    HW1 1695   4.373   0.783   3.309 -2.1807  2.2720  0.0285
  332SOL    HW2 1696   4.376   0.886   3.420  1.8477  0.3282  1.9463
  333SOL     OW 1697   7.245   5.429   1.723  0.1117 -0.5045  0.0200
  333SOL    HW1 1698   7.242   5.380   1.805 -0.8507 -2.6608 -1.1849
  333SOL    HW2 1699   7.326   5.401   1.681 -0.9969 -2.1049 -1.1959
  334SOL     OW 1700   4.016   5.812   0.848  0.5410  0.0515 -0.2047
  334SOL    HW1 1701   3.990   5.904   0.857  4.1378  1.3081 -1.1848
  334SOL    HW2 1702   4.020   5.779   0.938 -0.5205  0.8845  0.1733
  335SOL     OW 1703   6.508   7.186   4.032  0.2988 -0.0240 -0.1252
  335SOL    HW1 1704   6.562   7.185   4.111  0.6233  0.7459 -0.3278
  335SOL    HW2 1705   6.421   7.158   4.062  0.1035  1.3690  0.7555
  336SOL     OW 1706   4.039   2.981   0.186  0.5582 -0.0457 -0.0414
  336SOL    HW1 1707   4.126   2.947   0.164 -0.1869 -1.1610 -1.4079
  336SOL    HW2 1708   4.028   2.957   0.278  0.9711 -1.6021 -0.3506
  337SOL     OW 1709   1.392   2.291   6.328 -0.4616  0.0248  0.0911
  337SOL    HW1 1710   1.442   2.233   6.387 -3.0227 -2.2917  0.1758
  337SOL    HW2 1711   1.301   2.268   6.344 -1.4885  2.4768 -1.6900
  338SOL     OW 1712   4.612   7.465   7.932 -0.4491 -0.2488 -0.3204
  338SOL    HW1 1713   4.667   7.423   7.866 -0.5937 -0.6719 -0.1715
  338SOL    HW2 1714   4.526   7.425   7.922 -0.1470 -1.3011  1.0023
  339SOL     OW 1715   7.244   4.509   3.173  0.1715  0.0564  0.1941
  339SOL    HW1 1716   7.189   4.587   3.162 -2.0316 -1.1210  2.0243
  339SOL    HW2 1717   7.244   4.467   3.087  1.6169  2.0917 -0.9052
  340SOL     OW 1718   6.297   4.301   2.922  0.2346 -0.1907 -0.2608
  340SOL    HW1 1719   6.293   4.207   2.941 -0.1913  0.1975  1.8052
  340SOL    HW2 1720   6.206   4.327   2.909  0.3219 -0.0080 -0.5037
  341SOL     OW 1721   4.559   4.933   0.301 -0.5867  0.2043 -0.4994
  341SOL    HW1 1722   4.529   4.992   0.232 -1.7970 -0.5193 -0.6191
  341SOL    HW2 1723   4.538   4.979   0.382  0.0720  0.6957 -0.6083
  342SOL     OW 1724   4.299   0.411   0.611  0.0335 -0.0299  0.2284
  342SOL    HW1 1725   4.225   0.351   0.616  0.0188  0.0619  1.7867
  342SOL    HW2 1726   4.376   0.355   0.604 -0.0138 -0.2454  1.2245
  343SOL     OW 1727   0.107   4.001   0.741  0.0406  0.1723 -0.0664
  343SOL    HW1 1728   0.041   3.955   0.689  0.8837 -0.7548 -0.3429
  343SOL    HW2 1729   0.123   4.082   0.692 -0.9305  0.4482  0.0473
  344SOL     OW 1730   4.470   2.192   6.325  0.9369 -0.2403  0.2043
  344SOL    HW1 1731   4.525   2.113   6.326  0.2290 -0.7667 -0.6913
  344SOL    HW2 1732   4.460   2.215   6.417 -2.0975 -3.5316  0.9442
  345SOL     OW 1733   4.121   3.832   7.681  0.0383  0.4777 -0.7552
  345SOL    HW1 1734   4.181   3.904   7.664  0.2033  0.3984 -0.5141
  345SOL    HW2 1735   4.063   3.831   7.605  0.8545  0.0387 -1.3976
  346SOL     OW 1736   3.124   4.353   2.775  0.7275  0.1815  0.0752
  346SOL    HW1 1737   3.127   4.431   2.721 -1.7233 -0.8673 -1.7931
  346SOL    HW2 1738   3.044   4.363   2.827 -1.3187 -2.1320 -2.2652
  347SOL     OW 1739   6.054   0.645   3.357 -0.0485  0.7283 -0.4467
  347SOL    HW1 1740   6.069   0.729   3.312 -1.2939  2.1049  1.5462
  347SOL    HW2 1741   6.101   0.654   3.439  0.8084 -1.0754 -0.7030
  348SOL     OW 1742   4.787   1.873   3.932  0.4241  0.5817 -0.6167
  348SOL    HW1 1743   4.825   1.931   3.998  1.8188 -1.3523  0.3912
  348SOL    HW2 1744   4.845   1.880   3.856  1.1027 -0.0927 -0.1782
  349SOL     OW 1745   2.592   4.390   1.573 -0.7722 -0.2233 -0.4522
  349SOL    HW1 1746   2.641   4.318   1.534 -1.1480 -0.6779 -0.1029
  349SOL    HW2 1747   2.548   4.432   1.499 -2.2801 -1.6885 -0.4507
  350SOL     OW 1748   5.251   5.130   4.492 -0.6466 -0.4961  0.5938
  350SOL    HW1 1749   5.170   5.082   4.477  0.0337 -1.5106  0.0535
  350SOL    HW2 1750   5.227   5.199   4.554 -2.0227 -0.4483  0.0399
  351SOL     OW 1751   4.344   3.270   0.351  0.0616 -0.4089 -0.1014
  351SOL    HW1 1752   4.369   3.245   0.440 -0.1449 -1.0301 -0.2151
  351SOL    HW2 1753   4.359   3.365   0.348  2.1271 -0.7110 -0.0899
  352SOL     OW 1754   0.467   2.773   5.383 -0.3119  0.2377  1.0789
  352SOL    HW1 1755   0.505   2.694   5.421  0.4776 -0.7579 -1.6175
  352SOL    HW2 1756   0.543   2.822   5.350 -0.9462  1.2088  1.0293
  353SOL     OW 1757   5.117   5.827   1.608 -0.4655  0.3886  0.2307
  353SOL    HW1 1758   5.155   5.834   1.695  0.8997  0.0634 -0.3073
  353SOL    HW2 1759   5.023   5.825   1.623 -0.3554  2.3142  1.5553
  354SOL     OW 1760   7.814   0.297   4.782  0.0219 -0.0014 -0.0787
  354SOL    HW1 1761   7.756   0.221   4.775 -0.9403  0.8664 -2.2736
  354SOL    HW2 1762   7.893   0.262   4.824  0.0588 -2.5258 -2.0245
  355SOL     OW 1763   0.445   0.136   6.410 -0.3164 -0.6839  0.2865
  355SOL    HW1 1764   0.399   0.154   6.492  0.8697 -2.8590  1.5338
  355SOL    HW2 1765   0.376   0.117   6.348 -1.2042 -0.5523  1.1999
  356SOL     OW 1766   1.737   0.441   4.078  0.0340 -0.1565  0.2602
  356SOL    HW1 1767   1.771   0.528   4.054  0.1909 -0.5301 -0.9481
  356SOL    HW2 1768   1.806   0.380   4.050 -1.4551 -0.9140 -2.0393
  357SOL     OW 1769   3.110   2.895   4.684  0.3458  0.2028 -0.1646
  357SOL    HW1 1770   3.124   2.875   4.591  1.5419  2.5841 -0.5748
  357SOL    HW2 1771   3.166   2.971   4.700 -0.4862  0.3570  2.3145
  358SOL     OW 1772   6.995   1.772   3.778 -0.0817  0.1836  0.0142
  358SOL    HW1 1773   7.012   1.866   3.775 -0.8173  0.4214  1.8565
  358SOL    HW2 1774   6.983   1.753   3.871 -0.7557 -1.5870 -0.3941
  359SOL     OW 1775   4.919   1.513   2.779  0.0575 -0.0136  0.5083
  359SOL    HW1 1776   4.962   1.438   2.737  0.6091 -0.3772  1.7081
  359SOL    HW2 1777   4.944   1.508   2.871 -1.5952  0.4410  1.0211
  360SOL     OW 1778   2.849   5.834   2.176  0.5538 -0.1381  0.2740
  360SOL    HW1 1779   2.931   5.806   2.136  0.7782  0.2811  0.4337
  360SOL    HW2 1780   2.874   5.901   2.240  0.0581  0.2100  0.1127
  361SOL     OW 1781   2.319   3.606   1.937 -0.7286 -0.0022  0.0640
  361SOL    HW1 1782   2.237   3.655   1.939 -1.3787 -0.9067 -2.0290
  361SOL    HW2 1783   2.328   3.570   2.025 -0.9389  2.6223  1.2643
  362SOL     OW 1784   3.753   4.122   6.136  0.2512  0.4085 -0.1643
  362SOL    HW1 1785   3.736   4.185   6.207  2.2669  0.4595  0.3392
  362SOL    HW2 1786   3.676   4.066   6.136 -0.3565  1.1633  1.2667
  363SOL     OW 1787   4.526   1.364   4.481 -0.1850  0.7925 -0.2467
  363SOL    HW1 1788   4.522   1.407   4.566 -0.5263 -0.4117  0.3680
  363SOL    HW2 1789   4.614   1.326   4.477 -0.5837 -0.2014  0.1159
  364SOL     OW 1790   7.608   7.308   7.036  0.1734 -0.6629  0.4827
  364SOL    HW1 1791   7.539   7.372   7.019  0.8593 -0.0203  0.0247
  364SOL    HW2 1792   7.590   7.236   6.975 -0.4261 -0.7764  0.7881
  365SOL     OW 1793   2.274   5.170   7.501 -0.3436  0.0135 -0.7486
  365SOL    HW1 1794   2.324   5.249   7.521  0.0874 -0.3417 -0.4124
  365SOL    HW2 1795   2.294   5.151   7.410 -1.7512  1.2300 -1.3401
  366SOL     OW 1796   2.625   5.600   4.905 -0.1432 -0.2500 -0.4289
  366SOL    HW1 1797   2.691   5.652   4.950 -0.5094 -0.5497  0.4838
  366SOL    HW2 1798   2.668   5.571   4.825  1.0153 -0.8623  0.3849
  367SOL     OW 1799   4.710   7.133   2.483  0.2239  0.1480 -0.6381
  367SOL    HW1 1800   4.724   7.185   2.562 -1.1852  0.2409 -0.4269
  367SOL    HW2 1801   4.786   7.152   2.427  0.9421  0.5212  0.4456
  368SOL     OW 1802   2.207   4.824   2.771  0.2185  0.1724  0.1567
  368SOL    HW1 1803   2.210   4.740   2.817  0.6042 -0.1991 -0.5275
  368SOL    HW2 1804   2.289   4.867   2.796  1.6539 -1.0596 -2.0218
  369SOL     OW 1805   4.660   4.911   5.396  0.0307 -0.2294  0.0831
  369SOL    HW1 1806   4.704   4.950   5.320  2.1930 -1.5532  0.5815
  369SOL    HW2 1807   4.588   4.861   5.358  0.3708  0.0594 -0.9876
  370SOL     OW 1808   1.322   2.374   1.401 -0.5953  0.8156 -0.4957
  370SOL    HW1 1809   1.353   2.326   1.325 -0.8772  1.3001 -0.9233
  370SOL    HW2 1810   1.380   2.347   1.472 -0.7503 -0.1472 -0.7210
  371SOL     OW 1811   3.888   6.822   4.956  0.5882  0.2248  0.8839
  371SOL    HW1 1812   3.983   6.835   4.967  0.4871  1.4223  0.4651
  371SOL    HW2 1813   3.848   6.895   5.002 -0.1593 -0.3645  1.2002
  372SOL     OW 1814   3.811   2.153   1.176  0.1632 -0.0757 -0.4414
  372SOL    HW1 1815   3.866   2.198   1.112 -0.4933  0.4373 -0.6577
  372SOL    HW2 1816   3.726   2.145   1.133 -0.3524  0.4781  0.4364
  373SOL     OW 1817   4.114   6.361   5.625 -0.0078 -0.6814 -0.4322
  373SOL    HW1 1818   4.091   6.380   5.534  1.2266 -0.2529 -0.6770
  373SOL    HW2 1819   4.178   6.428   5.648 -0.5552 -0.5754  0.8752
  374SOL     OW 1820   4.890   4.220   7.774 -0.2461 -0.3055 -0.8552
  374SOL    HW1 1821   4.929   4.284   7.715 -1.9719  1.0592 -0.6109
  374SOL    HW2 1822   4.913   4.249   7.862 -1.4923  0.3557 -0.7196
  375SOL     OW 1823   3.778   0.600   2.528 -0.0774  0.1269 -0.1115
  375SOL    HW1 1824   3.768   0.515   2.486 -0.9650  1.1574 -2.1446
  375SOL    HW2 1825   3.749   0.587   2.618 -3.5363 -1.0059 -1.2415
  376SOL     OW 1826   3.468   0.524   3.374 -0.4638  0.5533 -0.6247
  376SOL    HW1 1827   3.482   0.436   3.338  0.3312 -0.1135  1.1632
  376SOL    HW2 1828   3.435   0.576   3.301  0.3735 -0.8801 -2.0656
  377SOL     OW 1829   3.630   0.591   2.765 -0.0368 -0.5272 -0.1030
  377SOL    HW1 1830   3.616   0.497   2.756 -0.1130 -0.4612 -0.7487
  377SOL    HW2 1831   3.601   0.612   2.854 -0.1577 -1.0865 -0.0081
  378SOL     OW 1832   2.576   2.472   3.721  0.4343 -0.5655 -0.1339
  378SOL    HW1 1833   2.667   2.454   3.698  0.0471 -0.8230 -1.5603
  378SOL    HW2 1834   2.567   2.439   3.811  1.9891  0.3988  0.4110
  379SOL     OW 1835   0.188   5.700   5.698 -0.5151 -0.2396 -0.2636
  379SOL    HW1 1836   0.183   5.792   5.721  0.1057 -0.5061  1.0519
  379SOL    HW2 1837   0.098   5.669   5.699 -0.7619  0.4335 -1.1251
  380SOL     OW 1838   5.673   2.228   3.221  0.0149  0.2230 -0.0253
  380SOL    HW1 1839   5.748   2.233   3.280  1.9055 -1.0078 -2.1574
  380SOL    HW2 1840   5.637   2.316   3.221  1.2616  0.7768  1.3143
  381SOL     OW 1841   2.856   2.640   0.765  0.6271 -0.0989  0.6858
  381SOL    HW1 1842   2.908   2.578   0.714  0.3938 -1.5130  2.0923
  381SOL    HW2 1843   2.776   2.592   0.786  0.2476  0.8440  1.4782
  382SOL     OW 1844   7.730   6.929   0.951 -0.0381 -0.3331 -0.0975
  382SOL    HW1 1845   7.744   7.009   0.900 -0.1606  0.4036  0.9741
  382SOL    HW2 1846   7.805   6.925   1.010  0.2871 -1.3660 -0.5652
  383SOL     OW 1847   5.787   0.649   0.061  0.1047 -0.0310  0.1545
  383SOL    HW1 1848   5.697   0.676   0.080 -1.1887 -1.4716 -3.0465
  383SOL    HW2 1849   5.828   0.727   0.023 -0.3824  0.1371 -0.0268
  384SOL     OW 1850   7.437   1.601   0.055  0.2018  0.6248 -0.3700
  384SOL    HW1 1851   7.355   1.596   0.105  1.3950 -0.8509  1.5828
  384SOL    HW2 1852   7.483   1.676   0.092 -0.1841  1.3813 -1.3854
  385SOL     OW 1853   1.258   0.445   7.914  0.2716  0.3445 -0.3224
  385SOL    HW1 1854   1.248   0.444   8.010  2.3115  0.7982 -0.0624
  385SOL    HW2 1855   1.173   0.416   7.881 -0.3077 -0.3701  1.6449
  386SOL     OW 1856   7.920   4.883   1.417 -0.0141 -0.0564 -0.6784
  386SOL    HW1 1857   7.999   4.901   1.466  0.2241  0.9548 -1.3983
  386SOL    HW2 1858   7.850   4.884   1.482  0.1402  2.4225 -0.4868
  387SOL     OW 1859   5.860   5.469   1.459 -0.0129  0.5658 -0.6786
  387SOL    HW1 1860   5.888   5.397   1.402  1.1219  1.7455 -1.6708
  387SOL    HW2 1861   5.792   5.431   1.514  1.3213 -1.5735 -0.4080
  388SOL     OW 1862   4.465   0.301   6.827  0.1745  0.5378  1.0394
  388SOL    HW1 1863   4.401   0.293   6.897  0.2777 -1.2698  0.9779
  388SOL    HW2 1864   4.507   0.385   6.842 -0.4246  0.5878  2.6103
  389SOL     OW 1865   6.380   6.432   6.936 -1.0152 -0.0754 -0.0691
  389SOL    HW1 1866   6.461   6.404   6.892 -1.3211  0.0440 -0.7163
  389SOL    HW2 1867   6.327   6.352   6.941  0.1721 -0.7987  2.7408
  390SOL     OW 1868   7.975   6.145   1.592  0.2433 -0.3726  0.2910
  390SOL    HW1 1869   7.911   6.080   1.561  0.3939 -0.2829 -0.2222
  390SOL    HW2 1870   7.988   6.124   1.684 -0.0995 -0.7493  0.2568
  391SOL     OW 1871   5.135   0.225   3.066 -0.3861  0.1776  0.1337
  391SOL    HW1 1872   5.052   0.247   3.024  0.1264  1.7658 -0.1234
  391SOL    HW2 1873   5.144   0.289   3.136  0.2182 -0.5296  0.7104
  392SOL     OW 1874   0.857   5.042   1.127 -0.4186  0.0084  0.1482
  392SOL    HW1 1875   0.874   4.948   1.135  0.8512  0.2425  0.4122
  392SOL    HW2 1876   0.767   5.053   1.157 -0.5541 -1.1114  0.1968
  393SOL     OW 1877   2.392   6.797   6.092 -0.0585  0.5860 -0.5478
  393SOL    HW1 1878   2.423   6.876   6.137 -0.5513  0.6037 -0.2330
  393SOL    HW2 1879   2.315   6.770   6.142 -0.3770  0.3731 -1.1493
  394SOL     OW 1880   4.181   5.421   6.443 -0.3446 -0.0324 -0.0712
  394SOL    HW1 1881   4.134   5.356   6.496  0.0435 -0.2941 -0.0437
  394SOL    HW2 1882   4.230   5.369   6.379  0.2400  0.2078  0.1724
  395SOL     OW 1883   2.340   0.579   4.640 -0.1205  0.3075  0.2985
  395SOL    HW1 1884   2.323   0.673   4.630 -1.3851  0.0836  0.1424
  395SOL    HW2 1885   2.363   0.569   4.733  1.6204  0.9769 -0.0330
  396SOL     OW 1886   6.714   3.863   4.444 -0.2388  0.3653  0.4430
  396SOL    HW1 1887   6.666   3.802   4.388 -0.1254  1.5058 -0.9370
  396SOL    HW2 1888   6.747   3.808   4.516  0.5905 -1.3730 -1.1797
  397SOL     OW 1889   0.261   0.382   7.136 -0.4908 -0.0759  0.2585
  397SOL    HW1 1890   0.217   0.463   7.160 -2.4043 -0.6097 -1.2357
  397SOL    HW2 1891   0.318   0.407   7.063 -0.3164  0.0991  0.4518
  398SOL     OW 1892   2.759   6.973   6.543  0.0163 -0.2792  0.3288
  398SOL    HW1 1893   2.804   7.031   6.481  0.6904 -1.1882 -0.0502
  398SOL    HW2 1894   2.829   6.926   6.588 -0.5249 -1.8948 -0.4370
  399SOL     OW 1895   3.061   1.605   5.198  0.0457 -0.1862 -0.3332
  399SOL    HW1 1896   3.049   1.698   5.178  0.2913 -0.4451 -1.7944
  399SOL    HW2 1897   3.058   1.562   5.112  2.1224 -1.2854  0.0919
  400SOL     OW 1898   2.908   1.919   6.929 -0.3401  0.1651 -0.1201
  400SOL    HW1 1899   2.937   2.003   6.966  1.7432 -1.0603  1.2272
  400SOL    HW2 1900   2.878   1.941   6.841 -0.2721  2.3890  0.3457
  401SOL     OW 1901   0.115   2.635   4.233  0.2494  0.9823 -0.2738
  401SOL    HW1 1902   0.149   2.661   4.147 -0.1192 -0.1147 -0.7750
  401SOL    HW2 1903   0.104   2.540   4.226  0.7933  0.7840  1.1947
  402SOL     OW 1904   6.662   3.591   3.560  0.2248 -0.6766  0.0914
  402SOL    HW1 1905   6.714   3.543   3.625 -0.4322  0.3721  1.4530
  402SOL    HW2 1906   6.715   3.666   3.536 -0.6996  0.5738  1.7273
  403SOL     OW 1907   6.886   1.997   3.099  0.3409 -0.2574 -0.5209
  403SOL    HW1 1908   6.908   2.067   3.160 -2.0143  0.0848  0.0291
  403SOL    HW2 1909   6.903   2.034   3.012  0.3885  0.5142 -0.1881
  404SOL     OW 1910   4.184   0.566   5.960  0.0253 -0.1361 -0.0277
  404SOL    HW1 1911   4.096   0.533   5.979  0.8949 -1.5110  1.8429
  404SOL    HW2 1912   4.229   0.493   5.917  1.0161 -0.3847  1.3613
  405SOL     OW 1913   7.264   3.454   0.471 -0.1288  0.1298 -0.1590
  405SOL    HW1 1914   7.248   3.397   0.546  1.0026 -2.5879 -1.8342
  405SOL    HW2 1915   7.182   3.451   0.421 -0.0129 -0.1994 -0.3332
  406SOL     OW 1916   1.203   0.699   0.670  0.2279 -0.1050 -0.6030
  406SOL    HW1 1917   1.228   0.769   0.609  0.6562  0.5139  0.2598
  406SOL    HW2 1918   1.124   0.732   0.714  0.6216 -0.0099  0.0465
  407SOL     OW 1919   7.351   2.408   6.858 -0.2041 -0.4471 -0.0816
  407SOL    HW1 1920   7.420   2.355   6.818  0.4921 -0.0210  0.5154
  407SOL    HW2 1921   7.361   2.392   6.952  0.4350  1.1961  0.1679
  408SOL     OW 1922   6.191   3.122   4.638 -0.5755 -0.1231 -0.0147
  408SOL    HW1 1923   6.233   3.081   4.713  0.4349 -0.4359 -0.7250
  408SOL    HW2 1924   6.162   3.048   4.584 -1.2286  0.0960  0.0324
  409SOL     OW 1925   5.288   7.216   7.014  0.1783  0.4623 -0.0667
  409SOL    HW1 1926   5.299   7.295   6.960  0.9958  1.2416  1.1963
  409SOL    HW2 1927   5.256   7.249   7.098 -0.3626 -0.6660  0.1878
  410SOL     OW 1928   7.338   7.247   1.260 -0.0071  0.4182 -0.2438
  410SOL    HW1 1929   7.363   7.222   1.171 -1.7692 -0.3394 -0.5598
  410SOL    HW2 1930   7.413   7.298   1.292  0.7823  0.4697 -2.0434
  411SOL     OW 1931   0.122   6.230   6.676  0.3496 -0.2118  0.2575
  411SOL    HW1 1932   0.040   6.210   6.721 -0.0035  1.0206  0.1877
  411SOL    HW2 1933   0.157   6.144   6.650 -0.4553 -0.8037  1.0823
  412SOL     OW 1934   3.692   1.666   7.087  0.1934  0.4584  0.4900
  412SOL    HW1 1935   3.775   1.634   7.123  0.1656 -1.4462 -1.0272
  412SOL    HW2 1936   3.626   1.638   7.151  0.5664  0.9112  1.0876
  413SOL     OW 1937   2.690   3.628   2.475 -0.2491 -0.4019 -0.1814
  413SOL    HW1 1938   2.633   3.612   2.399  0.1123 -0.4907 -0.4389
  413SOL    HW2 1939   2.777   3.603   2.445 -0.4139 -2.5132  0.9649
  414SOL     OW 1940   0.719   3.195   7.067 -0.0716 -0.1236  0.1125
  414SOL    HW1 1941   0.703   3.267   7.129  0.4333 -0.6396  0.8521
  414SOL    HW2 1942   0.723   3.117   7.121  0.3274 -0.5962 -0.5866
  415SOL     OW 1943   2.800   6.067   5.969  0.5451  0.0674  0.2628
  415SOL    HW1 1944   2.826   5.986   6.012 -0.0020  0.6025  1.6607
  415SOL    HW2 1945   2.822   6.054   5.877  1.4934 -1.2307  0.6510
  416SOL     OW 1946   3.270   1.337   6.057  0.2121  0.0571  0.4550
  416SOL    HW1 1947   3.220   1.309   6.134 -2.1289  1.8807 -0.2957
  416SOL    HW2 1948   3.346   1.278   6.056 -1.5250 -2.4479  2.0610
  417SOL     OW 1949   7.811   4.016   7.340  0.7773  0.2842 -0.9423
  417SOL    HW1 1950   7.813   3.920   7.335  2.6797  0.2013  0.1521
  417SOL    HW2 1951   7.810   4.035   7.434 -1.3884  1.3921 -1.1287
  418SOL     OW 1952   1.276   7.774   1.315 -0.2304  0.2958  0.6852
  418SOL    HW1 1953   1.330   7.758   1.237 -0.4620  1.1464  0.3441
  418SOL    HW2 1954   1.191   7.736   1.293 -0.2525  0.4054  0.5804
  419SOL     OW 1955   2.584   2.476   6.136 -0.0735  0.1986  0.6903
  419SOL    HW1 1956   2.556   2.395   6.178  2.1867 -0.3532  1.2570
  419SOL    HW2 1957   2.613   2.450   6.048 -0.7850  0.6593  0.3077
  420SOL     OW 1958   3.578   2.442   2.312 -0.2710  0.0134  0.1829
  420SOL    HW1 1959   3.495   2.455   2.358 -0.4701 -1.1565  0.1795
  420SOL    HW2 1960   3.620   2.370   2.359 -0.1470 -0.7166 -1.0091
  421SOL     OW 1961   1.006   6.298   1.488  0.0299  0.1304  0.3396
  421SOL    HW1 1962   0.987   6.328   1.399  0.6883 -0.9804 -0.2000
  421SOL    HW2 1963   0.932   6.329   1.540 -0.7592  0.1431 -0.7445
  422SOL     OW 1964   2.383   4.733   6.722  0.2980 -0.3095  0.6680
  422SOL    HW1 1965   2.310   4.698   6.773  0.1586 -1.0702 -0.0329
  422SOL    HW2 1966   2.378   4.687   6.638  1.7283 -0.5571  0.6933
  423SOL     OW 1967   0.046   5.442   1.721 -0.3030  0.0651 -0.0366
  423SOL    HW1 1968   0.030   5.389   1.799  1.0950 -1.1391 -0.5105
  423SOL    HW2 1969   0.027   5.383   1.648 -1.1947  1.0443 -0.6160
  424SOL     OW 1970   4.350   6.231   4.248 -0.3024 -0.4537 -0.1256
  424SOL    HW1 1971   4.342   6.169   4.175 -0.8486  1.3968 -1.7343
  424SOL    HW2 1972   4.262   6.239   4.283 -0.3153 -0.2805 -0.1965
  425SOL     OW 1973   0.946   5.759   6.454  0.0462 -1.1035 -0.1713
  425SOL    HW1 1974   0.914   5.669   6.450  1.0337 -1.4397 -1.3267
  425SOL    HW2 1975   0.964   5.781   6.362  2.0847 -0.5752  0.3231
  426SOL     OW 1976   4.381   4.500   7.131  0.0256  0.1227 -0.7635
  426SOL    HW1 1977   4.414   4.536   7.213 -0.4103  1.1527 -1.0181
  426SOL    HW2 1978   4.288   4.482   7.149  0.1318 -0.4623 -0.7796
  427SOL     OW 1979   3.418   5.985   3.414 -0.1013 -0.4066  0.0318
  427SOL    HW1 1980   3.343   5.983   3.473 -0.0617 -2.5139  0.0682
  427SOL    HW2 1981   3.495   5.993   3.471 -0.0713 -2.3062  0.2886
  428SOL     OW 1982   6.457   4.150   6.814  0.9508  0.0306  0.0407
  428SOL    HW1 1983   6.375   4.191   6.843  0.3952 -1.9843  1.5926
  428SOL    HW2 1984   6.430   4.085   6.749  1.2025 -0.9362  0.8599
  429SOL     OW 1985   7.825   5.700   1.940 -0.4050  0.2172 -0.1675
  429SOL    HW1 1986   7.838   5.612   1.976  1.0211  0.6823  0.5197
  429SOL    HW2 1987   7.874   5.757   1.999 -1.1063  1.4549 -0.7532
  430SOL     OW 1988   0.295   5.690   3.041  0.0471 -0.0886 -0.1061
  430SOL    HW1 1989   0.323   5.742   3.116 -1.9317  1.3229 -0.2553
  430SOL    HW2 1990   0.318   5.744   2.965 -2.5529  1.0182 -0.2459
  431SOL     OW 1991   5.691   2.964   0.387  0.3438 -0.2150  0.6450
  431SOL    HW1 1992   5.746   3.007   0.322 -1.4158 -2.5365 -2.6568
  431SOL    HW2 1993   5.643   3.036   0.428  2.2188  1.4187  0.1390
  432SOL     OW 1994   2.195   1.195   5.890 -0.3959  0.7523 -0.1320
  432SOL    HW1 1995   2.170   1.287   5.893 -3.0230  0.2643 -2.5402
  432SOL    HW2 1996   2.129   1.150   5.943  0.6378  0.1702  0.7071
  433SOL     OW 1997   4.467   1.702   2.044 -0.1525  0.1549  0.4199
  433SOL    HW1 1998   4.491   1.786   2.083  1.3837 -0.9277  1.9047
  433SOL    HW2 1999   4.412   1.659   2.109 -1.2743  0.1496 -0.5021
  434SOL     OW 2000   4.364   2.930   7.672  0.0142 -0.2790  0.6135
  434SOL    HW1 2001   4.282   2.900   7.712 -1.0536 -0.0254 -1.2070
  434SOL    HW2 2002   4.351   3.025   7.661  0.9478 -0.0866  1.1253
  435SOL     OW 2003   1.597   0.295   5.816  0.0174 -0.2048 -0.0866
  435SOL    HW1 2004   1.537   0.248   5.873  0.0029  1.0461  0.9627
  435SOL    HW2 2005   1.683   0.287   5.858  0.5045 -1.4002 -1.2188
  436SOL     OW 2006   6.239   1.238   5.506  0.2498  0.5213  0.2699
  436SOL    HW1 2007   6.214   1.166   5.449  0.4079  1.4993 -1.1069
  436SOL    HW2 2008   6.327   1.216   5.535  1.6226  1.5477 -2.6969
  437SOL     OW 2009   6.300   7.038   0.093 -0.0484 -0.7733 -0.1225
  437SOL    HW1 2010   6.374   7.099   0.092 -0.2295 -0.4975 -2.5173
  437SOL    HW2 2011   6.231   7.084   0.045 -0.0260 -2.9767 -2.4611
  438SOL     OW 2012   3.145   4.221   3.734 -0.7073  0.6030  0.2842
  438SOL    HW1 2013   3.206   4.286   3.698  0.2366  0.4409  1.4818
  438SOL    HW2 2014   3.079   4.273   3.780 -0.4328  0.7593  0.5123
  439SOL     OW 2015   2.400   0.094   4.306  0.0692 -0.1523  0.9347
  439SOL    HW1 2016   2.446   0.043   4.240  0.7564 -1.3616  2.2701
  439SOL    HW2 2017   2.437   0.182   4.299  0.0930 -0.2441 -0.2914
  440SOL     OW 2018   0.655   2.695   3.499 -0.8249 -0.5918  0.0437
  440SOL    HW1 2019   0.684   2.784   3.478 -1.9963 -0.6128 -1.9234
  440SOL    HW2 2020   0.666   2.688   3.594 -0.8802  1.7250  0.2802
  441SOL     OW 2021   4.017   6.091   3.648 -0.0127  0.0820  0.4953
  441SOL    HW1 2022   3.995   6.009   3.605 -0.3152 -0.2943  1.3396
  441SOL    HW2 2023   3.935   6.140   3.649  0.1472  0.3601  0.0703
  442SOL     OW 2024   5.854   6.995   2.541  0.1960  0.1451  0.5174
  442SOL    HW1 2025   5.884   6.988   2.631 -1.7574 -0.0521  1.2128
  442SOL    HW2 2026   5.909   7.063   2.502  3.0368 -1.7564  0.9375
  443SOL     OW 2027   3.571   0.829   7.912 -0.1838 -0.7374 -0.3067
  443SOL    HW1 2028   3.625   0.750   7.905  1.3746  0.0555  1.7707
  443SOL    HW2 2029   3.483   0.795   7.931  0.8741 -2.0998  3.0707
  444SOL     OW 2030   4.680   3.326   5.017 -0.5851 -0.2052  0.1051
  444SOL    HW1 2031   4.643   3.396   4.963  0.6461 -0.3882 -1.0376
  444SOL    HW2 2032   4.771   3.353   5.031 -0.2858 -1.2522  0.2341
  445SOL     OW 2033   0.978   1.901   3.579 -0.4829  0.4678 -0.0949
  445SOL    HW1 2034   0.976   1.996   3.569  0.5579  0.4540 -0.5360
  445SOL    HW2 2035   0.953   1.867   3.492  3.0297  0.3647 -1.2096
  446SOL     OW 2036   4.583   1.683   0.767  0.2681  0.1338  0.7884
  446SOL    HW1 2037   4.665   1.671   0.816  0.0236  0.3467  1.2598
  446SOL    HW2 2038   4.611   1.701   0.678  0.6999 -1.3791  0.5899
  447SOL     OW 2039   4.231   0.824   2.240 -0.3780  0.5968 -0.1222
  447SOL    HW1 2040   4.272   0.738   2.247  0.5422  1.0955  0.8886
  447SOL    HW2 2041   4.138   0.807   2.254 -0.3990 -0.4048 -1.3526
  448SOL     OW 2042   7.536   0.253   5.060  0.0973 -0.1940 -0.2622
  448SOL    HW1 2043   7.514   0.277   5.150  1.6370 -1.7462  0.5942
  448SOL    HW2 2044   7.581   0.330   5.025  0.8043 -0.1056  0.8102
  449SOL     OW 2045   1.784   4.926   5.074  0.4753  0.5753 -0.8825
  449SOL    HW1 2046   1.755   4.865   5.006 -1.2478  0.0320  0.2694
  449SOL    HW2 2047   1.748   5.011   5.048 -0.8321  0.2208 -0.3021
  450SOL     OW 2048   7.292   5.902   1.596 -0.0344 -0.6410 -0.4416
  450SOL    HW1 2049   7.317   5.816   1.631  0.1801 -0.5517 -0.3775
  450SOL    HW2 2050   7.348   5.964   1.642 -1.5512 -0.2632  1.0308
  451SOL     OW 2051   5.024   7.551   2.767  0.0711 -0.0635 -0.3706
  451SOL    HW1 2052   5.063   7.493   2.832 -0.2028  0.8275  0.6244
  451SOL    HW2 2053   5.058   7.521   2.683  4.2593  1.6354  0.4814
  452SOL     OW 2054   3.060   2.729   5.292  0.9426  0.1751  0.5343
  452SOL    HW1 2055   3.091   2.639   5.278  1.1713  0.3505 -0.1379
  452SOL    HW2 2056   3.063   2.768   5.205  1.2545  0.9694  0.8988
  453SOL     OW 2057   0.501   5.410   6.587 -0.2096 -0.2526 -0.2782
  453SOL    HW1 2058   0.593   5.434   6.582 -0.6608  1.4454 -1.2616
  453SOL    HW2 2059   0.495   5.327   6.538  0.7102 -0.1199 -0.6273
  454SOL     OW 2060   4.743   1.599   5.517 -0.9480  0.6866 -0.3496
  454SOL    HW1 2061   4.694   1.551   5.450 -0.4603  0.6216 -0.6607
  454SOL    HW2 2062   4.807   1.535   5.550  1.1690  1.6933 -2.2613
  455SOL     OW 2063   7.609   2.609   0.985  0.3681 -0.0394 -0.4795
  455SOL    HW1 2064   7.599   2.681   0.922  0.7075  0.8206  0.4281
  455SOL    HW2 2065   7.702   2.610   1.008  0.6384 -1.5863 -1.3838
  456SOL     OW 2066   0.674   0.674   1.400 -0.2830  0.5562 -0.2842
  456SOL    HW1 2067   0.721   0.639   1.324 -1.6814  2.5792 -2.2030
  456SOL    HW2 2068   0.726   0.645   1.475  0.1650 -3.1350 -1.7922
  457SOL     OW 2069   4.443   5.228   3.180 -0.4365 -0.7287 -0.7886
  457SOL    HW1 2070   4.477   5.151   3.225  0.0272 -0.8044 -1.2553
  457SOL    HW2 2071   4.516   5.290   3.181 -0.5035 -0.6421 -1.2220
  458SOL     OW 2072   5.051   5.172   4.170  0.1061  0.1892 -0.0353
  458SOL    HW1 2073   5.052   5.082   4.203 -2.3552 -0.0415 -0.4528
  458SOL    HW2 2074   5.140   5.204   4.186  0.7261 -1.9378  1.1314
  459SOL     OW 2075   4.490   7.485   7.365 -0.1689 -0.5166 -0.1534
  459SOL    HW1 2076   4.432   7.410   7.373 -1.3271  0.4791  1.3702
  459SOL    HW2 2077   4.568   7.451   7.320 -1.0584 -2.3667 -0.3712
  460SOL     OW 2078   2.241   1.461   4.063  0.0632 -0.3538 -0.2079
  460SOL    HW1 2079   2.202   1.458   3.976 -0.3712 -0.3709 -0.0149
  460SOL    HW2 2080   2.235   1.371   4.095  1.8476 -0.7374 -0.8588
  461SOL     OW 2081   5.658   5.894   6.725 -0.4282  0.6170 -0.0174
  461SOL    HW1 2082   5.653   5.955   6.652 -0.0829  0.9500  0.2373
  461SOL    HW2 2083   5.597   5.824   6.702 -2.2796  1.9669  0.5743
  462SOL     OW 2084   6.389   0.527   5.703  0.1120  0.3408 -0.3228
  462SOL    HW1 2085   6.469   0.480   5.680  0.4156 -0.1111  1.4625
  462SOL    HW2 2086   6.319   0.462   5.696  0.1270  0.3421 -0.4753
  463SOL     OW 2087   5.979   4.459   1.584  0.1915  0.0693  0.2143
  463SOL    HW1 2088   5.962   4.382   1.529 -0.1612  0.1369  0.2275
  463SOL    HW2 2089   5.935   4.439   1.667 -0.7911  0.7267 -0.1321
  464SOL     OW 2090   5.671   4.566   0.974  0.0392 -0.2700 -0.6499
  464SOL    HW1 2091   5.728   4.608   0.909 -0.9678  0.2202 -1.2527
  464SOL    HW2 2092   5.712   4.482   0.992  0.2906 -0.4605 -2.0149
  465SOL     OW 2093   4.744   0.199   3.514 -0.0632 -0.2536  0.1243
  465SOL    HW1 2094   4.795   0.276   3.489 -1.1391  0.0405 -1.3273
  465SOL    HW2 2095   4.798   0.125   3.489 -0.8701  0.0297 -2.8719
  466SOL     OW 2096   0.846   6.123   4.489  0.5237 -0.4225 -0.5139
  466SOL    HW1 2097   0.874   6.148   4.577  0.5587 -0.6252 -0.4676
  466SOL    HW2 2098   0.923   6.082   4.450 -0.1816 -2.6306  0.2371
  467SOL     OW 2099   3.062   4.932   2.765  0.2483  0.0713  0.2373
  467SOL    HW1 2100   3.094   4.920   2.675 -2.6624 -1.7745 -0.6746
  467SOL    HW2 2101   2.996   5.000   2.758  1.4297  1.3992  1.4403
  468SOL     OW 2102   7.310   5.917   7.231 -0.7264 -0.3027 -0.0148
  468SOL    HW1 2103   7.331   5.983   7.165  0.2304  0.6490  1.1939
  468SOL    HW2 2104   7.218   5.932   7.253 -0.3570  1.0910  0.6993
  469SOL     OW 2105   2.760   2.059   4.951  0.1608 -0.0423  0.3278
  469SOL    HW1 2106   2.852   2.041   4.933 -0.5353 -2.6944 -1.1804
  469SOL    HW2 2107   2.726   2.095   4.869 -0.4606 -0.6228  0.3219
  470SOL     OW 2108   3.212   3.675   6.654  0.2213 -0.3200  0.1690
  470SOL    HW1 2109   3.274   3.629   6.710  0.4777 -1.2108 -0.8287
  470SOL    HW2 2110   3.246   3.764   6.648  1.1147 -0.6677  0.0446
  471SOL     OW 2111   4.670   2.300   0.966  0.1268 -1.3667 -0.1978
  471SOL    HW1 2112   4.741   2.316   1.028  0.7130 -1.0509 -0.9405
  471SOL    HW2 2113   4.628   2.220   0.998  1.4705 -2.1526 -0.3350
  472SOL     OW 2114   2.603   1.762   1.011  0.3488  0.3131 -0.4771
  472SOL    HW1 2115   2.672   1.765   1.077  0.8389 -1.4139 -0.8635
  472SOL    HW2 2116   2.522   1.776   1.061  0.8506  0.8658  0.1996
  473SOL     OW 2117   0.478   3.732   4.205  0.0674  0.2159 -0.3304
  473SOL    HW1 2118   0.523   3.704   4.125  0.4263  0.4034 -0.2001
  473SOL    HW2 2119   0.412   3.665   4.221 -0.2844  0.3918 -1.0099
  474SOL     OW 2120   1.344   4.630   4.019  0.3035  0.2800  0.2106
  474SOL    HW1 2121   1.384   4.544   4.009 -0.0412  0.0622  0.6312
  474SOL    HW2 2122   1.364   4.676   3.938 -0.4824 -0.5953 -0.5008
  475SOL     OW 2123   5.551   3.650   3.906 -0.0402  0.4517  0.2163
  475SOL    HW1 2124   5.503   3.733   3.903 -1.6703 -0.4459 -1.0413
  475SOL    HW2 2125   5.513   3.599   3.834 -0.6873 -2.2039  2.2786
  476SOL     OW 2126   3.040   6.806   2.666 -0.6699 -0.7468 -0.1232
  476SOL    HW1 2127   2.985   6.878   2.636 -0.1016 -0.7388 -1.1769
  476SOL    HW2 2128   3.056   6.826   2.759 -0.8296  0.2869 -0.2990
  477SOL     OW 2129   5.412   7.059   0.716 -0.0556 -0.1673  1.0190
  477SOL    HW1 2130   5.453   6.982   0.753 -2.2181 -1.3995  1.0315
  477SOL    HW2 2131   5.384   7.032   0.628 -0.1324  0.8702  0.7058
  478SOL     OW 2132   0.570   0.077   3.340  0.1206 -1.0594 -0.1910
  478SOL    HW1 2133   0.661   0.067   3.313  0.9227  1.5420  1.2511
  478SOL    HW2 2134   0.563   0.027   3.421  0.7456 -0.0162  0.5323
  479SOL     OW 2135   4.970   1.936   7.380  0.6876 -0.2236  0.2432
  479SOL    HW1 2136   5.017   1.920   7.462 -0.5274  1.3691  1.3161
  479SOL    HW2 2137   4.879   1.948   7.406 -0.0408 -1.3665 -1.5663
  480SOL     OW 2138   6.364   6.749   4.818  0.6176  0.5078  0.1334
  480SOL    HW1 2139   6.277   6.782   4.795  0.2722  0.0609  0.7668
  480SOL    HW2 2140   6.385   6.791   4.901  1.1433  0.8468 -0.1664
  481SOL     OW 2141   3.751   7.545   3.307 -0.3959 -0.3505 -0.0805
  481SOL    HW1 2142   3.814   7.609   3.273 -0.2389 -0.2094  0.4523
  481SOL    HW2 2143   3.730   7.578   3.395  2.0791 -2.6242  1.5335
  482SOL     OW 2144   3.329   4.165   2.392  0.3095  0.1744  0.3725
  482SOL    HW1 2145   3.376   4.134   2.314 -0.4407 -0.2978  0.0948
  482SOL    HW2 2146   3.320   4.087   2.447  0.7813  0.4946  0.9076
  483SOL     OW 2147   6.645   1.833   0.728 -0.0539 -0.1680 -0.1088
  483SOL    HW1 2148   6.577   1.850   0.794  1.4483 -2.0343  2.1175
  483SOL    HW2 2149   6.606   1.767   0.671 -0.6836 -0.0525  0.1756
  484SOL     OW 2150   3.649   2.595   7.920  0.1943 -0.2566 -0.4542
  484SOL    HW1 2151   3.678   2.620   7.833  0.8450 -0.1110 -0.2003
  484SOL    HW2 2152   3.586   2.663   7.945  0.8711  0.3474 -0.3541
  485SOL     OW 2153   4.038   6.233   2.176 -0.1783  0.1521 -0.1329
  485SOL    HW1 2154   4.001   6.240   2.088  2.3088 -2.0394 -1.4767
  485SOL    HW2 2155   3.993   6.158   2.215 -0.3688  0.3285 -0.0105
  486SOL     OW 2156   2.455   5.685   6.726 -0.9237 -0.4516  0.4456
  486SOL    HW1 2157   2.500   5.758   6.683  0.8760 -0.7062  1.7996
  486SOL    HW2 2158   2.363   5.712   6.730 -0.1413  2.2500  1.9011
  487SOL     OW 2159   2.285   1.864   4.807  0.4397  0.1061  0.3710
  487SOL    HW1 2160   2.308   1.802   4.738  2.1745  0.7144  0.3374
  487SOL    HW2 2161   2.212   1.824   4.853 -1.0764 -0.1156 -2.0729
  488SOL     OW 2162   7.669   3.138   2.400  0.4368  0.2229  0.0942
  488SOL    HW1 2163   7.656   3.062   2.457 -2.5709  1.1234  0.7867
  488SOL    HW2 2164   7.612   3.122   2.325  0.5912  1.2833 -0.2663
  489SOL     OW 2165   5.147   0.488   6.342 -0.0764 -0.3400 -0.2329
  489SOL    HW1 2166   5.187   0.538   6.270  0.8916 -0.3575  0.2714
  489SOL    HW2 2167   5.219   0.476   6.404 -0.1482 -2.7911 -0.5542
  490SOL     OW 2168   5.438   5.396   0.674  0.5432 -0.1709  0.0638
  490SOL    HW1 2169   5.454   5.397   0.768  0.4963 -1.6595  0.1159
  490SOL    HW2 2170   5.415   5.486   0.652 -0.7003 -0.0416  1.7020
  491SOL     OW 2171   3.681   1.189   0.807  0.0388  0.6430 -0.0776
  491SOL    HW1 2172   3.689   1.152   0.895 -1.0494 -0.4868 -0.4280
  491SOL    HW2 2173   3.694   1.283   0.819 -1.4230  0.6793  1.5170
  492SOL     OW 2174   7.555   1.396   7.011  0.9016 -0.0805  0.0083
  492SOL    HW1 2175   7.519   1.484   6.997  0.8418 -0.1543 -0.3111
  492SOL    HW2 2176   7.499   1.358   7.079  0.1318 -0.3290 -0.7379
  493SOL     OW 2177   7.881   3.534   0.359  0.2600  0.3673 -0.0575
  493SOL    HW1 2178   7.807   3.524   0.299  0.2972 -2.4830  0.2405
  493SOL    HW2 2179   7.842   3.571   0.438 -1.2510 -2.4155  0.6256
  494SOL     OW 2180   3.485   7.290   3.205 -0.6196 -0.5901  0.2679
  494SOL    HW1 2181   3.534   7.370   3.186  0.1402 -1.1511 -0.2300
  494SOL    HW2 2182   3.431   7.311   3.280  0.0019  0.2205  0.4986
  495SOL     OW 2183   5.396   3.594   2.886  0.1167  0.4548  0.2045
  495SOL    HW1 2184   5.438   3.538   2.820  3.5670  0.8787  1.8029
  495SOL    HW2 2185   5.386   3.679   2.842 -0.6017 -0.0695 -0.6969
  496SOL     OW 2186   3.555   2.323   3.150 -0.3637 -0.4708  0.0438
  496SOL    HW1 2187   3.509   2.402   3.177 -0.0793  1.2740 -3.8694
  496SOL    HW2 2188   3.648   2.343   3.162 -0.2823 -0.0566 -1.1051
  497SOL     OW 2189   5.503   7.319   2.601 -0.0271 -0.5482  0.0279
  497SOL    HW1 2190   5.569   7.251   2.616 -0.0857 -1.1165 -2.0403
  497SOL    HW2 2191   5.553   7.400   2.589  0.1421 -0.5486  0.6933
  498SOL     OW 2192   4.594   3.631   6.006 -0.4497 -0.5146 -0.0755
  498SOL    HW1 2193   4.509   3.616   6.047 -0.2256  0.6113  0.8766
  498SOL    HW2 2194   4.596   3.725   5.989  1.4206 -0.1122  1.9138
  499SOL     OW 2195   7.227   7.854   4.873 -0.0683  0.2866  0.1070
  499SOL    HW1 2196   7.231   7.918   4.945 -0.5968  1.4897 -0.9020
  499SOL    HW2 2197   7.143   7.810   4.884  0.4817 -0.5732  1.0567
  500SOL     OW 2198   1.916   2.402   5.094 -0.0914  0.0198 -0.4617
  500SOL    HW1 2199   1.921   2.475   5.032 -2.2055  0.1456 -0.5630
  500SOL    HW2 2200   1.895   2.443   5.178  1.9737 -0.2226  0.2145
  501SOL     OW 2201   0.377   6.191   3.263  0.7435  0.3845 -0.4037
  501SOL    HW1 2202   0.367   6.184   3.168  0.5819 -0.7417 -0.3182
  501SOL    HW2 2203   0.315   6.126   3.298  1.8062 -0.2123  0.4253
  502SOL     OW 2204   1.740   5.922   4.825 -0.4388  0.1819 -0.0713
  502SOL    HW1 2205   1.699   5.837   4.841  0.1874 -0.2399 -0.6555
  502SOL    HW2 2206   1.690   5.959   4.751  0.1757 -0.3038 -0.7416
  503SOL     OW 2207   7.858   5.111   5.186 -0.3536  0.2401  0.1939
  503SOL    HW1 2208   7.764   5.099   5.202 -0.3086  1.4454  1.6211
  503SOL    HW2 2209   7.878   5.197   5.224  1.5262 -0.4024  0.7613
  504SOL     OW 2210   0.348   1.847   1.745  0.0974  0.1809 -0.4538
  504SOL    HW1 2211   0.417   1.899   1.786 -1.5153  1.5672  0.6789
  504SOL    HW2 2212   0.344   1.879   1.655 -0.0497  1.1794 -0.1075
  505SOL     OW 2213   4.757   6.363   7.352 -0.8457  0.1345 -0.1929
  505SOL    HW1 2214   4.710   6.281   7.347 -0.7345  0.0096  0.7264
  505SOL    HW2 2215   4.761   6.384   7.445  0.5350  0.3487 -0.2658
  506SOL     OW 2216   4.778   7.820   5.606  0.7143  0.0094 -0.1732
  506SOL    HW1 2217   4.698   7.769   5.596  0.2473  0.5211  0.8027
  506SOL    HW2 2218   4.823   7.811   5.522  0.2778 -1.3717 -0.2874
  507SOL     OW 2219   1.378   6.865   4.524  0.0809 -0.9553  0.0914
  507SOL    HW1 2220   1.386   6.902   4.436 -1.2045 -0.4961  0.1551
  507SOL    HW2 2221   1.364   6.941   4.580  0.6324 -1.2732  0.6732
  508SOL     OW 2222   7.591   1.586   4.638  0.3687  0.4664 -0.2471
  508SOL    HW1 2223   7.589   1.594   4.543 -0.3551  1.3583 -0.1668
  508SOL    HW2 2224   7.671   1.631   4.665  0.6492  0.0854 -0.4393
  509SOL     OW 2225   0.982   7.371   4.233 -0.3176  0.0431  0.1599
  509SOL    HW1 2226   0.945   7.386   4.145 -0.4319 -0.9625  0.0222
  509SOL    HW2 2227   1.024   7.286   4.226 -2.0929 -1.0295  1.6338
  510SOL     OW 2228   2.252   2.523   5.088 -0.1160  0.7067  0.1917
  510SOL    HW1 2229   2.249   2.521   5.184  2.3508 -1.5777  0.3243
  510SOL    HW2 2230   2.336   2.564   5.068 -0.1919  0.3119 -0.9820
  511SOL     OW 2231   3.012   2.161   1.937 -0.1872 -0.2353 -0.1852
  511SOL    HW1 2232   3.082   2.218   1.967 -0.3996 -0.2652  0.3924
  511SOL    HW2 2233   2.971   2.208   1.865  1.7737 -1.1491 -2.0013
  512SOL     OW 2234   4.170   5.071   2.104 -0.1776  0.9798 -0.0622
  512SOL    HW1 2235   4.238   5.003   2.103  1.1778  2.1834  1.9869
  512SOL    HW2 2236   4.208   5.144   2.054 -0.3602  1.3009  0.2657
  513SOL     OW 2237   3.990   2.671   4.971  0.0377  0.0023 -0.3898
  513SOL    HW1 2238   3.902   2.695   4.999 -0.1064 -0.2542 -0.6121
  513SOL    HW2 2239   4.047   2.734   5.014  0.0485 -1.7173  2.2751
  514SOL     OW 2240   6.355   0.983   6.694  0.1069  0.2678  0.6111
  514SOL    HW1 2241   6.267   0.968   6.729  1.3217 -1.1138  3.4369
  514SOL    HW2 2242   6.372   1.076   6.710 -0.1225  0.0926  2.0450
  515SOL     OW 2243   6.409   7.973   0.730 -0.4668 -0.0797 -0.4665
  515SOL    HW1 2244   6.456   7.942   0.653  1.9903  0.4932  0.7198
  515SOL    HW2 2245   6.438   7.916   0.801 -1.6363  0.2586  0.3214
  516SOL     OW 2246   7.561   1.816   7.607 -0.5629 -0.0686  0.0013
  516SOL    HW1 2247   7.520   1.749   7.662  1.7198 -0.9084  0.8017
  516SOL    HW2 2248   7.500   1.890   7.611 -2.0323 -1.2669  0.9992
  517SOL     OW 2249   7.794   0.867   3.816  0.0735  1.5679  0.2639
  517SOL    HW1 2250   7.836   0.782   3.829  1.3247  2.1535  0.1288
  517SOL    HW2 2251   7.706   0.856   3.852  0.8440  0.7982  1.9849
  518SOL     OW 2252   1.802   1.687   0.172 -0.2693  0.4290  0.0448
  518SOL    HW1 2253   1.844   1.723   0.250 -0.9590  0.0253  0.6303
  518SOL    HW2 2254   1.710   1.712   0.181 -0.5257 -0.3867 -0.1694
  519SOL     OW 2255   6.845   3.360   2.191 -0.4395  0.1773 -0.9202
  519SOL    HW1 2256   6.802   3.278   2.169  1.2663 -1.0696  0.1670
  519SOL    HW2 2257   6.876   3.394   2.107 -1.0862 -0.3198 -1.3706
  520SOL     OW 2258   4.597   4.640   0.318 -0.6516 -0.1139  0.6008
  520SOL    HW1 2259   4.677   4.649   0.370  0.2896  0.3039 -0.8666
  520SOL    HW2 2260   4.577   4.728   0.288 -1.4521 -0.2792  0.6089
  521SOL     OW 2261   4.110   1.110   2.416  0.3861  0.2550  0.6153
  521SOL    HW1 2262   4.079   1.083   2.330  2.1197 -2.0652  0.6055
  521SOL    HW2 2263   4.037   1.158   2.454 -0.6212  0.8607 -1.9126
  522SOL     OW 2264   2.652   6.956   0.499 -0.0540  0.2097  0.1067
  522SOL    HW1 2265   2.568   7.002   0.500  0.0553  0.4102  0.0446
  522SOL    HW2 2266   2.714   7.020   0.464  0.5844  0.8633  2.2669
  523SOL     OW 2267   2.803   4.815   6.970 -0.0010  0.5239 -0.0046
  523SOL    HW1 2268   2.740   4.756   7.011 -0.5537  0.4966 -0.8511
  523SOL    HW2 2269   2.755   4.852   6.895  0.6967  1.2040 -0.1272
  524SOL     OW 2270   6.037   3.559   0.847  0.0633  0.4455 -0.1760
  524SOL    HW1 2271   6.039   3.583   0.754  1.8934  0.5364 -0.1438
  524SOL    HW2 2272   6.129   3.545   0.870 -0.4327 -0.3771  1.4241
  525SOL     OW 2273   1.453   7.634   5.607 -0.5912 -0.0153  0.5181
  525SOL    HW1 2274   1.525   7.697   5.609 -1.2372  0.7354  0.9552
  525SOL    HW2 2275   1.444   7.606   5.698 -0.6036 -0.3957  0.4002
  526SOL     OW 2276   2.617   7.779   0.795  0.6016  0.5431  0.2504
  526SOL    HW1 2277   2.642   7.815   0.881 -2.3468 -0.1487  1.5166
  526SOL    HW2 2278   2.646   7.688   0.798  0.7891  0.6074  0.4048
  527SOL     OW 2279   3.404   5.879   5.576 -0.2399 -0.1830 -0.1030
  527SOL    HW1 2280   3.492   5.916   5.585 -0.2337 -0.5112  1.4649
  527SOL    HW2 2281   3.400   5.849   5.485  1.0634  0.3329 -0.3539
  528SOL     OW 2282   4.701   5.119   7.071 -0.5376  0.1428  0.2053
  528SOL    HW1 2283   4.789   5.084   7.067 -0.6331 -0.0276 -0.4532
  528SOL    HW2 2284   4.644   5.043   7.082 -0.6808  0.1484 -0.4360
  529SOL     OW 2285   4.513   5.056   4.050 -0.4780  0.2553 -0.7490
  529SOL    HW1 2286   4.557   4.983   4.005 -0.4343  0.9919 -1.9400
  529SOL    HW2 2287   4.429   5.064   4.005 -0.4826  0.9375 -0.6258
  530SOL     OW 2288   5.954   4.682   1.750 -0.1414 -0.1284  0.1421
  530SOL    HW1 2289   6.017   4.628   1.701 -0.6418  0.2942 -1.0189
  530SOL    HW2 2290   5.967   4.770   1.715 -0.6383  0.1564  0.6665
  531SOL     OW 2291   5.172   6.836   3.681  0.5649  0.2341  0.0831
  531SOL    HW1 2292   5.103   6.884   3.726  1.3187  1.2063  0.2394
  531SOL    HW2 2293   5.128   6.794   3.607 -0.4185 -0.2062  0.8947
  532SOL     OW 2294   1.343   6.573   0.691 -0.4400  0.2729  0.3391
  532SOL    HW1 2295   1.334   6.481   0.715 -0.5107  0.7112  2.1488
  532SOL    HW2 2296   1.415   6.604   0.746  0.2951  1.0554 -1.0300
  533SOL     OW 2297   4.307   7.081   3.311  0.2179 -0.1840  0.2278
  533SOL    HW1 2298   4.403   7.078   3.310  0.3047 -0.4369 -3.0948
  533SOL    HW2 2299   4.286   7.173   3.293  0.0691 -0.7377 -3.1545
  534SOL     OW 2300   4.181   4.167   5.611  0.0106  0.1904  0.3740
  534SOL    HW1 2301   4.262   4.123   5.586  0.4540  1.7156 -1.1047
  534SOL    HW2 2302   4.209   4.237   5.671 -0.1131  1.0322 -0.5231
  535SOL     OW 2303   4.864   6.421   3.966 -0.3323  0.6824 -0.6537
  535SOL    HW1 2304   4.901   6.434   3.879  1.7060  0.1400  0.0611
  535SOL    HW2 2305   4.824   6.505   3.988 -0.1782  1.0715 -1.7876
  536SOL     OW 2306   2.022   2.146   7.476  0.5799  0.0686 -0.6569
  536SOL    HW1 2307   1.939   2.115   7.440  0.5150 -0.2684 -0.2177
  536SOL    HW2 2308   2.038   2.090   7.552  0.7651  0.7172 -0.2163
  537SOL     OW 2309   3.002   2.752   0.400 -0.0623  0.4446 -0.0846
  537SOL    HW1 2310   3.035   2.711   0.320 -1.3140 -0.0682 -0.3665
  537SOL    HW2 2311   2.952   2.682   0.443  0.6147  0.7094  1.1634
  538SOL     OW 2312   1.662   7.470   1.693 -0.0141 -0.0872 -0.3310
  538SOL    HW1 2313   1.662   7.479   1.598  0.0032  0.7304 -0.2583
  538SOL    HW2 2314   1.722   7.538   1.724  0.0414 -0.3926  0.2639
  539SOL     OW 2315   4.113   6.267   1.442  0.6637 -0.1748  0.5370
  539SOL    HW1 2316   4.106   6.298   1.351  2.2856  0.8290  0.7109
  539SOL    HW2 2317   4.049   6.320   1.490  0.4357 -0.0640  0.1163
  540SOL     OW 2318   1.438   5.819   0.996  0.4128 -0.3480  0.1942
  540SOL    HW1 2319   1.502   5.889   1.009  0.3925 -0.5558  1.6300
  540SOL    HW2 2320   1.455   5.786   0.908  0.2766  1.5980 -0.6170
  541SOL     OW 2321   4.268   3.457   6.797  0.1510  0.3504  0.4550
  541SOL    HW1 2322   4.235   3.540   6.762 -0.2663 -0.9454 -2.5530
  541SOL    HW2 2323   4.191   3.400   6.801  0.9362 -0.8932 -0.9232
  542SOL     OW 2324   6.046   3.163   5.919 -0.3283  0.2105 -0.0751
  542SOL    HW1 2325   5.988   3.222   5.870  0.0892 -0.2511 -1.1652
  542SOL    HW2 2326   6.007   3.158   6.006 -0.9564  1.2681 -0.2727
  543SOL     OW 2327   0.362   3.991   6.701  0.1559 -1.0455  0.3858
  543SOL    HW1 2328   0.458   3.995   6.708  0.1988  1.0713 -0.6755
  543SOL    HW2 2329   0.344   4.006   6.608 -1.2434  0.9206  0.9155
  544SOL     OW 2330   4.302   6.926   0.953  0.4382  0.3816 -0.1872
  544SOL    HW1 2331   4.265   7.014   0.944  0.0961  0.2239 -0.3618
  544SOL    HW2 2332   4.305   6.910   1.047 -3.6041 -1.0830 -0.1004
  545SOL     OW 2333   2.103   4.733   3.360 -0.0643 -0.0573  0.5034
  545SOL    HW1 2334   2.089   4.640   3.345  0.9075 -0.1117 -0.1110
  545SOL    HW2 2335   2.115   4.741   3.455 -1.1105 -0.4085  0.6813
  546SOL     OW 2336   4.943   3.917   3.920 -0.0691  0.1545  0.2216
  546SOL    HW1 2337   5.012   3.853   3.939  0.2040  1.1513  3.1451
  546SOL    HW2 2338   4.883   3.910   3.995 -1.8998  0.9478 -1.1034
  547SOL     OW 2339   1.092   6.052   1.881  0.3097 -0.0552  0.0643
  547SOL    HW1 2340   0.998   6.033   1.883 -0.0970  1.8060  0.2065
  547SOL    HW2 2341   1.117   6.039   1.790 -0.2036 -0.0456 -0.0827
  548SOL     OW 2342   3.293   6.209   7.800 -0.5022  0.1074  0.0471
  548SOL    HW1 2343   3.334   6.285   7.840  2.1791 -0.6750 -1.0088
  548SOL    HW2 2344   3.209   6.242   7.766  0.5577  2.5943 -0.3631
  549SOL     OW 2345   5.306   7.375   6.078  0.0651 -0.3167  0.0076
  549SOL    HW1 2346   5.396   7.358   6.104 -0.0121 -1.2033 -0.2782
  549SOL    HW2 2347   5.254   7.341   6.151 -0.1511 -2.7197 -1.1669
  550SOL     OW 2348   5.940   3.532   7.571  0.9225 -0.0403 -0.2938
  550SOL    HW1 2349   5.911   3.563   7.657  1.9995 -1.4022  0.6112
  550SOL    HW2 2350   5.926   3.437   7.574  2.2799 -0.2994 -1.0758
  551SOL     OW 2351   1.824   5.341   5.001 -0.0662  0.1445 -0.5238
  551SOL    HW1 2352   1.877   5.301   5.070 -0.0566  1.1887  0.0888
  551SOL    HW2 2353   1.874   5.418   4.974 -2.2795  2.4936  1.6792
  552SOL     OW 2354   0.980   5.279   6.670 -0.0212  0.2472  0.1248
  552SOL    HW1 2355   1.043   5.310   6.735 -1.7910  1.0297  1.5593
  552SOL    HW2 2356   0.924   5.355   6.653 -0.8722 -0.5475 -0.7558
  553SOL     OW 2357   2.684   1.935   0.061  0.3871 -0.2952 -0.6655
  553SOL    HW1 2358   2.685   1.879   0.139  0.0412  0.1527 -0.3303
  553SOL    HW2 2359   2.732   1.885  -0.005  3.0050  0.3858  0.5834
  554SOL     OW 2360   4.054   0.695   4.795 -0.0259 -0.4086 -0.6335
  554SOL    HW1 2361   4.063   0.788   4.818 -0.4296 -0.6990  0.8057
  554SOL    HW2 2362   4.078   0.648   4.875  4.1822 -1.7775 -2.4331
  555SOL     OW 2363   3.697   2.909   0.561  0.0142  0.3175  0.6441
  555SOL    HW1 2364   3.750   2.976   0.518 -0.2943 -0.4573 -1.0358
  555SOL    HW2 2365   3.619   2.901   0.506 -0.9549  0.0725  1.9974
  556SOL     OW 2366   3.904   4.709   5.944 -0.1128  0.5494 -0.0233
  556SOL    HW1 2367   3.863   4.777   5.890 -0.4637 -0.0793 -0.5622
  556SOL    HW2 2368   3.834   4.679   6.002  0.4199  1.6680  1.2743
  557SOL     OW 2369   7.464   6.316   5.096 -0.3020 -0.1584 -0.0329
  557SOL    HW1 2370   7.375   6.293   5.124 -1.5890  1.7069 -2.3079
  557SOL    HW2 2371   7.493   6.240   5.045 -0.9613 -0.3811 -0.0855
  558SOL     OW 2372   3.359   1.378   7.049  0.3345  0.4105 -0.8321
  558SOL    HW1 2373   3.438   1.394   7.101 -0.9427  0.1609  1.2783
  558SOL    HW2 2374   3.350   1.456   6.995  0.6011  1.6694  0.8460
  559SOL     OW 2375   5.472   4.187   6.331 -0.8309  0.5094  0.4589
  559SOL    HW1 2376   5.429   4.271   6.350  0.1560  0.6435  2.3534
  559SOL    HW2 2377   5.462   4.137   6.412  1.0768 -0.0862  0.3693
  560SOL     OW 2378   5.720   2.067   6.309  0.3089 -0.0230  0.1185
  560SOL    HW1 2379   5.659   2.023   6.249 -1.3535  0.7702  1.1373
  560SOL    HW2 2380   5.752   2.142   6.260 -1.1455  0.6985  0.2248
  561SOL     OW 2381   3.331   0.177   3.294 -0.3663  0.3826  0.1821
  561SOL    HW1 2382   3.299   0.138   3.213  2.0326  0.8330 -1.0787
  561SOL    HW2 2383   3.272   0.251   3.310 -0.4270  0.7710 -1.6233
  562SOL     OW 2384   3.383   5.413   3.559  0.2310  0.1641  0.2663
  562SOL    HW1 2385   3.445   5.438   3.627  0.9943 -0.1868 -0.2956
  562SOL    HW2 2386   3.417   5.331   3.523  0.7778  1.1670 -1.6670
  563SOL     OW 2387   2.429   0.880   3.802 -0.6827 -0.1392 -0.6858
  563SOL    HW1 2388   2.486   0.939   3.852  0.5181 -1.3290 -0.5815
  563SOL    HW2 2389   2.343   0.888   3.843 -0.0704  0.0441  0.6165
  564SOL     OW 2390   3.295   6.161   5.236 -0.5476 -0.4274 -0.1566
  564SOL    HW1 2391   3.268   6.069   5.230  2.0706 -1.1964 -1.6436
  564SOL    HW2 2392   3.378   6.159   5.284 -0.0648  1.0676 -0.8663
  565SOL     OW 2393   7.854   3.601   1.654  0.0087 -0.2463  0.2710
  565SOL    HW1 2394   7.764   3.582   1.629 -0.6968  2.0543  0.7872
  565SOL    HW2 2395   7.853   3.600   1.749  0.4377  0.1163  0.2830
  566SOL     OW 2396   1.800   6.642   4.671  0.3993  0.1270 -0.1848
  566SOL    HW1 2397   1.802   6.582   4.746  0.5276  0.9303  0.4661
  566SOL    HW2 2398   1.811   6.585   4.595 -0.0471 -0.7362  0.3799
  567SOL     OW 2399   7.153   4.917   1.621 -0.0331 -0.0610 -0.5457
  567SOL    HW1 2400   7.230   4.973   1.613 -1.2015  1.3288 -4.2190
  567SOL    HW2 2401   7.079   4.973   1.597 -2.6716 -0.8045  4.5090
  568SOL     OW 2402   0.050   3.640   7.317  0.1202  0.0649  0.6708
  568SOL    HW1 2403   0.126   3.671   7.368 -0.0483 -0.5440  1.3141
  568SOL    HW2 2404   0.055   3.544   7.324 -0.6220  0.0203  0.5798
  569SOL     OW 2405   2.914   2.095   4.284 -0.3276  0.1164 -0.2452
  569SOL    HW1 2406   2.983   2.063   4.226 -1.3194 -2.5190 -0.0658
  569SOL    HW2 2407   2.879   2.172   4.239  0.0646 -0.8527 -2.3161
  570SOL     OW 2408   3.100   2.835   6.420  0.3387  0.2368  0.0535
  570SOL    HW1 2409   3.124   2.804   6.332  1.6093 -0.1108  0.5012
  570SOL    HW2 2410   3.005   2.847   6.416  0.3886  0.3190 -1.3942
  571SOL     OW 2411   4.200   4.932   5.991 -0.1063  0.3631  0.1153
  571SOL    HW1 2412   4.172   4.968   6.075 -1.2434  2.1236 -0.9696
  571SOL    HW2 2413   4.185   4.837   5.999 -0.9087  0.5919  1.6063
  572SOL     OW 2414   4.291   7.057   2.487 -0.8256  0.2697  0.7278
  572SOL    HW1 2415   4.208   7.015   2.512 -1.6342  0.4167 -1.5188
  572SOL    HW2 2416   4.335   6.992   2.432 -0.1786  0.8267  0.5782
  573SOL     OW 2417   2.018   7.863   4.716  0.1781 -0.7413  0.2869
  573SOL    HW1 2418   2.076   7.922   4.667 -0.5682 -1.4700 -1.5754
  573SOL    HW2 2419   1.930   7.901   4.704  0.1093 -0.0519  2.4656
  574SOL     OW 2420   0.787   7.068   5.975 -0.0917  0.6529  0.9414
  574SOL    HW1 2421   0.806   7.162   5.976 -0.4404  0.8929 -2.6810
  574SOL    HW2 2422   0.696   7.062   5.949  0.5488 -0.6388 -1.2409
  575SOL     OW 2423   4.547   2.329   4.682  0.5971  0.0668  0.3901
  575SOL    HW1 2424   4.515   2.255   4.631 -0.4445  0.4855  0.3983
  575SOL    HW2 2425   4.584   2.388   4.616  1.1976 -0.3446  0.3562
  576SOL     OW 2426   7.056   5.912   7.288 -0.9235  0.3144  0.0278
  576SOL    HW1 2427   7.058   5.913   7.384  1.7262  0.1972  0.0443
  576SOL    HW2 2428   7.006   5.834   7.266 -0.5193 -0.3597  1.3511
  577SOL     OW 2429   0.526   4.365   6.141  0.2556 -0.0959 -0.4834
  577SOL    HW1 2430   0.483   4.445   6.169 -1.1031 -0.4625 -1.4152
  577SOL    HW2 2431   0.617   4.375   6.170  0.0644  1.6628 -0.3941
  578SOL     OW 2432   0.675   1.769   6.955 -0.0101  1.1030 -0.6039
  578SOL    HW1 2433   0.673   1.703   7.025  3.3421  1.8260  0.3520
  578SOL    HW2 2434   0.597   1.750   6.903 -1.2307 -1.1877  1.7619
  579SOL     OW 2435   5.666   2.019   5.278 -0.7254 -0.7821  0.0356
  579SOL    HW1 2436   5.683   2.047   5.368 -1.6224 -0.5079  0.1365
  579SOL    HW2 2437   5.742   2.049   5.228 -1.3195  1.2927  0.2594
  580SOL     OW 2438   4.441   5.275   2.396 -0.4037 -0.1285  0.1431
  580SOL    HW1 2439   4.412   5.342   2.334 -2.0584  0.2808  1.2964
  580SOL    HW2 2440   4.366   5.262   2.454  0.5860 -1.5599  1.1621
  581SOL     OW 2441   0.481   7.910   1.239  0.2206  0.2203  0.2057
  581SOL    HW1 2442   0.572   7.930   1.219 -0.2554 -0.2982 -3.0109
  581SOL    HW2 2443   0.437   7.996   1.235  0.1377  0.1362 -1.2867
  582SOL     OW 2444   6.883   7.101   6.653  0.1294 -0.3835  0.0621
  582SOL    HW1 2445   6.871   7.125   6.745  0.3655 -1.1614  0.3026
  582SOL    HW2 2446   6.906   7.183   6.610  0.2340 -0.0515  0.7345
  583SOL     OW 2447   4.372   2.515   7.037  0.3858 -0.8054  0.3563
  583SOL    HW1 2448   4.334   2.531   7.124  0.9821 -1.0199  0.6589
  583SOL    HW2 2449   4.298   2.485   6.984  0.4627 -3.1563  1.4486
  584SOL     OW 2450   1.159   1.991   0.952 -0.0375  0.0419 -0.2670
  584SOL    HW1 2451   1.150   2.013   1.044 -2.1534  2.7765 -0.9929
  584SOL    HW2 2452   1.203   2.066   0.913  0.8917 -1.0905 -1.5292
  585SOL     OW 2453   5.689   6.655   5.872 -0.1923  0.1364 -0.3466
  585SOL    HW1 2454   5.607   6.633   5.917  0.4016 -1.3861  0.0491
  585SOL    HW2 2455   5.687   6.604   5.792  0.0500  0.6614 -0.6940
  586SOL     OW 2456   5.907   2.735   3.001  0.0386 -0.0883 -0.1061
  586SOL    HW1 2457   5.845   2.806   2.983 -1.5927 -1.4428 -0.0679
  586SOL    HW2 2458   5.896   2.675   2.927  0.9003 -0.6525  0.2080
  587SOL     OW 2459   3.994   5.314   0.993 -0.1485  0.2571  0.5796
  587SOL    HW1 2460   3.959   5.274   0.913  1.2919 -3.8079  1.7293
  587SOL    HW2 2461   3.927   5.298   1.059  0.5726 -0.6138  1.1262
  588SOL     OW 2462   0.477   1.304   6.013 -0.1687 -0.3011  0.5618
  588SOL    HW1 2463   0.469   1.367   5.941 -0.3201 -0.3661  0.5209
  588SOL    HW2 2464   0.387   1.276   6.030  0.0330 -1.7445 -0.5308
  589SOL     OW 2465   1.337   2.447   2.417  0.3179 -0.1692  0.6946
  589SOL    HW1 2466   1.300   2.455   2.329 -1.6483 -1.7563  1.3182
  589SOL    HW2 2467   1.430   2.429   2.402 -0.1850 -1.5183 -1.0927
  590SOL     OW 2468   6.896   2.948   4.791 -0.4370  0.1770  0.6598
  590SOL    HW1 2469   6.849   2.873   4.829  0.8412 -0.5919  0.7664
  590SOL    HW2 2470   6.979   2.950   4.838 -0.1079  1.1462  0.0490
  591SOL     OW 2471   6.563   5.881   3.005  0.6950  0.4099 -0.1359
  591SOL    HW1 2472   6.635   5.933   3.041  0.0619  0.7304  0.6945
  591SOL    HW2 2473   6.604   5.829   2.935  1.6644  0.8177  0.1088
  592SOL     OW 2474   2.768   0.927   1.604 -0.2081 -0.2236 -0.0621
  592SOL    HW1 2475   2.777   0.966   1.517 -0.4271  1.5013  0.6486
  592SOL    HW2 2476   2.855   0.936   1.643 -0.1357 -0.9030 -0.0659
  593SOL     OW 2477   3.363   6.104   6.357  0.3946 -0.2623 -0.1390
  593SOL    HW1 2478   3.397   6.106   6.446  0.5898 -2.4031 -0.1246
  593SOL    HW2 2479   3.340   6.012   6.341 -3.2460  0.5934 -0.9576
  594SOL     OW 2480   0.871   7.317   5.964 -0.3882 -0.6688 -0.0833
  594SOL    HW1 2481   0.962   7.309   5.934 -0.7946  0.2945 -1.6996
  594SOL    HW2 2482   0.868   7.400   6.011 -0.5264 -0.4693 -0.4400
  595SOL     OW 2483   0.662   5.794   4.228 -0.4764  0.3031 -0.0544
  595SOL    HW1 2484   0.637   5.702   4.216 -1.0301  0.3778  0.4684
  595SOL    HW2 2485   0.755   5.796   4.209 -0.8521  0.0328 -2.1917
  596SOL     OW 2486   1.509   0.673   0.665 -0.1444 -0.6755  0.2528
  596SOL    HW1 2487   1.471   0.592   0.700 -0.0738 -0.5418  0.6462
  596SOL    HW2 2488   1.443   0.740   0.683 -0.2983 -0.6877 -0.2738
  597SOL     OW 2489   2.748   3.709   5.806 -0.0461 -0.5479 -0.0629
  597SOL    HW1 2490   2.716   3.650   5.738  0.9081 -1.2122  0.0526
  597SOL    HW2 2491   2.673   3.721   5.864  0.0656 -2.6813  0.6223
  598SOL     OW 2492   3.193   1.369   5.423  0.0499  0.3465  0.3704
  598SOL    HW1 2493   3.113   1.419   5.409 -0.5104 -0.4293  0.6652
  598SOL    HW2 2494   3.192   1.302   5.353  0.6258  0.5496  0.1610
  599SOL     OW 2495   5.727   0.977   7.405  0.4392  0.7748  0.6241
  599SOL    HW1 2496   5.807   1.029   7.414 -0.3735  2.0790  0.5184
  599SOL    HW2 2497   5.656   1.040   7.416 -0.5959 -0.5420  1.7434
  600SOL     OW 2498   6.173   6.510   3.711 -0.4815  0.5242 -0.2318
  600SOL    HW1 2499   6.078   6.500   3.701 -0.2843 -0.4286 -1.3321
  600SOL    HW2 2500   6.206   6.511   3.622  0.4521  2.1019  0.0974
  601SOL     OW 2501   4.824   6.324   0.966 -0.0056  0.0774  0.3193
  601SOL    HW1 2502   4.804   6.339   1.058 -1.1398 -0.6201  0.2087
  601SOL    HW2 2503   4.852   6.410   0.933 -0.2144  0.4744  1.1569
  602SOL     OW 2504   6.674   7.741   5.109  0.0064  0.0180 -0.1738
  602SOL    HW1 2505   6.708   7.827   5.133  0.3109 -0.0501 -0.3558
  602SOL    HW2 2506   6.601   7.760   5.050  0.6816  0.1354 -0.9827
  603SOL     OW 2507   7.454   3.692   0.431 -0.0216 -0.1723 -0.0721
  603SOL    HW1 2508   7.438   3.748   0.507 -0.1625  2.2899 -1.8102
  603SOL    HW2 2509   7.374   3.641   0.421  0.1182 -0.7782  1.5736
  604SOL     OW 2510   0.146   3.335   3.281  0.2003  0.2605  0.0384
  604SOL    HW1 2511   0.080   3.319   3.213  0.3525  0.7519 -0.2279
  604SOL    HW2 2512   0.098   3.379   3.351  0.0943 -0.0306  0.1500
  605SOL     OW 2513   6.334   5.275   3.646  0.4174 -0.1890 -0.6177
  605SOL    HW1 2514   6.353   5.223   3.724 -3.0209  0.2960  0.6921
  605SOL    HW2 2515   6.403   5.342   3.645  1.6707 -1.3940  0.8453
  606SOL     OW 2516   5.866   5.020   3.185  0.5097  0.2141  0.1934
  606SOL    HW1 2517   5.873   5.105   3.140 -0.2158  0.6312  0.8362
  606SOL    HW2 2518   5.876   4.955   3.115 -1.4798  0.8482 -0.7522
  607SOL     OW 2519   2.306   1.649   4.640  0.1107  0.1006 -0.1363
  607SOL    HW1 2520   2.320   1.631   4.547 -1.8207 -0.6330 -0.3207
  607SOL    HW2 2521   2.319   1.565   4.683 -0.4472  0.1222  0.0746
  608SOL     OW 2522   4.948   1.500   5.909  0.5039 -0.1565  0.3314
  608SOL    HW1 2523   4.987   1.526   5.992  1.9306 -0.0673 -0.3475
  608SOL    HW2 2524   5.018   1.455   5.862 -0.3995 -0.5787 -0.6693
  609SOL     OW 2525   7.291   7.552   1.332  0.2119  0.1653  0.5955
  609SOL    HW1 2526   7.371   7.519   1.291  0.4151  0.4381  0.7736
  609SOL    HW2 2527   7.315   7.637   1.367 -0.5239  0.8665 -0.5360
  610SOL     OW 2528   1.312   7.580   0.040 -0.2528 -0.0791  0.4447
  610SOL    HW1 2529   1.251   7.624  -0.019 -0.4414  1.0451  1.4342
  610SOL    HW2 2530   1.298   7.622   0.125  2.4967  0.8748  0.5425
  611SOL     OW 2531   7.220   0.415   0.320 -0.2944  0.2095  0.3356
  611SOL    HW1 2532   7.209   0.501   0.280  1.6421  0.0449 -0.6526
  611SOL    HW2 2533   7.292   0.375   0.272 -1.3559 -2.1285  0.5537
  612SOL     OW 2534   4.073   6.070   4.660  0.2387 -0.4162  0.0735
  612SOL    HW1 2535   4.143   6.132   4.640 -0.5689  0.5405  0.1785
  612SOL    HW2 2536   4.109   5.985   4.633  1.4074  0.0616  0.0567
  613SOL     OW 2537   3.042   5.586   3.450  0.8321 -0.2950  0.3807
  613SOL    HW1 2538   3.048   5.518   3.517  1.5052  0.7731  1.4507
  613SOL    HW2 2539   3.093   5.553   3.377  2.2365 -0.4126  1.3747
  614SOL     OW 2540   5.839   4.831   1.028 -0.1341 -0.0566 -0.1062
  614SOL    HW1 2541   5.904   4.861   1.092  0.8447 -0.8259 -0.7097
  614SOL    HW2 2542   5.790   4.763   1.074 -0.6776  0.6768  0.4255
  615SOL     OW 2543   3.963   3.940   2.894  0.0842  0.2559  0.4087
  615SOL    HW1 2544   3.918   3.946   2.978  2.1665  0.3075  1.5681
  615SOL    HW2 2545   4.007   3.855   2.896  1.0253  0.7129 -0.1563
  616SOL     OW 2546   6.111   4.310   2.447  0.1711 -0.6478  0.3462
  616SOL    HW1 2547   6.056   4.371   2.495  0.2650  0.5143 -0.9726
  616SOL    HW2 2548   6.055   4.234   2.432 -1.3611  0.7484 -1.5129
  617SOL     OW 2549   3.568   5.216   6.190 -0.5634 -0.6131 -0.3083
  617SOL    HW1 2550   3.602   5.223   6.279  1.6782 -2.1621 -0.9752
  617SOL    HW2 2551   3.486   5.168   6.200  0.4079 -2.1365  0.8128
  618SOL     OW 2552   0.817   5.075   2.311 -0.5248 -0.3601  0.5592
  618SOL    HW1 2553   0.823   5.163   2.274 -0.2909 -0.6567 -0.1356
  618SOL    HW2 2554   0.882   5.074   2.381  0.6065 -0.4451 -0.4464
  619SOL     OW 2555   7.905   1.087   5.176 -0.7854 -0.4915  0.0485
  619SOL    HW1 2556   7.915   1.030   5.253 -0.6998 -0.8548 -0.2268
  619SOL    HW2 2557   7.990   1.130   5.167 -1.0569  0.1829  0.6469
  620SOL     OW 2558   2.176   3.060   3.364 -0.4229 -0.3278 -0.3349
  620SOL    HW1 2559   2.142   2.999   3.429  1.6618 -3.2404 -1.7633
  620SOL    HW2 2560   2.105   3.123   3.351 -2.6890 -2.3434  1.3634
  621SOL     OW 2561   0.706   4.684   4.189 -0.0141 -0.1391  0.7483
  621SOL    HW1 2562   0.704   4.767   4.143  3.5074 -0.2915  0.0434
  621SOL    HW2 2563   0.740   4.705   4.276  2.0628 -0.8880  0.1758
  622SOL     OW 2564   6.671   3.053   3.650  0.2088 -0.0923 -0.3457
  622SOL    HW1 2565   6.590   3.077   3.694  0.2245  0.6366 -0.6949
  622SOL    HW2 2566   6.705   2.979   3.699  2.1632  2.8755  3.2958
  623SOL     OW 2567   1.038   1.036   1.066 -0.1544  0.0856  0.1295
  623SOL    HW1 2568   1.107   0.978   1.099  0.9176 -0.1283 -2.3196
  623SOL    HW2 2569   0.971   0.977   1.031 -0.0264  0.3024 -0.4905
  624SOL     OW 2570   7.422   2.964   2.543 -0.2169  0.2805  0.5530
  624SOL    HW1 2571   7.486   2.894   2.529 -0.0128  0.7183 -0.8446
  624SOL    HW2 2572   7.346   2.920   2.581  0.3121 -0.5184  0.7070
  625SOL     OW 2573   0.691   7.248   3.034  0.2399 -0.0228 -0.2089
  625SOL    HW1 2574   0.634   7.230   3.109  0.1044  1.0061 -0.0486
  625SOL    HW2 2575   0.683   7.170   2.979 -0.5136 -0.3322  0.3127
  626SOL     OW 2576   0.343   5.239   1.113 -0.1498 -0.4452  0.3215
  626SOL    HW1 2577   0.288   5.298   1.062  2.1744 -1.0676 -3.2133
  626SOL    HW2 2578   0.421   5.291   1.134  1.6343 -1.8873 -2.2786
  627SOL     OW 2579   0.896   5.502   6.395 -0.3501  0.0139 -0.0693
  627SOL    HW1 2580   0.965   5.476   6.334 -1.7728  0.2458 -1.8535
  627SOL    HW2 2581   0.823   5.442   6.376 -0.6555 -0.3014  1.8456
  628SOL     OW 2582   6.928   2.459   2.297  0.1643  0.2173 -0.2868
  628SOL    HW1 2583   6.916   2.533   2.356 -0.3081  1.5002 -1.9342
  628SOL    HW2 2584   7.011   2.478   2.252  0.9028 -1.1178  0.4589
  629SOL     OW 2585   3.687   4.008   2.252  0.1992 -0.0256 -0.2389
  629SOL    HW1 2586   3.679   3.948   2.327  0.2534 -0.1846 -0.3598
  629SOL    HW2 2587   3.598   4.015   2.218  0.0869  0.4306  0.1354
  630SOL     OW 2588   7.535   2.529   7.467 -0.3249 -0.4462 -0.2479
  630SOL    HW1 2589   7.516   2.572   7.383  1.1974 -1.1812 -1.0096
  630SOL    HW2 2590   7.482   2.577   7.531  0.5429  1.9259 -1.2039
  631SOL     OW 2591   2.991   4.462   4.837 -0.4492  0.1795  0.0394
  631SOL    HW1 2592   2.987   4.377   4.881  0.8608 -1.4436 -2.7125
  631SOL    HW2 2593   3.066   4.506   4.877  0.8660 -1.3505 -0.6348
  632SOL     OW 2594   1.816   4.980   0.925  0.3027  0.4477 -0.1826
  632SOL    HW1 2595   1.889   4.984   0.863  0.2026 -0.5725 -0.3817
  632SOL    HW2 2596   1.765   4.904   0.897 -1.2711  1.5840 -0.5185
  633SOL     OW 2597   1.069   4.228   1.147 -0.1280 -0.6599  0.6190
  633SOL    HW1 2598   1.049   4.237   1.240 -0.2583 -0.7041  0.5950
  633SOL    HW2 2599   1.011   4.159   1.116  1.0485 -1.7910  0.8504
  634SOL     OW 2600   4.900   4.558   1.353  0.2850  0.1989  0.1592
  634SOL    HW1 2601   4.855   4.501   1.291  1.0661  1.0363 -1.2320
  634SOL    HW2 2602   4.965   4.502   1.394 -0.0154 -0.2886 -0.0167
  635SOL     OW 2603   6.660   4.089   5.544 -0.7432  0.1179 -0.2305
  635SOL    HW1 2604   6.668   4.165   5.602  0.5146  0.3181 -0.6287
  635SOL    HW2 2605   6.570   4.060   5.555 -0.8741  0.8832  0.9069
  636SOL     OW 2606   1.034   3.600   7.497 -0.1186  0.2801  0.2784
  636SOL    HW1 2607   1.064   3.563   7.580 -0.0495 -0.6516 -0.1417
  636SOL    HW2 2608   0.983   3.677   7.521 -2.5776 -1.5563  1.4161
  637SOL     OW 2609   7.934   4.652   4.507  0.3038 -0.1945 -0.1056
  637SOL    HW1 2610   7.942   4.573   4.560 -2.7341  1.0965  2.6725
  637SOL    HW2 2611   7.852   4.641   4.459  0.5996  0.6880 -0.8514
  638SOL     OW 2612   7.240   1.145   0.788 -0.4189  0.3396  0.1982
  638SOL    HW1 2613   7.259   1.073   0.848 -1.8373 -1.1946 -1.0961
  638SOL    HW2 2614   7.268   1.223   0.835  1.5920 -1.0528  1.4913
  639SOL     OW 2615   2.067   5.643   2.324 -0.0341  0.1508 -0.0227
  639SOL    HW1 2616   2.122   5.590   2.382  0.0688  0.5465  0.2463
  639SOL    HW2 2617   2.023   5.705   2.382 -1.0200 -0.3624 -0.1901
  640SOL     OW 2618   3.444   2.960   4.885 -0.1986 -0.6537 -0.2736
  640SOL    HW1 2619   3.371   3.017   4.862  1.1358  0.1840 -2.8849
  640SOL    HW2 2620   3.431   2.882   4.831  1.7262  0.3069 -2.2972
  641SOL     OW 2621   6.919   0.635   7.601  0.4864 -0.4205  0.1123
  641SOL    HW1 2622   6.852   0.699   7.576  0.1172 -0.8084  0.1002
  641SOL    HW2 2623   6.999   0.687   7.610  0.2080  0.0326  0.0298
  642SOL     OW 2624   5.176   7.345   3.007  0.3972 -0.1658 -0.3691
  642SOL    HW1 2625   5.243   7.380   3.066  0.6174  1.0493 -1.2992
  642SOL    HW2 2626   5.104   7.322   3.065  1.2534 -0.6307  0.5581
  643SOL     OW 2627   0.365   0.632   2.039 -0.5510 -0.3003 -0.0644
  643SOL    HW1 2628   0.337   0.556   2.090  0.1463 -0.1648  0.5279
  643SOL    HW2 2629   0.454   0.650   2.068 -1.2631  1.7863  1.0689
  644SOL     OW 2630   1.842   4.806   1.834  0.7889  0.1870  0.0381
  644SOL    HW1 2631   1.897   4.878   1.803  0.3014 -0.1674 -1.7177
  644SOL    HW2 2632   1.816   4.833   1.923 -0.0407  2.5709 -0.8372
  645SOL     OW 2633   0.899   1.760   2.797 -0.3718  0.0431  0.0227
  645SOL    HW1 2634   0.827   1.698   2.810 -0.1824 -0.0166  0.8419
  645SOL    HW2 2635   0.961   1.739   2.867  1.7120 -1.6654 -2.2011
  646SOL     OW 2636   6.226   0.486   6.103  0.5745  0.3430  0.3745
  646SOL    HW1 2637   6.311   0.518   6.133  1.2807 -2.9166  2.4290
  646SOL    HW2 2638   6.185   0.452   6.182 -2.1477  0.6666 -0.8034
  647SOL     OW 2639   0.909   5.563   5.135 -0.2515 -0.0108  0.0217
  647SOL    HW1 2640   0.834   5.602   5.091 -0.5015  1.0903  1.3395
  647SOL    HW2 2641   0.871   5.499   5.195 -0.0833 -0.0365  0.1003
  648SOL     OW 2642   6.709   1.001   6.842 -0.1934 -0.7029  0.0432
  648SOL    HW1 2643   6.697   0.964   6.755 -1.0882 -2.2133  0.7677
  648SOL    HW2 2644   6.623   1.037   6.865 -0.1909 -1.0276  0.5986
  649SOL     OW 2645   1.952   2.000   7.066  0.5584 -0.3897  0.1055
  649SOL    HW1 2646   2.047   1.991   7.072  0.4459 -1.7796  0.1917
  649SOL    HW2 2647   1.938   2.079   7.016  1.7609  0.0810  0.4859
  650SOL     OW 2648   3.012   4.152   1.297 -0.3357  0.1764 -0.7677
  650SOL    HW1 2649   3.033   4.138   1.390  1.6108  0.4621 -1.1246
  650SOL    HW2 2650   3.097   4.164   1.255 -1.0765 -1.1830 -2.8131
  651SOL     OW 2651   6.282   7.392   5.505 -0.3465  0.3198  0.3580
  651SOL    HW1 2652   6.192   7.360   5.494 -0.8272  1.8759 -0.8748
  651SOL    HW2 2653   6.326   7.326   5.557 -0.9487 -2.8131 -2.7253
  652SOL     OW 2654   0.409   4.060   5.198 -0.5249  1.2413  0.1417
  652SOL    HW1 2655   0.356   4.136   5.224 -0.8477  0.0924  3.2957
  652SOL    HW2 2656   0.350   3.985   5.209  0.8766  0.2035  0.8512
  653SOL     OW 2657   4.937   1.246   6.367  0.0065  0.1212 -0.6370
  653SOL    HW1 2658   5.022   1.204   6.372 -0.4079 -0.5850  2.0852
  653SOL    HW2 2659   4.886   1.192   6.306  1.0507 -0.2621 -1.1813
  654SOL     OW 2660   6.833   0.902   7.504  0.2333  0.2952  0.7234
  654SOL    HW1 2661   6.841   0.944   7.418 -1.2435 -1.2496 -0.2380
  654SOL    HW2 2662   6.754   0.940   7.542  0.1221 -0.0100  0.7989
  655SOL     OW 2663   7.658   0.513   3.392  0.0580  0.4141 -0.5316
  655SOL    HW1 2664   7.622   0.458   3.461 -1.6525 -2.6321 -3.5212
  655SOL    HW2 2665   7.631   0.602   3.415  0.0181 -0.3463  2.8559
  656SOL     OW 2666   1.467   4.344   7.792  0.2969 -0.1964 -0.2332
  656SOL    HW1 2667   1.372   4.347   7.791  0.2266 -1.5597  0.0052
  656SOL    HW2 2668   1.491   4.317   7.703  0.3863 -0.9772  0.0188
  657SOL     OW 2669   1.334   2.666   5.816  0.1134 -0.4395  0.0436
  657SOL    HW1 2670   1.254   2.641   5.769  0.3243 -0.5625 -0.2558
  657SOL    HW2 2671   1.309   2.664   5.909 -0.5633  0.7196 -0.0906
  658SOL     OW 2672   2.804   1.546   6.468 -0.4913 -0.5356 -0.5446
  658SOL    HW1 2673   2.721   1.498   6.470 -0.7805 -0.0307  1.4638
  658SOL    HW2 2674   2.806   1.594   6.551  0.2228  2.2095 -2.0299
  659SOL     OW 2675   5.019   2.667   1.743 -0.0692  0.1674  0.3627
  659SOL    HW1 2676   5.037   2.637   1.654 -1.0507  0.7473 -0.0363
  659SOL    HW2 2677   5.096   2.639   1.793  0.9076  0.6185 -0.8388
  660SOL     OW 2678   7.813   4.741   6.816  0.3456 -0.4926 -0.1462
  660SOL    HW1 2679   7.763   4.817   6.785  0.8162  0.0891  0.4856
  660SOL    HW2 2680   7.758   4.666   6.794 -1.8711  0.2271  2.3431
  661SOL     OW 2681   2.500   1.990   2.911  0.5580  0.2107 -1.0164
  661SOL    HW1 2682   2.514   2.049   2.985 -0.0267 -1.4473  0.5096
  661SOL    HW2 2683   2.536   2.036   2.836  1.8405  1.6824  0.4191
  662SOL     OW 2684   7.856   0.494   0.469  0.1336  0.2673 -0.1253
  662SOL    HW1 2685   7.870   0.571   0.524  1.8346  0.3784 -0.6626
  662SOL    HW2 2686   7.838   0.529   0.382 -0.4211  0.0577 -0.1033
  663SOL     OW 2687   3.186   5.654   7.368 -0.4508  0.0331 -0.0877
  663SOL    HW1 2688   3.108   5.638   7.314 -0.8704 -0.2672  0.5963
  663SOL    HW2 2689   3.195   5.575   7.421  0.1229  0.2116  0.0869
  664SOL     OW 2690   3.674   1.203   2.205  0.2972  0.1848 -0.2694
  664SOL    HW1 2691   3.689   1.295   2.225  0.0760  0.1603  0.0135
  664SOL    HW2 2692   3.667   1.160   2.291 -2.1294  0.3089 -0.3362
  665SOL     OW 2693   3.503   0.772   5.061 -0.3253  0.2992  0.1912
  665SOL    HW1 2694   3.544   0.830   4.996 -1.7251  1.4886  0.3025
  665SOL    HW2 2695   3.450   0.711   5.009 -1.5451  1.3298  0.1603
  666SOL     OW 2696   2.334   4.230   1.908 -0.3471 -0.0324  0.3049
  666SOL    HW1 2697   2.403   4.171   1.940  0.6007  1.5561  1.3022
  666SOL    HW2 2698   2.261   4.214   1.968  0.5062  1.0057  1.6830
  667SOL     OW 2699   5.084   4.416   7.640  0.4431  0.1908 -0.3042
  667SOL    HW1 2700   5.174   4.429   7.610  0.5418  0.7531  0.2066
  667SOL    HW2 2701   5.037   4.387   7.562  0.7372  1.4151 -0.9639
  668SOL     OW 2702   3.219   7.289   5.103  0.1897  0.4836  0.1254
  668SOL    HW1 2703   3.234   7.382   5.118  1.1441  0.5880 -1.2382
  668SOL    HW2 2704   3.301   7.258   5.064 -0.0744 -0.9569  0.6585
  669SOL     OW 2705   5.632   6.884   0.733 -0.2527 -0.1878  0.2844
  669SOL    HW1 2706   5.613   6.941   0.659  1.3619  1.2978  0.9444
  669SOL    HW2 2707   5.686   6.814   0.696 -0.0338  0.1661 -0.0698
  670SOL     OW 2708   6.633   7.077   6.364 -0.4992 -0.2579 -0.6073
  670SOL    HW1 2709   6.592   7.102   6.281  0.6053  0.2692 -1.0160
  670SOL    HW2 2710   6.688   7.002   6.342  1.6575  1.3258 -0.9090
  671SOL     OW 2711   6.626   3.132   4.258  0.0818  0.2801 -0.1766
  671SOL    HW1 2712   6.588   3.216   4.284  0.0192 -0.1111  1.0647
  671SOL    HW2 2713   6.569   3.067   4.299 -0.0774 -0.3948 -1.4224
  672SOL     OW 2714   4.154   4.455   4.016  0.1505 -0.1112 -0.1247
  672SOL    HW1 2715   4.192   4.421   3.935 -0.5477  1.2697 -1.0642
  672SOL    HW2 2716   4.226   4.503   4.058  0.0181  0.7715 -0.8815
  673SOL     OW 2717   2.016   7.311   2.200  0.7771  0.1695 -0.4474
  673SOL    HW1 2718   1.994   7.232   2.151  0.2458  0.2075 -0.2783
  673SOL    HW2 2719   1.941   7.369   2.187 -0.3391 -0.5715  2.0332
  674SOL     OW 2720   5.877   0.952   0.288  0.1461 -0.0561 -0.2934
  674SOL    HW1 2721   5.919   0.880   0.335  2.3410  1.9709  1.0711
  674SOL    HW2 2722   5.785   0.926   0.281  0.7334 -2.6894  0.6286
  675SOL     OW 2723   5.278   1.113   0.912 -0.1858  0.2711 -0.1146
  675SOL    HW1 2724   5.213   1.100   0.980 -2.6637  0.2515 -2.3495
  675SOL    HW2 2725   5.348   1.051   0.934 -0.9521  0.1407  2.2404
  676SOL     OW 2726   7.634   4.954   3.171 -0.3967 -0.2581 -0.2337
  676SOL    HW1 2727   7.608   5.046   3.184  2.2880  0.5811 -0.0646
  676SOL    HW2 2728   7.670   4.928   3.256  4.3359  0.6286 -1.6630
  677SOL     OW 2729   0.548   7.206   6.941  0.7454 -0.0864 -0.3537
  677SOL    HW1 2730   0.534   7.300   6.951 -2.1015 -0.3545 -0.9915
  677SOL    HW2 2731   0.628   7.199   6.888  0.6412  1.9672 -0.8567
  678SOL     OW 2732   2.546   1.827   5.697  0.0128  0.0182  0.0297
  678SOL    HW1 2733   2.487   1.751   5.694  1.4028 -1.0930  0.0464
  678SOL    HW2 2734   2.582   1.826   5.785  1.9182 -0.8041 -0.7177
  679SOL     OW 2735   1.153   6.769   4.062 -0.7164  0.0682  0.3820
  679SOL    HW1 2736   1.145   6.796   3.971  1.0457  0.9211  0.4399
  679SOL    HW2 2737   1.131   6.676   4.062  0.7512 -0.3251 -1.1882
  680SOL     OW 2738   2.042   1.656   2.245 -0.8807  0.8736 -0.4778
  680SOL    HW1 2739   2.137   1.652   2.238 -0.7357  1.5842  0.8368
  680SOL    HW2 2740   2.012   1.575   2.204  0.1911  1.2291 -2.0936
  681SOL     OW 2741   1.130   5.734   6.978  0.3222  0.0720  0.1034
  681SOL    HW1 2742   1.120   5.735   6.883  0.2674 -0.7768  0.0975
  681SOL    HW2 2743   1.089   5.652   7.006 -1.8803  1.3988  1.1084
  682SOL     OW 2744   0.277   4.327   4.598  0.6390 -0.0387  0.0690
  682SOL    HW1 2745   0.260   4.303   4.507 -1.1902  1.9071 -0.1974
  682SOL    HW2 2746   0.324   4.410   4.592 -2.3568  1.8772  0.7403
  683SOL     OW 2747   6.214   7.104   0.770 -0.4903 -0.5465 -0.1299
  683SOL    HW1 2748   6.153   7.123   0.842  0.4737  0.3597  0.4717
  683SOL    HW2 2749   6.190   7.166   0.701 -0.6538 -0.6220 -0.1423
  684SOL     OW 2750   4.563   0.685   5.203 -0.0119 -0.2033  0.3507
  684SOL    HW1 2751   4.627   0.750   5.175 -1.4280  1.6316  1.1147
  684SOL    HW2 2752   4.496   0.687   5.134 -0.1270 -0.7972  0.4382
  685SOL     OW 2753   6.355   6.832   2.792 -0.1001  0.5351 -0.0168
  685SOL    HW1 2754   6.381   6.909   2.843  0.4471  0.2113  0.2000
  685SOL    HW2 2755   6.386   6.757   2.844 -1.0762  0.1435  0.0362
  686SOL     OW 2756   2.749   1.269   2.660  0.1193  0.1248  0.3438
  686SOL    HW1 2757   2.754   1.182   2.622  0.2613 -1.4874  3.6863
  686SOL    HW2 2758   2.669   1.307   2.623  0.4478 -1.0716 -1.7434
  687SOL     OW 2759   1.614   4.735   0.071 -0.5575  0.0032  0.2624
  687SOL    HW1 2760   1.650   4.673   0.134  0.5220 -0.5930 -0.8862
  687SOL    HW2 2761   1.575   4.804   0.124  0.7679 -0.2195  1.5809
  688SOL     OW 2762   0.232   3.111   1.071  0.2333 -0.0981 -0.6903
  688SOL    HW1 2763   0.248   3.201   1.043 -0.6986  1.2643  2.6759
  688SOL    HW2 2764   0.138   3.105   1.082  0.3189 -1.3613 -0.5204
  689SOL     OW 2765   7.280   0.089   5.835  0.1514  0.1630 -0.0076
  689SOL    HW1 2766   7.202   0.114   5.883  0.2244  0.5776 -0.1059
  689SOL    HW2 2767   7.300   0.001   5.867 -0.2427  0.1310  0.1565
  690SOL     OW 2768   5.054   1.652   1.308 -0.2969  0.8494  0.0645
  690SOL    HW1 2769   5.031   1.621   1.220 -1.9060  0.9734  0.4162
  690SOL    HW2 2770   5.122   1.591   1.337 -1.0275 -0.3181 -0.5750
  691SOL     OW 2771   5.097   7.006   1.269 -0.1449  0.0913 -0.0425
  691SOL    HW1 2772   5.101   6.938   1.337 -1.3994  0.6006  0.5801
  691SOL    HW2 2773   5.171   7.063   1.288 -0.8927  0.6482  1.4093
  692SOL     OW 2774   0.928   0.818   0.355 -0.0098 -0.2109  0.1715
  692SOL    HW1 2775   0.871   0.869   0.412 -2.0355 -1.1457 -0.8878
  692SOL    HW2 2776   0.920   0.728   0.387 -0.9417 -0.6981 -1.3109
  693SOL     OW 2777   5.157   3.156   6.365  0.0486  0.0914  0.2171
  693SOL    HW1 2778   5.162   3.214   6.289 -1.2016 -0.7961 -0.5782
  693SOL    HW2 2779   5.078   3.183   6.411  0.0529 -0.2710  0.4405
  694SOL     OW 2780   1.169   7.546   6.590  0.0217  0.0094 -0.4797
  694SOL    HW1 2781   1.229   7.615   6.560 -0.7670  0.7704 -0.3341
  694SOL    HW2 2782   1.195   7.529   6.680  0.4966 -0.1971 -0.6510
  695SOL     OW 2783   4.558   1.764   7.223  0.0393  0.0918  0.4869
  695SOL    HW1 2784   4.618   1.692   7.206  0.2818  0.6636 -1.2507
  695SOL    HW2 2785   4.498   1.764   7.148 -0.7849  0.8896  1.1129
  696SOL     OW 2786   3.416   6.077   6.785 -0.0146 -0.3454 -0.2693
  696SOL    HW1 2787   3.425   5.983   6.800  0.1243 -0.3943 -0.6655
  696SOL    HW2 2788   3.494   6.116   6.825 -0.4415 -0.3212  0.5756
  697SOL     OW 2789   3.840   2.466   5.804 -0.1585 -0.2587  0.4424
  697SOL    HW1 2790   3.752   2.486   5.772  0.3120 -0.1000 -0.8140
  697SOL    HW2 2791   3.888   2.439   5.726  1.3817  1.2653  0.7928
  698SOL     OW 2792   7.833   5.420   2.743  0.2250 -0.3784 -0.0957
  698SOL    HW1 2793   7.784   5.499   2.720 -0.1073 -0.7890 -0.8486
  698SOL    HW2 2794   7.813   5.406   2.836  0.6098  0.6345  0.1554
  699SOL     OW 2795   3.929   0.553   6.896  0.1107  0.6445 -0.3130
  699SOL    HW1 2796   3.991   0.626   6.885 -0.1485  0.7864 -0.8436
  699SOL    HW2 2797   3.903   0.530   6.807 -0.1298  0.1745 -0.1234
  700SOL     OW 2798   5.830   5.087   5.388  0.2151  0.2640  0.2901
  700SOL    HW1 2799   5.905   5.028   5.388 -0.0998 -0.1408  0.2649
  700SOL    HW2 2800   5.774   5.055   5.458 -0.4956 -0.1719 -0.4575
  701SOL     OW 2801   5.110   7.024   4.857 -0.5627  0.1611  0.2116
  701SOL    HW1 2802   5.125   7.007   4.950 -0.0520  2.1375  0.5470
  701SOL    HW2 2803   5.063   7.107   4.856 -2.6997 -0.9922 -1.2440
  702SOL     OW 2804   2.588   0.247   6.178 -0.2461 -0.0033  0.3321
  702SOL    HW1 2805   2.506   0.208   6.209 -1.2965  0.8200 -1.2563
  702SOL    HW2 2806   2.650   0.174   6.178 -1.6721 -1.2928 -0.8255
  703SOL     OW 2807   5.234   6.479   4.815 -0.1173  0.3969 -0.5006
  703SOL    HW1 2808   5.213   6.441   4.901  2.1756  0.6536  0.2353
  703SOL    HW2 2809   5.275   6.563   4.835 -0.8156  1.1070 -1.9324
  704SOL     OW 2810   1.115   5.239   2.103  0.0694  0.2161 -0.1081
  704SOL    HW1 2811   1.106   5.147   2.076  1.9028  0.2684 -1.1198
  704SOL    HW2 2812   1.136   5.285   2.021  2.0346  1.0329  0.7925
  705SOL     OW 2813   4.101   4.736   3.754  0.3077 -0.4485 -0.5860
  705SOL    HW1 2814   4.051   4.681   3.814  2.5958 -0.3435  1.6101
  705SOL    HW2 2815   4.058   4.821   3.758 -0.4703 -0.8447 -0.2851
  706SOL     OW 2816   6.610   0.729   1.880 -0.3147  0.6537  0.2191
  706SOL    HW1 2817   6.599   0.723   1.975  3.0890  0.8232  0.7511
  706SOL    HW2 2818   6.578   0.645   1.847  0.2210 -0.2181  1.7779
  707SOL     OW 2819   6.503   0.415   3.929 -0.2141  0.6094 -0.0363
  707SOL    HW1 2820   6.425   0.360   3.923 -0.1801  0.6566 -1.0568
  707SOL    HW2 2821   6.557   0.390   3.854  0.2449  1.3525  0.0315
  708SOL     OW 2822   1.115   5.006   1.735 -0.0024 -0.2768 -0.2670
  708SOL    HW1 2823   1.209   5.004   1.755 -0.0599  0.3038  0.0915
  708SOL    HW2 2824   1.073   5.019   1.819 -0.3017  1.2933 -0.6215
  709SOL     OW 2825   1.739   2.715   5.356  0.4168  0.1113  0.0131
  709SOL    HW1 2826   1.769   2.722   5.447  1.0621 -3.1463  0.1856
  709SOL    HW2 2827   1.787   2.640   5.321 -1.8951 -0.5052 -2.1452
  710SOL     OW 2828   3.598   6.655   7.267  0.6424  0.2434 -0.1782
  710SOL    HW1 2829   3.588   6.750   7.263 -0.7378  0.0982 -4.0207
  710SOL    HW2 2830   3.528   6.626   7.325 -0.0910  1.4514 -0.4234
  711SOL     OW 2831   7.290   5.795   6.787  0.1550 -0.2365 -0.0987
  711SOL    HW1 2832   7.253   5.883   6.779 -0.1650 -0.3004  0.6634
  711SOL    HW2 2833   7.263   5.752   6.706 -0.9948 -0.1075  0.1988
  712SOL     OW 2834   4.266   4.238   7.568  0.6622 -0.7121 -0.9581
  712SOL    HW1 2835   4.265   4.144   7.588  0.5979 -0.5212 -0.0154
  712SOL    HW2 2836   4.359   4.259   7.558  1.1394 -0.0719  3.0505
  713SOL     OW 2837   2.183   3.860   6.721  0.5756  0.2005 -0.0375
  713SOL    HW1 2838   2.125   3.794   6.684  0.4478  0.0517  0.4243
  713SOL    HW2 2839   2.132   3.901   6.791  0.5215  1.0356 -0.5469
  714SOL     OW 2840   6.537   5.255   0.764 -0.7947 -0.2125  0.1163
  714SOL    HW1 2841   6.486   5.303   0.699 -1.5483  0.5779  1.2693
  714SOL    HW2 2842   6.561   5.173   0.719 -2.4057 -0.2652 -0.7206
  715SOL     OW 2843   4.296   4.781   0.372 -0.3970  0.5629  0.3556
  715SOL    HW1 2844   4.219   4.741   0.414 -0.6316 -0.7283 -1.1911
  715SOL    HW2 2845   4.337   4.832   0.442 -1.4020 -0.5314  1.8286
  716SOL     OW 2846   6.266   4.613   2.702  0.2910  0.3559  0.4628
  716SOL    HW1 2847   6.277   4.518   2.695 -1.3941  0.0726  0.9864
  716SOL    HW2 2848   6.299   4.648   2.620 -0.5384 -0.8584 -0.4279
  717SOL     OW 2849   0.748   4.269   1.734 -0.1443  0.3058 -0.4775
  717SOL    HW1 2850   0.676   4.324   1.702  0.3932  3.4799  3.0490
  717SOL    HW2 2851   0.827   4.317   1.710  0.3606  1.0784  2.3870
  718SOL     OW 2852   3.277   4.437   3.591 -0.2130  0.1634  0.1822
  718SOL    HW1 2853   3.344   4.503   3.579 -0.2741  0.0264 -0.9888
  718SOL    HW2 2854   3.202   4.485   3.626  0.2193  0.4502  0.7360
  719SOL     OW 2855   7.353   0.818   2.680  0.4314  0.0241 -0.2048
  719SOL    HW1 2856   7.420   0.815   2.749  0.4651 -1.0322 -0.2561
  719SOL    HW2 2857   7.391   0.769   2.608  0.1499  0.6080 -0.7579
  720SOL     OW 2858   5.912   1.628   4.406 -0.0664  0.1698  0.0675
  720SOL    HW1 2859   5.941   1.719   4.394  0.3280  0.1782  1.0087
  720SOL    HW2 2860   5.877   1.626   4.495  1.8345 -1.0780  0.8445
  721SOL     OW 2861   6.625   0.587   7.596 -0.3706  0.5124  0.1803
  721SOL    HW1 2862   6.718   0.566   7.604  0.6571  3.0233 -2.9398
  721SOL    HW2 2863   6.614   0.667   7.647 -0.2817  1.3051 -0.9980
  722SOL     OW 2864   6.942   4.757   3.870 -0.8602  0.0895  0.3368
  722SOL    HW1 2865   6.857   4.718   3.851 -0.9801  0.0055  1.0165
  722SOL    HW2 2866   6.983   4.697   3.931 -0.1733 -0.0309 -0.2385
  723SOL     OW 2867   7.270   3.414   0.074 -0.7135 -0.3580  0.4808
  723SOL    HW1 2868   7.176   3.403   0.061 -0.7355 -0.0729  0.3853
  723SOL    HW2 2869   7.288   3.503   0.044 -0.6168 -0.0044  1.5331
  724SOL     OW 2870   7.876   2.767   3.037 -0.5512  0.1104  0.2611
  724SOL    HW1 2871   7.919   2.755   2.952  0.0003 -2.0379  0.7758
  724SOL    HW2 2872   7.942   2.810   3.092 -0.6763  0.9070 -0.2045
  725SOL     OW 2873   2.633   5.649   0.949  0.3103  0.2854 -0.3255
  725SOL    HW1 2874   2.616   5.719   1.012 -0.7762  1.2390 -1.6198
  725SOL    HW2 2875   2.637   5.569   1.002  0.3634  1.1675  1.0423
  726SOL     OW 2876   7.616   3.901   5.621 -0.0576  0.0768 -0.7814
  726SOL    HW1 2877   7.636   3.808   5.616  1.8712  0.4715 -0.9952
  726SOL    HW2 2878   7.520   3.905   5.617 -0.1559 -1.8497 -1.2916
  727SOL     OW 2879   2.429   0.451   7.682  0.2609  0.3932  0.1315
  727SOL    HW1 2880   2.374   0.522   7.716 -1.5467 -1.4743  1.3314
  727SOL    HW2 2881   2.494   0.437   7.751 -1.3274 -1.1397  1.3974
  728SOL     OW 2882   3.221   7.527   3.356  0.4809 -0.8101  0.0605
  728SOL    HW1 2883   3.157   7.554   3.422  0.2007  1.2994 -1.0028
  728SOL    HW2 2884   3.216   7.431   3.356 -0.2555 -0.8330  2.3277
  729SOL     OW 2885   6.806   3.372   1.812  0.2987  0.1439 -0.2914
  729SOL    HW1 2886   6.795   3.340   1.722 -0.3112 -0.7857  0.1046
  729SOL    HW2 2887   6.831   3.464   1.801 -1.2357  0.4735 -1.3873
  730SOL     OW 2888   5.963   4.473   2.636 -0.0139 -0.0652 -0.1214
  730SOL    HW1 2889   5.984   4.559   2.601 -0.0154  0.3713  0.9182
  730SOL    HW2 2890   5.881   4.486   2.684 -0.0302 -0.6545  0.0169
  731SOL     OW 2891   6.943   3.641   5.911  0.6067 -0.4960  0.5032
  731SOL    HW1 2892   7.014   3.612   5.854  0.3316  0.3030 -0.2651
  731SOL    HW2 2893   6.870   3.659   5.852  0.5600  1.0929  0.9958
  732SOL     OW 2894   1.718   5.077   7.543  0.3714  0.6084 -0.2522
  732SOL    HW1 2895   1.764   5.109   7.466  1.2606  0.1608  0.0776
  732SOL    HW2 2896   1.786   5.068   7.610  0.7966 -4.1477 -0.9474
  733SOL     OW 2897   5.785   4.138   4.465 -0.0630 -0.0253  0.6363
  733SOL    HW1 2898   5.820   4.139   4.376  0.1790  0.6227  0.7380
  733SOL    HW2 2899   5.741   4.053   4.472 -1.3672  0.5157 -0.6008
  734SOL     OW 2900   5.122   0.801   0.161 -0.0462 -0.2606  0.0808
  734SOL    HW1 2901   5.141   0.798   0.255 -0.3091  1.7087  0.2493
  734SOL    HW2 2902   5.028   0.786   0.155 -0.1354  0.2122  0.2121
  735SOL     OW 2903   7.001   5.446   3.921  0.2591  0.8662 -0.3588
  735SOL    HW1 2904   6.965   5.360   3.942  0.6751  0.5820 -0.8270
  735SOL    HW2 2905   6.996   5.494   4.004  0.0656  0.3849 -0.0869
  736SOL     OW 2906   3.249   7.460   2.864  0.3267 -0.0501 -0.8127
  736SOL    HW1 2907   3.315   7.446   2.797  0.3487  0.0671 -0.8172
  736SOL    HW2 2908   3.202   7.377   2.871 -0.8326  0.4636 -2.2120
  737SOL     OW 2909   5.386   5.022   2.499  0.5917 -0.7668  0.0785
  737SOL    HW1 2910   5.403   5.111   2.531  0.8774 -1.2809  1.3988
  737SOL    HW2 2911   5.404   5.027   2.405  1.8250  0.2734  0.3482
  738SOL     OW 2912   2.261   0.497   3.566 -0.7283  0.2986  0.1667
  738SOL    HW1 2913   2.198   0.545   3.620 -0.5138 -0.2956  0.9766
  738SOL    HW2 2914   2.346   0.529   3.596 -0.6164  1.6225 -1.4140
  739SOL     OW 2915   3.650   2.686   3.022  0.1077 -0.0642 -0.4408
  739SOL    HW1 2916   3.666   2.728   2.938 -0.6235  0.2755 -0.4217
  739SOL    HW2 2917   3.575   2.628   3.006  0.4801 -0.6171 -0.2209
  740SOL     OW 2918   6.403   5.273   4.772  0.9796 -0.3520  0.1877
  740SOL    HW1 2919   6.409   5.188   4.815  1.5942  0.9381  2.8850
  740SOL    HW2 2920   6.490   5.311   4.781  0.7985  0.4865 -1.2335
  741SOL     OW 2921   6.397   2.035   1.199  0.0692 -0.3721 -0.0074
  741SOL    HW1 2922   6.470   1.992   1.243  0.8399  1.8850  1.0929
  741SOL    HW2 2923   6.320   2.008   1.249  0.8714  1.7420  2.6145
  742SOL     OW 2924   4.496   6.809   4.751  0.0790  0.7127 -0.0583
  742SOL    HW1 2925   4.511   6.787   4.843  2.2214  0.9429 -0.2906
  742SOL    HW2 2926   4.526   6.900   4.744  1.5089  0.1813 -1.2859
  743SOL     OW 2927   0.934   3.663   1.559  0.2267  0.3105 -0.4259
  743SOL    HW1 2928   0.970   3.750   1.543  1.8864 -0.0851  0.9690
  743SOL    HW2 2929   1.005   3.603   1.536  0.2753 -0.5250  1.7439
  744SOL     OW 2930   6.474   7.726   5.445  0.5046 -0.4132  0.3026
  744SOL    HW1 2931   6.447   7.800   5.498 -2.3200 -0.7570 -0.4836
  744SOL    HW2 2932   6.394   7.695   5.404  2.2865 -0.9555 -3.2128
  745SOL     OW 2933   0.768   1.487   3.709 -0.5918  0.0284 -0.0313
  745SOL    HW1 2934   0.864   1.485   3.713 -0.6338 -1.0205  1.3917
  745SOL    HW2 2935   0.740   1.428   3.779 -2.3003  1.6351  0.7315
  746SOL     OW 2936   4.471   2.001   0.436 -0.2610  0.4591 -0.3726
  746SOL    HW1 2937   4.385   1.957   0.437 -0.2130  0.3600 -0.5839
  746SOL    HW2 2938   4.450   2.091   0.414 -0.2783  0.3601 -0.7656
  747SOL     OW 2939   0.929   6.554   5.522  0.1799 -0.1446  0.0794
  747SOL    HW1 2940   0.872   6.582   5.451  1.3476  0.3681 -0.6820
  747SOL    HW2 2941   0.974   6.634   5.550  0.6461 -0.5613  0.5435
  748SOL     OW 2942   3.204   6.645   7.131 -0.1037 -0.0451 -0.2068
  748SOL    HW1 2943   3.161   6.671   7.213 -1.5802  0.8245 -1.2005
  748SOL    HW2 2944   3.289   6.688   7.134  0.0386 -0.3821  1.0576
  749SOL     OW 2945   3.298   7.586   1.315 -0.6346 -0.3391  0.7245
  749SOL    HW1 2946   3.394   7.582   1.315 -0.5288 -1.8784 -2.9598
  749SOL    HW2 2947   3.277   7.671   1.276 -0.8005 -0.1029  1.3139
  750SOL     OW 2948   3.338   1.926   0.642  0.3276  0.2239  0.9570
  750SOL    HW1 2949   3.258   1.918   0.695 -0.3794 -1.3670 -0.2654
  750SOL    HW2 2950   3.359   1.836   0.617  1.2716  0.8261 -0.5360
  751SOL     OW 2951   2.462   4.628   7.918 -0.3715  0.1475 -0.2570
  751SOL    HW1 2952   2.523   4.680   7.971 -0.8898  0.0623  0.4381
  751SOL    HW2 2953   2.502   4.626   7.831  0.8754 -0.3315  0.2940
  752SOL     OW 2954   1.677   2.988   3.199  0.2800  0.4377  0.3729
  752SOL    HW1 2955   1.609   3.048   3.169  0.9533  1.0208 -0.0011
  752SOL    HW2 2956   1.756   3.016   3.153  0.6692 -0.5484  0.4274
  753SOL     OW 2957   3.679   7.812   2.331  0.1196 -0.5362  0.2578
  753SOL    HW1 2958   3.738   7.775   2.397  0.0811 -1.6328 -0.2929
  753SOL    HW2 2959   3.726   7.887   2.296  0.5381 -0.4981  0.8863
  754SOL     OW 2960   1.977   0.221   6.428  0.0082  0.0840  0.3629
  754SOL    HW1 2961   2.047   0.171   6.386 -1.0732 -0.6089 -0.6732
  754SOL    HW2 2962   1.899   0.166   6.419 -1.4194  2.1849 -1.4927
  755SOL     OW 2963   6.339   4.366   1.517  0.1529 -0.3780 -0.5356
  755SOL    HW1 2964   6.295   4.431   1.462 -0.3565  0.9955  1.3956
  755SOL    HW2 2965   6.270   4.333   1.575  0.7216 -1.6296 -0.5304
  756SOL     OW 2966   6.406   6.949   2.555  0.0424  0.2589  0.3899
  756SOL    HW1 2967   6.349   7.013   2.513 -0.3468 -0.5326 -0.3228
  756SOL    HW2 2968   6.368   6.936   2.642 -0.1096  0.6876  0.3902
  757SOL     OW 2969   6.464   4.151   7.704  0.5407  0.2407  0.1912
  757SOL    HW1 2970   6.529   4.103   7.755 -0.0898  0.1145  0.8990
  757SOL    HW2 2971   6.435   4.089   7.638  0.7440  0.1115  0.2226
  758SOL     OW 2972   6.650   5.455   7.296 -0.1466  0.1739  0.5306
  758SOL    HW1 2973   6.720   5.515   7.269  0.8325 -1.2859 -0.2739
  758SOL    HW2 2974   6.578   5.474   7.235 -0.1064  1.0036  0.7324
  759SOL     OW 2975   2.232   1.993   1.332 -0.4727 -0.1257  0.2465
  759SOL    HW1 2976   2.149   1.999   1.284 -1.1785 -0.9452  1.3026
  759SOL    HW2 2977   2.244   2.081   1.368  0.0346  0.4820 -1.3169
  760SOL     OW 2978   6.826   1.773   6.628  0.1322  0.1848  0.4132
  760SOL    HW1 2979   6.819   1.737   6.540 -0.3127  1.4646 -0.1058
  760SOL    HW2 2980   6.740   1.760   6.667  0.0930  0.3433  0.3764
  761SOL     OW 2981   2.862   7.087   0.802  0.4863  0.0180  0.0922
  761SOL    HW1 2982   2.945   7.049   0.830 -0.0497 -0.7261  0.7222
  761SOL    HW2 2983   2.844   7.046   0.717  1.6233  1.5292 -0.9198
  762SOL     OW 2984   6.871   6.342   4.818  0.8178 -0.0956  0.5279
  762SOL    HW1 2985   6.912   6.407   4.761 -0.0924 -0.0371 -0.0800
  762SOL    HW2 2986   6.941   6.280   4.838  1.7969  1.2110  1.3790
  763SOL     OW 2987   6.972   3.587   1.892  0.1769 -0.1968  0.0487
  763SOL    HW1 2988   7.037   3.517   1.895  0.1961 -0.1691  0.3857
  763SOL    HW2 2989   7.008   3.656   1.948 -0.1686 -0.2066  0.2880
  764SOL     OW 2990   2.052   2.898   3.559 -0.3916  0.1085 -0.3547
  764SOL    HW1 2991   2.042   2.920   3.651  1.1295  1.6437 -0.5089
  764SOL    HW2 2992   1.967   2.861   3.533 -1.1984  0.6793  1.3634
  765SOL     OW 2993   3.950   5.089   5.931  0.6000  0.3070 -0.1366
  765SOL    HW1 2994   4.033   5.053   5.963  1.0675  0.3871 -1.2242
  765SOL    HW2 2995   3.967   5.183   5.922  0.7409  0.1733 -1.3813
  766SOL     OW 2996   2.284   4.771   3.180  0.0134  0.4948  0.2408
  766SOL    HW1 2997   2.279   4.855   3.134  1.6867  1.2206  1.2942
  766SOL    HW2 2998   2.216   4.776   3.247  0.2380  1.1175  0.4320
  767SOL     OW 2999   7.595   3.990   1.850 -0.2606  0.3938  0.1294
  767SOL    HW1 3000   7.579   3.911   1.901  2.7317 -1.0439 -0.9395
  767SOL    HW2 3001   7.571   3.966   1.760  0.3164  0.8147 -0.1403
  768SOL     OW 3002   7.543   2.520   6.630 -0.1080  0.4561  0.3058
  768SOL    HW1 3003   7.554   2.615   6.628 -0.2409  0.4837  0.6908
  768SOL    HW2 3004   7.458   2.506   6.672 -0.4726  0.1823 -0.5189
  769SOL     OW 3005   7.339   2.422   4.971  0.0661 -0.1101 -0.2749
  769SOL    HW1 3006   7.428   2.453   4.989  0.3414 -1.1388  0.2142
  769SOL    HW2 3007   7.282   2.491   5.006  0.6532 -0.3804  1.3039
  770SOL     OW 3008   7.259   7.542   1.924 -0.2621 -0.1364 -0.1773
  770SOL    HW1 3009   7.299   7.460   1.894  0.4115 -0.4896  1.5337
  770SOL    HW2 3010   7.326   7.608   1.909  0.2833 -0.4039  0.9560
  771SOL     OW 3011   7.884   4.514   3.769 -0.6259  0.3590 -0.0801
  771SOL    HW1 3012   7.860   4.583   3.831 -0.8704  1.5691 -1.4672
  771SOL    HW2 3013   7.847   4.434   3.807 -1.0441  1.1127  1.1569
  772SOL     OW 3014   4.546   6.075   1.650  0.1475  0.0390  0.3474
  772SOL    HW1 3015   4.483   6.050   1.717  0.0452  3.5915  1.7960
  772SOL    HW2 3016   4.603   6.139   1.693  0.0462  2.5909 -2.9191
  773SOL     OW 3017   6.124   1.110   4.719 -0.7332  0.2050  0.2244
  773SOL    HW1 3018   6.125   1.139   4.810 -1.0119 -1.0371  0.6420
  773SOL    HW2 3019   6.085   1.023   4.722 -2.1082  0.7059 -1.2641
  774SOL     OW 3020   0.181   6.194   7.013  0.2574 -0.4885 -0.5555
  774SOL    HW1 3021   0.190   6.274   6.961 -0.1998  0.4821  0.8258
  774SOL    HW2 3022   0.102   6.152   6.978 -0.9826  0.9744  0.3585
  775SOL     OW 3023   0.301   7.815   7.752 -0.0444  0.0236  0.2059
  775SOL    HW1 3024   0.265   7.900   7.775 -0.5692  0.1432 -0.9645
  775SOL    HW2 3025   0.391   7.833   7.724 -0.1001  0.1662  0.1210
  776SOL     OW 3026   5.067   5.205   2.441 -0.5049  0.3967  0.0398
  776SOL    HW1 3027   5.060   5.181   2.533 -0.2461 -0.9569 -0.2848
  776SOL    HW2 3028   4.977   5.224   2.414 -0.8661 -1.1859  0.0604
  777SOL     OW 3029   6.404   0.070   7.900  0.6669  0.0576 -0.6620
  777SOL    HW1 3030   6.474   0.127   7.867  2.2369 -0.6170  1.2684
  777SOL    HW2 3031   6.450   0.008   7.957 -1.6709  0.3957  1.7353
  778SOL     OW 3032   4.896   6.123   2.279 -0.2408  0.1109  0.5155
  778SOL    HW1 3033   4.963   6.065   2.316 -1.3603 -0.4299  1.7915
  778SOL    HW2 3034   4.814   6.074   2.289 -1.1051  1.5705  0.8764
  779SOL     OW 3035   1.277   0.556   3.626 -0.1527 -0.1941 -0.5949
  779SOL    HW1 3036   1.232   0.639   3.645 -0.2803 -0.1355 -1.1348
  779SOL    HW2 3037   1.224   0.516   3.558  1.3115  0.4779 -2.1919
  780SOL     OW 3038   4.922   3.634   1.817  0.0757 -0.4327  0.2417
  780SOL    HW1 3039   5.000   3.586   1.846 -1.2833 -1.2543  2.8395
  780SOL    HW2 3040   4.933   3.722   1.854 -0.7757 -0.9307  1.7648
  781SOL     OW 3041   4.121   3.632   2.568  0.0558 -0.5354 -0.2744
  781SOL    HW1 3042   4.090   3.718   2.541 -0.6177 -0.3985  0.8869
  781SOL    HW2 3043   4.190   3.650   2.632 -0.0162 -0.8457 -0.1040
  782SOL     OW 3044   7.313   2.342   5.898  0.3656 -0.3173  0.4173
  782SOL    HW1 3045   7.357   2.373   5.819 -1.8297  0.3929 -0.6143
  782SOL    HW2 3046   7.293   2.421   5.947  0.1923 -0.6103  0.8278
  783SOL     OW 3047   7.452   7.586   5.197  0.1342 -0.7156  0.1104
  783SOL    HW1 3048   7.463   7.515   5.259  1.6492 -0.3907  0.2439
  783SOL    HW2 3049   7.380   7.558   5.140 -1.3432 -0.9754  2.0310
  784SOL     OW 3050   6.786   1.933   1.141 -0.0883  0.3440 -0.4420
  784SOL    HW1 3051   6.792   1.857   1.199  1.1236 -0.8717 -2.0591
  784SOL    HW2 3052   6.767   2.007   1.199 -1.6024 -1.2250  1.1512
  785SOL     OW 3053   5.655   7.188   5.016 -0.4973  0.2800 -0.3085
  785SOL    HW1 3054   5.648   7.138   5.097 -1.6424 -1.1083 -1.1952
  785SOL    HW2 3055   5.739   7.233   5.021  0.4245 -1.4736  0.7178
  786SOL     OW 3056   4.381   5.347   7.043 -0.0902  0.1177  0.4343
  786SOL    HW1 3057   4.388   5.410   7.115  0.9602 -0.3989  0.7974
  786SOL    HW2 3058   4.421   5.390   6.968 -0.4404  0.3324  0.3664
  787SOL     OW 3059   3.114   1.170   1.458 -0.2484 -0.0399  0.0034
  787SOL    HW1 3060   3.195   1.177   1.509  0.4507  2.0480 -1.2704
  787SOL    HW2 3061   3.047   1.210   1.513  0.2212  0.9575 -0.1327
  788SOL     OW 3062   5.631   2.036   2.708 -0.5008 -0.1251  0.1377
  788SOL    HW1 3063   5.684   2.014   2.785  0.5739  1.4665 -0.1112
  788SOL    HW2 3064   5.677   1.996   2.634  0.2012  0.9525 -0.0329
  789SOL     OW 3065   2.893   2.802   7.248  0.3214 -0.0654  0.2855
  789SOL    HW1 3066   2.948   2.765   7.179  1.3971 -0.3375  1.2782
  789SOL    HW2 3067   2.811   2.752   7.243  1.1016 -1.3991  0.4578
  790SOL     OW 3068   3.895   6.524   7.641  0.0030 -0.3260  0.3264
  790SOL    HW1 3069   3.903   6.598   7.582  3.4260 -1.4344 -0.8580
  790SOL    HW2 3070   3.891   6.563   7.728  0.7595  1.2851 -0.3204
  791SOL     OW 3071   6.164   4.442   7.410 -0.5375 -0.7850 -0.1549
  791SOL    HW1 3072   6.095   4.420   7.348 -1.1060 -0.3783  0.3344
  791SOL    HW2 3073   6.142   4.529   7.442  0.2267 -0.6260 -0.0224
  792SOL     OW 3074   2.807   2.837   6.423 -0.8141 -0.0046 -0.3532
  792SOL    HW1 3075   2.811   2.872   6.512  2.6880  0.3348 -0.5063
  792SOL    HW2 3076   2.717   2.854   6.395 -2.2502 -0.6578  3.2597
  793SOL     OW 3077   5.926   2.559   3.502  0.5709 -0.1945 -0.6832
  793SOL    HW1 3078   5.837   2.556   3.466  0.7363  0.6438 -1.1821
  793SOL    HW2 3079   5.975   2.494   3.453  0.5859  0.3600 -1.4157
  794SOL     OW 3080   5.330   1.539   0.791  0.4761  0.4450  0.4576
  794SOL    HW1 3081   5.288   1.614   0.833 -0.1202 -0.3188  1.2745
  794SOL    HW2 3082   5.383   1.499   0.860  2.3963  1.2306 -0.4896
  795SOL     OW 3083   1.627   3.602   6.218  0.3641  0.2669  0.1923
  795SOL    HW1 3084   1.564   3.601   6.291 -0.5317 -0.1669 -0.5723
  795SOL    HW2 3085   1.708   3.638   6.257  1.2449 -3.6676  2.4945
  796SOL     OW 3086   4.702   2.392   7.737 -0.7790  0.3307 -0.2563
  796SOL    HW1 3087   4.698   2.404   7.831  1.2678 -1.0224  0.0795
  796SOL    HW2 3088   4.734   2.476   7.703 -0.8587  0.6038  0.3400
  797SOL     OW 3089   1.601   3.023   6.260  0.8281 -0.1283  0.1924
  797SOL    HW1 3090   1.574   2.963   6.190  1.2610 -0.4560  0.2943
  797SOL    HW2 3091   1.528   3.083   6.271  0.6466 -0.2467 -0.3561
  798SOL     OW 3092   0.556   5.689   6.851 -0.0980  0.7927 -0.2638
  798SOL    HW1 3093   0.510   5.708   6.769 -0.9349  0.3990  0.0974
  798SOL    HW2 3094   0.649   5.692   6.828 -0.2954  1.5582 -1.0309
  799SOL     OW 3095   4.408   3.065   4.381 -0.0315 -0.5262 -0.1722
  799SOL    HW1 3096   4.414   3.153   4.419 -2.5048  0.2325 -1.3084
  799SOL    HW2 3097   4.493   3.051   4.341  0.3829  1.4538 -0.1063
  800SOL     OW 3098   5.884   6.294   3.379  0.2839 -0.7486  0.8263
  800SOL    HW1 3099   5.932   6.260   3.303 -1.3598 -2.1292  0.3345
  800SOL    HW2 3100   5.874   6.218   3.437  0.1493 -0.0816  1.6901
  801SOL     OW 3101   6.589   6.334   0.344 -0.7961  0.1119 -0.0964
  801SOL    HW1 3102   6.591   6.428   0.325  0.6959  0.4486  1.4857
  801SOL    HW2 3103   6.620   6.327   0.434  1.0255 -2.0535 -0.8102
  802SOL     OW 3104   1.092   2.142   3.355 -0.9311 -0.5715 -0.6282
  802SOL    HW1 3105   1.049   2.154   3.440  0.2704 -0.6556  0.0071
  802SOL    HW2 3106   1.086   2.228   3.313  0.2520  0.0657  0.4127
  803SOL     OW 3107   7.027   7.595   0.205 -0.2212  0.0391 -0.4110
  803SOL    HW1 3108   6.979   7.628   0.130  0.3006  0.8743 -0.3942
  803SOL    HW2 3109   7.027   7.667   0.268 -1.2600 -0.8791  0.6942
  804SOL     OW 3110   5.946   3.850   0.121 -0.4098  0.1475  0.0356
  804SOL    HW1 3111   6.013   3.869   0.188 -1.1613 -1.1252  1.1818
  804SOL    HW2 3112   5.906   3.935   0.103  0.7467  0.7396  0.1528
  805SOL     OW 3113   3.360   0.631   4.871  0.0611 -0.5081  0.2144
  805SOL    HW1 3114   3.288   0.579   4.836 -2.1626  1.7280  1.1044
  805SOL    HW2 3115   3.340   0.721   4.843  1.0245  0.5834  2.7009
  806SOL     OW 3116   0.094   3.715   4.900  0.9919 -0.0574 -0.6338
  806SOL    HW1 3117   0.176   3.710   4.850 -0.3143 -1.0674 -2.8257
  806SOL    HW2 3118   0.045   3.638   4.872 -1.0796  1.0019 -0.0634
  807SOL     OW 3119   4.846   6.975   3.095  0.3796  0.1033 -0.2570
  807SOL    HW1 3120   4.790   6.917   3.043  1.4091 -1.9024  0.7535
  807SOL    HW2 3121   4.926   6.983   3.045  0.0078  1.2416 -0.7013
  808SOL     OW 3122   0.365   3.908   0.913  0.6163 -0.3872 -0.0289
  808SOL    HW1 3123   0.292   3.970   0.915  0.8612 -0.1090  2.3298
  808SOL    HW2 3124   0.366   3.877   0.822 -2.2137 -0.1655 -0.2376
  809SOL     OW 3125   7.172   4.551   2.315 -0.2776 -0.9209 -0.4368
  809SOL    HW1 3126   7.110   4.511   2.377 -0.2417 -0.5265 -0.1376
  809SOL    HW2 3127   7.142   4.642   2.308  0.8666 -0.4396  0.5081
  810SOL     OW 3128   2.617   6.332   0.838  0.1608  0.3481  0.2516
  810SOL    HW1 3129   2.641   6.310   0.747 -0.6123 -1.0226  0.3440
  810SOL    HW2 3130   2.700   6.329   0.886  0.6610  1.6509 -0.5003
  811SOL     OW 3131   3.758   4.192   0.843  0.2522  0.0180 -0.4802
  811SOL    HW1 3132   3.680   4.243   0.862  1.3450  0.3586  4.2312
  811SOL    HW2 3133   3.824   4.256   0.817  0.0931  0.2522 -0.2967
  812SOL     OW 3134   0.778   2.466   0.827  0.1819 -0.1552 -0.9579
  812SOL    HW1 3135   0.776   2.396   0.891  1.5743  0.8225  0.2437
  812SOL    HW2 3136   0.776   2.546   0.880  1.2923  0.6739 -2.1094
  813SOL     OW 3137   5.349   4.573   3.794 -0.2837  0.7599 -0.1690
  813SOL    HW1 3138   5.437   4.608   3.784  0.5450 -1.4182 -1.0564
  813SOL    HW2 3139   5.330   4.580   3.888  1.2318  0.3567  0.1872
  814SOL     OW 3140   1.106   6.377   4.182 -1.0649  0.2053 -0.2984
  814SOL    HW1 3141   1.195   6.342   4.189 -0.8411  1.0722  1.8818
  814SOL    HW2 3142   1.051   6.311   4.225 -1.0700  0.9349  0.8619
  815SOL     OW 3143   4.526   6.196   3.879 -0.2420  0.2300 -0.4489
  815SOL    HW1 3144   4.441   6.237   3.865  0.0140  1.2784  0.8891
  815SOL    HW2 3145   4.584   6.268   3.903  0.3987 -0.7876  1.2724
  816SOL     OW 3146   6.401   0.963   3.349  0.0122  0.3204 -0.8131
  816SOL    HW1 3147   6.384   1.047   3.306  0.0579 -0.3834 -2.2501
  816SOL    HW2 3148   6.332   0.905   3.318 -0.4424 -0.0168  0.7273
  817SOL     OW 3149   5.515   3.704   7.357 -0.0944 -0.3678  0.0082
  817SOL    HW1 3150   5.581   3.636   7.370 -1.9890 -2.0126  1.7271
  817SOL    HW2 3151   5.523   3.728   7.264  3.4357  0.2028  0.3036
  818SOL     OW 3152   4.845   1.402   3.483  0.0168  0.6250  0.0527
  818SOL    HW1 3153   4.918   1.380   3.542 -0.6686 -0.6660  0.4813
  818SOL    HW2 3154   4.792   1.322   3.482 -1.1306  1.3795 -0.6293
  819SOL     OW 3155   7.232   5.966   2.069  0.0057 -0.3441  0.0863
  819SOL    HW1 3156   7.285   6.038   2.103 -0.3452 -0.6485  1.3693
  819SOL    HW2 3157   7.192   6.000   1.989  1.0619  0.3430 -0.1674
  820SOL     OW 3158   7.386   2.646   7.634  0.2141 -0.1095  0.4489
  820SOL    HW1 3159   7.431   2.723   7.670 -2.7999  2.1813 -0.2418
  820SOL    HW2 3160   7.320   2.623   7.700 -0.9143 -0.1184 -0.6245
  821SOL     OW 3161   1.467   7.880   2.504 -0.1484 -0.6272 -0.2823
  821SOL    HW1 3162   1.376   7.899   2.482 -0.1214 -0.0358  0.0778
  821SOL    HW2 3163   1.516   7.953   2.466 -0.1254  0.5585  1.8774
  822SOL     OW 3164   0.069   6.549   2.188  0.0638 -0.1916  0.1985
  822SOL    HW1 3165   0.097   6.632   2.149  1.5281 -0.5229  0.4865
  822SOL    HW2 3166   0.059   6.568   2.281  2.2318 -0.7312  0.5910
  823SOL     OW 3167   3.652   6.712   7.816  0.2709  0.3556  0.6100
  823SOL    HW1 3168   3.637   6.767   7.893  1.7496  0.8163  0.6063
  823SOL    HW2 3169   3.576   6.727   7.761 -0.7852  0.0685  1.9335
  824SOL     OW 3170   2.513   2.842   2.708 -0.0415  0.9091 -0.3241
  824SOL    HW1 3171   2.426   2.812   2.733  0.1097 -0.1978 -1.0650
  824SOL    HW2 3172   2.549   2.880   2.788 -0.5762 -0.1236  0.4263
  825SOL     OW 3173   2.560   0.205   4.977 -0.3166 -0.1441  0.3544
  825SOL    HW1 3174   2.617   0.132   4.999 -0.6977 -0.9072 -1.1165
  825SOL    HW2 3175   2.525   0.234   5.062  0.7124 -0.9133  1.0661
  826SOL     OW 3176   0.566   7.498   6.977 -0.1917 -0.1545 -0.1351
  826SOL    HW1 3177   0.490   7.551   6.952 -1.1155 -1.8302 -1.0403
  826SOL    HW2 3178   0.637   7.562   6.988 -1.5929  1.4053  0.2665
  827SOL     OW 3179   0.991   2.129   2.154  0.1036 -0.1473  0.6192
  827SOL    HW1 3180   0.998   2.078   2.234 -1.1120 -1.5849 -0.1176
  827SOL    HW2 3181   0.979   2.220   2.183  0.2641 -0.5666  2.0342
  828SOL     OW 3182   3.522   6.730   7.581 -0.0178  0.0008 -0.7369
  828SOL    HW1 3183   3.517   6.637   7.603 -0.6835  0.3725  0.8029
  828SOL    HW2 3184   3.447   6.745   7.523 -2.0107  0.2324  1.7448
  829SOL     OW 3185   2.609   5.470   0.114  0.1162 -0.4755  0.0485
  829SOL    HW1 3186   2.695   5.428   0.112 -0.2747 -1.2691 -1.2774
  829SOL    HW2 3187   2.628   5.562   0.131  1.3822 -0.3601 -1.6506
  830SOL     OW 3188   1.717   0.352   7.661  0.8182  0.5353  0.4461
  830SOL    HW1 3189   1.692   0.271   7.618  0.6843  2.4671 -3.5908
  830SOL    HW2 3190   1.635   0.400   7.673  1.2325  1.5847 -0.7534
  831SOL     OW 3191   5.020   4.383   3.746  0.0948 -0.6948 -0.2110
  831SOL    HW1 3192   5.039   4.421   3.833 -0.5716 -0.5274 -0.1324
  831SOL    HW2 3193   5.010   4.290   3.762  0.8081 -0.7798 -0.2482
  832SOL     OW 3194   5.793   7.699   5.614  0.0309 -0.5749 -0.2936
  832SOL    HW1 3195   5.792   7.780   5.564 -0.0950 -0.5246 -0.2102
  832SOL    HW2 3196   5.839   7.721   5.695  0.7150 -0.7928 -0.6152
  833SOL     OW 3197   5.538   6.735   3.233 -0.2653  0.2217  0.5078
  833SOL    HW1 3198   5.503   6.704   3.149 -1.4919  1.1107  0.6669
  833SOL    HW2 3199   5.582   6.817   3.212  1.0348 -0.4608  0.4563
  834SOL     OW 3200   2.468   3.953   3.613 -0.0291  0.1593  0.4468
  834SOL    HW1 3201   2.563   3.950   3.624  0.2059  2.7255 -0.1192
  834SOL    HW2 3202   2.434   3.902   3.685  1.7737  0.5240  1.6369
  835SOL     OW 3203   6.993   1.421   3.554 -0.2753  0.2802  0.1027
  835SOL    HW1 3204   7.075   1.471   3.550  0.6761 -1.2774 -0.8367
  835SOL    HW2 3205   7.004   1.361   3.627 -0.3508 -0.3037 -0.3594
  836SOL     OW 3206   6.797   6.059   3.581  0.0613  0.4059 -0.2377
  836SOL    HW1 3207   6.801   5.986   3.520  2.3235  0.5960 -0.3763
  836SOL    HW2 3208   6.836   6.132   3.534  1.7453  0.5848  1.3433
  837SOL     OW 3209   5.892   5.824   5.931  0.0075 -0.5143 -0.0042
  837SOL    HW1 3210   5.956   5.795   5.996 -1.4775 -0.2993  1.6128
  837SOL    HW2 3211   5.942   5.882   5.873  1.5399 -1.2758  0.4947
  838SOL     OW 3212   0.042   4.945   5.355 -0.5104 -0.4838  0.2419
  838SOL    HW1 3213   0.041   5.024   5.409  0.9852 -0.0847 -0.2456
  838SOL    HW2 3214   0.007   4.973   5.271  0.2995 -0.2473 -0.0247
  839SOL     OW 3215   0.394   0.568   3.021 -0.3813 -0.0388 -0.2300
  839SOL    HW1 3216   0.427   0.486   2.984 -1.3724 -0.0659 -1.1076
  839SOL    HW2 3217   0.382   0.626   2.946  0.6809  1.0773  0.4201
  840SOL     OW 3218   3.129   0.693   6.142  0.5166 -0.3384 -0.0636
  840SOL    HW1 3219   3.085   0.636   6.079 -0.8448  0.8275 -0.2235
  840SOL    HW2 3220   3.202   0.640   6.175  1.1064 -1.0978 -2.3765
  841SOL     OW 3221   5.728   2.962   5.038 -0.6140  0.2945 -0.1703
  841SOL    HW1 3222   5.780   2.990   5.113 -2.0183 -3.3506  2.4876
  841SOL    HW2 3223   5.791   2.921   4.979  0.0437 -1.3057  1.5390
  842SOL     OW 3224   5.425   2.571   7.499  0.4293  0.2825  0.3918
  842SOL    HW1 3225   5.429   2.482   7.534 -1.7179 -0.4084 -0.9773
  842SOL    HW2 3226   5.424   2.560   7.404  1.3646  1.8689  0.1584
  843SOL     OW 3227   6.924   2.387   0.753 -0.3222  0.1006  0.6371
  843SOL    HW1 3228   6.948   2.346   0.836 -0.6299 -1.1295  0.1438
  843SOL    HW2 3229   7.008   2.408   0.711 -0.1679  0.5152  1.1517
  844SOL     OW 3230   1.855   6.294   3.213 -0.0932  0.3595  0.1312
  844SOL    HW1 3231   1.857   6.292   3.309 -2.2327 -0.9337  0.2118
  844SOL    HW2 3232   1.803   6.372   3.192  2.0341  1.8084 -0.1143
  845SOL     OW 3233   6.702   0.888   6.597 -0.0370  0.2527 -0.2709
  845SOL    HW1 3234   6.786   0.902   6.552  0.4709 -2.0872 -0.1817
  845SOL    HW2 3235   6.653   0.831   6.538 -1.6562  1.6680 -0.3668
  846SOL     OW 3236   0.853   4.998   7.286  0.0347 -0.0164  0.1691
  846SOL    HW1 3237   0.832   4.951   7.206 -1.0632 -0.0345  0.4441
  846SOL    HW2 3238   0.829   4.937   7.356 -0.4014  0.5466  0.5179
  847SOL     OW 3239   0.282   0.642   5.456 -0.2516  0.8020  0.0704
  847SOL    HW1 3240   0.293   0.667   5.547  1.1531 -1.7443  0.6846
  847SOL    HW2 3241   0.370   0.618   5.426 -1.0413 -0.8088 -1.1550
  848SOL     OW 3242   3.161   0.232   6.418  0.3505  0.8252  0.1658
  848SOL    HW1 3243   3.104   0.155   6.421  0.4805  0.7289  0.1622
  848SOL    HW2 3244   3.117   0.297   6.472 -0.6489  1.3385 -1.2058
  849SOL     OW 3245   4.200   6.270   2.704  0.1434 -0.1524 -0.3567
  849SOL    HW1 3246   4.217   6.311   2.619  1.3964 -1.0609 -0.5685
  849SOL    HW2 3247   4.162   6.185   2.683  1.5549 -0.8864 -0.0852
  850SOL     OW 3248   7.649   5.002   5.328  0.2042 -0.2535 -0.8285
  850SOL    HW1 3249   7.565   5.033   5.362  0.4791  0.2877 -0.6154
  850SOL    HW2 3250   7.714   5.041   5.387  0.5719 -1.2855 -0.5316
  851SOL     OW 3251   3.839   5.369   0.095 -0.1919 -0.0211  0.2040
  851SOL    HW1 3252   3.888   5.287   0.088 -0.3453 -0.1514  0.6082
  851SOL    HW2 3253   3.896   5.435   0.058  0.0274 -0.2786  0.0853
  852SOL     OW 3254   5.495   5.847   6.016 -0.0906  0.4813 -0.1412
  852SOL    HW1 3255   5.413   5.872   5.974 -0.1293 -1.1301 -1.1010
  852SOL    HW2 3256   5.551   5.924   6.005 -0.6659  0.7306 -1.6488
  853SOL     OW 3257   6.030   4.510   0.466  0.0648  0.0897  0.2386
  853SOL    HW1 3258   6.075   4.585   0.504  1.0428  0.4850 -1.5662
  853SOL    HW2 3259   6.031   4.527   0.371 -0.3843 -1.8206 -0.1520
  854SOL     OW 3260   2.262   0.447   1.231 -0.2484  0.5992  0.1958
  854SOL    HW1 3261   2.234   0.391   1.303  1.5138 -0.5735  0.0395
  854SOL    HW2 3262   2.184   0.458   1.177 -0.8198 -1.2139  0.5681
  855SOL     OW 3263   2.804   5.821   3.171  0.8332  0.6147  0.1790
  855SOL    HW1 3264   2.713   5.807   3.197  0.7710  0.9064  0.1240
  855SOL    HW2 3265   2.828   5.740   3.125  1.1830 -0.2145  1.7522
  856SOL     OW 3266   6.467   4.993   6.678  0.0870  0.2285 -0.7999
  856SOL    HW1 3267   6.541   5.049   6.652 -0.2013  0.9709 -0.0719
  856SOL    HW2 3268   6.395   5.054   6.692  0.2299 -0.0541  1.7483
  857SOL     OW 3269   1.161   2.527   2.804  0.6152  0.2118  0.2947
  857SOL    HW1 3270   1.141   2.612   2.842  1.3333  0.8702 -0.7548
  857SOL    HW2 3271   1.235   2.544   2.744 -1.8757 -0.2507 -3.2324
  858SOL     OW 3272   3.870   5.233   3.265  0.6617 -0.1656 -0.6822
  858SOL    HW1 3273   3.811   5.305   3.290  1.5317  0.3293  0.0215
  858SOL    HW2 3274   3.883   5.244   3.171  0.3149  0.2415 -0.6862
  859SOL     OW 3275   2.550   3.563   2.261  0.2723  0.5808  0.3339
  859SOL    HW1 3276   2.619   3.506   2.229 -1.2389  0.1880 -2.5408
  859SOL    HW2 3277   2.469   3.524   2.227 -1.0233  3.1647  0.2166
  860SOL     OW 3278   6.898   2.133   1.530  0.4331  0.6487  0.0098
  860SOL    HW1 3279   6.873   2.052   1.575 -0.0375  1.7983  1.9253
  860SOL    HW2 3280   6.828   2.147   1.466 -0.6506  0.6274  1.1378
  861SOL     OW 3281   1.101   0.362   2.411 -0.0896  0.1305 -0.5526
  861SOL    HW1 3282   1.106   0.400   2.323 -0.8758  0.4083 -0.4827
  861SOL    HW2 3283   1.009   0.370   2.436 -0.0377 -0.7204 -0.0439
  862SOL     OW 3284   1.716   0.840   1.821  0.4419  0.6130 -0.6712
  862SOL    HW1 3285   1.650   0.785   1.862 -0.8420  1.6591 -1.2719
  862SOL    HW2 3286   1.796   0.822   1.870  0.0327 -1.6251 -0.7253
  863SOL     OW 3287   3.311   5.852   0.383  0.3015 -0.7150 -0.1832
  863SOL    HW1 3288   3.286   5.809   0.301 -1.2874 -0.2722  0.0259
  863SOL    HW2 3289   3.406   5.841   0.388  0.7909  1.0417 -3.1176
  864SOL     OW 3290   0.979   6.544   4.500  0.3541 -0.1021 -0.8244
  864SOL    HW1 3291   0.898   6.502   4.530 -0.5672  0.2349 -2.6931
  864SOL    HW2 3292   0.996   6.613   4.565 -0.7781 -0.2849 -0.3176
  865SOL     OW 3293   0.100   2.032   7.234  0.0766 -0.4358 -0.5957
  865SOL    HW1 3294   0.088   2.027   7.139 -0.4065 -0.7173 -0.5193
  865SOL    HW2 3295   0.156   2.109   7.247  0.0835 -0.3561 -1.1029
  866SOL     OW 3296   3.955   1.691   4.889 -0.3900  0.1715  0.3136
  866SOL    HW1 3297   3.905   1.616   4.855  1.2183 -1.2031  0.8146
  866SOL    HW2 3298   4.036   1.690   4.839 -0.4476  1.7885  0.1486
  867SOL     OW 3299   7.125   6.111   2.308 -0.4836 -0.5471 -0.4268
  867SOL    HW1 3300   7.063   6.074   2.372  1.3573 -1.2818  1.0114
  867SOL    HW2 3301   7.132   6.043   2.241  0.4435 -1.4555  0.5634
  868SOL     OW 3302   6.698   1.220   0.361 -0.8112  0.0680 -0.2011
  868SOL    HW1 3303   6.722   1.256   0.276 -0.2585 -1.8566 -0.9125
  868SOL    HW2 3304   6.636   1.150   0.341 -3.7782  2.0381  1.2957
  869SOL     OW 3305   6.246   7.421   6.887 -0.0266 -0.4654 -1.0797
  869SOL    HW1 3306   6.309   7.391   6.952 -0.1313  0.3574 -0.5858
  869SOL    HW2 3307   6.162   7.385   6.916 -0.0556 -0.1860 -0.8113
  870SOL     OW 3308   6.474   5.732   6.452 -0.1911  0.1634  0.0399
  870SOL    HW1 3309   6.451   5.824   6.437  1.4074  0.3087 -1.7392
  870SOL    HW2 3310   6.393   5.684   6.433 -0.6615  1.0801 -0.3353
  871SOL     OW 3311   3.795   6.111   7.790  0.9867 -0.1634 -0.1785
  871SOL    HW1 3312   3.699   6.109   7.781  1.1551  0.4985 -2.6501
  871SOL    HW2 3313   3.812   6.188   7.846  0.0912 -0.3794  0.4164
  872SOL     OW 3314   1.519   6.949   7.276  0.5595 -0.9139  0.1239
  872SOL    HW1 3315   1.568   6.939   7.358  0.5771 -0.0694  0.2219
  872SOL    HW2 3316   1.439   6.995   7.301  1.7932  1.8759 -0.7022
  873SOL     OW 3317   5.210   4.886   5.506 -0.0646 -0.2261  0.2540
  873SOL    HW1 3318   5.173   4.932   5.581  0.8025  0.9743 -0.0375
  873SOL    HW2 3319   5.195   4.944   5.432  0.6976 -0.5846 -0.1898
  874SOL     OW 3320   4.857   2.111   3.478  0.4024  0.3776  0.1202
  874SOL    HW1 3321   4.851   2.015   3.484 -0.3453  0.4705  1.0499
  874SOL    HW2 3322   4.901   2.127   3.395  1.6710 -0.8123  0.5195
  875SOL     OW 3323   7.645   0.221   1.112 -0.0109 -0.6046  0.1399
  875SOL    HW1 3324   7.714   0.210   1.047 -0.6629 -0.8411 -0.5223
  875SOL    HW2 3325   7.691   0.246   1.192  0.8567 -0.9878 -0.2321
  876SOL     OW 3326   0.816   3.096   7.294 -0.7550  0.3764 -0.6770
  876SOL    HW1 3327   0.905   3.089   7.258 -0.3899  0.4668  0.1672
  876SOL    HW2 3328   0.812   3.024   7.358 -0.9553  0.9480 -0.0406
  877SOL     OW 3329   4.596   3.347   0.470  0.4733  0.1453  1.3350
  877SOL    HW1 3330   4.577   3.327   0.378 -1.2608 -0.1585  1.7196
  877SOL    HW2 3331   4.690   3.332   0.479  0.8701  1.0906 -0.6072
  878SOL     OW 3332   7.837   1.610   4.862  0.0249 -0.3840  0.1826
  878SOL    HW1 3333   7.925   1.620   4.825  0.1557  0.5463  0.6948
  878SOL    HW2 3334   7.819   1.695   4.903 -0.1897 -1.2794  2.0428
  879SOL     OW 3335   1.076   1.222   1.889 -0.2811  0.3411  0.1825
  879SOL    HW1 3336   1.127   1.183   1.818 -1.9065 -0.2086 -0.7356
  879SOL    HW2 3337   1.118   1.189   1.969 -0.5973 -2.0590 -0.5527
  880SOL     OW 3338   2.262   0.284   0.837  0.1172 -0.0474 -0.0726
  880SOL    HW1 3339   2.340   0.244   0.876 -0.7039  0.6908  2.5628
  880SOL    HW2 3340   2.275   0.378   0.848 -0.8558  0.1135 -0.1781
  881SOL     OW 3341   1.119   2.407   6.110 -0.5127 -0.2695  1.0178
  881SOL    HW1 3342   1.086   2.423   6.021 -0.2808 -1.2617  0.7363
  881SOL    HW2 3343   1.196   2.352   6.097 -0.0506  0.1833  1.7992
  882SOL     OW 3344   5.613   4.900   7.518 -0.0490  0.1871 -0.0483
  882SOL    HW1 3345   5.557   4.916   7.442 -1.6856  0.4996  1.1704
  882SOL    HW2 3346   5.572   4.827   7.564  0.3498  0.6394  1.0563
  883SOL     OW 3347   4.065   2.502   6.618  0.0802  0.4292  0.2928
  883SOL    HW1 3348   4.115   2.503   6.699 -1.5621  0.4714  1.3560
  883SOL    HW2 3349   3.976   2.479   6.645 -0.2583 -0.8089 -1.6558
  884SOL     OW 3350   7.949   0.406   3.054 -0.0471  0.0166  0.7769
  884SOL    HW1 3351   8.039   0.376   3.058 -0.3253 -0.8752  0.6542
  884SOL    HW2 3352   7.916   0.395   3.143 -0.5655 -1.4327  0.4326
  885SOL     OW 3353   2.047   1.847   5.223  0.4090 -0.7084  0.2178
  885SOL    HW1 3354   2.031   1.880   5.311 -1.2775 -1.4922  0.2585
  885SOL    HW2 3355   2.141   1.831   5.220  0.5242 -0.5390  1.8324
  886SOL     OW 3356   3.149   2.708   1.927  0.3982 -0.7226 -0.2442
  886SOL    HW1 3357   3.203   2.787   1.925  0.4642 -0.6395  1.9744
  886SOL    HW2 3358   3.059   2.740   1.941  0.6040 -0.9877  2.2278
  887SOL     OW 3359   6.585   3.572   2.299 -0.6645 -0.2438  0.5968
  887SOL    HW1 3360   6.547   3.580   2.212  1.0534  0.5508 -0.1373
  887SOL    HW2 3361   6.601   3.479   2.311  2.1036 -0.1192 -1.3745
  888SOL     OW 3362   6.061   1.220   6.296  0.3109  0.1055  0.6214
  888SOL    HW1 3363   6.078   1.206   6.389  1.0888 -0.8896  0.3392
  888SOL    HW2 3364   6.111   1.152   6.252  0.9700  1.3270 -0.5967
  889SOL     OW 3365   7.414   6.893   3.838  0.3334  0.8206 -0.2047
  889SOL    HW1 3366   7.397   6.885   3.931  1.7575  0.3790  0.0506
  889SOL    HW2 3367   7.396   6.805   3.803 -2.6183  1.5667 -0.8440
  890SOL     OW 3368   4.259   3.239   7.475  0.1278 -0.3883  0.1445
  890SOL    HW1 3369   4.262   3.146   7.452  0.3246 -0.3998  0.2127
  890SOL    HW2 3370   4.166   3.258   7.487  0.1493 -0.7942  1.0152
  891SOL     OW 3371   6.953   4.356   4.992  0.5797  0.2165 -0.5110
  891SOL    HW1 3372   6.878   4.353   4.932  1.5709 -0.3278 -1.7602
  891SOL    HW2 3373   6.942   4.279   5.048  0.3533 -0.0100 -0.8635
  892SOL     OW 3374   4.127   1.434   0.026  0.0191  0.5434 -0.4170
  892SOL    HW1 3375   4.069   1.499   0.065 -1.6678  0.9800 -3.3610
  892SOL    HW2 3376   4.100   1.351   0.067  0.0655  1.2416  1.1080
  893SOL     OW 3377   3.498   2.493   0.712  0.0143  0.2269 -0.7582
  893SOL    HW1 3378   3.561   2.546   0.663  1.2337  1.2563  1.7502
  893SOL    HW2 3379   3.542   2.409   0.726  1.2974  1.2003  1.6486
  894SOL     OW 3380   4.118   4.593   1.439  0.4170  0.8657  0.1957
  894SOL    HW1 3381   4.079   4.508   1.462 -3.0392  2.1635 -0.1969
  894SOL    HW2 3382   4.102   4.601   1.345  0.8423  1.8896  0.2033
  895SOL     OW 3383   2.988   5.568   4.813  0.6002  0.4162 -0.4476
  895SOL    HW1 3384   3.041   5.490   4.799 -0.0027  0.0082 -0.4762
  895SOL    HW2 3385   2.899   5.541   4.790 -0.0931  0.3599  2.0111
  896SOL     OW 3386   2.427   1.524   5.906  0.1306  0.4192 -0.0773
  896SOL    HW1 3387   2.347   1.566   5.875  1.1616 -0.0704 -3.8218
  896SOL    HW2 3388   2.486   1.597   5.928 -1.4304  0.8028  3.5636
  897SOL     OW 3389   2.591   1.697   2.966  0.2200  0.3126  0.1708
  897SOL    HW1 3390   2.538   1.774   2.945  2.2509  1.4861 -0.9029
  897SOL    HW2 3391   2.528   1.634   3.001 -1.8844  1.6205 -1.0414
  898SOL     OW 3392   5.448   2.952   4.404 -0.1398  0.1360  0.4102
  898SOL    HW1 3393   5.484   3.022   4.458  0.1819  0.5524 -0.3239
  898SOL    HW2 3394   5.524   2.914   4.360 -0.4764  0.3393 -0.3658
  899SOL     OW 3395   6.032   0.533   6.293  0.6045 -0.5022  0.1238
  899SOL    HW1 3396   5.979   0.457   6.317 -1.5536  1.4456  2.0186
  899SOL    HW2 3397   6.042   0.582   6.374  2.0062  1.2020 -1.0013
  900SOL     OW 3398   3.415   5.799   6.859 -0.3851 -0.4712  0.1130
  900SOL    HW1 3399   3.456   5.733   6.803 -0.6949 -1.0229  0.5243
  900SOL    HW2 3400   3.446   5.778   6.947  0.2270  0.4911  0.1379
  901SOL     OW 3401   7.611   1.117   2.972  0.3913 -0.1074  0.2889
  901SOL    HW1 3402   7.697   1.155   2.991  0.6675 -1.1619  1.2023
  901SOL    HW2 3403   7.606   1.117   2.877  1.3853 -0.0035  0.2243
  902SOL     OW 3404   1.142   2.596   5.009  0.4667 -0.2171  0.0606
  902SOL    HW1 3405   1.086   2.607   4.933  0.0029  0.7497  0.5203
  902SOL    HW2 3406   1.218   2.548   4.976  0.1162 -0.1191 -0.9259
  903SOL     OW 3407   4.896   0.417   3.465  0.3394  0.0365 -0.0786
  903SOL    HW1 3408   4.836   0.482   3.429 -1.1874 -0.2308  1.8392
  903SOL    HW2 3409   4.936   0.460   3.541  0.5652 -0.6949  0.2281
  904SOL     OW 3410   7.394   4.942   5.913  0.2853  0.1912  0.0372
  904SOL    HW1 3411   7.425   4.999   5.842 -0.2192 -1.0429 -1.2324
  904SOL    HW2 3412   7.304   4.922   5.889 -0.4086  0.9236  1.8444
  905SOL     OW 3413   2.465   2.982   0.306 -0.5248  0.5081 -0.0053
  905SOL    HW1 3414   2.399   2.921   0.338  0.8869 -0.9343  0.2803
  905SOL    HW2 3415   2.541   2.927   0.285  1.8427  2.3228  2.8577
  906SOL     OW 3416   5.932   0.898   1.236 -0.1898 -0.0916  0.4080
  906SOL    HW1 3417   5.856   0.867   1.285  0.4258 -1.6535  0.4545
  906SOL    HW2 3418   5.911   0.988   1.212 -1.8932 -0.3755  0.7140
  907SOL     OW 3419   0.540   0.868   3.762  0.3627  0.5185 -0.0204
  907SOL    HW1 3420   0.502   0.913   3.687 -0.0148 -2.0570 -1.5092
  907SOL    HW2 3421   0.558   0.780   3.730 -1.2802 -1.2311  3.3398
  908SOL     OW 3422   1.686   7.854   3.170  0.5533  0.2763 -0.1950
  908SOL    HW1 3423   1.707   7.782   3.110 -1.4003  0.1276 -0.7496
  908SOL    HW2 3424   1.703   7.817   3.257 -2.9759 -1.9572 -0.2507
  909SOL     OW 3425   7.339   3.879   5.659  0.5012 -0.0886  0.1451
  909SOL    HW1 3426   7.261   3.907   5.706  0.0583  0.3793 -0.8400
  909SOL    HW2 3427   7.344   3.785   5.674  0.4723  0.0770  1.2550
  910SOL     OW 3428   3.373   5.844   6.141 -0.3565  0.3910  0.1645
  910SOL    HW1 3429   3.304   5.832   6.076 -1.0744 -2.0163  1.2432
  910SOL    HW2 3430   3.326   5.851   6.224  0.5907  2.2918  0.5898
  911SOL     OW 3431   1.969   4.549   3.842 -0.7843  0.0785  0.1627
  911SOL    HW1 3432   2.004   4.593   3.920 -0.2768 -0.3754  0.1923
  911SOL    HW2 3433   2.007   4.461   3.844 -2.3567 -0.6300  0.4924
  912SOL     OW 3434   5.257   7.385   2.767 -0.0238  0.8071  0.3035
  912SOL    HW1 3435   5.215   7.363   2.850  0.3697 -0.4211  0.2014
  912SOL    HW2 3436   5.340   7.426   2.791 -0.0715  0.7761  0.5159
  913SOL     OW 3437   6.277   1.416   5.051 -0.0473  0.0474 -0.0593
  913SOL    HW1 3438   6.366   1.391   5.075 -0.5031 -2.1373 -0.4286
  913SOL    HW2 3439   6.221   1.359   5.103 -1.2272  1.0034 -0.2376
  914SOL     OW 3440   3.098   1.995   7.636  0.0502 -0.2791  0.0725
  914SOL    HW1 3441   3.090   2.087   7.612 -1.6927 -0.8693 -1.9772
  914SOL    HW2 3442   3.007   1.965   7.647  0.5318 -1.9082 -0.0562
  915SOL     OW 3443   6.120   7.296   7.306 -0.3560 -0.2954 -0.2558
  915SOL    HW1 3444   6.085   7.218   7.348 -1.5910  0.9069  1.0363
  915SOL    HW2 3445   6.176   7.337   7.372  1.1038 -0.5674 -1.2634
  916SOL     OW 3446   1.792   4.538   6.978  0.0614  0.4922 -0.0874
  916SOL    HW1 3447   1.867   4.479   6.986  0.0018  0.2871 -0.9448
  916SOL    HW2 3448   1.723   4.483   6.939 -0.1741  0.9696 -0.3485
  917SOL     OW 3449   7.139   2.507   2.093 -0.2824  0.2275 -0.1395
  917SOL    HW1 3450   7.150   2.576   2.027  0.0564 -0.2467 -0.5878
  917SOL    HW2 3451   7.221   2.507   2.142 -0.4787  0.4840  0.1861
  918SOL     OW 3452   7.162   3.287   5.279 -0.2531  0.1694  0.1623
  918SOL    HW1 3453   7.243   3.238   5.261 -0.4609 -0.4610  0.8829
  918SOL    HW2 3454   7.190   3.363   5.329 -0.0687  0.1178  0.1364
  919SOL     OW 3455   1.733   2.443   0.042 -0.1370 -0.3309  0.0954
  919SOL    HW1 3456   1.649   2.484   0.020 -0.4711 -0.3584  1.2820
  919SOL    HW2 3457   1.767   2.411  -0.042  0.2158  2.5011 -0.9632
  920SOL     OW 3458   6.762   6.865   5.544  0.2949 -0.0542 -0.4401
  920SOL    HW1 3459   6.756   6.823   5.629  1.8263  0.5606  0.0076
  920SOL    HW2 3460   6.692   6.931   5.545 -0.8887 -1.2520 -0.4156
  921SOL     OW 3461   3.860   5.252   7.682  0.0685  0.5011  0.0124
  921SOL    HW1 3462   3.789   5.266   7.745 -1.2008 -0.5567 -1.1256
  921SOL    HW2 3463   3.914   5.184   7.722 -0.5433  0.0670  0.1157
  922SOL     OW 3464   1.503   4.206   4.196  0.1823 -0.0793  0.5831
  922SOL    HW1 3465   1.554   4.175   4.121 -1.5513  1.7052 -1.4997
  922SOL    HW2 3466   1.424   4.151   4.196 -0.9714  1.4727 -0.5460
  923SOL     OW 3467   4.456   1.595   7.006  0.1473 -0.0053  0.1527
  923SOL    HW1 3468   4.472   1.516   7.059 -2.5558  0.0310  1.1513
  923SOL    HW2 3469   4.408   1.563   6.930 -0.5494  0.6124  0.3300
  924SOL     OW 3470   6.838   0.458   2.420  0.0134  0.3719  0.0757
  924SOL    HW1 3471   6.803   0.486   2.335 -1.1563  0.0300  0.4196
  924SOL    HW2 3472   6.917   0.510   2.432 -0.6991  1.6339 -0.4704
  925SOL     OW 3473   4.289   3.007   4.902  0.3778  0.2923 -0.2938
  925SOL    HW1 3474   4.369   3.049   4.936  0.4931  0.5953 -0.9246
  925SOL    HW2 3475   4.219   3.067   4.926  0.5739  0.9952 -1.4297
  926SOL     OW 3476   3.419   1.464   4.197 -0.4534 -0.0124  0.3875
  926SOL    HW1 3477   3.392   1.548   4.234 -0.9012  0.0208 -0.0094
  926SOL    HW2 3478   3.416   1.403   4.271 -0.4155  0.2550  0.6110
  927SOL     OW 3479   1.822   7.427   0.208  0.0556  0.2807  0.2910
  927SOL    HW1 3480   1.767   7.356   0.177  2.0021 -1.1550 -0.0567
  927SOL    HW2 3481   1.794   7.503   0.158 -1.6482 -0.3563  0.2271
  928SOL     OW 3482   7.907   6.161   1.011  0.1107 -0.2837  0.0588
  928SOL    HW1 3483   7.900   6.204   1.096  1.0427 -1.5765  0.8162
  928SOL    HW2 3484   7.896   6.232   0.947 -2.3173  0.4717  1.1989
  929SOL     OW 3485   0.867   1.594   4.445 -0.3138 -0.0051  0.0904
  929SOL    HW1 3486   0.929   1.572   4.375 -2.6474 -3.8435 -1.0908
  929SOL    HW2 3487   0.892   1.537   4.517 -1.2924 -0.1798  0.3037
  930SOL     OW 3488   2.521   7.804   3.921  0.5181 -0.3182  0.2601
  930SOL    HW1 3489   2.471   7.828   3.843  0.8851  1.3721  0.5116
  930SOL    HW2 3490   2.459   7.756   3.975  0.1846 -1.2822 -0.9437
  931SOL     OW 3491   3.015   3.484   7.709  0.0402  0.1384  0.3495
  931SOL    HW1 3492   2.954   3.470   7.637 -0.6965  1.0226  0.7890
  931SOL    HW2 3493   2.960   3.496   7.786  0.6803  2.3342  0.5221
  932SOL     OW 3494   2.618   4.301   4.941  0.2150 -0.6445  0.4695
  932SOL    HW1 3495   2.625   4.239   4.869  1.0986 -0.1090  0.0752
  932SOL    HW2 3496   2.693   4.280   4.997  0.0118 -0.5099  0.7927
  933SOL     OW 3497   0.620   5.177   3.641 -0.1111 -0.4808  0.2641
  933SOL    HW1 3498   0.557   5.183   3.712 -0.5437  0.3983 -0.1766
  933SOL    HW2 3499   0.613   5.087   3.610 -1.6907 -0.2168 -0.2431
  934SOL     OW 3500   7.384   2.777   5.560  0.0578 -0.1483  0.5341
  934SOL    HW1 3501   7.394   2.787   5.465  2.1051 -0.3725  0.6841
  934SOL    HW2 3502   7.289   2.777   5.574 -0.2855  0.1773 -1.4711
  935SOL     OW 3503   4.150   4.328   4.862 -0.3219  0.2196 -0.1230
  935SOL    HW1 3504   4.065   4.287   4.849 -1.2566  2.2130 -0.6195
  935SOL    HW2 3505   4.131   4.413   4.900  1.5845  0.0424  1.4307
  936SOL     OW 3506   1.583   1.768   7.910 -0.0699  0.2555 -0.1500
  936SOL    HW1 3507   1.642   1.744   7.838  2.1905  0.4876  1.5433
  936SOL    HW2 3508   1.562   1.686   7.953  0.4581  0.3473  0.2941
  937SOL     OW 3509   7.389   4.611   0.487 -0.3231  0.3267 -0.1294
  937SOL    HW1 3510   7.430   4.690   0.522 -1.5420  0.5151  0.9709
  937SOL    HW2 3511   7.341   4.641   0.410  0.6439  0.3114 -0.7531
  938SOL     OW 3512   5.226   4.681   3.034  0.1033  0.0347 -0.6135
  938SOL    HW1 3513   5.236   4.775   3.048 -2.4529  0.5246 -1.4249
  938SOL    HW2 3514   5.201   4.673   2.942 -1.7859 -1.1803 -0.0592
  939SOL     OW 3515   3.076   2.102   3.809  0.3673 -0.3518 -0.3912
  939SOL    HW1 3516   3.126   2.086   3.728  2.0417 -2.1619  0.9188
  939SOL    HW2 3517   3.012   2.032   3.812  0.1516 -0.1487 -0.2560
  940SOL     OW 3518   2.099   3.769   3.245  0.5058  0.5408 -0.8867
  940SOL    HW1 3519   2.078   3.686   3.202  0.3141 -1.3141  2.4832
  940SOL    HW2 3520   2.194   3.768   3.254  0.4474  0.3522 -0.2587
  941SOL     OW 3521   4.483   2.594   6.393 -0.2210 -0.0763 -0.4044
  941SOL    HW1 3522   4.525   2.609   6.478 -1.4159 -1.6422  0.5189
  941SOL    HW2 3523   4.431   2.515   6.405  1.4985 -1.8194 -3.3440
  942SOL     OW 3524   5.313   5.192   3.488 -0.6573  0.0693 -0.0415
  942SOL    HW1 3525   5.259   5.264   3.455 -0.2273 -0.4089 -1.9328
  942SOL    HW2 3526   5.354   5.226   3.567 -0.9160  1.6984 -0.5764
  943SOL     OW 3527   0.797   6.325   7.380 -0.2134  0.2096  0.3603
  943SOL    HW1 3528   0.831   6.334   7.291 -0.0386 -1.6197  0.2027
  943SOL    HW2 3529   0.856   6.263   7.423 -1.6481 -0.8126  0.9768
  944SOL     OW 3530   5.807   4.658   0.753 -0.6130 -0.1224 -0.6887
  944SOL    HW1 3531   5.789   4.591   0.687  2.7883 -0.1724 -1.7515
  944SOL    HW2 3532   5.841   4.732   0.703  1.0929  0.2220  0.8796
  945SOL     OW 3533   6.218   1.410   5.726 -0.7949  0.9997 -0.0070
  945SOL    HW1 3534   6.247   1.380   5.813 -0.3106  2.3391  0.3164
  945SOL    HW2 3535   6.222   1.331   5.671 -1.0412  0.1415  1.1601
  946SOL     OW 3536   3.413   3.652   0.740 -0.0484  0.8782  0.7486
  946SOL    HW1 3537   3.338   3.671   0.795 -0.2830 -1.3527  1.3151
  946SOL    HW2 3538   3.465   3.733   0.741 -2.0868  2.2536  0.8410
  947SOL     OW 3539   2.813   0.447   2.360  0.5136 -0.6657 -0.4703
  947SOL    HW1 3540   2.902   0.417   2.381  0.4438 -1.1827 -0.8820
  947SOL    HW2 3541   2.784   0.492   2.439  0.8375 -1.2211 -0.0202
  948SOL     OW 3542   1.088   4.598   2.589  0.1742  0.4234  0.1104
  948SOL    HW1 3543   1.154   4.615   2.657  2.3374 -3.1133 -0.8678
  948SOL    HW2 3544   1.057   4.509   2.607 -0.1617 -0.1062 -2.7390
  949SOL     OW 3545   6.961   1.106   0.110  0.3107 -0.1033 -0.4776
  949SOL    HW1 3546   7.027   1.175   0.112 -0.6515  0.8332 -0.5004
  949SOL    HW2 3547   6.890   1.142   0.058 -1.8875  0.5151  2.6665
  950SOL     OW 3548   3.363   1.669   1.835 -0.3904  0.4317  0.0909
  950SOL    HW1 3549   3.446   1.710   1.861 -0.6020 -0.2725  2.0277
  950SOL    HW2 3550   3.312   1.740   1.796 -0.2642  1.7618  2.2294
  951SOL     OW 3551   4.731   3.429   7.128  0.3378 -0.0857 -0.3283
  951SOL    HW1 3552   4.706   3.492   7.195  1.5348 -0.8589  0.9029
  951SOL    HW2 3553   4.725   3.344   7.171 -1.1787 -0.8477 -1.9298
  952SOL     OW 3554   5.016   5.967   3.281 -0.2643  0.7619 -0.4332
  952SOL    HW1 3555   5.036   6.040   3.340 -1.1211  0.9287 -0.3467
  952SOL    HW2 3556   4.991   6.009   3.199  2.1407  0.5296 -1.3675
  953SOL     OW 3557   0.235   4.268   2.574 -0.6505 -0.2132  0.3707
  953SOL    HW1 3558   0.242   4.279   2.669  1.1629 -0.5893  0.3080
  953SOL    HW2 3559   0.220   4.356   2.540 -0.1633  0.0803  0.9125
  954SOL     OW 3560   0.424   4.140   4.417 -0.0323  0.0607  0.3963
  954SOL    HW1 3561   0.498   4.080   4.409  0.3796  0.6405 -0.2402
  954SOL    HW2 3562   0.349   4.089   4.385  0.6194  0.4277 -1.9448
  955SOL     OW 3563   6.002   1.187   2.351  0.8245 -0.3927  0.3881
  955SOL    HW1 3564   6.076   1.157   2.404 -0.4545 -0.7689  2.0373
  955SOL    HW2 3565   6.008   1.135   2.271  1.0102 -2.1488  1.4872
  956SOL     OW 3566   7.966   4.128   1.531  0.4845 -0.3026  0.1164
  956SOL    HW1 3567   7.943   4.210   1.573  1.1355  0.2821 -0.6437
  956SOL    HW2 3568   7.908   4.121   1.456 -0.3993 -1.1461  0.8591
  957SOL     OW 3569   6.105   0.329   1.207 -0.3641 -0.2157 -0.3659
  957SOL    HW1 3570   6.095   0.364   1.119  0.2711 -0.5798 -0.5900
  957SOL    HW2 3571   6.196   0.347   1.230 -0.4087 -0.4954  0.0539
  958SOL     OW 3572   1.512   6.337   3.125  0.0745 -0.0999  0.2689
  958SOL    HW1 3573   1.574   6.407   3.143 -0.8725  0.7618  0.2663
  958SOL    HW2 3574   1.503   6.290   3.208  2.6483 -1.8618 -0.3470
  959SOL     OW 3575   0.124   2.092   5.704  0.0771 -0.2481  0.4748
  959SOL    HW1 3576   0.076   2.022   5.660 -1.0768 -0.1309  1.5098
  959SOL    HW2 3577   0.152   2.055   5.788  0.1717  0.2715  0.6834
  960SOL     OW 3578   5.763   6.076   7.702  0.3160  0.2636  0.0187
  960SOL    HW1 3579   5.709   5.997   7.698 -0.7426  0.9715 -0.1737
  960SOL    HW2 3580   5.810   6.068   7.785 -0.6570 -0.0245  0.5664
  961SOL     OW 3581   3.286   7.721   7.675 -0.2522 -0.0120  0.3246
  961SOL    HW1 3582   3.262   7.730   7.583 -0.3105 -1.2888  0.1921
  961SOL    HW2 3583   3.374   7.682   7.674 -0.7966 -1.3101  0.7868
  962SOL     OW 3584   7.281   2.297   7.791 -0.0540 -0.1386 -0.0373
  962SOL    HW1 3585   7.319   2.214   7.820  1.4971  0.7444  0.5621
  962SOL    HW2 3586   7.192   2.297   7.828  0.4648 -0.8562  1.2857
  963SOL     OW 3587   1.365   1.561   5.078  0.3231  0.5207  0.3748
  963SOL    HW1 3588   1.456   1.574   5.052  0.6165 -1.0456  0.5351
  963SOL    HW2 3589   1.369   1.549   5.173  0.0401 -0.1680  0.3071
  964SOL     OW 3590   4.927   4.601   0.035  0.1975  0.3673  0.3209
  964SOL    HW1 3591   4.951   4.631  -0.053  2.3430  1.0817  1.0601
  964SOL    HW2 3592   4.847   4.649   0.056  0.4012  1.2060 -0.7377
  965SOL     OW 3593   7.833   5.262   4.605  0.2253 -0.3008  0.2557
  965SOL    HW1 3594   7.742   5.234   4.606 -0.1988  1.0067  0.3677
  965SOL    HW2 3595   7.864   5.246   4.695 -0.2327  0.2936  0.5228
  966SOL     OW 3596   6.909   0.858   7.917 -0.6272 -0.0826  0.0381
  966SOL    HW1 3597   6.978   0.858   7.984  0.4460  0.2190 -1.0402
  966SOL    HW2 3598   6.946   0.906   7.844 -2.9771  2.5373  0.3945
  967SOL     OW 3599   6.672   0.185   7.910  0.3194 -0.1803 -0.2787
  967SOL    HW1 3600   6.751   0.238   7.920  0.6130 -0.7932  0.8718
  967SOL    HW2 3601   6.681   0.146   7.823  1.7756 -0.9635  0.1769
  968SOL     OW 3602   6.651   1.951   1.814  0.5190 -0.2521 -0.2580
  968SOL    HW1 3603   6.658   2.042   1.786 -0.8156 -0.0302  0.0266
  968SOL    HW2 3604   6.613   1.956   1.902  0.0122 -1.0885 -0.4162
  969SOL     OW 3605   3.273   0.863   1.715 -0.1253  0.3475  0.0790
  969SOL    HW1 3606   3.304   0.888   1.802  0.8138 -0.1306 -0.0961
  969SOL    HW2 3607   3.353   0.837   1.669 -0.9254 -2.1737 -0.0045
  970SOL     OW 3608   1.534   6.258   6.759 -0.1311  0.0349 -0.5842
  970SOL    HW1 3609   1.557   6.171   6.726 -2.0466 -0.4072 -0.8433
  970SOL    HW2 3610   1.503   6.306   6.682 -1.1436  0.2181 -0.0765
  971SOL     OW 3611   4.196   3.760   3.031  0.2953  0.4557 -0.4859
  971SOL    HW1 3612   4.215   3.823   3.100 -0.8911  1.7776 -1.3084
  971SOL    HW2 3613   4.281   3.737   2.994  0.8330  0.6787  0.5912
  972SOL     OW 3614   6.585   0.050   4.551 -0.3469 -0.2271 -0.6297
  972SOL    HW1 3615   6.671   0.012   4.566  0.8193  2.3184 -0.2631
  972SOL    HW2 3616   6.595   0.098   4.469 -0.1569  3.1556  1.2066
  973SOL     OW 3617   7.510   0.281   7.443  0.0956  0.5103 -0.8321
  973SOL    HW1 3618   7.485   0.341   7.373 -0.1151  1.4423  0.0010
  973SOL    HW2 3619   7.471   0.197   7.419 -1.0968  1.1336 -1.1744
  974SOL     OW 3620   5.381   0.234   5.389 -0.2512  0.2470 -0.1675
  974SOL    HW1 3621   5.322   0.244   5.314  1.1433  2.0170 -1.1255
  974SOL    HW2 3622   5.409   0.143   5.387  0.1147  0.3620 -2.1348
  975SOL     OW 3623   2.316   3.938   5.132 -0.2016  0.3117 -0.1634
  975SOL    HW1 3624   2.242   3.878   5.132 -0.1661  0.2302 -1.5834
  975SOL    HW2 3625   2.369   3.912   5.056  0.9256  0.8020  0.4230
  976SOL     OW 3626   6.919   0.261   2.612  0.3064 -0.1521  0.1694
  976SOL    HW1 3627   6.890   0.329   2.553  1.6858  1.0666  0.8232
  976SOL    HW2 3628   6.929   0.183   2.557  0.9203  0.7792 -1.0803
  977SOL     OW 3629   1.207   1.413   2.085  0.0911  0.1025 -0.1093
  977SOL    HW1 3630   1.189   1.486   2.144  0.3854  0.7663 -0.8272
  977SOL    HW2 3631   1.234   1.454   2.003  0.3954 -0.8156 -0.4836
  978SOL     OW 3632   4.394   4.112   5.218 -0.3324  0.4529 -0.0844
  978SOL    HW1 3633   4.299   4.104   5.208 -0.1162 -1.1418 -1.2408
  978SOL    HW2 3634   4.430   4.077   5.136  1.2372  2.2675 -0.2458
  979SOL     OW 3635   4.474   7.558   2.737 -0.2128  0.3634 -0.3820
  979SOL    HW1 3636   4.442   7.644   2.765 -2.0482 -0.0302 -1.1260
  979SOL    HW2 3637   4.518   7.575   2.653  0.2922  0.6986 -0.0580
  980SOL     OW 3638   7.874   5.054   1.184 -0.5176 -0.4695  0.5886
  980SOL    HW1 3639   7.853   5.003   1.262 -0.8440 -0.1703  0.7017
  980SOL    HW2 3640   7.968   5.070   1.190 -0.1527 -2.1300 -0.1008
  981SOL     OW 3641   6.776   2.348   5.758  0.1492  0.2682  0.1617
  981SOL    HW1 3642   6.834   2.348   5.835  0.0501  1.9136  0.2728
  981SOL    HW2 3643   6.702   2.403   5.784  0.0144  0.6692 -1.0298
  982SOL     OW 3644   1.631   1.496   4.189 -0.1771  0.3932  0.2027
  982SOL    HW1 3645   1.644   1.560   4.259 -0.2778 -0.6797  1.2363
  982SOL    HW2 3646   1.713   1.447   4.185 -1.2246 -1.6377  1.7967
  983SOL     OW 3647   2.690   5.215   7.236 -0.4187  0.2138  0.7903
  983SOL    HW1 3648   2.742   5.261   7.170  0.0485  1.0111  1.7012
  983SOL    HW2 3649   2.603   5.208   7.197 -0.2123  0.8860  0.1808
  984SOL     OW 3650   6.313   7.041   5.232 -0.3617 -0.1088  0.1132
  984SOL    HW1 3651   6.227   7.012   5.263 -0.2520  0.6282  1.1320
  984SOL    HW2 3652   6.372   6.969   5.254 -0.6068 -0.3641 -0.0557
  985SOL     OW 3653   0.511   3.477   2.640  0.5746 -0.6340 -0.3171
  985SOL    HW1 3654   0.604   3.458   2.629  0.9868 -0.7871  2.6723
  985SOL    HW2 3655   0.502   3.567   2.610  1.7893 -0.4634 -0.2473
  986SOL     OW 3656   6.163   6.831   6.190 -0.4807 -0.6146 -0.4961
  986SOL    HW1 3657   6.107   6.868   6.121  0.1137  2.0423  0.3376
  986SOL    HW2 3658   6.248   6.819   6.147 -0.1698  0.8323 -0.3471
  987SOL     OW 3659   3.042   3.085   1.880 -0.2133 -0.1916  0.6208
  987SOL    HW1 3660   3.124   3.077   1.930 -0.1625 -3.5525  0.2005
  987SOL    HW2 3661   3.065   3.142   1.806  2.0919 -1.7449  0.0184
  988SOL     OW 3662   0.740   4.453   5.057  0.7044  0.3158  0.2402
  988SOL    HW1 3663   0.793   4.397   5.115  0.2801 -0.0373  0.2926
  988SOL    HW2 3664   0.733   4.403   4.976 -0.4257 -0.1254  0.5858
  989SOL     OW 3665   4.455   1.137   6.200 -0.1545 -0.2748  0.2036
  989SOL    HW1 3666   4.496   1.191   6.133  0.7731 -0.9994  0.1766
  989SOL    HW2 3667   4.423   1.200   6.265 -0.0180  0.3597 -0.3363
  990SOL     OW 3668   2.727   5.536   5.451  0.5095  0.3561  0.3414
  990SOL    HW1 3669   2.696   5.623   5.474  0.3424 -0.1077  2.0059
  990SOL    HW2 3670   2.753   5.543   5.359  0.1949  2.0580  0.3515
  991SOL     OW 3671   3.930   1.912   5.337 -0.2878  0.2112  0.4349
  991SOL    HW1 3672   4.005   1.853   5.342  0.7474  1.4636  0.2028
  991SOL    HW2 3673   3.968   2.000   5.346 -1.6822  0.8956 -0.0620
  992SOL     OW 3674   6.066   6.803   4.398 -0.5636 -0.0017  0.4308
  992SOL    HW1 3675   6.027   6.878   4.352  1.0994  0.3066 -0.5386
  992SOL    HW2 3676   6.068   6.734   4.332 -0.1805 -0.2523  0.7074
  993SOL     OW 3677   2.691   6.030   6.736 -0.2315  0.1006  0.0478
  993SOL    HW1 3678   2.695   5.967   6.664  0.4741  0.2633 -0.0655
  993SOL    HW2 3679   2.599   6.031   6.763 -0.5090  0.0559 -0.8665
  994SOL     OW 3680   5.209   0.589   6.820 -0.1965  0.5870 -0.0117
  994SOL    HW1 3681   5.281   0.648   6.801  0.1184 -0.3908 -2.1014
  994SOL    HW2 3682   5.154   0.591   6.742 -0.7228 -1.0780  0.2672
  995SOL     OW 3683   6.286   6.600   1.845  0.0664  0.0176  0.4814
  995SOL    HW1 3684   6.327   6.523   1.884  1.1278 -0.9216 -2.2585
  995SOL    HW2 3685   6.302   6.591   1.751 -2.2873  2.1251 -0.2333
  996SOL     OW 3686   2.629   7.668   1.998 -0.2287  0.0336  0.5703
  996SOL    HW1 3687   2.630   7.723   2.076 -0.6387  0.8864 -0.0019
  996SOL    HW2 3688   2.712   7.620   2.001 -0.4026 -0.2194  1.7048
  997SOL     OW 3689   3.789   3.907   4.703 -0.0402 -0.0610  0.1429
  997SOL    HW1 3690   3.829   3.898   4.617  1.3321 -1.2948  0.8595
  997SOL    HW2 3691   3.787   4.001   4.720  1.2281  0.1073 -0.5499
  998SOL     OW 3692   1.498   3.024   4.047 -0.8673  0.1038 -0.6620
  998SOL    HW1 3693   1.516   3.096   4.109  2.6894 -0.7561 -0.4934
  998SOL    HW2 3694   1.468   2.952   4.102  0.1151  0.0379 -0.1961
  999SOL     OW 3695   3.558   3.114   0.257 -0.2689  0.1162 -0.1850
  999SOL    HW1 3696   3.474   3.114   0.210  1.2180 -0.5389 -3.1008
  999SOL    HW2 3697   3.578   3.021   0.269  1.0398  0.1626 -1.6350
 1000SOL     OW 3698   6.001   7.477   5.576  0.1754 -0.0598  0.5150
 1000SOL    HW1 3699   5.928   7.539   5.577  0.3777  0.2508 -0.9796
 1000SOL    HW2 3700   5.972   7.407   5.517  0.0596 -1.2733  1.9647
 1001SOL     OW 3701   4.819   2.426   4.938  0.2333  0.2184  0.0149
 1001SOL    HW1 3702   4.761   2.351   4.928  0.6327 -0.0263 -0.5095
 1001SOL    HW2 3703   4.782   2.493   4.880 -0.0999  0.4226  0.4528
 1002SOL     OW 3704   6.667   3.004   3.361  0.5264 -0.1109  0.6003
 1002SOL    HW1 3705   6.655   3.011   3.456  2.4259 -0.3568  0.8989
 1002SOL    HW2 3706   6.745   3.057   3.343 -0.1294  0.3815 -0.9192
 1003SOL     OW 3707   1.326   2.828   2.106 -0.3902 -0.0135 -0.2905
 1003SOL    HW1 3708   1.344   2.734   2.109 -0.4049 -0.0414 -0.9034
 1003SOL    HW2 3709   1.392   2.864   2.047  1.1515  0.7568  1.7836
 1004SOL     OW 3710   3.960   0.310   5.424  0.3849  0.0430 -0.7173
 1004SOL    HW1 3711   4.023   0.301   5.353  0.8859 -2.2714 -0.0605
 1004SOL    HW2 3712   3.972   0.400   5.455  3.2467 -0.2111 -0.7641
 1005SOL     OW 3713   3.062   6.728   3.906  0.1476 -0.2384 -0.0401
 1005SOL    HW1 3714   3.095   6.797   3.849  3.1516 -0.8937  0.7444
 1005SOL    HW2 3715   3.087   6.647   3.862 -2.3505 -0.9198 -0.3908
 1006SOL     OW 3716   2.489   4.816   3.643  0.3326  0.0490  0.2876
 1006SOL    HW1 3717   2.554   4.843   3.579 -0.2348  0.7744 -0.0022
 1006SOL    HW2 3718   2.415   4.875   3.629 -1.0329 -1.7301 -0.4573
 1007SOL     OW 3719   7.030   1.696   1.504  0.4414  0.3695  0.7270
 1007SOL    HW1 3720   7.041   1.611   1.460 -0.5471  0.4043  0.4023
 1007SOL    HW2 3721   7.078   1.686   1.587 -1.0698 -1.1351  1.4903
 1008SOL     OW 3722   5.077   2.884   0.093 -0.5294 -0.0509  0.5609
 1008SOL    HW1 3723   5.001   2.859   0.040 -0.4190 -1.0123  0.8414
 1008SOL    HW2 3724   5.148   2.828   0.062 -0.0642  0.4584  0.6793
 1009SOL     OW 3725   5.853   6.904   5.482  0.5961  0.4925  0.2908
 1009SOL    HW1 3726   5.848   6.999   5.472  1.9031  0.5571  0.0173
 1009SOL    HW2 3727   5.807   6.885   5.564  0.4601  1.3738  0.4225
 1010SOL     OW 3728   3.042   7.967   1.627 -0.1026 -0.1329  0.4757
 1010SOL    HW1 3729   2.992   7.939   1.703  0.8259  0.0507  1.1603
 1010SOL    HW2 3730   3.069   7.885   1.585 -1.4113 -0.2452 -0.2223
 1011SOL     OW 3731   7.132   7.674   1.661 -0.0935 -0.1571  0.0588
 1011SOL    HW1 3732   7.115   7.591   1.616  1.6050 -0.8300  0.5702
 1011SOL    HW2 3733   7.126   7.740   1.592  2.9455 -1.2124 -1.4028
 1012SOL     OW 3734   5.384   1.053   5.257 -0.0493 -0.7253 -0.6822
 1012SOL    HW1 3735   5.451   1.011   5.312  0.0741  0.0718 -0.2007
 1012SOL    HW2 3736   5.329   0.981   5.226  0.1186 -1.2357  0.1774
 1013SOL     OW 3737   0.611   2.521   7.170  0.5495 -0.6067 -0.3103
 1013SOL    HW1 3738   0.558   2.538   7.092  1.8867 -0.4945 -1.2274
 1013SOL    HW2 3739   0.638   2.429   7.161 -1.4622 -1.4684  1.4212
 1014SOL     OW 3740   5.967   4.529   6.197 -0.1181 -0.2997 -0.3067
 1014SOL    HW1 3741   5.997   4.489   6.115  0.8713  0.6932 -0.4745
 1014SOL    HW2 3742   5.967   4.623   6.178  2.7087  0.2028  1.5577
 1015SOL     OW 3743   1.264   3.857   7.656  0.1600  0.5141 -0.1700
 1015SOL    HW1 3744   1.225   3.944   7.643  1.8203  1.4440  0.7117
 1015SOL    HW2 3745   1.208   3.816   7.721 -0.7320  0.8612 -0.6988
 1016SOL     OW 3746   4.910   7.540   1.966 -0.2209 -0.0241  0.3905
 1016SOL    HW1 3747   4.999   7.532   1.931 -0.0890  2.9785 -0.2660
 1016SOL    HW2 3748   4.861   7.470   1.924  1.6982 -1.4618  0.4157
 1017SOL     OW 3749   5.393   7.565   0.961  0.2745 -0.0823 -0.9311
 1017SOL    HW1 3750   5.314   7.515   0.939  0.1433 -1.2579  1.7361
 1017SOL    HW2 3751   5.422   7.603   0.878 -1.7949 -1.4827 -2.3986
 1018SOL     OW 3752   7.888   6.712   3.915 -0.1923 -0.1755  0.6514
 1018SOL    HW1 3753   7.960   6.710   3.978 -0.9705  1.4007  1.6381
 1018SOL    HW2 3754   7.918   6.773   3.847 -0.1746 -0.3353  0.5147
 1019SOL     OW 3755   0.627   1.922   2.837  0.0220 -0.4821 -0.3665
 1019SOL    HW1 3756   0.648   2.015   2.830 -0.8058 -0.1614  1.1747
 1019SOL    HW2 3757   0.564   1.907   2.766 -2.0760  0.8463  1.0766
 1020SOL     OW 3758   1.243   6.037   3.719  0.1779 -0.2300  0.4649
 1020SOL    HW1 3759   1.295   5.965   3.755  0.9206  0.0873  0.0489
 1020SOL    HW2 3760   1.262   6.112   3.776  0.9281  0.1329 -0.2463
 1021SOL     OW 3761   2.738   7.811   1.710  0.0028 -0.5587  0.5138
 1021SOL    HW1 3762   2.774   7.765   1.634  0.3284 -1.1946  1.0451
 1021SOL    HW2 3763   2.679   7.747   1.750 -0.8823  0.0986  0.2755
 1022SOL     OW 3764   2.349   0.142   6.285 -0.1112 -0.4516 -0.0438
 1022SOL    HW1 3765   2.378   0.195   6.359  0.2858 -0.4057 -0.2275
 1022SOL    HW2 3766   2.321   0.059   6.324 -0.8798 -0.0653  0.2632
 1023SOL     OW 3767   3.605   3.415   1.848 -0.4193  0.3247 -0.9078
 1023SOL    HW1 3768   3.616   3.441   1.757 -0.2320  1.2177 -0.6418
 1023SOL    HW2 3769   3.670   3.346   1.861  0.9043  1.5171 -0.9446
 1024SOL     OW 3770   0.843   0.330   4.521  0.0560  0.3397  0.4900
 1024SOL    HW1 3771   0.822   0.416   4.555  2.1845  1.0128  0.2463
 1024SOL    HW2 3772   0.883   0.284   4.595  0.6807  0.2566  0.1084
 1025SOL     OW 3773   5.414   3.527   0.498  0.2148 -0.4644  0.1220
 1025SOL    HW1 3774   5.435   3.487   0.413 -0.2007  0.2660 -0.3342
 1025SOL    HW2 3775   5.373   3.456   0.548 -0.0100 -0.7686 -0.4783
 1026SOL     OW 3776   3.328   7.187   5.755 -0.1385  0.2446 -0.0086
 1026SOL    HW1 3777   3.366   7.197   5.843 -1.2832  0.2983  0.4904
 1026SOL    HW2 3778   3.234   7.194   5.768 -0.2974  1.0363 -1.3475
 1027SOL     OW 3779   1.826   2.501   1.789  0.0824 -0.0314 -0.1932
 1027SOL    HW1 3780   1.877   2.571   1.829  1.9561  0.0356 -2.4554
 1027SOL    HW2 3781   1.817   2.435   1.858  2.5317  0.3568  0.5801
 1028SOL     OW 3782   5.291   6.249   6.691 -0.1790 -0.5435  0.1365
 1028SOL    HW1 3783   5.274   6.227   6.783 -3.3945  1.3575  0.1817
 1028SOL    HW2 3784   5.236   6.188   6.642  0.3144 -0.5385 -0.4209
 1029SOL     OW 3785   5.466   6.353   6.478 -0.1128  0.2762  0.0816
 1029SOL    HW1 3786   5.404   6.312   6.416  1.4795 -1.9439 -0.1867
 1029SOL    HW2 3787   5.534   6.390   6.422  0.8514 -0.9192  0.4063
 1030SOL     OW 3788   7.020   4.218   3.246 -0.0587 -0.6221  0.7276
 1030SOL    HW1 3789   6.994   4.303   3.209 -0.5778 -2.0479 -2.4608
 1030SOL    HW2 3790   6.954   4.200   3.313 -0.0664  1.3525  1.3127
 1031SOL     OW 3791   4.313   7.900   1.160 -0.2271  0.2585 -0.6954
 1031SOL    HW1 3792   4.305   7.813   1.122  0.6435  0.1991 -0.7594
 1031SOL    HW2 3793   4.230   7.914   1.206  0.4267 -1.5026  1.1685
 1032SOL     OW 3794   0.166   4.199   6.065  0.3043 -0.1320 -0.0150
 1032SOL    HW1 3795   0.181   4.250   5.985 -0.0044 -0.5383 -0.3363
 1032SOL    HW2 3796   0.180   4.262   6.136  0.2207  0.3271 -0.3985
 1033SOL     OW 3797   3.250   0.855   4.001 -0.4843  0.0037  0.2792
 1033SOL    HW1 3798   3.248   0.790   3.930 -0.3979 -0.9492  1.1300
 1033SOL    HW2 3799   3.274   0.805   4.079 -0.3360  1.0808  0.9459
 1034SOL     OW 3800   5.208   2.797   6.904 -0.8042 -0.4949 -0.4635
 1034SOL    HW1 3801   5.214   2.719   6.849 -0.6771 -0.6344 -0.2569
 1034SOL    HW2 3802   5.218   2.870   6.844 -0.6672 -0.6440 -0.6255
 1035SOL     OW 3803   6.334   0.983   1.441  0.2676 -0.6027  0.0910
 1035SOL    HW1 3804   6.296   1.069   1.461 -2.1893 -2.0698  2.3295
 1035SOL    HW2 3805   6.410   0.977   1.499  0.2525 -0.0701  0.1713
 1036SOL     OW 3806   7.741   4.017   7.081 -0.0666  0.3066  0.0011
 1036SOL    HW1 3807   7.668   3.956   7.081 -0.3044  0.5885 -0.4361
 1036SOL    HW2 3808   7.781   4.008   7.168 -0.8039  0.3758  0.3483
 1037SOL     OW 3809   7.596   3.852   0.737 -0.6461  0.2214  0.6084
 1037SOL    HW1 3810   7.608   3.924   0.799 -1.7761 -1.1526  2.5239
 1037SOL    HW2 3811   7.511   3.867   0.697  0.0982  1.1275 -0.7007
 1038SOL     OW 3812   7.501   6.438   3.114  0.4063 -0.1493 -0.7414
 1038SOL    HW1 3813   7.432   6.415   3.175 -0.2991  0.9812 -1.0811
 1038SOL    HW2 3814   7.498   6.534   3.109  1.8213 -0.0893 -0.9598
 1039SOL     OW 3815   0.339   1.588   3.765 -0.4556 -0.0798 -0.2684
 1039SOL    HW1 3816   0.429   1.612   3.789 -1.1238  0.5552  1.8104
 1039SOL    HW2 3817   0.336   1.599   3.670  0.5949  3.7420 -0.0329
 1040SOL     OW 3818   0.308   4.989   5.114 -0.3659  0.1046 -0.0372
 1040SOL    HW1 3819   0.310   5.041   5.034 -0.7999  0.0021 -0.1237
 1040SOL    HW2 3820   0.214   4.971   5.128 -0.1837 -1.2674 -0.4293
 1041SOL     OW 3821   4.604   6.113   7.320 -0.1906  0.0989 -0.1284
 1041SOL    HW1 3822   4.549   6.079   7.249  0.0229 -0.8338  0.1509
 1041SOL    HW2 3823   4.681   6.055   7.321  0.8681  1.4283 -0.5787
 1042SOL     OW 3824   7.187   4.742   1.409 -0.0484  0.0275  0.2035
 1042SOL    HW1 3825   7.108   4.688   1.410  0.0478 -0.1124  0.4642
 1042SOL    HW2 3826   7.176   4.803   1.481  0.9577 -1.2909  1.5276
 1043SOL     OW 3827   0.929   2.306   4.517 -0.1092  0.3186  0.0874
 1043SOL    HW1 3828   0.930   2.256   4.435  0.0779  1.2776 -0.5072
 1043SOL    HW2 3829   0.844   2.351   4.517 -1.0688 -1.3271  1.4749
 1044SOL     OW 3830   5.253   3.098   2.549  0.4965 -0.2125 -0.3253
 1044SOL    HW1 3831   5.322   3.164   2.561 -0.8550  1.1533  0.1135
 1044SOL    HW2 3832   5.194   3.111   2.622 -1.3677  0.0662 -1.8183
 1045SOL     OW 3833   1.003   0.295   4.779 -0.7169  0.0206 -0.3392
 1045SOL    HW1 3834   1.086   0.339   4.761 -1.0035 -0.0734 -2.1262
 1045SOL    HW2 3835   0.943   0.366   4.804 -0.6260  0.3709 -1.0880
 1046SOL     OW 3836   2.646   7.114   7.946 -0.5559  0.0180  0.4891
 1046SOL    HW1 3837   2.577   7.124   7.881 -0.8784  0.9197  0.9497
 1046SOL    HW2 3838   2.600   7.088   8.026 -0.0551 -2.1357  0.1272
 1047SOL     OW 3839   3.468   1.158   7.410 -0.3450  0.7334  0.4937
 1047SOL    HW1 3840   3.404   1.187   7.476 -2.1540  0.8600 -1.2151
 1047SOL    HW2 3841   3.473   1.063   7.422 -1.3651  0.6345  0.2696
 1048SOL     OW 3842   5.716   3.970   3.249  0.0786  0.3269  0.2967
 1048SOL    HW1 3843   5.801   3.933   3.225  0.3164  1.4215 -0.5937
 1048SOL    HW2 3844   5.736   4.040   3.311 -0.0932  1.1917 -0.6135
 1049SOL     OW 3845   0.621   4.608   5.246  0.4870  0.0550  0.1974
 1049SOL    HW1 3846   0.659   4.563   5.170 -0.2079  0.5091 -0.4396
 1049SOL    HW2 3847   0.632   4.701   5.226  1.0461  0.1813  1.0499
 1050SOL     OW 3848   3.169   4.583   2.651  0.2317 -0.0080 -0.6120
 1050SOL    HW1 3849   3.172   4.586   2.556 -1.4870  1.8140 -0.6714
 1050SOL    HW2 3850   3.232   4.649   2.680  0.9222 -0.7191 -0.4481
 1051SOL     OW 3851   5.639   0.214   3.085 -0.0236  0.2039 -0.3704
 1051SOL    HW1 3852   5.576   0.145   3.068  0.0580  0.4377 -1.7550
 1051SOL    HW2 3853   5.724   0.171   3.080  0.0039  0.2896 -0.6967
 1052SOL     OW 3854   5.483   3.376   1.154  0.2000 -0.1824  0.6021
 1052SOL    HW1 3855   5.466   3.398   1.245 -0.4995  0.7567  0.2587
 1052SOL    HW2 3856   5.397   3.365   1.114  0.4387  1.1537 -0.3472
 1053SOL     OW 3857   0.983   3.686   6.553 -0.2258 -0.1563  0.0972
 1053SOL    HW1 3858   0.916   3.660   6.489 -1.0508  0.9257  0.4750
 1053SOL    HW2 3859   1.013   3.772   6.523  1.2243 -0.7465 -0.2177
 1054SOL     OW 3860   6.650   5.391   4.756 -0.1650 -0.4523  0.0323
 1054SOL    HW1 3861   6.680   5.385   4.846 -0.9804  0.8128  0.4137
 1054SOL    HW2 3862   6.697   5.466   4.720 -1.1864  0.1875 -0.0175
 1055SOL     OW 3863   2.159   3.135   5.460 -0.4112 -0.2469  0.2865
 1055SOL    HW1 3864   2.153   3.148   5.554 -1.5730  2.2265 -0.0543
 1055SOL    HW2 3865   2.244   3.172   5.436 -0.6831  0.3644  0.2300
 1056SOL     OW 3866   7.628   3.545   1.273 -0.3232 -0.3647 -0.3917
 1056SOL    HW1 3867   7.718   3.572   1.256  0.0220 -0.2288  1.4099
 1056SOL    HW2 3868   7.625   3.452   1.249  0.9173 -0.9350  1.5016
 1057SOL     OW 3869   5.181   3.104   0.440  0.5023 -0.0572 -0.5321
 1057SOL    HW1 3870   5.196   3.118   0.347 -0.7115  0.3694 -0.6736
 1057SOL    HW2 3871   5.245   3.162   0.483 -0.5767  1.6414 -1.1164
 1058SOL     OW 3872   7.517   7.743   4.298 -0.0774  0.3014 -0.1496
 1058SOL    HW1 3873   7.549   7.731   4.388 -1.1724  2.7478  0.6544
 1058SOL    HW2 3874   7.449   7.677   4.288  0.5420 -0.4649  0.5595
 1059SOL     OW 3875   5.209   7.633   5.978 -0.2373 -0.2786  0.5789
 1059SOL    HW1 3876   5.127   7.586   5.993  0.0499 -1.6433 -1.6302
 1059SOL    HW2 3877   5.277   7.568   5.996  0.1742 -0.7710 -2.2489
 1060SOL     OW 3878   3.328   5.501   4.358 -0.2409  0.1960  0.3093
 1060SOL    HW1 3879   3.353   5.416   4.322 -0.0302  0.1522  0.5533
 1060SOL    HW2 3880   3.277   5.543   4.289 -1.0693 -0.4765  0.4868
 1061SOL     OW 3881   2.873   2.956   0.143 -0.6131 -0.0445  0.1896
 1061SOL    HW1 3882   2.932   2.903   0.196 -1.6296 -0.1100  1.2915
 1061SOL    HW2 3883   2.786   2.919   0.159 -1.2206  1.3228  0.2207
 1062SOL     OW 3884   3.349   7.201   3.617 -0.1580  0.1785 -0.4892
 1062SOL    HW1 3885   3.382   7.252   3.691 -1.2853 -0.5573  0.5614
 1062SOL    HW2 3886   3.378   7.111   3.636  1.1091  0.2486 -1.8955
 1063SOL     OW 3887   2.305   2.065   1.007 -0.6774  0.3812  0.4052
 1063SOL    HW1 3888   2.372   2.133   1.019  0.9196 -1.2938  1.4201
 1063SOL    HW2 3889   2.335   1.992   1.061 -3.9595 -0.0507  1.8833
 1064SOL     OW 3890   4.474   2.885   7.434 -0.2535 -0.0158  0.2654
 1064SOL    HW1 3891   4.450   2.888   7.526  0.2722 -1.0103  0.4517
 1064SOL    HW2 3892   4.393   2.867   7.387 -0.7476  1.7406  0.4073
 1065SOL     OW 3893   4.837   0.093   5.745 -1.1324 -0.4617  0.6843
 1065SOL    HW1 3894   4.844   0.008   5.703 -0.4092  0.7960 -1.9835
 1065SOL    HW2 3895   4.835   0.074   5.839  1.3876 -3.2458  0.3127
 1066SOL     OW 3896   7.916   1.980   1.435  0.4044 -0.1519 -1.0945
 1066SOL    HW1 3897   7.860   1.959   1.360  1.0388 -0.9432 -1.3575
 1066SOL    HW2 3898   7.897   1.910   1.498  0.8660 -0.2364 -1.0526
 1067SOL     OW 3899   5.143   4.548   0.441 -0.2336  0.3999  0.2892
 1067SOL    HW1 3900   5.146   4.637   0.407 -2.0557 -0.2201 -1.7037
 1067SOL    HW2 3901   5.180   4.494   0.371 -1.2670 -0.6231  0.4919
 1068SOL     OW 3902   2.812   3.333   6.745 -0.0946  0.2058  0.0336
 1068SOL    HW1 3903   2.805   3.238   6.747 -1.7702  0.3093  1.9146
 1068SOL    HW2 3904   2.766   3.363   6.824  0.2850  2.5856 -0.5546
 1069SOL     OW 3905   5.540   1.764   3.843  0.0644 -0.5249 -0.6024
 1069SOL    HW1 3906   5.608   1.826   3.818 -0.0828 -0.2162 -0.2376
 1069SOL    HW2 3907   5.538   1.701   3.771 -0.2873  0.2923 -1.3321
 1070SOL     OW 3908   0.892   7.804   7.298 -0.7041 -0.3798 -0.3550
 1070SOL    HW1 3909   0.905   7.720   7.255 -0.0897 -0.9138  0.8403
 1070SOL    HW2 3910   0.979   7.844   7.299 -0.6676 -0.4659  0.5592
 1071SOL     OW 3911   7.583   2.543   3.749 -0.1776 -0.1650  0.1210
 1071SOL    HW1 3912   7.535   2.593   3.816 -1.9870  0.4584 -1.5399
 1071SOL    HW2 3913   7.660   2.597   3.731 -0.1880  0.1654  0.9691
 1072SOL     OW 3914   5.602   3.885   3.648 -0.3623  0.0199  0.2387
 1072SOL    HW1 3915   5.692   3.855   3.638  0.0087  1.1006  0.2398
 1072SOL    HW2 3916   5.609   3.979   3.664 -1.5213  0.2914 -0.6511
 1073SOL     OW 3917   4.448   5.629   3.570 -0.2522 -0.2170  0.1760
 1073SOL    HW1 3918   4.492   5.555   3.529  0.5135  0.3267 -0.0008
 1073SOL    HW2 3919   4.501   5.705   3.547 -1.7223  0.5931 -0.7612
 1074SOL     OW 3920   4.260   1.993   5.119  0.3865  0.2336  0.3631
 1074SOL    HW1 3921   4.286   2.085   5.122  0.7434  0.1313  0.3923
 1074SOL    HW2 3922   4.166   1.994   5.136 -0.0246  0.7869 -1.6220
 1075SOL     OW 3923   6.375   6.192   1.856  0.0456  0.0890  0.0830
 1075SOL    HW1 3924   6.405   6.119   1.803  1.3003  0.2633  0.5116
 1075SOL    HW2 3925   6.438   6.262   1.839 -0.9583  0.9745 -0.0892
 1076SOL     OW 3926   4.690   2.492   6.227 -0.2692 -0.2441 -0.4025
 1076SOL    HW1 3927   4.637   2.522   6.301  0.9484  0.1817  0.3179
 1076SOL    HW2 3928   4.627   2.451   6.168 -1.1226 -1.5018  1.3128
 1077SOL     OW 3929   6.682   6.612   2.094 -0.2357 -0.4648 -0.6252
 1077SOL    HW1 3930   6.661   6.676   2.163  0.2515 -1.7251  0.7566
 1077SOL    HW2 3931   6.639   6.646   2.016 -2.0694  0.2875  0.6329
 1078SOL     OW 3932   5.432   6.830   2.495 -0.4398 -0.7995  0.7627
 1078SOL    HW1 3933   5.502   6.780   2.536  0.3785 -1.6337 -1.4784
 1078SOL    HW2 3934   5.362   6.767   2.480  0.3418 -1.2084 -1.4891
 1079SOL     OW 3935   5.902   3.634   2.439 -0.0675  0.4495 -0.2050
 1079SOL    HW1 3936   5.839   3.563   2.455 -1.6706  1.5248 -1.3795
 1079SOL    HW2 3937   5.964   3.628   2.511 -1.6602 -0.5277  1.1614
 1080SOL     OW 3938   3.435   7.896   4.225 -0.1337  0.8862  0.0915
 1080SOL    HW1 3939   3.403   7.806   4.234 -1.7489  1.6134  2.1983
 1080SOL    HW2 3940   3.481   7.896   4.140  0.2065 -1.9764  0.1703
 1081SOL     OW 3941   0.984   6.876   4.613  0.3402 -0.3962  0.2494
 1081SOL    HW1 3942   0.952   6.966   4.603 -0.9936 -0.9481 -0.7238
 1081SOL    HW2 3943   1.007   6.849   4.524 -3.3932 -2.4436 -0.3012
 1082SOL     OW 3944   1.888   1.013   4.174  0.1327  0.3488  0.1282
 1082SOL    HW1 3945   1.908   0.932   4.128  0.3887 -0.0236  0.8735
 1082SOL    HW2 3946   1.824   1.057   4.118 -0.8594 -0.8902  0.2358
 1083SOL     OW 3947   4.484   3.308   1.464 -0.4092 -0.0997  0.0343
 1083SOL    HW1 3948   4.402   3.343   1.501  0.1159  1.5730 -0.2854
 1083SOL    HW2 3949   4.533   3.276   1.540 -1.9157 -2.4906  0.0966
 1084SOL     OW 3950   1.335   6.121   2.299 -0.0959 -0.1842  0.8578
 1084SOL    HW1 3951   1.286   6.049   2.339 -1.2436 -0.3548 -0.7551
 1084SOL    HW2 3952   1.343   6.096   2.207 -1.1464  2.0244  0.0832
 1085SOL     OW 3953   7.915   2.461   6.463  0.0227  0.3495  0.7471
 1085SOL    HW1 3954   7.865   2.388   6.424 -0.3210  1.9459 -2.1373
 1085SOL    HW2 3955   7.860   2.538   6.446  2.3345  1.8487 -0.4016
 1086SOL     OW 3956   7.610   5.235   3.224  0.4098 -0.1509 -0.1239
 1086SOL    HW1 3957   7.704   5.254   3.222  0.3733  0.0694  0.2098
 1086SOL    HW2 3958   7.582   5.262   3.311  0.4223 -2.0688  0.5282
 1087SOL     OW 3959   2.620   5.878   4.515  0.1894  0.1988  0.6105
 1087SOL    HW1 3960   2.673   5.812   4.471 -0.5509 -1.1960  1.7239
 1087SOL    HW2 3961   2.541   5.885   4.461 -0.1977 -0.6285  1.0638
 1088SOL     OW 3962   6.316   2.280   7.546 -0.0292 -0.2834 -0.5682
 1088SOL    HW1 3963   6.356   2.242   7.624  1.4474  0.5792 -0.8557
 1088SOL    HW2 3964   6.326   2.375   7.558 -1.2012 -0.0778 -1.0932
 1089SOL     OW 3965   2.403   6.073   0.610  0.4599 -0.1804 -0.2269
 1089SOL    HW1 3966   2.479   6.065   0.552  0.9086  1.4430  0.0640
 1089SOL    HW2 3967   2.366   6.159   0.589 -2.2313 -1.5242 -1.3895
 1090SOL     OW 3968   0.592   7.455   0.133 -0.3147  0.0673 -0.3539
 1090SOL    HW1 3969   0.541   7.465   0.052  3.0676  0.5622 -2.6543
 1090SOL    HW2 3970   0.616   7.544   0.157 -1.9824 -0.0013  1.8238
 1091SOL     OW 3971   7.136   1.000   2.686  0.3563  0.3578  0.5201
 1091SOL    HW1 3972   7.179   1.077   2.722  1.2992  0.5426 -0.9262
 1091SOL    HW2 3973   7.203   0.932   2.687 -0.4422 -0.4476  1.6953
 1092SOL     OW 3974   3.448   1.863   6.669  0.1158 -0.1837 -0.5572
 1092SOL    HW1 3975   3.360   1.899   6.683  0.3836  1.3863 -2.5348
 1092SOL    HW2 3976   3.434   1.768   6.663 -1.2322 -0.0813  0.4138
 1093SOL     OW 3977   2.305   6.530   0.440  0.0331  0.2801 -0.1188
 1093SOL    HW1 3978   2.293   6.624   0.426 -0.7061  0.4300  1.3623
 1093SOL    HW2 3979   2.396   6.521   0.470 -0.4262  0.7806  1.5298
 1094SOL     OW 3980   5.134   6.093   3.709  0.2525  0.1960 -0.1550
 1094SOL    HW1 3981   5.145   6.080   3.803 -0.8939  2.2011  0.3308
 1094SOL    HW2 3982   5.186   6.171   3.689 -1.8295  1.5900 -0.5166
 1095SOL     OW 3983   4.539   3.596   0.646  0.2417 -0.7261  0.1473
 1095SOL    HW1 3984   4.475   3.650   0.598  1.1425 -0.0272 -0.2978
 1095SOL    HW2 3985   4.548   3.517   0.592 -1.0980 -1.3814  0.8122
 1096SOL     OW 3986   3.868   6.862   4.686  0.2410  0.4854 -0.1691
 1096SOL    HW1 3987   3.776   6.874   4.662 -0.1755  0.6917  1.4231
 1096SOL    HW2 3988   3.865   6.824   4.774  1.6770 -0.6988 -0.5940
 1097SOL     OW 3989   7.208   0.911   7.178  0.1987 -0.5943 -0.5455
 1097SOL    HW1 3990   7.259   0.916   7.259 -0.5437  1.5862 -0.1433
 1097SOL    HW2 3991   7.172   0.822   7.177  0.2475 -0.6686  1.5012
 1098SOL     OW 3992   6.362   7.333   4.776  0.0441 -0.1390 -0.1319
 1098SOL    HW1 3993   6.346   7.426   4.789  2.0133  0.2480 -0.1045
 1098SOL    HW2 3994   6.331   7.314   4.688  0.0046  0.6477 -0.2878
 1099SOL     OW 3995   4.227   1.114   7.402 -0.1579 -0.1783 -0.6311
 1099SOL    HW1 3996   4.315   1.098   7.368 -0.2723  0.0302 -1.0344
 1099SOL    HW2 3997   4.231   1.085   7.493  0.2838 -0.3163 -0.6899
 1100SOL     OW 3998   2.897   5.823   6.395  0.0330  0.5317 -0.0894
 1100SOL    HW1 3999   2.917   5.805   6.303 -0.9090 -1.6930  0.0734
 1100SOL    HW2 4000   2.807   5.857   6.393  0.5836  2.0515 -0.0928
 1101SOL     OW 4001   4.862   7.246   0.916 -0.0097  0.3838 -0.2260
 1101SOL    HW1 4002   4.808   7.167   0.906 -0.3963  0.5580  0.4379
 1101SOL    HW2 4003   4.952   7.214   0.907 -0.1915 -0.0106 -0.7151
 1102SOL     OW 4004   6.696   0.359   3.441  0.2352  0.2958  0.7752
 1102SOL    HW1 4005   6.776   0.348   3.492  0.7703 -0.0647 -0.1391
 1102SOL    HW2 4006   6.689   0.280   3.388 -0.5599  0.4628  0.6088
 1103SOL     OW 4007   0.541   6.558   3.109 -0.0051  0.2100 -0.1500
 1103SOL    HW1 4008   0.626   6.515   3.110  0.2138  0.5125 -2.1265
 1103SOL    HW2 4009   0.559   6.649   3.131 -0.0972 -0.0772  1.2289
 1104SOL     OW 4010   3.244   4.596   3.999 -0.2141 -0.2415  0.5490
 1104SOL    HW1 4011   3.176   4.613   3.934 -0.3556 -0.1244  0.7252
 1104SOL    HW2 4012   3.326   4.596   3.949  0.1026  3.2190  0.7839
 1105SOL     OW 4013   5.327   1.130   2.731  0.3065 -0.2575 -0.1521
 1105SOL    HW1 4014   5.340   1.038   2.706 -2.2061 -1.8826  3.6099
 1105SOL    HW2 4015   5.359   1.134   2.821  0.0061  2.5271 -0.1004
 1106SOL     OW 4016   5.227   1.980   4.804  0.3883  0.3581  0.4727
 1106SOL    HW1 4017   5.149   1.979   4.860 -0.8015 -1.6029 -1.0767
 1106SOL    HW2 4018   5.265   2.067   4.817 -2.9535  2.0444  0.1385
 1107SOL     OW 4019   4.855   7.380   2.414  0.0322 -0.0088 -0.2569
 1107SOL    HW1 4020   4.864   7.475   2.410  0.8326 -0.0818 -0.3824
 1107SOL    HW2 4021   4.807   7.364   2.495 -1.3402  0.5668 -0.9204
 1108SOL     OW 4022   5.505   2.725   6.158 -0.1565 -0.0898  0.0831
 1108SOL    HW1 4023   5.566   2.761   6.093 -0.3723  0.9759  0.4413
 1108SOL    HW2 4024   5.419   2.757   6.131 -0.4348 -0.8253  0.0936
 1109SOL     OW 4025   4.914   0.086   0.281  0.1280 -0.0631 -0.1410
 1109SOL    HW1 4026   4.963   0.055   0.356 -0.5340  1.6507  1.0697
 1109SOL    HW2 4027   4.980   0.095   0.211  0.6024 -2.4452 -0.0652
 1110SOL     OW 4028   5.370   7.440   0.655 -0.0779 -0.0604  0.2426
 1110SOL    HW1 4029   5.427   7.517   0.665  0.2601 -0.4756  1.6858
 1110SOL    HW2 4030   5.312   7.443   0.730  0.0461 -1.3019  0.4028
 1111SOL     OW 4031   0.433   5.390   2.275 -0.3337 -0.3186  0.0648
 1111SOL    HW1 4032   0.515   5.348   2.302 -0.9181 -1.7883 -0.3409
 1111SOL    HW2 4033   0.457   5.481   2.257  1.4195 -0.9326 -0.9377
 1112SOL     OW 4034   0.814   1.023   3.662 -0.0088  0.7499  0.2823
 1112SOL    HW1 4035   0.761   0.976   3.599  0.1447  3.2981 -1.9190
 1112SOL    HW2 4036   0.852   0.955   3.718 -1.8864 -1.4433 -0.9793
 1113SOL     OW 4037   6.804   7.305   2.636 -0.1836 -0.0692  0.0026
 1113SOL    HW1 4038   6.850   7.242   2.692 -0.9083 -0.3881  0.2557
 1113SOL    HW2 4039   6.747   7.251   2.582  0.6353  0.2267 -1.1879
 1114SOL     OW 4040   7.845   7.101   2.147 -0.0567 -0.3096 -0.7581
 1114SOL    HW1 4041   7.820   7.025   2.200 -0.7621  0.6864  0.4128
 1114SOL    HW2 4042   7.790   7.172   2.181  0.9988  0.8597 -1.4211
 1115SOL     OW 4043   3.887   0.225   5.959  0.2834 -1.2499 -0.1929
 1115SOL    HW1 4044   3.964   0.168   5.967 -0.3063 -1.9059  1.0306
 1115SOL    HW2 4045   3.870   0.228   5.865  1.3354 -1.7269 -0.4197
 1116SOL     OW 4046   1.603   6.482   7.078  0.4201 -0.1237  0.1361
 1116SOL    HW1 4047   1.627   6.564   7.034  1.0665  0.6645  1.8588
 1116SOL    HW2 4048   1.685   6.449   7.114  0.0234 -1.1182  0.1705
 1117SOL     OW 4049   1.953   2.320   0.224  0.3771  0.8907  0.2278
 1117SOL    HW1 4050   1.883   2.343   0.161  0.0508 -1.3187 -0.2887
 1117SOL    HW2 4051   1.942   2.383   0.295 -1.0507  1.6728 -0.6247
 1118SOL     OW 4052   7.573   3.679   7.813 -0.2173  0.5977  0.1208
 1118SOL    HW1 4053   7.516   3.683   7.736 -0.7601  0.5895  0.5235
 1118SOL    HW2 4054   7.577   3.769   7.845  1.9058  1.0707 -1.2794
 1119SOL     OW 4055   1.359   3.771   5.495  0.3197  0.2498  0.0617
 1119SOL    HW1 4056   1.385   3.694   5.446  0.1936 -0.8924  1.7190
 1119SOL    HW2 4057   1.329   3.833   5.428  1.1837 -0.8164 -1.3582
 1120SOL     OW 4058   6.662   6.411   0.637  0.3849 -0.1574  0.2558
 1120SOL    HW1 4059   6.625   6.498   0.623 -0.9447 -0.5961  0.8287
 1120SOL    HW2 4060   6.743   6.426   0.686 -0.7987  0.6655  2.0432
 1121SOL     OW 4061   7.749   7.726   4.813 -0.1278  0.3325  0.1441
 1121SOL    HW1 4062   7.789   7.673   4.882 -1.2222 -1.1834 -0.3236
 1121SOL    HW2 4063   7.662   7.748   4.848 -0.3041  0.4116 -0.3319
 1122SOL     OW 4064   3.961   6.341   7.324 -0.4404 -0.2672 -0.2626
 1122SOL    HW1 4065   3.899   6.412   7.309 -1.6816 -1.0379  0.9523
 1122SOL    HW2 4066   3.936   6.274   7.260 -0.1553 -0.1671 -0.4838
 1123SOL     OW 4067   6.750   4.059   6.214  0.1307 -0.0160  0.4866
 1123SOL    HW1 4068   6.805   4.131   6.184 -1.5059  1.4231  0.7485
 1123SOL    HW2 4069   6.757   4.062   6.310  1.7080 -1.6159  0.4674
 1124SOL     OW 4070   6.883   5.101   5.650 -0.6972  0.4523 -0.2071
 1124SOL    HW1 4071   6.895   5.007   5.657  0.2088  0.5950  0.2901
 1124SOL    HW2 4072   6.967   5.134   5.617 -1.0376  1.0762 -0.4812
 1125SOL     OW 4073   4.863   1.433   0.668  0.2028 -0.2099 -0.0887
 1125SOL    HW1 4074   4.933   1.495   0.688  0.8055 -0.9477  0.1155
 1125SOL    HW2 4075   4.784   1.487   0.661  1.0081  0.8399 -1.7762
 1126SOL     OW 4076   2.767   1.311   0.981 -0.3851 -0.3045 -0.0333
 1126SOL    HW1 4077   2.827   1.253   0.933 -0.5452 -1.2713  0.8937
 1126SOL    HW2 4078   2.712   1.349   0.913 -1.2138 -2.3457 -0.5938
 1127SOL     OW 4079   6.933   3.194   6.132 -0.5986 -0.5573 -0.0261
 1127SOL    HW1 4080   6.842   3.213   6.107 -0.7638 -1.6872 -0.3012
 1127SOL    HW2 4081   6.976   3.170   6.050 -0.1916 -0.6025  0.1991
 1128SOL     OW 4082   0.094   6.164   2.563 -0.4362  0.2317 -0.0627
 1128SOL    HW1 4083   0.039   6.093   2.531  0.6433  0.0595 -1.6330
 1128SOL    HW2 4084   0.169   6.120   2.604 -0.1589  0.4606 -0.3205
 1129SOL     OW 4085   6.970   2.384   0.278 -0.5764  0.0258  0.2418
 1129SOL    HW1 4086   6.887   2.379   0.325 -0.6438  0.9591  0.2394
 1129SOL    HW2 4087   7.004   2.470   0.299 -0.3520  0.2603 -0.9905
 1130SOL     OW 4088   6.244   6.527   4.433 -0.1287  0.4573 -0.1603
 1130SOL    HW1 4089   6.215   6.520   4.524 -0.3378 -1.3042 -0.3239
 1130SOL    HW2 4090   6.196   6.457   4.388  0.0472  1.2451 -1.6053
 1131SOL     OW 4091   7.163   6.438   0.018  0.0678  0.4120 -0.0632
 1131SOL    HW1 4092   7.140   6.496  -0.054  0.7385  2.0535  0.9785
 1131SOL    HW2 4093   7.220   6.491   0.074  0.8038 -1.3036  0.8906
 1132SOL     OW 4094   7.264   7.139   4.173 -0.0905 -0.3117  0.0867
 1132SOL    HW1 4095   7.192   7.177   4.124  0.7943  0.7261 -0.4520
 1132SOL    HW2 4096   7.334   7.128   4.108  1.2799  1.5354  1.1499
 1133SOL     OW 4097   3.131   6.650   1.252  0.0900 -0.4418  0.9851
 1133SOL    HW1 4098   3.070   6.611   1.314  0.0525 -1.3235  0.4052
 1133SOL    HW2 4099   3.158   6.732   1.294 -1.5987  0.0500  1.1808
 1134SOL     OW 4100   7.962   1.311   7.571  0.0788  0.1103  0.2137
 1134SOL    HW1 4101   8.053   1.290   7.554  0.0669 -0.5000  0.8549
 1134SOL    HW2 4102   7.965   1.386   7.631  0.1215  2.0360 -2.0718
 1135SOL     OW 4103   1.898   2.882   4.653 -0.1161  0.2516 -0.2024
 1135SOL    HW1 4104   1.831   2.921   4.710 -0.1198  1.0258 -0.7310
 1135SOL    HW2 4105   1.974   2.939   4.664  0.7790 -1.0902  1.0529
 1136SOL     OW 4106   3.973   2.733   1.813 -0.5972 -0.8300  0.3255
 1136SOL    HW1 4107   4.024   2.759   1.890 -1.1129 -0.2021  0.4638
 1136SOL    HW2 4108   3.923   2.657   1.842  0.8034 -1.9327 -0.0353
 1137SOL     OW 4109   7.518   4.072   4.542  0.1557 -0.5550  0.2690
 1137SOL    HW1 4110   7.468   4.119   4.608 -0.3723  1.1510 -1.2765
 1137SOL    HW2 4111   7.454   4.018   4.496  0.8205 -3.3092  2.3144
 1138SOL     OW 4112   5.648   7.531   0.337 -0.2304  0.9480  0.6565
 1138SOL    HW1 4113   5.683   7.477   0.408 -1.9923 -1.2913 -0.0691
 1138SOL    HW2 4114   5.679   7.488   0.257 -1.8650  0.8525  0.0528
 1139SOL     OW 4115   2.083   3.342   3.579  0.5096  0.0373  0.3289
 1139SOL    HW1 4116   2.129   3.424   3.597  0.3215 -0.0453  1.2834
 1139SOL    HW2 4117   2.138   3.274   3.618  0.1402 -0.1775  0.4827
 1140SOL     OW 4118   1.016   2.266   5.528 -0.1618 -0.2210 -0.1269
 1140SOL    HW1 4119   0.945   2.206   5.506 -0.5731  0.4260 -0.5810
 1140SOL    HW2 4120   0.976   2.352   5.528  0.2048 -0.0190  1.4996
 1141SOL     OW 4121   4.417   6.227   2.845  0.1430  0.3067 -0.3995
 1141SOL    HW1 4122   4.470   6.271   2.779  0.0070  0.6906 -0.2545
 1141SOL    HW2 4123   4.329   6.226   2.809  0.1309  0.2176 -0.3686
 1142SOL     OW 4124   0.717   6.517   2.568  0.1628  0.5692  0.0226
 1142SOL    HW1 4125   0.635   6.477   2.539 -0.5589  2.0660 -0.0696
 1142SOL    HW2 4126   0.750   6.457   2.635 -1.0989  0.0493  0.1997
 1143SOL     OW 4127   6.675   0.812   4.700 -0.2612  0.1117  0.5881
 1143SOL    HW1 4128   6.594   0.844   4.738 -0.5359  0.2333 -0.0878
 1143SOL    HW2 4129   6.656   0.721   4.676 -0.2143  0.1516  0.3942
 1144SOL     OW 4130   2.824   5.205   6.950 -0.6543 -0.1018 -0.0195
 1144SOL    HW1 4131   2.813   5.300   6.944 -1.4993 -0.1356  0.8091
 1144SOL    HW2 4132   2.919   5.192   6.950 -0.4681  0.8970  1.8771
 1145SOL     OW 4133   4.251   7.950   3.480 -0.1067 -0.0940  0.1789
 1145SOL    HW1 4134   4.218   7.968   3.393  1.5640 -3.0014 -1.2028
 1145SOL    HW2 4135   4.337   7.993   3.483 -0.3908  0.4619  0.6343
 1146SOL     OW 4136   6.210   1.865   6.948  0.6654  0.3256 -0.2887
 1146SOL    HW1 4137   6.188   1.848   6.857 -1.8288 -4.7986  0.8735
 1146SOL    HW2 4138   6.147   1.932   6.976 -0.1287  0.2284 -1.7718
 1147SOL     OW 4139   2.992   6.156   1.066 -0.3934  0.0026 -0.2601
 1147SOL    HW1 4140   2.986   6.159   1.161 -0.4728 -2.4862 -0.1277
 1147SOL    HW2 4141   3.083   6.178   1.047  0.0033 -0.9143  0.5082
 1148SOL     OW 4142   4.109   7.314   4.809  0.2234  0.5187  0.0201
 1148SOL    HW1 4143   4.072   7.265   4.883 -1.3390  1.4303 -0.1080
 1148SOL    HW2 4144   4.036   7.323   4.748  0.8344  1.8546 -0.5500
 1149SOL     OW 4145   5.147   0.535   3.840 -0.0988 -0.3369 -0.0242
 1149SOL    HW1 4146   5.235   0.564   3.817  0.4653 -1.7039  0.3148
 1149SOL    HW2 4147   5.110   0.503   3.758  0.9889 -2.8752  0.3978
 1150SOL     OW 4148   0.205   0.363   2.362 -0.2078 -0.3826  0.2784
 1150SOL    HW1 4149   0.237   0.436   2.414 -1.2855 -0.0280  0.4643
 1150SOL    HW2 4150   0.255   0.367   2.281  0.7893 -0.3492  0.8872
 1151SOL     OW 4151   5.272   5.463   4.976  0.2892  0.0828  0.1464
 1151SOL    HW1 4152   5.347   5.436   4.923  0.4675  0.7292  0.0546
 1151SOL    HW2 4153   5.245   5.547   4.938 -1.4479 -0.8460 -0.7911
 1152SOL     OW 4154   0.236   2.132   0.605  0.0392  0.0097  0.0142
 1152SOL    HW1 4155   0.309   2.178   0.646  0.8052 -0.3568 -0.8977
 1152SOL    HW2 4156   0.273   2.048   0.578 -1.0407 -0.6831  0.6135
 1153SOL     OW 4157   4.971   5.154   1.507 -0.3919 -0.0301  0.3089
 1153SOL    HW1 4158   5.029   5.193   1.572 -1.8753 -2.2102  3.1868
 1153SOL    HW2 4159   5.021   5.083   1.468  0.3698  1.0473 -0.7784
 1154SOL     OW 4160   6.447   3.078   4.887 -0.1190 -0.0227  0.3487
 1154SOL    HW1 4161   6.502   3.013   4.932 -0.0208 -0.4383 -0.3562
 1154SOL    HW2 4162   6.432   3.146   4.953  0.5607 -0.3020  0.8082
 1155SOL     OW 4163   2.324   5.285   1.260 -0.6111 -0.3187  0.2002
 1155SOL    HW1 4164   2.294   5.373   1.237 -2.1155 -0.5204  1.2483
 1155SOL    HW2 4165   2.394   5.300   1.323 -0.7038  0.1327  0.2021
 1156SOL     OW 4166   2.330   7.621   2.167  0.1735 -0.0717 -0.0373
 1156SOL    HW1 4167   2.268   7.690   2.190  0.2886 -0.4210  1.3687
 1156SOL    HW2 4168   2.408   7.641   2.218 -0.2880 -2.0307  1.5422
 1157SOL     OW 4169   5.468   1.657   5.080  0.7564 -0.7690 -0.0848
 1157SOL    HW1 4170   5.552   1.690   5.047  0.5777 -0.3546 -0.1333
 1157SOL    HW2 4171   5.475   1.668   5.175  0.1593  0.7548 -0.1806
 1158SOL     OW 4172   5.230   1.960   3.439 -0.0747  0.5791  0.5087
 1158SOL    HW1 4173   5.229   1.935   3.532 -0.7621 -0.2217  0.2956
 1158SOL    HW2 4174   5.198   2.050   3.439 -0.0356  0.6004  1.0512
 1159SOL     OW 4175   1.722   7.264   4.662  0.1326 -0.0342  0.2140
 1159SOL    HW1 4176   1.657   7.318   4.617  1.2444  1.3536  0.1842
 1159SOL    HW2 4177   1.803   7.278   4.612  0.8971 -0.1427  1.3727
 1160SOL     OW 4178   4.595   0.468   5.437  0.1122 -0.0804  0.0529
 1160SOL    HW1 4179   4.545   0.449   5.516  0.7549  0.4165  0.5991
 1160SOL    HW2 4180   4.545   0.535   5.392 -0.4716 -0.6655 -0.1821
 1161SOL     OW 4181   7.769   2.060   1.931 -0.5066  0.5464 -0.0855
 1161SOL    HW1 4182   7.833   2.050   2.001  0.2399  0.1698 -0.7987
 1161SOL    HW2 4183   7.814   2.028   1.852 -0.1313  3.8484 -1.3827
 1162SOL     OW 4184   0.093   5.508   6.123 -0.4055  0.3449 -0.3416
 1162SOL    HW1 4185   0.150   5.434   6.146 -0.3740  0.2408 -0.7490
 1162SOL    HW2 4186   0.153   5.575   6.091 -0.6324 -0.5063 -2.7797
 1163SOL     OW 4187   3.007   6.646   4.574 -0.2629 -0.1512 -0.5465
 1163SOL    HW1 4188   3.100   6.644   4.594 -0.5003 -0.2295  0.6422
 1163SOL    HW2 4189   3.000   6.612   4.485  0.8864  0.3432 -0.8405
 1164SOL     OW 4190   1.685   0.539   2.749 -0.2430 -0.0384  0.2407
 1164SOL    HW1 4191   1.685   0.453   2.790  2.2014  0.1257  0.7437
 1164SOL    HW2 4192   1.647   0.525   2.662  1.0230 -1.8425 -0.0632
 1165SOL     OW 4193   1.344   5.822   4.119 -0.2348  0.6553 -0.0099
 1165SOL    HW1 4194   1.319   5.888   4.054  2.7184  0.9234 -1.0614
 1165SOL    HW2 4195   1.326   5.864   4.203  0.5923  2.4428 -0.6630
 1166SOL     OW 4196   6.265   7.645   3.853  0.1010 -0.2349  0.4115
 1166SOL    HW1 4197   6.207   7.680   3.785  0.5964 -0.1959  0.0061
 1166SOL    HW2 4198   6.211   7.645   3.933  0.1650  1.6950  0.4914
 1167SOL     OW 4199   5.988   4.342   2.098  0.2369  0.4256 -0.2507
 1167SOL    HW1 4200   6.081   4.331   2.117  0.0864  1.5823  1.4287
 1167SOL    HW2 4201   5.943   4.297   2.169 -0.4908  0.1968 -0.8432
 1168SOL     OW 4202   1.007   5.247   1.262  0.2285  0.1990 -0.4861
 1168SOL    HW1 4203   0.965   5.170   1.225 -0.0081 -0.6539  1.4228
 1168SOL    HW2 4204   1.005   5.232   1.357  3.0581  1.0501 -0.2059
 1169SOL     OW 4205   0.464   4.309   5.569  0.1976  0.4152 -0.2473
 1169SOL    HW1 4206   0.485   4.217   5.556 -2.2136 -0.1047 -0.9469
 1169SOL    HW2 4207   0.385   4.309   5.622  0.8992  2.1618  0.9133
 1170SOL     OW 4208   4.794   4.978   2.349 -0.1310 -0.1550 -0.5640
 1170SOL    HW1 4209   4.838   4.893   2.359  0.6311  0.0319 -2.0847
 1170SOL    HW2 4210   4.754   4.995   2.435  0.1257 -1.8073 -0.0889
 1171SOL     OW 4211   1.752   6.811   4.110 -0.1594 -0.1918 -0.4421
 1171SOL    HW1 4212   1.834   6.860   4.106  0.4317 -0.7951  2.1236
 1171SOL    HW2 4213   1.694   6.855   4.049  0.8935  2.6015  0.4371
 1172SOL     OW 4214   0.429   2.018   0.440  0.6278  0.3125 -0.0656
 1172SOL    HW1 4215   0.487   1.986   0.371  1.1305  1.4871 -0.2160
 1172SOL    HW2 4216   0.487   2.045   0.510  0.6299  4.2833 -1.3448
 1173SOL     OW 4217   3.112   5.746   1.110  0.0560  0.4950 -0.4671
 1173SOL    HW1 4218   3.152   5.827   1.079  0.7625 -0.1391 -1.2860
 1173SOL    HW2 4219   3.183   5.700   1.155 -0.5387  0.6601  0.6845
 1174SOL     OW 4220   2.207   4.920   0.365  0.0549 -0.2441 -0.3399
 1174SOL    HW1 4221   2.263   4.992   0.334 -1.5939  0.3592 -2.1268
 1174SOL    HW2 4222   2.175   4.950   0.451  1.8810 -0.3236  0.4179
 1175SOL     OW 4223   3.398   2.741   6.007 -0.1343 -0.2881 -0.0047
 1175SOL    HW1 4224   3.491   2.760   5.999 -0.0171  0.1205  1.8108
 1175SOL    HW2 4225   3.393   2.646   6.015  0.1011 -0.3354 -0.4406
 1176SOL     OW 4226   1.714   1.298   1.767  0.3503 -0.5935  0.4217
 1176SOL    HW1 4227   1.661   1.373   1.795 -0.1450 -0.4127 -0.9381
 1176SOL    HW2 4228   1.676   1.223   1.813  0.5832 -0.0982  1.4678
 1177SOL     OW 4229   0.209   4.714   4.719 -0.7363  0.2477 -0.6533
 1177SOL    HW1 4230   0.117   4.738   4.716 -0.2376  2.1729 -2.2535
 1177SOL    HW2 4231   0.216   4.639   4.660 -1.4472 -0.7104  0.4372
 1178SOL     OW 4232   3.977   0.175   2.076  0.9237 -0.3041  0.6471
 1178SOL    HW1 4233   4.009   0.092   2.040  0.0742 -0.9238  1.2798
 1178SOL    HW2 4234   3.988   0.238   2.004 -0.8727 -1.5331 -0.7917
 1179SOL     OW 4235   2.294   3.745   3.823  0.4139 -0.0234 -0.1682
 1179SOL    HW1 4236   2.248   3.797   3.889  0.7616 -0.0384  0.0896
 1179SOL    HW2 4237   2.268   3.655   3.841 -0.2765  0.0673 -0.6853
 1180SOL     OW 4238   2.254   3.751   5.602  0.2604  0.0655 -0.2466
 1180SOL    HW1 4239   2.190   3.683   5.624 -0.1534  0.6207  0.2870
 1180SOL    HW2 4240   2.262   3.803   5.681 -1.6096  2.3866 -1.4563
 1181SOL     OW 4241   4.293   5.972   2.495 -0.1577 -0.0732 -0.3360
 1181SOL    HW1 4242   4.210   5.988   2.540  0.7902  0.0491  1.4442
 1181SOL    HW2 4243   4.279   6.008   2.407 -1.1982  2.1953  0.6712
 1182SOL     OW 4244   7.709   1.529   3.252 -0.1231  0.1229  0.2329
 1182SOL    HW1 4245   7.627   1.579   3.245 -0.4136 -0.2374  0.9195
 1182SOL    HW2 4246   7.713   1.480   3.170 -0.1715  0.7687 -0.1623
 1183SOL     OW 4247   1.557   4.004   4.673 -0.2161  0.7078 -0.2463
 1183SOL    HW1 4248   1.520   4.001   4.584 -1.5134  0.0461  0.2896
 1183SOL    HW2 4249   1.646   4.036   4.660 -0.8267  2.0156 -1.6403
 1184SOL     OW 4250   6.591   1.001   7.533  0.1976 -0.2412  0.3981
 1184SOL    HW1 4251   6.572   1.091   7.562  3.3836  0.6574  0.0942
 1184SOL    HW2 4252   6.552   0.995   7.446 -1.7207  0.1205  1.1810
 1185SOL     OW 4253   7.819   0.441   7.679  0.0852  0.1941 -0.6047
 1185SOL    HW1 4254   7.754   0.404   7.740  0.8044  1.8474  1.2709
 1185SOL    HW2 4255   7.902   0.400   7.705  0.6683  2.0774  0.6590
 1186SOL     OW 4256   6.769   4.573   5.778  0.0382  0.4946  0.1281
 1186SOL    HW1 4257   6.850   4.549   5.733  0.6938  2.0970  0.3446
 1186SOL    HW2 4258   6.702   4.576   5.710  0.1185 -0.9544 -0.0356
 1187SOL     OW 4259   1.595   4.949   1.200  0.1550 -0.4309 -0.6883
 1187SOL    HW1 4260   1.670   4.894   1.219 -0.2490 -0.8194 -0.1901
 1187SOL    HW2 4261   1.627   5.012   1.135  0.8174 -0.7867 -0.7133
 1188SOL     OW 4262   2.159   6.026   0.435  0.1276  0.8452  0.5755
 1188SOL    HW1 4263   2.092   6.017   0.503 -1.0519  1.8054 -0.3965
 1188SOL    HW2 4264   2.191   6.116   0.444  0.3840  0.7915  0.2418
 1189SOL     OW 4265   3.449   5.536   3.326 -0.8480  0.1302 -0.0964
 1189SOL    HW1 4266   3.470   5.627   3.348  3.2382 -0.5656 -0.3817
 1189SOL    HW2 4267   3.466   5.487   3.407  0.6147 -0.7350 -0.8751
 1190SOL     OW 4268   4.839   3.947   7.228  0.1720  0.7098  0.4580
 1190SOL    HW1 4269   4.885   4.026   7.200  1.9525 -0.7152 -0.8506
 1190SOL    HW2 4270   4.841   3.890   7.152 -1.1197 -0.6062  1.3595
 1191SOL     OW 4271   7.268   4.190   3.139  0.0789  0.4102 -0.0483
 1191SOL    HW1 4272   7.190   4.238   3.166 -0.0705  0.7457 -1.0423
 1191SOL    HW2 4273   7.339   4.254   3.144 -0.4151  1.3160 -3.1053
 1192SOL     OW 4274   5.641   4.229   7.971 -0.0636 -0.0955 -0.5117
 1192SOL    HW1 4275   5.551   4.246   8.001 -0.0634 -0.0200 -0.5518
 1192SOL    HW2 4276   5.664   4.307   7.920  0.6804  0.6913  0.9751
 1193SOL     OW 4277   1.529   1.946   6.695 -0.1263  0.1143 -0.0310
 1193SOL    HW1 4278   1.621   1.930   6.676 -0.0948 -0.3904  0.5310
 1193SOL    HW2 4279   1.530   2.009   6.767 -0.1797 -1.2234  1.1847
 1194SOL     OW 4280   6.182   3.499   5.706  0.5115 -0.4835  0.4548
 1194SOL    HW1 4281   6.275   3.504   5.683  0.7889 -0.7696  1.4438
 1194SOL    HW2 4282   6.181   3.509   5.802 -0.5092 -0.1072  0.4140
 1195SOL     OW 4283   2.216   6.483   2.035 -0.3343 -0.3123 -0.1134
 1195SOL    HW1 4284   2.161   6.498   1.958  0.6007  1.6399 -0.4506
 1195SOL    HW2 4285   2.207   6.563   2.087  0.8414 -0.6728  0.6794
 1196SOL     OW 4286   3.716   0.117   6.808 -0.5239  0.5189  0.1132
 1196SOL    HW1 4287   3.701   0.113   6.714  3.5735  0.1026 -0.6959
 1196SOL    HW2 4288   3.694   0.029   6.839 -1.6227  0.5719 -0.4486
 1197SOL     OW 4289   6.271   4.536   0.763  0.0376 -0.3549  0.3316
 1197SOL    HW1 4290   6.242   4.626   0.782 -1.7363 -1.3644  3.1053
 1197SOL    HW2 4291   6.314   4.508   0.844  0.5098 -2.0430 -0.4714
 1198SOL     OW 4292   1.904   7.761   1.021  0.4263 -0.2331 -0.3545
 1198SOL    HW1 4293   1.860   7.742   0.938 -0.6126  0.1175  0.0954
 1198SOL    HW2 4294   1.862   7.702   1.084  0.5486  0.1587  0.0984
 1199SOL     OW 4295   2.353   1.601   3.030 -0.4831 -0.6981 -0.2852
 1199SOL    HW1 4296   2.301   1.632   3.104  0.7697 -2.7270  1.5535
 1199SOL    HW2 4297   2.291   1.555   2.974 -1.0778 -1.1344  0.7110
 1200SOL     OW 4298   4.049   4.606   1.199 -0.0417 -0.0303  0.3069
 1200SOL    HW1 4299   4.094   4.558   1.130  0.5025 -0.7002  1.1016
 1200SOL    HW2 4300   3.958   4.612   1.169 -0.0276 -1.1758 -0.0257
 1201SOL     OW 4301   4.961   4.097   3.718  0.5339  0.3765  0.5362
 1201SOL    HW1 4302   4.975   4.042   3.795  2.0607  0.5359  0.4022
 1201SOL    HW2 4303   5.027   4.067   3.655 -2.1690 -1.4325 -1.7027
 1202SOL     OW 4304   7.164   4.385   1.092  0.0453  0.0213 -0.5631
 1202SOL    HW1 4305   7.182   4.459   1.034  1.5496  0.4722  0.4148
 1202SOL    HW2 4306   7.070   4.390   1.110 -0.3438  0.2132 -2.4463
 1203SOL     OW 4307   4.936   0.353   2.143 -0.2082 -0.3132 -0.1351
 1203SOL    HW1 4308   4.943   0.415   2.215  1.7043  0.2327 -0.7307
 1203SOL    HW2 4309   4.867   0.292   2.170  0.7379 -0.3911  2.3480
 1204SOL     OW 4310   4.713   4.527   6.294 -0.5553  0.0261 -0.1572
 1204SOL    HW1 4311   4.689   4.485   6.211 -0.6763 -0.7676  0.2678
 1204SOL    HW2 4312   4.766   4.602   6.268 -1.2855  0.2720 -0.9914
 1205SOL     OW 4313   4.764   0.527   3.165 -0.0733 -0.3377 -0.2768
 1205SOL    HW1 4314   4.738   0.555   3.078 -1.4259  0.8883  0.4804
 1205SOL    HW2 4315   4.797   0.606   3.208 -1.0069 -0.5337  0.8602
 1206SOL     OW 4316   6.042   1.474   0.660  0.2908 -0.0652  0.2258
 1206SOL    HW1 4317   6.126   1.504   0.627 -0.1965  0.2526 -0.7673
 1206SOL    HW2 4318   5.987   1.552   0.659  0.4349  0.1333  2.4823
 1207SOL     OW 4319   7.132   5.034   4.130  0.4916  0.4226  0.2691
 1207SOL    HW1 4320   7.190   5.103   4.163  1.2696  0.3351 -0.8280
 1207SOL    HW2 4321   7.122   4.974   4.203 -0.2723  1.7244  1.2795
 1208SOL     OW 4322   4.492   7.271   7.053  0.4621 -0.4215 -0.8162
 1208SOL    HW1 4323   4.524   7.244   6.967  0.6004  2.0238 -1.6120
 1208SOL    HW2 4324   4.554   7.338   7.082 -0.9181  0.5252  0.0760
 1209SOL     OW 4325   6.210   6.973   7.510 -0.6211  0.3544 -0.2333
 1209SOL    HW1 4326   6.158   6.993   7.432 -1.5532  1.7717  0.7097
 1209SOL    HW2 4327   6.151   6.923   7.566 -0.7796  1.4227  0.5746
 1210SOL     OW 4328   7.392   2.327   6.160  0.2186  0.3460 -0.5842
 1210SOL    HW1 4329   7.355   2.299   6.076 -0.7578 -1.3169  0.3583
 1210SOL    HW2 4330   7.459   2.262   6.180 -1.0941 -0.6146  0.9556
 1211SOL     OW 4331   4.032   2.269   7.414 -0.4142 -0.2192  0.0311
 1211SOL    HW1 4332   3.956   2.225   7.450 -0.9203 -1.2003 -2.0461
 1211SOL    HW2 4333   4.008   2.287   7.323  1.3901  0.5550 -0.3420
 1212SOL     OW 4334   4.071   5.810   1.570  0.7740 -0.7282  0.1872
 1212SOL    HW1 4335   4.137   5.864   1.528 -1.2629  1.3232 -0.5883
 1212SOL    HW2 4336   4.012   5.872   1.612 -1.1461 -2.4025  0.1405
 1213SOL     OW 4337   6.142   5.195   3.146 -1.0286  0.4445 -0.4849
 1213SOL    HW1 4338   6.134   5.102   3.126  1.9567 -0.0048  0.0168
 1213SOL    HW2 4339   6.102   5.204   3.233 -0.2632 -0.6302 -0.0055
 1214SOL     OW 4340   3.257   6.488   2.302  0.5341 -0.0902 -0.0925
 1214SOL    HW1 4341   3.311   6.455   2.230  1.3921  0.2661  0.3804
 1214SOL    HW2 4342   3.251   6.583   2.285  2.4084  0.3362  1.3650
 1215SOL     OW 4343   4.249   6.188   7.221 -0.0589  0.1122  0.1135
 1215SOL    HW1 4344   4.272   6.132   7.295  1.1007  0.7654  0.2773
 1215SOL    HW2 4345   4.242   6.276   7.259  2.0806  0.7320 -0.7464
 1216SOL     OW 4346   0.792   4.804   6.741  0.1327  0.0251  0.5026
 1216SOL    HW1 4347   0.822   4.721   6.778 -0.2237  0.5439  2.0180
 1216SOL    HW2 4348   0.720   4.780   6.682  0.7479 -0.8246  0.0731
 1217SOL     OW 4349   6.881   3.178   3.514 -0.0438  0.1609 -0.7464
 1217SOL    HW1 4350   6.932   3.235   3.573  1.3295 -0.3348 -1.4209
 1217SOL    HW2 4351   6.823   3.130   3.573  1.0361 -0.0498  0.1856
 1218SOL     OW 4352   4.186   3.892   6.413  0.0749 -0.9263 -0.3411
 1218SOL    HW1 4353   4.103   3.904   6.366  0.6446  1.3870 -0.8489
 1218SOL    HW2 4354   4.188   3.962   6.478  1.8227 -0.6284 -0.6558
 1219SOL     OW 4355   1.472   4.593   5.283 -0.0519  0.1638  0.1715
 1219SOL    HW1 4356   1.452   4.584   5.190  0.1204 -2.1025  0.3122
 1219SOL    HW2 4357   1.543   4.658   5.286 -1.1277  1.4769 -1.0856
 1220SOL     OW 4358   1.559   2.019   1.335  0.1769  0.3650  0.4900
 1220SOL    HW1 4359   1.489   2.022   1.400  1.3217  1.2474  1.7376
 1220SOL    HW2 4360   1.634   1.982   1.382  1.4872  2.4458  0.1924
 1221SOL     OW 4361   3.801   1.860   5.081 -0.1346  0.4796  0.4734
 1221SOL    HW1 4362   3.860   1.806   5.030 -2.2418 -1.5627  0.0682
 1221SOL    HW2 4363   3.838   1.859   5.169  0.6810 -0.3575  0.1330
 1222SOL     OW 4364   1.078   5.045   7.462  0.0219 -0.2817 -0.1132
 1222SOL    HW1 4365   1.033   4.976   7.510 -1.0209 -1.1368 -2.1910
 1222SOL    HW2 4366   1.015   5.074   7.397  1.6861  0.0627 -1.6602
 1223SOL     OW 4367   3.573   7.560   1.342  0.3561 -0.1148  0.4167
 1223SOL    HW1 4368   3.661   7.579   1.309  0.2251  1.1581  0.7581
 1223SOL    HW2 4369   3.581   7.569   1.437 -0.2624  0.5624  0.4121
 1224SOL     OW 4370   2.571   4.187   7.453 -0.2001  0.0960 -0.4239
 1224SOL    HW1 4371   2.634   4.118   7.431  0.8012  1.0865 -0.7879
 1224SOL    HW2 4372   2.626   4.260   7.482 -1.2433  0.6910  0.0901
 1225SOL     OW 4373   3.216   1.152   7.279  0.1132  0.3813 -0.2102
 1225SOL    HW1 4374   3.216   1.163   7.184 -0.0927 -0.0170 -0.2568
 1225SOL    HW2 4375   3.302   1.186   7.307  0.3903  0.0102 -0.5946
 1226SOL     OW 4376   5.180   2.904   7.762 -0.8267  0.2023  0.6772
 1226SOL    HW1 4377   5.251   2.966   7.744 -0.3778 -0.0039  1.6751
 1226SOL    HW2 4378   5.222   2.833   7.812 -1.7135  0.0461  1.2215
 1227SOL     OW 4379   0.597   0.374   2.617 -0.6402  0.2231 -0.0614
 1227SOL    HW1 4380   0.557   0.290   2.594  1.1427 -0.7639  0.2708
 1227SOL    HW2 4381   0.533   0.415   2.675 -2.4080  0.0009 -1.7438
 1228SOL     OW 4382   5.435   1.445   2.832  0.8712  0.3674  0.3763
 1228SOL    HW1 4383   5.401   1.410   2.750 -0.8921 -0.6556  1.4840
 1228SOL    HW2 4384   5.482   1.372   2.872  0.5266  0.4217  0.8998
 1229SOL     OW 4385   1.409   6.004   5.089 -0.0908 -0.0999  0.8655
 1229SOL    HW1 4386   1.484   6.053   5.121 -0.5496 -0.0806  1.9441
 1229SOL    HW2 4387   1.410   5.922   5.138 -0.7587 -0.1039  0.8899
 1230SOL     OW 4388   1.573   7.116   3.665 -0.1639 -0.2587 -0.7835
 1230SOL    HW1 4389   1.654   7.123   3.615  0.0836 -1.9079 -0.6806
 1230SOL    HW2 4390   1.602   7.115   3.757 -0.4589  0.8391 -0.6637
 1231SOL     OW 4391   2.552   3.726   1.891 -0.0618  0.4914  0.1038
 1231SOL    HW1 4392   2.589   3.667   1.824  1.6146  0.6806  0.8245
 1231SOL    HW2 4393   2.474   3.680   1.922  0.3752 -0.6531 -0.4217
 1232SOL     OW 4394   3.497   2.971   1.499  0.3180 -0.1303  0.2578
 1232SOL    HW1 4395   3.414   2.967   1.451  0.8672  0.8502 -0.8335
 1232SOL    HW2 4396   3.501   2.888   1.546 -0.4943 -0.9486 -1.0337
 1233SOL     OW 4397   3.660   7.662   6.028  0.0724 -0.7792 -0.1659
 1233SOL    HW1 4398   3.683   7.570   6.015 -0.0936 -1.0287  1.2050
 1233SOL    HW2 4399   3.745   7.706   6.042  0.1948 -0.6200 -1.3066
 1234SOL     OW 4400   4.284   5.559   1.226  0.4869 -0.0146 -0.0332
 1234SOL    HW1 4401   4.291   5.506   1.147  0.8030  0.3765 -0.2695
 1234SOL    HW2 4402   4.190   5.566   1.242  0.2909  1.5748 -1.5304
 1235SOL     OW 4403   7.122   1.550   4.601  0.7832  0.3489  0.0845
 1235SOL    HW1 4404   7.201   1.512   4.639  0.0445 -0.0605  1.2858
 1235SOL    HW2 4405   7.103   1.626   4.657  0.1491  0.2378  0.0260
 1236SOL     OW 4406   7.525   3.138   6.122  0.3076  0.0463  0.3859
 1236SOL    HW1 4407   7.441   3.106   6.089  0.3116  0.0014  0.4185
 1236SOL    HW2 4408   7.526   3.112   6.215  0.1849  0.3936  0.4862
 1237SOL     OW 4409   3.621   3.106   3.085 -0.2421 -0.1722 -0.3321
 1237SOL    HW1 4410   3.710   3.088   3.055 -0.1455  0.0948 -0.2060
 1237SOL    HW2 4411   3.623   3.090   3.179  0.0466  1.2228 -0.0737
 1238SOL     OW 4412   2.431   7.118   4.886 -0.3571  0.0926  0.5441
 1238SOL    HW1 4413   2.465   7.033   4.859  0.1646  0.2788  0.6069
 1238SOL    HW2 4414   2.502   7.179   4.868 -1.8989  1.1279 -2.8383
 1239SOL     OW 4415   2.790   1.129   6.472  0.1671  0.2188 -0.2247
 1239SOL    HW1 4416   2.711   1.104   6.521  0.0267 -0.9503 -1.0102
 1239SOL    HW2 4417   2.861   1.085   6.518  0.1336 -0.2220 -0.5914
 1240SOL     OW 4418   5.500   6.776   6.858 -0.2283 -0.1673 -0.2685
 1240SOL    HW1 4419   5.436   6.845   6.842  1.5142  1.1017 -2.2044
 1240SOL    HW2 4420   5.472   6.703   6.802 -0.2454  0.1977 -0.7328
 1241SOL     OW 4421   5.658   5.374   0.463 -0.6099 -0.5245 -0.0257
 1241SOL    HW1 4422   5.726   5.392   0.527 -1.0381 -1.3636  0.6838
 1241SOL    HW2 4423   5.576   5.395   0.507 -0.7858  2.4768 -1.5485
 1242SOL     OW 4424   7.747   2.321   3.794  0.4841  0.1426 -0.2356
 1242SOL    HW1 4425   7.679   2.388   3.802 -1.2750 -1.6792  0.6806
 1242SOL    HW2 4426   7.746   2.298   3.701 -0.3840 -0.0974 -0.1722
 1243SOL     OW 4427   1.105   1.351   5.491 -0.0140  0.6374 -0.1078
 1243SOL    HW1 4428   1.145   1.436   5.474  2.0177 -0.3713 -0.6832
 1243SOL    HW2 4429   1.054   1.332   5.412 -2.3860  2.2649  0.9292
 1244SOL     OW 4430   6.069   2.244   5.123  0.1121 -0.0861 -0.2378
 1244SOL    HW1 4431   6.059   2.309   5.192 -0.6419 -1.0604  0.6049
 1244SOL    HW2 4432   5.986   2.245   5.077 -0.6760 -1.8028  1.0332
 1245SOL     OW 4433   6.189   0.348   5.611  0.1004 -0.1519  0.0161
 1245SOL    HW1 4434   6.144   0.363   5.695 -0.5578 -0.9968 -0.1798
 1245SOL    HW2 4435   6.121   0.315   5.553  0.5988  0.2450 -0.8067
 1246SOL     OW 4436   4.437   1.291   7.619 -0.0898 -0.1230 -0.2032
 1246SOL    HW1 4437   4.493   1.251   7.551  1.5719  2.4095 -0.4694
 1246SOL    HW2 4438   4.362   1.326   7.570 -0.3493 -0.7992 -0.3006
 1247SOL     OW 4439   1.680   7.742   4.346 -0.3626  0.6078 -0.4479
 1247SOL    HW1 4440   1.689   7.800   4.271 -2.4499 -0.3436 -1.5174
 1247SOL    HW2 4441   1.596   7.697   4.332  0.2951 -1.3119  1.2592
 1248SOL     OW 4442   7.016   5.794   0.847  0.1324  0.5207 -0.0947
 1248SOL    HW1 4443   7.026   5.700   0.859  2.2574  0.4366 -1.9691
 1248SOL    HW2 4444   7.023   5.830   0.936  1.3104 -0.9502  0.4494
 1249SOL     OW 4445   2.480   4.064   6.392 -0.5420 -0.3905  0.2132
 1249SOL    HW1 4446   2.419   4.094   6.459 -0.3693  0.0380  0.1752
 1249SOL    HW2 4447   2.500   3.973   6.416 -0.3587 -0.1870  0.8224
 1250SOL     OW 4448   4.229   2.287   5.524  0.3053 -0.3394  0.3298
 1250SOL    HW1 4449   4.298   2.239   5.570  0.3104 -0.0902  0.5812
 1250SOL    HW2 4450   4.275   2.331   5.452  0.5037  0.2617  0.8131
 1251SOL     OW 4451   1.994   7.200   6.729 -0.0299 -0.6747 -0.5197
 1251SOL    HW1 4452   1.929   7.262   6.696  2.1892  1.7454 -0.6806
 1251SOL    HW2 4453   2.009   7.140   6.655 -2.8141 -2.0685 -0.0822
 1252SOL     OW 4454   7.123   1.595   1.750 -0.2321  0.3806 -0.6812
 1252SOL    HW1 4455   7.185   1.548   1.806  1.1797  1.9993 -0.7650
 1252SOL    HW2 4456   7.049   1.536   1.740  1.2650 -1.6373 -0.5102
 1253SOL     OW 4457   1.244   2.607   3.167 -0.0096 -0.2698 -0.2327
 1253SOL    HW1 4458   1.216   2.519   3.193 -0.3437 -0.2044 -0.3752
 1253SOL    HW2 4459   1.323   2.623   3.219  1.3070 -1.5047 -1.7374
 1254SOL     OW 4460   1.616   7.778   1.164  0.0714 -0.0132  0.6268
 1254SOL    HW1 4461   1.532   7.800   1.124  0.0114 -0.4012  0.5258
 1254SOL    HW2 4462   1.627   7.685   1.144 -0.4032 -0.4622  2.3392
 1255SOL     OW 4463   2.568   6.084   3.895 -0.4335  0.0964 -0.6470
 1255SOL    HW1 4464   2.501   6.064   3.829 -1.3645 -1.4292  0.6858
 1255SOL    HW2 4465   2.642   6.029   3.871 -0.4373  0.1903 -0.8863
 1256SOL     OW 4466   4.806   1.900   2.044  0.9040 -0.0566 -0.1485
 1256SOL    HW1 4467   4.866   1.902   2.118 -0.4558  1.0758  0.9764
 1256SOL    HW2 4468   4.806   1.990   2.011 -0.3929  0.0396  0.0716
 1257SOL     OW 4469   0.145   7.212   6.549 -0.2399  0.4493  1.0425
 1257SOL    HW1 4470   0.234   7.246   6.536 -0.0663 -0.6018 -0.7431
 1257SOL    HW2 4471   0.157   7.134   6.604  0.0591 -0.1606  0.1320
 1258SOL     OW 4472   3.968   7.041   2.235 -0.1299 -0.2296 -0.1160
 1258SOL    HW1 4473   3.907   7.055   2.162 -0.2249  0.0898  0.0225
 1258SOL    HW2 4474   3.912   7.035   2.312  0.0083 -0.0226  0.0006
 1259SOL     OW 4475   0.089   0.307   7.682  0.3030  0.1065 -0.3143
 1259SOL    HW1 4476   0.167   0.314   7.737  0.3218 -0.1360 -0.3052
 1259SOL    HW2 4477   0.079   0.212   7.668 -0.5467  0.0606  0.4986
 1260SOL     OW 4478   6.041   4.258   2.807 -0.0940 -0.1981 -0.0280
 1260SOL    HW1 4479   6.121   4.215   2.776  0.8262  1.1256  0.4096
 1260SOL    HW2 4480   6.025   4.328   2.744 -1.1515 -0.6890 -0.3297
 1261SOL     OW 4481   1.991   2.602   4.939 -0.5514 -0.1234 -0.5050
 1261SOL    HW1 4482   2.077   2.559   4.939 -0.9429 -0.9869  0.9305
 1261SOL    HW2 4483   2.010   2.695   4.952  0.1540 -0.3420  0.0534
 1262SOL     OW 4484   3.321   1.189   7.935 -0.3520 -0.0325 -0.3771
 1262SOL    HW1 4485   3.389   1.154   7.993  0.5650  0.0058 -1.3930
 1262SOL    HW2 4486   3.370   1.235   7.867 -1.4151  0.1169 -1.0528
 1263SOL     OW 4487   3.726   3.888   1.861  0.0473  0.2044  0.5013
 1263SOL    HW1 4488   3.734   3.982   1.880  0.7313  0.2189  0.1831
 1263SOL    HW2 4489   3.661   3.856   1.923  0.4711  0.7202  1.2290
 1264SOL     OW 4490   4.958   1.085   6.898  0.3608  0.0544  0.0789
 1264SOL    HW1 4491   5.012   1.079   6.819  0.1944  0.4685 -0.0692
 1264SOL    HW2 4492   5.020   1.107   6.968  0.5323 -0.4797  0.0961
 1265SOL     OW 4493   2.994   6.254   0.103 -0.0473  0.1504 -0.5004
 1265SOL    HW1 4494   3.084   6.285   0.116 -0.5704  1.5720 -0.0402
 1265SOL    HW2 4495   2.948   6.330   0.068 -1.0874 -0.5452 -0.6834
 1266SOL     OW 4496   4.509   0.433   2.079 -0.4547 -0.5038 -0.2130
 1266SOL    HW1 4497   4.537   0.425   2.170 -0.5376 -0.0346 -0.1419
 1266SOL    HW2 4498   4.567   0.498   2.041  1.7034 -2.9461 -1.3983
 1267SOL     OW 4499   5.499   2.706   1.892 -0.4172 -0.0354 -0.7180
 1267SOL    HW1 4500   5.501   2.733   1.801  1.4372  1.2138 -0.3415
 1267SOL    HW2 4501   5.483   2.786   1.941 -2.5759 -0.8588  0.0507
 1268SOL     OW 4502   3.221   0.439   0.293  0.3613 -0.3971 -0.2727
 1268SOL    HW1 4503   3.182   0.361   0.332  1.3110  0.1138  1.8664
 1268SOL    HW2 4504   3.157   0.508   0.309 -0.0615 -0.5226 -1.3302
 1269SOL     OW 4505   6.084   4.865   1.611 -0.7692 -0.1652 -0.6466
 1269SOL    HW1 4506   6.015   4.910   1.562 -0.8943 -1.8465 -2.1239
 1269SOL    HW2 4507   6.146   4.836   1.544  1.1448  0.8461  0.5967
 1270SOL     OW 4508   4.261   4.034   2.242 -0.3545  0.0493  0.6371
 1270SOL    HW1 4509   4.265   4.017   2.336  0.1147 -0.7792  0.4739
 1270SOL    HW2 4510   4.217   3.958   2.206  0.4458 -0.1455  0.0562
 1271SOL     OW 4511   5.386   1.804   7.962 -0.3243  0.2641 -0.5860
 1271SOL    HW1 4512   5.417   1.734   7.905 -1.4846 -1.0304  0.3305
 1271SOL    HW2 4513   5.341   1.865   7.903  1.0583  0.4967 -1.4470
 1272SOL     OW 4514   5.840   5.058   1.724 -0.0297  0.7468  0.4237
 1272SOL    HW1 4515   5.811   4.998   1.793  0.2466 -0.6650 -0.6252
 1272SOL    HW2 4516   5.929   5.083   1.751  0.5193 -0.6930  0.0647
 1273SOL     OW 4517   6.805   0.887   4.449 -0.0978  0.5578  0.5542
 1273SOL    HW1 4518   6.757   0.847   4.521 -1.6048  0.2994 -0.5388
 1273SOL    HW2 4519   6.840   0.813   4.399 -1.4426  0.5903 -0.5113
 1274SOL     OW 4520   1.152   0.779   3.209 -0.5585 -0.5285  0.6178
 1274SOL    HW1 4521   1.123   0.710   3.150  2.4105 -0.7370 -0.7565
 1274SOL    HW2 4522   1.235   0.748   3.245  1.9042  2.8352 -1.4445
 1275SOL     OW 4523   1.584   4.307   4.739 -0.7196  0.2941 -0.5019
 1275SOL    HW1 4524   1.578   4.250   4.816 -0.5111  1.6376  0.5508
 1275SOL    HW2 4525   1.666   4.355   4.750 -1.4968  1.7355 -0.6527
 1276SOL     OW 4526   7.000   6.416   0.670 -0.4225 -0.1173  0.5161
 1276SOL    HW1 4527   7.094   6.397   0.670 -0.4832 -0.4260  0.4966
 1276SOL    HW2 4528   6.966   6.368   0.594 -0.5811  0.0675  0.4702
 1277SOL     OW 4529   3.664   0.279   4.551 -0.2003 -0.2671 -0.2905
 1277SOL    HW1 4530   3.757   0.295   4.535 -0.0944 -1.9142 -1.5366
 1277SOL    HW2 4531   3.639   0.346   4.615  1.4886  1.1136 -0.9979
 1278SOL     OW 4532   6.914   1.442   4.793 -0.2205 -0.0647  0.0434
 1278SOL    HW1 4533   6.854   1.414   4.724  0.9902 -0.2526 -0.9665
 1278SOL    HW2 4534   6.993   1.469   4.747  0.3740  0.4742  1.3211
 1279SOL     OW 4535   0.263   3.702   2.986  0.3063 -0.2121 -0.0102
 1279SOL    HW1 4536   0.347   3.709   3.031  1.2378  0.0173 -1.6805
 1279SOL    HW2 4537   0.274   3.628   2.926 -0.9033 -0.5591  0.1689
 1280SOL     OW 4538   5.703   6.118   2.096 -0.1473  0.0181 -0.0608
 1280SOL    HW1 4539   5.723   6.208   2.122  0.3174 -0.1686  0.2326
 1280SOL    HW2 4540   5.759   6.103   2.019  0.7967 -0.4770  0.7102
 1281SOL     OW 4541   6.808   2.595   3.964  0.1405  0.2090 -0.5397
 1281SOL    HW1 4542   6.828   2.663   4.028 -0.2275  0.1967 -0.4129
 1281SOL    HW2 4543   6.727   2.624   3.923 -0.2216 -0.3423 -0.2235
 1282SOL     OW 4544   3.212   1.668   5.836 -0.1285 -0.2819 -0.1130
 1282SOL    HW1 4545   3.173   1.582   5.817 -0.2954 -0.1308 -0.4719
 1282SOL    HW2 4546   3.211   1.674   5.932  1.1261 -1.2415 -0.0219
 1283SOL     OW 4547   6.473   5.849   0.900 -0.6515  0.6782 -0.2057
 1283SOL    HW1 4548   6.505   5.912   0.836 -0.3437 -0.4044 -1.1606
 1283SOL    HW2 4549   6.403   5.895   0.947 -0.6543  1.6087 -1.0979
 1284SOL     OW 4550   0.823   2.427   1.480 -0.2219 -0.0634 -0.1475
 1284SOL    HW1 4551   0.798   2.355   1.537 -0.7734 -0.5450 -0.9675
 1284SOL    HW2 4552   0.742   2.452   1.436 -0.0279  1.0418  0.1012
 1285SOL     OW 4553   1.455   4.826   0.449 -0.2284 -0.8551  0.3342
 1285SOL    HW1 4554   1.396   4.897   0.474  0.8219  0.4543 -0.7564
 1285SOL    HW2 4555   1.408   4.747   0.474 -3.5561 -0.0430 -2.4704
 1286SOL     OW 4556   6.794   4.863   0.538  0.2866 -0.4688  1.2531
 1286SOL    HW1 4557   6.842   4.820   0.467 -0.2123  0.4527  0.3366
 1286SOL    HW2 4558   6.849   4.848   0.615  1.9646  0.3559  0.2932
 1287SOL     OW 4559   5.622   0.395   7.814 -0.4925 -0.4277  0.0525
 1287SOL    HW1 4560   5.629   0.302   7.837 -1.5207 -0.4006  0.5535
 1287SOL    HW2 4561   5.609   0.394   7.719  1.9180 -0.6387 -0.3334
 1288SOL     OW 4562   5.146   4.727   5.886  0.3195  0.4061  0.1229
 1288SOL    HW1 4563   5.084   4.676   5.938 -0.6666  0.8991 -0.5595
 1288SOL    HW2 4564   5.117   4.717   5.796  0.6019  1.5010 -0.1064
 1289SOL     OW 4565   2.591   1.633   2.690  0.4985  0.6656 -0.7203
 1289SOL    HW1 4566   2.618   1.637   2.782 -1.5496 -2.9857  0.2733
 1289SOL    HW2 4567   2.661   1.584   2.647 -1.1892 -3.1922  0.4700
 1290SOL     OW 4568   2.105   0.076   7.816 -0.3006  0.6143 -0.6654
 1290SOL    HW1 4569   2.062   0.146   7.766  1.6383  0.8951 -2.0677
 1290SOL    HW2 4570   2.196   0.080   7.788 -0.1098 -2.5154 -0.8127
 1291SOL     OW 4571   4.967   2.151   0.631  0.3221 -0.4724 -0.3115
 1291SOL    HW1 4572   5.006   2.187   0.711  0.2521  3.4571 -1.8191
 1291SOL    HW2 4573   4.873   2.171   0.640 -0.3616 -3.4149  0.1413
 1292SOL     OW 4574   7.478   1.822   5.728 -0.1813 -0.7024 -0.5331
 1292SOL    HW1 4575   7.467   1.905   5.682 -1.8186 -0.8500 -0.4611
 1292SOL    HW2 4576   7.454   1.841   5.819  1.3227 -0.8244 -0.0859
 1293SOL     OW 4577   4.146   5.130   6.190  0.2605  0.1515  0.4810
 1293SOL    HW1 4578   4.068   5.179   6.215  0.4886 -0.1926  1.9875
 1293SOL    HW2 4579   4.186   5.182   6.120 -0.7354  0.9010  0.4516
 1294SOL     OW 4580   6.493   7.021   4.478 -0.1936  0.0515 -0.2565
 1294SOL    HW1 4581   6.561   7.011   4.412 -2.6274 -0.2100 -2.9246
 1294SOL    HW2 4582   6.437   6.945   4.467 -3.0589  2.0867 -0.9546
 1295SOL     OW 4583   1.080   1.901   3.244  0.4429  0.1123  0.4260
 1295SOL    HW1 4584   1.111   1.990   3.265  0.7822 -0.1781  1.1776
 1295SOL    HW2 4585   0.986   1.911   3.230  0.7992  1.0085 -1.8664
 1296SOL     OW 4586   0.250   0.249   3.047 -0.7156 -0.3448  0.4259
 1296SOL    HW1 4587   0.186   0.196   3.095  1.1328 -1.1800  2.0771
 1296SOL    HW2 4588   0.320   0.266   3.109  1.2670 -0.4958 -1.6279
 1297SOL     OW 4589   6.954   4.829   5.543  0.5084 -0.2085  0.4900
 1297SOL    HW1 4590   6.999   4.745   5.530 -0.6523 -0.8572  0.5714
 1297SOL    HW2 4591   6.910   4.820   5.627 -0.4026  0.1200  0.0562
 1298SOL     OW 4592   7.288   6.441   6.635  0.5123 -0.2997  0.0943
 1298SOL    HW1 4593   7.248   6.440   6.548  1.7606  1.2669 -0.5385
 1298SOL    HW2 4594   7.360   6.380   6.630  0.8224  0.0804 -0.0987
 1299SOL     OW 4595   5.532   4.279   5.149  0.1646  0.6480 -0.3033
 1299SOL    HW1 4596   5.625   4.281   5.126  0.5981 -0.6594  1.1236
 1299SOL    HW2 4597   5.518   4.358   5.200  0.6396  0.5876 -0.0715
 1300SOL     OW 4598   1.781   0.898   7.730 -0.2708 -0.4336 -0.1864
 1300SOL    HW1 4599   1.817   0.864   7.812 -0.6966  0.1876  0.2590
 1300SOL    HW2 4600   1.799   0.992   7.732  0.2431 -0.5034 -1.0799
 1301SOL     OW 4601   0.502   1.144   2.960 -0.0734 -0.0541  0.3883
 1301SOL    HW1 4602   0.533   1.058   2.932  1.2834  0.6830 -0.4659
 1301SOL    HW2 4603   0.442   1.172   2.890 -0.0796 -0.0732  0.3859
 1302SOL     OW 4604   5.165   3.691   0.848  0.0299 -0.0124 -0.3755
 1302SOL    HW1 4605   5.177   3.606   0.805 -1.6901 -1.3531  1.5885
 1302SOL    HW2 4606   5.216   3.685   0.928 -0.0832  0.8386 -0.2349
 1303SOL     OW 4607   2.162   4.660   6.934 -0.3018  0.5463 -0.7423
 1303SOL    HW1 4608   2.111   4.622   6.863  1.1980 -2.1163 -0.5284
 1303SOL    HW2 4609   2.137   4.610   7.011  0.4812  1.1897 -0.0457
 1304SOL     OW 4610   0.713   7.705   4.631  0.0538  0.4806 -0.5053
 1304SOL    HW1 4611   0.714   7.611   4.611 -1.4773  0.6968 -1.8924
 1304SOL    HW2 4612   0.797   7.738   4.598  0.9593 -0.5117  0.7427
 1305SOL     OW 4613   1.282   7.517   3.208  0.0275  0.4358 -0.1818
 1305SOL    HW1 4614   1.365   7.549   3.242  0.6039  1.2422 -2.2170
 1305SOL    HW2 4615   1.284   7.423   3.225  1.2751  0.4747 -0.0509
 1306SOL     OW 4616   7.838   3.371   4.355 -0.0220 -0.1874 -0.5177
 1306SOL    HW1 4617   7.872   3.459   4.372  0.4408 -0.1315 -1.6508
 1306SOL    HW2 4618   7.908   3.313   4.384 -0.4872 -0.2068  0.5978
 1307SOL     OW 4619   6.158   6.159   7.756 -0.0007 -0.4829  0.3203
 1307SOL    HW1 4620   6.239   6.116   7.783  1.3623 -1.1604 -4.0258
 1307SOL    HW2 4621   6.178   6.252   7.758  0.3661 -0.5642  0.6643
 1308SOL     OW 4622   0.283   5.392   3.401 -0.0463 -0.3375  0.3460
 1308SOL    HW1 4623   0.189   5.388   3.417 -0.1660 -1.7830 -0.5720
 1308SOL    HW2 4624   0.320   5.322   3.456  0.5253  0.3394  0.8426
 1309SOL     OW 4625   0.904   1.958   2.614  0.0031 -0.5737 -0.3715
 1309SOL    HW1 4626   0.886   1.879   2.665  0.1532 -0.6246 -0.3978
 1309SOL    HW2 4627   0.818   1.999   2.603 -0.1499 -1.0126 -0.8279
 1310SOL     OW 4628   3.967   4.797   2.819 -0.6113 -0.4360 -0.6244
 1310SOL    HW1 4629   3.880   4.826   2.846 -0.9225 -0.8588 -1.1718
 1310SOL    HW2 4630   3.994   4.735   2.888 -0.9060 -0.6065 -0.6621
 1311SOL     OW 4631   3.486   1.052   7.074 -0.0720  0.0177  0.2642
 1311SOL    HW1 4632   3.523   1.134   7.106  1.4361 -0.7341  0.5794
 1311SOL    HW2 4633   3.392   1.068   7.066  0.1625  1.6709  0.5792
 1312SOL     OW 4634   0.604   3.059   6.824  0.2070  0.2784 -0.4002
 1312SOL    HW1 4635   0.563   3.142   6.797  0.4322  0.4758 -0.1477
 1312SOL    HW2 4636   0.597   3.060   6.920 -2.0278 -1.1420 -0.4763
 1313SOL     OW 4637   0.022   7.321   5.098  0.0503 -0.2270  0.2521
 1313SOL    HW1 4638  -0.022   7.326   5.013  0.7723 -0.7253 -0.1586
 1313SOL    HW2 4639  -0.049   7.304   5.160 -0.4474 -0.1659 -0.2866
 1314SOL     OW 4640   6.846   5.470   1.812 -0.1245 -0.2381 -0.6938
 1314SOL    HW1 4641   6.915   5.464   1.747  0.0633 -0.2204 -0.4978
 1314SOL    HW2 4642   6.892   5.473   1.896 -0.1666  3.1264 -0.6452
 1315SOL     OW 4643   1.860   0.795   0.950 -0.1697  0.1274 -0.2290
 1315SOL    HW1 4644   1.954   0.780   0.959 -0.1689 -0.0951 -0.5657
 1315SOL    HW2 4645   1.822   0.707   0.954 -0.2134  0.0481 -1.7505
 1316SOL     OW 4646   6.620   7.422   0.414  0.2691  0.6558  0.2761
 1316SOL    HW1 4647   6.681   7.467   0.356 -0.4659  1.1084 -0.1584
 1316SOL    HW2 4648   6.576   7.359   0.357  0.2446  0.4076  0.5660
 1317SOL     OW 4649   0.199   1.252   6.055 -0.0214  0.4036 -0.2614
 1317SOL    HW1 4650   0.128   1.196   6.024 -1.0102  1.0061  0.8260
 1317SOL    HW2 4651   0.155   1.323   6.101  1.2889  0.8982  0.2767
 1318SOL     OW 4652   6.963   5.634   4.156 -0.0189 -0.2205  0.3873
 1318SOL    HW1 4653   6.877   5.595   4.171  0.2228  0.2547  3.5622
 1318SOL    HW2 4654   6.990   5.668   4.241  1.7267  2.9958 -1.2685
 1319SOL     OW 4655   2.048   5.135   4.375 -0.4065 -0.0319  0.4065
 1319SOL    HW1 4656   2.090   5.220   4.362 -0.2193 -0.1543  0.2098
 1319SOL    HW2 4657   2.120   5.073   4.376 -0.4509 -0.0908  1.5265
 1320SOL     OW 4658   1.323   7.774   2.099  0.5491  0.4123  0.1291
 1320SOL    HW1 4659   1.416   7.790   2.084  1.1975 -0.5087  2.6969
 1320SOL    HW2 4660   1.283   7.861   2.100  1.3009  0.7970 -1.2695
 1321SOL     OW 4661   0.877   6.389   3.980 -0.3737  0.3968  0.1289
 1321SOL    HW1 4662   0.920   6.315   3.939  0.0766  0.4593  0.4739
 1321SOL    HW2 4663   0.901   6.382   4.073 -1.6693  0.0422  0.4549
 1322SOL     OW 4664   3.396   3.579   7.289  0.2867 -0.2859  0.2418
 1322SOL    HW1 4665   3.485   3.545   7.283  1.1664  1.6246  1.3908
 1322SOL    HW2 4666   3.363   3.545   7.373  0.7937  0.7644  0.8957
 1323SOL     OW 4667   5.723   6.528   5.333 -0.2737  0.6771 -0.2155
 1323SOL    HW1 4668   5.768   6.492   5.409 -1.6854 -0.4827  0.1202
 1323SOL    HW2 4669   5.742   6.467   5.262 -1.9006 -0.2776  0.1213
 1324SOL     OW 4670   3.838   0.191   3.701  0.3873  0.4085  0.4502
 1324SOL    HW1 4671   3.793   0.273   3.680  0.7025  0.4359 -0.1416
 1324SOL    HW2 4672   3.886   0.210   3.782  2.0498  1.4451 -0.7190
 1325SOL     OW 4673   2.720   5.476   7.404 -0.2572  0.2904 -0.1903
 1325SOL    HW1 4674   2.719   5.568   7.378  0.2991  0.5351  0.6213
 1325SOL    HW2 4675   2.717   5.428   7.321  1.7094  1.0404 -0.7402
 1326SOL     OW 4676   6.319   3.077   4.149 -0.1144  0.4538  0.1872
 1326SOL    HW1 4677   6.278   3.071   4.063 -1.7680  0.0845  0.9817
 1326SOL    HW2 4678   6.254   3.120   4.204 -0.0297 -1.4043  1.8390
 1327SOL     OW 4679   4.213   3.236   0.794 -0.3545  0.4745 -0.4197
 1327SOL    HW1 4680   4.270   3.240   0.717 -0.1403  0.2548 -0.2747
 1327SOL    HW2 4681   4.139   3.292   0.772 -0.0729  0.7807 -0.6043
 1328SOL     OW 4682   4.917   7.137   3.628 -0.3126 -0.0896 -0.5674
 1328SOL    HW1 4683   5.005   7.174   3.636  0.1604 -1.3716  0.4017
 1328SOL    HW2 4684   4.912   7.105   3.538  0.5615 -0.8283 -0.3634
 1329SOL     OW 4685   4.970   1.780   2.838 -0.8843 -0.3702 -0.7664
 1329SOL    HW1 4686   4.955   1.687   2.821 -2.2998  0.0496 -1.9853
 1329SOL    HW2 4687   4.885   1.813   2.867 -0.2213  0.4252  0.3408
 1330SOL     OW 4688   0.315   4.130   4.799  0.1478 -0.1780 -0.0712
 1330SOL    HW1 4689   0.230   4.136   4.842  0.0556 -0.8094 -0.1554
 1330SOL    HW2 4690   0.302   4.171   4.714  0.4615  1.5229  0.6673
 1331SOL     OW 4691   2.308   2.647   2.792 -0.0669 -0.6320  0.0173
 1331SOL    HW1 4692   2.213   2.646   2.794 -0.1247  1.1344 -0.1549
 1331SOL    HW2 4693   2.335   2.638   2.884 -0.2828 -3.3817 -0.1056
 1332SOL     OW 4694   6.691   5.527   2.972 -0.4713  0.1868 -0.1445
 1332SOL    HW1 4695   6.610   5.537   2.921 -0.0323 -0.5717 -1.0274
 1332SOL    HW2 4696   6.690   5.435   2.999  0.2687  0.0690 -0.4943
 1333SOL     OW 4697   4.180   0.520   5.475 -0.4441 -0.3958 -0.3496
 1333SOL    HW1 4698   4.243   0.493   5.408  0.0964  1.4473 -0.6404
 1333SOL    HW2 4699   4.233   0.529   5.554 -0.4898  0.3580 -0.3993
 1334SOL     OW 4700   7.648   5.404   7.364 -0.5645 -0.3024  0.7710
 1334SOL    HW1 4701   7.743   5.414   7.370 -0.3384 -2.0916  0.4735
 1334SOL    HW2 4702   7.614   5.478   7.415  0.9574  0.6809  0.4363
 1335SOL     OW 4703   7.148   1.199   3.972  0.5632  0.5279 -0.4845
 1335SOL    HW1 4704   7.238   1.171   3.989  0.0096 -0.7312  0.6013
 1335SOL    HW2 4705   7.131   1.266   4.038  0.5114  0.3371 -0.3042
 1336SOL     OW 4706   6.097   0.776   3.687  0.3101 -0.0645  0.5048
 1336SOL    HW1 4707   6.191   0.764   3.671  0.6400  0.8816  1.5659
 1336SOL    HW2 4708   6.084   0.742   3.776 -0.5323 -0.9777  0.0450
 1337SOL     OW 4709   1.013   6.461   6.566  0.3869  0.1275 -0.5269
 1337SOL    HW1 4710   1.052   6.386   6.611 -0.8514  0.2332  0.8044
 1337SOL    HW2 4711   1.064   6.536   6.596  1.8532 -0.1607 -2.1289
 1338SOL     OW 4712   3.176   7.099   7.133 -0.0191  0.0637  0.1404
 1338SOL    HW1 4713   3.132   7.015   7.139  0.8899 -0.3410  2.5687
 1338SOL    HW2 4714   3.105   7.163   7.131 -0.7317 -0.6852  0.6023
 1339SOL     OW 4715   3.672   0.092   6.542 -0.4141 -0.1088 -0.8160
 1339SOL    HW1 4716   3.619   0.161   6.504  0.8423  1.2669 -0.1574
 1339SOL    HW2 4717   3.712   0.048   6.467 -0.2124  0.7254 -1.2005
 1340SOL     OW 4718   0.368   4.673   1.647 -0.2560 -0.2248  0.5551
 1340SOL    HW1 4719   0.455   4.634   1.642 -0.2790 -0.1249 -2.6286
 1340SOL    HW2 4720   0.378   4.745   1.709  1.4302 -1.3512  1.6748
 1341SOL     OW 4721   5.845   7.363   7.939  0.1113 -0.1700  0.0802
 1341SOL    HW1 4722   5.750   7.363   7.937  0.0611  2.3701 -0.8732
 1341SOL    HW2 4723   5.868   7.439   7.993  1.5933 -0.3747 -0.2215
 1342SOL     OW 4724   5.957   1.868   4.914  0.0289  0.4244 -0.5730
 1342SOL    HW1 4725   5.957   1.872   4.818 -1.9646  0.9635 -0.5893
 1342SOL    HW2 4726   6.007   1.945   4.941  1.7036 -0.4079 -1.1434
 1343SOL     OW 4727   0.451   3.891   1.732  0.1088 -0.1245 -0.1393
 1343SOL    HW1 4728   0.482   3.971   1.774 -1.5410  0.3779  0.2204
 1343SOL    HW2 4729   0.465   3.822   1.796 -3.3370  0.7918  1.8363
 1344SOL     OW 4730   1.788   7.209   3.539  0.1998  0.2617 -0.1107
 1344SOL    HW1 4731   1.807   7.172   3.453 -0.8859 -1.2844  0.2604
 1344SOL    HW2 4732   1.872   7.210   3.585  0.7602  0.9877 -1.1282
 1345SOL     OW 4733   0.172   5.071   4.728  0.3285  0.3333 -0.1066
 1345SOL    HW1 4734   0.162   5.005   4.659 -0.4925  1.2284 -0.8678
 1345SOL    HW2 4735   0.253   5.047   4.773  0.3814 -0.8110 -0.7837
 1346SOL     OW 4736   6.869   5.615   7.891 -0.1286  0.1107 -0.0881
 1346SOL    HW1 4737   6.872   5.543   7.828  2.3928 -0.3501  0.4552
 1346SOL    HW2 4738   6.825   5.578   7.968 -0.3229 -0.3151 -0.4002
 1347SOL     OW 4739   3.677   7.952   0.620  0.3519  0.5965  0.2717
 1347SOL    HW1 4740   3.762   7.951   0.575  1.7951  1.2420  2.8048
 1347SOL    HW2 4741   3.616   7.914   0.556  2.7185 -0.9007 -1.2602
 1348SOL     OW 4742   6.204   3.402   7.344  0.2312 -0.4016  0.0119
 1348SOL    HW1 4743   6.188   3.496   7.357  0.6077 -0.3843  0.3812
 1348SOL    HW2 4744   6.297   3.397   7.323  0.6719 -0.8461  1.8367
 1349SOL     OW 4745   7.078   1.456   2.189  0.2638  0.6641  0.2256
 1349SOL    HW1 4746   7.157   1.442   2.136  0.3768 -0.1193  0.5879
 1349SOL    HW2 4747   7.084   1.548   2.216  1.9921  0.1620  1.7234
 1350SOL     OW 4748   7.207   3.615   3.460  0.2060  0.3933  0.1062
 1350SOL    HW1 4749   7.136   3.552   3.472  0.2794  0.5185  1.3134
 1350SOL    HW2 4750   7.171   3.697   3.495  0.5841  0.6942 -0.2163
 1351SOL     OW 4751   4.518   2.641   7.698 -0.3708 -0.2262 -0.2206
 1351SOL    HW1 4752   4.556   2.609   7.779 -0.0838 -1.2569 -0.7512
 1351SOL    HW2 4753   4.493   2.732   7.717  1.8776  0.3332  0.2845
 1352SOL     OW 4754   1.841   5.625   7.109  0.4325  0.3474 -0.3910
 1352SOL    HW1 4755   1.927   5.590   7.084  0.2495 -0.1124 -0.3958
 1352SOL    HW2 4756   1.834   5.708   7.062 -0.0042 -0.6056 -2.1099
 1353SOL     OW 4757   6.445   5.547   7.153  0.8078  0.3893 -0.7573
 1353SOL    HW1 4758   6.451   5.558   7.058 -0.7249  1.5740 -0.7463
 1353SOL    HW2 4759   6.366   5.594   7.178  0.5183 -0.9075  0.9689
 1354SOL     OW 4760   7.388   3.823   4.974 -0.2571 -0.3518  0.1011
 1354SOL    HW1 4761   7.475   3.865   4.972  0.1180 -1.0250  1.1900
 1354SOL    HW2 4762   7.344   3.856   4.896  1.7049 -1.5588 -1.6179
 1355SOL     OW 4763   2.918   2.502   4.418  0.2307  0.1824  0.0583
 1355SOL    HW1 4764   2.914   2.562   4.344 -0.7307  0.6643  0.4844
 1355SOL    HW2 4765   2.979   2.544   4.479  0.8557 -0.1096 -0.3526
 1356SOL     OW 4766   6.573   2.384   3.913  0.2009  0.2296 -0.0533
 1356SOL    HW1 4767   6.551   2.292   3.900 -0.8607  0.4406  0.1218
 1356SOL    HW2 4768   6.668   2.386   3.917  0.2601 -0.7679 -0.7361
 1357SOL     OW 4769   0.892   6.473   7.092 -0.2971  0.0778  0.7348
 1357SOL    HW1 4770   0.875   6.556   7.137  0.3295 -0.5272  2.1318
 1357SOL    HW2 4771   0.968   6.491   7.037 -0.0655  0.3915  1.1532
 1358SOL     OW 4772   0.885   0.737   3.796  0.2013  0.0809  0.8614
 1358SOL    HW1 4773   0.837   0.655   3.786  1.6364 -0.7245  0.1792
 1358SOL    HW2 4774   0.969   0.711   3.834  0.2376  1.3938  1.7288
 1359SOL     OW 4775   1.614   3.236   0.549 -0.1263  0.0774  0.5280
 1359SOL    HW1 4776   1.564   3.204   0.624  0.5434 -0.9930  0.5306
 1359SOL    HW2 4777   1.606   3.332   0.555 -2.3624 -0.0448  0.3839
 1360SOL     OW 4778   5.390   3.100   4.147  0.2935 -0.2606 -0.1568
 1360SOL    HW1 4779   5.482   3.126   4.158  0.4422 -0.4502 -0.9048
 1360SOL    HW2 4780   5.395   3.009   4.120 -0.2268 -1.1863  2.5685
 1361SOL     OW 4781   5.671   3.350   1.463  0.0729 -0.1799 -0.0777
 1361SOL    HW1 4782   5.682   3.434   1.418 -1.7536  0.0901 -0.0655
 1361SOL    HW2 4783   5.615   3.370   1.538 -0.5523 -1.4492 -0.1907
 1362SOL     OW 4784   3.227   0.025   5.124 -0.2917 -0.0105  0.0246
 1362SOL    HW1 4785   3.235   0.117   5.098 -0.0057 -0.3438 -1.1404
 1362SOL    HW2 4786   3.142  -0.002   5.092  0.9006 -1.0023 -2.5800
 1363SOL     OW 4787   5.096   2.542   4.785 -0.1336  0.0120  0.1765
 1363SOL    HW1 4788   5.161   2.473   4.794  0.0993  0.3793  1.5335
 1363SOL    HW2 4789   5.027   2.519   4.847 -0.8428  0.1366 -0.5531
 1364SOL     OW 4790   1.565   6.500   4.125  0.1591  0.1485  0.2559
 1364SOL    HW1 4791   1.554   6.586   4.166 -0.2517 -0.6050  1.8163
 1364SOL    HW2 4792   1.551   6.516   4.032 -0.3018  1.6982  0.5573
 1365SOL     OW 4793   0.458   3.089   4.192 -0.5267  0.0034 -0.1130
 1365SOL    HW1 4794   0.531   3.065   4.249 -0.2542 -0.3409 -0.5928
 1365SOL    HW2 4795   0.496   3.154   4.132 -0.5670 -0.2852 -0.4569
 1366SOL     OW 4796   5.212   2.104   1.830 -0.3119 -0.1357 -0.2300
 1366SOL    HW1 4797   5.129   2.057   1.842 -1.9023  2.7034  0.9275
 1366SOL    HW2 4798   5.201   2.151   1.747 -0.8814  1.9739  0.9638
 1367SOL     OW 4799   4.224   3.603   0.860 -0.3005  0.0051  0.0704
 1367SOL    HW1 4800   4.175   3.685   0.866 -2.1356 -1.0558  0.0712
 1367SOL    HW2 4801   4.194   3.563   0.778 -0.9117 -1.5670  1.0215
 1368SOL     OW 4802   1.106   5.177   5.650  0.4607 -0.1778 -0.4911
 1368SOL    HW1 4803   1.200   5.192   5.648  0.0829  2.7588 -1.9371
 1368SOL    HW2 4804   1.081   5.165   5.558 -0.7168  0.3344 -0.2637
 1369SOL     OW 4805   6.635   2.161   6.487  0.3377  0.4639  0.5690
 1369SOL    HW1 4806   6.623   2.166   6.392 -0.2569  0.3820  0.6325
 1369SOL    HW2 4807   6.695   2.232   6.508  0.7020  0.2943  0.0950
 1370SOL     OW 4808   7.757   1.274   5.646 -0.0939  0.3080  0.0579
 1370SOL    HW1 4809   7.785   1.192   5.686  2.3010  0.7424 -0.5512
 1370SOL    HW2 4810   7.671   1.255   5.609 -0.8272 -1.1002  2.2801
 1371SOL     OW 4811   1.819   1.950   1.435 -0.0405 -0.1440  0.4256
 1371SOL    HW1 4812   1.783   1.945   1.523  0.1172 -0.6124  0.4639
 1371SOL    HW2 4813   1.895   2.008   1.444  0.1849 -0.4726  0.6712
 1372SOL     OW 4814   1.759   2.199   1.710 -0.4149  0.2066  0.0673
 1372SOL    HW1 4815   1.756   2.197   1.806 -1.4021  0.1963  0.0453
 1372SOL    HW2 4816   1.725   2.285   1.687 -0.5307  0.0700 -0.2813
 1373SOL     OW 4817   3.625   6.195   1.654 -0.0473  0.2125 -0.4855
 1373SOL    HW1 4818   3.650   6.174   1.744  0.5947  0.4311 -0.6118
 1373SOL    HW2 4819   3.585   6.282   1.661 -1.5694 -0.4836 -0.1565
 1374SOL     OW 4820   1.956   0.097   1.621 -0.7544  0.3601 -0.2939
 1374SOL    HW1 4821   1.946   0.147   1.540  0.9242 -0.3807 -1.0223
 1374SOL    HW2 4822   1.953   0.163   1.690  0.3936  1.3705 -1.1535
 1375SOL     OW 4823   5.130   3.592   7.687 -0.0514 -0.1174  0.1314
 1375SOL    HW1 4824   5.071   3.641   7.744 -1.1299 -0.9855 -0.1995
 1375SOL    HW2 4825   5.134   3.643   7.607 -0.4297 -0.0872  0.1280
 1376SOL     OW 4826   6.222   1.344   7.539 -0.2397  0.1069  0.8737
 1376SOL    HW1 4827   6.138   1.345   7.585  0.4903  1.0745  2.2570
 1376SOL    HW2 4828   6.284   1.382   7.601  0.8199  1.4375 -0.8955
 1377SOL     OW 4829   7.797   3.800   5.349 -0.1987 -0.5242 -0.7815
 1377SOL    HW1 4830   7.754   3.883   5.371  0.6627  0.0420 -1.1605
 1377SOL    HW2 4831   7.779   3.787   5.256  1.5904  0.4702 -1.3274
 1378SOL     OW 4832   0.145   1.424   3.324  0.3068  0.9884 -0.5384
 1378SOL    HW1 4833   0.088   1.481   3.376 -0.2933  0.5292 -0.6888
 1378SOL    HW2 4834   0.230   1.430   3.369 -0.5519 -0.5792  1.4501
 1379SOL     OW 4835   0.967   4.419   1.896 -0.2294 -0.0153 -0.1462
 1379SOL    HW1 4836   0.899   4.444   1.959 -0.0629 -0.0366  0.0418
 1379SOL    HW2 4837   0.926   4.431   1.811 -1.0272 -1.5836 -0.0262
 1380SOL     OW 4838   1.019   3.563   0.168  0.7334  0.0971  0.3223
 1380SOL    HW1 4839   1.086   3.495   0.163  0.3558 -0.3814  1.4102
 1380SOL    HW2 4840   0.953   3.527   0.227  1.4818  2.1977  2.5962
 1381SOL     OW 4841   6.155   0.030   6.419 -0.1040 -0.4956 -0.1948
 1381SOL    HW1 4842   6.192   0.044   6.506 -1.5424 -1.1393  0.5499
 1381SOL    HW2 4843   6.200  -0.047   6.385  0.4243 -0.2716 -0.0160
 1382SOL     OW 4844   3.749   0.720   4.712 -0.1002  0.2827  0.4763
 1382SOL    HW1 4845   3.710   0.641   4.750 -0.3812 -0.1802 -0.7391
 1382SOL    HW2 4846   3.796   0.760   4.785  0.3262 -1.1797  1.0518
 1383SOL     OW 4847   7.104   2.376   7.523 -0.4823 -0.6233  0.2189
 1383SOL    HW1 4848   7.160   2.393   7.448 -2.4571 -1.3738 -1.5321
 1383SOL    HW2 4849   7.134   2.437   7.591  1.7496 -0.3480 -0.9425
 1384SOL     OW 4850   7.383   0.224   2.242 -0.1372  0.6786 -0.4785
 1384SOL    HW1 4851   7.295   0.247   2.271 -0.2829  0.6220 -0.8652
 1384SOL    HW2 4852   7.412   0.298   2.189 -0.9425 -0.3368 -2.4373
 1385SOL     OW 4853   0.551   7.494   3.115  0.0688  0.0677  0.1307
 1385SOL    HW1 4854   0.547   7.589   3.123 -2.5182  0.1203 -0.9251
 1385SOL    HW2 4855   0.615   7.479   3.046 -0.0648  1.0692 -0.2260
 1386SOL     OW 4856   2.159   2.841   3.166  1.1036  0.1261 -0.6018
 1386SOL    HW1 4857   2.177   2.912   3.228  2.0804 -0.7008  0.0941
 1386SOL    HW2 4858   2.084   2.795   3.204  0.5583  0.6826 -0.9818
 1387SOL     OW 4859   7.759   3.991   4.144 -0.3565  0.2603 -0.3644
 1387SOL    HW1 4860   7.777   4.068   4.198  0.2549  0.1747 -0.4474
 1387SOL    HW2 4861   7.841   3.942   4.142 -0.7289 -0.3888 -0.3287
 1388SOL     OW 4862   4.946   2.290   2.912  0.0252 -0.3326 -0.0927
 1388SOL    HW1 4863   5.015   2.261   2.972  0.3526 -0.3490 -0.4724
 1388SOL    HW2 4864   4.865   2.277   2.961  0.2735 -0.5238  0.2770
 1389SOL     OW 4865   3.260   2.836   0.567  0.1368  0.1776  0.5696
 1389SOL    HW1 4866   3.242   2.747   0.535  0.6656  0.4780 -0.6186
 1389SOL    HW2 4867   3.264   2.827   0.662 -0.8838 -0.8694  0.5349
 1390SOL     OW 4868   1.875   5.664   4.217  0.2601  0.7715  0.1439
 1390SOL    HW1 4869   1.789   5.690   4.185 -0.4242  0.2957  1.5291
 1390SOL    HW2 4870   1.895   5.727   4.287  2.2789  2.5703 -1.9167
 1391SOL     OW 4871   2.533   2.415   2.284  0.4200  0.0046 -0.5423
 1391SOL    HW1 4872   2.564   2.487   2.229  2.7455 -0.3455  0.2186
 1391SOL    HW2 4873   2.571   2.433   2.370 -0.1804 -1.3615  0.0331
 1392SOL     OW 4874   1.073   2.885   5.880  0.0384  0.1877 -0.3753
 1392SOL    HW1 4875   1.080   2.804   5.830  0.8211  0.5714 -0.9069
 1392SOL    HW2 4876   1.042   2.857   5.966  1.4254 -0.8375 -0.1609
 1393SOL     OW 4877   3.036   0.177   3.253  0.8849 -0.2722 -0.0431
 1393SOL    HW1 4878   3.026   0.157   3.346  1.9787  0.1355  0.1762
 1393SOL    HW2 4879   3.053   0.092   3.212 -0.0740 -0.5200  0.0435
 1394SOL     OW 4880   5.960   1.778   0.808 -0.1784  0.2276  0.2606
 1394SOL    HW1 4881   5.982   1.871   0.810  1.7008 -0.1848  0.7422
 1394SOL    HW2 4882   5.905   1.768   0.730  2.4956  1.1909 -1.9183
 1395SOL     OW 4883   0.579   7.563   7.566  0.3970  0.1591  0.9087
 1395SOL    HW1 4884   0.538   7.590   7.484 -0.4385  0.2514  1.3462
 1395SOL    HW2 4885   0.611   7.474   7.548  1.9109  0.8534 -0.0869
 1396SOL     OW 4886   4.726   0.545   4.162  0.3722  0.0749 -0.8045
 1396SOL    HW1 4887   4.802   0.597   4.185  0.4529  0.7273 -2.4057
 1396SOL    HW2 4888   4.671   0.546   4.240  2.1025 -0.6465  0.4867
 1397SOL     OW 4889   4.863   1.022   2.963  0.2934  0.0919 -0.0052
 1397SOL    HW1 4890   4.792   1.082   2.985  1.1366  1.4967 -0.9309
 1397SOL    HW2 4891   4.929   1.037   3.030  0.6431  0.4425 -0.4257
 1398SOL     OW 4892   3.993   3.957   4.110  0.1622 -0.5326 -0.1926
 1398SOL    HW1 4893   3.991   3.879   4.166 -0.2060 -1.2429 -1.1522
 1398SOL    HW2 4894   3.903   3.964   4.077  0.0496  0.6452  0.3286
 1399SOL     OW 4895   6.426   4.125   0.081 -0.0442 -0.2797  0.2287
 1399SOL    HW1 4896   6.512   4.105   0.045 -0.0054  1.9706 -1.1305
 1399SOL    HW2 4897   6.443   4.182   0.156 -0.3346  0.3649 -0.1862
 1400SOL     OW 4898   3.328   0.307   1.320  0.5767  0.2388 -0.5141
 1400SOL    HW1 4899   3.372   0.234   1.277  1.5726  0.8666 -0.6111
 1400SOL    HW2 4900   3.269   0.266   1.384  1.8653 -0.6468  0.1668
 1401SOL     OW 4901   5.041   1.827   3.153  0.6743 -0.3655 -0.1956
 1401SOL    HW1 4902   5.031   1.878   3.073 -1.4055  0.7734  0.6846
 1401SOL    HW2 4903   5.119   1.774   3.139  0.1441 -0.5513 -3.1394
 1402SOL     OW 4904   6.589   0.439   1.002  0.0121 -0.0558 -0.4513
 1402SOL    HW1 4905   6.632   0.480   1.077 -0.8848 -0.0636  0.0838
 1402SOL    HW2 4906   6.612   0.494   0.927  2.0180 -0.7822 -0.4289
 1403SOL     OW 4907   5.854   5.504   3.504  1.1409  0.4768 -0.1378
 1403SOL    HW1 4908   5.792   5.560   3.456  0.8778 -1.0986 -1.7716
 1403SOL    HW2 4909   5.937   5.513   3.456  1.2450 -0.0574 -0.0699
 1404SOL     OW 4910   1.563   4.200   6.445  0.4156 -0.1197 -0.0106
 1404SOL    HW1 4911   1.513   4.140   6.500 -1.7720 -0.0687 -1.7739
 1404SOL    HW2 4912   1.530   4.287   6.469 -0.5048 -0.0935 -1.2644
 1405SOL     OW 4913   2.468   7.371   7.775 -0.1419 -0.2229 -0.5272
 1405SOL    HW1 4914   2.422   7.287   7.783 -3.3109  1.4097 -0.0656
 1405SOL    HW2 4915   2.480   7.399   7.865  0.6965 -0.0460 -0.6896
 1406SOL     OW 4916   0.253   7.559   1.570  0.4248  0.2056 -0.5481
 1406SOL    HW1 4917   0.234   7.506   1.493 -0.4484  0.1295 -0.2912
 1406SOL    HW2 4918   0.348   7.554   1.580  0.3571 -1.4345 -0.4489
 1407SOL     OW 4919   5.270   4.112   5.522 -0.3407 -0.6831 -0.5644
 1407SOL    HW1 4920   5.346   4.121   5.464 -1.6459 -0.1329 -2.2674
 1407SOL    HW2 4921   5.281   4.181   5.587 -0.0175  0.2358 -1.5682
 1408SOL     OW 4922   1.981   5.079   5.171  0.1254 -0.0648 -0.1334
 1408SOL    HW1 4923   1.918   5.015   5.137 -1.4313  0.2068  2.0727
 1408SOL    HW2 4924   2.062   5.030   5.179 -0.8458 -1.6032  0.8248
 1409SOL     OW 4925   1.286   3.716   6.023  0.2412 -0.3487 -0.0782
 1409SOL    HW1 4926   1.255   3.637   6.068  0.5808 -0.5725 -0.2311
 1409SOL    HW2 4927   1.303   3.686   5.933 -0.5729  0.1239 -0.3974
 1410SOL     OW 4928   4.685   0.388   4.648 -0.1680  0.3096 -0.6472
 1410SOL    HW1 4929   4.651   0.405   4.736 -0.7918 -0.5803 -0.6991
 1410SOL    HW2 4930   4.724   0.301   4.654 -0.9355 -0.1050 -1.4336
 1411SOL     OW 4931   7.394   0.204   7.183  0.3025 -0.4776 -0.4314
 1411SOL    HW1 4932   7.381   0.142   7.255  0.7449 -0.2872 -0.1851
 1411SOL    HW2 4933   7.334   0.174   7.115 -0.8301 -0.0859  0.3746
 1412SOL     OW 4934   6.587   4.694   6.550 -0.5283 -0.2789 -0.3465
 1412SOL    HW1 4935   6.534   4.623   6.587  0.8483 -1.4787 -0.5701
 1412SOL    HW2 4936   6.667   4.650   6.520  0.8786  1.5543  0.5648
 1413SOL     OW 4937   1.300   5.213   5.248  0.3820 -0.2912 -0.0166
 1413SOL    HW1 4938   1.213   5.178   5.267  0.6686 -1.3671 -0.6033
 1413SOL    HW2 4939   1.359   5.158   5.298  0.7064  0.8377  0.8884
 1414SOL     OW 4940   0.643   7.663   5.899 -0.0777 -0.2323 -0.4812
 1414SOL    HW1 4941   0.692   7.730   5.946 -1.9919  0.6658  0.3299
 1414SOL    HW2 4942   0.696   7.645   5.820  0.7944  1.7287 -0.3925
 1415SOL     OW 4943   1.282   2.224   0.567 -0.0794 -0.2279 -0.2377
 1415SOL    HW1 4944   1.367   2.186   0.543  0.7741  0.4945  1.4369
 1415SOL    HW2 4945   1.272   2.203   0.660 -1.9526 -0.6355 -0.4964
 1416SOL     OW 4946   0.131   4.501   2.474 -0.0823 -0.6269  0.0130
 1416SOL    HW1 4947   0.051   4.534   2.515 -0.7590 -0.8291 -1.1026
 1416SOL    HW2 4948   0.163   4.576   2.423  0.7847 -0.3585  0.9165
 1417SOL     OW 4949   5.355   6.402   0.159  0.1723 -0.2438 -0.5520
 1417SOL    HW1 4950   5.371   6.348   0.082  1.5156 -0.0930 -0.4070
 1417SOL    HW2 4951   5.407   6.481   0.144 -0.1985  0.1365  0.1348
 1418SOL     OW 4952   1.949   4.168   6.683 -0.1653  0.2489 -0.2372
 1418SOL    HW1 4953   1.899   4.105   6.734 -0.1201 -0.2877 -0.8474
 1418SOL    HW2 4954   2.024   4.190   6.738 -0.8248  0.7214  0.4959
 1419SOL     OW 4955   0.111   3.953   7.050  0.0945  0.1410  0.4874
 1419SOL    HW1 4956   0.143   4.029   7.000  0.3977  0.4811  1.1909
 1419SOL    HW2 4957   0.081   3.990   7.133  0.3538 -0.5284  0.8834
 1420SOL     OW 4958   7.654   3.926   5.913 -0.8816 -0.3066  0.0936
 1420SOL    HW1 4959   7.585   3.974   5.959 -1.4657  0.9272 -1.9678
 1420SOL    HW2 4960   7.654   3.962   5.825  1.7566 -0.9646 -0.2539
 1421SOL     OW 4961   5.023   2.955   1.457  0.3905 -0.5509  0.6203
 1421SOL    HW1 4962   5.084   2.925   1.390  1.1321 -1.3864  1.6427
 1421SOL    HW2 4963   4.937   2.946   1.417  0.9332  1.3560 -1.1213
 1422SOL     OW 4964   5.345   6.878   6.610 -0.1877  0.0314 -0.0329
 1422SOL    HW1 4965   5.336   6.933   6.532 -1.3461  1.6447  1.1744
 1422SOL    HW2 4966   5.332   6.938   6.683  3.1980 -0.9757  1.5487
 1423SOL     OW 4967   7.845   7.631   5.125  0.0762 -0.2617 -0.5112
 1423SOL    HW1 4968   7.838   7.560   5.061  0.6093 -1.3651  0.6131
 1423SOL    HW2 4969   7.938   7.654   5.126  0.0064  0.0315 -0.4063
 1424SOL     OW 4970   3.592   2.476   6.069  0.8237  0.3124  0.2989
 1424SOL    HW1 4971   3.649   2.457   6.144  0.1009  0.5646  0.9203
 1424SOL    HW2 4972   3.646   2.454   5.993  0.9796 -1.6444  0.9056
 1425SOL     OW 4973   5.895   1.150   7.918 -0.5094  0.4686  0.7912
 1425SOL    HW1 4974   5.933   1.166   8.005  0.3554  2.2948  0.1341
 1425SOL    HW2 4975   5.971   1.139   7.861 -1.0303  0.8404  0.0151
 1426SOL     OW 4976   7.600   0.853   5.120  0.2623 -0.1337  0.3465
 1426SOL    HW1 4977   7.611   0.947   5.102  0.7968 -0.3291 -0.3797
 1426SOL    HW2 4978   7.527   0.826   5.065 -0.0145 -0.1009  0.6999
 1427SOL     OW 4979   2.037   3.943   3.838  0.4123 -0.4072  0.1172
 1427SOL    HW1 4980   1.964   3.900   3.882  0.2907 -0.2490  0.0710
 1427SOL    HW2 4981   2.101   3.958   3.907  0.5079 -0.7739  0.1106
 1428SOL     OW 4982   6.055   6.954   2.792 -0.2781  0.6409  0.1301
 1428SOL    HW1 4983   6.131   6.901   2.770 -0.2284  1.2347 -1.2499
 1428SOL    HW2 4984   6.070   7.038   2.748 -1.7110  0.7704 -0.1863
 1429SOL     OW 4985   3.869   7.401   2.647 -0.5103  0.3365 -0.6114
 1429SOL    HW1 4986   3.776   7.378   2.652 -0.3875 -0.2830 -1.0348
 1429SOL    HW2 4987   3.878   7.478   2.703 -1.2491  0.3060 -0.4424
 1430SOL     OW 4988   1.030   3.041   1.169  0.6925  0.2163 -0.1988
 1430SOL    HW1 4989   1.010   2.952   1.198  0.7688 -0.3262 -1.7435
 1430SOL    HW2 4990   0.948   3.089   1.183  0.2052 -0.4548 -0.6724
 1431SOL     OW 4991   3.220   0.441   2.093 -0.1176 -0.4996  0.1583
 1431SOL    HW1 4992   3.183   0.498   2.026 -0.2181 -1.8464 -0.9533
 1431SOL    HW2 4993   3.314   0.458   2.090 -0.0728 -0.8850 -0.6409
 1432SOL     OW 4994   4.492   1.715   2.404 -0.6315 -0.8635 -0.0127
 1432SOL    HW1 4995   4.430   1.680   2.339 -0.4779 -0.5372 -0.3406
 1432SOL    HW2 4996   4.448   1.704   2.488 -0.9908 -0.9503 -0.2112
 1433SOL     OW 4997   5.498   0.115   3.481  0.2531 -0.4129  0.2167
 1433SOL    HW1 4998   5.553   0.056   3.533 -0.3328 -1.4082 -0.2492
 1433SOL    HW2 4999   5.432   0.057   3.442 -0.5547  0.6181  0.0188
 1434SOL     OW 5000   4.673   6.536   2.000  0.1583  0.5964  0.1741
 1434SOL    HW1 5001   4.719   6.577   1.927 -0.6690 -0.1308 -0.7954
 1434SOL    HW2 5002   4.589   6.509   1.963 -0.3184  0.2877  1.4241
 1435SOL     OW 5003   2.831   4.008   1.158 -0.4115 -0.6389  0.1089
 1435SOL    HW1 5004   2.841   4.026   1.065 -0.7771 -1.6547 -0.1356
 1435SOL    HW2 5005   2.887   4.072   1.201  0.8735 -1.0649 -0.8735
 1436SOL     OW 5006   0.197   3.340   3.981 -0.3270  0.2501  0.4730
 1436SOL    HW1 5007   0.243   3.353   3.898  0.9798 -0.8241  0.9725
 1436SOL    HW2 5008   0.134   3.411   3.985 -3.2015 -1.6984 -3.2301
 1437SOL     OW 5009   5.999   7.131   5.732  0.5484 -0.1189  0.0185
 1437SOL    HW1 5010   5.904   7.135   5.735  0.5339  0.0316 -0.6161
 1437SOL    HW2 5011   6.026   7.212   5.690  0.9368 -0.3707 -0.2249
 1438SOL     OW 5012   2.879   4.633   0.619 -0.1076 -0.0490  0.0081
 1438SOL    HW1 5013   2.799   4.680   0.644  0.4182  0.6300  0.4285
 1438SOL    HW2 5014   2.941   4.653   0.689 -0.0993 -1.9946  0.6046
 1439SOL     OW 5015   3.714   1.482   2.251 -0.3109 -0.2550 -0.6544
 1439SOL    HW1 5016   3.783   1.523   2.303 -0.3403  1.8056 -2.1203
 1439SOL    HW2 5017   3.633   1.508   2.295 -0.2961 -3.2658  1.4922
 1440SOL     OW 5018   7.975   7.275   1.044  0.2294  0.5845  0.2887
 1440SOL    HW1 5019   8.037   7.206   1.065  0.6363  0.1967 -1.9701
 1440SOL    HW2 5020   8.023   7.356   1.060  0.5968  0.3100  0.5787
 1441SOL     OW 5021   1.690   6.510   1.030 -0.5193  0.2548  0.4125
 1441SOL    HW1 5022   1.601   6.496   0.999 -0.5016  0.8646  0.0652
 1441SOL    HW2 5023   1.721   6.586   0.980 -0.1217  0.6009  1.1761
 1442SOL     OW 5024   3.737   0.612   7.891 -0.2577  0.0729  0.3451
 1442SOL    HW1 5025   3.832   0.612   7.902  0.0813  2.7059 -1.6657
 1442SOL    HW2 5026   3.722   0.558   7.813 -0.1785  1.1510 -0.4390
 1443SOL     OW 5027   3.735   0.177   1.520 -0.2171 -0.6432 -0.1135
 1443SOL    HW1 5028   3.705   0.268   1.526 -0.5048 -0.7243 -0.3055
 1443SOL    HW2 5029   3.737   0.147   1.610 -0.8581 -0.6802 -0.1075
 1444SOL     OW 5030   0.970   4.168   4.685 -0.2288 -0.3146  0.1352
 1444SOL    HW1 5031   0.987   4.105   4.615  1.0052 -0.5579  0.6324
 1444SOL    HW2 5032   0.976   4.254   4.643  2.6919 -0.3479  0.2919
 1445SOL     OW 5033   2.675   0.784   5.642 -0.3624  0.5110 -0.2316
 1445SOL    HW1 5034   2.677   0.861   5.698  2.3479 -0.7419  1.6430
 1445SOL    HW2 5035   2.593   0.740   5.664  0.1702  0.5772  2.0955
 1446SOL     OW 5036   7.082   6.670   1.610 -0.1021 -0.8075  0.3449
 1446SOL    HW1 5037   7.141   6.696   1.680  0.4940 -1.3052  0.0379
 1446SOL    HW2 5038   6.995   6.674   1.649  0.1478 -0.2742  0.8668
 1447SOL     OW 5039   4.158   5.546   1.594  1.0424 -0.1127  0.3761
 1447SOL    HW1 5040   4.113   5.630   1.592  0.6448 -0.3386 -0.4121
 1447SOL    HW2 5041   4.095   5.484   1.555  1.7884 -0.5505 -0.1543
 1448SOL     OW 5042   4.444   6.408   0.596  0.1854 -0.2321  0.1704
 1448SOL    HW1 5043   4.531   6.368   0.601  0.3693 -0.2266 -2.0776
 1448SOL    HW2 5044   4.391   6.343   0.551 -0.6672  0.2974  0.3927
 1449SOL     OW 5045   3.431   6.756   5.269 -0.1719 -0.3414 -0.2978
 1449SOL    HW1 5046   3.416   6.756   5.363  1.8717 -1.4184  0.0826
 1449SOL    HW2 5047   3.446   6.848   5.247  0.1861 -0.1795  0.5850
 1450SOL     OW 5048   5.693   1.927   4.365  0.2757  0.0913  0.0829
 1450SOL    HW1 5049   5.648   1.857   4.412 -1.4657  1.7064  0.9851
 1450SOL    HW2 5050   5.645   1.936   4.283  1.5775 -0.8556 -0.8339
 1451SOL     OW 5051   3.876   1.070   1.319  0.4227 -0.1192  0.1275
 1451SOL    HW1 5052   3.962   1.111   1.323  0.4560 -0.0063 -1.2197
 1451SOL    HW2 5053   3.861   1.036   1.407  1.4840  0.5775  0.5925
 1452SOL     OW 5054   0.006   1.815   7.395 -0.9455  0.3107 -0.1480
 1452SOL    HW1 5055   0.028   1.730   7.355 -1.4333  0.4632 -0.7692
 1452SOL    HW2 5056   0.031   1.879   7.329  0.4305  0.7417  0.7537
 1453SOL     OW 5057   5.837   1.397   0.197 -0.5692  0.1955 -0.2348
 1453SOL    HW1 5058   5.820   1.409   0.104  0.6568 -1.8700 -0.7912
 1453SOL    HW2 5059   5.897   1.322   0.201 -0.2295  0.5125  2.1917
 1454SOL     OW 5060   0.457   1.697   6.081  0.4820 -0.7285  0.2641
 1454SOL    HW1 5061   0.421   1.669   5.997 -0.6033  0.7127  0.2031
 1454SOL    HW2 5062   0.540   1.738   6.059  0.0644 -0.0937 -0.1512
 1455SOL     OW 5063   4.572   7.454   1.849  0.0456 -0.0554 -0.1711
 1455SOL    HW1 5064   4.559   7.391   1.778  2.3822  0.9990 -1.6315
 1455SOL    HW2 5065   4.598   7.400   1.924  0.4928 -0.9619 -0.9590
 1456SOL     OW 5066   5.982   7.558   6.297 -0.2018  0.1533 -0.1986
 1456SOL    HW1 5067   6.048   7.567   6.365 -0.6650  0.7314  0.1846
 1456SOL    HW2 5068   5.949   7.469   6.307  1.3565 -0.5848 -1.1870
 1457SOL     OW 5069   1.198   7.054   1.322  0.0677 -0.4764  0.6151
 1457SOL    HW1 5070   1.281   7.100   1.314 -0.1375 -0.0061  1.1197
 1457SOL    HW2 5071   1.206   7.003   1.403  0.4180 -1.6079 -0.1044
 1458SOL     OW 5072   6.920   0.343   6.677 -0.4093 -0.1552 -0.0151
 1458SOL    HW1 5073   6.930   0.249   6.690 -0.4302 -0.0607  0.7526
 1458SOL    HW2 5074   6.977   0.364   6.603  0.4108 -0.6009  0.4779
 1459SOL     OW 5075   6.318   2.215   6.717  0.0905  0.6846 -0.4809
 1459SOL    HW1 5076   6.277   2.190   6.634 -0.2372  0.4978 -0.2645
 1459SOL    HW2 5077   6.266   2.289   6.748 -2.3269 -1.6634  1.5111
 1460SOL     OW 5078   2.608   0.974   0.893 -0.3451  0.7262 -0.1272
 1460SOL    HW1 5079   2.520   0.980   0.931  0.6603  3.3979  2.1632
 1460SOL    HW2 5080   2.650   0.905   0.944 -1.0317 -0.4681 -1.1384
 1461SOL     OW 5081   5.340   0.624   0.194 -0.1245  0.3245  0.4487
 1461SOL    HW1 5082   5.368   0.572   0.119 -0.2081  0.4926  0.3005
 1461SOL    HW2 5083   5.266   0.675   0.162 -1.2429 -0.8223  1.0895
 1462SOL     OW 5084   7.298   1.715   2.730  0.7792  0.1723 -0.8862
 1462SOL    HW1 5085   7.282   1.675   2.644 -0.0817 -2.1657  0.2752
 1462SOL    HW2 5086   7.211   1.736   2.763  1.0287 -0.0364 -0.0942
 1463SOL     OW 5087   3.334   7.740   4.834  0.0486  0.0896 -0.1079
 1463SOL    HW1 5088   3.329   7.833   4.859  4.0016 -0.1749  2.5555
 1463SOL    HW2 5089   3.249   7.704   4.861 -1.1295  2.6563 -0.0608
 1464SOL     OW 5090   1.392   5.073   2.727  0.2991 -0.8503  0.5796
 1464SOL    HW1 5091   1.476   5.040   2.695 -0.2448 -2.7505  0.9888
 1464SOL    HW2 5092   1.327   5.033   2.670 -0.3594  0.6828  0.2022
 1465SOL     OW 5093   5.452   0.102   4.201 -0.5701  0.3789 -0.0780
 1465SOL    HW1 5094   5.403   0.084   4.121 -1.7075  0.4644  0.5713
 1465SOL    HW2 5095   5.384   0.116   4.268  0.3422  1.0088  0.7470
 1466SOL     OW 5096   1.387   1.861   0.147  0.1882  0.2441  0.0133
 1466SOL    HW1 5097   1.417   1.888   0.060 -0.5008 -0.2056 -0.3668
 1466SOL    HW2 5098   1.374   1.944   0.194  0.3709  0.4956 -0.3719
 1467SOL     OW 5099   2.816   2.631   2.299 -0.2663 -0.3776 -0.1685
 1467SOL    HW1 5100   2.880   2.603   2.234  1.5449  1.0076  0.9099
 1467SOL    HW2 5101   2.742   2.664   2.248  0.5096 -0.5884 -1.4723
 1468SOL     OW 5102   6.930   7.564   6.111  0.1875  0.3304  0.3530
 1468SOL    HW1 5103   6.886   7.489   6.152  1.0486 -0.3515  0.0720
 1468SOL    HW2 5104   7.006   7.579   6.167  0.3023  0.6524  0.1093
 1469SOL     OW 5105   0.784   1.083   0.399 -0.1044 -0.3921  0.2896
 1469SOL    HW1 5106   0.689   1.078   0.406 -0.1294  0.6089  0.9633
 1469SOL    HW2 5107   0.800   1.114   0.310 -0.3978 -0.7670  0.1048
 1470SOL     OW 5108   4.052   7.897   1.395  0.6654  0.4408 -0.0734
 1470SOL    HW1 5109   4.030   7.894   1.488  2.2125 -0.7761  0.2926
 1470SOL    HW2 5110   4.006   7.974   1.362 -1.0616  0.0959  1.3777
 1471SOL     OW 5111   1.507   6.709   1.251  0.3433  0.0084  1.1753
 1471SOL    HW1 5112   1.593   6.695   1.214  0.6113  1.2510  1.2635
 1471SOL    HW2 5113   1.447   6.701   1.177  0.8196  1.9179  0.5048
 1472SOL     OW 5114   2.675   6.859   3.433 -0.0490 -0.2982 -0.1440
 1472SOL    HW1 5115   2.743   6.871   3.498 -0.7001 -0.6169  0.6187
 1472SOL    HW2 5116   2.635   6.775   3.456 -0.2075 -0.4817 -1.0382
 1473SOL     OW 5117   0.047   2.779   7.653  0.5393  0.1428  0.6273
 1473SOL    HW1 5118   0.068   2.694   7.692 -0.7290 -0.4848 -0.0082
 1473SOL    HW2 5119   0.085   2.775   7.565 -0.6997 -0.3298  0.0947
 1474SOL     OW 5120   4.631   7.900   0.151  0.0386  0.3605  0.1960
 1474SOL    HW1 5121   4.682   7.925   0.074 -0.8501 -0.7421 -0.7824
 1474SOL    HW2 5122   4.697   7.871   0.215  0.7273  0.4466 -0.4556
 1475SOL     OW 5123   7.601   1.470   4.869 -0.0685 -0.0948 -0.3930
 1475SOL    HW1 5124   7.695   1.482   4.884 -0.0778  1.7776 -1.4853
 1475SOL    HW2 5125   7.585   1.513   4.785 -1.7718 -1.1120 -0.6260
 1476SOL     OW 5126   4.585   4.303   2.760  0.3153 -0.2810 -0.2155
 1476SOL    HW1 5127   4.615   4.312   2.851 -0.8418  1.4209  0.0461
 1476SOL    HW2 5128   4.490   4.295   2.767  0.0367  1.5121 -1.3237
 1477SOL     OW 5129   7.291   5.057   7.295  0.0517 -0.5030  0.3150
 1477SOL    HW1 5130   7.304   4.981   7.239  0.3904 -0.7094  0.6616
 1477SOL    HW2 5131   7.349   5.040   7.370  0.8471  0.5384 -0.0461
 1478SOL     OW 5132   3.934   7.564   5.563  0.3867 -0.1808  0.1109
 1478SOL    HW1 5133   4.027   7.579   5.547  0.3362  0.3713  0.3416
 1478SOL    HW2 5134   3.889   7.627   5.507  0.0996 -1.4932 -1.2233
 1479SOL     OW 5135   1.886   2.096   5.850 -0.1931  0.0269 -0.2277
 1479SOL    HW1 5136   1.866   2.027   5.913  0.7370 -1.3637 -1.3787
 1479SOL    HW2 5137   1.952   2.150   5.895 -0.0769 -0.5138  0.2741
 1480SOL     OW 5138   4.720   5.635   7.555 -0.0974  0.1523  0.1243
 1480SOL    HW1 5139   4.732   5.724   7.519 -0.2277 -0.0622 -0.4665
 1480SOL    HW2 5140   4.774   5.633   7.633  3.5210 -0.6247 -2.1632
 1481SOL     OW 5141   0.860   0.313   0.316 -1.0329  0.3388  0.3837
 1481SOL    HW1 5142   0.816   0.230   0.299 -0.2462  0.3128 -1.7319
 1481SOL    HW2 5143   0.929   0.291   0.378 -0.4026 -0.7368 -0.6648
 1482SOL     OW 5144   3.083   6.340   7.378  0.3241 -0.7175  0.1090
 1482SOL    HW1 5145   3.127   6.271   7.428 -0.5390 -1.5112 -0.1919
 1482SOL    HW2 5146   3.126   6.337   7.292 -1.3357 -2.6258 -0.7404
 1483SOL     OW 5147   6.563   3.892   1.776 -1.1395 -0.8468  0.3603
 1483SOL    HW1 5148   6.479   3.921   1.738 -0.1325  1.5459 -0.2508
 1483SOL    HW2 5149   6.554   3.909   1.869 -0.7365  1.3054  0.0743
 1484SOL     OW 5150   6.697   5.830   3.327  0.2111  0.2710  0.5903
 1484SOL    HW1 5151   6.617   5.826   3.379 -0.5273 -0.5058 -0.5446
 1484SOL    HW2 5152   6.679   5.896   3.260 -0.7846 -2.0935 -1.6389
 1485SOL     OW 5153   2.022   2.430   4.293 -0.1628  0.1722  0.6356
 1485SOL    HW1 5154   2.002   2.336   4.288 -0.4001  0.2699 -0.4282
 1485SOL    HW2 5155   2.021   2.449   4.387 -0.0242 -0.9080  0.8741
 1486SOL     OW 5156   6.251   4.782   3.474  0.2077  0.6403 -0.6362
 1486SOL    HW1 5157   6.284   4.694   3.457  1.6346  1.0729 -0.2223
 1486SOL    HW2 5158   6.167   4.786   3.428  0.1248 -0.9235 -0.6577
 1487SOL     OW 5159   2.074   0.590   7.870  0.1460  0.2661 -0.3103
 1487SOL    HW1 5160   2.157   0.627   7.898 -0.5092  0.7865  1.0191
 1487SOL    HW2 5161   2.009   0.657   7.892 -0.7073 -0.4211 -0.6786
 1488SOL     OW 5162   0.454   0.587   0.703 -0.2691 -0.3311  0.5758
 1488SOL    HW1 5163   0.509   0.653   0.745 -1.4093  1.4489 -0.5698
 1488SOL    HW2 5164   0.501   0.505   0.716  2.0892  0.9279  0.6100
 1489SOL     OW 5165   2.433   0.575   4.922  0.6928 -0.1786 -0.3772
 1489SOL    HW1 5166   2.359   0.603   4.976  1.4922  3.1121 -0.7815
 1489SOL    HW2 5167   2.501   0.553   4.985  0.8082  1.2219  0.0214
 1490SOL     OW 5168   7.120   3.693   7.136  0.4496 -0.3805  0.3760
 1490SOL    HW1 5169   7.091   3.652   7.217 -0.6580 -1.5535 -0.5760
 1490SOL    HW2 5170   7.052   3.672   7.073  1.8393 -0.4906 -1.1552
 1491SOL     OW 5171   1.194   3.126   7.413  0.1424  0.2053  0.4635
 1491SOL    HW1 5172   1.167   3.145   7.323 -0.1227 -1.9978  0.0314
 1491SOL    HW2 5173   1.240   3.205   7.441  0.6913  0.7514 -1.7872
 1492SOL     OW 5174   2.143   3.933   7.560  0.2259  0.0479  0.0237
 1492SOL    HW1 5175   2.231   3.933   7.523 -0.2979  1.7799 -1.3517
 1492SOL    HW2 5176   2.095   3.869   7.507  0.5555 -0.6784  0.5826
 1493SOL     OW 5177   1.280   7.420   3.875 -0.4330  0.4100  0.3782
 1493SOL    HW1 5178   1.306   7.329   3.859  3.8335  1.3633  0.7149
 1493SOL    HW2 5179   1.317   7.441   3.961  0.1447  2.8413 -0.3742
 1494SOL     OW 5180   2.128   2.528   6.159 -0.0833  0.5774  0.2614
 1494SOL    HW1 5181   2.057   2.586   6.132  0.3857  1.0342 -0.0189
 1494SOL    HW2 5182   2.205   2.560   6.111  0.3311  0.1477  0.6234
 1495SOL     OW 5183   2.553   6.620   3.179  0.3567  0.3859 -0.6034
 1495SOL    HW1 5184   2.580   6.579   3.097 -1.6773 -1.5570 -0.3827
 1495SOL    HW2 5185   2.465   6.654   3.162 -0.1157 -0.0660  0.7385
 1496SOL     OW 5186   1.983   4.981   0.124  0.0229  0.5695 -0.4008
 1496SOL    HW1 5187   2.070   4.941   0.115 -0.0779  0.3250 -0.2940
 1496SOL    HW2 5188   1.937   4.954   0.045  0.2813  1.3073 -0.8166
 1497SOL     OW 5189   0.919   4.174   5.748 -0.4466  0.7062  0.4845
 1497SOL    HW1 5190   1.006   4.136   5.764 -0.2679  1.2219  0.7791
 1497SOL    HW2 5191   0.862   4.128   5.809 -0.3773  0.3759  0.3018
 1498SOL     OW 5192   4.506   4.921   6.267 -0.1361  0.1683  0.0634
 1498SOL    HW1 5193   4.493   4.998   6.322 -2.3499 -0.7541  0.9682
 1498SOL    HW2 5194   4.514   4.955   6.178 -0.1073  1.4902  0.5545
 1499SOL     OW 5195   6.246   1.089   2.484  0.2173 -0.2588  0.7036
 1499SOL    HW1 5196   6.267   1.003   2.522  0.1848 -0.5905 -0.0161
 1499SOL    HW2 5197   6.328   1.138   2.490  0.3786 -0.5175  0.6391
 1500SOL     OW 5198   2.796   0.838   4.948 -0.2117 -0.1794  0.3525
 1500SOL    HW1 5199   2.870   0.799   4.995 -2.3894 -2.1980  2.3709
 1500SOL    HW2 5200   2.778   0.919   4.996  0.0413 -0.1969  0.4835
 1501SOL     OW 5201   6.672   0.024   5.910  0.1414 -0.4121 -0.2242
 1501SOL    HW1 5202   6.681   0.112   5.873 -1.0536 -0.5414 -0.8875
 1501SOL    HW2 5203   6.742  -0.026   5.869  1.1460  0.3228  0.5290
 1502SOL     OW 5204   3.243   3.815   1.509 -0.1764 -0.3557  0.0693
 1502SOL    HW1 5205   3.184   3.773   1.447  0.0861 -2.3047  1.0564
 1502SOL    HW2 5206   3.222   3.774   1.593  1.2982  0.2702  0.7799
 1503SOL     OW 5207   1.084   4.695   7.854  0.3521  1.1085  0.0201
 1503SOL    HW1 5208   1.141   4.706   7.778  0.1172 -0.5524 -0.4193
 1503SOL    HW2 5209   1.005   4.653   7.819 -0.5902  2.1003  0.8574
 1504SOL     OW 5210   0.107   7.581   0.229  0.2041  0.0903 -0.2358
 1504SOL    HW1 5211   0.076   7.573   0.320 -2.2197  1.8841 -0.7785
 1504SOL    HW2 5212   0.194   7.620   0.236 -0.1823  0.7568  1.3392
 1505SOL     OW 5213   2.822   6.728   0.928  0.0647  0.1938 -0.2637
 1505SOL    HW1 5214   2.868   6.804   0.963  0.5653 -0.3706  0.3338
 1505SOL    HW2 5215   2.882   6.655   0.941  0.3660 -0.0260 -2.5021
 1506SOL     OW 5216   1.102   1.534   2.510  0.3389 -0.5925 -0.2321
 1506SOL    HW1 5217   1.033   1.599   2.526  0.3653 -0.9225  1.3512
 1506SOL    HW2 5218   1.121   1.497   2.596  0.6976 -2.3417 -1.0167
 1507SOL     OW 5219   4.928   0.167   4.658 -0.0676 -0.0325 -0.2069
 1507SOL    HW1 5220   4.988   0.112   4.709  1.1715 -0.0815 -1.6461
 1507SOL    HW2 5221   4.957   0.256   4.675 -1.4460  0.1738  1.3349
 1508SOL     OW 5222   6.019   2.628   7.558  0.4328  0.4851 -0.4155
 1508SOL    HW1 5223   5.933   2.587   7.549  0.9100 -0.3041 -1.6917
 1508SOL    HW2 5224   6.001   2.722   7.557 -0.5494  0.3572  1.1236
 1509SOL     OW 5225   3.872   6.623   7.901 -0.2938 -0.7470 -0.1604
 1509SOL    HW1 5226   3.869   6.669   7.985  0.7486 -0.3386 -0.3406
 1509SOL    HW2 5227   3.794   6.654   7.854  1.1011  2.0312 -0.8687
 1510SOL     OW 5228   1.916   1.111   7.504  0.4871  0.1226  0.1366
 1510SOL    HW1 5229   1.894   1.152   7.588  0.3760  2.0243 -0.7678
 1510SOL    HW2 5230   1.837   1.062   7.480  0.5764 -0.5670  1.1973
 1511SOL     OW 5231   5.323   1.120   2.102  0.1745  0.1781 -0.0647
 1511SOL    HW1 5232   5.307   1.187   2.036 -0.5838  0.6379  0.5727
 1511SOL    HW2 5233   5.375   1.054   2.056 -1.2806 -0.0639 -1.4658
 1512SOL     OW 5234   7.674   2.866   7.550 -0.0807  0.2882  0.3177
 1512SOL    HW1 5235   7.725   2.786   7.534 -1.0933 -0.4223  0.5564
 1512SOL    HW2 5236   7.692   2.920   7.473  1.7630  0.4771  0.8201
 1513SOL     OW 5237   4.162   4.597   5.643 -0.0327 -0.3851 -0.2523
 1513SOL    HW1 5238   4.249   4.559   5.649 -0.3181 -0.8529  1.3057
 1513SOL    HW2 5239   4.108   4.545   5.704 -0.8459  1.3269  0.5680
 1514SOL     OW 5240   4.991   6.277   1.452  1.0503 -0.1634 -0.4514
 1514SOL    HW1 5241   5.041   6.311   1.377  1.7319 -3.8508 -1.8913
 1514SOL    HW2 5242   5.056   6.230   1.504 -0.0712 -0.7778  0.4299
 1515SOL     OW 5243   7.511   5.182   5.127 -0.5796 -1.0416  0.3044
 1515SOL    HW1 5244   7.518   5.149   5.217 -1.8069 -0.8623  0.4871
 1515SOL    HW2 5245   7.421   5.161   5.101 -1.6618  2.5229  0.6000
 1516SOL     OW 5246   3.236   7.005   6.844 -0.1165 -0.9062 -1.1504
 1516SOL    HW1 5247   3.331   7.004   6.847 -0.0992 -2.7260 -1.4304
 1516SOL    HW2 5248   3.210   7.025   6.934  0.5543 -2.9132 -0.4581
 1517SOL     OW 5249   7.977   7.892   4.093  0.3373  0.0717  0.5859
 1517SOL    HW1 5250   7.888   7.869   4.123 -0.0437  1.7414  0.8123
 1517SOL    HW2 5251   8.010   7.811   4.054 -1.7755 -0.2484 -0.7012
 1518SOL     OW 5252   2.724   6.250   0.587  0.5403 -0.3276 -0.1372
 1518SOL    HW1 5253   2.800   6.247   0.528  0.3490 -0.3516 -0.3859
 1518SOL    HW2 5254   2.733   6.172   0.642  0.8226 -0.2043 -0.0055
 1519SOL     OW 5255   5.951   2.424   2.252 -0.5028 -0.2097 -0.5818
 1519SOL    HW1 5256   6.001   2.422   2.171  1.0288 -0.0361  0.3140
 1519SOL    HW2 5257   5.956   2.334   2.285  0.2162  0.0714  0.0881
 1520SOL     OW 5258   2.342   2.310   3.008  0.0085  0.6353 -0.0136
 1520SOL    HW1 5259   2.414   2.288   3.068 -0.3264 -2.3491 -0.5452
 1520SOL    HW2 5260   2.384   2.349   2.932  0.5606  3.2648  1.5440
 1521SOL     OW 5261   6.696   2.197   1.759  0.2158  0.7900  0.7730
 1521SOL    HW1 5262   6.702   2.279   1.710  0.5752 -0.4735 -1.4162
 1521SOL    HW2 5263   6.781   2.189   1.802  0.7727  0.8422 -0.2739
 1522SOL     OW 5264   6.352   5.745   2.514 -0.2965 -0.3293 -0.0402
 1522SOL    HW1 5265   6.269   5.705   2.488  0.0581 -1.3213  0.3017
 1522SOL    HW2 5266   6.384   5.789   2.435 -1.1240  0.0434 -0.1779
 1523SOL     OW 5267   3.457   3.548   2.226 -0.3036  0.0984  0.1810
 1523SOL    HW1 5268   3.401   3.602   2.281 -0.5068 -0.4760  0.5486
 1523SOL    HW2 5269   3.543   3.552   2.268 -0.5531 -0.6710  0.7887
 1524SOL     OW 5270   6.947   4.737   0.704  0.1681  0.0759  0.4290
 1524SOL    HW1 5271   7.019   4.797   0.721  0.2599  0.9551 -2.4607
 1524SOL    HW2 5272   6.936   4.688   0.785  2.4246  1.5638  1.7299
 1525SOL     OW 5273   7.973   7.546   1.697  0.0840  0.0033 -0.1161
 1525SOL    HW1 5274   8.066   7.535   1.678 -0.3470 -1.1088 -1.7494
 1525SOL    HW2 5275   7.948   7.625   1.649 -0.1262 -0.5328 -0.8989
 1526SOL     OW 5276   0.143   2.655   0.842 -0.3773  0.3841 -0.6335
 1526SOL    HW1 5277   0.123   2.685   0.754 -3.2998 -1.0177 -0.5652
 1526SOL    HW2 5278   0.094   2.715   0.899  0.2083  0.3251 -0.0603
 1527SOL     OW 5279   2.219   7.970   0.741  0.0476  0.0987 -0.0751
 1527SOL    HW1 5280   2.286   7.930   0.795  0.4763  1.0991  0.1531
 1527SOL    HW2 5281   2.240   8.063   0.741 -2.6223  0.8701  1.9584
 1528SOL     OW 5282   4.455   5.979   0.842 -0.0690 -0.0968  0.0511
 1528SOL    HW1 5283   4.478   5.891   0.872  0.8862 -0.6562 -2.1321
 1528SOL    HW2 5284   4.532   6.032   0.864  0.9191 -0.6519 -1.8182
 1529SOL     OW 5285   1.881   0.415   0.291  0.1377 -0.0962 -0.1773
 1529SOL    HW1 5286   1.948   0.352   0.263 -1.6381 -2.6541  0.9988
 1529SOL    HW2 5287   1.880   0.409   0.386 -0.7807  0.9715 -0.1016
 1530SOL     OW 5288   2.587   6.199   5.814  0.0732  0.3398 -0.3545
 1530SOL    HW1 5289   2.557   6.139   5.746 -0.0706 -0.3999  0.3389
 1530SOL    HW2 5290   2.683   6.192   5.813  0.0725  0.3656 -0.5119
 1531SOL     OW 5291   6.181   2.411   6.182  0.1732  0.1946  0.2237
 1531SOL    HW1 5292   6.134   2.485   6.218  1.8785 -0.0468  3.3748
 1531SOL    HW2 5293   6.270   2.420   6.216  1.0513 -2.0764 -1.1744
 1532SOL     OW 5294   4.567   5.122   5.004  0.2017  0.2631  0.0388
 1532SOL    HW1 5295   4.575   5.217   5.014  0.4236  0.1026  1.6303
 1532SOL    HW2 5296   4.472   5.107   4.997  0.1591  0.5864 -0.0982
 1533SOL     OW 5297   3.618   5.794   7.442  0.4645 -0.2051 -0.1877
 1533SOL    HW1 5298   3.563   5.848   7.385  0.6688 -0.2556 -0.4324
 1533SOL    HW2 5299   3.707   5.829   7.430  0.6551 -0.8350 -0.6247
 1534SOL     OW 5300   6.219   4.212   6.406 -0.8527  0.1927  0.4718
 1534SOL    HW1 5301   6.129   4.244   6.402 -0.9802  0.0504  1.6949
 1534SOL    HW2 5302   6.213   4.118   6.388 -1.1200 -0.0437  1.7026
 1535SOL     OW 5303   7.672   7.363   0.572  0.0219 -0.6334 -0.5094
 1535SOL    HW1 5304   7.657   7.268   0.569  0.1866 -0.6403 -3.0714
 1535SOL    HW2 5305   7.761   7.374   0.541 -0.5473  0.4342 -1.8414
 1536SOL     OW 5306   0.394   7.714   0.253 -0.0165  0.3665 -0.2566
 1536SOL    HW1 5307   0.371   7.798   0.212  2.0325  1.0558 -0.1378
 1536SOL    HW2 5308   0.490   7.717   0.260  0.3113 -2.6919 -1.7294
 1537SOL     OW 5309   6.081   7.762   3.715 -0.2470 -0.0254 -0.6607
 1537SOL    HW1 5310   6.054   7.853   3.727 -1.2469 -0.4031  0.0519
 1537SOL    HW2 5311   6.033   7.733   3.638 -0.3352 -0.1105 -0.5730
 1538SOL     OW 5312   4.369   0.974   4.780 -0.4628  0.8253  0.4396
 1538SOL    HW1 5313   4.279   0.979   4.748  0.0178  0.2896 -1.1129
 1538SOL    HW2 5314   4.421   1.015   4.710  0.3635  2.8195  2.1114
 1539SOL     OW 5315   0.365   0.850   6.010 -0.1606  0.5541  1.0413
 1539SOL    HW1 5316   0.345   0.793   5.936 -1.6288 -0.5536  2.2250
 1539SOL    HW2 5317   0.380   0.936   5.971 -1.9071  0.2288 -0.4692
 1540SOL     OW 5318   2.433   0.864   0.649 -0.0504  0.1799 -0.1215
 1540SOL    HW1 5319   2.443   0.911   0.732  1.6149  1.4197 -0.9608
 1540SOL    HW2 5320   2.519   0.869   0.609 -0.8997 -0.1148 -2.0710
 1541SOL     OW 5321   4.558   6.545   3.869  0.0020 -0.0454  0.0979
 1541SOL    HW1 5322   4.629   6.590   3.913  0.0796 -0.4993  0.4442
 1541SOL    HW2 5323   4.479   6.571   3.916  0.1606 -1.0888  0.9800
 1542SOL     OW 5324   0.749   4.971   6.038 -0.3727  0.1148  0.2263
 1542SOL    HW1 5325   0.827   4.920   6.063  0.6961  1.1681 -0.8270
 1542SOL    HW2 5326   0.777   5.062   6.048 -1.1604  0.5147 -1.1146
 1543SOL     OW 5327   7.757   7.463   1.011  0.0571  0.9410 -0.3641
 1543SOL    HW1 5328   7.846   7.430   1.000  0.3797  1.8499 -0.5777
 1543SOL    HW2 5329   7.768   7.544   1.061 -0.9289 -0.4343  2.2992
 1544SOL     OW 5330   4.337   1.535   1.832 -0.1640  0.5885 -0.3088
 1544SOL    HW1 5331   4.317   1.485   1.910 -0.2794 -0.2476 -0.8661
 1544SOL    HW2 5332   4.293   1.619   1.845  0.5964  0.8069  0.9276
 1545SOL     OW 5333   7.614   3.696   2.953  0.2220  0.1783 -0.1793
 1545SOL    HW1 5334   7.600   3.639   2.878 -1.2468 -1.5288  1.2895
 1545SOL    HW2 5335   7.543   3.760   2.949  0.7118  0.7042 -0.7349
 1546SOL     OW 5336   3.521   4.291   0.966  0.5222 -0.1452  0.0303
 1546SOL    HW1 5337   3.456   4.241   0.916 -0.3810 -0.6224  1.5946
 1546SOL    HW2 5338   3.508   4.382   0.939 -0.3375 -0.3221 -0.1754
 1547SOL     OW 5339   3.201   4.600   4.953  0.0464 -0.2063  0.3193
 1547SOL    HW1 5340   3.260   4.616   4.880 -0.0096  0.1324  0.3451
 1547SOL    HW2 5341   3.229   4.662   5.020 -1.2007  0.9232 -0.1627
 1548SOL     OW 5342   0.962   6.404   5.776 -0.1719  0.0992  0.1025
 1548SOL    HW1 5343   0.940   6.474   5.714  0.3398  1.1151  1.0294
 1548SOL    HW2 5344   1.047   6.371   5.746  1.3926  2.3757  1.6737
 1549SOL     OW 5345   4.112   0.906   5.146 -0.1984 -0.1624 -0.0562
 1549SOL    HW1 5346   4.084   0.875   5.232  0.6851 -1.0215 -0.0624
 1549SOL    HW2 5347   4.087   0.836   5.086  2.2972 -1.2251 -0.0011
 1550SOL     OW 5348   4.042   4.871   0.222  0.1811 -0.0493  0.0250
 1550SOL    HW1 5349   4.062   4.816   0.298  3.0773 -1.8623 -1.8610
 1550SOL    HW2 5350   3.959   4.836   0.189  1.1507 -2.2954 -0.1897
 1551SOL     OW 5351   6.049   6.795   3.238  0.6399  0.2933  0.7564
 1551SOL    HW1 5352   5.968   6.801   3.289 -0.4921  0.2226 -0.9357
 1551SOL    HW2 5353   6.116   6.772   3.302 -0.4378  1.5469  2.4240
 1552SOL     OW 5354   4.822   0.551   3.713  0.0264 -0.2477 -0.3326
 1552SOL    HW1 5355   4.753   0.505   3.664 -0.3941 -0.4290  0.4165
 1552SOL    HW2 5356   4.796   0.643   3.709 -0.6151 -0.3831  0.4852
 1553SOL     OW 5357   2.560   2.688   2.193 -0.0925 -0.4148  0.0677
 1553SOL    HW1 5358   2.575   2.684   2.098  0.7975 -0.7663  0.2186
 1553SOL    HW2 5359   2.559   2.782   2.213 -0.5331 -0.3328 -0.3238
 1554SOL     OW 5360   7.283   0.329   4.769 -0.1075  0.4222 -0.4309
 1554SOL    HW1 5361   7.339   0.307   4.695  0.4929  2.2522 -0.5527
 1554SOL    HW2 5362   7.194   0.310   4.738  0.2361 -0.0864 -1.1338
 1555SOL     OW 5363   1.599   2.724   3.195 -0.1682  0.4821 -0.3806
 1555SOL    HW1 5364   1.540   2.694   3.126 -0.8138 -0.3525  0.4925
 1555SOL    HW2 5365   1.615   2.816   3.176 -0.5593  0.3334 -1.4698
 1556SOL     OW 5366   6.367   1.886   5.435 -0.2234 -0.4049 -0.0850
 1556SOL    HW1 5367   6.456   1.879   5.469  0.4499 -0.7080 -1.8199
 1556SOL    HW2 5368   6.320   1.936   5.502  0.7964 -1.6316  1.6521
 1557SOL     OW 5369   2.575   5.728   2.948 -0.2863  0.3101 -0.1157
 1557SOL    HW1 5370   2.560   5.634   2.957 -0.3128  0.2733 -0.5404
 1557SOL    HW2 5371   2.491   5.768   2.971 -1.3307  0.0779 -3.1223
 1558SOL     OW 5372   4.346   4.541   4.184  0.0417  0.2783 -0.4193
 1558SOL    HW1 5373   4.397   4.616   4.215  0.6262  0.1719 -1.1070
 1558SOL    HW2 5374   4.393   4.510   4.106 -0.8692 -0.0598 -0.8428
 1559SOL     OW 5375   5.906   0.655   4.292 -0.2488 -0.4840  0.3266
 1559SOL    HW1 5376   5.860   0.606   4.224  1.8467 -1.5391 -0.4172
 1559SOL    HW2 5377   5.883   0.747   4.276  0.0626 -0.7225 -1.7186
 1560SOL     OW 5378   2.752   4.837   4.369 -0.0188  0.0821  0.6627
 1560SOL    HW1 5379   2.805   4.857   4.446 -0.1469  2.0324  0.2997
 1560SOL    HW2 5380   2.765   4.743   4.354  1.6546  0.0957  1.8091
 1561SOL     OW 5381   6.646   0.840   3.249  0.8191  0.1395 -0.0850
 1561SOL    HW1 5382   6.660   0.748   3.268  1.2605  0.0369 -0.8738
 1561SOL    HW2 5383   6.564   0.862   3.294  0.7147 -0.6318  0.1063
 1562SOL     OW 5384   6.180   1.372   2.559  0.3191  0.2673  0.3511
 1562SOL    HW1 5385   6.176   1.276   2.561  0.3274  0.2018 -1.5709
 1562SOL    HW2 5386   6.089   1.399   2.572  0.0782 -0.0606 -0.5620
 1563SOL     OW 5387   3.504   1.731   1.560 -0.3627 -0.5227  0.7356
 1563SOL    HW1 5388   3.519   1.824   1.548 -0.7306 -0.6207 -0.6186
 1563SOL    HW2 5389   3.484   1.721   1.653  0.2864  0.6544  1.0086
 1564SOL     OW 5390   2.165   4.929   7.148 -0.0903  1.1022  0.1816
 1564SOL    HW1 5391   2.118   5.013   7.140 -3.3752 -0.6758 -1.1949
 1564SOL    HW2 5392   2.150   4.901   7.238 -1.7743  0.5859 -0.2245
 1565SOL     OW 5393   2.804   6.277   6.526  0.2084  1.0524  0.2022
 1565SOL    HW1 5394   2.714   6.261   6.497  0.0607 -0.4020  1.3483
 1565SOL    HW2 5395   2.813   6.372   6.527 -1.6620  1.2545  1.0758
 1566SOL     OW 5396   2.752   3.852   6.234 -0.0265  0.3671 -0.4456
 1566SOL    HW1 5397   2.665   3.816   6.246  0.5391 -0.8121  0.2759
 1566SOL    HW2 5398   2.799   3.832   6.315  1.1465  0.2773 -1.1126
 1567SOL     OW 5399   2.936   7.810   6.996  0.7103 -0.8999 -0.2536
 1567SOL    HW1 5400   2.925   7.722   7.031 -1.7644 -1.1671 -1.4994
 1567SOL    HW2 5401   2.914   7.802   6.903  0.9151  0.9474 -0.4993
 1568SOL     OW 5402   7.576   5.955   6.057  0.3008 -0.7194  0.1771
 1568SOL    HW1 5403   7.604   6.045   6.037 -1.7661 -0.1659 -0.4625
 1568SOL    HW2 5404   7.543   5.921   5.974 -3.8455 -0.1250  1.3495
 1569SOL     OW 5405   5.382   2.796   4.110  0.2888 -0.3983  0.2853
 1569SOL    HW1 5406   5.477   2.799   4.097  0.4592  1.3857  1.5699
 1569SOL    HW2 5407   5.370   2.750   4.193  0.2206  1.1069  1.1623
 1570SOL     OW 5408   5.650   2.574   3.426  0.0362 -0.2783 -0.3752
 1570SOL    HW1 5409   5.561   2.540   3.428 -0.3388  0.6594  1.4268
 1570SOL    HW2 5410   5.681   2.556   3.338 -1.7363 -1.1223 -0.8687
 1571SOL     OW 5411   7.086   2.648   1.800 -0.2348 -0.1275  0.1244
 1571SOL    HW1 5412   7.161   2.686   1.753 -0.7240  0.6459 -0.0432
 1571SOL    HW2 5413   7.049   2.720   1.850  0.3784 -0.9670  1.8971
 1572SOL     OW 5414   1.730   1.210   6.328 -0.2424  0.0625  0.1943
 1572SOL    HW1 5415   1.699   1.120   6.342  1.7987 -1.0318 -1.5655
 1572SOL    HW2 5416   1.823   1.206   6.350 -0.2274  1.8988  0.5622
 1573SOL     OW 5417   1.773   4.232   5.628  0.0837 -0.0176 -0.3931
 1573SOL    HW1 5418   1.782   4.312   5.576 -0.3094  0.1514 -0.2094
 1573SOL    HW2 5419   1.834   4.244   5.701  0.0931  0.0751 -0.4158
 1574SOL     OW 5420   6.868   0.184   3.300  0.1962  0.0290  0.7314
 1574SOL    HW1 5421   6.905   0.124   3.235  0.4070 -2.0435  2.6657
 1574SOL    HW2 5422   6.943   0.214   3.351 -0.1068  0.6862  0.7987
 1575SOL     OW 5423   1.465   4.758   5.863  0.4135 -0.0900  0.1567
 1575SOL    HW1 5424   1.528   4.761   5.935 -0.2823 -1.5276  0.8822
 1575SOL    HW2 5425   1.488   4.679   5.814 -0.3172 -0.1998 -0.0266
 1576SOL     OW 5426   3.987   7.743   1.034  0.4008  0.2072  0.5368
 1576SOL    HW1 5427   3.919   7.745   1.102  1.9058 -1.6049  2.2289
 1576SOL    HW2 5428   3.979   7.656   0.995 -0.2078  1.1037 -1.4340
 1577SOL     OW 5429   1.280   1.044   5.295 -0.2401 -0.1691 -0.0578
 1577SOL    HW1 5430   1.205   1.089   5.255 -0.2049  1.1760  1.2822
 1577SOL    HW2 5431   1.320   0.995   5.223 -3.0289 -1.8780 -0.6167
 1578SOL     OW 5432   2.974   4.658   6.822  0.2408 -0.0047  0.9794
 1578SOL    HW1 5433   2.917   4.716   6.873 -0.3076 -0.6699  1.1294
 1578SOL    HW2 5434   3.036   4.718   6.779 -0.9294  0.7816  0.3385
 1579SOL     OW 5435   2.310   5.930   4.511 -0.3151 -0.0085 -0.3711
 1579SOL    HW1 5436   2.295   5.922   4.417  0.4450 -0.0552 -0.4965
 1579SOL    HW2 5437   2.284   5.846   4.547 -0.3021 -0.1050 -0.5867
 1580SOL     OW 5438   7.528   5.672   0.642 -0.4571  0.2201 -0.1896
 1580SOL    HW1 5439   7.552   5.750   0.693 -1.2669  0.6835 -0.5034
 1580SOL    HW2 5440   7.592   5.669   0.570 -0.6918  0.8390 -0.4244
 1581SOL     OW 5441   5.007   3.930   1.129 -0.5516 -0.4300  0.0389
 1581SOL    HW1 5442   4.988   4.024   1.133 -2.8841 -0.9078  1.8918
 1581SOL    HW2 5443   4.988   3.906   1.039  0.4842  0.8984 -0.5859
 1582SOL     OW 5444   0.756   5.496   6.637  0.4422  0.0784  0.6159
 1582SOL    HW1 5445   0.778   5.580   6.677 -1.5008  0.7830  0.2915
 1582SOL    HW2 5446   0.798   5.499   6.550  0.4678  0.6683  0.6447
 1583SOL     OW 5447   5.838   2.817   0.633 -0.4059 -0.3783  0.7401
 1583SOL    HW1 5448   5.844   2.899   0.584 -0.1422 -2.4215 -2.9980
 1583SOL    HW2 5449   5.926   2.802   0.666  0.1156 -0.2439 -0.5447
 1584SOL     OW 5450   4.025   4.519   4.448 -0.3894 -0.5107  0.0046
 1584SOL    HW1 5451   4.043   4.611   4.431 -1.8893 -0.2492 -0.3332
 1584SOL    HW2 5452   4.052   4.474   4.368 -0.2713 -0.2733 -0.0879
 1585SOL     OW 5453   2.262   3.832   0.850 -0.4371  0.2411  0.0903
 1585SOL    HW1 5454   2.307   3.913   0.874 -0.7936  0.8311 -1.1423
 1585SOL    HW2 5455   2.180   3.862   0.811 -2.2205 -0.8039  2.7740
 1586SOL     OW 5456   0.383   5.503   5.688  0.4638  0.2208 -0.3141
 1586SOL    HW1 5457   0.308   5.561   5.677  1.3986  1.5268  0.0754
 1586SOL    HW2 5458   0.348   5.429   5.738 -0.4745  0.9868  0.2028
 1587SOL     OW 5459   3.219   5.431   2.036 -0.1419 -0.7991  0.4621
 1587SOL    HW1 5460   3.183   5.408   2.122 -0.7670 -1.3703  0.0648
 1587SOL    HW2 5461   3.303   5.387   2.032  0.2465 -0.1257  1.0866
 1588SOL     OW 5462   6.360   6.743   5.555  0.1132  0.4656 -0.4191
 1588SOL    HW1 5463   6.279   6.780   5.520 -2.2047 -2.1915  1.6956
 1588SOL    HW2 5464   6.379   6.670   5.497  2.1201  2.0545 -1.9215
 1589SOL     OW 5465   4.250   4.626   2.129 -0.4448 -0.0955 -0.4208
 1589SOL    HW1 5466   4.321   4.591   2.183 -1.7589 -0.3091  1.2829
 1589SOL    HW2 5467   4.238   4.561   2.060  0.4886 -0.4325 -0.2821
 1590SOL     OW 5468   2.836   5.765   4.943  0.3315 -0.2605 -0.2133
 1590SOL    HW1 5469   2.835   5.858   4.921 -0.4268 -0.1569  0.2234
 1590SOL    HW2 5470   2.910   5.729   4.894  0.9108  0.6589 -0.0332
 1591SOL     OW 5471   1.240   7.564   2.957  0.4141  0.1897 -0.2688
 1591SOL    HW1 5472   1.264   7.484   2.911  1.6845  0.0556  0.5706
 1591SOL    HW2 5473   1.256   7.545   3.050  0.2288  1.2404 -0.0016
 1592SOL     OW 5474   0.386   2.275   4.882 -0.0374 -0.0046  0.7824
 1592SOL    HW1 5475   0.338   2.357   4.894  0.6773  0.5242  0.1590
 1592SOL    HW2 5476   0.387   2.235   4.969 -0.1482  0.7968  1.1637
 1593SOL     OW 5477   1.612   1.583   5.052 -0.3488  0.1346 -0.2380
 1593SOL    HW1 5478   1.696   1.606   5.091  0.6304 -1.6675 -1.1744
 1593SOL    HW2 5479   1.626   1.497   5.013 -2.5631 -0.0969 -0.6574
 1594SOL     OW 5480   0.289   3.128   6.386 -0.0067  0.2267 -0.1299
 1594SOL    HW1 5481   0.356   3.134   6.454  0.4121  0.7366 -0.5790
 1594SOL    HW2 5482   0.332   3.161   6.307 -0.5873 -0.0499 -0.5712
 1595SOL     OW 5483   3.139   1.240   2.390  0.3876 -0.1117 -0.0442
 1595SOL    HW1 5484   3.137   1.175   2.460 -2.2077  1.5828  1.6115
 1595SOL    HW2 5485   3.112   1.192   2.312  3.1204 -1.9915  0.0205
 1596SOL     OW 5486   0.854   6.125   0.810  0.6219  0.1606 -0.4685
 1596SOL    HW1 5487   0.791   6.064   0.848  0.3638 -0.2021 -1.4518
 1596SOL    HW2 5488   0.919   6.140   0.879  0.4734 -0.9209 -0.0850
 1597SOL     OW 5489   1.612   2.386   3.050 -0.3542  0.1800  0.4195
 1597SOL    HW1 5490   1.518   2.385   3.069 -0.3528 -1.1801  0.4154
 1597SOL    HW2 5491   1.618   2.360   2.958  0.0131  0.5900  0.3245
 1598SOL     OW 5492   7.588   6.551   1.338 -0.2761  0.2070 -0.7217
 1598SOL    HW1 5493   7.533   6.622   1.371 -0.0191  1.1040 -2.1695
 1598SOL    HW2 5494   7.669   6.594   1.310 -0.2680 -0.6033 -1.9885
 1599SOL     OW 5495   7.053   4.939   7.440 -0.0129 -0.0533 -0.4328
 1599SOL    HW1 5496   7.138   4.977   7.419 -0.5105  0.5779 -1.3810
 1599SOL    HW2 5497   7.005   4.940   7.357 -0.9747 -0.3209  0.1034
 1600SOL     OW 5498   5.270   3.082   4.927 -0.0331  0.1319  0.2015
 1600SOL    HW1 5499   5.191   3.033   4.952 -0.0713 -0.2691 -0.6554
 1600SOL    HW2 5500   5.250   3.172   4.949 -0.5390 -0.0370  0.4575
 1601SOL     OW 5501   4.877   1.851   5.331 -0.1698 -0.1070 -0.1273
 1601SOL    HW1 5502   4.962   1.809   5.321 -0.9015 -1.3807 -1.4375
 1601SOL    HW2 5503   4.824   1.786   5.377 -1.1738 -0.4488 -1.7090
 1602SOL     OW 5504   0.277   1.620   4.979  0.3455 -0.0051  0.4535
 1602SOL    HW1 5505   0.246   1.709   4.997  2.2842  0.6050  1.0380
 1602SOL    HW2 5506   0.202   1.564   5.000 -1.2368  1.5080 -0.8471
 1603SOL     OW 5507   7.406   7.867   6.682  0.6615  0.3317  0.0630
 1603SOL    HW1 5508   7.482   7.847   6.629 -0.7394 -1.3354 -1.4251
 1603SOL    HW2 5509   7.338   7.893   6.619 -0.1502  1.3990  1.3087
 1604SOL     OW 5510   3.263   3.222   6.723 -0.1689 -0.3061  0.0490
 1604SOL    HW1 5511   3.224   3.157   6.664  1.8147 -0.3274 -1.3296
 1604SOL    HW2 5512   3.355   3.199   6.726  0.1105  0.8453  1.7212
 1605SOL     OW 5513   3.373   1.962   0.159  0.1213 -0.1356  0.2373
 1605SOL    HW1 5514   3.286   1.923   0.164  0.2601 -0.5441 -0.4848
 1605SOL    HW2 5515   3.433   1.892   0.184  0.3779 -0.4573 -1.1682
 1606SOL     OW 5516   5.433   4.171   2.381  0.2025  0.3112 -0.1917
 1606SOL    HW1 5517   5.526   4.193   2.393 -0.3560  2.9562  0.0102
 1606SOL    HW2 5518   5.396   4.177   2.470 -0.3315  0.2766 -0.4089
 1607SOL     OW 5519   5.661   4.290   7.639  0.0020  0.4214  0.0985
 1607SOL    HW1 5520   5.703   4.337   7.711  0.4788 -0.8622  0.6890
 1607SOL    HW2 5521   5.576   4.264   7.675  0.0669  0.1428  0.0501
 1608SOL     OW 5522   0.388   4.550   3.815  0.2317  0.1429 -0.0876
 1608SOL    HW1 5523   0.453   4.619   3.809  0.8540 -0.5021 -1.0340
 1608SOL    HW2 5524   0.411   4.501   3.895  1.7492 -0.8904 -1.1210
 1609SOL     OW 5525   5.272   6.104   0.654 -0.8107  0.3244  0.3572
 1609SOL    HW1 5526   5.245   6.153   0.732 -0.8484 -0.5326  0.8895
 1609SOL    HW2 5527   5.222   6.023   0.658  1.9874 -1.4807  1.5364
 1610SOL     OW 5528   0.949   1.083   6.325  0.2431  0.1483 -0.1793
 1610SOL    HW1 5529   0.859   1.114   6.311  0.1440  0.1479  0.4325
 1610SOL    HW2 5530   0.968   1.029   6.248 -0.6080 -0.5870  0.1049
 1611SOL     OW 5531   5.590   3.416   4.330  0.3131 -0.2515  0.2002
 1611SOL    HW1 5532   5.531   3.398   4.404  1.3614  0.0582  1.1479
 1611SOL    HW2 5533   5.584   3.510   4.316  0.8748 -0.1478  0.5878
 1612SOL     OW 5534   2.292   7.195   3.677  0.1462  0.2566  0.2169
 1612SOL    HW1 5535   2.334   7.278   3.655 -0.7024  0.6669  0.0703
 1612SOL    HW2 5536   2.300   7.142   3.597 -0.6217  0.7693 -0.2237
 1613SOL     OW 5537   0.796   2.586   4.127 -0.1516 -0.1973  0.0714
 1613SOL    HW1 5538   0.830   2.520   4.187  1.3249  1.8941  1.6745
 1613SOL    HW2 5539   0.749   2.647   4.182 -0.8826  0.4998 -1.2679
 1614SOL     OW 5540   1.330   6.784   7.495 -0.3094  0.2806 -0.0785
 1614SOL    HW1 5541   1.371   6.852   7.441  0.5246  0.5247  0.8387
 1614SOL    HW2 5542   1.361   6.802   7.584 -1.4924 -0.2406  0.4573
 1615SOL     OW 5543   2.582   5.819   6.274 -0.4039 -0.0723  0.2963
 1615SOL    HW1 5544   2.592   5.746   6.213 -0.5939 -0.5321  0.8041
 1615SOL    HW2 5545   2.644   5.885   6.244 -0.5275 -0.2793 -0.4140
 1616SOL     OW 5546   5.069   5.837   4.826 -0.2726  0.2514 -0.7305
 1616SOL    HW1 5547   5.009   5.803   4.759  0.0860  1.1687 -1.5418
 1616SOL    HW2 5548   5.074   5.931   4.808  0.3308  0.4106  0.2031
 1617SOL     OW 5549   1.082   0.640   4.527  0.7550 -0.1008  0.2535
 1617SOL    HW1 5550   1.169   0.600   4.535  1.5239  1.7393  2.2300
 1617SOL    HW2 5551   1.093   0.707   4.460  0.4825 -0.7140 -0.4150
 1618SOL     OW 5552   1.776   3.055   4.311 -0.1445 -0.0878 -0.0328
 1618SOL    HW1 5553   1.702   3.104   4.274  0.3002 -0.0971 -0.9836
 1618SOL    HW2 5554   1.807   3.109   4.383 -1.8902 -0.7241  1.2464
 1619SOL     OW 5555   3.418   3.524   0.350  0.7275  0.2957 -0.1111
 1619SOL    HW1 5556   3.407   3.605   0.401  1.2651  0.3356 -0.0428
 1619SOL    HW2 5557   3.481   3.473   0.402  0.8764  0.1105 -0.4759
 1620SOL     OW 5558   1.353   4.842   7.366  0.3349 -0.5529  0.1035
 1620SOL    HW1 5559   1.350   4.895   7.446 -1.2743  1.5016 -1.2049
 1620SOL    HW2 5560   1.403   4.895   7.304 -0.4867 -0.9928 -0.9694
 1621SOL     OW 5561   4.245   6.673   5.980  0.2798 -0.4411 -0.0769
 1621SOL    HW1 5562   4.191   6.607   6.022  1.3764 -1.5412 -0.3235
 1621SOL    HW2 5563   4.252   6.644   5.889  0.0305  0.5206 -0.4125
 1622SOL     OW 5564   7.385   3.205   4.930 -0.1907 -0.0725 -0.0276
 1622SOL    HW1 5565   7.417   3.137   4.870  2.5405  0.2655  0.8987
 1622SOL    HW2 5566   7.462   3.260   4.947 -0.9166  0.0926  3.4274
 1623SOL     OW 5567   5.215   3.843   1.921  0.4166  0.1706  0.4237
 1623SOL    HW1 5568   5.249   3.924   1.882  1.4463  0.2969  1.5416
 1623SOL    HW2 5569   5.288   3.807   1.970 -0.8301  0.0530  2.2922
 1624SOL     OW 5570   1.614   6.900   6.339  0.5687  0.0484  0.2675
 1624SOL    HW1 5571   1.551   6.969   6.359  0.8124  0.1542  0.6827
 1624SOL    HW2 5572   1.631   6.910   6.246 -1.9063 -1.5563 -0.4462
 1625SOL     OW 5573   4.192   1.381   6.563 -0.8797 -0.2622 -0.2375
 1625SOL    HW1 5574   4.131   1.436   6.513 -1.0018 -0.0514  0.1424
 1625SOL    HW2 5575   4.245   1.337   6.496 -0.9409  0.1356 -0.5486
 1626SOL     OW 5576   0.513   1.380   2.054  0.1051 -0.2010 -0.2985
 1626SOL    HW1 5577   0.537   1.460   2.007  1.3465  0.2768  1.0597
 1626SOL    HW2 5578   0.572   1.313   2.019  2.0761  0.4741  1.4485
 1627SOL     OW 5579   6.930   4.435   1.192  0.0144 -0.3299  0.1335
 1627SOL    HW1 5580   6.839   4.417   1.216 -0.4954 -0.4733 -1.7566
 1627SOL    HW2 5581   6.964   4.486   1.265 -1.3673 -0.8741  1.2068
 1628SOL     OW 5582   3.921   2.637   4.439 -0.2997  0.0112 -0.7575
 1628SOL    HW1 5583   3.909   2.545   4.465  0.2014  0.3855  0.9553
 1628SOL    HW2 5584   3.943   2.681   4.521  0.7076  1.4447 -1.7693
 1629SOL     OW 5585   4.821   7.264   5.164 -0.3641 -0.5085 -0.4504
 1629SOL    HW1 5586   4.782   7.310   5.089 -0.6385 -0.3672 -0.2216
 1629SOL    HW2 5587   4.747   7.224   5.208 -0.3505  0.3975  0.4314
 1630SOL     OW 5588   0.303   7.004   4.665  0.4312  0.0107 -0.8550
 1630SOL    HW1 5589   0.326   7.089   4.628  1.5571 -0.4820 -1.3162
 1630SOL    HW2 5590   0.358   6.941   4.619  2.6658 -0.5702  2.2668
 1631SOL     OW 5591   1.906   5.665   2.107  0.2912 -0.4450  0.1759
 1631SOL    HW1 5592   1.970   5.663   2.179  0.6285  0.5755 -0.0761
 1631SOL    HW2 5593   1.940   5.732   2.047 -0.8438 -0.1237 -0.1286
 1632SOL     OW 5594   3.792   2.796   5.711 -0.1958 -0.3582  0.0829
 1632SOL    HW1 5595   3.832   2.814   5.626  2.6339 -1.8317  1.0000
 1632SOL    HW2 5596   3.837   2.854   5.772 -0.1336 -1.3323  0.9999
 1633SOL     OW 5597   7.348   3.204   0.862  0.3008  0.5136  0.3468
 1633SOL    HW1 5598   7.371   3.127   0.914 -0.6064 -0.5893 -0.8385
 1633SOL    HW2 5599   7.352   3.276   0.925  2.4724 -0.2514  1.1952
 1634SOL     OW 5600   6.340   4.445   3.848  0.2424 -0.2540 -0.0278
 1634SOL    HW1 5601   6.337   4.471   3.941 -0.5012  1.0621 -0.3858
 1634SOL    HW2 5602   6.248   4.443   3.822  0.4810 -0.0434 -0.8944
 1635SOL     OW 5603   2.394   5.966   3.688 -0.2540 -0.2600  0.1337
 1635SOL    HW1 5604   2.460   5.933   3.627 -2.2980 -1.1955 -1.7029
 1635SOL    HW2 5605   2.339   6.025   3.635 -0.6063  0.9229  1.7306
 1636SOL     OW 5606   2.837   7.251   4.321 -0.6257  0.1459 -0.3309
 1636SOL    HW1 5607   2.931   7.268   4.323 -0.5089 -0.0332 -2.1535
 1636SOL    HW2 5608   2.824   7.177   4.380  0.4259 -0.0333 -0.3149
 1637SOL     OW 5609   2.165   3.784   5.333  0.2800  0.5979 -0.2795
 1637SOL    HW1 5610   2.193   3.760   5.422  0.5087  2.0858  0.0794
 1637SOL    HW2 5611   2.130   3.873   5.343 -2.9501 -0.4708 -1.0419
 1638SOL     OW 5612   6.824   6.164   5.479  0.2395 -0.4665 -0.4298
 1638SOL    HW1 5613   6.854   6.124   5.398 -0.8932 -0.6062 -0.7978
 1638SOL    HW2 5614   6.737   6.127   5.493 -0.8265  1.7340 -0.7317
 1639SOL     OW 5615   6.105   2.676   6.796 -0.1423 -0.3371 -0.2387
 1639SOL    HW1 5616   6.126   2.761   6.758 -1.1107 -0.4292 -1.0313
 1639SOL    HW2 5617   6.030   2.694   6.853  1.7308 -0.0636  2.2864
 1640SOL     OW 5618   2.369   2.581   6.014 -0.5292  0.5291  0.1581
 1640SOL    HW1 5619   2.406   2.660   5.974  1.0575 -0.9349 -1.4088
 1640SOL    HW2 5620   2.442   2.543   6.064 -1.0373 -0.3936  0.2136
 1641SOL     OW 5621   1.534   5.084   5.705 -0.6840  0.4103 -0.1354
 1641SOL    HW1 5622   1.552   5.031   5.782  0.5940  1.4974  0.3399
 1641SOL    HW2 5623   1.534   5.174   5.737  0.2620  0.9134 -1.4497
 1642SOL     OW 5624   5.487   5.165   4.672 -0.4983 -0.3400  0.4306
 1642SOL    HW1 5625   5.397   5.170   4.639 -0.0445  1.1482 -0.7381
 1642SOL    HW2 5626   5.540   5.154   4.593  0.3685 -1.2965  1.1145
 1643SOL     OW 5627   0.533   1.866   0.917  0.1464 -0.5925  0.1184
 1643SOL    HW1 5628   0.553   1.944   0.866 -2.0100  1.0392  1.5905
 1643SOL    HW2 5629   0.444   1.842   0.892 -0.3903 -0.6610  1.9724
 1644SOL     OW 5630   0.034   5.087   4.128 -0.1685 -0.7817  0.2283
 1644SOL    HW1 5631   0.012   5.148   4.199  2.0256  0.3702  0.0186
 1644SOL    HW2 5632   0.068   5.144   4.058  0.3382 -2.1240 -0.6479
 1645SOL     OW 5633   7.953   3.606   4.538  0.0891  0.5521 -0.4915
 1645SOL    HW1 5634   7.898   3.667   4.489  1.5986  0.6307 -2.2136
 1645SOL    HW2 5635   8.042   3.640   4.527  0.5535  0.2874  1.9683
 1646SOL     OW 5636   3.786   6.164   2.413 -0.2509 -0.7884  0.1741
 1646SOL    HW1 5637   3.870   6.138   2.451 -0.2724 -0.8653  0.1697
 1646SOL    HW2 5638   3.745   6.218   2.480 -1.0915 -2.4245  1.0252
 1647SOL     OW 5639   7.199   6.262   3.981  0.5582  0.0543  0.0739
 1647SOL    HW1 5640   7.262   6.297   4.044  0.1118 -1.1273  1.2428
 1647SOL    HW2 5641   7.246   6.191   3.937  1.7348  2.4884 -2.8701
 1648SOL     OW 5642   6.065   1.925   1.859  0.2002 -0.0578 -0.3197
 1648SOL    HW1 5643   6.147   1.948   1.815 -0.5284  2.0443 -0.7275
 1648SOL    HW2 5644   6.089   1.909   1.950  0.9660  1.5855 -0.2007
 1649SOL     OW 5645   3.107   4.669   3.744 -0.4728  0.4120  0.0075
 1649SOL    HW1 5646   3.027   4.700   3.701  0.1230 -0.1742 -1.5877
 1649SOL    HW2 5647   3.167   4.743   3.741  0.2932 -0.2375 -2.1116
 1650SOL     OW 5648   5.917   6.102   0.883  0.0574 -0.2514  0.4787
 1650SOL    HW1 5649   5.907   6.009   0.866  0.6597 -0.0475 -1.1392
 1650SOL    HW2 5650   6.002   6.125   0.845  0.1266  0.8729  1.2404
 1651SOL     OW 5651   4.865   2.355   2.595  0.0863  0.2331  0.2851
 1651SOL    HW1 5652   4.937   2.323   2.649 -1.0355 -2.3636  0.4191
 1651SOL    HW2 5653   4.786   2.320   2.637 -1.4335  3.7153  0.6673
 1652SOL     OW 5654   7.430   0.642   6.400  0.3389 -0.4610 -0.4638
 1652SOL    HW1 5655   7.365   0.597   6.454 -0.8944  1.3162 -0.4006
 1652SOL    HW2 5656   7.428   0.593   6.317  0.4369 -1.6761  0.2176
 1653SOL     OW 5657   6.984   3.953   3.195 -0.6187 -0.0778  0.2853
 1653SOL    HW1 5658   7.008   4.044   3.215 -0.1671  0.2297 -1.5167
 1653SOL    HW2 5659   7.067   3.907   3.189 -0.8633 -0.7606  1.7012
 1654SOL     OW 5660   0.337   1.440   1.488 -0.1703 -0.8408  0.5246
 1654SOL    HW1 5661   0.414   1.497   1.497  1.2641 -2.3801 -1.2778
 1654SOL    HW2 5662   0.372   1.356   1.459 -2.3941 -2.1670  1.4447
 1655SOL     OW 5663   6.629   3.872   7.449 -0.1129  0.2663 -1.1100
 1655SOL    HW1 5664   6.538   3.894   7.429 -0.2467  3.5173  2.0914
 1655SOL    HW2 5665   6.680   3.917   7.381 -0.8155  0.9197 -1.2138
 1656SOL     OW 5666   4.042   4.595   2.959  0.4053 -0.1679 -0.1473
 1656SOL    HW1 5667   4.122   4.544   2.956 -0.8398 -2.2306 -0.5348
 1656SOL    HW2 5668   3.977   4.535   2.997 -1.0377  1.2835 -0.2131
 1657SOL     OW 5669   7.292   3.219   4.419 -0.0778  0.0287 -1.1049
 1657SOL    HW1 5670   7.334   3.181   4.496 -1.2813 -0.7105 -0.7789
 1657SOL    HW2 5671   7.234   3.149   4.387  0.5050  0.2713 -2.7650
 1658SOL     OW 5672   2.551   1.991   3.782  1.0091  0.5231 -0.2300
 1658SOL    HW1 5673   2.536   2.036   3.864  1.2473  2.2463 -1.0876
 1658SOL    HW2 5674   2.553   1.898   3.805  2.9407  1.0393  1.9769
 1659SOL     OW 5675   4.789   3.718   6.791 -0.1461 -0.0659 -0.2226
 1659SOL    HW1 5676   4.742   3.720   6.707 -0.1097 -1.2799 -0.2894
 1659SOL    HW2 5677   4.853   3.647   6.781 -1.7056 -1.8457  1.6152
 1660SOL     OW 5678   0.049   4.961   2.647 -0.1552 -0.2370 -0.2117
 1660SOL    HW1 5679   0.131   4.968   2.599  0.9357  1.9972  1.7729
 1660SOL    HW2 5680   0.058   4.881   2.698 -1.2524 -2.5484 -3.3028
 1661SOL     OW 5681   0.368   2.671   7.801 -0.2906  0.4899  0.6522
 1661SOL    HW1 5682   0.411   2.632   7.725  2.1666  1.4297  1.4766
 1661SOL    HW2 5683   0.280   2.632   7.801  0.0421 -0.4489 -1.9293
 1662SOL     OW 5684   6.558   1.947   0.974 -0.2341 -0.6095  0.0539
 1662SOL    HW1 5685   6.616   1.934   1.049  0.1666  2.1749  0.3576
 1662SOL    HW2 5686   6.521   2.034   0.988 -0.8365 -0.3785 -2.5301
 1663SOL     OW 5687   3.305   2.215   2.068  0.3495  0.4133  1.2179
 1663SOL    HW1 5688   3.370   2.177   2.009 -0.8062 -0.3953  0.4169
 1663SOL    HW2 5689   3.268   2.289   2.019 -0.6194 -0.2672  0.8963
 1664SOL     OW 5690   2.286   7.650   7.730 -0.0594  0.3309  0.2108
 1664SOL    HW1 5691   2.253   7.618   7.646  0.9270 -0.1230 -0.0206
 1664SOL    HW2 5692   2.243   7.596   7.796 -1.5015  1.2558  0.0732
 1665SOL     OW 5693   1.408   5.867   1.489 -0.0363 -0.0521 -0.6473
 1665SOL    HW1 5694   1.452   5.783   1.477  0.1467  0.2216 -2.0632
 1665SOL    HW2 5695   1.454   5.928   1.431  1.5774  1.7389  2.2822
 1666SOL     OW 5696   2.529   0.858   2.787 -0.5850 -0.3223  0.2179
 1666SOL    HW1 5697   2.510   0.773   2.827  0.1175  0.0554  1.4114
 1666SOL    HW2 5698   2.535   0.918   2.861  3.4666 -0.0777 -0.0786
 1667SOL     OW 5699   3.464   4.587   0.962 -0.0993  0.6638  0.1091
 1667SOL    HW1 5700   3.518   4.665   0.949  0.7868  0.1025  0.3526
 1667SOL    HW2 5701   3.374   4.617   0.946  0.3045  1.5456 -0.5710
 1668SOL     OW 5702   7.727   2.354   1.408  0.2359  0.0271 -0.4888
 1668SOL    HW1 5703   7.734   2.307   1.325 -2.0867 -0.5221 -0.4381
 1668SOL    HW2 5704   7.716   2.285   1.473  0.5939  0.5173  0.1037
 1669SOL     OW 5705   7.263   6.031   5.695  0.3416 -0.3971  0.6634
 1669SOL    HW1 5706   7.291   5.990   5.613  1.6061  0.7787  0.4612
 1669SOL    HW2 5707   7.190   6.088   5.670  0.3243 -0.5077  0.4596
 1670SOL     OW 5708   7.236   0.460   2.593 -0.0199  0.0095 -0.2187
 1670SOL    HW1 5709   7.260   0.367   2.584  0.2261  0.1311 -0.8632
 1670SOL    HW2 5710   7.186   0.463   2.675 -0.0896 -0.7042 -0.2219
 1671SOL     OW 5711   1.618   0.657   7.261  0.4021 -0.0844  1.1511
 1671SOL    HW1 5712   1.594   0.595   7.192  1.2364  1.1419 -0.2803
 1671SOL    HW2 5713   1.666   0.604   7.325  1.1366 -0.9140 -0.0577
 1672SOL     OW 5714   4.884   3.030   3.137  0.1451  0.3262 -0.7617
 1672SOL    HW1 5715   4.818   3.054   3.202 -0.1317  0.7960 -1.2105
 1672SOL    HW2 5716   4.904   3.111   3.091  2.9310  0.8047  1.0356
 1673SOL     OW 5717   0.805   1.254   7.038 -0.2419  0.0066  0.1028
 1673SOL    HW1 5718   0.733   1.193   7.022 -0.8501  0.7114  0.0938
 1673SOL    HW2 5719   0.832   1.235   7.128 -2.1774  1.4448  1.0691
 1674SOL     OW 5720   1.973   0.296   5.490  0.4110 -0.3342  0.2651
 1674SOL    HW1 5721   1.939   0.348   5.417  0.2419 -2.0676 -0.9261
 1674SOL    HW2 5722   1.975   0.358   5.563 -1.0835  1.0028 -0.7437
 1675SOL     OW 5723   1.455   3.407   6.051 -0.0400 -0.5564 -0.0137
 1675SOL    HW1 5724   1.405   3.438   5.975 -2.9168 -1.6075  1.3059
 1675SOL    HW2 5725   1.495   3.487   6.087 -0.3067  0.2629 -1.4401
 1676SOL     OW 5726   4.320   2.663   2.172 -0.2859 -0.1143 -0.1337
 1676SOL    HW1 5727   4.335   2.584   2.119 -1.0710 -1.0687  0.9919
 1676SOL    HW2 5728   4.387   2.658   2.241 -1.0708 -0.4655  0.6311
 1677SOL     OW 5729   6.012   5.932   7.716  0.1816  0.0502 -0.5512
 1677SOL    HW1 5730   6.063   5.863   7.760 -0.8704 -1.1027 -1.0664
 1677SOL    HW2 5731   6.061   6.012   7.732  1.5413 -0.8451 -0.0674
 1678SOL     OW 5732   0.344   2.136   1.255 -0.4472 -0.4595 -0.2083
 1678SOL    HW1 5733   0.308   2.154   1.168  1.6095 -0.4957 -1.1114
 1678SOL    HW2 5734   0.335   2.042   1.266  0.3285 -0.6288 -0.9015
 1679SOL     OW 5735   4.028   5.308   1.503 -0.1632  0.1010 -0.2597
 1679SOL    HW1 5736   4.088   5.234   1.503 -0.0123  0.2200  0.1187
 1679SOL    HW2 5737   3.953   5.279   1.554 -0.1014  0.2129 -0.1059
 1680SOL     OW 5738   0.530   6.708   2.291  0.0252  1.0472  0.0414
 1680SOL    HW1 5739   0.503   6.624   2.254 -0.1618  1.8947 -1.8423
 1680SOL    HW2 5740   0.625   6.707   2.288  0.0212  0.9214 -0.0346
 1681SOL     OW 5741   0.412   0.712   2.749 -0.1948  0.4325 -0.1754
 1681SOL    HW1 5742   0.463   0.712   2.668  0.5161 -0.0367  0.2499
 1681SOL    HW2 5743   0.332   0.759   2.728  0.4206  1.1950 -0.8689
 1682SOL     OW 5744   3.263   3.589   5.543 -0.3074  0.3805  0.3379
 1682SOL    HW1 5745   3.192   3.652   5.553  0.6666  1.2846  2.2665
 1682SOL    HW2 5746   3.337   3.642   5.511 -0.3151 -0.4355 -1.1037
 1683SOL     OW 5747   6.183   2.768   4.243 -0.5059 -0.0832  0.3881
 1683SOL    HW1 5748   6.278   2.776   4.236 -0.4590 -1.0533 -0.3991
 1683SOL    HW2 5749   6.153   2.762   4.153 -1.0715 -1.9814  0.6432
 1684SOL     OW 5750   7.242   5.016   7.853 -0.0074 -0.5144 -0.2663
 1684SOL    HW1 5751   7.185   4.947   7.819 -2.2652  1.3388 -0.4670
 1684SOL    HW2 5752   7.279   5.057   7.774 -0.9614  0.3296 -0.2835
 1685SOL     OW 5753   4.883   7.501   6.598 -0.1293  0.1498 -0.4167
 1685SOL    HW1 5754   4.881   7.555   6.519  0.9598 -0.0288 -0.5874
 1685SOL    HW2 5755   4.848   7.416   6.570 -1.2566  0.5618 -0.2997
 1686SOL     OW 5756   6.838   0.746   1.558 -0.0280 -0.5625  0.6321
 1686SOL    HW1 5757   6.807   0.657   1.544 -1.0173 -0.4748  1.9974
 1686SOL    HW2 5758   6.883   0.769   1.477  0.5844 -2.4224  0.3952
 1687SOL     OW 5759   5.801   0.136   1.244 -0.3464  0.4729  0.7084
 1687SOL    HW1 5760   5.754   0.218   1.231 -0.3522  0.2402 -0.8876
 1687SOL    HW2 5761   5.859   0.154   1.319  2.0571  3.0879 -1.5240
 1688SOL     OW 5762   3.751   3.626   1.178  0.1428 -0.3071  0.1501
 1688SOL    HW1 5763   3.811   3.576   1.234  2.3765 -0.2260 -1.9959
 1688SOL    HW2 5764   3.809   3.678   1.121 -1.9865  0.2722 -1.6208
 1689SOL     OW 5765   5.452   4.749   1.156  0.2264 -0.1003  0.7021
 1689SOL    HW1 5766   5.473   4.757   1.249  0.0973 -2.1790  0.9652
 1689SOL    HW2 5767   5.372   4.800   1.145 -1.1557 -1.7697  2.2999
 1690SOL     OW 5768   6.407   5.693   2.193 -0.2363 -0.2473 -0.1110
 1690SOL    HW1 5769   6.440   5.679   2.104 -0.4950 -1.3204 -0.0495
 1690SOL    HW2 5770   6.338   5.758   2.183  0.9437  1.0080 -0.4277
 1691SOL     OW 5771   0.542   3.177   0.416 -0.5667  0.7666  0.3909
 1691SOL    HW1 5772   0.621   3.165   0.469 -1.0060  1.1394  1.1524
 1691SOL    HW2 5773   0.571   3.161   0.326  0.2752  0.4623  0.7002
 1692SOL     OW 5774   2.573   2.249   1.296  0.1171  0.4165 -0.2687
 1692SOL    HW1 5775   2.614   2.318   1.347  0.1765  0.0707  0.1508
 1692SOL    HW2 5776   2.496   2.291   1.257  1.3239  1.3240 -1.7949
 1693SOL     OW 5777   2.019   6.647   4.922  0.0636  0.1812  0.5257
 1693SOL    HW1 5778   1.942   6.593   4.905 -0.8886  2.2568 -2.7420
 1693SOL    HW2 5779   1.984   6.729   4.958  0.8653  0.6478  0.2778
 1694SOL     OW 5780   3.731   4.880   4.617 -0.3548  0.9310  0.3879
 1694SOL    HW1 5781   3.813   4.873   4.666 -0.5091 -1.3737  0.4338
 1694SOL    HW2 5782   3.686   4.955   4.657  1.0097  1.2434  1.4461
 1695SOL     OW 5783   0.555   6.296   5.126  0.0968 -0.0129  0.0604
 1695SOL    HW1 5784   0.631   6.315   5.181  1.4652 -2.7365 -0.7135
 1695SOL    HW2 5785   0.593   6.274   5.040 -1.4136 -2.6457 -0.0245
 1696SOL     OW 5786   2.272   3.305   4.455 -0.4600 -0.2895 -0.2710
 1696SOL    HW1 5787   2.266   3.382   4.511 -2.8650 -0.6198  0.0123
 1696SOL    HW2 5788   2.354   3.263   4.481 -0.9389  0.1679  2.2131
 1697SOL     OW 5789   6.670   1.000   5.476 -0.6077  0.0091  0.6392
 1697SOL    HW1 5790   6.739   1.066   5.479 -1.7072  1.2033  0.8118
 1697SOL    HW2 5791   6.700   0.935   5.413  1.7077 -0.7375  2.3783
 1698SOL     OW 5792   6.549   6.398   1.799  0.0276  0.1217  0.0418
 1698SOL    HW1 5793   6.640   6.418   1.777  0.5050 -0.2271  1.5366
 1698SOL    HW2 5794   6.499   6.426   1.723  1.5226 -1.0936 -1.4529
 1699SOL     OW 5795   3.023   0.046   2.561 -0.6478  0.2851  0.1021
 1699SOL    HW1 5796   2.980   0.047   2.476 -0.5003  1.1329  0.0227
 1699SOL    HW2 5797   3.019   0.137   2.591 -1.7507 -0.2043  1.5478
 1700SOL     OW 5798   4.020   7.652   0.564  0.0027 -0.6200 -0.0995
 1700SOL    HW1 5799   4.062   7.681   0.483 -2.2631  0.1057 -1.0980
 1700SOL    HW2 5800   4.034   7.724   0.626  0.4589 -0.5139 -0.3220
 1701SOL     OW 5801   4.300   0.737   3.699  0.5132  0.4929  0.4512
 1701SOL    HW1 5802   4.272   0.714   3.788  0.2293  0.1193  0.2715
 1701SOL    HW2 5803   4.383   0.692   3.687 -0.6843 -1.6654 -0.3852
 1702SOL     OW 5804   6.647   7.121   4.265 -0.1276 -0.3425  0.2215
 1702SOL    HW1 5805   6.681   7.202   4.303  1.0761 -0.2559 -0.9458
 1702SOL    HW2 5806   6.725   7.071   4.242 -0.8168 -0.9575 -0.8770
 1703SOL     OW 5807   1.195   0.283   2.647 -0.8760  0.1264 -0.1212
 1703SOL    HW1 5808   1.142   0.303   2.570  0.1474  0.7315 -0.7042
 1703SOL    HW2 5809   1.228   0.368   2.676 -0.5629 -0.1893  0.4645
 1704SOL     OW 5810   7.196   2.579   2.413 -0.7340 -0.0274 -0.6034
 1704SOL    HW1 5811   7.175   2.496   2.457 -2.2424  1.0563  0.8025
 1704SOL    HW2 5812   7.117   2.632   2.422  1.1506  2.7036  1.2159
 1705SOL     OW 5813   7.952   0.809   0.199  0.0067 -0.5363 -0.7081
 1705SOL    HW1 5814   7.994   0.850   0.274 -0.2714 -1.7784  0.1686
 1705SOL    HW2 5815   7.965   0.870   0.127 -0.2184  0.9636  0.4847
 1706SOL     OW 5816   6.640   0.357   6.075  0.0733  0.3045 -0.1341
 1706SOL    HW1 5817   6.710   0.317   6.128 -1.2247 -2.2386 -0.1828
 1706SOL    HW2 5818   6.559   0.320   6.110 -1.4029  3.5254  0.2314
 1707SOL     OW 5819   5.309   5.293   4.162  0.5584 -0.6738 -0.0946
 1707SOL    HW1 5820   5.251   5.360   4.126  0.2822 -0.7705  0.1720
 1707SOL    HW2 5821   5.378   5.343   4.206  0.6937 -0.5591 -0.4345
 1708SOL     OW 5822   4.600   1.207   0.605  0.2212  0.0334 -0.0371
 1708SOL    HW1 5823   4.618   1.276   0.669  1.1059  0.0545 -0.2983
 1708SOL    HW2 5824   4.656   1.228   0.530 -2.2462  1.1614 -1.6923
 1709SOL     OW 5825   5.689   4.142   1.541  0.1738 -0.0897 -0.2151
 1709SOL    HW1 5826   5.759   4.084   1.569  0.4141  0.5033  0.4510
 1709SOL    HW2 5827   5.624   4.136   1.611 -1.3095 -1.9970 -1.6250
 1710SOL     OW 5828   1.893   4.830   6.277  0.2573 -0.2871 -0.0872
 1710SOL    HW1 5829   1.972   4.882   6.293 -0.4767  0.5250  1.1127
 1710SOL    HW2 5830   1.823   4.879   6.320 -0.8360 -1.2160 -0.7377
 1711SOL     OW 5831   5.195   5.164   0.943  0.0726 -0.6169  0.1598
 1711SOL    HW1 5832   5.274   5.149   0.996  0.0885  1.0764  0.6838
 1711SOL    HW2 5833   5.135   5.095   0.969 -0.3256  0.7272  3.2779
 1712SOL     OW 5834   1.742   6.444   1.731 -0.1836 -0.0640 -0.8096
 1712SOL    HW1 5835   1.780   6.496   1.661  0.6482 -1.0996 -1.1557
 1712SOL    HW2 5836   1.817   6.420   1.786 -0.8010  0.5782  0.3282
 1713SOL     OW 5837   2.587   0.991   4.600  0.5510  0.5868 -0.4893
 1713SOL    HW1 5838   2.622   0.970   4.513 -2.0553 -0.9224 -1.3309
 1713SOL    HW2 5839   2.571   0.905   4.640 -2.5231  1.0467 -0.4746
 1714SOL     OW 5840   3.010   1.773   1.743  0.0127  0.0042  0.5316
 1714SOL    HW1 5841   3.017   1.852   1.689 -0.0767 -0.1992  0.2259
 1714SOL    HW2 5842   3.060   1.794   1.822  1.4651 -0.2763 -0.2916
 1715SOL     OW 5843   7.547   1.221   4.444  0.3456 -0.0282  0.1156
 1715SOL    HW1 5844   7.486   1.294   4.431  0.1969 -0.4680 -1.8242
 1715SOL    HW2 5845   7.557   1.216   4.540 -1.2302  1.2119  0.3882
 1716SOL     OW 5846   0.706   2.910   5.333  0.0929 -0.2923 -0.4409
 1716SOL    HW1 5847   0.666   2.990   5.369 -1.5277 -0.8070 -1.0233
 1716SOL    HW2 5848   0.785   2.941   5.289  0.4101  0.7598  0.7832
 1717SOL     OW 5849   4.578   7.163   6.807 -0.2957 -0.3168 -0.6283
 1717SOL    HW1 5850   4.545   7.073   6.807 -1.2968  0.0302 -1.4304
 1717SOL    HW2 5851   4.670   7.155   6.782  0.5314 -1.3737  2.3419
 1718SOL     OW 5852   5.799   3.537   1.658  0.5861  0.3820  0.3711
 1718SOL    HW1 5853   5.849   3.482   1.719  1.2235 -0.4380 -0.8501
 1718SOL    HW2 5854   5.716   3.554   1.703  0.6099 -1.1014  1.0197
 1719SOL     OW 5855   1.053   2.993   5.528  0.2008 -0.1335  0.1745
 1719SOL    HW1 5856   1.102   2.914   5.552  0.2554 -0.3817 -0.7191
 1719SOL    HW2 5857   0.981   2.997   5.591  0.7591 -0.3506  0.8400
 1720SOL     OW 5858   0.007   7.007   0.783 -0.1412  0.5058  0.0713
 1720SOL    HW1 5859   0.102   7.020   0.793 -0.1564  0.2589  0.5832
 1720SOL    HW2 5860  -0.028   7.096   0.778 -0.0297  0.6477  1.4438
 1721SOL     OW 5861   7.708   3.286   1.241 -0.0486  0.2375 -0.3032
 1721SOL    HW1 5862   7.680   3.198   1.215 -0.9725  0.1923  0.8015
 1721SOL    HW2 5863   7.804   3.280   1.242 -0.1027 -1.2096  1.1477
 1722SOL     OW 5864   6.424   7.250   7.325  0.3849 -0.2241  0.5481
 1722SOL    HW1 5865   6.371   7.185   7.279  0.1167  0.2474  0.1838
 1722SOL    HW2 5866   6.417   7.329   7.271  1.4155 -0.1413  0.5168
 1723SOL     OW 5867   5.732   4.827   3.562 -0.1836  0.3227 -0.0324
 1723SOL    HW1 5868   5.693   4.881   3.493 -1.4035 -1.8252 -1.1387
 1723SOL    HW2 5869   5.769   4.752   3.515  1.1271 -0.0034  1.4590
 1724SOL     OW 5870   0.911   2.773   0.615  0.8262  0.0983 -0.3807
 1724SOL    HW1 5871   0.984   2.719   0.647  0.9805  0.6472  0.2007
 1724SOL    HW2 5872   0.864   2.715   0.555  0.0080 -1.2896  1.4724
 1725SOL     OW 5873   5.901   5.924   0.429  0.0219 -0.1637 -0.5872
 1725SOL    HW1 5874   5.859   5.839   0.417 -1.2086  0.5881 -1.9632
 1725SOL    HW2 5875   5.994   5.905   0.435 -0.2045 -1.5778 -1.2894
 1726SOL     OW 5876   7.763   0.719   5.471 -0.6052  1.1463  0.4857
 1726SOL    HW1 5877   7.725   0.637   5.439  0.1960  1.2820 -0.9051
 1726SOL    HW2 5878   7.701   0.787   5.443 -1.1588  1.0409  1.4447
 1727SOL     OW 5879   4.581   5.976   6.765 -0.0276 -0.6334 -0.2451
 1727SOL    HW1 5880   4.647   5.910   6.785  0.8817  0.1020 -0.7329
 1727SOL    HW2 5881   4.610   6.055   6.811 -1.1610 -0.5771  0.4225
 1728SOL     OW 5882   6.141   4.650   5.546  0.0435 -0.0791 -0.3395
 1728SOL    HW1 5883   6.178   4.736   5.568  0.1468 -0.4183  0.9030
 1728SOL    HW2 5884   6.206   4.610   5.489  0.9871 -0.1294  0.7303
 1729SOL     OW 5885   2.480   0.357   1.446 -0.3068  0.2652  0.0164
 1729SOL    HW1 5886   2.523   0.304   1.380  2.5630  1.6525  0.6418
 1729SOL    HW2 5887   2.531   0.343   1.526 -2.3599  0.3243  1.4228
 1730SOL     OW 5888   6.088   4.291   3.469 -0.0544  0.0486  0.0175
 1730SOL    HW1 5889   6.067   4.329   3.384  1.6163 -0.0680 -0.4706
 1730SOL    HW2 5890   6.098   4.198   3.452 -0.8410 -0.1513  0.5782
 1731SOL     OW 5891   5.242   7.557   4.253  0.9733  0.3610  0.4502
 1731SOL    HW1 5892   5.249   7.465   4.278  2.7855  1.0236  2.8203
 1731SOL    HW2 5893   5.149   7.576   4.257  0.6142 -1.2359  0.4217
 1732SOL     OW 5894   0.981   2.382   2.256 -0.6350 -0.2869  0.5420
 1732SOL    HW1 5895   0.994   2.403   2.349  1.0576  0.3274  0.2005
 1732SOL    HW2 5896   0.935   2.459   2.221 -1.3255 -0.5414  0.8606
 1733SOL     OW 5897   6.364   4.103   5.369  0.2988  0.2998 -0.1269
 1733SOL    HW1 5898   6.372   4.102   5.465 -0.7663 -1.6870 -0.0107
 1733SOL    HW2 5899   6.279   4.145   5.354 -0.1330 -0.5557 -0.1186
 1734SOL     OW 5900   3.464   5.964   7.275  0.2507 -0.5907  0.0336
 1734SOL    HW1 5901   3.486   5.901   7.207  0.3637 -2.3046  1.5850
 1734SOL    HW2 5902   3.376   5.940   7.304  0.2531  0.0201  0.5816
 1735SOL     OW 5903   3.187   2.725   2.229 -0.3945 -0.3166 -0.0386
 1735SOL    HW1 5904   3.115   2.774   2.269 -0.0205 -0.7911  1.2517
 1735SOL    HW2 5905   3.159   2.634   2.233 -0.6835 -0.3303 -1.6001
 1736SOL     OW 5906   6.807   7.289   0.008 -0.5932 -0.1588 -0.5444
 1736SOL    HW1 5907   6.808   7.228   0.083 -1.2894  0.7730  0.2408
 1736SOL    HW2 5908   6.722   7.276  -0.033 -0.3619 -0.3938 -0.9563
 1737SOL     OW 5909   7.632   6.536   0.871  0.3615 -0.4471  0.2531
 1737SOL    HW1 5910   7.711   6.499   0.910  0.2958 -0.3033  0.5215
 1737SOL    HW2 5911   7.586   6.578   0.944 -0.7707 -1.8921  0.4056
 1738SOL     OW 5912   1.108   3.773   7.897 -0.0688 -0.7734  0.4056
 1738SOL    HW1 5913   1.200   3.773   7.926 -0.1853 -0.7897  0.7780
 1738SOL    HW2 5914   1.060   3.813   7.969 -0.1235  0.9590 -0.5414
 1739SOL     OW 5915   6.592   7.596   0.123 -0.2299  0.2512  0.5524
 1739SOL    HW1 5916   6.681   7.624   0.100 -0.2846  0.7118  0.8973
 1739SOL    HW2 5917   6.567   7.536   0.053 -0.5053  1.8466 -0.7647
 1740SOL     OW 5918   3.430   2.598   6.361 -0.1090  0.2543  0.5913
 1740SOL    HW1 5919   3.454   2.538   6.432  1.3394  0.0559 -0.0185
 1740SOL    HW2 5920   3.441   2.546   6.281  3.7417  1.8943 -0.1762
 1741SOL     OW 5921   2.800   6.576   6.527  0.0741  0.0476  0.2028
 1741SOL    HW1 5922   2.799   6.580   6.431 -1.8406 -0.7728  0.1471
 1741SOL    HW2 5923   2.848   6.654   6.554 -0.1586  0.7877 -1.4051
 1742SOL     OW 5924   3.290   3.342   6.495 -0.0995 -0.1982  0.2508
 1742SOL    HW1 5925   3.278   3.309   6.585  1.4009 -3.9706 -0.7295
 1742SOL    HW2 5926   3.381   3.370   6.492 -0.0993 -0.2367 -0.1470
 1743SOL     OW 5927   0.266   5.139   1.849 -0.3918  0.6286 -0.2212
 1743SOL    HW1 5928   0.307   5.150   1.935  0.2779 -1.3268 -0.2339
 1743SOL    HW2 5929   0.304   5.208   1.795  0.1698  1.0666  0.7056
 1744SOL     OW 5930   5.830   0.635   2.205 -0.7014  0.5525 -0.0051
 1744SOL    HW1 5931   5.923   0.655   2.204 -0.2193 -1.4679 -1.2458
 1744SOL    HW2 5932   5.806   0.637   2.298  0.9482 -0.3534  0.4859
 1745SOL     OW 5933   5.392   5.658   3.427  0.5245 -0.4864 -0.3194
 1745SOL    HW1 5934   5.442   5.652   3.509  0.6788  1.4544 -0.2295
 1745SOL    HW2 5935   5.304   5.685   3.454  0.1172 -1.4022 -0.6854
 1746SOL     OW 5936   3.531   4.457   6.851 -0.2769  0.4034 -0.8328
 1746SOL    HW1 5937   3.440   4.477   6.829 -1.0954 -0.0557  1.7974
 1746SOL    HW2 5938   3.545   4.369   6.815 -0.9796  0.3677 -1.0353
 1747SOL     OW 5939   4.836   7.860   7.145 -0.4262 -0.5246  0.4443
 1747SOL    HW1 5940   4.808   7.877   7.235  1.4783 -1.0542  1.1910
 1747SOL    HW2 5941   4.919   7.906   7.137 -1.0401  0.3349 -1.4011
 1748SOL     OW 5942   2.026   1.118   5.090 -0.5441  0.2254 -0.1694
 1748SOL    HW1 5943   2.030   1.186   5.158  1.3791 -0.7721  0.8074
 1748SOL    HW2 5944   2.065   1.041   5.131 -1.2717 -1.0445 -1.7536
 1749SOL     OW 5945   4.497   0.566   1.382 -0.2909 -0.1037  0.1088
 1749SOL    HW1 5946   4.476   0.514   1.459  0.1532 -0.8845 -0.2867
 1749SOL    HW2 5947   4.526   0.650   1.417 -0.3777 -0.3499  0.7793
 1750SOL     OW 5948   7.486   5.321   4.816  0.3096 -0.1569 -0.0391
 1750SOL    HW1 5949   7.489   5.417   4.815 -0.6030 -0.1147 -1.6859
 1750SOL    HW2 5950   7.559   5.296   4.873 -0.8871  1.5426  2.4759
 1751SOL     OW 5951   2.340   1.782   5.237  0.0028  0.2878  0.0543
 1751SOL    HW1 5952   2.379   1.869   5.237 -1.6879  1.1146  1.6042
 1751SOL    HW2 5953   2.410   1.724   5.206  1.3915  2.0778 -0.3031
 1752SOL     OW 5954   7.079   5.704   2.994  0.1392  0.4998  0.1544
 1752SOL    HW1 5955   7.015   5.693   3.064  1.5014  0.5158  1.4466
 1752SOL    HW2 5956   7.141   5.768   3.028  0.7776  0.5841 -1.1185
 1753SOL     OW 5957   2.155   1.009   7.575  0.5469  0.4399 -0.0864
 1753SOL    HW1 5958   2.074   1.053   7.553 -0.0002 -0.5848 -0.1766
 1753SOL    HW2 5959   2.128   0.924   7.610  1.5810 -0.0537 -0.4263
 1754SOL     OW 5960   5.621   5.689   0.830 -0.0402 -0.5441 -0.1811
 1754SOL    HW1 5961   5.687   5.657   0.892  1.3691 -0.9071 -1.7688
 1754SOL    HW2 5962   5.543   5.704   0.883  1.1197 -0.7283  1.6738
 1755SOL     OW 5963   1.667   0.803   3.525 -0.6838  0.1865  0.2337
 1755SOL    HW1 5964   1.639   0.771   3.611 -0.6274  0.3550  0.3148
 1755SOL    HW2 5965   1.586   0.809   3.474 -0.6201 -0.7107  0.0086
 1756SOL     OW 5966   0.569   5.315   7.282 -0.2099  0.2017 -0.5447
 1756SOL    HW1 5967   0.496   5.255   7.298 -0.3854 -0.0567 -2.1768
 1756SOL    HW2 5968   0.625   5.269   7.220  1.1079  0.6080  0.3101
 1757SOL     OW 5969   4.958   0.024   7.616  0.5516  0.0502 -0.0525
 1757SOL    HW1 5970   4.926   0.059   7.699  1.3194  0.1988  0.1888
 1757SOL    HW2 5971   4.938   0.093   7.552  2.3764  1.1326  0.4829
 1758SOL     OW 5972   4.841   0.628   5.419 -0.0442  0.0574  0.1365
 1758SOL    HW1 5973   4.777   0.566   5.453 -0.8090  1.0878  0.6183
 1758SOL    HW2 5974   4.795   0.673   5.347  0.4332  0.2100 -0.0797
 1759SOL     OW 5975   6.288   3.470   3.456  0.4391  0.2070 -0.2387
 1759SOL    HW1 5976   6.366   3.441   3.410  1.0034 -0.4392  1.0555
 1759SOL    HW2 5977   6.216   3.449   3.397  1.0904 -1.0617 -0.6257
 1760SOL     OW 5978   2.619   1.121   6.708  0.1063  0.2495  0.2948
 1760SOL    HW1 5979   2.592   1.082   6.791  0.8458 -1.5826 -0.2718
 1760SOL    HW2 5980   2.704   1.161   6.727  1.4597 -2.2737 -0.0586
 1761SOL     OW 5981   3.570   7.499   6.295  0.5032  0.2811 -0.0228
 1761SOL    HW1 5982   3.554   7.588   6.326 -2.8934  0.9560 -2.9832
 1761SOL    HW2 5983   3.593   7.510   6.203 -0.8064 -1.8936 -0.6767
 1762SOL     OW 5984   7.404   6.737   1.404  0.1743  0.9436 -0.1645
 1762SOL    HW1 5985   7.312   6.733   1.379  0.0945  3.0581 -0.4295
 1762SOL    HW2 5986   7.430   6.827   1.384  1.8269  0.9089  1.5284
 1763SOL     OW 5987   6.327   0.244   2.802 -0.3121  0.3952  0.0937
 1763SOL    HW1 5988   6.283   0.300   2.865  0.7578 -0.0812  1.3217
 1763SOL    HW2 5989   6.259   0.183   2.772 -0.8711  0.7102  0.7064
 1764SOL     OW 5990   3.514   6.317   3.437  0.1743 -0.3804 -0.4928
 1764SOL    HW1 5991   3.538   6.314   3.345 -0.3611  0.4439 -0.6731
 1764SOL    HW2 5992   3.433   6.368   3.439  0.1221 -0.4761  0.4205
 1765SOL     OW 5993   3.769   7.053   6.447 -0.4634  0.3372 -0.2349
 1765SOL    HW1 5994   3.749   6.980   6.506  0.2992  0.0474 -0.3252
 1765SOL    HW2 5995   3.684   7.078   6.410 -0.7943 -0.2030  0.1486
 1766SOL     OW 5996   0.096   0.547   4.615 -0.1364  0.1657 -0.3455
 1766SOL    HW1 5997   0.090   0.467   4.666  0.2193 -0.1437 -0.7890
 1766SOL    HW2 5998   0.160   0.528   4.547 -0.1806  0.7664 -0.5607
 1767SOL     OW 5999   1.898   2.775   6.125 -0.5387 -0.3633  0.3040
 1767SOL    HW1 6000   1.840   2.851   6.134  1.0728  0.8754  0.6912
 1767SOL    HW2 6001   1.838   2.700   6.122 -2.1418  0.8010  1.1293
 1768SOL     OW 6002   3.330   5.882   3.165 -0.1413  0.1824  0.5371
 1768SOL    HW1 6003   3.359   5.928   3.244 -1.0951  1.1399  0.3443
 1768SOL    HW2 6004   3.235   5.890   3.165 -0.2345 -0.6978 -0.1837
 1769SOL     OW 6005   3.350   7.263   1.935 -0.5109 -0.1627 -0.1516
 1769SOL    HW1 6006   3.357   7.192   1.999  0.4193 -0.8213 -0.9340
 1769SOL    HW2 6007   3.286   7.231   1.871 -1.2140  0.3629  0.2811
 1770SOL     OW 6008   4.478   7.364   0.737  0.5427 -0.0032 -0.1800
 1770SOL    HW1 6009   4.401   7.402   0.694 -0.4632 -0.9248  0.7067
 1770SOL    HW2 6010   4.551   7.383   0.679 -0.7699 -1.3604 -2.4267
 1771SOL     OW 6011   7.882   2.904   0.123 -0.1878  0.0868  0.3331
 1771SOL    HW1 6012   7.873   2.885   0.030  1.6046  0.0195  0.1494
 1771SOL    HW2 6013   7.842   2.828   0.166  1.3206 -1.1662 -0.3985
 1772SOL     OW 6014   3.887   7.131   1.123  0.1792  0.3625 -0.3038
 1772SOL    HW1 6015   3.804   7.161   1.085  0.2378  1.2813  0.2772
 1772SOL    HW2 6016   3.876   7.144   1.217  0.5231 -0.6927 -0.1024
 1773SOL     OW 6017   3.731   6.232   5.553 -0.1949 -0.1036 -0.1533
 1773SOL    HW1 6018   3.811   6.259   5.508 -0.8849  1.1498 -0.6837
 1773SOL    HW2 6019   3.745   6.258   5.644  1.2115 -2.6662  0.4635
 1774SOL     OW 6020   0.575   7.956   5.120 -0.0804 -0.0764  0.9902
 1774SOL    HW1 6021   0.640   7.932   5.054 -0.0460 -0.8145  1.2865
 1774SOL    HW2 6022   0.502   7.896   5.105  0.2221 -0.7404  2.0748
 1775SOL     OW 6023   2.370   3.117   1.166  0.8534 -0.0325 -0.3968
 1775SOL    HW1 6024   2.359   3.169   1.087  0.6512 -1.3294 -1.2645
 1775SOL    HW2 6025   2.461   3.130   1.191  0.0921  3.2048  1.2910
 1776SOL     OW 6026   1.590   3.357   5.277 -0.3362  0.5105  0.0996
 1776SOL    HW1 6027   1.550   3.271   5.295  0.0043  0.6147  1.4446
 1776SOL    HW2 6028   1.643   3.342   5.198  0.0644 -0.6302  0.5597
 1777SOL     OW 6029   3.144   4.605   5.436 -0.9683  0.3149 -0.4905
 1777SOL    HW1 6030   3.236   4.625   5.425 -0.5370 -1.4850 -0.5230
 1777SOL    HW2 6031   3.127   4.535   5.373 -2.4371  0.8382 -0.7089
 1778SOL     OW 6032   0.351   1.339   5.095 -0.7128  0.1217 -0.0982
 1778SOL    HW1 6033   0.334   1.410   5.156 -0.4053  0.3809 -0.3041
 1778SOL    HW2 6034   0.279   1.342   5.032 -1.4444 -0.6378  0.6827
 1779SOL     OW 6035   2.526   5.902   1.022  0.3135 -0.4334 -0.0662
 1779SOL    HW1 6036   2.551   5.937   1.108  1.5930  0.7700 -0.8934
 1779SOL    HW2 6037   2.489   5.977   0.976 -1.1050 -1.2556 -0.3267
 1780SOL     OW 6038   2.651   4.364   1.129  0.6854  0.0481 -0.2598
 1780SOL    HW1 6039   2.747   4.368   1.119  0.6142 -0.9298 -1.6146
 1780SOL    HW2 6040   2.625   4.285   1.082 -0.7471 -0.0384  0.6233
 1781SOL     OW 6041   2.880   4.570   2.759 -0.2376 -0.0914 -0.4946
 1781SOL    HW1 6042   2.850   4.508   2.692 -1.4580 -0.9460  0.7859
 1781SOL    HW2 6043   2.940   4.628   2.712 -0.9632 -0.7147 -2.3115
 1782SOL     OW 6044   2.758   3.860   7.259  0.0178 -0.3161 -0.2314
 1782SOL    HW1 6045   2.845   3.836   7.226  0.0500 -2.0841  1.0290
 1782SOL    HW2 6046   2.776   3.909   7.339 -0.1261 -1.2892  0.4126
 1783SOL     OW 6047   7.652   6.487   4.011  0.0367 -0.0871  0.2462
 1783SOL    HW1 6048   7.636   6.579   4.030 -1.7536 -0.5906  1.3926
 1783SOL    HW2 6049   7.729   6.487   3.955  0.2107  2.0837  0.4214
 1784SOL     OW 6050   0.031   2.736   1.937  0.3968 -0.0636  0.2451
 1784SOL    HW1 6051   0.073   2.795   1.999  1.1838 -1.5224  1.1758
 1784SOL    HW2 6052   0.073   2.651   1.953 -1.5438 -1.1615 -0.1421
 1785SOL     OW 6053   6.170   6.315   1.432  0.2327 -0.4872  0.4621
 1785SOL    HW1 6054   6.230   6.282   1.365 -1.7046 -0.6097 -1.3150
 1785SOL    HW2 6055   6.121   6.237   1.460  1.0043 -0.4391  2.0907
 1786SOL     OW 6056   7.706   5.935   5.280  0.3255  0.4776  0.4052
 1786SOL    HW1 6057   7.719   5.991   5.204  1.2114 -0.1793  0.0576
 1786SOL    HW2 6058   7.731   5.990   5.355  1.1424  0.5711  0.0754
 1787SOL     OW 6059   0.715   0.309   1.986  0.1822  0.4212 -0.0147
 1787SOL    HW1 6060   0.797   0.327   1.940  1.2062 -1.0770  1.1282
 1787SOL    HW2 6061   0.647   0.333   1.923  1.5168 -0.7324 -2.0182
 1788SOL     OW 6062   3.897   6.945   5.781 -0.1897  0.5903 -0.0255
 1788SOL    HW1 6063   3.841   6.994   5.840  0.4622 -0.4570  1.5151
 1788SOL    HW2 6064   3.838   6.881   5.740 -0.4477  0.6097  0.3087
 1789SOL     OW 6065   5.898   4.800   3.028  0.3029 -0.1696  0.0472
 1789SOL    HW1 6066   5.871   4.723   3.078 -0.3418  0.3051  0.4522
 1789SOL    HW2 6067   5.887   4.775   2.936 -2.0523  0.1581  0.1886
 1790SOL     OW 6068   5.638   3.067   1.535  0.0841 -0.3024 -0.2382
 1790SOL    HW1 6069   5.638   3.159   1.561  2.0924  0.0157 -1.2215
 1790SOL    HW2 6070   5.556   3.056   1.487 -0.8410  0.5871  1.0639
 1791SOL     OW 6071   0.516   2.856   6.078 -0.2378  0.8932 -0.4608
 1791SOL    HW1 6072   0.449   2.923   6.062  0.3045  1.5870  0.1123
 1791SOL    HW2 6073   0.573   2.895   6.144 -0.9311 -0.8273  1.2378
 1792SOL     OW 6074   0.693   3.599   2.296 -0.2123 -0.0750  0.2369
 1792SOL    HW1 6075   0.751   3.613   2.372  0.6421  0.5881 -0.5073
 1792SOL    HW2 6076   0.753   3.580   2.224 -0.9171  0.8244 -0.6053
 1793SOL     OW 6077   0.726   7.405   7.838  0.4341  0.0118 -0.3058
 1793SOL    HW1 6078   0.641   7.448   7.831  0.8067  0.9572  0.6726
 1793SOL    HW2 6079   0.764   7.441   7.918  1.2042 -1.3950 -0.0086
 1794SOL     OW 6080   5.495   7.843   5.654  0.7417  0.2711 -0.2709
 1794SOL    HW1 6081   5.471   7.825   5.745  0.1013  1.5432 -0.1713
 1794SOL    HW2 6082   5.552   7.920   5.659  0.1970  0.7285 -0.9945
 1795SOL     OW 6083   4.220   7.228   1.311  0.5752  0.0975  0.5336
 1795SOL    HW1 6084   4.233   7.289   1.383 -2.9265  0.2719  1.1987
 1795SOL    HW2 6085   4.186   7.148   1.353  1.8190 -1.1166 -0.6491
 1796SOL     OW 6086   2.843   2.345   0.669  0.4031 -0.6757 -0.0251
 1796SOL    HW1 6087   2.904   2.288   0.621  1.3384 -1.1248  1.6308
 1796SOL    HW2 6088   2.819   2.413   0.605  1.6471 -1.2049 -1.1039
 1797SOL     OW 6089   0.459   1.553   0.700 -0.5076  0.2737 -0.3117
 1797SOL    HW1 6090   0.434   1.580   0.612  0.1313  0.7529 -0.3534
 1797SOL    HW2 6091   0.547   1.589   0.712  0.6753 -2.2881 -0.6087
 1798SOL     OW 6092   6.348   4.404   0.978  0.5381  0.4019  0.2797
 1798SOL    HW1 6093   6.397   4.414   1.059  1.6530  0.4905 -0.3944
 1798SOL    HW2 6094   6.331   4.310   0.971  1.3449  0.2639  0.1023
 1799SOL     OW 6095   6.349   6.657   1.354 -0.0822 -0.0830  0.2627
 1799SOL    HW1 6096   6.425   6.615   1.314  0.1039  1.0603 -0.6303
 1799SOL    HW2 6097   6.276   6.638   1.294 -0.7966 -2.1132  1.6633
 1800SOL     OW 6098   0.839   1.011   7.671 -0.0875  0.4589  0.2448
 1800SOL    HW1 6099   0.751   0.990   7.641 -0.3258 -1.2371  1.9651
 1800SOL    HW2 6100   0.897   0.973   7.605 -0.6292  0.5339 -0.2785
 1801SOL     OW 6101   3.589   7.189   7.304  0.0248  0.2697 -0.0196
 1801SOL    HW1 6102   3.610   7.197   7.397 -1.0604  1.5143  0.1445
 1801SOL    HW2 6103   3.562   7.277   7.278  0.8174  0.0558 -1.6576
 1802SOL     OW 6104   6.045   1.176   4.973 -0.4846 -0.4045  0.1334
 1802SOL    HW1 6105   5.968   1.233   4.978 -1.2781 -1.5744  3.3852
 1802SOL    HW2 6106   6.086   1.183   5.059  1.1363 -2.4047 -0.4087
 1803SOL     OW 6107   2.553   4.559   7.609  0.9352 -0.1715  0.6338
 1803SOL    HW1 6108   2.539   4.653   7.621  0.3075 -0.0188 -0.9791
 1803SOL    HW2 6109   2.634   4.552   7.559  0.3393 -0.3968 -0.3305
 1804SOL     OW 6110   5.710   1.307   4.015 -0.7260 -0.2174 -0.2773
 1804SOL    HW1 6111   5.705   1.273   4.104  0.2064 -0.9092 -0.4786
 1804SOL    HW2 6112   5.619   1.319   3.989 -1.0458 -1.5068  0.2041
 1805SOL     OW 6113   1.537   3.828   7.648 -0.1598 -0.4649  0.0024
 1805SOL    HW1 6114   1.442   3.836   7.643 -0.1696 -0.1296  0.5640
 1805SOL    HW2 6115   1.570   3.879   7.574 -0.4755 -3.4445 -2.3998
 1806SOL     OW 6116   2.222   1.696   1.553 -0.3454 -0.3588  0.1365
 1806SOL    HW1 6117   2.160   1.754   1.597  0.8966  0.3260  1.0708
 1806SOL    HW2 6118   2.245   1.632   1.621 -0.7654 -1.2011 -0.5053
 1807SOL     OW 6119   2.955   3.545   4.914 -0.4400  0.0763 -0.0277
 1807SOL    HW1 6120   2.969   3.615   4.850 -0.1287  0.1121  0.0770
 1807SOL    HW2 6121   2.876   3.570   4.961 -2.5094 -1.4289 -2.4176
 1808SOL     OW 6122   5.618   5.549   6.425 -0.1034 -0.2364  0.0484
 1808SOL    HW1 6123   5.587   5.460   6.404  0.4929 -0.8984  1.7542
 1808SOL    HW2 6124   5.651   5.583   6.343  0.1751 -1.8382 -0.5488
 1809SOL     OW 6125   3.612   0.422   1.331  0.6331  0.4047 -0.6926
 1809SOL    HW1 6126   3.581   0.512   1.339 -2.3245 -0.5462  0.1248
 1809SOL    HW2 6127   3.533   0.371   1.313  1.4362 -2.4820  2.7137
 1810SOL     OW 6128   7.047   5.920   4.793  0.2963  0.4062 -0.1350
 1810SOL    HW1 6129   7.135   5.882   4.785 -0.7068 -2.2818  0.5385
 1810SOL    HW2 6130   7.062   6.006   4.833  2.6866  0.5555 -1.1692
 1811SOL     OW 6131   2.403   7.124   2.939 -0.3011 -0.3392 -0.2517
 1811SOL    HW1 6132   2.432   7.106   2.850 -1.5696 -1.0023 -0.5368
 1811SOL    HW2 6133   2.351   7.204   2.931  2.7722  1.9717  0.5420
 1812SOL     OW 6134   2.669   6.695   0.604  0.2889 -0.1806 -0.2615
 1812SOL    HW1 6135   2.708   6.691   0.691 -0.9436  0.6474  0.3516
 1812SOL    HW2 6136   2.665   6.788   0.584  1.7257 -0.3915 -1.7832
 1813SOL     OW 6137   1.509   2.155   7.828 -0.0971 -0.3825 -0.0880
 1813SOL    HW1 6138   1.424   2.132   7.790 -0.0278  0.9605 -1.1234
 1813SOL    HW2 6139   1.535   2.235   7.782  1.1514 -0.0757  1.0978
 1814SOL     OW 6140   5.141   0.114   3.381 -0.6480 -0.8243 -0.0659
 1814SOL    HW1 6141   5.118   0.195   3.336 -0.5282 -0.7304  0.0403
 1814SOL    HW2 6142   5.185   0.061   3.315 -1.2589 -1.0447 -0.2965
 1815SOL     OW 6143   7.907   6.602   5.919  0.3542  0.2380 -0.2643
 1815SOL    HW1 6144   7.878   6.691   5.898 -1.3139 -0.3082 -0.3557
 1815SOL    HW2 6145   7.896   6.596   6.014  0.3517  0.0914 -0.2741
 1816SOL     OW 6146   1.130   4.314   0.082 -0.2243 -0.0165 -0.0868
 1816SOL    HW1 6147   1.093   4.368   0.151  0.2728 -0.6047  0.6496
 1816SOL    HW2 6148   1.223   4.309   0.103  0.0996  0.5380 -1.3017
 1817SOL     OW 6149   6.945   0.835   4.746 -0.4831 -0.0831 -0.2781
 1817SOL    HW1 6150   6.924   0.768   4.811 -1.4806  0.6141  0.1527
 1817SOL    HW2 6151   6.860   0.859   4.708 -0.1857  1.0773 -0.2662
 1818SOL     OW 6152   1.625   3.603   5.651  0.1707 -0.2283 -0.2402
 1818SOL    HW1 6153   1.654   3.631   5.738 -0.7304 -2.0120  0.6917
 1818SOL    HW2 6154   1.664   3.667   5.591  2.5527 -0.1554  1.2622
 1819SOL     OW 6155   1.521   5.634   3.025 -0.2409 -0.0615  0.3427
 1819SOL    HW1 6156   1.561   5.571   2.965 -0.4009  0.2889 -0.1348
 1819SOL    HW2 6157   1.429   5.609   3.029 -0.5818  0.9219 -0.8700
 1820SOL     OW 6158   2.417   7.841   2.818 -0.0787 -0.0661 -0.3223
 1820SOL    HW1 6159   2.393   7.933   2.806  0.9072  0.1899 -0.3834
 1820SOL    HW2 6160   2.464   7.839   2.902 -1.6144 -0.8220  0.5631
 1821SOL     OW 6161   2.535   3.572   0.265  0.1310 -0.0002 -0.1233
 1821SOL    HW1 6162   2.591   3.506   0.307  0.7504  0.0162 -0.9075
 1821SOL    HW2 6163   2.499   3.622   0.338  0.6163 -0.4385  0.4280
 1822SOL     OW 6164   1.921   4.636   0.986  0.0536 -0.4594  0.3069
 1822SOL    HW1 6165   1.872   4.703   0.937  1.0901 -0.0502 -0.2042
 1822SOL    HW2 6166   1.902   4.554   0.940  2.1443  0.1207 -1.7287
 1823SOL     OW 6167   6.153   6.244   4.055  0.0136 -0.4524 -0.2075
 1823SOL    HW1 6168   6.227   6.277   4.005 -0.2705  0.3332 -0.1268
 1823SOL    HW2 6169   6.081   6.304   4.034  0.0459  0.2680  1.5983
 1824SOL     OW 6170   1.908   1.347   5.457 -0.9153 -0.0848 -0.2566
 1824SOL    HW1 6171   1.956   1.385   5.384  0.6886 -1.2893  0.1241
 1824SOL    HW2 6172   1.834   1.407   5.470  0.2199  1.5968 -1.1352
 1825SOL     OW 6173   4.169   1.171   5.715 -0.4698 -0.7232 -0.6022
 1825SOL    HW1 6174   4.083   1.163   5.755  0.1370  1.4224  1.3479
 1825SOL    HW2 6175   4.220   1.099   5.753 -1.3991 -2.1948 -2.0013
 1826SOL     OW 6176   3.480   1.358   5.755 -0.2142 -0.1033 -0.1039
 1826SOL    HW1 6177   3.545   1.315   5.699 -0.5483 -0.3689 -0.2928
 1826SOL    HW2 6178   3.407   1.378   5.696  0.1963  1.3305 -0.1648
 1827SOL     OW 6179   7.201   2.710   6.335 -0.0418  0.5175 -0.1776
 1827SOL    HW1 6180   7.280   2.763   6.341  0.4795 -0.2566 -0.1925
 1827SOL    HW2 6181   7.136   2.769   6.295  1.1979  0.4372 -2.4463
 1828SOL     OW 6182   4.436   1.349   0.061  0.3414  0.3209 -0.0322
 1828SOL    HW1 6183   4.457   1.265   0.019  1.2113  0.5233 -0.0368
 1828SOL    HW2 6184   4.349   1.338   0.097 -1.2228  0.6640 -3.3539
 1829SOL     OW 6185   6.670   5.614   1.697 -0.1441  0.1768 -0.0976
 1829SOL    HW1 6186   6.734   5.554   1.736  1.0408  1.9465  0.8242
 1829SOL    HW2 6187   6.706   5.636   1.611  0.6285  1.3173  0.4960
 1830SOL     OW 6188   7.893   5.385   1.160  0.2730 -0.4221  0.6655
 1830SOL    HW1 6189   7.813   5.426   1.126  1.7169  2.0816 -0.0167
 1830SOL    HW2 6190   7.921   5.326   1.090  0.4439  0.7823 -0.3196
 1831SOL     OW 6191   0.953   0.863   5.256 -0.0282  0.1453  0.8054
 1831SOL    HW1 6192   0.969   0.816   5.174 -0.2642  1.0806  0.1983
 1831SOL    HW2 6193   0.903   0.802   5.310 -0.3934 -0.2669  0.0096
 1832SOL     OW 6194   2.678   7.081   3.805  0.1699 -0.3860  0.2683
 1832SOL    HW1 6195   2.740   7.127   3.748 -1.4036  1.1929 -0.2633
 1832SOL    HW2 6196   2.711   7.097   3.894  0.3143  0.7947  0.0208
 1833SOL     OW 6197   4.020   1.123   3.579 -1.0288  0.1770 -0.1213
 1833SOL    HW1 6198   4.005   1.160   3.666 -0.4921 -0.9313  0.4520
 1833SOL    HW2 6199   4.061   1.195   3.530 -1.6161  0.9104  0.4302
 1834SOL     OW 6200   6.764   3.528   5.696 -0.0045 -0.2120  0.0125
 1834SOL    HW1 6201   6.820   3.462   5.655 -0.8472 -1.0417  0.1479
 1834SOL    HW2 6202   6.714   3.479   5.762 -0.2012  0.6867  0.5514
 1835SOL     OW 6203   2.438   3.552   3.496  0.5250 -0.1204  0.2944
 1835SOL    HW1 6204   2.484   3.474   3.527  0.6286 -0.1353  0.1076
 1835SOL    HW2 6205   2.504   3.599   3.445  0.5748  0.2759  0.7128
 1836SOL     OW 6206   7.449   6.520   1.111  0.2596 -0.6796 -0.0019
 1836SOL    HW1 6207   7.356   6.517   1.133  0.2003  3.1454  0.8772
 1836SOL    HW2 6208   7.493   6.514   1.196  0.6510  0.6651 -0.0991
 1837SOL     OW 6209   4.390   2.380   5.312  0.4530 -0.5157  0.0396
 1837SOL    HW1 6210   4.357   2.332   5.237  1.6332 -1.1334 -0.1121
 1837SOL    HW2 6211   4.415   2.465   5.277  1.3981 -0.9502 -0.3758
 1838SOL     OW 6212   6.425   3.143   3.324  0.3926 -0.5078 -0.6282
 1838SOL    HW1 6213   6.458   3.233   3.329 -0.9388 -0.0173  0.0602
 1838SOL    HW2 6214   6.500   3.088   3.345  0.6511  0.5692  1.5420
 1839SOL     OW 6215   3.319   3.040   0.146 -0.1339  0.6531 -0.4123
 1839SOL    HW1 6216   3.311   2.962   0.090 -1.7872 -0.2383  0.9580
 1839SOL    HW2 6217   3.239   3.090   0.129 -1.7968 -0.7287  2.5961
 1840SOL     OW 6218   0.465   4.184   1.762 -0.1197  0.0066  0.3091
 1840SOL    HW1 6219   0.480   4.156   1.671 -0.1231 -0.1595  0.3591
 1840SOL    HW2 6220   0.552   4.190   1.800 -0.1038  0.3088  0.2270
 1841SOL     OW 6221   7.298   7.082   0.605  0.3530  0.2745  0.3347
 1841SOL    HW1 6222   7.282   7.168   0.643 -0.6198  0.7585 -1.0893
 1841SOL    HW2 6223   7.229   7.071   0.539  1.2393 -1.0325 -0.4286
 1842SOL     OW 6224   2.406   0.868   6.228  0.4461 -0.0444 -0.2574
 1842SOL    HW1 6225   2.501   0.854   6.228  0.9331  2.3156  2.1656
 1842SOL    HW2 6226   2.394   0.945   6.173  0.3347  1.1517  1.3564
 1843SOL     OW 6227   5.204   1.104   1.788  0.3991  0.0736  0.0217
 1843SOL    HW1 6228   5.243   1.032   1.838  1.8269  2.1610  2.1065
 1843SOL    HW2 6229   5.110   1.098   1.806  0.4832 -1.2504  0.1341
 1844SOL     OW 6230   6.353   6.760   6.725  0.6733 -0.5150 -0.1476
 1844SOL    HW1 6231   6.342   6.687   6.665  1.3766 -0.9916  0.2940
 1844SOL    HW2 6232   6.391   6.830   6.670  1.4480 -0.9929 -0.2441
 1845SOL     OW 6233   2.853   2.505   0.442  0.1787  0.4285  0.1999
 1845SOL    HW1 6234   2.862   2.446   0.366 -1.7466 -1.3289  1.2204
 1845SOL    HW2 6235   2.769   2.548   0.429 -0.4934 -0.3854  1.6075
 1846SOL     OW 6236   2.948   5.523   4.430 -0.0888  0.2227  0.3012
 1846SOL    HW1 6237   3.011   5.591   4.453 -0.9751  1.0168  0.4535
 1846SOL    HW2 6238   2.957   5.457   4.499 -1.2868  1.6102  1.8625
 1847SOL     OW 6239   5.186   6.975   2.331  0.5780  0.1638  0.0573
 1847SOL    HW1 6240   5.228   6.996   2.248  0.9803  0.7892  0.4126
 1847SOL    HW2 6241   5.233   7.028   2.396 -0.7908  0.9452  0.4526
 1848SOL     OW 6242   5.843   3.974   7.648  0.5767 -0.1689  0.0816
 1848SOL    HW1 6243   5.839   4.043   7.581 -1.9893  1.0704  1.3327
 1848SOL    HW2 6244   5.760   3.983   7.696  1.7179 -1.8398  2.5883
 1849SOL     OW 6245   1.530   6.117   6.107 -0.5289 -0.0244 -0.3938
 1849SOL    HW1 6246   1.612   6.067   6.114 -0.6646 -0.3836 -1.1940
 1849SOL    HW2 6247   1.557   6.208   6.119  0.3157  0.0536 -2.3971
 1850SOL     OW 6248   1.132   3.534   6.738  0.0289  0.3275  0.3059
 1850SOL    HW1 6249   1.214   3.584   6.744  0.5913 -0.3790 -0.9582
 1850SOL    HW2 6250   1.076   3.585   6.680 -0.4010  0.7719  1.1080
 1851SOL     OW 6251   1.724   4.535   6.637  0.0789  0.3009  0.3627
 1851SOL    HW1 6252   1.686   4.460   6.683  0.2948  0.4207  0.7389
 1851SOL    HW2 6253   1.653   4.599   6.633  0.3964  0.7742  1.6226
 1852SOL     OW 6254   6.477   7.145   6.968  0.0984 -0.3619  0.1769
 1852SOL    HW1 6255   6.467   7.053   6.942 -2.4308  0.3785 -1.8507
 1852SOL    HW2 6256   6.393   7.167   7.010 -0.4936  1.7053 -1.8917
 1853SOL     OW 6257   3.362   0.159   2.093  0.8449 -0.0344 -0.2566
 1853SOL    HW1 6258   3.349   0.235   2.149 -0.5184  0.2543 -0.9321
 1853SOL    HW2 6259   3.399   0.093   2.151  1.9514  1.0786  0.3726
 1854SOL     OW 6260   6.605   7.242   4.625  0.0126 -0.1990  0.7283
 1854SOL    HW1 6261   6.526   7.286   4.656 -0.4550 -0.7967  0.4026
 1854SOL    HW2 6262   6.574   7.160   4.587  0.6735  0.0167 -0.3245
 1855SOL     OW 6263   1.906   2.427   2.961 -0.4885  0.1934 -0.1803
 1855SOL    HW1 6264   1.823   2.397   2.997  0.3222 -0.7820  0.9602
 1855SOL    HW2 6265   1.921   2.511   3.004 -0.2369 -0.2795  0.6959
 1856SOL     OW 6266   5.224   0.774   4.861  0.2710  0.5559  0.6002
 1856SOL    HW1 6267   5.180   0.690   4.876  0.4477  0.2238 -0.6344
 1856SOL    HW2 6268   5.154   0.832   4.829  0.4961  0.3419 -0.3059
 1857SOL     OW 6269   7.430   7.735   3.979 -0.1245 -0.0627  0.1961
 1857SOL    HW1 6270   7.461   7.658   4.027  0.8160  1.2983  1.8682
 1857SOL    HW2 6271   7.398   7.700   3.896  1.4401 -2.1136  0.3849
 1858SOL     OW 6272   6.867   1.522   5.089  0.0336 -0.2877 -0.1639
 1858SOL    HW1 6273   6.859   1.618   5.084 -0.8042 -0.3467 -0.0748
 1858SOL    HW2 6274   6.833   1.491   5.006 -1.6612 -0.6020  0.6036
 1859SOL     OW 6275   6.187   6.109   2.035  0.7386  0.4316  0.2037
 1859SOL    HW1 6276   6.249   6.134   1.967 -0.4201  1.2814 -0.5861
 1859SOL    HW2 6277   6.154   6.192   2.069 -0.5996  0.0194 -0.0198
 1860SOL     OW 6278   6.571   2.642   4.832  0.2573 -0.1131 -0.1695
 1860SOL    HW1 6279   6.484   2.636   4.792  0.7793  0.8383 -1.5567
 1860SOL    HW2 6280   6.629   2.601   4.768  1.0346  0.8195 -0.0907
 1861SOL     OW 6281   5.738   6.569   3.556 -0.4675  0.3421  0.0653
 1861SOL    HW1 6282   5.766   6.487   3.514 -0.0396  0.0286  0.9329
 1861SOL    HW2 6283   5.762   6.557   3.648  0.1736  1.7036  0.0872
 1862SOL     OW 6284   2.640   1.596   0.628  0.4418 -0.1887 -0.2343
 1862SOL    HW1 6285   2.580   1.558   0.693  1.1074  1.4543  1.4178
 1862SOL    HW2 6286   2.586   1.660   0.581  0.5520  0.3122  0.3181
 1863SOL     OW 6287   4.839   3.303   2.762 -0.3252 -0.4717  0.5815
 1863SOL    HW1 6288   4.919   3.353   2.747 -0.4743 -0.2624  0.4748
 1863SOL    HW2 6289   4.860   3.245   2.836  0.3109 -1.2937 -0.2260
 1864SOL     OW 6290   5.029   7.517   7.154 -0.5208  0.1404  0.3233
 1864SOL    HW1 6291   5.057   7.596   7.201 -0.7302  0.7279 -0.5080
 1864SOL    HW2 6292   5.015   7.547   7.064  0.0601 -1.0017 -0.1554
 1865SOL     OW 6293   1.265   5.490   7.476 -0.5688 -0.0971  0.0526
 1865SOL    HW1 6294   1.183   5.442   7.467 -1.5761  1.6662 -0.6303
 1865SOL    HW2 6295   1.255   5.567   7.420  0.6952  1.2699  1.5769
 1866SOL     OW 6296   2.116   5.869   7.041 -0.5461 -0.4276  0.4132
 1866SOL    HW1 6297   2.143   5.890   6.951  1.1511 -0.0037  0.9802
 1866SOL    HW2 6298   2.023   5.891   7.043 -0.4024  0.5048 -0.9742
 1867SOL     OW 6299   6.336   3.589   7.167 -0.1524  0.0091 -1.0856
 1867SOL    HW1 6300   6.408   3.634   7.212 -0.3208  0.2677 -1.0768
 1867SOL    HW2 6301   6.270   3.656   7.154 -0.3651 -0.2141 -1.1571
 1868SOL     OW 6302   4.911   5.223   7.958 -0.2663  0.9775 -0.1858
 1868SOL    HW1 6303   4.822   5.251   7.982 -0.9285 -0.8663 -0.3418
 1868SOL    HW2 6304   4.968   5.270   8.019 -1.4790  0.9409  1.0269
 1869SOL     OW 6305   2.730   1.319   7.810 -0.8196 -0.1454 -0.8567
 1869SOL    HW1 6306   2.723   1.412   7.786  1.2083  0.9822  2.4087
 1869SOL    HW2 6307   2.797   1.284   7.751 -0.8557  0.7005 -1.4163
 1870SOL     OW 6308   0.090   5.899   0.685 -0.2715  0.2411  0.1695
 1870SOL    HW1 6309   0.139   5.854   0.616 -0.0410  0.0650  0.4433
 1870SOL    HW2 6310   0.069   5.985   0.649 -0.1716  0.1398 -0.1274
 1871SOL     OW 6311   6.895   7.081   1.493  0.2857 -0.4091 -0.2390
 1871SOL    HW1 6312   6.971   7.085   1.435 -1.0882 -0.5952 -2.1496
 1871SOL    HW2 6313   6.823   7.054   1.436 -1.1608 -0.5287  1.5672
 1872SOL     OW 6314   2.890   4.897   6.289 -0.1263 -0.0197  0.7720
 1872SOL    HW1 6315   2.844   4.981   6.284  1.4311  0.8762  0.7471
 1872SOL    HW2 6316   2.941   4.902   6.370  1.5377 -0.0751 -0.2302
 1873SOL     OW 6317   2.109   1.483   7.914  0.2446  0.3676  0.2605
 1873SOL    HW1 6318   2.152   1.417   7.969 -1.4020 -0.4754  0.5893
 1873SOL    HW2 6319   2.103   1.443   7.827 -1.4885 -0.3110  0.6488
 1874SOL     OW 6320   0.342   6.564   1.364  0.3901 -0.5845  0.0354
 1874SOL    HW1 6321   0.321   6.598   1.451 -0.4540  0.2690 -0.4901
 1874SOL    HW2 6322   0.437   6.556   1.364  0.6884  2.2336  0.0426
 1875SOL     OW 6323   7.120   6.517   3.810 -0.5734 -0.4509  0.0913
 1875SOL    HW1 6324   7.050   6.458   3.783 -1.8616  0.3057  1.5723
 1875SOL    HW2 6325   7.142   6.489   3.899  1.1708 -0.7918 -0.4089
 1876SOL     OW 6326   5.846   7.195   7.480 -0.5115 -0.4042  0.0200
 1876SOL    HW1 6327   5.851   7.101   7.496 -1.3885 -0.1290  2.2510
 1876SOL    HW2 6328   5.820   7.203   7.388  1.2291 -2.2723 -0.7080
 1877SOL     OW 6329   1.780   1.479   2.190 -0.2894  0.7394  0.0700
 1877SOL    HW1 6330   1.713   1.424   2.231 -0.4193  2.2480  2.0696
 1877SOL    HW2 6331   1.861   1.430   2.200 -0.3803  0.9042  1.9534
 1878SOL     OW 6332   3.544   4.086   3.290  0.6320  0.1856  0.2675
 1878SOL    HW1 6333   3.462   4.130   3.266  0.2343  0.8831  2.6228
 1878SOL    HW2 6334   3.517   4.020   3.355  1.8988  0.2771  0.9100
 1879SOL     OW 6335   4.748   3.855   5.333  0.2538  0.1970  0.9310
 1879SOL    HW1 6336   4.653   3.844   5.341  0.0305  0.0126 -1.3817
 1879SOL    HW2 6337   4.760   3.905   5.253  2.1791 -2.2667 -0.4829
 1880SOL     OW 6338   5.864   7.871   3.281  0.2261  0.2160  0.3564
 1880SOL    HW1 6339   5.909   7.912   3.208 -1.1750  0.6539 -0.3014
 1880SOL    HW2 6340   5.807   7.805   3.240  0.5172 -0.5697  1.1794
 1881SOL     OW 6341   6.438   7.571   2.536 -0.5531 -0.8798  0.3332
 1881SOL    HW1 6342   6.371   7.611   2.481 -0.3344 -1.8275 -0.6476
 1881SOL    HW2 6343   6.518   7.574   2.483 -0.1718 -1.2029  0.8717
 1882SOL     OW 6344   2.187   2.039   2.109  0.7204 -0.1160 -0.1690
 1882SOL    HW1 6345   2.263   2.027   2.053  1.0413 -1.6941  0.5526
 1882SOL    HW2 6346   2.223   2.044   2.198 -0.0476 -2.7258  0.3887
 1883SOL     OW 6347   3.633   3.499   7.602  0.5438 -0.0060  0.0092
 1883SOL    HW1 6348   3.579   3.493   7.681  1.2592 -1.2434  0.4429
 1883SOL    HW2 6349   3.685   3.579   7.613  1.6740 -0.8947  1.5116
 1884SOL     OW 6350   3.724   5.592   7.814 -0.0180 -0.7156  0.0286
 1884SOL    HW1 6351   3.744   5.670   7.762  0.0888 -0.5670  0.2898
 1884SOL    HW2 6352   3.808   5.545   7.820  0.0668 -0.5216  0.4122
 1885SOL     OW 6353   5.050   4.199   2.500 -0.1500 -0.1879  0.0262
 1885SOL    HW1 6354   5.015   4.250   2.426 -1.1849 -1.1836 -0.2048
 1885SOL    HW2 6355   5.108   4.135   2.459  0.8896  0.5623  0.2857
 1886SOL     OW 6356   6.152   3.066   5.659 -0.0501 -0.1013 -0.1708
 1886SOL    HW1 6357   6.113   3.126   5.595 -1.2930 -0.9713 -0.2484
 1886SOL    HW2 6358   6.123   3.099   5.744  1.8747  1.2540  0.0236
 1887SOL     OW 6359   6.381   4.039   5.902 -0.1026  0.1825 -0.5764
 1887SOL    HW1 6360   6.417   4.105   5.961 -0.0465  0.2549 -0.6928
 1887SOL    HW2 6361   6.450   3.972   5.896  0.4723  0.8575 -1.6858
 1888SOL     OW 6362   3.152   4.773   5.755  0.2996 -0.4218 -0.5037
 1888SOL    HW1 6363   3.152   4.854   5.806  0.6465 -0.8700  0.2236
 1888SOL    HW2 6364   3.088   4.788   5.686 -1.9168 -0.6350  1.4037
 1889SOL     OW 6365   4.104   2.773   5.659 -0.7110  0.2446 -0.1754
 1889SOL    HW1 6366   4.171   2.712   5.628  0.3890  0.8264  0.9303
 1889SOL    HW2 6367   4.041   2.778   5.588  0.6078 -0.0614 -1.4242
 1890SOL     OW 6368   5.505   5.500   7.954 -0.1589 -0.5762 -1.0198
 1890SOL    HW1 6369   5.577   5.562   7.949  0.0420 -0.7128 -0.0231
 1890SOL    HW2 6370   5.533   5.436   8.020 -1.1801 -0.6435 -0.6340
 1891SOL     OW 6371   1.858   5.942   2.710  0.0034  0.0889 -0.0227
 1891SOL    HW1 6372   1.875   6.035   2.730 -1.0891  0.5900 -1.2760
 1891SOL    HW2 6373   1.763   5.936   2.707  0.0825 -0.8617 -0.9145
 1892SOL     OW 6374   1.990   7.808   2.550  0.1991 -0.3715 -0.3146
 1892SOL    HW1 6375   2.057   7.787   2.614  0.1601 -2.2994 -0.8645
 1892SOL    HW2 6376   2.037   7.810   2.466  0.1122  1.3997 -0.3736
 1893SOL     OW 6377   7.016   6.077   3.794 -0.5303  0.0354 -0.4810
 1893SOL    HW1 6378   7.028   6.168   3.764 -1.1965  0.3636  0.2271
 1893SOL    HW2 6379   6.923   6.060   3.782 -0.2731 -0.8464 -1.3595
 1894SOL     OW 6380   6.047   7.672   1.586  0.1887  0.4084  0.9246
 1894SOL    HW1 6381   5.998   7.629   1.656  0.8417  2.0937  2.4934
 1894SOL    HW2 6382   6.121   7.614   1.570 -0.4873 -0.4768  0.9219
 1895SOL     OW 6383   3.068   7.770   6.616  0.6220 -0.0791  0.6451
 1895SOL    HW1 6384   3.051   7.734   6.703  1.7859  1.6184  1.6357
 1895SOL    HW2 6385   3.145   7.826   6.627  1.1133 -0.2080 -1.6006
 1896SOL     OW 6386   3.842   2.159   3.723 -0.2085 -0.0085 -0.1942
 1896SOL    HW1 6387   3.936   2.143   3.723 -0.2952 -0.5442 -0.2297
 1896SOL    HW2 6388   3.828   2.227   3.657  0.0986 -0.2744 -0.5357
 1897SOL     OW 6389   1.289   3.040   4.940 -0.3313 -0.8755  0.0605
 1897SOL    HW1 6390   1.195   3.046   4.923  0.1221 -0.4216 -2.8119
 1897SOL    HW2 6391   1.318   3.131   4.944  0.1391 -1.0144 -0.1665
 1898SOL     OW 6392   3.916   4.436   3.716 -0.2011  0.5732 -0.6085
 1898SOL    HW1 6393   3.906   4.363   3.655 -0.7549  1.5270 -1.7056
 1898SOL    HW2 6394   3.866   4.508   3.675 -1.6811  0.8838  1.5859
 1899SOL     OW 6395   4.673   3.686   7.267 -0.6825 -0.1014  0.1282
 1899SOL    HW1 6396   4.638   3.663   7.353  1.7093 -1.5963  0.7874
 1899SOL    HW2 6397   4.763   3.713   7.285  0.2100 -1.4531 -1.9938
 1900SOL     OW 6398   3.980   7.693   2.134  0.6377 -0.1093  0.4262
 1900SOL    HW1 6399   3.987   7.627   2.202 -0.2323 -0.5107  0.1358
 1900SOL    HW2 6400   3.899   7.673   2.089 -0.4337  2.0498  1.2641
 1901SOL     OW 6401   1.732   2.458   7.225  0.4942 -0.3299  0.3412
 1901SOL    HW1 6402   1.703   2.532   7.278  0.5330  0.1265 -0.2702
 1901SOL    HW2 6403   1.821   2.440   7.255  0.2440 -0.5685  0.9582
 1902SOL     OW 6404   4.590   5.204   7.550  0.1576  0.4165 -0.1074
 1902SOL    HW1 6405   4.496   5.204   7.571  0.1591 -0.2253 -0.0571
 1902SOL    HW2 6406   4.595   5.241   7.462 -0.2272 -0.2516 -0.4235
 1903SOL     OW 6407   4.537   4.790   1.365 -0.0923  0.2625  0.0631
 1903SOL    HW1 6408   4.482   4.749   1.299 -0.2716  0.1900  0.2570
 1903SOL    HW2 6409   4.567   4.718   1.420  0.3172  0.2833 -0.1293
 1904SOL     OW 6410   0.924   0.411   7.728  0.2364  0.7690  0.1258
 1904SOL    HW1 6411   0.968   0.329   7.706  1.5591  1.3901  0.3405
 1904SOL    HW2 6412   0.916   0.409   7.823 -0.8796  0.3439  0.0378
 1905SOL     OW 6413   7.811   7.923   0.529  0.2359 -0.1218  0.7112
 1905SOL    HW1 6414   7.772   7.863   0.465 -2.0722  1.2773  0.6925
 1905SOL    HW2 6415   7.812   7.873   0.610 -2.0050 -0.1539  0.7834
 1906SOL     OW 6416   6.240   5.372   2.159  0.0042 -0.2460  0.1642
 1906SOL    HW1 6417   6.229   5.423   2.239  0.1109  1.5625 -0.9255
 1906SOL    HW2 6418   6.320   5.406   2.118 -0.1548 -0.9875 -0.8317
 1907SOL     OW 6419   7.569   4.237   6.452 -0.5384 -0.3332  0.2477
 1907SOL    HW1 6420   7.477   4.252   6.471 -0.2608  0.9093  0.7095
 1907SOL    HW2 6421   7.583   4.144   6.469 -1.3728 -0.2371  1.5817
 1908SOL     OW 6422   2.271   1.640   7.494 -0.0175  0.3430 -0.6146
 1908SOL    HW1 6423   2.350   1.590   7.514  0.3969  2.0313  2.6020
 1908SOL    HW2 6424   2.295   1.696   7.421  0.6963 -1.3328 -1.7367
 1909SOL     OW 6425   6.703   7.815   7.710 -0.3551  0.3761 -0.1838
 1909SOL    HW1 6426   6.622   7.855   7.678 -2.1793 -2.7503  0.1560
 1909SOL    HW2 6427   6.729   7.754   7.641  0.1918 -0.6299  0.8866
 1910SOL     OW 6428   6.551   1.030   5.134  0.0338  0.4159 -0.0018
 1910SOL    HW1 6429   6.465   1.034   5.092  0.0881  0.4199 -0.1126
 1910SOL    HW2 6430   6.544   0.957   5.196  1.2438 -2.4116 -2.9339
 1911SOL     OW 6431   1.202   4.397   7.075 -0.2174 -0.3353  0.1227
 1911SOL    HW1 6432   1.114   4.370   7.103 -0.4314  0.2234  0.0132
 1911SOL    HW2 6433   1.228   4.463   7.139 -0.8581  1.2178 -1.1507
 1912SOL     OW 6434   6.254   6.369   5.245 -0.1629 -0.1832 -0.0737
 1912SOL    HW1 6435   6.191   6.298   5.241  0.5947 -0.9359  0.8111
 1912SOL    HW2 6436   6.316   6.350   5.175 -0.2871 -0.0695 -0.2146
 1913SOL     OW 6437   7.185   4.847   6.293 -0.0712 -0.3444  0.1638
 1913SOL    HW1 6438   7.275   4.853   6.261  0.1621 -1.8163  0.4915
 1913SOL    HW2 6439   7.138   4.913   6.242  0.8427 -0.7487 -1.2909
 1914SOL     OW 6440   5.561   5.279   3.373  0.0534 -0.1258  0.0405
 1914SOL    HW1 6441   5.616   5.234   3.437  0.6310 -2.2732 -1.8373
 1914SOL    HW2 6442   5.473   5.244   3.388  0.2925 -1.0492 -0.6906
 1915SOL     OW 6443   3.319   7.351   6.644 -0.3705 -0.0460  0.1551
 1915SOL    HW1 6444   3.307   7.369   6.737  0.4770 -0.2422  0.3070
 1915SOL    HW2 6445   3.414   7.352   6.631 -0.2673 -3.0147 -0.0828
 1916SOL     OW 6446   4.668   0.014   3.210 -0.2259  0.5147  0.1543
 1916SOL    HW1 6447   4.585  -0.018   3.175  1.4394 -1.4951 -2.2849
 1916SOL    HW2 6448   4.685   0.095   3.162 -0.2251  0.3029 -0.2024
 1917SOL     OW 6449   1.041   2.396   1.916  0.4114  0.5041 -0.0892
 1917SOL    HW1 6450   0.963   2.396   1.972  0.2602  1.9136 -0.2649
 1917SOL    HW2 6451   1.017   2.450   1.841  2.1364  2.5494  0.7423
 1918SOL     OW 6452   5.491   1.522   7.308 -0.1132 -0.0888  0.7631
 1918SOL    HW1 6453   5.421   1.571   7.264 -0.9077 -1.6353  0.2466
 1918SOL    HW2 6454   5.479   1.541   7.401 -1.5694 -0.7564  0.7324
 1919SOL     OW 6455   3.198   2.782   6.175 -0.3264  0.3466  0.4204
 1919SOL    HW1 6456   3.155   2.699   6.154 -1.1619  0.8898 -0.0527
 1919SOL    HW2 6457   3.259   2.797   6.103 -1.5271  1.0610 -0.4693
 1920SOL     OW 6458   2.559   3.181   3.177 -0.1127 -0.3250  0.4676
 1920SOL    HW1 6459   2.466   3.194   3.160  0.3168  1.0598 -1.0327
 1920SOL    HW2 6460   2.595   3.269   3.184  1.3967 -0.7766 -0.8873
 1921SOL     OW 6461   3.640   6.280   6.536  0.2853  0.0639  0.3843
 1921SOL    HW1 6462   3.605   6.316   6.618  1.5381 -0.6562  1.2649
 1921SOL    HW2 6463   3.722   6.238   6.561  0.4758 -0.5645 -1.1797
 1922SOL     OW 6464   4.073   1.820   5.682  0.3181  0.1248 -0.0011
 1922SOL    HW1 6465   3.990   1.867   5.667 -0.1225 -0.1915  1.3114
 1922SOL    HW2 6466   4.140   1.880   5.650 -0.2961  1.3232  0.8575
 1923SOL     OW 6467   1.139   2.847   3.098 -0.0439 -0.2896  0.3619
 1923SOL    HW1 6468   1.050   2.844   3.065 -0.5772 -0.5885  1.7707
 1923SOL    HW2 6469   1.165   2.755   3.106  1.1698 -0.2470 -1.9131
 1924SOL     OW 6470   7.462   1.201   5.809  0.4714 -0.7123  0.0281
 1924SOL    HW1 6471   7.450   1.294   5.787  0.6908 -0.6399  0.2135
 1924SOL    HW2 6472   7.486   1.160   5.726 -1.8496 -1.0169 -0.5547
 1925SOL     OW 6473   5.970   7.569   7.749  0.6099 -0.5541 -0.0419
 1925SOL    HW1 6474   5.926   7.542   7.669  0.1211  0.6568 -0.2032
 1925SOL    HW2 6475   5.920   7.528   7.819 -0.1054 -0.1279 -0.2835
 1926SOL     OW 6476   1.080   5.406   6.215  0.1275 -0.1129  0.0930
 1926SOL    HW1 6477   1.049   5.328   6.169  0.6493  0.4246 -1.2149
 1926SOL    HW2 6478   1.163   5.380   6.254 -0.1262 -0.4548  0.4154
 1927SOL     OW 6479   7.292   4.591   4.407 -0.5408 -0.1155 -0.0537
 1927SOL    HW1 6480   7.338   4.606   4.324  0.5402 -2.1700  0.1109
 1927SOL    HW2 6481   7.338   4.647   4.470  3.6815 -3.7610  0.6636
 1928SOL     OW 6482   6.475   3.965   7.091  0.2619  0.7241  0.3476
 1928SOL    HW1 6483   6.512   4.001   7.010  1.9240 -0.1497  0.6811
 1928SOL    HW2 6484   6.520   3.882   7.103 -0.8512  0.2631  1.5413
 1929SOL     OW 6485   5.061   6.683   7.377 -0.0001  0.1749 -0.9750
 1929SOL    HW1 6486   4.982   6.671   7.325  0.0497 -1.1257 -0.7882
 1929SOL    HW2 6487   5.133   6.663   7.317  0.0674 -1.0558 -0.5225
 1930SOL     OW 6488   4.811   6.639   7.212 -0.3556 -0.0116  0.4787
 1930SOL    HW1 6489   4.847   6.560   7.173  1.4756  0.4141  1.2181
 1930SOL    HW2 6490   4.735   6.660   7.158  0.7134 -0.7493 -1.4014
 1931SOL     OW 6491   0.683   3.564   4.400 -0.3534 -0.0482 -0.6261
 1931SOL    HW1 6492   0.626   3.528   4.332 -3.0980  1.5901  0.6308
 1931SOL    HW2 6493   0.733   3.633   4.355 -1.0546  0.0311 -1.3109
 1932SOL     OW 6494   0.416   6.559   1.816  0.5587 -0.0362  0.9266
 1932SOL    HW1 6495   0.385   6.469   1.820 -0.9324  0.3861 -0.2538
 1932SOL    HW2 6496   0.498   6.559   1.866  1.8999 -2.5546 -1.0974
 1933SOL     OW 6497   5.408   1.881   3.238 -0.3685  0.8110 -0.2127
 1933SOL    HW1 6498   5.346   1.873   3.311  0.3074 -1.3762  0.1907
 1933SOL    HW2 6499   5.401   1.973   3.211 -0.1487  1.9509  3.0672
 1934SOL     OW 6500   2.173   3.982   2.135  0.2424 -0.2276 -0.0323
 1934SOL    HW1 6501   2.263   3.983   2.103 -0.0834  2.0920 -1.0256
 1934SOL    HW2 6502   2.130   4.055   2.091 -1.8968 -0.7026  1.1134
 1935SOL     OW 6503   1.007   3.308   2.590 -0.0604 -0.5474  0.4162
 1935SOL    HW1 6504   0.939   3.373   2.606 -2.2045 -2.1929 -1.3118
 1935SOL    HW2 6505   1.069   3.352   2.532 -1.5558 -0.0452 -0.8784
 1936SOL     OW 6506   1.087   2.442   3.347 -0.1472 -0.2012  0.1273
 1936SOL    HW1 6507   1.093   2.468   3.439 -2.4075 -0.9077  0.5248
 1936SOL    HW2 6508   1.023   2.502   3.310 -1.6204 -1.8899 -0.1764
 1937SOL     OW 6509   0.506   0.431   4.760 -0.3391  0.5418  0.6363
 1937SOL    HW1 6510   0.520   0.519   4.726 -0.8171  0.6489  0.7045
 1937SOL    HW2 6511   0.468   0.383   4.686  0.0965  0.3432  0.5425
 1938SOL     OW 6512   3.844   1.899   7.249 -0.2431  0.3513  0.5769
 1938SOL    HW1 6513   3.931   1.868   7.274  0.1278 -0.3162 -1.4099
 1938SOL    HW2 6514   3.794   1.896   7.331  0.9242 -1.6103  1.3008
 1939SOL     OW 6515   0.425   6.068   7.172  0.4467 -0.6084 -0.5760
 1939SOL    HW1 6516   0.463   6.007   7.109 -1.0942 -3.7034  1.2492
 1939SOL    HW2 6517   0.345   6.100   7.130  1.0652 -0.1159 -1.3972
 1940SOL     OW 6518   4.878   1.866   4.430  0.2141  0.2051 -0.0887
 1940SOL    HW1 6519   4.889   1.807   4.355 -3.1925  1.2537 -1.5978
 1940SOL    HW2 6520   4.947   1.932   4.418  1.9537 -1.5257 -0.2201
 1941SOL     OW 6521   3.693   6.648   3.652  0.2442  0.6254  0.7377
 1941SOL    HW1 6522   3.729   6.728   3.690 -0.7617  0.6742  1.6283
 1941SOL    HW2 6523   3.766   6.586   3.654  0.7618  1.2305  0.9233
 1942SOL     OW 6524   5.863   7.865   0.309  0.2542  0.0064 -0.0839
 1942SOL    HW1 6525   5.938   7.897   0.259  1.5701 -1.3526  0.9319
 1942SOL    HW2 6526   5.794   7.853   0.244  0.9242  1.2094 -1.0575
 1943SOL     OW 6527   0.688   1.747   7.453 -0.2746 -0.0856 -0.1300
 1943SOL    HW1 6528   0.776   1.736   7.418 -0.2223 -0.1431  0.0248
 1943SOL    HW2 6529   0.699   1.800   7.532 -0.4543  0.5497 -0.5152
 1944SOL     OW 6530   1.475   0.698   6.896  0.5691 -0.3788  0.4801
 1944SOL    HW1 6531   1.381   0.708   6.908  0.3710  0.3079 -1.3094
 1944SOL    HW2 6532   1.510   0.787   6.907  0.6282 -0.1121 -1.6199
 1945SOL     OW 6533   3.619   5.288   7.049  0.4425  0.1732 -0.2339
 1945SOL    HW1 6534   3.565   5.224   7.002 -0.0313  0.6134 -0.3049
 1945SOL    HW2 6535   3.576   5.296   7.134  0.1541  0.8235 -0.4339
 1946SOL     OW 6536   7.156   0.631   0.112 -0.2843  0.4125  0.2006
 1946SOL    HW1 6537   7.115   0.717   0.118 -0.7403  0.2991 -0.9675
 1946SOL    HW2 6538   7.093   0.579   0.062  1.1399  0.1479 -1.4024
 1947SOL     OW 6539   4.134   2.293   7.942  0.0979  0.1650  0.1852
 1947SOL    HW1 6540   4.224   2.306   7.912 -0.1370 -2.7698 -2.4117
 1947SOL    HW2 6541   4.142   2.227   8.011  0.0244  1.2429  1.2509
 1948SOL     OW 6542   1.990   5.946   5.249 -0.0067  0.0425  0.1740
 1948SOL    HW1 6543   1.943   5.980   5.173  1.7860  0.2850 -0.8734
 1948SOL    HW2 6544   2.002   6.022   5.306  0.5122  0.3269 -0.3090
 1949SOL     OW 6545   2.820   7.317   5.907  0.3388 -0.0628 -0.1538
 1949SOL    HW1 6546   2.782   7.254   5.968 -0.2987  0.3328 -0.1289
 1949SOL    HW2 6547   2.747   7.341   5.849  0.1470  1.8125  0.8008
 1950SOL     OW 6548   0.595   2.694   2.035 -0.0398  0.5419  0.3926
 1950SOL    HW1 6549   0.534   2.748   1.985  1.5197 -0.1334 -2.4450
 1950SOL    HW2 6550   0.547   2.613   2.053 -0.9001  1.1199  0.7347
 1951SOL     OW 6551   5.339   1.137   1.207  0.0717  0.4883  0.0588
 1951SOL    HW1 6552   5.395   1.195   1.260 -0.5411  1.1989 -0.0522
 1951SOL    HW2 6553   5.334   1.056   1.257  1.0167  0.4889  0.1809
 1952SOL     OW 6554   7.253   2.267   0.315  1.0131  0.2805  0.6333
 1952SOL    HW1 6555   7.258   2.179   0.354  2.7993  0.6357  1.2891
 1952SOL    HW2 6556   7.173   2.304   0.352  2.5283  0.5616  4.0300
 1953SOL     OW 6557   5.895   1.866   4.182 -0.2475  0.4726 -0.4770
 1953SOL    HW1 6558   5.880   1.927   4.111 -2.8970  0.5657  0.0621
 1953SOL    HW2 6559   5.814   1.867   4.233  1.3415  0.0772  2.3197
 1954SOL     OW 6560   2.566   6.165   3.166  0.3815  1.1556  0.6762
 1954SOL    HW1 6561   2.507   6.240   3.156  1.5365  1.8951 -0.9622
 1954SOL    HW2 6562   2.519   6.091   3.127 -0.6065  1.0751  1.9579
 1955SOL     OW 6563   1.316   7.559   0.695 -0.2646 -0.0593  0.0446
 1955SOL    HW1 6564   1.251   7.533   0.630  0.4538 -0.5132 -0.5030
 1955SOL    HW2 6565   1.367   7.628   0.652 -0.3027  0.2070  0.4236
 1956SOL     OW 6566   7.551   5.674   6.800  0.2060  0.5628  0.2247
 1956SOL    HW1 6567   7.537   5.599   6.743  2.4709  0.8789 -0.8917
 1956SOL    HW2 6568   7.464   5.706   6.821 -0.7493 -0.5497 -1.7681
 1957SOL     OW 6569   4.401   5.892   6.375 -0.7408 -0.2106  0.3494
 1957SOL    HW1 6570   4.324   5.842   6.402  0.1496 -1.4030  0.7393
 1957SOL    HW2 6571   4.368   5.950   6.307 -2.1909  0.0085  1.1839
 1958SOL     OW 6572   0.283   5.589   4.965 -0.1076  0.1210 -0.1320
 1958SOL    HW1 6573   0.246   5.657   4.909  0.8165  1.3906  0.7259
 1958SOL    HW2 6574   0.302   5.517   4.906 -1.5801  0.3878 -0.9943
 1959SOL     OW 6575   0.279   6.506   4.926  0.1604 -0.8548  0.3845
 1959SOL    HW1 6576   0.210   6.478   4.866 -0.2768  1.6683 -0.4018
 1959SOL    HW2 6577   0.350   6.535   4.869  0.5765 -0.4007  1.1180
 1960SOL     OW 6578   6.852   4.682   0.042  0.4263 -0.2461  0.4239
 1960SOL    HW1 6579   6.840   4.599   0.087 -0.0238 -0.7823 -0.6485
 1960SOL    HW2 6580   6.873   4.745   0.112  0.0794 -1.1101  1.3245
 1961SOL     OW 6581   7.646   1.358   1.142 -0.1924 -0.0039 -0.7751
 1961SOL    HW1 6582   7.663   1.452   1.144 -1.4029  0.2252  0.5093
 1961SOL    HW2 6583   7.582   1.344   1.212 -0.4102 -1.7120 -1.2739
 1962SOL     OW 6584   4.161   4.515   5.075 -0.0147 -0.6449 -0.0587
 1962SOL    HW1 6585   4.253   4.496   5.056 -0.2674  0.1266 -2.3999
 1962SOL    HW2 6586   4.160   4.541   5.167  2.4936  1.5059 -0.5190
 1963SOL     OW 6587   3.606   1.206   1.300 -0.3453  0.5612  0.4232
 1963SOL    HW1 6588   3.573   1.293   1.277 -2.0172 -0.5158 -1.6657
 1963SOL    HW2 6589   3.692   1.222   1.338 -0.1805  3.0464 -0.7948
 1964SOL     OW 6590   2.001   3.388   2.990 -0.3318 -0.5155 -0.2306
 1964SOL    HW1 6591   1.969   3.351   2.908  0.5975  0.0654 -0.8730
 1964SOL    HW2 6592   2.010   3.482   2.973  2.3046 -0.7209 -0.3195
 1965SOL     OW 6593   1.004   0.848   0.793  0.0802  0.0752 -0.5483
 1965SOL    HW1 6594   0.983   0.893   0.710  0.2108  1.5059  0.1617
 1965SOL    HW2 6595   0.919   0.824   0.829 -0.2177  2.2989  0.3969
 1966SOL     OW 6596   0.733   3.629   3.135 -0.2138  1.0846  0.2165
 1966SOL    HW1 6597   0.781   3.566   3.189  0.9415  1.8701  0.1488
 1966SOL    HW2 6598   0.739   3.594   3.046  0.3863  1.2468  0.1861
 1967SOL     OW 6599   7.698   3.396   2.204 -0.2375  0.3933  0.1003
 1967SOL    HW1 6600   7.609   3.428   2.218 -1.0379 -2.2215  1.8819
 1967SOL    HW2 6601   7.719   3.349   2.284  1.9939 -0.7296 -1.0430
 1968SOL     OW 6602   3.339   7.956   5.388 -0.1776 -0.0182 -0.4520
 1968SOL    HW1 6603   3.313   7.966   5.296  0.7703  3.4138 -0.4934
 1968SOL    HW2 6604   3.259   7.976   5.437 -0.1369  0.3441 -0.5336
 1969SOL     OW 6605   6.995   0.624   3.500 -0.4596 -0.3391  0.2930
 1969SOL    HW1 6606   7.073   0.633   3.445 -0.6717 -1.6561 -0.2560
 1969SOL    HW2 6607   6.938   0.697   3.474 -0.0806 -0.2940 -0.4260
 1970SOL     OW 6608   7.704   1.413   2.854  0.0050  0.0124  0.0103
 1970SOL    HW1 6609   7.758   1.491   2.840 -0.6378  0.4659 -0.0046
 1970SOL    HW2 6610   7.618   1.436   2.817 -1.0592  0.3916  2.5024
 1971SOL     OW 6611   7.555   6.836   2.095  0.5256 -0.0861 -0.0674
 1971SOL    HW1 6612   7.638   6.846   2.142  1.6224  0.6442 -1.9942
 1971SOL    HW2 6613   7.580   6.792   2.013 -0.4235  2.6957 -2.0010
 1972SOL     OW 6614   6.160   0.282   4.948  0.3436  0.2361 -0.6059
 1972SOL    HW1 6615   6.067   0.261   4.958  0.4573 -0.6850 -1.3268
 1972SOL    HW2 6616   6.205   0.197   4.959  0.9641  0.3735 -1.9007
 1973SOL     OW 6617   6.799   6.874   4.494 -0.1073 -0.2503 -0.1675
 1973SOL    HW1 6618   6.733   6.838   4.554  0.8777  0.4071  1.3955
 1973SOL    HW2 6619   6.842   6.943   4.545  2.3200 -1.1856 -0.7970
 1974SOL     OW 6620   4.357   6.549   2.200  0.1932 -0.1001 -0.0587
 1974SOL    HW1 6621   4.322   6.637   2.184  1.6678  0.5494  0.1316
 1974SOL    HW2 6622   4.447   6.564   2.228 -0.0785 -1.5952  1.7621
 1975SOL     OW 6623   2.599   4.544   2.395  0.2808 -0.8073  0.3007
 1975SOL    HW1 6624   2.560   4.544   2.308  0.7917 -0.3817  0.0632
 1975SOL    HW2 6625   2.526   4.564   2.454 -0.0576 -1.0561 -0.0284
 1976SOL     OW 6626   6.471   7.150   0.547  0.2968  0.5598  0.0955
 1976SOL    HW1 6627   6.499   7.094   0.619  1.4899 -0.7647 -1.3157
 1976SOL    HW2 6628   6.466   7.091   0.471  0.1454  2.0817 -1.1303
 1977SOL     OW 6629   6.246   1.474   0.239 -0.2822 -0.4162 -0.8134
 1977SOL    HW1 6630   6.326   1.504   0.195  0.0263  3.0187  1.6925
 1977SOL    HW2 6631   6.175   1.507   0.184  0.0864  0.7760 -0.6077
 1978SOL     OW 6632   4.142   6.573   4.368 -0.1564  0.5055 -0.2242
 1978SOL    HW1 6633   4.100   6.564   4.453 -0.2994  3.5440  0.1422
 1978SOL    HW2 6634   4.236   6.565   4.386 -0.2556 -2.5863 -0.4776
 1979SOL     OW 6635   0.843   4.999   0.308 -0.8440  0.3311 -0.5664
 1979SOL    HW1 6636   0.923   4.946   0.305 -0.3436  0.9623  0.7763
 1979SOL    HW2 6637   0.786   4.961   0.241 -0.2400 -1.4501 -0.1179
 1980SOL     OW 6638   0.060   0.024   3.842  0.1854 -0.2518 -0.3007
 1980SOL    HW1 6639   0.014  -0.016   3.768  0.4379 -1.7663  0.3117
 1980SOL    HW2 6640   0.008  -0.002   3.918  0.1299  0.9849  0.1072
 1981SOL     OW 6641   3.751   2.048   4.545  0.4106  0.5848  0.4907
 1981SOL    HW1 6642   3.792   2.044   4.632  0.5693  1.1009  0.4386
 1981SOL    HW2 6643   3.817   2.011   4.486 -0.2730 -1.2054  0.7850
 1982SOL     OW 6644   0.530   7.060   5.879 -0.0201  0.7594  0.2191
 1982SOL    HW1 6645   0.561   7.056   5.788  1.4607  1.6941  0.6543
 1982SOL    HW2 6646   0.450   7.112   5.874  0.5325  1.5664 -0.4464
 1983SOL     OW 6647   1.283   0.319   6.946 -0.2919 -0.0085  0.0518
 1983SOL    HW1 6648   1.228   0.344   6.872 -2.1452 -0.2538  1.2866
 1983SOL    HW2 6649   1.356   0.271   6.906 -0.8302  0.5298 -1.6653
 1984SOL     OW 6650   1.617   0.815   1.574  0.2670 -0.1557 -0.1746
 1984SOL    HW1 6651   1.656   0.888   1.525  0.2065 -0.1015 -0.1429
 1984SOL    HW2 6652   1.658   0.818   1.660  2.1622 -1.7142 -0.9470
 1985SOL     OW 6653   7.752   7.733   5.344 -0.3748 -0.1224 -0.2759
 1985SOL    HW1 6654   7.823   7.797   5.351 -1.1346  0.8990 -1.5025
 1985SOL    HW2 6655   7.769   7.688   5.261  0.6733 -2.2257  0.9937
 1986SOL     OW 6656   2.354   1.275   0.959  0.2472  0.0612 -0.3718
 1986SOL    HW1 6657   2.379   1.291   1.051 -0.9217  0.0886 -0.0474
 1986SOL    HW2 6658   2.361   1.180   0.949 -1.6219 -0.1948  0.3766
 1987SOL     OW 6659   0.028   5.443   7.749 -0.7143  0.4617  0.0008
 1987SOL    HW1 6660   0.076   5.390   7.686 -0.0481  1.4845 -0.3814
 1987SOL    HW2 6661  -0.054   5.395   7.763  0.4068 -1.3552  0.7129
 1988SOL     OW 6662   3.340   7.812   3.610  0.3756  0.2001 -0.1979
 1988SOL    HW1 6663   3.299   7.846   3.690 -1.4213 -0.8662 -0.6031
 1988SOL    HW2 6664   3.369   7.724   3.634  0.9204  0.3221 -0.3952
 1989SOL     OW 6665   7.073   1.418   1.072  0.3790  0.3119 -0.1597
 1989SOL    HW1 6666   7.089   1.446   1.162  1.2003 -0.1394 -0.1561
 1989SOL    HW2 6667   7.003   1.477   1.041  0.7610  1.1116  0.4460
 1990SOL     OW 6668   1.092   5.597   0.302  0.3420 -0.5429  0.5508
 1990SOL    HW1 6669   1.079   5.584   0.208  2.1020  1.5534 -0.0789
 1990SOL    HW2 6670   1.186   5.589   0.315  0.3046  0.6138  1.8482
 1991SOL     OW 6671   1.211   3.560   7.256 -0.1388  0.0136 -0.1380
 1991SOL    HW1 6672   1.135   3.545   7.313 -0.1655  0.8245  0.0623
 1991SOL    HW2 6673   1.272   3.609   7.311  0.8050 -1.1745 -0.0990
 1992SOL     OW 6674   2.834   0.430   5.024 -0.2524  0.6782  0.0882
 1992SOL    HW1 6675   2.839   0.344   5.066  1.7411  0.8210  0.2242
 1992SOL    HW2 6676   2.775   0.481   5.079 -0.8763 -0.3652  0.4147
 1993SOL     OW 6677   0.003   3.751   1.166 -0.5518  0.3151  0.2874
 1993SOL    HW1 6678   0.032   3.751   1.075  1.4731  0.7441  0.8734
 1993SOL    HW2 6679   0.073   3.797   1.213 -0.3714 -1.9000  2.3855
 1994SOL     OW 6680   7.336   1.532   7.390 -0.1660  0.2282  0.0038
 1994SOL    HW1 6681   7.293   1.485   7.461  1.6940  0.0063  1.0475
 1994SOL    HW2 6682   7.356   1.464   7.325 -0.8194  0.2358 -0.2143
 1995SOL     OW 6683   6.131   0.915   6.433  0.1985  0.4499 -0.2141
 1995SOL    HW1 6684   6.122   0.947   6.343 -0.9838  2.1908  0.4725
 1995SOL    HW2 6685   6.222   0.886   6.439  0.0758 -0.5106 -2.1989
 1996SOL     OW 6686   4.647   6.531   5.193  0.3198 -0.3419 -0.6735
 1996SOL    HW1 6687   4.733   6.571   5.201  0.9309 -1.3620 -1.7837
 1996SOL    HW2 6688   4.606   6.544   5.279  1.0083  1.3931 -0.5666
 1997SOL     OW 6689   0.173   6.985   3.360  0.8472  0.1909 -0.3478
 1997SOL    HW1 6690   0.161   7.080   3.363 -1.2330  0.0180 -1.1713
 1997SOL    HW2 6691   0.240   6.972   3.293  0.2653  1.0667 -1.1397
 1998SOL     OW 6692   1.056   2.998   0.636  0.5382  0.1928  0.2874
 1998SOL    HW1 6693   1.078   2.986   0.729  0.7500  0.8635  0.3321
 1998SOL    HW2 6694   0.985   2.935   0.620  0.8055 -0.2512  0.7844
 1999SOL     OW 6695   0.182   3.416   6.523  0.0033 -0.6870 -0.4446
 1999SOL    HW1 6696   0.172   3.443   6.615 -0.3364 -0.5335 -0.5227
 1999SOL    HW2 6697   0.273   3.390   6.515  0.4264  0.7125 -0.4282
 2000SOL     OW 6698   4.774   0.256   3.183  0.8530  0.2885  0.5263
 2000SOL    HW1 6699   4.771   0.351   3.189  0.1628  0.2547  0.7188
 2000SOL    HW2 6700   4.811   0.228   3.267  2.4281  0.4501 -0.0771
 2001SOL     OW 6701   0.985   7.084   3.871 -0.3574  0.3122  0.0178
 2001SOL    HW1 6702   0.902   7.074   3.918 -0.3761 -1.5423 -0.3300
 2001SOL    HW2 6703   0.983   7.173   3.837 -1.0314  1.1904  2.1737
 2002SOL     OW 6704   6.804   0.823   3.539  0.1043  0.1276 -0.0013
 2002SOL    HW1 6705   6.813   0.813   3.634 -0.4112  0.1279  0.0493
 2002SOL    HW2 6706   6.734   0.887   3.528  0.7855  0.8347 -0.3713
 2003SOL     OW 6707   1.840   4.513   4.293  0.3054  0.1574  0.1778
 2003SOL    HW1 6708   1.823   4.472   4.377 -2.2096  2.9432  1.1921
 2003SOL    HW2 6709   1.900   4.585   4.312  0.8469 -0.0396 -0.6919
 2004SOL     OW 6710   6.701   0.690   5.915 -0.3782 -0.6495  0.3824
 2004SOL    HW1 6711   6.645   0.764   5.893  0.6004 -0.1783 -0.6046
 2004SOL    HW2 6712   6.674   0.621   5.854 -2.0297 -1.5341  1.9962
 2005SOL     OW 6713   1.011   2.574   4.769 -0.4250 -0.0252 -0.1063
 2005SOL    HW1 6714   0.951   2.505   4.799 -2.1608  0.3302 -2.4732
 2005SOL    HW2 6715   1.070   2.529   4.708  0.6226  0.0089  0.8256
 2006SOL     OW 6716   1.724   0.510   2.043 -0.8303 -0.2322  0.1429
 2006SOL    HW1 6717   1.777   0.502   1.964  1.2303  1.6986  1.2282
 2006SOL    HW2 6718   1.638   0.535   2.011 -0.3430 -0.5318 -1.5285
 2007SOL     OW 6719   4.908   3.159   4.660 -1.4856 -0.0493  0.4100
 2007SOL    HW1 6720   4.982   3.187   4.606 -2.2707  0.1776 -0.5624
 2007SOL    HW2 6721   4.936   3.180   4.750 -0.6566  0.6733  0.0044
 2008SOL     OW 6722   1.507   1.272   7.078 -0.8160 -0.8889 -0.2031
 2008SOL    HW1 6723   1.572   1.245   7.013 -1.0099 -0.4828 -0.5717
 2008SOL    HW2 6724   1.499   1.367   7.066 -0.4136 -0.7149  0.8287
 2009SOL     OW 6725   5.844   4.120   3.701  0.2377 -0.0371  0.4217
 2009SOL    HW1 6726   5.907   4.183   3.735  0.6833  0.4521 -1.2339
 2009SOL    HW2 6727   5.764   4.136   3.751  0.5029  1.4854  0.4006
 2010SOL     OW 6728   3.109   6.605   6.564 -0.3287  0.3976  0.4242
 2010SOL    HW1 6729   3.054   6.663   6.511  0.5826  0.8353 -0.0618
 2010SOL    HW2 6730   3.075   6.517   6.545  1.4955  0.2418 -2.9218
 2011SOL     OW 6731   3.196   2.508   5.245 -0.0968  0.3329 -0.3583
 2011SOL    HW1 6732   3.215   2.418   5.270  0.6162  0.6840  0.4235
 2011SOL    HW2 6733   3.240   2.520   5.160  1.6336  0.5544  0.5194
 2012SOL     OW 6734   7.560   1.886   1.331 -0.4828  0.4465 -0.1846
 2012SOL    HW1 6735   7.480   1.932   1.304  0.3202  2.6031  0.9101
 2012SOL    HW2 6736   7.630   1.931   1.284  0.2348 -0.6642 -0.2172
 2013SOL     OW 6737   4.741   0.251   1.578  0.2983  0.6691 -0.1662
 2013SOL    HW1 6738   4.661   0.255   1.526  0.8333 -0.7791 -1.1346
 2013SOL    HW2 6739   4.710   0.238   1.668 -0.5720 -1.9364 -0.7623
 2014SOL     OW 6740   1.487   2.580   5.463 -0.6360  0.4278 -0.1575
 2014SOL    HW1 6741   1.546   2.569   5.538  0.2260 -2.0066 -1.1137
 2014SOL    HW2 6742   1.534   2.640   5.405 -0.2144  0.4377  0.1862
 2015SOL     OW 6743   1.705   3.275   4.998  0.0987  0.3731  0.2551
 2015SOL    HW1 6744   1.689   3.347   4.936  1.3965  1.3137  0.9639
 2015SOL    HW2 6745   1.632   3.215   4.984 -1.0435  1.8304 -0.3625
 2016SOL     OW 6746   4.369   4.974   5.788  0.1818  0.7201  0.1189
 2016SOL    HW1 6747   4.298   4.975   5.852  0.0811  0.0104  0.0283
 2016SOL    HW2 6748   4.397   4.883   5.784 -0.5156  0.5365 -1.6067
 2017SOL     OW 6749   1.688   7.426   4.073 -0.3241  0.2896  0.2301
 2017SOL    HW1 6750   1.632   7.359   4.034 -1.3146  2.0050 -1.4905
 2017SOL    HW2 6751   1.691   7.405   4.166 -2.4197 -0.8479  0.0926
 2018SOL     OW 6752   7.660   6.278   1.244  0.3095  0.3712  0.7036
 2018SOL    HW1 6753   7.754   6.273   1.259  0.2325 -0.8845  0.8446
 2018SOL    HW2 6754   7.634   6.360   1.287  1.4356  1.1163  0.0103
 2019SOL     OW 6755   1.073   0.240   0.492 -0.0509 -0.2514 -0.0468
 2019SOL    HW1 6756   1.165   0.214   0.501  0.3286  1.0475  0.1575
 2019SOL    HW2 6757   1.024   0.175   0.540  0.6768 -1.4890 -0.9258
 2020SOL     OW 6758   5.562   2.743   0.573  0.3959 -0.2952  0.0847
 2020SOL    HW1 6759   5.554   2.743   0.669 -3.1657  1.4508 -0.0594
 2020SOL    HW2 6760   5.631   2.807   0.555  1.0806 -0.6065  1.4236
 2021SOL     OW 6761   6.533   6.911   5.012 -0.0175 -0.3175  0.1980
 2021SOL    HW1 6762   6.579   6.838   5.054  0.2151  1.3822  3.1625
 2021SOL    HW2 6763   6.570   6.990   5.051 -1.3573  1.3905 -1.7080
 2022SOL     OW 6764   5.120   7.316   6.664 -0.1524 -0.1345 -0.1235
 2022SOL    HW1 6765   5.162   7.391   6.707  1.0323  0.5998 -2.3631
 2022SOL    HW2 6766   5.110   7.344   6.573  0.0117 -2.5870 -0.9596
 2023SOL     OW 6767   4.706   5.453   1.655 -0.6215  0.2515  0.6048
 2023SOL    HW1 6768   4.753   5.518   1.708  0.1130  0.1010  0.1547
 2023SOL    HW2 6769   4.655   5.505   1.593  0.4274  0.4070 -0.1506
 2024SOL     OW 6770   2.103   1.653   3.652  0.4077 -0.2458 -0.3404
 2024SOL    HW1 6771   2.169   1.624   3.589  0.1880 -2.6852  0.4630
 2024SOL    HW2 6772   2.023   1.661   3.600  0.7279  0.0204 -0.7996
 2025SOL     OW 6773   5.016   6.256   7.260 -0.0122  0.1151  0.2569
 2025SOL    HW1 6774   4.982   6.293   7.342  3.4126 -0.2329  2.0310
 2025SOL    HW2 6775   5.016   6.162   7.275 -0.8721 -0.0819 -0.8703
 2026SOL     OW 6776   5.705   0.689   3.256 -0.4523  0.2047  0.0552
 2026SOL    HW1 6777   5.613   0.662   3.244 -0.6477  1.0147 -0.3178
 2026SOL    HW2 6778   5.753   0.638   3.191 -0.5917 -0.4627  0.4686
 2027SOL     OW 6779   0.861   2.662   6.955 -0.4555 -0.2486 -0.1013
 2027SOL    HW1 6780   0.868   2.568   6.973 -1.2616  0.1542  2.9118
 2027SOL    HW2 6781   0.813   2.667   6.872  1.1717 -2.4518 -1.2796
 2028SOL     OW 6782   1.748   3.459   4.763  0.1939 -0.1077  0.1736
 2028SOL    HW1 6783   1.777   3.535   4.813  0.6469 -0.0521 -0.1712
 2028SOL    HW2 6784   1.821   3.438   4.705  0.3316 -1.2084  0.7251
 2029SOL     OW 6785   1.085   2.495   1.329 -0.0187  0.4909  0.4943
 2029SOL    HW1 6786   1.161   2.443   1.355 -0.0836  0.8875  1.5330
 2029SOL    HW2 6787   1.014   2.462   1.384 -0.4734  0.5054 -0.0740
 2030SOL     OW 6788   4.507   2.317   5.676  0.1449  0.0177  0.1899
 2030SOL    HW1 6789   4.521   2.248   5.740 -0.0933  0.2055  0.4494
 2030SOL    HW2 6790   4.593   2.333   5.637  0.1536 -0.5886 -0.0456
 2031SOL     OW 6791   2.274   4.607   0.366 -0.5239 -0.0607 -0.1537
 2031SOL    HW1 6792   2.327   4.540   0.409 -0.2875 -0.4794 -1.0633
 2031SOL    HW2 6793   2.322   4.688   0.381  2.1323 -0.7641 -3.4457
 2032SOL     OW 6794   7.011   0.202   0.297  0.0651  0.2117 -0.1808
 2032SOL    HW1 6795   7.056   0.286   0.305 -1.8250  1.5533 -2.5425
 2032SOL    HW2 6796   6.918   0.222   0.312 -0.4063 -1.5259 -0.5017
 2033SOL     OW 6797   7.607   0.152   1.425 -0.5306  0.9132 -0.3739
 2033SOL    HW1 6798   7.579   0.224   1.482  0.1461  0.9257 -0.0518
 2033SOL    HW2 6799   7.697   0.173   1.402 -0.6207  0.6229 -1.0115
 2034SOL     OW 6800   3.366   1.668   4.416 -0.1988  0.1086  0.3210
 2034SOL    HW1 6801   3.375   1.663   4.511 -0.4059 -0.8950  0.2923
 2034SOL    HW2 6802   3.339   1.759   4.400 -2.9675 -0.4066  1.4554
 2035SOL     OW 6803   1.055   4.020   0.621  0.2736  0.6656  0.4259
 2035SOL    HW1 6804   1.033   4.087   0.557  1.4857  0.3484 -0.3544
 2035SOL    HW2 6805   1.056   3.938   0.570 -2.1847 -0.1540  1.5416
 2036SOL     OW 6806   7.437   5.433   0.345 -0.3799 -0.1158 -0.5508
 2036SOL    HW1 6807   7.501   5.363   0.349  0.9516  1.1182  1.3261
 2036SOL    HW2 6808   7.355   5.393   0.375 -0.7250 -1.8143 -3.3849
 2037SOL     OW 6809   1.671   7.839   2.696 -0.2395 -0.5111 -0.2083
 2037SOL    HW1 6810   1.582   7.850   2.660 -0.4655 -0.6608  0.2989
 2037SOL    HW2 6811   1.717   7.788   2.629 -1.3497 -2.8918  0.7087
 2038SOL     OW 6812   5.306   2.683   4.367  0.5008  0.3761 -0.1396
 2038SOL    HW1 6813   5.374   2.627   4.405  0.2958  0.8508  0.9533
 2038SOL    HW2 6814   5.224   2.637   4.386  0.3803  0.7281  0.1958
 2039SOL     OW 6815   7.605   4.709   5.411 -0.3638 -0.1442 -0.3688
 2039SOL    HW1 6816   7.601   4.786   5.354  2.5525 -0.3454 -0.9701
 2039SOL    HW2 6817   7.619   4.745   5.498 -0.1174  0.0396 -0.4832
 2040SOL     OW 6818   3.102   5.684   1.608  0.4690 -0.5030 -0.3901
 2040SOL    HW1 6819   3.114   5.618   1.676 -1.2174 -0.3012  0.1589
 2040SOL    HW2 6820   3.101   5.634   1.527  1.5294 -0.8637 -0.2001
 2041SOL     OW 6821   3.294   2.268   3.409 -0.1322  0.2563 -0.2187
 2041SOL    HW1 6822   3.352   2.344   3.409 -0.0258  0.1799  0.0863
 2041SOL    HW2 6823   3.276   2.251   3.317  0.7352 -0.0230 -0.3481
 2042SOL     OW 6824   3.115   2.732   0.868 -0.7481 -0.3686 -0.6570
 2042SOL    HW1 6825   3.129   2.640   0.887  1.9703 -0.3979 -2.2058
 2042SOL    HW2 6826   3.202   2.771   0.874 -1.7004  1.9552 -0.7930
 2043SOL     OW 6827   7.724   2.051   2.298  1.1654  0.0516 -0.0857
 2043SOL    HW1 6828   7.808   2.077   2.261  1.6369  1.1151  1.5936
 2043SOL    HW2 6829   7.738   2.055   2.393  0.0241 -2.4784  0.2799
 2044SOL     OW 6830   2.693   2.594   5.460 -0.2766  0.3722  0.0984
 2044SOL    HW1 6831   2.742   2.594   5.542 -0.5687  0.4737  0.2782
 2044SOL    HW2 6832   2.602   2.608   5.488 -0.3703  0.4435 -0.2459
 2045SOL     OW 6833   1.671   0.260   1.226 -0.2648 -1.1833 -0.0806
 2045SOL    HW1 6834   1.587   0.219   1.201  0.6998 -2.6456 -1.1062
 2045SOL    HW2 6835   1.728   0.245   1.151  0.0118  2.8304 -0.9006
 2046SOL     OW 6836   4.044   5.878   2.829  0.3812 -0.0149  0.6015
 2046SOL    HW1 6837   4.137   5.860   2.819  0.5869  1.6818 -1.1191
 2046SOL    HW2 6838   4.038   5.927   2.911  1.7451  3.6860 -1.2683
 2047SOL     OW 6839   1.561   0.187   2.772  0.4050  0.1341  0.4378
 2047SOL    HW1 6840   1.639   0.197   2.826  0.1493 -1.0212  1.0521
 2047SOL    HW2 6841   1.594   0.163   2.686  0.7193 -0.7174  0.7878
 2048SOL     OW 6842   6.402   5.836   7.915  0.0460  0.1279  0.4364
 2048SOL    HW1 6843   6.407   5.918   7.866  2.4147 -0.5915 -0.6278
 2048SOL    HW2 6844   6.314   5.802   7.896 -0.1049  1.2389 -1.0273
 2049SOL     OW 6845   4.297   0.692   1.286 -0.3939 -0.3251  0.2654
 2049SOL    HW1 6846   4.287   0.742   1.367  1.3908  1.0810 -0.3015
 2049SOL    HW2 6847   4.367   0.630   1.304 -0.0383 -0.0552 -0.1640
 2050SOL     OW 6848   3.804   1.577   0.353 -0.7219 -0.2629  0.2933
 2050SOL    HW1 6849   3.778   1.486   0.339  0.0244 -0.7048  1.5459
 2050SOL    HW2 6850   3.860   1.598   0.278 -0.0604 -1.2013  0.4966
 2051SOL     OW 6851   2.100   3.067   4.693  0.4350  0.1554 -0.2173
 2051SOL    HW1 6852   2.182   3.029   4.724 -0.1481  0.2033  1.5219
 2051SOL    HW2 6853   2.082   3.138   4.755 -0.9745  0.0666 -0.4926
 2052SOL     OW 6854   7.261   7.071   7.719 -0.2635  1.1940  0.3674
 2052SOL    HW1 6855   7.278   7.149   7.772 -0.8040  1.4411  0.1926
 2052SOL    HW2 6856   7.167   7.075   7.702 -0.7413 -0.6198  2.1528
 2053SOL     OW 6857   1.216   3.728   1.186 -0.2488 -0.4309  0.8696
 2053SOL    HW1 6858   1.149   3.667   1.156  0.3543 -0.8502  0.3539
 2053SOL    HW2 6859   1.172   3.813   1.188 -1.0457 -0.8329  1.4100
 2054SOL     OW 6860   5.646   1.068   5.673 -0.7371 -0.3772 -0.0590
 2054SOL    HW1 6861   5.685   1.118   5.745 -1.3745 -1.1124  0.8283
 2054SOL    HW2 6862   5.620   1.134   5.609  0.5803  0.2342 -0.0030
 2055SOL     OW 6863   5.506   2.501   4.442 -0.0660 -0.2541 -0.3435
 2055SOL    HW1 6864   5.480   2.491   4.533 -1.7882 -0.1997 -0.8020
 2055SOL    HW2 6865   5.601   2.510   4.445  0.0804 -1.9022  1.2940
 2056SOL     OW 6866   0.839   0.046   3.425 -0.0924 -0.3013  0.1778
 2056SOL    HW1 6867   0.876  -0.020   3.483  2.1947  0.9959  0.3183
 2056SOL    HW2 6868   0.821   0.121   3.482 -3.7102 -1.0242  0.2319
 2057SOL     OW 6869   2.991   0.026   6.489  0.0290  0.4114 -0.0012
 2057SOL    HW1 6870   2.989  -0.070   6.484  0.2901  0.4224 -0.2928
 2057SOL    HW2 6871   2.900   0.052   6.473  0.1212  0.2557 -0.8081
 2058SOL     OW 6872   5.619   0.034   1.027 -0.0204  0.0709  0.4247
 2058SOL    HW1 6873   5.638   0.063   1.117  0.7944  0.1794  0.2312
 2058SOL    HW2 6874   5.524   0.033   1.022 -0.0817  0.0590  1.2962
 2059SOL     OW 6875   4.187   5.479   0.980 -0.1799  0.2538  0.5029
 2059SOL    HW1 6876   4.159   5.552   0.925 -0.8356 -1.6748 -1.9195
 2059SOL    HW2 6877   4.106   5.434   1.002  0.1841  0.4115  2.2640
 2060SOL     OW 6878   6.159   7.365   0.038 -0.0957 -0.4292 -0.4177
 2060SOL    HW1 6879   6.155   7.391  -0.054  1.0589 -1.2935 -0.7393
 2060SOL    HW2 6880   6.106   7.285   0.043  0.1160 -0.5696 -0.4058
 2061SOL     OW 6881   0.902   5.644   5.752 -0.7234 -0.0759  0.3525
 2061SOL    HW1 6882   0.920   5.555   5.782 -1.4927 -0.7746 -1.1232
 2061SOL    HW2 6883   0.988   5.684   5.742 -0.3588 -0.7467  0.7669
 2062SOL     OW 6884   0.430   2.087   5.800  0.0091  0.7781  0.3976
 2062SOL    HW1 6885   0.483   2.093   5.880 -0.1482  1.6898  0.4418
 2062SOL    HW2 6886   0.347   2.049   5.828 -0.6830  2.6306  1.0129
 2063SOL     OW 6887   2.621   7.274   4.773 -0.3559 -0.1499 -0.1563
 2063SOL    HW1 6888   2.595   7.353   4.725 -1.0422  0.0453  0.5153
 2063SOL    HW2 6889   2.677   7.226   4.712  0.6157  1.1674 -0.3370
 2064SOL     OW 6890   0.237   4.421   1.701  0.0831  0.2253  0.3900
 2064SOL    HW1 6891   0.309   4.386   1.754  1.0032  0.5763 -0.6021
 2064SOL    HW2 6892   0.253   4.515   1.697  0.2150  0.1614 -0.7842
 2065SOL     OW 6893   5.366   4.222   7.261 -0.6898  0.3733  0.0654
 2065SOL    HW1 6894   5.288   4.186   7.303 -1.5271 -1.3767 -2.7065
 2065SOL    HW2 6895   5.439   4.190   7.313 -1.6983 -0.9016  0.7431
 2066SOL     OW 6896   5.727   3.720   0.214 -0.0367 -0.4048  0.1752
 2066SOL    HW1 6897   5.675   3.787   0.172 -0.9473 -1.1669  0.0590
 2066SOL    HW2 6898   5.818   3.743   0.193 -0.4284 -0.3763 -1.6170
 2067SOL     OW 6899   5.180   6.715   1.121 -0.0433 -0.6291 -0.2702
 2067SOL    HW1 6900   5.268   6.750   1.137 -0.2323 -0.7040  0.9699
 2067SOL    HW2 6901   5.128   6.743   1.196 -1.1075 -0.5424 -1.0176
 2068SOL     OW 6902   0.284   1.383   2.255  0.0127  0.0452  0.2637
 2068SOL    HW1 6903   0.347   1.352   2.321  0.0789 -1.5037 -0.4893
 2068SOL    HW2 6904   0.323   1.357   2.171 -0.3592  1.4610 -0.3700
 2069SOL     OW 6905   4.809   5.775   4.063 -0.0336 -0.6063 -0.5073
 2069SOL    HW1 6906   4.722   5.742   4.040 -0.2477 -1.1072  0.9035
 2069SOL    HW2 6907   4.842   5.713   4.128  0.0924  1.2218  1.2827
 2070SOL     OW 6908   2.016   7.347   3.980  0.4746  0.3642 -0.5837
 2070SOL    HW1 6909   1.993   7.283   3.913 -1.0512  0.1469  0.1058
 2070SOL    HW2 6910   1.948   7.414   3.975  0.1756  0.2149  0.8816
 2071SOL     OW 6911   1.390   0.764   7.839 -0.2913  0.6236  0.6231
 2071SOL    HW1 6912   1.427   0.782   7.753 -1.1230  0.5394  0.2428
 2071SOL    HW2 6913   1.301   0.798   7.835 -0.3456  0.5996  1.4435
 2072SOL     OW 6914   3.177   3.251   1.195 -0.8858  0.4700 -0.0091
 2072SOL    HW1 6915   3.192   3.172   1.246  0.7583  0.5183 -0.3629
 2072SOL    HW2 6916   3.084   3.249   1.174 -1.2792 -0.3244  1.6836
 2073SOL     OW 6917   2.661   2.823   0.216  0.5308  0.3379  0.0954
 2073SOL    HW1 6918   2.618   2.811   0.131 -1.6057  1.1095  1.0063
 2073SOL    HW2 6919   2.647   2.741   0.262 -0.3862  0.7293  0.5429
 2074SOL     OW 6920   3.143   4.093   7.363  0.8236  0.8308  0.2950
 2074SOL    HW1 6921   3.175   4.052   7.283  0.6830  2.2743 -0.5369
 2074SOL    HW2 6922   3.183   4.042   7.434  2.4559  0.6812 -0.6843
 2075SOL     OW 6923   5.854   2.802   3.681 -0.3129 -0.1064 -0.1997
 2075SOL    HW1 6924   5.851   2.744   3.605 -0.8295  0.4394 -0.6036
 2075SOL    HW2 6925   5.898   2.751   3.749  1.1582 -0.2240 -1.1972
 2076SOL     OW 6926   1.604   4.914   2.676 -0.3745  0.1767 -0.2731
 2076SOL    HW1 6927   1.575   4.829   2.643  1.2842 -0.4339 -0.2535
 2076SOL    HW2 6928   1.601   4.905   2.771  2.7793 -1.0309 -0.1904
 2077SOL     OW 6929   7.059   2.664   3.123 -0.5488  0.7070  0.4990
 2077SOL    HW1 6930   7.043   2.665   3.218 -0.9821  3.0815  0.4604
 2077SOL    HW2 6931   7.152   2.688   3.115 -0.3672 -0.0271  0.3088
 2078SOL     OW 6932   3.991   7.386   6.669 -0.1030 -0.1984  0.2467
 2078SOL    HW1 6933   3.982   7.309   6.613 -1.5173 -0.1057  0.3213
 2078SOL    HW2 6934   4.083   7.412   6.659  0.4585 -1.9946  0.3700
 2079SOL     OW 6935   7.518   6.238   3.986  0.5106 -0.1114 -0.7112
 2079SOL    HW1 6936   7.539   6.330   3.975 -1.0301  0.0817 -2.5216
 2079SOL    HW2 6937   7.474   6.233   4.071  1.0620  0.7107 -0.3656
 2080SOL     OW 6938   4.795   6.344   4.700 -0.2017 -0.6074  0.2922
 2080SOL    HW1 6939   4.864   6.404   4.729 -0.4397 -0.9717  1.6586
 2080SOL    HW2 6940   4.792   6.356   4.605 -0.3693  1.6919  0.5257
 2081SOL     OW 6941   7.903   1.886   7.926 -0.3752 -0.4540  0.3862
 2081SOL    HW1 6942   7.918   1.922   7.838 -1.0188  0.5307  0.6560
 2081SOL    HW2 6943   7.869   1.798   7.911  0.7649 -0.7872 -0.3168
 2082SOL     OW 6944   3.783   0.803   5.012 -0.5034 -0.2062 -0.7247
 2082SOL    HW1 6945   3.701   0.806   5.061 -1.6730 -2.1802 -2.4029
 2082SOL    HW2 6946   3.803   0.710   5.002  0.9248  0.1788 -1.9870
 2083SOL     OW 6947   5.838   6.494   4.758  0.0011  0.6011 -0.1267
 2083SOL    HW1 6948   5.836   6.528   4.848 -1.0483 -0.2488  0.1912
 2083SOL    HW2 6949   5.761   6.532   4.717  0.2084  0.5901 -0.5235
 2084SOL     OW 6950   5.643   6.631   7.051 -0.2658  0.0980  0.0796
 2084SOL    HW1 6951   5.723   6.649   7.003 -0.1855 -0.8107 -0.1507
 2084SOL    HW2 6952   5.574   6.672   6.999  0.0674  1.0691  0.3960
 2085SOL     OW 6953   0.567   7.754   3.242  0.1392 -0.4738  0.0011
 2085SOL    HW1 6954   0.608   7.741   3.327 -0.2161 -1.3332  0.0438
 2085SOL    HW2 6955   0.610   7.833   3.207  1.5089 -1.0822  0.2408
 2086SOL     OW 6956   5.389   6.605   7.432 -0.6498 -0.2389 -0.0949
 2086SOL    HW1 6957   5.473   6.649   7.444 -1.4625  1.1083  1.0233
 2086SOL    HW2 6958   5.334   6.640   7.502 -2.8918  0.7689 -2.2167
 2087SOL     OW 6959   7.519   5.294   2.296  0.1679 -0.4684  0.0033
 2087SOL    HW1 6960   7.532   5.275   2.203 -0.0958  0.9527 -0.3582
 2087SOL    HW2 6961   7.437   5.250   2.318  0.1010 -0.6055 -0.5035
 2088SOL     OW 6962   1.978   7.088   4.920 -0.1039 -0.3066 -0.4062
 2088SOL    HW1 6963   1.995   7.083   5.014 -1.2524  2.0625  0.0202
 2088SOL    HW2 6964   1.888   7.055   4.911  0.6541 -2.3575 -1.0193
 2089SOL     OW 6965   0.450   7.491   4.317  0.0701  0.1537  0.1646
 2089SOL    HW1 6966   0.457   7.426   4.248 -0.1221 -0.4294  0.6855
 2089SOL    HW2 6967   0.361   7.481   4.352  0.6814 -0.6878  1.5756
 2090SOL     OW 6968   3.965   3.508   1.857  0.0942 -0.5676  0.0222
 2090SOL    HW1 6969   4.045   3.560   1.861  0.8168 -1.7043  0.6541
 2090SOL    HW2 6970   3.907   3.558   1.799  0.5097  1.2520  1.1260
 2091SOL     OW 6971   0.089   4.134   6.472  0.0049  0.2732  0.1450
 2091SOL    HW1 6972   0.173   4.093   6.455 -0.2258  0.0874 -0.5700
 2091SOL    HW2 6973   0.025   4.078   6.427 -0.2187  2.0280 -1.8448
 2092SOL     OW 6974   3.782   1.503   7.484 -0.4150  0.2627 -0.3209
 2092SOL    HW1 6975   3.703   1.509   7.538 -0.5369 -2.0072 -0.1357
 2092SOL    HW2 6976   3.842   1.450   7.536 -0.1146 -1.0339 -1.9209
 2093SOL     OW 6977   1.438   3.496   2.263 -0.6265  0.4011  0.1231
 2093SOL    HW1 6978   1.527   3.469   2.241 -1.2241 -0.3317 -1.6197
 2093SOL    HW2 6979   1.384   3.421   2.237 -2.0082  1.8835 -1.5167
 2094SOL     OW 6980   1.029   5.729   3.496  0.4575  0.0872  0.2809
 2094SOL    HW1 6981   1.000   5.788   3.427 -0.9727 -2.0193 -1.0272
 2094SOL    HW2 6982   0.957   5.728   3.559  0.3754 -0.4030  0.1845
 2095SOL     OW 6983   7.604   4.198   6.762  0.1950 -0.1879  0.0771
 2095SOL    HW1 6984   7.620   4.139   6.688  0.8323  0.0616  0.0104
 2095SOL    HW2 6985   7.516   4.233   6.746  0.3577 -0.0776 -0.6085
 2096SOL     OW 6986   6.136   6.017   1.348 -0.0544  0.2998 -0.5446
 2096SOL    HW1 6987   6.107   6.003   1.258 -0.6730 -1.7591 -0.0969
 2096SOL    HW2 6988   6.055   6.024   1.399  0.2131 -0.9942  0.1226
 2097SOL     OW 6989   6.123   3.077   7.351  0.4404  0.5485  0.2891
 2097SOL    HW1 6990   6.190   3.063   7.417 -1.1176  0.2859  1.8693
 2097SOL    HW2 6991   6.116   3.172   7.343 -0.2804  0.6152  1.5085
 2098SOL     OW 6992   1.395   3.236   2.669 -0.0299 -0.0335  0.0481
 2098SOL    HW1 6993   1.440   3.270   2.592 -1.3243  0.7945 -0.3830
 2098SOL    HW2 6994   1.462   3.189   2.718  0.5997 -1.5740 -2.1496
 2099SOL     OW 6995   6.001   4.326   5.955 -0.1971  0.0411 -0.1687
 2099SOL    HW1 6996   6.034   4.261   6.017  0.2010  1.1207  0.7732
 2099SOL    HW2 6997   6.068   4.330   5.887 -0.6278 -1.1301 -0.7060
 2100SOL     OW 6998   0.761   6.820   6.897 -0.0357  0.4381 -0.5069
 2100SOL    HW1 6999   0.849   6.852   6.914  0.8017 -1.5590 -0.7614
 2100SOL    HW2 7000   0.765   6.783   6.808 -0.8884 -0.3728 -0.2377
 2101SOL     OW 7001   6.782   1.757   4.723  0.2083 -0.2791  0.2312
 2101SOL    HW1 7002   6.792   1.830   4.662 -1.7163 -0.7769 -0.7538
 2101SOL    HW2 7003   6.814   1.681   4.675 -1.5355 -0.7142 -0.3246
 2102SOL     OW 7004   6.350   0.700   3.512  0.1060 -0.1945  0.1071
 2102SOL    HW1 7005   6.436   0.671   3.543 -0.4354  0.0043  1.8806
 2102SOL    HW2 7006   6.325   0.770   3.573 -0.9194  0.3962 -0.9518
 2103SOL     OW 7007   4.962   3.223   7.787  0.4413  0.3713  0.2033
 2103SOL    HW1 7008   4.950   3.161   7.715 -0.2633  0.2110  0.4505
 2103SOL    HW2 7009   4.928   3.177   7.864  2.4299  0.0135  0.9186
 2104SOL     OW 7010   0.425   0.750   4.003 -0.6627  0.0114  0.3742
 2104SOL    HW1 7011   0.481   0.776   3.929 -0.5100 -0.8965  0.1492
 2104SOL    HW2 7012   0.475   0.774   4.081 -0.7682  0.8674  0.1780
 2105SOL     OW 7013   4.148   5.700   5.198 -0.9346  0.3622 -0.0075
 2105SOL    HW1 7014   4.149   5.619   5.250 -1.1299  0.2885 -0.1190
 2105SOL    HW2 7015   4.201   5.761   5.249  0.7484 -0.3830 -0.8046
 2106SOL     OW 7016   5.828   0.002   3.534 -0.2064 -0.0550  0.0616
 2106SOL    HW1 7017   5.796  -0.067   3.592  2.0639  0.0773  1.5791
 2106SOL    HW2 7018   5.816  -0.034   3.446  1.0877 -2.5378  0.8076
 2107SOL     OW 7019   7.365   6.716   5.933 -0.2713 -0.0666  1.2275
 2107SOL    HW1 7020   7.342   6.722   6.026  1.3744 -0.8713  1.7251
 2107SOL    HW2 7021   7.353   6.624   5.910  2.1735 -0.5388  1.5095
 2108SOL     OW 7022   4.482   5.406   2.709  0.2102  0.2608 -0.1240
 2108SOL    HW1 7023   4.424   5.402   2.633 -0.2701  1.3698  0.1653
 2108SOL    HW2 7024   4.562   5.447   2.676 -0.1360  1.0800  0.0439
 2109SOL     OW 7025   6.494   3.583   2.050  0.3313 -0.0250  0.2697
 2109SOL    HW1 7026   6.519   3.510   1.993 -2.8992 -0.6952 -0.4802
 2109SOL    HW2 7027   6.547   3.657   2.019 -0.0310 -0.8042 -2.4677
 2110SOL     OW 7028   5.417   5.369   2.464 -0.5095  0.1277  0.5139
 2110SOL    HW1 7029   5.416   5.454   2.421 -0.8599  1.4869  3.0503
 2110SOL    HW2 7030   5.371   5.311   2.402 -0.9880  1.9274 -0.9194
 2111SOL     OW 7031   5.501   4.112   5.353 -0.0958 -0.5429  0.2581
 2111SOL    HW1 7032   5.524   4.177   5.287 -1.9595 -1.2650 -1.2094
 2111SOL    HW2 7033   5.503   4.028   5.306 -0.8763 -1.1563  1.2637
 2112SOL     OW 7034   4.397   5.683   4.534 -0.4992  0.2358  0.0654
 2112SOL    HW1 7035   4.384   5.734   4.454 -1.2196 -1.9926 -1.3567
 2112SOL    HW2 7036   4.317   5.696   4.584 -1.0575 -0.1379 -0.7014
 2113SOL     OW 7037   2.086   4.344   6.520 -0.0801  0.3214  0.2459
 2113SOL    HW1 7038   2.013   4.291   6.552 -0.8871  0.1644 -1.7087
 2113SOL    HW2 7039   2.047   4.401   6.453  1.4939  0.5777 -0.5089
 2114SOL     OW 7040   4.767   2.193   0.040 -0.1018 -0.0472  0.2841
 2114SOL    HW1 7041   4.762   2.178   0.134  0.8347 -2.4555  0.0079
 2114SOL    HW2 7042   4.676   2.198   0.011 -0.3940  0.2070  1.2267
 2115SOL     OW 7043   2.152   3.456   5.864 -0.2780  0.0841 -0.0861
 2115SOL    HW1 7044   2.222   3.437   5.801  0.1509 -0.0076  0.4009
 2115SOL    HW2 7045   2.134   3.371   5.906 -1.7370 -0.2054 -1.2345
 2116SOL     OW 7046   4.720   5.884   2.296 -0.3994  0.1770 -0.3069
 2116SOL    HW1 7047   4.676   5.888   2.380 -0.3012  2.0538 -0.2940
 2116SOL    HW2 7048   4.782   5.812   2.305 -1.4100 -0.5984  0.6949
 2117SOL     OW 7049   1.492   7.440   0.307  0.1965  0.0999 -0.0056
 2117SOL    HW1 7050   1.479   7.523   0.354  0.6284  0.4008 -0.4099
 2117SOL    HW2 7051   1.573   7.404   0.344  0.7198  0.5008 -0.7474
 2118SOL     OW 7052   0.611   6.833   0.449  0.1012 -0.4892  0.6301
 2118SOL    HW1 7053   0.656   6.774   0.389  1.0972  0.4346  0.4558
 2118SOL    HW2 7054   0.521   6.800   0.450  0.3861 -1.3669 -0.2754
 2119SOL     OW 7055   6.464   0.127   1.975 -0.4799  0.1452 -0.4134
 2119SOL    HW1 7056   6.560   0.127   1.973 -0.4438 -2.0217 -0.7082
 2119SOL    HW2 7057   6.442   0.135   2.067 -0.0454  1.0873 -0.3788
 2120SOL     OW 7058   1.446   1.737   2.005  0.1183 -0.2315  0.3015
 2120SOL    HW1 7059   1.525   1.784   1.980 -0.2655  0.1749 -0.1656
 2120SOL    HW2 7060   1.464   1.705   2.093  0.7142  0.0449  0.2848
 2121SOL     OW 7061   4.124   4.159   1.097 -1.1462 -0.0751 -0.0918
 2121SOL    HW1 7062   4.130   4.229   1.033 -0.5166  0.6409  0.7282
 2121SOL    HW2 7063   4.215   4.140   1.121 -1.3316 -0.8472  0.0437
 2122SOL     OW 7064   2.839   1.807   2.988  0.3084  0.0844  0.0269
 2122SOL    HW1 7065   2.883   1.739   3.039  1.6752  0.6059 -0.4084
 2122SOL    HW2 7066   2.755   1.769   2.964  1.0177 -1.4302 -0.1719
 2123SOL     OW 7067   2.362   2.266   3.441  0.2349 -0.4459  0.1583
 2123SOL    HW1 7068   2.347   2.215   3.520 -3.1153  0.8951  0.5504
 2123SOL    HW2 7069   2.373   2.201   3.372  0.5586 -1.6421  1.3029
 2124SOL     OW 7070   0.055   7.763   0.739  0.0213  0.0351  0.4076
 2124SOL    HW1 7071   0.016   7.733   0.658  0.9324  0.2446 -0.1207
 2124SOL    HW2 7072  -0.011   7.744   0.806 -0.8096  0.0290 -0.3971
 2125SOL     OW 7073   1.006   0.162   7.644 -0.0578  0.0337 -0.3555
 2125SOL    HW1 7074   1.092   0.134   7.613  0.7347  0.6751  1.1294
 2125SOL    HW2 7075   0.973   0.087   7.693  0.4770  0.3984  0.5926
 2126SOL     OW 7076   3.179   3.983   3.415  0.3512  0.6342  0.4314
 2126SOL    HW1 7077   3.172   4.077   3.400  1.4913  0.9582  1.7471
 2126SOL    HW2 7078   3.204   3.947   3.330 -3.3505  1.0200 -1.0122
 2127SOL     OW 7079   2.969   3.322   2.943  0.0722 -0.3707 -0.1520
 2127SOL    HW1 7080   3.003   3.402   2.903 -1.9518  0.5347 -0.1497
 2127SOL    HW2 7081   2.880   3.314   2.910 -0.6655 -1.1901  1.9017
 2128SOL     OW 7082   0.302   5.871   5.951 -0.1824  0.3201 -0.4306
 2128SOL    HW1 7083   0.325   5.888   5.860  1.3113 -1.6118 -0.4636
 2128SOL    HW2 7084   0.320   5.778   5.964  2.8247  1.1298  2.6680
 2129SOL     OW 7085   3.255   1.442   3.389  0.1825 -0.0434 -0.4088
 2129SOL    HW1 7086   3.277   1.527   3.351  1.4998 -0.8083 -1.4544
 2129SOL    HW2 7087   3.302   1.440   3.472  0.0758  0.2896 -0.3414
 2130SOL     OW 7088   7.207   1.051   1.721 -0.0008  0.2687 -0.2347
 2130SOL    HW1 7089   7.208   1.041   1.625  2.6134  1.2521 -0.3833
 2130SOL    HW2 7090   7.114   1.055   1.743 -0.6948 -0.4459 -2.6695
 2131SOL     OW 7091   6.141   3.587   0.235  0.1500 -0.1133  0.4103
 2131SOL    HW1 7092   6.173   3.588   0.145 -0.7424 -0.4190  0.0904
 2131SOL    HW2 7093   6.141   3.680   0.261  2.1552 -0.1548  0.7459
 2132SOL     OW 7094   2.730   6.969   7.331  0.8714  0.1561  0.1200
 2132SOL    HW1 7095   2.757   6.884   7.365 -1.3274 -0.3320  0.7820
 2132SOL    HW2 7096   2.769   7.033   7.391  2.1756 -0.3772 -0.1349
 2133SOL     OW 7097   4.332   3.348   6.051 -0.4080 -0.5115 -0.6526
 2133SOL    HW1 7098   4.255   3.403   6.037  0.1959  0.1179 -1.6194
 2133SOL    HW2 7099   4.296   3.262   6.073 -1.3728  0.0491  0.0650
 2134SOL     OW 7100   7.911   2.578   1.288 -0.5557 -0.3660 -0.2454
 2134SOL    HW1 7101   7.948   2.647   1.342 -0.4484  0.5869 -1.4752
 2134SOL    HW2 7102   7.870   2.518   1.350 -1.2911  1.1760  0.8417
 2135SOL     OW 7103   6.029   5.864   1.711  0.0285 -0.5231  0.3910
 2135SOL    HW1 7104   5.988   5.946   1.682  0.8475  0.3617  1.6412
 2135SOL    HW2 7105   6.014   5.803   1.639 -0.9131  0.6181 -0.4180
 2136SOL     OW 7106   1.774   4.974   5.911 -0.3000  0.3193 -0.1665
 2136SOL    HW1 7107   1.767   5.052   5.966 -0.7840  0.9140 -1.0610
 2136SOL    HW2 7108   1.867   4.967   5.890 -0.2777  0.7258 -0.1960
 2137SOL     OW 7109   3.730   0.750   0.708 -0.3533  0.5874  0.5416
 2137SOL    HW1 7110   3.762   0.715   0.792 -0.8190 -1.5604 -0.1180
 2137SOL    HW2 7111   3.639   0.773   0.725 -0.4069  0.2857  0.6831
 2138SOL     OW 7112   1.376   1.045   6.342 -0.7470 -0.4363 -0.2207
 2138SOL    HW1 7113   1.318   0.970   6.328 -1.0562 -0.4564  1.0866
 2138SOL    HW2 7114   1.464   1.006   6.345 -0.9297 -0.8095  0.7476
 2139SOL     OW 7115   2.457   1.300   2.865 -0.5931 -0.1962  0.4045
 2139SOL    HW1 7116   2.513   1.277   2.790  0.3150  2.1151  0.3015
 2139SOL    HW2 7117   2.375   1.330   2.825  0.8828  3.8973 -0.0358
 2140SOL     OW 7118   6.667   1.327   4.175 -0.7971  0.2015 -0.0131
 2140SOL    HW1 7119   6.703   1.403   4.221 -1.6651 -0.2997  1.5658
 2140SOL    HW2 7120   6.704   1.252   4.221 -2.8380 -0.3153  0.9033
 2141SOL     OW 7121   3.116   7.879   3.223  0.2730 -0.2072 -0.3534
 2141SOL    HW1 7122   3.207   7.854   3.238  0.2508  0.6760  1.4964
 2141SOL    HW2 7123   3.065   7.820   3.279 -0.0951  0.9051  0.5219
 2142SOL     OW 7124   6.080   4.420   3.239 -0.3051 -0.1895  0.1928
 2142SOL    HW1 7125   6.055   4.356   3.172  3.3186 -2.1579  0.4509
 2142SOL    HW2 7126   6.107   4.497   3.189 -0.6136 -0.4675 -0.4122
 2143SOL     OW 7127   1.671   0.290   6.221  0.1677 -0.3953  0.2687
 2143SOL    HW1 7128   1.581   0.310   6.244  0.0312  0.0048 -0.5806
 2143SOL    HW2 7129   1.684   0.200   6.251 -0.8259 -0.8064 -0.4961
 2144SOL     OW 7130   6.734   2.958   7.587  0.5721  0.0638  0.0932
 2144SOL    HW1 7131   6.663   2.946   7.650  1.3505 -1.5812  0.7293
 2144SOL    HW2 7132   6.813   2.964   7.641  1.0800  0.3350 -0.6613
 2145SOL     OW 7133   4.150   6.929   0.218  0.1033 -0.4320 -0.1085
 2145SOL    HW1 7134   4.216   6.902   0.281 -0.4379 -0.3414  0.5049
 2145SOL    HW2 7135   4.183   6.897   0.134  0.6842 -0.8141  0.2550
 2146SOL     OW 7136   1.704   1.911   2.255  0.3237 -0.2196  0.7065
 2146SOL    HW1 7137   1.774   1.951   2.307  0.2123  0.9622 -0.0211
 2146SOL    HW2 7138   1.669   1.983   2.203 -1.4125 -0.7929  1.0164
 2147SOL     OW 7139   5.149   4.494   6.488 -0.1238 -0.4223 -0.4219
 2147SOL    HW1 7140   5.169   4.574   6.537  0.1599  0.8424 -2.4703
 2147SOL    HW2 7141   5.056   4.503   6.464 -0.1443 -0.8087 -0.4983
 2148SOL     OW 7142   2.088   6.623   3.379  0.5584 -0.2271  0.1607
 2148SOL    HW1 7143   2.067   6.705   3.333 -0.0042 -1.2843 -1.5879
 2148SOL    HW2 7144   2.039   6.628   3.461  0.9281  1.3869  0.3219
 2149SOL     OW 7145   2.038   1.469   5.245  0.0023 -0.0172 -0.2105
 2149SOL    HW1 7146   2.049   1.469   5.150  0.1471  1.3575 -0.2199
 2149SOL    HW2 7147   2.015   1.560   5.266  0.0073 -0.2928  1.0716
 2150SOL     OW 7148   3.112   6.090   7.069 -0.6313  0.5931 -0.0100
 2150SOL    HW1 7149   3.182   6.150   7.044 -2.0694  1.4753 -2.1884
 2150SOL    HW2 7150   3.039   6.111   7.010 -1.7724 -2.2041  0.2181
 2151SOL     OW 7151   4.545   1.652   3.269  0.1336 -0.3897 -0.3179
 2151SOL    HW1 7152   4.500   1.692   3.344  0.3020  0.2040 -0.5322
 2151SOL    HW2 7153   4.485   1.662   3.196 -0.1488 -1.2167 -0.2139
 2152SOL     OW 7154   0.514   6.276   3.583  0.4198 -0.3728  0.1187
 2152SOL    HW1 7155   0.607   6.263   3.598  0.2795 -1.8700 -0.2197
 2152SOL    HW2 7156   0.477   6.188   3.578 -0.9949  0.1925  0.1041
 2153SOL     OW 7157   0.943   0.766   3.502  0.2178  0.0882 -0.1312
 2153SOL    HW1 7158   0.996   0.844   3.487  0.6514 -0.1653  0.0391
 2153SOL    HW2 7159   0.929   0.764   3.597  0.2240 -0.0496 -0.1327
 2154SOL     OW 7160   2.452   1.452   7.649 -0.3531  0.2144  0.3049
 2154SOL    HW1 7161   2.463   1.372   7.701 -3.0641  0.3190  1.2517
 2154SOL    HW2 7162   2.443   1.521   7.714  0.5711  1.0775 -0.4653
 2155SOL     OW 7163   0.813   7.861   4.250  0.6958 -0.5906 -0.2561
 2155SOL    HW1 7164   0.855   7.793   4.197  2.0111  0.3804 -0.5240
 2155SOL    HW2 7165   0.793   7.931   4.188  0.7372 -0.1189  0.2513
 2156SOL     OW 7166   4.484   6.852   3.170  0.4142  0.2670  0.2955
 2156SOL    HW1 7167   4.394   6.864   3.199  0.8157  2.0156  0.9806
 2156SOL    HW2 7168   4.532   6.825   3.249  0.5748 -0.2110  0.0386
 2157SOL     OW 7169   6.673   6.490   1.478  0.2479  0.3624  0.7194
 2157SOL    HW1 7170   6.638   6.567   1.433 -1.0168  0.3217  1.6111
 2157SOL    HW2 7171   6.726   6.525   1.549  2.6985  0.4418 -0.9987
 2158SOL     OW 7172   4.208   2.565   4.498  0.2969  0.4080  0.3803
 2158SOL    HW1 7173   4.161   2.562   4.582  0.1235 -2.0171  0.2649
 2158SOL    HW2 7174   4.139   2.578   4.433  0.3411  1.4910  0.5385
 2159SOL     OW 7175   0.971   2.953   1.643 -0.6585  0.2262  0.5877
 2159SOL    HW1 7176   1.059   2.943   1.680  0.0338  0.7487 -0.8483
 2159SOL    HW2 7177   0.922   2.879   1.678  0.4064 -0.2045  1.2311
 2160SOL     OW 7178   5.809   1.647   6.382  0.0413  0.5939 -0.0595
 2160SOL    HW1 7179   5.773   1.625   6.297  0.7560 -1.5377  0.1211
 2160SOL    HW2 7180   5.847   1.734   6.371  0.7955  0.0498 -2.1351
 2161SOL     OW 7181   4.781   3.080   0.357  0.1160  0.1945 -0.5534
 2161SOL    HW1 7182   4.859   3.027   0.373  0.8984  1.3146 -0.5401
 2161SOL    HW2 7183   4.801   3.165   0.397 -0.5693  0.9268 -1.7174
 2162SOL     OW 7184   5.108   5.106   6.629 -0.1965  0.5275  0.0526
 2162SOL    HW1 7185   5.201   5.109   6.652 -0.1449  1.5584 -0.2342
 2162SOL    HW2 7186   5.102   5.036   6.564  0.5278  0.9890 -0.5308
 2163SOL     OW 7187   5.571   6.674   0.207 -0.5973  0.0747  0.2233
 2163SOL    HW1 7188   5.572   6.668   0.302  0.4537  1.2709  0.3180
 2163SOL    HW2 7189   5.632   6.606   0.178 -1.4905 -0.7928  0.3550
 2164SOL     OW 7190   4.809   1.561   6.703 -0.2694  0.3683  0.3971
 2164SOL    HW1 7191   4.807   1.540   6.609 -3.3068  2.6162 -0.2145
 2164SOL    HW2 7192   4.802   1.476   6.747 -0.1871 -0.6497 -1.4530
 2165SOL     OW 7193   2.266   3.299   2.914  0.1784  0.2379  0.4317
 2165SOL    HW1 7194   2.265   3.203   2.915 -0.0270  0.1943 -1.0140
 2165SOL    HW2 7195   2.174   3.324   2.906  0.3355  0.4732 -0.9564
 2166SOL     OW 7196   1.781   3.473   6.584  0.6635 -0.2176  0.4857
 2166SOL    HW1 7197   1.716   3.404   6.599  0.1845 -0.4032 -2.0180
 2166SOL    HW2 7198   1.767   3.536   6.655 -0.2271 -1.7061  1.6781
 2167SOL     OW 7199   5.619   2.880   1.231  0.2218  0.2367 -0.5189
 2167SOL    HW1 7200   5.616   2.962   1.282  1.4403 -0.3762  0.5950
 2167SOL    HW2 7201   5.571   2.817   1.286  0.8887 -0.2451 -0.4856
 2168SOL     OW 7202   5.221   0.032   3.651  0.0453 -0.1335 -0.2190
 2168SOL    HW1 7203   5.210   0.088   3.574 -0.1960  1.7414  1.0957
 2168SOL    HW2 7204   5.259  -0.049   3.617  0.9525  1.0357 -2.1586
 2169SOL     OW 7205   1.182   3.505   5.392 -1.1845  0.0986  0.1254
 2169SOL    HW1 7206   1.097   3.500   5.347 -1.8443  2.6299  0.9431
 2169SOL    HW2 7207   1.164   3.554   5.472  0.9409  0.1395  0.6279
 2170SOL     OW 7208   0.255   2.662   2.247  0.4626  0.3672 -0.5477
 2170SOL    HW1 7209   0.171   2.628   2.278  0.5882 -0.0947 -0.7046
 2170SOL    HW2 7210   0.246   2.662   2.151 -0.0630  2.1305 -0.5322
 2171SOL     OW 7211   1.610   5.652   1.436 -0.5021  0.0035 -0.2488
 2171SOL    HW1 7212   1.612   5.644   1.341 -0.0339  0.4627 -0.2855
 2171SOL    HW2 7213   1.673   5.722   1.455 -0.3753 -0.2874  0.4161
 2172SOL     OW 7214   0.791   5.684   0.900  0.0179 -0.1734 -0.5170
 2172SOL    HW1 7215   0.844   5.732   0.837  0.1068  1.3758  0.6539
 2172SOL    HW2 7216   0.831   5.705   0.985 -0.7048 -1.3597  0.1421
 2173SOL     OW 7217   3.025   0.638   5.072 -0.3194 -0.3232  0.1626
 2173SOL    HW1 7218   2.963   0.577   5.033  0.9591 -0.7080 -1.3673
 2173SOL    HW2 7219   3.064   0.590   5.145  0.3135 -1.1866 -0.7233
 2174SOL     OW 7220   2.670   5.237   1.369 -0.5308 -0.3206  0.1522
 2174SOL    HW1 7221   2.736   5.167   1.365  2.2277  2.1472 -0.6875
 2174SOL    HW2 7222   2.717   5.313   1.401 -3.5028  1.1611  1.3591
 2175SOL     OW 7223   5.027   4.961   4.467  0.2775 -0.6346 -0.3998
 2175SOL    HW1 7224   5.054   4.904   4.539 -0.2884 -1.0690 -0.5290
 2175SOL    HW2 7225   4.935   4.979   4.483 -0.1576 -1.6540 -1.6168
 2176SOL     OW 7226   3.987   3.663   2.885 -0.1913 -0.0930  0.0845
 2176SOL    HW1 7227   3.982   3.568   2.899 -0.7820 -0.2279 -0.9433
 2176SOL    HW2 7228   4.053   3.693   2.948  0.6436 -1.3144 -0.1733
 2177SOL     OW 7229   2.469   0.357   4.231 -0.5867  0.0886  0.1875
 2177SOL    HW1 7230   2.508   0.410   4.300 -0.5698  1.5972 -0.9415
 2177SOL    HW2 7231   2.537   0.352   4.163 -0.9801 -0.4847 -0.1764
 2178SOL     OW 7232   2.437   4.298   7.726 -0.0919  0.0866  0.1703
 2178SOL    HW1 7233   2.507   4.253   7.773  0.5009  1.5009  0.7326
 2178SOL    HW2 7234   2.481   4.372   7.684 -1.2124  0.9018  0.3978
 2179SOL     OW 7235   5.360   4.198   4.581  0.7643  0.1300 -0.0319
 2179SOL    HW1 7236   5.385   4.138   4.511 -0.1982 -1.5991  1.0109
 2179SOL    HW2 7237   5.430   4.191   4.646 -0.4572 -1.8817  1.2096
 2180SOL     OW 7238   3.485   6.661   6.961  0.1909 -0.6604  0.0225
 2180SOL    HW1 7239   3.416   6.655   6.894  0.5715 -0.6183 -0.3743
 2180SOL    HW2 7240   3.507   6.570   6.981  1.3927 -0.6888 -1.2798
 2181SOL     OW 7241   3.188   2.570   7.775  0.3002  0.1040 -0.5207
 2181SOL    HW1 7242   3.179   2.481   7.811  1.4500 -0.3139 -1.2074
 2181SOL    HW2 7243   3.100   2.593   7.745  0.1158 -1.0494 -0.9090
 2182SOL     OW 7244   7.972   6.423   2.633  0.0428  0.0249 -0.2039
 2182SOL    HW1 7245   8.010   6.341   2.601 -0.3548 -1.0787  1.9611
 2182SOL    HW2 7246   8.048   6.481   2.644  0.6327 -0.8073  0.2846
 2183SOL     OW 7247   3.232   6.401   0.382  0.2400  0.1700 -0.1794
 2183SOL    HW1 7248   3.245   6.307   0.388  1.4684  0.3342 -0.0661
 2183SOL    HW2 7249   3.294   6.430   0.315 -2.2702  0.5040 -2.5475
 2184SOL     OW 7250   1.772   7.616   5.268  0.2364  0.0335 -0.3206
 2184SOL    HW1 7251   1.813   7.641   5.185  3.4262 -0.5026  0.9479
 2184SOL    HW2 7252   1.821   7.539   5.296 -2.3152 -1.2285  1.0108
 2185SOL     OW 7253   6.409   6.728   4.389 -0.5589  0.3433 -0.1565
 2185SOL    HW1 7254   6.372   6.759   4.307  0.0474  0.6167 -0.3375
 2185SOL    HW2 7255   6.344   6.668   4.425  0.2482 -1.8512 -2.1273
 2186SOL     OW 7256   3.354   3.802   6.945 -0.5953 -0.4461 -0.4164
 2186SOL    HW1 7257   3.388   3.716   6.920  0.4373  0.0333 -0.7376
 2186SOL    HW2 7258   3.260   3.795   6.935 -0.8403 -2.3865  2.1158
 2187SOL     OW 7259   4.958   0.045   3.746  0.0738 -0.4712  0.4527
 2187SOL    HW1 7260   4.936   0.129   3.784  1.1681 -0.0581  0.2217
 2187SOL    HW2 7261   5.053   0.049   3.732 -0.0735 -1.1379 -0.9858
 2188SOL     OW 7262   7.818   2.573   7.097 -0.6349 -0.3385  0.0833
 2188SOL    HW1 7263   7.854   2.591   7.010  2.0219  0.8736  1.3135
 2188SOL    HW2 7264   7.830   2.479   7.109 -0.2904 -0.3853 -0.5746
 2189SOL     OW 7265   3.140   2.346   4.317  0.3018 -0.2797  0.5725
 2189SOL    HW1 7266   3.129   2.437   4.290 -2.4381  0.0377  2.3183
 2189SOL    HW2 7267   3.056   2.322   4.356  1.4096 -3.1057  1.5277
 2190SOL     OW 7268   6.610   1.513   6.084  0.0704  0.1060  0.0821
 2190SOL    HW1 7269   6.519   1.540   6.091  0.1178  0.0888  0.9632
 2190SOL    HW2 7270   6.612   1.426   6.125  0.3564 -0.1952 -0.5572
 2191SOL     OW 7271   0.077   4.856   4.999 -0.0648  0.5220  0.0372
 2191SOL    HW1 7272   0.055   4.808   4.920 -0.3354  0.1395  0.3422
 2191SOL    HW2 7273   0.028   4.812   5.069  1.9382 -0.6071  0.8128
 2192SOL     OW 7274   1.983   2.865   2.682 -0.0543  0.1976  1.3403
 2192SOL    HW1 7275   2.016   2.789   2.728  0.6641  0.0035  0.5171
 2192SOL    HW2 7276   1.890   2.868   2.705 -0.0346 -0.7674  1.5880
 2193SOL     OW 7277   0.230   7.449   0.856 -0.2561  0.1649  0.0204
 2193SOL    HW1 7278   0.219   7.396   0.777  2.4982  0.5363 -0.7248
 2193SOL    HW2 7279   0.280   7.393   0.916  0.4776  0.9781  0.1983
 2194SOL     OW 7280   3.333   2.678   0.221  0.0369  0.4471 -0.0331
 2194SOL    HW1 7281   3.248   2.639   0.203  0.8568 -0.9735 -0.9738
 2194SOL    HW2 7282   3.375   2.685   0.136  1.0402  0.7379  0.4657
 2195SOL     OW 7283   7.702   5.338   2.483 -0.5389  0.2371 -0.2278
 2195SOL    HW1 7284   7.655   5.316   2.563 -0.5104 -1.6330 -0.6574
 2195SOL    HW2 7285   7.642   5.314   2.412  1.0063 -2.4526 -0.7931
 2196SOL     OW 7286   0.300   6.314   2.134  0.2432  0.0383 -0.2152
 2196SOL    HW1 7287   0.216   6.360   2.129  0.1243 -0.1448  0.0547
 2196SOL    HW2 7288   0.307   6.288   2.226  0.3595 -0.3840 -0.3411
 2197SOL     OW 7289   2.329   4.648   5.674 -0.0620 -0.0603 -0.2000
 2197SOL    HW1 7290   2.307   4.670   5.584 -3.2801  0.9879  0.7448
 2197SOL    HW2 7291   2.418   4.681   5.685 -0.6548  2.4765 -2.1300
 2198SOL     OW 7292   3.833   0.206   2.895 -0.2368 -0.2720  0.0572
 2198SOL    HW1 7293   3.870   0.224   2.808 -1.4262  1.2270 -0.1766
 2198SOL    HW2 7294   3.864   0.279   2.950 -1.5868  0.2139  0.2141
 2199SOL     OW 7295   0.231   0.352   4.797 -0.2981 -0.3670 -0.3746
 2199SOL    HW1 7296   0.286   0.421   4.760 -0.3777 -0.0488  0.0874
 2199SOL    HW2 7297   0.292   0.292   4.839 -0.3178  0.1952  0.4837
 2200SOL     OW 7298   0.083   5.704   3.359  0.3667 -0.5087  0.1489
 2200SOL    HW1 7299   0.050   5.666   3.440  2.1294 -2.2663  0.1067
 2200SOL    HW2 7300   0.086   5.631   3.298  0.6101  0.4527 -1.0364
 2201SOL     OW 7301   1.706   3.003   2.480 -0.0780  0.2151  0.5111
 2201SOL    HW1 7302   1.725   3.094   2.504 -0.9480  0.4903  0.2293
 2201SOL    HW2 7303   1.691   3.007   2.385 -1.1419 -0.0182  0.6520
 2202SOL     OW 7304   5.544   0.420   4.021 -0.2809  0.0987 -0.2681
 2202SOL    HW1 7305   5.508   0.351   3.965  0.8020  0.1274 -1.0302
 2202SOL    HW2 7306   5.617   0.455   3.972 -0.9707  2.0105 -0.0176
 2203SOL     OW 7307   3.569   6.829   2.372 -0.5222  0.1959 -0.2841
 2203SOL    HW1 7308   3.619   6.861   2.297  0.8328  0.7058  0.7848
 2203SOL    HW2 7309   3.483   6.868   2.363 -0.4998 -0.0444 -1.7536
 2204SOL     OW 7310   0.981   1.177   3.203  0.0457 -0.7006  0.2634
 2204SOL    HW1 7311   0.990   1.197   3.110  0.5846  0.6668  0.5869
 2204SOL    HW2 7312   0.889   1.195   3.223  0.2872  0.4839  0.3234
 2205SOL     OW 7313   7.042   4.727   6.483  0.5495 -0.0097 -0.4626
 2205SOL    HW1 7314   7.099   4.709   6.408  2.1576 -0.3312  0.7707
 2205SOL    HW2 7315   6.963   4.675   6.466  1.8200 -1.9459 -0.8406
 2206SOL     OW 7316   2.026   3.409   1.327  0.2635  0.0017  0.1368
 2206SOL    HW1 7317   1.993   3.489   1.286 -0.8956  1.0286  2.8389
 2206SOL    HW2 7318   2.117   3.430   1.349 -0.0663  0.6856  0.9367
 2207SOL     OW 7319   6.322   1.180   0.859 -0.2767  0.4455  0.1973
 2207SOL    HW1 7320   6.406   1.219   0.833 -0.0399 -0.7876 -0.9648
 2207SOL    HW2 7321   6.291   1.237   0.930  1.0277  1.5362 -0.0557
 2208SOL     OW 7322   1.234   5.226   2.474 -0.2129  0.4925 -0.2850
 2208SOL    HW1 7323   1.153   5.177   2.488  0.6711 -0.8370  0.4422
 2208SOL    HW2 7324   1.207   5.304   2.427 -1.7761 -0.4615 -1.0691
 2209SOL     OW 7325   2.945   1.558   1.618 -0.2765  0.5852 -0.6064
 2209SOL    HW1 7326   2.862   1.542   1.663  0.1496 -0.0528 -0.0218
 2209SOL    HW2 7327   2.967   1.649   1.638 -1.0469  0.8985 -1.1363
 2210SOL     OW 7328   5.873   3.842   4.777  0.0464  0.7248  0.4801
 2210SOL    HW1 7329   5.778   3.851   4.764 -0.0304  1.5121  1.3949
 2210SOL    HW2 7330   5.892   3.752   4.753 -0.5922  1.0874 -1.6078
 2211SOL     OW 7331   7.893   0.378   3.318  0.5689  0.0243  0.3549
 2211SOL    HW1 7332   7.830   0.429   3.369  1.2173  0.5714  0.6200
 2211SOL    HW2 7333   7.900   0.295   3.365 -1.8498 -1.0931 -1.0521
 2212SOL     OW 7334   6.053   7.748   6.074  0.4097  0.0429 -0.1275
 2212SOL    HW1 7335   6.146   7.728   6.063  0.0396 -0.9352 -1.8487
 2212SOL    HW2 7336   6.020   7.680   6.133  0.3488 -1.0685 -1.3820
 2213SOL     OW 7337   3.206   7.966   3.812 -0.0920 -0.2934 -0.9798
 2213SOL    HW1 7338   3.201   8.049   3.764 -0.8634 -0.2937 -0.9094
 2213SOL    HW2 7339   3.124   7.962   3.862 -0.3295 -1.3796 -1.4335
 2214SOL     OW 7340   4.631   2.592   7.953  0.6512 -0.2205  0.0340
 2214SOL    HW1 7341   4.634   2.684   7.980 -0.2839 -0.2888  0.4042
 2214SOL    HW2 7342   4.630   2.543   8.036  0.9267 -0.5551 -0.1597
 2215SOL     OW 7343   4.603   2.048   2.901  0.4467 -0.7838  0.1308
 2215SOL    HW1 7344   4.669   2.109   2.933 -0.4869  0.6472 -0.5567
 2215SOL    HW2 7345   4.617   2.045   2.806  0.0728 -1.1258  0.0837
 2216SOL     OW 7346   7.253   4.756   0.226 -0.4974  0.7150 -0.0889
 2216SOL    HW1 7347   7.264   4.761   0.131  1.3698 -0.6297  0.0047
 2216SOL    HW2 7348   7.216   4.669   0.242 -0.0165  0.6050  0.4678
 2217SOL     OW 7349   1.304   0.899   5.065  0.2315 -0.0195 -0.1416
 2217SOL    HW1 7350   1.324   0.973   5.007 -1.1258 -0.0539 -0.6927
 2217SOL    HW2 7351   1.209   0.906   5.080  0.3035 -0.9184  0.8314
 2218SOL     OW 7352   2.368   0.927   1.751  0.5878  0.2965 -0.1095
 2218SOL    HW1 7353   2.295   0.868   1.769  0.2425  0.2505 -1.5314
 2218SOL    HW2 7354   2.443   0.869   1.738  0.5727  0.2611 -0.0404
 2219SOL     OW 7355   5.802   2.526   1.454  0.3041 -0.3794  0.0148
 2219SOL    HW1 7356   5.803   2.439   1.494  2.0076 -0.1781  0.5028
 2219SOL    HW2 7357   5.789   2.586   1.528  1.2847 -0.1246 -0.0026
 2220SOL     OW 7358   7.065   0.455   1.365 -0.0548  0.3761 -0.3513
 2220SOL    HW1 7359   7.099   0.472   1.277  1.0351  0.4655  0.0757
 2220SOL    HW2 7360   7.006   0.381   1.354 -0.8235  1.1133 -1.3497
 2221SOL     OW 7361   0.723   0.035   7.227  0.2758  0.2509 -0.8289
 2221SOL    HW1 7362   0.715   0.016   7.133  2.6655  0.2034 -1.0963
 2221SOL    HW2 7363   0.778  -0.035   7.261 -1.3274 -0.2654  0.8612
 2222SOL     OW 7364   4.949   4.615   2.098  0.2556 -0.0614  0.3260
 2222SOL    HW1 7365   4.959   4.519   2.102 -1.6794 -0.3267 -0.0998
 2222SOL    HW2 7366   4.860   4.631   2.129  0.9628  1.7456  1.5623
 2223SOL     OW 7367   5.953   0.941   7.603  0.1155 -0.8853  1.4149
 2223SOL    HW1 7368   5.875   0.888   7.621 -0.8298  0.0209  0.2034
 2223SOL    HW2 7369   5.923   1.031   7.612  1.0101 -0.5214  0.8935
 2224SOL     OW 7370   1.473   0.062   0.057 -0.2410 -0.5399  0.1080
 2224SOL    HW1 7371   1.529   0.139   0.043 -0.1105 -0.8587 -1.3174
 2224SOL    HW2 7372   1.413   0.063  -0.018 -0.3797 -1.7032  0.1964
 2225SOL     OW 7373   4.543   7.860   2.531 -0.1694 -0.0813  0.2934
 2225SOL    HW1 7374   4.570   7.948   2.557 -0.3667  0.2294 -0.5500
 2225SOL    HW2 7375   4.622   7.820   2.494  1.1205 -1.7359  4.2428
 2226SOL     OW 7376   0.189   2.570   3.601  0.2723 -0.2753 -0.3495
 2226SOL    HW1 7377   0.268   2.539   3.645  0.4351  0.4530 -0.1239
 2226SOL    HW2 7378   0.197   2.665   3.600  0.0272 -0.2457 -1.5042
 2227SOL     OW 7379   2.721   3.858   5.446  0.2105 -0.8296 -0.4907
 2227SOL    HW1 7380   2.672   3.823   5.520  0.8976  0.5137  0.6281
 2227SOL    HW2 7381   2.655   3.901   5.392 -0.0675 -0.3583  0.2139
 2228SOL     OW 7382   7.501   3.648   4.007  1.2384  0.5397  0.5131
 2228SOL    HW1 7383   7.446   3.704   3.952  0.7774 -0.7770 -0.4329
 2228SOL    HW2 7384   7.567   3.614   3.947 -1.1980 -3.5647 -0.2356
 2229SOL     OW 7385   0.540   0.032   0.851 -0.1706  0.0919  0.2253
 2229SOL    HW1 7386   0.499  -0.045   0.810  1.8195 -2.0202  1.9374
 2229SOL    HW2 7387   0.608   0.058   0.789 -0.3305 -0.0388 -0.0086
 2230SOL     OW 7388   6.878   2.379   6.553  0.1877 -0.1864 -0.1183
 2230SOL    HW1 7389   6.907   2.438   6.484 -1.1598  0.3704 -0.2462
 2230SOL    HW2 7390   6.953   2.370   6.611  0.4086  1.7012 -0.0773
 2231SOL     OW 7391   3.883   5.502   5.828  0.1963  0.1652 -0.7688
 2231SOL    HW1 7392   3.876   5.575   5.889  0.0425 -2.1297  2.2295
 2231SOL    HW2 7393   3.797   5.497   5.785 -0.1735  1.0342 -0.1469
 2232SOL     OW 7394   0.982   2.473   6.340 -0.3655 -0.5478 -0.2161
 2232SOL    HW1 7395   0.946   2.393   6.377  1.2179 -1.2881 -0.1804
 2232SOL    HW2 7396   1.052   2.443   6.281  0.4608  0.8075  0.0262
 2233SOL     OW 7397   4.345   7.548   4.517  0.0020  0.0343  0.4731
 2233SOL    HW1 7398   4.328   7.474   4.459  1.9690 -0.4085  0.3825
 2233SOL    HW2 7399   4.289   7.533   4.593 -0.2288 -1.1219  0.0848
 2234SOL     OW 7400   6.806   7.316   1.316 -0.0012 -0.1797 -0.2545
 2234SOL    HW1 7401   6.886   7.264   1.304 -0.3166 -0.5267 -0.9302
 2234SOL    HW2 7402   6.828   7.403   1.284 -0.3088 -0.6484 -1.8721
 2235SOL     OW 7403   6.009   5.619   3.314  0.1857  0.4515 -0.5317
 2235SOL    HW1 7404   6.027   5.607   3.221  0.4025 -0.2893 -0.4003
 2235SOL    HW2 7405   5.921   5.657   3.317  0.9410  2.3314 -1.1083
 2236SOL     OW 7406   5.342   7.085   0.388  0.2761  0.5793 -0.2296
 2236SOL    HW1 7407   5.344   7.181   0.382 -4.4380  0.8636 -0.7788
 2236SOL    HW2 7408   5.346   7.055   0.297 -1.3591  0.5198 -0.3084
 2237SOL     OW 7409   7.384   7.478   7.022  0.0614 -0.0960 -0.1273
 2237SOL    HW1 7410   7.309   7.426   7.052  0.1176  0.3078  0.7372
 2237SOL    HW2 7411   7.345   7.550   6.972  0.0233 -1.4806 -2.2319
 2238SOL     OW 7412   6.594   4.624   5.542  0.2667 -0.1384 -0.3223
 2238SOL    HW1 7413   6.598   4.604   5.448  0.9371 -0.3525 -0.2529
 2238SOL    HW2 7414   6.510   4.668   5.553 -0.5656 -1.5552 -0.7386
 2239SOL     OW 7415   0.151   1.602   6.089 -0.2264 -0.4141 -0.6781
 2239SOL    HW1 7416   0.139   1.564   6.002  0.6597 -0.1484 -0.9189
 2239SOL    HW2 7417   0.227   1.659   6.081 -0.5421  0.1431  0.1015
 2240SOL     OW 7418   2.174   0.574   5.531  0.0878 -0.1000 -0.2744
 2240SOL    HW1 7419   2.091   0.571   5.578 -0.5744 -0.4876 -1.4202
 2240SOL    HW2 7420   2.175   0.660   5.489 -0.2865 -0.5151 -1.1755
 2241SOL     OW 7421   2.663   1.855   3.283  0.1655  0.2880  0.2738
 2241SOL    HW1 7422   2.692   1.779   3.233  0.1091  1.2609 -1.3127
 2241SOL    HW2 7423   2.739   1.881   3.334  0.3393 -0.5220  0.4377
 2242SOL     OW 7424   4.741   6.790   5.443  0.2297  0.5612 -0.7292
 2242SOL    HW1 7425   4.818   6.744   5.478 -1.5771 -1.4593  0.8277
 2242SOL    HW2 7426   4.756   6.882   5.465  0.7328 -0.1877  2.6190
 2243SOL     OW 7427   6.471   1.456   1.808 -0.0004  0.4495 -0.7317
 2243SOL    HW1 7428   6.377   1.471   1.823 -0.0406  0.8785 -1.4125
 2243SOL    HW2 7429   6.498   1.525   1.748  1.4230  2.1261  1.6539
 2244SOL     OW 7430   7.737   4.624   1.019  0.3706  0.1897 -0.3749
 2244SOL    HW1 7431   7.740   4.666   1.104 -1.0187  1.6472 -0.9903
 2244SOL    HW2 7432   7.661   4.566   1.023 -0.7701  1.5557 -1.1205
 2245SOL     OW 7433   6.814   5.941   1.715  0.2044  0.0305 -0.6875
 2245SOL    HW1 7434   6.725   5.905   1.706 -0.2856  0.9568  0.3098
 2245SOL    HW2 7435   6.802   6.036   1.716  1.3026  0.1956 -1.3654
 2246SOL     OW 7436   3.265   6.434   0.811 -0.0611  0.3771 -0.4505
 2246SOL    HW1 7437   3.219   6.350   0.809 -1.7043  1.1922  1.0408
 2246SOL    HW2 7438   3.327   6.429   0.738 -1.6077 -1.2871 -1.7248
 2247SOL     OW 7439   5.897   3.800   6.585 -0.1801 -0.1802  0.4793
 2247SOL    HW1 7440   5.918   3.724   6.530  1.2672 -0.3217  1.1916
 2247SOL    HW2 7441   5.979   3.821   6.629 -0.5931  1.7106  0.4303
 2248SOL     OW 7442   7.478   4.002   3.860 -0.4144 -0.3610  0.5378
 2248SOL    HW1 7443   7.402   3.945   3.853 -0.4771 -0.1804 -0.3638
 2248SOL    HW2 7444   7.462   4.055   3.939 -1.1796 -0.3776  0.3937
 2249SOL     OW 7445   4.544   7.961   5.802  0.4137 -0.0787 -0.4025
 2249SOL    HW1 7446   4.550   7.869   5.777 -0.9898  0.1671 -1.8364
 2249SOL    HW2 7447   4.570   8.009   5.724  1.2463  0.7645  0.3688
 2250SOL     OW 7448   7.498   6.330   7.027  0.2760 -0.2149 -0.6237
 2250SOL    HW1 7449   7.450   6.403   6.987 -1.9778  0.0210  2.2031
 2250SOL    HW2 7450   7.552   6.372   7.095 -0.7364 -1.0634  0.7566
 2251SOL     OW 7451   7.339   5.091   1.497  0.4750 -0.2080  0.3031
 2251SOL    HW1 7452   7.375   5.177   1.521 -1.1757  1.2401 -2.0180
 2251SOL    HW2 7453   7.309   5.102   1.407 -0.6285 -2.9973  0.2372
 2252SOL     OW 7454   0.058   2.401   3.826  0.2771 -0.1981 -0.3544
 2252SOL    HW1 7455  -0.020   2.346   3.832  1.6056 -2.1326  0.2926
 2252SOL    HW2 7456   0.026   2.490   3.835 -1.6668 -1.0344  2.3275
 2253SOL     OW 7457   3.719   7.928   6.323  0.6336 -0.1695  0.4293
 2253SOL    HW1 7458   3.789   7.883   6.275 -1.3670 -0.5361 -2.3583
 2253SOL    HW2 7459   3.689   7.996   6.264 -2.2036 -0.8414  0.9636
 2254SOL     OW 7460   5.625   3.572   3.186 -0.4298 -0.5258 -0.6046
 2254SOL    HW1 7461   5.533   3.585   3.164 -1.0504  0.2584  2.1156
 2254SOL    HW2 7462   5.632   3.600   3.277  2.4671 -0.8125 -0.6555
 2255SOL     OW 7463   3.813   5.121   6.656  0.2009  0.9906 -0.2307
 2255SOL    HW1 7464   3.899   5.100   6.619  0.1561 -0.4983  0.4147
 2255SOL    HW2 7465   3.807   5.065   6.733 -1.9752 -0.0595 -1.0988
 2256SOL     OW 7466   0.019   4.906   4.484  0.5603 -0.5896 -0.1794
 2256SOL    HW1 7467  -0.043   4.952   4.541 -1.5692 -1.3343 -1.7808
 2256SOL    HW2 7468   0.006   4.813   4.505  0.5642 -0.7980 -1.0913
 2257SOL     OW 7469   7.550   0.672   4.815 -0.1919  0.2505 -0.2894
 2257SOL    HW1 7470   7.473   0.713   4.855 -0.2770  0.5935 -0.8034
 2257SOL    HW2 7471   7.571   0.599   4.874 -0.1350  0.9247  0.5340
 2258SOL     OW 7472   0.985   2.824   6.114 -0.1722  0.5607  0.4418
 2258SOL    HW1 7473   1.039   2.773   6.174  0.6335 -0.7158 -1.2659
 2258SOL    HW2 7474   0.968   2.906   6.160  2.5202  0.6767  1.3901
 2259SOL     OW 7475   1.633   2.390   4.985 -0.0367  0.1383  0.0347
 2259SOL    HW1 7476   1.709   2.417   5.037  0.3436  2.6630 -1.6483
 2259SOL    HW2 7477   1.634   2.294   4.988  1.9947  0.1390  1.7260
 2260SOL     OW 7478   1.567   7.666   6.439 -0.2205  0.3037 -0.1373
 2260SOL    HW1 7479   1.594   7.658   6.530  1.1666  1.9015 -0.3729
 2260SOL    HW2 7480   1.508   7.741   6.438 -0.2655  0.2649 -0.5599
 2261SOL     OW 7481   4.399   1.001   2.996 -0.2465 -0.0886 -0.0305
 2261SOL    HW1 7482   4.412   1.051   3.076  1.4726 -0.4903 -0.0191
 2261SOL    HW2 7483   4.467   0.934   2.998 -1.8520 -1.8220 -0.5361
 2262SOL     OW 7484   3.258   5.762   2.747  0.2370  0.3043  1.0109
 2262SOL    HW1 7485   3.214   5.834   2.703 -0.1290 -0.7144 -0.3601
 2262SOL    HW2 7486   3.187   5.711   2.786 -0.0736 -2.0209 -2.2223
 2263SOL     OW 7487   4.847   3.449   6.896  0.1269 -0.0137 -0.3936
 2263SOL    HW1 7488   4.797   3.464   6.976  2.3350  2.7697  0.6306
 2263SOL    HW2 7489   4.865   3.355   6.896  1.5024  0.0895  3.3630
 2264SOL     OW 7490   6.364   0.002   5.975 -0.7274  0.0532 -0.0646
 2264SOL    HW1 7491   6.435   0.016   5.911  0.2458  0.0400  0.9875
 2264SOL    HW2 7492   6.338  -0.089   5.962  0.0130 -0.1866  0.0956
 2265SOL     OW 7493   5.088   6.325   3.262  0.6405  0.2546 -0.1013
 2265SOL    HW1 7494   5.092   6.406   3.313 -0.5934 -0.5896  1.4295
 2265SOL    HW2 7495   5.102   6.255   3.326 -0.1321 -0.8204 -1.0478
 2266SOL     OW 7496   1.192   1.771   7.934  0.1074  0.0274  0.0181
 2266SOL    HW1 7497   1.276   1.779   7.980  0.0091 -1.0076  0.4225
 2266SOL    HW2 7498   1.134   1.729   7.998 -0.3523 -0.4127 -0.6767
 2267SOL     OW 7499   7.226   4.044   2.273  0.0127  0.6848  0.2331
 2267SOL    HW1 7500   7.314   4.070   2.299  0.4844 -0.3641 -0.2319
 2267SOL    HW2 7501   7.240   3.976   2.207 -1.1454  1.1425 -0.5179
 2268SOL     OW 7502   4.268   0.229   4.595  0.2268 -0.0392  0.1821
 2268SOL    HW1 7503   4.288   0.205   4.685 -1.4759  0.0153  0.5955
 2268SOL    HW2 7504   4.218   0.310   4.602  0.2445  0.0747 -0.8388
 2269SOL     OW 7505   5.852   6.774   6.922 -0.1593 -0.0942  0.0257
 2269SOL    HW1 7506   5.835   6.841   6.856  0.1862 -0.2060 -0.1815
 2269SOL    HW2 7507   5.946   6.758   6.916 -0.1967 -0.4146  0.2492
 2270SOL     OW 7508   1.280   1.848   4.480 -0.4120 -0.1053 -0.3290
 2270SOL    HW1 7509   1.278   1.943   4.477  0.9724 -0.0035  0.8730
 2270SOL    HW2 7510   1.373   1.826   4.493 -0.7361 -1.5978 -0.3066
 2271SOL     OW 7511   4.405   1.313   2.534  0.2509  0.3276 -0.0519
 2271SOL    HW1 7512   4.469   1.331   2.603  0.2393 -0.0462  0.0601
 2271SOL    HW2 7513   4.417   1.385   2.471 -0.2679  1.0984  0.7118
 2272SOL     OW 7514   4.172   0.952   7.656  0.1181  0.6751 -0.2656
 2272SOL    HW1 7515   4.103   0.886   7.652  1.6053 -0.9967  0.2833
 2272SOL    HW2 7516   4.125   1.036   7.660 -1.8214 -0.2569 -1.8466
 2273SOL     OW 7517   2.427   7.493   3.297 -0.0627 -0.0724  0.0021
 2273SOL    HW1 7518   2.389   7.409   3.323 -0.3536  0.3457  0.9585
 2273SOL    HW2 7519   2.476   7.473   3.217 -0.9935 -0.9349 -0.3745
 2274SOL     OW 7520   6.600   5.791   6.713  0.1001  0.0582  0.1517
 2274SOL    HW1 7521   6.545   5.769   6.638 -0.5730 -0.0715  0.6764
 2274SOL    HW2 7522   6.670   5.844   6.676 -0.4438  0.3368 -0.5053
 2275SOL     OW 7523   5.903   1.477   7.175  0.1300 -0.3936  0.2022
 2275SOL    HW1 7524   5.991   1.454   7.206  0.1990  0.0878  0.3728
 2275SOL    HW2 7525   5.911   1.478   7.080  0.3351 -0.2619  0.2190
 2276SOL     OW 7526   7.757   3.013   1.769  0.3790  0.0053  0.2126
 2276SOL    HW1 7527   7.839   2.964   1.767  1.2955  1.3505  2.1709
 2276SOL    HW2 7528   7.780   3.099   1.734 -0.1480  0.4362  0.9092
 2277SOL     OW 7529   2.709   0.719   7.288  0.0123 -0.0764  0.3778
 2277SOL    HW1 7530   2.732   0.663   7.214  2.3993 -0.0426  1.0086
 2277SOL    HW2 7531   2.649   0.666   7.341 -2.5110  0.2363 -1.9495
 2278SOL     OW 7532   3.350   7.920   7.383 -0.5342  0.0803 -0.1156
 2278SOL    HW1 7533   3.371   7.957   7.297  1.0942  0.9489  0.6075
 2278SOL    HW2 7534   3.280   7.976   7.416 -1.0413 -0.1432 -0.7981
 2279SOL     OW 7535   0.485   0.055   4.015 -0.0745  0.5620 -0.5238
 2279SOL    HW1 7536   0.420   0.122   4.034 -1.9985 -1.3543  0.1892
 2279SOL    HW2 7537   0.566   0.087   4.053 -0.9515  2.3992 -0.1114
 2280SOL     OW 7538   3.959   4.659   0.063 -0.1621 -0.0902  0.2891
 2280SOL    HW1 7539   3.950   4.584   0.123  0.9569  1.3738  2.4170
 2280SOL    HW2 7540   4.052   4.659   0.038 -0.1409  0.6048  0.3513
 2281SOL     OW 7541   4.845   6.157   0.279 -0.1245  0.0179  0.5404
 2281SOL    HW1 7542   4.819   6.232   0.225  0.7470  0.6144  0.9348
 2281SOL    HW2 7543   4.870   6.090   0.215  0.1122  0.4352  0.1851
 2282SOL     OW 7544   0.170   4.081   4.208 -0.5844 -0.1800  0.0446
 2282SOL    HW1 7545   0.163   4.162   4.259 -1.0907  1.0211 -1.7856
 2282SOL    HW2 7546   0.244   4.096   4.149 -1.1832 -0.6746 -0.8736
 2283SOL     OW 7547   1.350   2.995   7.139 -0.9596  0.0928  0.1357
 2283SOL    HW1 7548   1.348   3.030   7.050  0.4928 -2.0242 -0.8205
 2283SOL    HW2 7549   1.379   2.904   7.128  5.4311  1.1843  3.0309
 2284SOL     OW 7550   3.956   3.880   5.412  0.2884 -0.0080 -0.0585
 2284SOL    HW1 7551   3.981   3.789   5.429 -0.2131 -0.1195  0.1349
 2284SOL    HW2 7552   3.955   3.921   5.499  3.3797  0.9901 -0.3933
 2285SOL     OW 7553   1.424   0.678   3.276  0.1212 -0.0772 -0.0861
 2285SOL    HW1 7554   1.511   0.664   3.238  0.2563  0.0315  0.1776
 2285SOL    HW2 7555   1.390   0.590   3.292  1.4145 -0.2010  2.5945
 2286SOL     OW 7556   3.428   0.635   5.873  0.7930 -0.1347  0.7603
 2286SOL    HW1 7557   3.352   0.578   5.887  0.9781 -0.4691  0.4469
 2286SOL    HW2 7558   3.436   0.685   5.954 -1.2402  1.6963 -0.0674
 2287SOL     OW 7559   6.994   3.824   7.392 -0.2720 -0.2905 -0.2041
 2287SOL    HW1 7560   6.983   3.803   7.485  0.4604 -1.0129 -0.2666
 2287SOL    HW2 7561   7.022   3.916   7.391 -1.2927  0.0355  0.2224
 2288SOL     OW 7562   7.456   2.920   6.372  0.5183  0.2462  0.7606
 2288SOL    HW1 7563   7.401   2.996   6.390 -0.5049 -0.0838 -0.7580
 2288SOL    HW2 7564   7.503   2.905   6.454 -0.6206  1.3944  1.6810
 2289SOL     OW 7565   3.027   5.435   6.809 -0.0632  0.1420  0.1680
 2289SOL    HW1 7566   2.938   5.462   6.787  0.2102  0.7463 -0.2050
 2289SOL    HW2 7567   3.083   5.508   6.782  0.8171 -1.1432 -1.7677
 2290SOL     OW 7568   7.760   1.776   6.938 -0.0002  0.0538 -0.0007
 2290SOL    HW1 7569   7.687   1.716   6.925  0.0480  0.2395 -1.2022
 2290SOL    HW2 7570   7.725   1.845   6.995  0.2188 -1.5704  2.2157
 2291SOL     OW 7571   5.487   2.366   0.095 -0.0176 -0.0549  0.0785
 2291SOL    HW1 7572   5.566   2.327   0.057 -0.3505  0.7627 -1.5939
 2291SOL    HW2 7573   5.518   2.409   0.175  1.2643  0.3038 -0.5705
 2292SOL     OW 7574   1.601   0.151   2.486  0.0054  0.2546  0.2997
 2292SOL    HW1 7575   1.660   0.197   2.427 -0.8911  0.3197 -0.5840
 2292SOL    HW2 7576   1.513   0.170   2.452 -0.5161 -0.0651  1.3999
 2293SOL     OW 7577   6.549   1.825   3.903 -0.1509  0.6947  0.7957
 2293SOL    HW1 7578   6.524   1.847   3.993  1.3322  1.0929  1.1398
 2293SOL    HW2 7579   6.594   1.740   3.912 -2.3105 -0.6154  0.0302
 2294SOL     OW 7580   6.284   0.959   3.608 -0.2098 -0.4818 -0.2170
 2294SOL    HW1 7581   6.243   1.040   3.638  0.3005  0.3015 -1.5806
 2294SOL    HW2 7582   6.327   0.982   3.526 -1.1756 -2.4499 -1.3437
 2295SOL     OW 7583   7.380   5.733   0.066  0.3386 -0.2975 -0.4973
 2295SOL    HW1 7584   7.331   5.662   0.108 -0.7704  0.1069 -1.0649
 2295SOL    HW2 7585   7.315   5.780   0.014  1.1312  0.8914 -0.4670
 2296SOL     OW 7586   3.688   4.206   3.106  0.8249 -0.1653  0.1400
 2296SOL    HW1 7587   3.624   4.201   3.035  0.4146 -0.6630  0.5340
 2296SOL    HW2 7588   3.656   4.144   3.172  1.0221  0.5246  0.9042
 2297SOL     OW 7589   6.590   0.108   4.284  0.0155  0.0942 -0.4179
 2297SOL    HW1 7590   6.599   0.190   4.236 -0.1669  0.6097  0.4064
 2297SOL    HW2 7591   6.521   0.060   4.237 -0.3289  0.6938 -0.5256
 2298SOL     OW 7592   5.687   3.217   6.355 -0.4761 -0.0629 -0.0313
 2298SOL    HW1 7593   5.697   3.291   6.415 -0.3397 -1.0081  1.1388
 2298SOL    HW2 7594   5.613   3.241   6.300 -0.5956  0.8377  0.4927
 2299SOL     OW 7595   4.331   7.156   4.642  0.3454 -0.0126  0.1332
 2299SOL    HW1 7596   4.281   7.214   4.586  2.2758  1.1378 -0.4741
 2299SOL    HW2 7597   4.276   7.077   4.649 -0.4115  0.1785 -2.5404
 2300SOL     OW 7598   6.312   6.918   2.070 -0.9728 -0.6125 -0.0768
 2300SOL    HW1 7599   6.287   6.865   2.146  0.7516 -3.1745 -1.1596
 2300SOL    HW2 7600   6.408   6.924   2.075 -0.9077 -0.0003 -1.5366
 2301SOL     OW 7601   7.634   6.541   5.061 -0.8228  0.4755  0.5875
 2301SOL    HW1 7602   7.718   6.520   5.020 -1.4673 -0.2121 -0.4300
 2301SOL    HW2 7603   7.592   6.456   5.075 -1.6464  0.8402  0.4145
 2302SOL     OW 7604   4.638   1.399   5.347 -0.0541 -0.5827  0.2947
 2302SOL    HW1 7605   4.584   1.404   5.268  0.6244  0.3710 -0.1250
 2302SOL    HW2 7606   4.677   1.312   5.343 -0.7916 -0.9089  0.0876
 2303SOL     OW 7607   6.021   2.337   3.321 -0.2576  0.2283  0.0391
 2303SOL    HW1 7608   5.969   2.311   3.397 -0.0313 -0.6183 -0.0790
 2303SOL    HW2 7609   6.033   2.255   3.272  0.5722  0.5488 -0.3048
 2304SOL     OW 7610   0.989   7.277   4.687  0.0989  0.2841 -0.6947
 2304SOL    HW1 7611   1.022   7.366   4.675  0.1925  0.3687  0.1235
 2304SOL    HW2 7612   0.974   7.270   4.782  0.9920 -0.8862 -0.6281
 2305SOL     OW 7613   5.101   4.832   4.694  0.2709  0.4748 -0.3173
 2305SOL    HW1 7614   5.170   4.863   4.753 -0.6318  1.6554  0.1571
 2305SOL    HW2 7615   5.087   4.741   4.719  0.9808  0.5132  0.2433
 2306SOL     OW 7616   4.657   5.862   3.342  0.3528 -0.3236 -0.5621
 2306SOL    HW1 7617   4.735   5.805   3.343 -0.0500 -0.9085 -1.4593
 2306SOL    HW2 7618   4.686   5.943   3.384  1.6916 -0.2215 -1.6289
 2307SOL     OW 7619   6.947   1.146   5.459 -0.3633 -0.3507 -0.2444
 2307SOL    HW1 7620   6.935   1.237   5.484 -1.9797 -0.5378 -0.2438
 2307SOL    HW2 7621   7.025   1.117   5.507 -0.1433  0.8652  0.1509
 2308SOL     OW 7622   6.247   4.546   2.098 -0.3542 -0.6219  0.1435
 2308SOL    HW1 7623   6.186   4.619   2.097 -1.2318 -1.2540  1.7358
 2308SOL    HW2 7624   6.323   4.576   2.050 -2.2940 -0.1581 -2.8681
 2309SOL     OW 7625   4.958   1.893   3.696 -0.1419 -0.4393  0.3796
 2309SOL    HW1 7626   4.976   1.986   3.684 -1.2439 -0.3189 -0.4858
 2309SOL    HW2 7627   4.990   1.851   3.617 -1.0563 -0.5830  0.0741
 2310SOL     OW 7628   2.865   3.709   6.902 -0.0647  0.3196  0.4574
 2310SOL    HW1 7629   2.876   3.667   6.987  0.4258 -2.6714 -0.9407
 2310SOL    HW2 7630   2.953   3.742   6.881  0.2328 -0.4959  0.3849
 2311SOL     OW 7631   5.940   6.516   7.098  0.2083  0.5365  0.0008
 2311SOL    HW1 7632   6.030   6.495   7.075  0.0007 -0.3376 -0.0676
 2311SOL    HW2 7633   5.941   6.526   7.193  0.1356 -0.8578  0.1693
 2312SOL     OW 7634   0.036   5.579   3.105 -0.1729 -0.3520 -0.0176
 2312SOL    HW1 7635   0.116   5.615   3.068 -0.0922  1.9154  2.1094
 2312SOL    HW2 7636   0.047   5.484   3.099  1.6506 -0.0777 -1.7990
 2313SOL     OW 7637   3.671   4.793   6.416 -0.2091  0.5072 -0.7379
 2313SOL    HW1 7638   3.576   4.803   6.409 -0.2555 -0.8696 -3.2834
 2313SOL    HW2 7639   3.705   4.831   6.335  1.2159 -0.7746 -0.7904
 2314SOL     OW 7640   1.226   0.769   4.133  0.6026  0.2137 -0.1736
 2314SOL    HW1 7641   1.221   0.864   4.123 -0.9578  0.2486  0.5496
 2314SOL    HW2 7642   1.306   0.755   4.184  0.6041  1.1879  0.1240
 2315SOL     OW 7643   0.202   6.122   7.718  0.1719  0.1029  0.6440
 2315SOL    HW1 7644   0.155   6.157   7.642 -1.4151 -0.8798  1.1232
 2315SOL    HW2 7645   0.136   6.073   7.766  1.5342 -0.6699  1.7989
 2316SOL     OW 7646   0.977   0.361   0.918 -0.0639  0.0227 -0.2730
 2316SOL    HW1 7647   0.997   0.285   0.973 -0.5665  0.2383  0.2197
 2316SOL    HW2 7648   1.056   0.414   0.921  0.2936 -0.4788 -0.6238
 2317SOL     OW 7649   1.501   0.716   4.966 -0.3429 -0.5460 -0.3968
 2317SOL    HW1 7650   1.482   0.639   5.021  0.2436 -0.5912 -0.2466
 2317SOL    HW2 7651   1.457   0.788   5.010 -0.8753 -0.7883 -0.5215
 2318SOL     OW 7652   6.589   3.551   4.099 -0.2458  0.4951 -0.0884
 2318SOL    HW1 7653   6.606   3.548   4.193  0.1899 -1.8075 -0.1797
 2318SOL    HW2 7654   6.674   3.570   4.060  0.0636 -0.8251 -0.0927
 2319SOL     OW 7655   1.458   3.866   0.290  0.4465  0.0634  0.9200
 2319SOL    HW1 7656   1.534   3.808   0.287  0.3288 -0.0487 -0.7828
 2319SOL    HW2 7657   1.383   3.807   0.280  0.2707  0.3909  0.2619
 2320SOL     OW 7658   2.564   2.932   5.415  0.2414  0.3266  0.0961
 2320SOL    HW1 7659   2.653   2.897   5.421 -0.5183 -1.6862  0.1391
 2320SOL    HW2 7660   2.568   2.994   5.342  1.6683  0.3104  0.1236
 2321SOL     OW 7661   3.638   2.732   4.655  0.2084  0.0425 -0.7108
 2321SOL    HW1 7662   3.550   2.750   4.621  0.2825 -1.8094 -2.0362
 2321SOL    HW2 7663   3.696   2.791   4.606 -0.0398 -0.4344 -1.5923
 2322SOL     OW 7664   4.412   7.530   5.321 -0.2870  0.3430  0.6140
 2322SOL    HW1 7665   4.400   7.484   5.238  0.1244 -0.4885  1.0003
 2322SOL    HW2 7666   4.411   7.460   5.387  1.6101  0.7351  1.1129
 2323SOL     OW 7667   6.214   1.907   4.686 -0.0853  0.4807 -0.0754
 2323SOL    HW1 7668   6.129   1.918   4.642 -0.2745 -0.5008  0.0392
 2323SOL    HW2 7669   6.199   1.938   4.775 -0.2981  0.3941 -0.0803
 2324SOL     OW 7670   7.306   0.458   5.528 -0.2281  0.1836 -0.0828
 2324SOL    HW1 7671   7.334   0.391   5.590  0.3239  0.6942  0.2326
 2324SOL    HW2 7672   7.219   0.483   5.557 -0.2970 -0.1540  0.0040
 2325SOL     OW 7673   0.388   4.047   1.337  0.4050 -0.4662 -0.4251
 2325SOL    HW1 7674   0.476   4.048   1.374 -0.2256  0.3112  1.1338
 2325SOL    HW2 7675   0.343   4.121   1.378 -0.5095  0.1353 -2.3878
 2326SOL     OW 7676   7.796   0.004   2.980  0.1501 -0.3002  0.0447
 2326SOL    HW1 7677   7.708  -0.030   2.989  0.5949 -1.5165 -0.0781
 2326SOL    HW2 7678   7.839  -0.014   3.063  0.9178 -1.6682 -0.6099
 2327SOL     OW 7679   0.051   4.246   3.263  0.2208 -0.8205 -0.4489
 2327SOL    HW1 7680   0.145   4.229   3.264  0.3302 -0.2506 -0.8355
 2327SOL    HW2 7681   0.040   4.320   3.203 -0.3063  0.0937  0.7305
 2328SOL     OW 7682   7.231   4.260   5.868 -0.7351  0.9378 -0.0354
 2328SOL    HW1 7683   7.255   4.286   5.780 -0.1467  2.5461  0.5600
 2328SOL    HW2 7684   7.308   4.280   5.921  0.3716 -3.3499  0.3675
 2329SOL     OW 7685   6.939   4.048   0.354  0.0232  0.3426 -0.1126
 2329SOL    HW1 7686   6.870   4.011   0.299 -0.1244 -0.4669  0.5839
 2329SOL    HW2 7687   6.899   4.054   0.441  0.5369  0.7411  0.0989
 2330SOL     OW 7688   2.581   4.050   4.570 -0.1509 -0.0156 -0.2915
 2330SOL    HW1 7689   2.493   4.047   4.606 -1.1046 -0.3849 -2.5414
 2330SOL    HW2 7690   2.594   3.966   4.527  0.7451  0.5550 -1.2080
 2331SOL     OW 7691   3.558   3.252   1.346 -0.2750 -0.4186  0.0585
 2331SOL    HW1 7692   3.486   3.237   1.408  1.3351 -0.7098  1.9468
 2331SOL    HW2 7693   3.574   3.166   1.308 -0.8574 -0.3737 -0.2952
 2332SOL     OW 7694   1.057   6.149   5.183  0.0266  0.6904 -0.0187
 2332SOL    HW1 7695   1.135   6.162   5.129  0.1984 -0.3220 -0.0495
 2332SOL    HW2 7696   0.996   6.101   5.127  0.4135 -0.8543  0.7938
 2333SOL     OW 7697   5.756   1.745   7.522 -0.4895  0.3002 -0.0687
 2333SOL    HW1 7698   5.787   1.713   7.437 -0.4001 -0.5095  0.2646
 2333SOL    HW2 7699   5.779   1.838   7.521  2.6365 -0.3369  0.4060
 2334SOL     OW 7700   5.865   2.536   5.837  0.0232 -0.4114  0.0427
 2334SOL    HW1 7701   5.880   2.487   5.918 -1.2522 -1.5541 -0.3791
 2334SOL    HW2 7702   5.807   2.608   5.863  1.2542  0.4268  0.5130
 2335SOL     OW 7703   7.810   1.103   4.375 -0.6858 -0.2270 -0.4936
 2335SOL    HW1 7704   7.846   1.150   4.300 -0.2428  1.4607  0.7200
 2335SOL    HW2 7705   7.728   1.148   4.394 -0.6860 -0.4981  0.1589
 2336SOL     OW 7706   1.267   7.078   2.249 -0.4497 -0.0017 -0.6101
 2336SOL    HW1 7707   1.178   7.084   2.282  0.2557  1.0603  1.2705
 2336SOL    HW2 7708   1.311   7.156   2.283  1.3323 -0.7458 -1.0638
 2337SOL     OW 7709   7.326   6.425   5.913 -0.2606  0.1130 -0.5179
 2337SOL    HW1 7710   7.298   6.349   5.964  0.1003  0.9784  1.0319
 2337SOL    HW2 7711   7.374   6.388   5.839 -0.3015 -1.1713  0.0722
 2338SOL     OW 7712   2.787   0.642   7.651 -0.0117 -0.2930  0.5759
 2338SOL    HW1 7713   2.708   0.610   7.607 -0.1931  0.3850  0.3932
 2338SOL    HW2 7714   2.850   0.656   7.580 -0.1511  0.3720  0.5860
 2339SOL     OW 7715   6.467   7.544   1.009 -0.2791 -0.0980 -0.1195
 2339SOL    HW1 7716   6.536   7.492   0.967  0.0574 -0.7968  1.2476
 2339SOL    HW2 7717   6.425   7.483   1.070 -1.0236  0.7673  0.2453
 2340SOL     OW 7718   0.272   0.839   1.216  0.1601  0.1033 -0.0917
 2340SOL    HW1 7719   0.230   0.798   1.292 -0.9838  0.4236 -0.5417
 2340SOL    HW2 7720   0.364   0.848   1.242 -0.2610  0.4482  1.3530
 2341SOL     OW 7721   7.149   2.700   6.800 -0.0195 -0.0275 -0.5333
 2341SOL    HW1 7722   7.184   2.731   6.716  0.9509  0.8126  0.1537
 2341SOL    HW2 7723   7.227   2.679   6.852 -0.6190 -1.9033 -0.3188
 2342SOL     OW 7724   4.303   6.502   1.378 -0.0742 -0.1751  0.3231
 2342SOL    HW1 7725   4.253   6.443   1.322 -1.3622  1.5345 -0.4209
 2342SOL    HW2 7726   4.329   6.573   1.319 -0.4405  1.0788  1.6389
 2343SOL     OW 7727   7.766   1.542   0.933  0.5218 -0.9551 -0.0457
 2343SOL    HW1 7728   7.712   1.567   1.008 -0.9627  0.3536 -1.4656
 2343SOL    HW2 7729   7.710   1.485   0.881  1.3179 -1.3567 -0.4851
 2344SOL     OW 7730   5.150   2.233   1.603 -0.2779 -0.1165 -0.5781
 2344SOL    HW1 7731   5.063   2.273   1.611 -1.5266 -2.6379 -0.6691
 2344SOL    HW2 7732   5.199   2.294   1.548 -1.0982  2.6672  1.5436
 2345SOL     OW 7733   5.590   0.149   7.443 -0.2700 -0.5937  0.5742
 2345SOL    HW1 7734   5.583   0.141   7.348  2.0671  0.9225  0.1880
 2345SOL    HW2 7735   5.632   0.068   7.471 -0.3420 -0.7553  0.2178
 2346SOL     OW 7736   1.646   0.501   0.188 -0.0418 -0.4322 -0.0267
 2346SOL    HW1 7737   1.731   0.483   0.228 -0.4282 -0.7538  0.6826
 2346SOL    HW2 7738   1.589   0.522   0.262 -0.1857  1.5077 -0.6210
 2347SOL     OW 7739   2.159   5.366   4.290  0.1460  0.1036 -0.2785
 2347SOL    HW1 7740   2.167   5.458   4.268  0.3946  0.0833 -0.2720
 2347SOL    HW2 7741   2.231   5.349   4.350  0.1940 -0.1325 -0.4021
 2348SOL     OW 7742   2.944   3.880   1.486  0.0786  0.5487  0.1220
 2348SOL    HW1 7743   2.902   3.855   1.404 -0.1904  2.0778 -0.2288
 2348SOL    HW2 7744   2.916   3.812   1.548 -0.4641 -0.1125 -0.8172
 2349SOL     OW 7745   2.538   7.911   7.374  0.2792 -0.2748  0.0618
 2349SOL    HW1 7746   2.485   7.834   7.352 -1.0733  0.2895  1.1515
 2349SOL    HW2 7747   2.525   7.970   7.299  1.0637 -0.9484 -0.6278
 2350SOL     OW 7748   1.674   0.917   7.247  0.0222  0.6789  0.5234
 2350SOL    HW1 7749   1.661   0.957   7.333 -0.8350 -0.6468  1.0303
 2350SOL    HW2 7750   1.658   0.824   7.260 -0.1234  0.4439 -1.0760
 2351SOL     OW 7751   6.885   6.725   2.978  0.3029  0.3070 -0.7410
 2351SOL    HW1 7752   6.809   6.772   2.943  0.7091  0.5259 -1.3440
 2351SOL    HW2 7753   6.848   6.660   3.037 -0.3375  0.6044 -0.8085
 2352SOL     OW 7754   6.774   5.432   0.353  0.0563  0.4517 -0.1121
 2352SOL    HW1 7755   6.820   5.441   0.436  3.1670  1.0803 -1.7455
 2352SOL    HW2 7756   6.728   5.515   0.342 -0.3912  0.3604  0.9453
 2353SOL     OW 7757   5.147   3.563   6.025  0.0146  0.0781  0.1021
 2353SOL    HW1 7758   5.216   3.590   5.965  0.2360 -1.7899 -0.5559
 2353SOL    HW2 7759   5.070   3.551   5.968 -1.1906  2.9967  0.9401
 2354SOL     OW 7760   2.660   0.083   0.689 -0.3528  0.1900  0.5471
 2354SOL    HW1 7761   2.663  -0.013   0.698 -0.0796  0.2607  1.3061
 2354SOL    HW2 7762   2.635   0.098   0.598  1.8694 -0.5906 -0.2387
 2355SOL     OW 7763   3.540   3.990   6.127 -0.1926  0.2591 -0.2160
 2355SOL    HW1 7764   3.472   4.055   6.143 -1.8534 -0.7539 -2.4515
 2355SOL    HW2 7765   3.492   3.907   6.124  1.5951 -0.8653  0.8516
 2356SOL     OW 7766   4.335   4.132   4.155  0.3168 -0.7615 -0.2762
 2356SOL    HW1 7767   4.316   4.181   4.235  0.3172 -0.8089 -0.2470
 2356SOL    HW2 7768   4.258   4.145   4.100  1.3758  1.5093 -1.3673
 2357SOL     OW 7769   1.662   4.413   3.401  0.0109  0.1195 -0.0505
 2357SOL    HW1 7770   1.681   4.345   3.466  1.3845 -0.2740 -0.8259
 2357SOL    HW2 7771   1.718   4.486   3.426  0.5542 -0.0371 -0.7778
 2358SOL     OW 7772   1.218   0.848   7.568  0.2541  0.0299  0.1154
 2358SOL    HW1 7773   1.287   0.849   7.502  2.0691 -1.3086  1.8785
 2358SOL    HW2 7774   1.230   0.931   7.616  2.3618 -1.2395  1.9773
 2359SOL     OW 7775   7.456   5.496   2.608 -0.0361  0.0432  0.7739
 2359SOL    HW1 7776   7.527   5.520   2.549 -0.4691 -0.9006 -0.1644
 2359SOL    HW2 7777   7.487   5.418   2.653 -0.8888 -1.0713 -0.4901
 2360SOL     OW 7778   2.160   0.684   6.474 -0.4145 -0.3752  0.0133
 2360SOL    HW1 7779   2.219   0.618   6.438  2.3855  2.2114 -0.5391
 2360SOL    HW2 7780   2.073   0.658   6.443  0.6458 -3.2320 -0.9172
 2361SOL     OW 7781   7.544   3.024   4.792 -0.1932  0.2088 -0.4258
 2361SOL    HW1 7782   7.592   2.948   4.824 -0.9745  0.6650  2.1113
 2361SOL    HW2 7783   7.611   3.087   4.768  0.4597 -0.5066 -0.5062
 2362SOL     OW 7784   2.380   3.883   3.378  0.3962  0.5134 -0.0383
 2362SOL    HW1 7785   2.429   3.905   3.457  1.7114 -1.7500 -0.1430
 2362SOL    HW2 7786   2.313   3.951   3.372  0.8211  1.2566  2.4987
 2363SOL     OW 7787   4.697   3.157   7.229  0.4242 -0.2106 -0.2129
 2363SOL    HW1 7788   4.657   3.107   7.157 -0.9694  0.5085  0.0170
 2363SOL    HW2 7789   4.762   3.098   7.266 -0.9568 -1.7639 -0.1316
 2364SOL     OW 7790   2.301   3.418   1.413 -0.1486  0.2142 -0.1439
 2364SOL    HW1 7791   2.353   3.340   1.431  0.8653  0.7757 -0.5579
 2364SOL    HW2 7792   2.311   3.472   1.492 -1.0815 -0.1857  0.2596
 2365SOL     OW 7793   3.262   5.210   5.526 -0.0535 -0.0568  0.2188
 2365SOL    HW1 7794   3.327   5.243   5.589  0.3914  0.3881 -0.4588
 2365SOL    HW2 7795   3.199   5.282   5.518 -0.1323 -0.1304  0.1839
 2366SOL     OW 7796   0.717   3.505   1.678 -0.2761  0.9377 -0.0958
 2366SOL    HW1 7797   0.723   3.411   1.692  0.1354  1.0050  0.2040
 2366SOL    HW2 7798   0.792   3.526   1.623 -2.7985  0.4005 -4.1175
 2367SOL     OW 7799   0.725   4.228   2.401 -0.1148 -0.1534  0.3788
 2367SOL    HW1 7800   0.709   4.149   2.349 -0.1538 -0.3801  0.7313
 2367SOL    HW2 7801   0.819   4.244   2.391 -0.4115  0.7951 -1.1475
 2368SOL     OW 7802   3.865   3.503   2.550  0.2511  0.2786 -0.0153
 2368SOL    HW1 7803   3.829   3.496   2.639  0.2102 -1.5692 -0.1469
 2368SOL    HW2 7804   3.954   3.535   2.563  0.3006 -0.1307  0.7081
 2369SOL     OW 7805   6.750   7.334   7.201  0.3044 -0.2052  0.2338
 2369SOL    HW1 7806   6.705   7.251   7.181  1.1536 -1.0651  1.7394
 2369SOL    HW2 7807   6.699   7.400   7.153 -2.0297 -1.2382  1.1039
 2370SOL     OW 7808   4.380   7.590   6.128  0.0174 -0.3668  0.1265
 2370SOL    HW1 7809   4.366   7.608   6.221  1.3006 -0.7243  0.4103
 2370SOL    HW2 7810   4.330   7.511   6.111  0.6884 -0.9521  0.8073
 2371SOL     OW 7811   2.476   6.943   3.659  0.3652 -0.1706 -0.3053
 2371SOL    HW1 7812   2.542   7.006   3.687 -1.1190  0.9737  0.7335
 2371SOL    HW2 7813   2.506   6.859   3.694  0.4076  0.6237  1.6460
 2372SOL     OW 7814   0.144   5.273   3.967  0.0712 -0.4018  0.1515
 2372SOL    HW1 7815   0.160   5.290   3.874  0.4351 -1.5649 -0.0103
 2372SOL    HW2 7816   0.225   5.234   3.999  0.0341  0.2143  1.0257
 2373SOL     OW 7817   0.145   4.329   4.340  0.2493  0.2585 -0.4489
 2373SOL    HW1 7818   0.078   4.303   4.403 -0.2007  0.0986 -0.9839
 2373SOL    HW2 7819   0.097   4.377   4.273  0.4500 -0.9878 -1.5165
 2374SOL     OW 7820   0.074   5.438   5.119  0.6191 -0.0106  0.1299
 2374SOL    HW1 7821   0.107   5.411   5.204 -0.1466 -0.0593  0.4227
 2374SOL    HW2 7822   0.106   5.527   5.108  0.8334 -0.0516  0.4107
 2375SOL     OW 7823   4.999   4.103   6.621 -0.6246 -0.2076  0.5443
 2375SOL    HW1 7824   4.949   4.181   6.645  1.4552  1.4830 -0.2457
 2375SOL    HW2 7825   5.071   4.101   6.685 -0.0719 -0.8492 -0.0870
 2376SOL     OW 7826   3.775   6.867   7.609  0.1313  0.2199 -0.0536
 2376SOL    HW1 7827   3.710   6.800   7.632  1.5945 -1.1098  0.4326
 2376SOL    HW2 7828   3.802   6.844   7.520  0.7580  0.0379  0.1758
 2377SOL     OW 7829   4.038   1.523   3.264  0.0207 -0.0844  0.3336
 2377SOL    HW1 7830   4.037   1.574   3.184  1.3418 -0.3567  0.1185
 2377SOL    HW2 7831   4.109   1.460   3.252 -0.5820 -0.9726  1.2038
 2378SOL     OW 7832   5.934   5.560   4.249 -0.4179  0.5142  0.2921
 2378SOL    HW1 7833   5.985   5.640   4.236  0.5297 -0.1993 -0.5404
 2378SOL    HW2 7834   5.906   5.535   4.161  0.6181 -0.9084  0.3301
 2379SOL     OW 7835   4.046   7.785   7.631 -0.3228  0.3401 -0.4434
 2379SOL    HW1 7836   4.126   7.813   7.675 -0.5304 -0.8349  0.7358
 2379SOL    HW2 7837   4.073   7.760   7.543  0.6939 -0.4650  0.0828
 2380SOL     OW 7838   6.952   6.076   2.985 -0.5991 -0.0418  0.0073
 2380SOL    HW1 7839   7.008   6.077   2.907 -0.7738  2.6206 -0.1926
 2380SOL    HW2 7840   6.892   6.003   2.972  0.7758 -0.9896 -1.2906
 2381SOL     OW 7841   3.592   3.640   5.580 -0.0431 -0.0121 -0.2089
 2381SOL    HW1 7842   3.611   3.617   5.489  0.6448  0.6828 -0.2534
 2381SOL    HW2 7843   3.563   3.731   5.575  0.0518  0.0438  0.2662
 2382SOL     OW 7844   7.563   7.171   7.911  0.4774  0.1494  0.8541
 2382SOL    HW1 7845   7.473   7.193   7.936  0.1234  0.0648 -0.2695
 2382SOL    HW2 7846   7.613   7.250   7.929 -0.3125  1.0958 -0.8142
 2383SOL     OW 7847   3.329   5.166   0.859  0.0596  0.4295  0.0441
 2383SOL    HW1 7848   3.386   5.195   0.788 -0.3606  1.2179  0.0287
 2383SOL    HW2 7849   3.328   5.070   0.851  1.3097  0.4031 -0.0097
 2384SOL     OW 7850   2.849   3.554   0.184 -0.3003  0.1225  0.0730
 2384SOL    HW1 7851   2.793   3.507   0.246 -0.2668 -1.1786 -0.8435
 2384SOL    HW2 7852   2.912   3.489   0.154  1.6013  1.4872  0.8880
 2385SOL     OW 7853   6.902   3.335   4.461 -0.2459  0.5404  0.5996
 2385SOL    HW1 7854   6.955   3.414   4.451 -1.2630  1.2723  0.8205
 2385SOL    HW2 7855   6.922   3.283   4.384  2.1906 -0.0775  1.5529
 2386SOL     OW 7856   6.672   0.906   5.733  0.5386  0.4575 -0.3258
 2386SOL    HW1 7857   6.599   0.919   5.672  0.8692  0.6057 -0.6900
 2386SOL    HW2 7858   6.732   0.847   5.687  0.1987 -0.4531  0.3531
 2387SOL     OW 7859   7.070   7.817   4.527  0.8332  0.1248  0.2095
 2387SOL    HW1 7860   7.053   7.747   4.464  2.3537  0.3895 -0.5466
 2387SOL    HW2 7861   7.147   7.786   4.576  1.4013  1.1605 -0.0006
 2388SOL     OW 7862   3.774   7.564   0.496 -0.2862  0.7896  0.3345
 2388SOL    HW1 7863   3.850   7.610   0.533 -0.6886  0.9918  0.9260
 2388SOL    HW2 7864   3.699   7.615   0.526 -0.9471 -1.5298  3.0340
 2389SOL     OW 7865   6.914   4.670   4.178  0.2371 -0.3955  0.8030
 2389SOL    HW1 7866   7.007   4.694   4.170  0.5033 -1.5216  0.3182
 2389SOL    HW2 7867   6.903   4.598   4.116 -1.1903  0.3372  0.1691
 2390SOL     OW 7868   5.850   3.055   3.034 -0.2813  0.5461 -0.4171
 2390SOL    HW1 7869   5.818   3.082   2.948  0.1946 -1.6955 -1.3674
 2390SOL    HW2 7870   5.790   3.096   3.096  0.2657  3.5107 -1.6461
 2391SOL     OW 7871   3.557   7.037   5.653 -0.2145  0.7913 -0.1655
 2391SOL    HW1 7872   3.474   7.084   5.664 -0.2544  0.3208  2.0459
 2391SOL    HW2 7873   3.599   7.043   5.739  0.7694 -1.3281 -0.4381
 2392SOL     OW 7874   2.869   6.605   0.318  0.1397  0.3120  0.4036
 2392SOL    HW1 7875   2.774   6.607   0.322  0.1562 -0.1504  1.2553
 2392SOL    HW2 7876   2.897   6.592   0.409  1.0706  1.9294  0.3934
 2393SOL     OW 7877   2.762   1.153   2.238 -0.4377 -0.2606 -0.1248
 2393SOL    HW1 7878   2.721   1.067   2.237  0.8715 -0.9142  0.3466
 2393SOL    HW2 7879   2.735   1.192   2.321 -2.6048  0.6236 -1.1537
 2394SOL     OW 7880   4.571   2.963   0.605 -0.0008 -0.4113 -0.0002
 2394SOL    HW1 7881   4.637   2.981   0.673  0.0096 -1.0970  0.1768
 2394SOL    HW2 7882   4.617   2.908   0.542 -0.1711 -0.2190 -0.2916
 2395SOL     OW 7883   1.947   0.564   5.651 -0.0106 -0.0005  0.0026
 2395SOL    HW1 7884   1.960   0.655   5.676 -0.2536 -0.2838  1.1905
 2395SOL    HW2 7885   1.855   0.546   5.669 -0.0366 -0.4053 -0.4895
 2396SOL     OW 7886   2.957   4.945   0.081 -0.0896 -0.1350 -0.0606
 2396SOL    HW1 7887   2.948   4.910   0.170 -0.2592  0.4226  0.1459
 2396SOL    HW2 7888   2.971   4.868   0.026 -0.8485 -0.5634  0.3324
 2397SOL     OW 7889   4.232   0.376   1.058 -0.1327  0.2148  0.3994
 2397SOL    HW1 7890   4.314   0.378   1.107  0.6415 -1.3379 -0.7422
 2397SOL    HW2 7891   4.239   0.446   0.994  0.6702 -0.4472 -0.2423
 2398SOL     OW 7892   0.611   4.405   6.432 -0.2752  0.3614  0.1163
 2398SOL    HW1 7893   0.536   4.432   6.484 -0.3803 -0.4621  0.4136
 2398SOL    HW2 7894   0.667   4.482   6.427 -1.6864  1.3698 -1.1247
 2399SOL     OW 7895   3.745   6.966   7.248  0.3229 -0.1230 -0.2348
 2399SOL    HW1 7896   3.687   7.037   7.274  0.8108  0.3271 -0.3481
 2399SOL    HW2 7897   3.700   6.924   7.175 -0.5334 -0.7036  0.6034
 2400SOL     OW 7898   6.523   1.548   1.288 -0.2930 -0.1661  0.3455
 2400SOL    HW1 7899   6.455   1.585   1.232 -0.3641 -0.6000  0.1403
 2400SOL    HW2 7900   6.550   1.468   1.243 -0.5706 -0.6909  1.0887
 2401SOL     OW 7901   4.583   6.736   2.223  0.3337  0.2475  0.6312
 2401SOL    HW1 7902   4.644   6.724   2.151  0.2447  3.6868 -0.2069
 2401SOL    HW2 7903   4.638   6.763   2.297  0.3745 -2.8196  1.8805
 2402SOL     OW 7904   1.837   6.438   7.618  0.4548  0.2094 -0.4800
 2402SOL    HW1 7905   1.846   6.492   7.697  0.0376  0.7738 -0.8137
 2402SOL    HW2 7906   1.883   6.357   7.640  2.2837  1.1928 -0.4694
 2403SOL     OW 7907   3.904   6.027   0.316 -0.6588 -0.1189  0.1751
 2403SOL    HW1 7908   3.946   6.009   0.401 -0.0517  1.2573  0.1974
 2403SOL    HW2 7909   3.814   5.999   0.328 -0.8343  0.9174  1.6349
 2404SOL     OW 7910   7.162   6.106   4.368 -0.1741 -0.0820 -0.4337
 2404SOL    HW1 7911   7.148   6.144   4.454  0.9238 -1.3330  0.3349
 2404SOL    HW2 7912   7.079   6.119   4.322 -0.5097  1.2989  0.5189
 2405SOL     OW 7913   2.767   5.768   6.069 -0.0792  0.1774 -0.2234
 2405SOL    HW1 7914   2.828   5.697   6.090  0.5676  0.9995  0.7338
 2405SOL    HW2 7915   2.756   5.762   5.974  1.2871 -0.1490 -0.3786
 2406SOL     OW 7916   1.483   2.583   0.029 -0.7925  0.0159  0.1451
 2406SOL    HW1 7917   1.440   2.499   0.010  0.0970 -0.8547  1.7636
 2406SOL    HW2 7918   1.467   2.597   0.122 -0.7747  1.5805 -0.0634
 2407SOL     OW 7919   7.717   6.167   5.964  0.3721  0.3866 -0.0146
 2407SOL    HW1 7920   7.797   6.131   5.925 -1.5001  0.1198 -4.1500
 2407SOL    HW2 7921   7.718   6.260   5.940 -0.0560  0.6392  0.8901
 2408SOL     OW 7922   3.727   5.479   4.252 -0.2374  0.9954  0.1206
 2408SOL    HW1 7923   3.665   5.492   4.324 -0.3201  1.1346  0.0261
 2408SOL    HW2 7924   3.812   5.504   4.289  0.0963 -1.0052  0.8368
 2409SOL     OW 7925   0.062   5.975   5.221 -0.4711  0.1056  0.0711
 2409SOL    HW1 7926   0.024   5.901   5.268  2.5452 -1.1729  0.7444
 2409SOL    HW2 7927   0.045   5.956   5.129 -0.4413 -1.0223  0.2831
 2410SOL     OW 7928   5.373   7.024   7.566  0.1823 -0.3603  0.4939
 2410SOL    HW1 7929   5.323   6.992   7.642 -0.7612 -0.8504 -0.3187
 2410SOL    HW2 7930   5.347   6.966   7.494  0.1622  0.8381 -0.4883
 2411SOL     OW 7931   2.490   4.994   4.786 -0.2013  0.3929  0.0633
 2411SOL    HW1 7932   2.431   4.921   4.770 -1.2111  1.6976 -2.7159
 2411SOL    HW2 7933   2.571   4.953   4.816 -1.2203 -1.7113  0.0982
 2412SOL     OW 7934   7.482   2.417   4.623 -0.5989  0.2251  0.3996
 2412SOL    HW1 7935   7.469   2.362   4.546 -1.7538 -0.7981  1.2858
 2412SOL    HW2 7936   7.547   2.370   4.675 -0.7097  0.3039  0.6092
 2413SOL     OW 7937   5.992   5.423   7.184 -0.0638 -0.0575  0.2832
 2413SOL    HW1 7938   5.960   5.490   7.245  0.8950 -1.1544  2.0730
 2413SOL    HW2 7939   5.953   5.447   7.100  0.4685  2.9203  0.7752
 2414SOL     OW 7940   5.295   1.729   2.592  0.2329  0.0357  0.0844
 2414SOL    HW1 7941   5.227   1.746   2.527 -1.7764 -0.1334  2.0305
 2414SOL    HW2 7942   5.310   1.635   2.587  0.8294  0.1628 -0.7832
 2415SOL     OW 7943   2.691   0.798   3.549 -0.3406 -0.4165  0.3231
 2415SOL    HW1 7944   2.773   0.817   3.595 -0.8291  0.1054  0.9753
 2415SOL    HW2 7945   2.712   0.721   3.495  1.2232  1.0026 -1.2248
 2416SOL     OW 7946   0.740   7.143   3.965  0.2841  0.4330  0.4315
 2416SOL    HW1 7947   0.714   7.215   3.908  2.0224  1.0611  0.3564
 2416SOL    HW2 7948   0.755   7.185   4.050  3.1039  0.5825 -0.0497
 2417SOL     OW 7949   0.410   0.909   6.505 -0.3595 -1.2466 -0.2393
 2417SOL    HW1 7950   0.398   0.815   6.491 -0.6493 -1.6025  2.0207
 2417SOL    HW2 7951   0.325   0.947   6.481 -0.2248 -1.5246 -1.2177
 2418SOL     OW 7952   5.420   1.281   2.450  0.0895 -0.0796 -0.0090
 2418SOL    HW1 7953   5.432   1.226   2.373 -0.9490 -0.0072 -0.2368
 2418SOL    HW2 7954   5.369   1.227   2.510 -0.6184  0.4810 -0.0903
 2419SOL     OW 7955   7.519   2.650   6.153  0.4286 -0.0797 -0.1121
 2419SOL    HW1 7956   7.482   2.728   6.195  0.7723 -0.3161  0.6462
 2419SOL    HW2 7957   7.464   2.636   6.076  0.0714  0.6342  0.0068
 2420SOL     OW 7958   4.713   4.204   0.499  0.1720 -0.2476 -0.3599
 2420SOL    HW1 7959   4.648   4.248   0.444  0.2137  0.1822 -0.0701
 2420SOL    HW2 7960   4.794   4.253   0.483  0.8355 -1.7588 -1.9554
 2421SOL     OW 7961   2.123   4.982   2.233  0.1390 -0.7445 -0.3258
 2421SOL    HW1 7962   2.079   4.996   2.318  0.5902 -0.2387 -0.1758
 2421SOL    HW2 7963   2.052   4.988   2.169  0.2262  2.1503 -0.2878
 2422SOL     OW 7964   2.652   0.071   6.795  0.4703  0.1226  0.3351
 2422SOL    HW1 7965   2.618   0.062   6.884  1.3797  1.7826  0.8875
 2422SOL    HW2 7966   2.747   0.080   6.806  0.5315  1.0396 -0.7146
 2423SOL     OW 7967   2.356   0.141   7.770  0.4167 -0.3126  0.6366
 2423SOL    HW1 7968   2.389   0.216   7.820  0.4112 -0.3973  0.7678
 2423SOL    HW2 7969   2.400   0.066   7.809  1.6735 -0.2287 -0.5452
 2424SOL     OW 7970   6.372   3.355   4.775  0.1968 -0.1922  0.1754
 2424SOL    HW1 7971   6.430   3.430   4.768 -1.0100  0.7539  0.0127
 2424SOL    HW2 7972   6.413   3.288   4.721  1.6667  0.0776  0.8878
 2425SOL     OW 7973   1.432   4.234   3.588 -0.0608  0.1384 -0.4041
 2425SOL    HW1 7974   1.437   4.149   3.633 -2.1565  0.1696 -0.0100
 2425SOL    HW2 7975   1.443   4.213   3.495  2.2758 -0.1796 -0.0924
 2426SOL     OW 7976   6.074   4.568   7.748  0.1516 -0.1820  0.0204
 2426SOL    HW1 7977   6.098   4.595   7.659  0.1275  0.1769  0.1193
 2426SOL    HW2 7978   6.157   4.539   7.787  0.5511  1.4821  0.5111
 2427SOL     OW 7979   3.823   5.969   1.591 -0.3485 -0.0713 -0.2485
 2427SOL    HW1 7980   3.768   5.894   1.617 -0.4431 -0.0744 -0.4564
 2427SOL    HW2 7981   3.771   6.046   1.613  0.5220 -0.0066  1.7478
 2428SOL     OW 7982   5.982   1.595   4.928 -0.2075 -0.4832  0.2111
 2428SOL    HW1 7983   6.076   1.589   4.910 -0.1829 -0.8917  0.4627
 2428SOL    HW2 7984   5.966   1.688   4.945  0.1087 -0.3804 -0.0653
 2429SOL     OW 7985   7.578   7.131   2.533 -0.1746 -0.0317  0.2566
 2429SOL    HW1 7986   7.610   7.167   2.615  0.5631 -1.1756  0.4889
 2429SOL    HW2 7987   7.494   7.092   2.555 -0.2323  0.1404  0.3449
 2430SOL     OW 7988   6.801   6.655   7.785  0.6480 -0.0397  0.2379
 2430SOL    HW1 7989   6.862   6.714   7.828 -1.8702  1.1780  2.3869
 2430SOL    HW2 7990   6.754   6.612   7.856 -0.7506 -1.2402 -1.3127
 2431SOL     OW 7991   7.774   4.421   6.476 -0.5020  0.3346  0.3308
 2431SOL    HW1 7992   7.829   4.375   6.539 -0.8299 -0.0346  0.3534
 2431SOL    HW2 7993   7.688   4.381   6.487 -0.4438 -0.1076 -0.7182
 2432SOL     OW 7994   2.142   2.149   3.147 -0.1507 -0.0796 -0.5611
 2432SOL    HW1 7995   2.168   2.215   3.082  0.4193  0.5363  0.2695
 2432SOL    HW2 7996   2.222   2.100   3.164 -0.3423 -0.3576 -0.4649
 2433SOL     OW 7997   6.376   3.789   2.874 -0.0725 -0.3115 -0.0511
 2433SOL    HW1 7998   6.407   3.776   2.784 -1.2346  0.5855 -0.6021
 2433SOL    HW2 7999   6.286   3.820   2.864  0.4746  1.9445  1.3465
 2434SOL     OW 8000   5.048   0.820   3.816  0.4263  0.2049  0.3055
 2434SOL    HW1 8001   5.079   0.733   3.840  2.1758  0.8149  0.3812
 2434SOL    HW2 8002   5.116   0.879   3.846  0.4774  1.4074 -1.9417
 2435SOL     OW 8003   7.569   0.830   3.988  0.6147 -0.3715 -0.3256
 2435SOL    HW1 8004   7.481   0.858   4.014  1.0512  0.2022  0.5674
 2435SOL    HW2 8005   7.573   0.737   4.012  0.7806 -0.0165  1.0709
 2436SOL     OW 8006   3.365   0.821   5.448 -0.4691 -0.4099 -0.6558
 2436SOL    HW1 8007   3.275   0.850   5.431 -0.1070  0.3014 -1.4206
 2436SOL    HW2 8008   3.379   0.750   5.386 -0.1301  0.2500 -1.3586
 2437SOL     OW 8009   6.786   3.783   7.637 -0.0734 -0.2078 -0.2581
 2437SOL    HW1 8010   6.743   3.720   7.694  0.3388 -0.1495  0.1269
 2437SOL    HW2 8011   6.719   3.811   7.575 -0.9441  0.8431  1.1105
 2438SOL     OW 8012   2.002   2.161   4.306 -0.1988 -0.0070 -0.2521
 2438SOL    HW1 8013   1.980   2.074   4.340  2.9563  0.5459  4.0031
 2438SOL    HW2 8014   2.082   2.147   4.255 -1.1770  0.1336 -1.8844
 2439SOL     OW 8015   2.842   1.291   5.414  0.5282 -0.1106  0.1737
 2439SOL    HW1 8016   2.747   1.297   5.412  0.3778 -1.5928  1.2926
 2439SOL    HW2 8017   2.872   1.382   5.406 -0.9228  0.2867 -1.1398
 2440SOL     OW 8018   2.448   4.157   0.315 -0.2613  0.3173 -0.1230
 2440SOL    HW1 8019   2.437   4.064   0.335  2.2466 -0.0122  0.0261
 2440SOL    HW2 8020   2.392   4.172   0.239 -0.3320 -1.4260 -0.4512
 2441SOL     OW 8021   3.598   2.119   7.298  0.6346  0.0385  0.2165
 2441SOL    HW1 8022   3.505   2.132   7.316  1.1349 -0.0516  3.3037
 2441SOL    HW2 8023   3.600   2.046   7.235 -1.3503 -0.2289  0.4027
 2442SOL     OW 8024   2.174   2.740   7.653  0.8349  0.0296  0.2085
 2442SOL    HW1 8025   2.265   2.737   7.624  0.9530 -1.3302  0.6521
 2442SOL    HW2 8026   2.178   2.723   7.747  0.2753  2.1740  0.6844
 2443SOL     OW 8027   5.397   0.296   1.761  0.0561  0.1084  0.7559
 2443SOL    HW1 8028   5.375   0.358   1.691  0.3151 -0.5358  0.1018
 2443SOL    HW2 8029   5.412   0.213   1.717  1.1554 -0.1001  1.4638
 2444SOL     OW 8030   7.761   6.980   2.837  0.0521 -0.1694  0.1115
 2444SOL    HW1 8031   7.787   6.985   2.929  0.4383 -0.0849 -0.0029
 2444SOL    HW2 8032   7.681   7.033   2.832 -0.3457 -0.7124  0.5283
 2445SOL     OW 8033   2.318   1.358   0.059 -0.1515 -0.0121  0.3228
 2445SOL    HW1 8034   2.374   1.317  -0.007  0.5973 -0.6686  1.3315
 2445SOL    HW2 8035   2.341   1.314   0.140 -1.3511  0.4956  0.9587
 2446SOL     OW 8036   0.547   7.551   1.613 -0.0600 -0.5581 -0.0825
 2446SOL    HW1 8037   0.569   7.551   1.520 -2.8143 -2.0848 -0.8342
 2446SOL    HW2 8038   0.576   7.465   1.644 -1.0225 -0.8786 -0.0544
 2447SOL     OW 8039   5.154   7.735   7.882  0.2379 -0.2650  0.0067
 2447SOL    HW1 8040   5.222   7.761   7.820 -1.1639  0.5770 -1.2202
 2447SOL    HW2 8041   5.092   7.683   7.831 -1.7975  1.7881  0.2335
 2448SOL     OW 8042   6.911   2.661   4.810 -0.3630  0.0989 -0.0949
 2448SOL    HW1 8043   7.007   2.657   4.814 -0.4304 -1.9840  1.9489
 2448SOL    HW2 8044   6.882   2.587   4.864 -3.1489  2.4079  1.8823
 2449SOL     OW 8045   6.193   0.443   2.336  0.1429  0.2776 -0.0759
 2449SOL    HW1 8046   6.100   0.441   2.313  0.0609  0.1326  0.2649
 2449SOL    HW2 8047   6.195   0.484   2.423  0.3286 -0.4122  0.2492
 2450SOL     OW 8048   1.458   0.173   7.206 -0.4932  0.3057  0.0049
 2450SOL    HW1 8049   1.524   0.211   7.147 -0.3038  1.0478  0.6757
 2450SOL    HW2 8050   1.449   0.083   7.176  0.1302  0.4627 -0.7026
 2451SOL     OW 8051   6.744   7.037   7.113 -0.2915  0.4247 -0.0590
 2451SOL    HW1 8052   6.678   7.057   7.047 -0.6835 -2.1466 -0.5601
 2451SOL    HW2 8053   6.694   7.010   7.190  0.1845  1.0868  0.4939
 2452SOL     OW 8054   7.288   0.180   4.522 -0.1999  0.0063 -0.6339
 2452SOL    HW1 8055   7.306   0.265   4.482 -0.8476 -0.0514 -1.0568
 2452SOL    HW2 8056   7.209   0.149   4.478 -1.0529  0.0201  0.7953
 2453SOL     OW 8057   1.366   6.506   2.731 -0.4772  0.3355  1.0357
 2453SOL    HW1 8058   1.412   6.432   2.772  0.6166 -0.1141 -0.8620
 2453SOL    HW2 8059   1.276   6.498   2.761 -0.2619 -1.4590  1.3172
 2454SOL     OW 8060   2.979   4.425   3.786  0.4877 -0.6290  0.9362
 2454SOL    HW1 8061   2.952   4.438   3.877 -0.4189  0.2079  0.5707
 2454SOL    HW2 8062   3.035   4.501   3.766  0.0801 -0.4168  0.5797
 2455SOL     OW 8063   1.242   6.205   5.389  0.3061 -0.3100  0.2805
 2455SOL    HW1 8064   1.282   6.118   5.387  0.2830 -0.3195 -1.5907
 2455SOL    HW2 8065   1.161   6.196   5.339 -1.0797  0.2006  2.3128
 2456SOL     OW 8066   6.124   6.361   5.502  0.0568  0.1260 -0.1836
 2456SOL    HW1 8067   6.164   6.285   5.544 -1.6766 -1.8058 -1.8031
 2456SOL    HW2 8068   6.158   6.359   5.412  1.2999  2.3314  0.1661
 2457SOL     OW 8069   0.663   4.523   1.902 -0.0632  0.2304 -0.5887
 2457SOL    HW1 8070   0.721   4.568   1.964  0.8539 -0.6480 -0.7971
 2457SOL    HW2 8071   0.630   4.448   1.950 -0.9270  0.6430 -0.5222
 2458SOL     OW 8072   1.860   5.652   3.477  0.3079 -0.3397 -0.2278
 2458SOL    HW1 8073   1.784   5.639   3.421 -0.8176  0.1110  1.1274
 2458SOL    HW2 8074   1.933   5.613   3.429 -0.8477 -1.1420 -1.3796
 2459SOL     OW 8075   4.380   2.620   4.879 -0.0938  0.7132 -0.3150
 2459SOL    HW1 8076   4.461   2.640   4.833 -1.1868  1.0625 -2.2046
 2459SOL    HW2 8077   4.398   2.641   4.971  2.1744 -0.0209 -0.5485
 2460SOL     OW 8078   3.009   6.502   3.669  0.0333 -0.5520  0.0425
 2460SOL    HW1 8079   2.958   6.458   3.736 -0.5920 -2.2983 -1.4988
 2460SOL    HW2 8080   2.951   6.506   3.593  1.5058 -0.8704 -1.1569
 2461SOL     OW 8081   6.778   7.701   0.599 -0.1013  0.1368  0.0438
 2461SOL    HW1 8082   6.715   7.631   0.582  1.3281 -0.9108 -1.1831
 2461SOL    HW2 8083   6.822   7.675   0.680 -1.4727  1.1084  1.1714
 2462SOL     OW 8084   4.893   4.939   5.825 -0.4149 -0.3767  0.2312
 2462SOL    HW1 8085   4.806   4.931   5.865 -0.8534  1.2613 -0.2832
 2462SOL    HW2 8086   4.880   4.912   5.734 -0.0037 -1.6649  0.5457
 2463SOL     OW 8087   4.961   7.317   3.170 -0.1784 -0.0669 -0.0137
 2463SOL    HW1 8088   4.929   7.396   3.213 -0.1871  0.4284 -0.9105
 2463SOL    HW2 8089   4.926   7.245   3.224 -0.4617  0.5213  0.6099
 2464SOL     OW 8090   7.461   0.179   3.575 -0.1188 -0.3984 -0.2604
 2464SOL    HW1 8091   7.462   0.191   3.669 -0.6656 -2.5266  0.0744
 2464SOL    HW2 8092   7.423   0.092   3.562  2.4808 -1.3902 -2.3019
 2465SOL     OW 8093   1.221   5.368   5.888 -0.2499  0.0647  0.7172
 2465SOL    HW1 8094   1.254   5.392   5.975 -1.6707 -0.9594  1.5835
 2465SOL    HW2 8095   1.180   5.282   5.901 -0.5090 -0.0920 -0.9641
 2466SOL     OW 8096   7.230   2.853   5.285 -0.0258  0.5973  0.2521
 2466SOL    HW1 8097   7.178   2.775   5.302 -0.3519  0.6370 -0.5329
 2466SOL    HW2 8098   7.182   2.924   5.329 -0.7421  0.6645 -0.6300
 2467SOL     OW 8099   3.165   4.210   0.436  0.1768  0.2123 -0.0695
 2467SOL    HW1 8100   3.123   4.269   0.498 -0.4149 -1.0607  0.7716
 2467SOL    HW2 8101   3.244   4.179   0.481  0.6112  0.5265 -0.5984
 2468SOL     OW 8102   4.112   4.315   2.225  0.1632  0.6818 -0.3742
 2468SOL    HW1 8103   4.145   4.343   2.140  0.8470  0.9784 -0.0144
 2468SOL    HW2 8104   4.164   4.238   2.247 -0.7079 -0.0159 -0.6827
 2469SOL     OW 8105   3.153   5.144   3.579 -0.0390  0.5507 -0.6842
 2469SOL    HW1 8106   3.115   5.222   3.619  2.1989  1.8418 -0.8703
 2469SOL    HW2 8107   3.122   5.146   3.488 -1.7028 -0.0248 -0.1682
 2470SOL     OW 8108   7.822   3.140   7.809 -0.0047  0.2422  0.3061
 2470SOL    HW1 8109   7.834   3.165   7.901  2.6098 -1.6259  0.5982
 2470SOL    HW2 8110   7.788   3.050   7.814  0.6579 -0.0636 -0.5232
 2471SOL     OW 8111   0.366   5.134   2.144  0.1946 -0.2048  0.3994
 2471SOL    HW1 8112   0.426   5.131   2.070 -1.3622  0.7587 -0.9850
 2471SOL    HW2 8113   0.354   5.227   2.161  1.5282 -0.3945  2.7865
 2472SOL     OW 8114   4.694   1.133   5.284 -0.6771  0.2691  0.4678
 2472SOL    HW1 8115   4.626   1.102   5.345 -1.3545 -1.1406 -0.9382
 2472SOL    HW2 8116   4.693   1.069   5.213  3.2883 -0.7495  1.1174
 2473SOL     OW 8117   1.366   6.436   5.320 -0.6153 -0.2431 -0.0665
 2473SOL    HW1 8118   1.303   6.489   5.368 -0.1739 -0.3892  0.6806
 2473SOL    HW2 8119   1.342   6.345   5.341  0.4897 -0.2897  1.0917
 2474SOL     OW 8120   3.368   4.409   5.497 -0.0429  0.2977  0.0892
 2474SOL    HW1 8121   3.401   4.469   5.565 -1.8566  0.6223  0.7569
 2474SOL    HW2 8122   3.282   4.383   5.529  0.2981 -1.9643 -0.6631
 2475SOL     OW 8123   5.400   2.509   5.024 -0.5324  0.1577  0.6748
 2475SOL    HW1 8124   5.379   2.600   5.046 -1.7147 -0.3855  1.9588
 2475SOL    HW2 8125   5.465   2.483   5.089 -2.0044 -0.6176  1.9060
 2476SOL     OW 8126   4.389   5.325   6.276 -0.5107  0.2143 -0.0167
 2476SOL    HW1 8127   4.428   5.250   6.322 -0.6070  0.0845 -0.1458
 2476SOL    HW2 8128   4.389   5.299   6.184 -0.2402  0.5089 -0.1013
 2477SOL     OW 8129   7.850   3.882   0.592 -0.1243  0.5348  0.0288
 2477SOL    HW1 8130   7.764   3.855   0.624  0.0081  1.3045  1.1006
 2477SOL    HW2 8131   7.849   3.861   0.499 -1.9358  1.6403 -0.2508
 2478SOL     OW 8132   4.828   0.518   6.961 -0.0571 -0.3561 -0.4167
 2478SOL    HW1 8133   4.893   0.586   6.979 -1.5299  1.2809 -0.9668
 2478SOL    HW2 8134   4.786   0.502   7.045  1.2430 -1.6887  0.0200
 2479SOL     OW 8135   5.996   2.428   5.330 -0.2506  0.1904  0.1077
 2479SOL    HW1 8136   5.991   2.510   5.281  2.6470 -0.4028 -1.4133
 2479SOL    HW2 8137   6.067   2.441   5.392 -2.6420  0.2537  3.1117
 2480SOL     OW 8138   5.476   6.216   1.987 -0.4966  0.0299  0.2611
 2480SOL    HW1 8139   5.547   6.178   2.038  0.8534  0.1673 -1.4202
 2480SOL    HW2 8140   5.464   6.304   2.024 -0.3602 -0.2827  1.0658
 2481SOL     OW 8141   7.147   7.373   1.510  0.0385 -0.1853 -0.2428
 2481SOL    HW1 8142   7.201   7.424   1.450 -0.7903  0.3838 -0.5380
 2481SOL    HW2 8143   7.076   7.339   1.455 -1.0116  0.7486  0.4550
 2482SOL     OW 8144   4.201   7.478   1.799  0.4487 -0.5946 -0.0310
 2482SOL    HW1 8145   4.246   7.394   1.790  0.2925 -0.6384 -0.4169
 2482SOL    HW2 8146   4.116   7.456   1.838 -0.7390 -0.9965 -2.5809
 2483SOL     OW 8147   1.674   2.604   3.648  0.1426  0.3228  0.1936
 2483SOL    HW1 8148   1.704   2.526   3.600  0.8424  0.0425  1.0646
 2483SOL    HW2 8149   1.612   2.645   3.589 -0.3728 -0.9913 -0.2280
 2484SOL     OW 8150   2.842   1.751   7.424 -0.4378  0.2129 -0.4971
 2484SOL    HW1 8151   2.817   1.688   7.492 -0.2871 -0.6196 -1.1898
 2484SOL    HW2 8152   2.759   1.791   7.397 -0.4438  0.8942  0.4899
 2485SOL     OW 8153   7.467   3.770   7.353 -0.0403  0.5142  0.2274
 2485SOL    HW1 8154   7.523   3.759   7.276  1.4875 -0.3382  1.4014
 2485SOL    HW2 8155   7.432   3.859   7.345  0.0041  0.4123 -1.4752
 2486SOL     OW 8156   3.419   3.367   1.090  0.8767 -0.0451 -0.4291
 2486SOL    HW1 8157   3.362   3.291   1.097  1.6572 -0.5620  0.5631
 2486SOL    HW2 8158   3.504   3.336   1.123  0.6489  1.8512  2.2783
 2487SOL     OW 8159   3.829   0.142   7.552  0.0276 -0.2930  0.4388
 2487SOL    HW1 8160   3.793   0.096   7.627 -0.0619 -0.2058  0.4491
 2487SOL    HW2 8161   3.828   0.235   7.577  1.1232 -0.3682  0.8105
 2488SOL     OW 8162   7.286   1.159   7.566  0.4021 -0.3282 -0.1343
 2488SOL    HW1 8163   7.307   1.082   7.513 -1.0037  0.0974 -1.3842
 2488SOL    HW2 8164   7.370   1.205   7.575  0.5914  0.0340 -2.8191
 2489SOL     OW 8165   5.106   0.786   0.452  0.2941  0.1637  0.3590
 2489SOL    HW1 8166   5.076   0.702   0.486  1.4019 -0.2835  0.2852
 2489SOL    HW2 8167   5.083   0.849   0.521  0.9439 -0.4699  1.1772
 2490SOL     OW 8168   3.794   0.057   5.335 -0.0018 -0.2883 -0.2568
 2490SOL    HW1 8169   3.763   0.107   5.258  0.4520 -1.8644 -1.5114
 2490SOL    HW2 8170   3.881   0.092   5.352 -0.2797  0.3816 -0.1724
 2491SOL     OW 8171   5.873   2.921   5.454  0.2126 -0.1453 -0.0687
 2491SOL    HW1 8172   5.897   2.841   5.502  1.7893 -0.1451 -0.7895
 2491SOL    HW2 8173   5.788   2.946   5.490 -0.5625 -2.4146 -0.1565
 2492SOL     OW 8174   2.410   4.370   0.446 -0.0735 -0.1830 -0.3637
 2492SOL    HW1 8175   2.410   4.289   0.394 -0.4732 -1.0612  0.9553
 2492SOL    HW2 8176   2.502   4.382   0.471 -0.2517 -1.1813  0.8374
 2493SOL     OW 8177   2.931   3.801   0.129  0.0205  0.0163 -0.2390
 2493SOL    HW1 8178   2.863   3.867   0.148  0.4484 -0.2035  2.5723
 2493SOL    HW2 8179   2.889   3.718   0.150  0.4743 -0.3366 -0.7112
 2494SOL     OW 8180   3.767   7.944   2.773  0.4546  0.3907 -0.1208
 2494SOL    HW1 8181   3.844   7.909   2.819 -1.1947 -0.5900  2.0283
 2494SOL    HW2 8182   3.718   7.991   2.840 -0.8554  1.0170 -1.4579
 2495SOL     OW 8183   3.596   4.375   7.562  0.3101 -0.0496 -0.1099
 2495SOL    HW1 8184   3.533   4.313   7.525 -0.3482  0.8773 -0.6091
 2495SOL    HW2 8185   3.565   4.390   7.651 -2.2503  2.8713 -1.2877
 2496SOL     OW 8186   4.004   5.959   5.220 -0.3534 -0.2057 -0.4927
 2496SOL    HW1 8187   4.016   6.050   5.195  0.2847  0.3660  1.6674
 2496SOL    HW2 8188   4.078   5.940   5.279  1.7427 -3.3031 -3.6763
 2497SOL     OW 8189   5.388   1.994   6.217  0.3651  0.5514 -0.4793
 2497SOL    HW1 8190   5.402   1.989   6.311  1.5343 -3.1317 -0.6553
 2497SOL    HW2 8191   5.297   1.968   6.205  0.5425 -0.1826 -0.3452
 2498SOL     OW 8192   6.479   3.607   4.951  0.3108  0.5321 -0.9224
 2498SOL    HW1 8193   6.558   3.570   4.911  0.0924  0.4030 -1.2427
 2498SOL    HW2 8194   6.508   3.644   5.034  0.4489 -0.8674 -0.3155
 2499SOL     OW 8195   0.300   3.702   6.309 -0.9082 -0.0656 -0.5238
 2499SOL    HW1 8196   0.270   3.731   6.224 -2.4237 -2.1370 -0.7763
 2499SOL    HW2 8197   0.251   3.622   6.326  0.5708 -0.6320  1.5531
 2500SOL     OW 8198   7.936   0.160   0.366 -0.1417  0.3760 -0.1125
 2500SOL    HW1 8199   7.880   0.238   0.369  0.4092  0.7595  0.9677
 2500SOL    HW2 8200   7.890   0.095   0.420 -0.0978  0.3013 -0.1646
 2501SOL     OW 8201   5.006   0.523   2.347  0.2674 -0.1678 -0.0590
 2501SOL    HW1 8202   4.948   0.571   2.406  0.7508  0.9066 -0.4128
 2501SOL    HW2 8203   5.094   0.554   2.371  0.3473  3.0047 -3.4812
 2502SOL     OW 8204   7.240   2.954   7.142 -0.1591  0.6034  0.1959
 2502SOL    HW1 8205   7.274   2.972   7.230 -0.8732 -0.4694  0.7136
 2502SOL    HW2 8206   7.145   2.958   7.152 -0.2902 -1.0562 -0.1595
 2503SOL     OW 8207   1.783   2.078   3.064  0.2476 -0.1647  0.4037
 2503SOL    HW1 8208   1.846   2.031   3.119  0.1292 -1.2964 -0.4010
 2503SOL    HW2 8209   1.802   2.049   2.975  0.4665  1.6772 -0.2027
 2504SOL     OW 8210   2.058   7.132   0.646  0.3528  0.0397 -0.0882
 2504SOL    HW1 8211   2.080   7.198   0.581  0.7113 -0.0300 -0.0406
 2504SOL    HW2 8212   2.075   7.174   0.730  0.8436 -0.2000 -0.0637
 2505SOL     OW 8213   2.031   3.392   7.560 -0.1910  0.2867  0.0134
 2505SOL    HW1 8214   2.085   3.324   7.600  2.7683  3.3182  1.6520
 2505SOL    HW2 8215   2.018   3.457   7.629  0.3672  3.1313 -2.3221
 2506SOL     OW 8216   1.204   7.221   3.471 -0.6102  0.1531 -0.2581
 2506SOL    HW1 8217   1.205   7.242   3.378  0.2151  0.2866 -0.2297
 2506SOL    HW2 8218   1.152   7.141   3.477  0.5429 -0.6813 -1.0320
 2507SOL     OW 8219   7.056   1.084   1.122  0.3904  0.0872  1.2814
 2507SOL    HW1 8220   7.149   1.104   1.134  0.3889  1.1866 -0.2907
 2507SOL    HW2 8221   7.038   1.109   1.031 -1.2849 -0.7615  1.3527
 2508SOL     OW 8222   3.834   3.424   0.695  0.0560 -0.8174  0.3586
 2508SOL    HW1 8223   3.801   3.482   0.626  0.7798 -0.9250 -0.0847
 2508SOL    HW2 8224   3.778   3.443   0.771 -1.6787 -1.7278 -0.6430
 2509SOL     OW 8225   2.234   0.122   6.748  0.1138  0.4313 -0.3894
 2509SOL    HW1 8226   2.279   0.197   6.785 -1.1597  0.8345  0.4274
 2509SOL    HW2 8227   2.141   0.137   6.767 -0.2427 -1.0231 -0.7790
 2510SOL     OW 8228   7.909   4.500   5.393  0.1647 -0.3842 -0.2919
 2510SOL    HW1 8229   7.888   4.586   5.429 -0.0305 -0.7505  0.4915
 2510SOL    HW2 8230   7.995   4.479   5.430 -0.8797 -1.6153  1.6053
 2511SOL     OW 8231   2.867   6.371   1.835 -0.2125  0.2551 -0.2634
 2511SOL    HW1 8232   2.784   6.385   1.881  0.2262 -0.8455  0.9120
 2511SOL    HW2 8233   2.879   6.276   1.837  2.1556  0.5102  1.5825
 2512SOL     OW 8234   0.220   0.274   0.365 -0.4508 -0.0832 -0.0503
 2512SOL    HW1 8235   0.134   0.232   0.372 -1.0484  1.2297  0.9229
 2512SOL    HW2 8236   0.256   0.270   0.453  0.2886 -0.2236 -0.3579
 2513SOL     OW 8237   2.365   2.183   6.100  0.1576 -0.1402  0.0222
 2513SOL    HW1 8238   2.370   2.221   6.012 -1.7234 -1.3999 -0.6913
 2513SOL    HW2 8239   2.367   2.258   6.159 -1.0146  0.9210 -1.2225
 2514SOL     OW 8240   4.455   3.729   2.308 -0.1572 -0.2854 -0.8019
 2514SOL    HW1 8241   4.492   3.652   2.352 -0.0736 -1.0629 -2.1838
 2514SOL    HW2 8242   4.410   3.694   2.231 -2.5715  0.7699  0.0074
 2515SOL     OW 8243   2.880   7.564   2.127  0.2392 -0.2821 -0.5232
 2515SOL    HW1 8244   2.842   7.540   2.212  0.2357 -3.4311 -1.2954
 2515SOL    HW2 8245   2.937   7.638   2.147 -1.0393  0.1633  1.9068
 2516SOL     OW 8246   5.983   3.431   1.124  0.7491  0.2557 -0.7049
 2516SOL    HW1 8247   6.001   3.509   1.070 -0.9686  0.7595 -0.6016
 2516SOL    HW2 8248   6.035   3.362   1.084  2.9308  1.5889 -0.3560
 2517SOL     OW 8249   4.688   2.793   5.158  0.3216  0.5019 -0.3466
 2517SOL    HW1 8250   4.606   2.744   5.164  0.7174 -0.7019 -3.2570
 2517SOL    HW2 8251   4.668   2.877   5.201 -1.2462 -1.0604  2.2600
 2518SOL     OW 8252   4.254   2.622   7.548  0.2216 -0.5418  0.5121
 2518SOL    HW1 8253   4.214   2.669   7.621  1.2081 -0.1910  0.8523
 2518SOL    HW2 8254   4.348   2.639   7.558  0.3730 -0.4396 -0.8808
 2519SOL     OW 8255   5.529   5.295   1.459  0.0937 -0.1080  0.2291
 2519SOL    HW1 8256   5.479   5.374   1.479  1.0885  0.6977 -0.3501
 2519SOL    HW2 8257   5.596   5.291   1.527 -2.2377 -2.6715  2.6555
 2520SOL     OW 8258   4.434   5.766   0.565 -0.7404 -0.1562  0.2791
 2520SOL    HW1 8259   4.494   5.839   0.580 -0.5263 -0.8034  3.1584
 2520SOL    HW2 8260   4.492   5.691   0.550 -0.9027 -0.1980 -0.1366
 2521SOL     OW 8261   2.056   2.721   1.545 -0.1211 -0.1292 -0.0161
 2521SOL    HW1 8262   2.078   2.801   1.593 -0.9389 -0.3912  0.8255
 2521SOL    HW2 8263   1.982   2.684   1.592 -0.3721 -0.8861 -0.9619
 2522SOL     OW 8264   0.439   6.634   4.755  0.3628 -0.5135 -0.0228
 2522SOL    HW1 8265   0.386   6.636   4.675 -0.1449  1.8615  0.2947
 2522SOL    HW2 8266   0.496   6.557   4.745 -0.4271 -0.8747 -2.1607
 2523SOL     OW 8267   0.345   3.835   0.646  0.0784 -0.2339 -0.0513
 2523SOL    HW1 8268   0.299   3.754   0.666  1.3292 -0.7267  0.9801
 2523SOL    HW2 8269   0.277   3.902   0.645 -0.8749 -1.1747 -0.2223
 2524SOL     OW 8270   3.616   1.748   4.367 -0.1108 -0.2754 -0.0656
 2524SOL    HW1 8271   3.627   1.734   4.273  1.1383  0.7397 -0.0964
 2524SOL    HW2 8272   3.523   1.731   4.383 -0.0711 -1.8021 -1.2289
 2525SOL     OW 8273   7.205   1.256   5.257 -0.1449 -0.2053 -0.2853
 2525SOL    HW1 8274   7.188   1.347   5.279 -1.4412  0.0693 -2.1549
 2525SOL    HW2 8275   7.143   1.206   5.312  1.0246 -0.0606  1.2265
 2526SOL     OW 8276   2.908   3.669   1.657 -0.4386 -0.2827  0.0997
 2526SOL    HW1 8277   2.858   3.589   1.673 -1.4055 -0.3333 -2.5500
 2526SOL    HW2 8278   2.999   3.640   1.656 -0.5507 -0.7888  1.9588
 2527SOL     OW 8279   5.273   7.716   3.557  0.4002  0.0570 -0.1637
 2527SOL    HW1 8280   5.335   7.675   3.498  0.5633 -0.6731  0.4967
 2527SOL    HW2 8281   5.188   7.681   3.530  0.3791  0.3412 -0.4720
 2528SOL     OW 8282   2.797   2.423   5.287  0.1842 -0.2984 -0.3604
 2528SOL    HW1 8283   2.877   2.400   5.333 -0.0607 -0.0347  0.2027
 2528SOL    HW2 8284   2.765   2.502   5.331 -1.0312 -1.0786  0.2225
 2529SOL     OW 8285   2.248   6.924   5.306  0.1129 -0.3011 -0.3481
 2529SOL    HW1 8286   2.301   7.003   5.316  1.6961 -1.6120  2.8219
 2529SOL    HW2 8287   2.161   6.949   5.335  0.7752  0.1892  1.3315
 2530SOL     OW 8288   5.796   0.200   2.405  0.2450  0.1391  0.3566
 2530SOL    HW1 8289   5.875   0.244   2.374  0.0494 -1.1226 -2.2521
 2530SOL    HW2 8290   5.747   0.180   2.325 -1.5331 -1.3074  1.7114
 2531SOL     OW 8291   3.474   7.962   2.855  0.1189 -0.2933 -0.0742
 2531SOL    HW1 8292   3.456   7.918   2.939  0.0244 -0.3324 -0.1148
 2531SOL    HW2 8293   3.405   8.028   2.847 -2.3411 -2.8018 -1.9488
 2532SOL     OW 8294   0.696   1.513   7.125 -0.0257 -0.4822  0.0757
 2532SOL    HW1 8295   0.785   1.547   7.113 -0.0445  0.2280  1.7062
 2532SOL    HW2 8296   0.694   1.434   7.071  1.6584 -0.6092  0.1192
 2533SOL     OW 8297   0.738   7.600   0.835  0.1132 -0.0647 -0.4218
 2533SOL    HW1 8298   0.696   7.651   0.905  1.1538  0.1769  0.0467
 2533SOL    HW2 8299   0.819   7.568   0.875 -0.9457 -2.9436 -0.3606
 2534SOL     OW 8300   0.833   6.778   2.493 -0.3540  1.1430  0.3377
 2534SOL    HW1 8301   0.802   6.702   2.544  2.3898  0.2397  0.8375
 2534SOL    HW2 8302   0.828   6.749   2.402 -1.7916  1.3791  0.3242
 2535SOL     OW 8303   0.950   5.226   7.187  0.0399  0.2324 -0.4646
 2535SOL    HW1 8304   1.029   5.189   7.148  2.9992  3.2090  2.0710
 2535SOL    HW2 8305   0.898   5.150   7.213  2.3185 -1.9054 -1.7393
 2536SOL     OW 8306   1.018   3.042   4.860  0.9147 -0.0898 -0.0758
 2536SOL    HW1 8307   0.978   3.103   4.797  0.3406 -1.3430 -0.9675
 2536SOL    HW2 8308   1.012   2.957   4.817  5.1530 -0.3460 -0.6054
 2537SOL     OW 8309   1.378   7.924   5.973  0.0536 -0.0660  0.3639
 2537SOL    HW1 8310   1.469   7.904   5.995  1.0956  0.6184 -2.7793
 2537SOL    HW2 8311   1.351   7.850   5.918 -0.0273  1.3337 -1.5940
 2538SOL     OW 8312   7.147   4.914   0.779 -0.6484  0.5238 -0.1371
 2538SOL    HW1 8313   7.237   4.896   0.807 -0.3979  0.3605 -1.0350
 2538SOL    HW2 8314   7.110   4.964   0.852  0.3498  1.1161 -0.0112
 2539SOL     OW 8315   0.719   4.015   2.812  0.3000 -0.6334  0.7080
 2539SOL    HW1 8316   0.667   3.995   2.890 -1.0551 -1.7336 -0.4229
 2539SOL    HW2 8317   0.719   3.933   2.761 -0.6590  0.6064 -1.4316
 2540SOL     OW 8318   5.030   2.336   6.798 -0.4562  0.6207 -0.0639
 2540SOL    HW1 8319   4.961   2.302   6.740  1.0346 -1.3270 -0.8292
 2540SOL    HW2 8320   5.089   2.382   6.739  0.7450 -0.8377 -0.0488
 2541SOL     OW 8321   2.808   1.943   7.709 -0.0283  0.0108  0.4350
 2541SOL    HW1 8322   2.793   1.865   7.761  0.2116  0.8257  1.7762
 2541SOL    HW2 8323   2.723   1.964   7.670 -0.2231 -0.5652  0.5520
 2542SOL     OW 8324   3.879   6.973   1.857  0.0936  0.2749  0.1897
 2542SOL    HW1 8325   3.854   7.046   1.914  1.9722  1.0703  0.0599
 2542SOL    HW2 8326   3.811   6.971   1.790 -0.0221  1.9020  0.2118
 2543SOL     OW 8327   3.622   7.716   2.732 -0.3125  0.3506  0.3939
 2543SOL    HW1 8328   3.626   7.812   2.741  0.3022  0.3054  0.6582
 2543SOL    HW2 8329   3.595   7.686   2.819  1.8811  0.1464  1.0617
 2544SOL     OW 8330   5.816   3.230   3.627 -0.6939  0.3537 -0.1398
 2544SOL    HW1 8331   5.871   3.260   3.700  0.9257 -1.4046 -0.5622
 2544SOL    HW2 8332   5.773   3.151   3.661  0.7498 -0.9912 -1.2876
 2545SOL     OW 8333   6.603   0.363   5.398 -0.2824  0.0538  0.3452
 2545SOL    HW1 8334   6.579   0.430   5.334 -1.1217 -0.0550  0.5275
 2545SOL    HW2 8335   6.688   0.391   5.432 -1.8630  2.6609  2.5434
 2546SOL     OW 8336   3.241   0.852   7.300  0.0459 -0.2419  0.1859
 2546SOL    HW1 8337   3.152   0.826   7.322  0.6170 -2.6010 -0.0610
 2546SOL    HW2 8338   3.237   0.948   7.295 -2.3571 -0.2556  0.5689
 2547SOL     OW 8339   6.922   2.473   6.982  0.0780 -0.1950 -0.2045
 2547SOL    HW1 8340   6.862   2.436   6.917  0.4711 -0.6539 -0.3118
 2547SOL    HW2 8341   6.956   2.552   6.941  0.4661 -0.5796 -0.6396
 2548SOL     OW 8342   6.490   2.127   3.904 -0.7006  0.3218 -0.3000
 2548SOL    HW1 8343   6.396   2.123   3.887 -0.4956 -2.5531 -1.2816
 2548SOL    HW2 8344   6.530   2.088   3.826  1.2315  0.3280  0.6389
 2549SOL     OW 8345   7.552   5.496   6.115  0.3010  0.2839  0.1619
 2549SOL    HW1 8346   7.508   5.501   6.030  1.4336 -0.0502 -0.4566
 2549SOL    HW2 8347   7.638   5.534   6.100  1.3642 -1.8276  0.5618
 2550SOL     OW 8348   6.279   6.658   6.438  0.6755 -0.1566  0.0417
 2550SOL    HW1 8349   6.371   6.679   6.426  0.5906  0.2186  0.0316
 2550SOL    HW2 8350   6.240   6.673   6.352  0.1706  1.9816  0.6027
 2551SOL     OW 8351   2.030   4.193   7.535  0.5776  0.7346  0.1204
 2551SOL    HW1 8352   2.042   4.099   7.548  1.8279  0.8697  0.0698
 2551SOL    HW2 8353   2.089   4.234   7.598  2.0058  1.4464 -1.5833
 2552SOL     OW 8354   4.461   7.587   6.669 -0.3249  0.2454 -0.3476
 2552SOL    HW1 8355   4.400   7.520   6.699  0.2882 -0.1864 -0.0580
 2552SOL    HW2 8356   4.544   7.565   6.710  0.5591 -0.3664 -2.3386
 2553SOL     OW 8357   1.055   3.761   0.457 -0.3261 -0.0675  0.1461
 2553SOL    HW1 8358   0.997   3.777   0.383 -1.1579  0.5714  0.9157
 2553SOL    HW2 8359   1.114   3.692   0.427 -2.3003 -1.6659 -0.2211
 2554SOL     OW 8360   4.122   2.601   7.918  0.8908 -0.1170 -0.1695
 2554SOL    HW1 8361   4.043   2.564   7.876  2.0682 -1.2744 -1.4761
 2554SOL    HW2 8362   4.168   2.524   7.953  1.0751  0.6268  1.3141
 2555SOL     OW 8363   0.344   2.562   2.499 -0.0794  0.4261 -0.1894
 2555SOL    HW1 8364   0.434   2.589   2.513  0.1198 -0.5210  0.4135
 2555SOL    HW2 8365   0.336   2.553   2.404  0.8471 -0.7383 -0.1796
 2556SOL     OW 8366   1.386   4.610   3.031  0.4210 -0.0974 -0.0062
 2556SOL    HW1 8367   1.300   4.568   3.019  0.7078 -0.3650 -1.3006
 2556SOL    HW2 8368   1.384   4.643   3.121 -1.1793  0.2129 -0.1157
 2557SOL     OW 8369   0.420   0.957   4.618 -0.0231  0.8686 -0.2136
 2557SOL    HW1 8370   0.459   0.977   4.532 -1.6408 -0.0211 -1.2063
 2557SOL    HW2 8371   0.418   1.040   4.664 -0.4228  1.6440 -1.5967
 2558SOL     OW 8372   4.228   6.384   1.768  0.1160 -0.0166 -0.1219
 2558SOL    HW1 8373   4.296   6.388   1.835 -0.8789 -1.1485  1.0192
 2558SOL    HW2 8374   4.210   6.476   1.747 -0.2476  0.4518  1.9495
 2559SOL     OW 8375   6.627   0.662   1.282  0.7281  0.4241 -0.3937
 2559SOL    HW1 8376   6.676   0.636   1.360  0.8511 -0.0041 -0.6130
 2559SOL    HW2 8377   6.537   0.636   1.299  0.7348  0.4303 -0.3499
 2560SOL     OW 8378   2.659   3.429   5.947 -0.5242  0.2163 -0.2929
 2560SOL    HW1 8379   2.689   3.346   5.986 -0.1142  1.0780  1.3276
 2560SOL    HW2 8380   2.609   3.471   6.016 -1.8745  0.7444 -1.5537
 2561SOL     OW 8381   5.175   5.041   1.723 -0.1041  0.2872  0.0314
 2561SOL    HW1 8382   5.261   5.069   1.694  0.1206  0.7337  1.0857
 2561SOL    HW2 8383   5.128   5.122   1.742 -0.1776  0.0156  1.0607
 2562SOL     OW 8384   2.386   5.396   3.403  0.2309  0.2488  0.0150
 2562SOL    HW1 8385   2.326   5.342   3.351  1.3139  0.1648 -1.1985
 2562SOL    HW2 8386   2.375   5.365   3.492  0.2039 -1.3960 -0.5345
 2563SOL     OW 8387   6.747   4.047   0.611 -0.8566 -0.4101 -0.1721
 2563SOL    HW1 8388   6.712   4.086   0.692 -0.1410 -0.1278  0.0035
 2563SOL    HW2 8389   6.672   4.045   0.552 -0.8068  1.7690 -0.3783
 2564SOL     OW 8390   0.225   1.738   1.204  0.0509  0.1244 -0.3170
 2564SOL    HW1 8391   0.202   1.781   1.122 -0.7619  0.4153  0.0488
 2564SOL    HW2 8392   0.308   1.694   1.186  1.1197  2.1325 -0.6098
 2565SOL     OW 8393   1.047   7.574   7.550  0.1545 -0.0380  0.1322
 2565SOL    HW1 8394   1.009   7.493   7.515 -0.6467  0.4109 -0.0580
 2565SOL    HW2 8395   0.976   7.637   7.548  0.4052  0.3233  1.5116
 2566SOL     OW 8396   4.820   3.638   5.824  0.1058 -0.0972 -0.0864
 2566SOL    HW1 8397   4.748   3.643   5.887 -0.3458 -1.0547 -0.5021
 2566SOL    HW2 8398   4.883   3.704   5.853 -0.4570  0.0182  0.8950
 2567SOL     OW 8399   1.593   4.047   1.074  0.1308  0.4523 -0.3116
 2567SOL    HW1 8400   1.584   3.994   0.995 -3.1489 -1.0786  0.9147
 2567SOL    HW2 8401   1.525   4.113   1.067  0.3885  0.8641  0.8328
 2568SOL     OW 8402   3.225   0.617   1.834 -0.1648 -0.2706 -0.4244
 2568SOL    HW1 8403   3.294   0.606   1.768 -0.1360 -2.5551 -0.0740
 2568SOL    HW2 8404   3.144   0.599   1.788 -0.2099 -1.1330 -0.0173
 2569SOL     OW 8405   7.619   0.160   0.208  0.4194  0.0359 -0.3902
 2569SOL    HW1 8406   7.625   0.199   0.296  0.1337  1.4257 -0.9488
 2569SOL    HW2 8407   7.686   0.207   0.157 -1.4637  1.4863 -1.6654
 2570SOL     OW 8408   6.139   5.279   4.919 -0.1565  0.1449  0.0002
 2570SOL    HW1 8409   6.184   5.319   4.844  0.5362  0.6904  0.6920
 2570SOL    HW2 8410   6.210   5.247   4.975 -0.6434  0.6802  0.9360
 2571SOL     OW 8411   4.507   2.772   2.411  0.2030  0.4781  0.5032
 2571SOL    HW1 8412   4.571   2.823   2.360 -0.1952 -0.5178 -1.0627
 2571SOL    HW2 8413   4.464   2.837   2.466  1.3464  1.4496  0.2936
 2572SOL     OW 8414   4.714   1.305   0.384 -0.2192 -0.4015 -0.2613
 2572SOL    HW1 8415   4.794   1.357   0.391  0.5619 -1.2866 -1.9989
 2572SOL    HW2 8416   4.646   1.368   0.361  0.0497  0.2824  0.7265
 2573SOL     OW 8417   5.778   0.242   1.725  0.3232  0.2307  0.1198
 2573SOL    HW1 8418   5.778   0.310   1.657  0.6154  0.5632  0.4526
 2573SOL    HW2 8419   5.734   0.168   1.683 -0.7605  0.8953  0.0239
 2574SOL     OW 8420   3.865   4.961   3.134  0.3500 -0.7933  0.3329
 2574SOL    HW1 8421   3.919   5.028   3.176 -0.2626 -0.8697  1.2575
 2574SOL    HW2 8422   3.908   4.878   3.153  2.0905 -0.6198 -2.2617
 2575SOL     OW 8423   7.473   2.800   5.905  0.1746  0.5067  0.1396
 2575SOL    HW1 8424   7.445   2.797   5.814 -0.2729 -0.8484  0.3024
 2575SOL    HW2 8425   7.565   2.828   5.901  0.4201 -0.3879 -0.7842
 2576SOL     OW 8426   0.156   3.031   0.172  0.0777 -0.2863  0.5415
 2576SOL    HW1 8427   0.213   3.005   0.099 -0.4347  1.0581 -0.3717
 2576SOL    HW2 8428   0.074   2.985   0.155 -0.8419  1.7809 -1.0981
 2577SOL     OW 8429   2.652   3.431   3.132  0.1436  0.0779 -0.1808
 2577SOL    HW1 8430   2.672   3.442   3.039 -0.9393  0.4466 -0.3855
 2577SOL    HW2 8431   2.598   3.508   3.154 -0.5587 -0.5830  0.4601
 2578SOL     OW 8432   5.352   7.910   3.319 -0.2107  0.2908 -0.6422
 2578SOL    HW1 8433   5.338   7.830   3.371  2.6053  0.8590  1.2525
 2578SOL    HW2 8434   5.420   7.885   3.256  0.8378  1.2059  0.1005
 2579SOL     OW 8435   5.118   4.812   2.184  0.0912 -0.1436  0.9032
 2579SOL    HW1 8436   5.054   4.750   2.149 -0.1811 -0.3341  1.7011
 2579SOL    HW2 8437   5.141   4.776   2.270  1.7819 -0.4282  0.3608
 2580SOL     OW 8438   3.379   3.114   0.894  0.4747 -0.3311  0.7587
 2580SOL    HW1 8439   3.415   3.124   0.982  0.5707 -0.0836  0.6935
 2580SOL    HW2 8440   3.304   3.173   0.892  1.1956  0.5987  0.2858
 2581SOL     OW 8441   4.520   6.470   4.818 -0.3318 -0.3372  0.0498
 2581SOL    HW1 8442   4.566   6.540   4.865  0.1294  0.0384 -0.9255
 2581SOL    HW2 8443   4.590   6.422   4.773 -0.7815 -0.5289 -0.4511
 2582SOL     OW 8444   1.036   3.930   1.560  0.4732 -0.4049  0.4938
 2582SOL    HW1 8445   1.082   3.988   1.620 -0.8610  0.8107  0.4105
 2582SOL    HW2 8446   0.943   3.941   1.583 -0.0302 -0.3506 -1.3816
 2583SOL     OW 8447   5.358   6.110   7.330  0.4476  0.4182 -0.4935
 2583SOL    HW1 8448   5.397   6.188   7.368  1.1412  0.3590 -1.0518
 2583SOL    HW2 8449   5.406   6.037   7.369  0.4527  0.3181 -0.6818
 2584SOL     OW 8450   1.475   3.228   3.211 -0.4566 -0.1347  0.5566
 2584SOL    HW1 8451   1.398   3.184   3.248 -0.3926 -0.0406  0.8025
 2584SOL    HW2 8452   1.463   3.320   3.235 -0.2018 -0.1407  0.7041
 2585SOL     OW 8453   5.960   3.678   5.632  0.1841 -0.2276 -0.0111
 2585SOL    HW1 8454   6.030   3.617   5.654  0.0902 -0.3257  0.0158
 2585SOL    HW2 8455   5.932   3.713   5.717 -0.4061 -0.8560  0.0608
 2586SOL     OW 8456   7.657   2.726   2.005  0.8381  0.3769  0.0933
 2586SOL    HW1 8457   7.700   2.747   1.922  0.9840 -0.2120  0.0209
 2586SOL    HW2 8458   7.564   2.715   1.982  0.9303 -0.1049 -0.0450
 2587SOL     OW 8459   4.257   0.720   7.137 -0.0066 -0.6071 -0.6464
 2587SOL    HW1 8460   4.259   0.810   7.105 -0.3760 -0.2091  0.4153
 2587SOL    HW2 8461   4.241   0.667   7.059 -0.1364  0.2732 -1.2281
 2588SOL     OW 8462   3.870   3.311   1.142 -0.4632 -0.5584  0.8725
 2588SOL    HW1 8463   3.905   3.398   1.123  0.0934 -0.5813  1.6867
 2588SOL    HW2 8464   3.845   3.316   1.235 -1.8972 -0.7993  0.5163
 2589SOL     OW 8465   0.237   4.704   2.660 -0.1271  0.1683 -0.5817
 2589SOL    HW1 8466   0.298   4.637   2.690  0.4097  0.4280 -1.0737
 2589SOL    HW2 8467   0.152   4.658   2.655  0.1827 -0.4068 -0.6739
 2590SOL     OW 8468   1.200   6.779   6.940  0.2088 -0.7484  0.1157
 2590SOL    HW1 8469   1.260   6.822   6.880 -0.3947 -1.8585 -1.3562
 2590SOL    HW2 8470   1.114   6.816   6.919 -0.1470 -1.8157 -0.3922
 2591SOL     OW 8471   2.261   2.428   0.254 -0.3747 -0.8814  0.5434
 2591SOL    HW1 8472   2.346   2.415   0.297 -0.7555 -2.0177  0.9824
 2591SOL    HW2 8473   2.211   2.349   0.275 -0.5314 -1.5785 -2.1255
 2592SOL     OW 8474   5.999   0.948   3.975  1.1166 -0.2565 -0.0263
 2592SOL    HW1 8475   5.982   0.970   3.883 -1.2191 -0.2384  0.3448
 2592SOL    HW2 8476   6.068   1.008   4.001  0.5460  1.0220 -1.2846
 2593SOL     OW 8477   2.913   0.292   1.610  0.4983 -0.8575  0.2848
 2593SOL    HW1 8478   2.884   0.225   1.672  2.0058 -0.1722  1.8201
 2593SOL    HW2 8479   3.002   0.265   1.585  0.6206 -0.1404 -0.1033
 2594SOL     OW 8480   6.323   4.342   6.129  0.5682  0.5881 -0.4216
 2594SOL    HW1 8481   6.260   4.271   6.137  1.2961 -0.2347 -1.5454
 2594SOL    HW2 8482   6.306   4.399   6.204  0.1035 -0.8794  0.6197
 2595SOL     OW 8483   5.190   3.922   6.019  0.1259  0.3719 -0.0922
 2595SOL    HW1 8484   5.245   4.000   6.030  1.1259 -0.3306 -0.0284
 2595SOL    HW2 8485   5.190   3.881   6.106  0.3017 -0.1579 -0.3449
 2596SOL     OW 8486   7.032   5.386   5.007 -0.2691  0.3652  0.6560
 2596SOL    HW1 8487   7.090   5.403   4.933 -0.4099 -0.2109  0.4081
 2596SOL    HW2 8488   7.075   5.318   5.057  0.0332  1.0526  1.3516
 2597SOL     OW 8489   1.917   2.777   7.107 -0.1675 -0.3325  0.0540
 2597SOL    HW1 8490   1.823   2.769   7.089  0.2707 -1.4814 -2.0627
 2597SOL    HW2 8491   1.925   2.754   7.200 -1.9372 -0.5187  0.2037
 2598SOL     OW 8492   5.395   4.735   4.725 -0.6405  0.3918  0.2447
 2598SOL    HW1 8493   5.459   4.674   4.761  0.5724  0.4788 -1.6480
 2598SOL    HW2 8494   5.337   4.680   4.672 -0.4150  0.6649 -0.2989
 2599SOL     OW 8495   5.597   1.528   5.709 -0.5213 -0.2186  0.3328
 2599SOL    HW1 8496   5.517   1.517   5.760  0.0511 -0.5751  1.1772
 2599SOL    HW2 8497   5.595   1.457   5.645 -0.7262 -0.4265  0.5677
 2600SOL     OW 8498   7.868   3.571   1.937 -0.6273  0.1905  0.5859
 2600SOL    HW1 8499   7.881   3.480   1.963  2.4287  0.4533  0.2785
 2600SOL    HW2 8500   7.880   3.621   2.018  1.1223  0.4851  0.1890
 2601SOL     OW 8501   0.332   3.300   4.340 -0.1425  0.3465  0.4695
 2601SOL    HW1 8502   0.345   3.235   4.271  0.9386  0.4003  0.6035
 2601SOL    HW2 8503   0.409   3.292   4.395 -0.7850  0.6189  1.4290
 2602SOL     OW 8504   7.482   3.124   2.104 -0.0343  0.3151  0.7228
 2602SOL    HW1 8505   7.572   3.146   2.081 -0.0658  0.3762  0.6592
 2602SOL    HW2 8506   7.440   3.105   2.020 -0.3137  1.1353  0.6671
 2603SOL     OW 8507   6.734   2.859   6.510 -0.0496 -0.1682  0.0977
 2603SOL    HW1 8508   6.667   2.792   6.528 -0.9963  0.8217  0.4103
 2603SOL    HW2 8509   6.811   2.810   6.482 -1.1859 -1.3112 -1.1632
 2604SOL     OW 8510   0.017   1.136   0.170 -0.1707 -0.2863 -0.4898
 2604SOL    HW1 8511   0.019   1.079   0.093 -2.1493 -0.2256 -0.6448
 2604SOL    HW2 8512  -0.070   1.122   0.207  0.2263  0.7803  0.9130
 2605SOL     OW 8513   7.795   2.277   3.521 -0.3772  0.0910  0.2236
 2605SOL    HW1 8514   7.849   2.356   3.518 -0.7623  0.3416 -2.5822
 2605SOL    HW2 8515   7.838   2.217   3.460 -1.8333 -0.6682 -0.0815
 2606SOL     OW 8516   2.818   5.976   4.723 -0.4685 -0.1850 -0.4347
 2606SOL    HW1 8517   2.735   5.981   4.676 -1.5238  0.7845  1.3865
 2606SOL    HW2 8518   2.845   6.067   4.734  1.4010 -0.4988 -1.8211
 2607SOL     OW 8519   0.220   3.747   4.400 -0.5802 -0.1952 -0.6582
 2607SOL    HW1 8520   0.298   3.759   4.455 -1.5679 -1.7625  1.2088
 2607SOL    HW2 8521   0.241   3.671   4.345 -1.1904 -1.4477  0.7595
 2608SOL     OW 8522   0.962   0.065   1.211 -0.0114 -0.3933 -0.2277
 2608SOL    HW1 8523   1.001   0.074   1.124  0.0644 -2.6834 -0.5070
 2608SOL    HW2 8524   1.035   0.074   1.272  0.3043 -0.8214 -0.5360
 2609SOL     OW 8525   0.420   0.681   4.691 -0.2421  0.1760 -0.4193
 2609SOL    HW1 8526   0.423   0.701   4.785 -0.0438  0.1944 -0.4285
 2609SOL    HW2 8527   0.399   0.765   4.649 -0.6345  0.1040 -0.3701
 2610SOL     OW 8528   3.942   1.470   7.047 -0.0343  0.0497  0.3124
 2610SOL    HW1 8529   4.033   1.443   7.036 -0.1070 -0.6704  1.2436
 2610SOL    HW2 8530   3.894   1.387   7.054 -0.6851  0.4244  0.3303
 2611SOL     OW 8531   5.357   7.059   3.691 -0.4940 -0.4494  0.2286
 2611SOL    HW1 8532   5.426   6.998   3.717 -0.0816 -1.0320 -1.9485
 2611SOL    HW2 8533   5.279   7.005   3.680 -0.8774 -0.0776  1.0325
 2612SOL     OW 8534   6.894   2.954   0.207  0.0826  0.2160  0.0307
 2612SOL    HW1 8535   6.808   2.912   0.200  0.7493 -1.0501 -0.9035
 2612SOL    HW2 8536   6.896   3.016   0.134  0.7954 -1.3900 -1.3897
 2613SOL     OW 8537   1.546   6.994   7.017 -0.3057 -0.0543 -0.0407
 2613SOL    HW1 8538   1.570   7.086   7.009  1.5007 -0.4732  0.2029
 2613SOL    HW2 8539   1.518   6.985   7.109 -0.1791  0.1903  0.0242
 2614SOL     OW 8540   5.461   2.560   4.710 -0.5761  0.6124  0.1850
 2614SOL    HW1 8541   5.448   2.528   4.799  0.5696  0.1845  0.2173
 2614SOL    HW2 8542   5.425   2.648   4.711 -0.9675  0.4563  0.9462
 2615SOL     OW 8543   0.878   6.676   4.907 -0.0594 -0.2227 -0.4118
 2615SOL    HW1 8544   0.949   6.638   4.856  0.1258 -0.6506  0.1522
 2615SOL    HW2 8545   0.821   6.718   4.842 -0.4446 -1.7437 -1.0959
 2616SOL     OW 8546   5.181   0.562   2.751 -0.4266  0.4974  0.0308
 2616SOL    HW1 8547   5.119   0.630   2.777 -0.5972 -0.2114  1.5814
 2616SOL    HW2 8548   5.219   0.594   2.669 -0.3619  2.5548  0.8032
 2617SOL     OW 8549   4.192   1.942   1.646  0.2746 -0.0375  0.5069
 2617SOL    HW1 8550   4.102   1.958   1.675 -0.0373  0.0723 -0.5120
 2617SOL    HW2 8551   4.198   1.846   1.641 -0.8815 -0.0564 -2.6650
 2618SOL     OW 8552   3.356   1.954   4.796 -0.0615  0.4966 -0.4488
 2618SOL    HW1 8553   3.358   1.987   4.707  0.5022  3.6726  0.6012
 2618SOL    HW2 8554   3.378   2.030   4.850 -1.6598 -0.9512  2.4929
 2619SOL     OW 8555   2.215   0.748   6.748 -0.4291 -0.1410  0.3796
 2619SOL    HW1 8556   2.209   0.714   6.659 -0.5971  1.0401 -0.0673
 2619SOL    HW2 8557   2.297   0.798   6.750 -0.3810 -0.2323  0.9155
 2620SOL     OW 8558   4.873   0.303   4.368 -0.1916  0.2814  0.0233
 2620SOL    HW1 8559   4.968   0.307   4.358 -0.1955 -0.7501 -0.6683
 2620SOL    HW2 8560   4.839   0.336   4.285 -0.3952 -0.8169 -0.3438
 2621SOL     OW 8561   5.088   2.546   4.470 -0.4919  0.3442 -0.0334
 2621SOL    HW1 8562   5.067   2.543   4.563 -0.4020  1.9745  0.0756
 2621SOL    HW2 8563   5.027   2.484   4.429 -0.7392 -0.1578  1.0649
 2622SOL     OW 8564   0.507   1.583   4.674  0.0113 -0.0678 -0.0461
 2622SOL    HW1 8565   0.475   1.507   4.626  0.8724 -0.1683 -0.4894
 2622SOL    HW2 8566   0.551   1.546   4.751  1.1896 -0.0880 -0.7074
 2623SOL     OW 8567   7.879   4.887   0.694 -0.2526  0.3133 -0.3324
 2623SOL    HW1 8568   7.940   4.925   0.756 -0.7480 -0.6614  0.7985
 2623SOL    HW2 8569   7.934   4.859   0.621  0.9653 -1.9294  1.3039
 2624SOL     OW 8570   5.234   1.477   7.796 -0.6838  0.1295  0.5689
 2624SOL    HW1 8571   5.159   1.441   7.843 -1.3411  1.5313  0.6530
 2624SOL    HW2 8572   5.264   1.549   7.851  0.3274 -0.0034  0.2138
 2625SOL     OW 8573   7.152   1.542   6.071  0.4585  0.4433 -0.3956
 2625SOL    HW1 8574   7.081   1.576   6.124  0.7798  0.3598  0.0882
 2625SOL    HW2 8575   7.227   1.596   6.092  0.4737  0.7147 -1.1203
 2626SOL     OW 8576   5.241   6.333   3.626  0.6417  0.4374  0.4323
 2626SOL    HW1 8577   5.218   6.392   3.553 -0.3115  2.4295  2.2304
 2626SOL    HW2 8578   5.231   6.387   3.704  1.7747 -1.5851  2.0682
 2627SOL     OW 8579   4.840   7.915   2.417 -0.5811 -0.2085 -0.2375
 2627SOL    HW1 8580   4.845   7.841   2.477 -1.8435  0.6450  0.9642
 2627SOL    HW2 8581   4.879   7.988   2.465  0.4162  0.0090 -1.3190
 2628SOL     OW 8582   2.364   7.351   2.063  0.9741 -0.0008  0.2074
 2628SOL    HW1 8583   2.350   7.412   2.136  0.4629 -0.1877  0.2654
 2628SOL    HW2 8584   2.300   7.282   2.076  0.3911  0.3278 -0.8193
 2629SOL     OW 8585   1.810   7.780   0.764  0.2710 -0.1068 -0.0534
 2629SOL    HW1 8586   1.847   7.732   0.690  0.8296 -0.9613  0.7688
 2629SOL    HW2 8587   1.849   7.867   0.757 -0.5270  0.1878 -1.3865
 2630SOL     OW 8588   4.197   3.263   7.750 -0.4369 -0.1374  0.5961
 2630SOL    HW1 8589   4.104   3.248   7.765 -0.6964  0.7937 -0.0217
 2630SOL    HW2 8590   4.201   3.345   7.702  0.4788 -1.8093 -2.4654
 2631SOL     OW 8591   5.362   4.446   7.588 -0.3742 -0.0171  0.4129
 2631SOL    HW1 8592   5.363   4.368   7.644  0.9432 -1.0259 -0.9238
 2631SOL    HW2 8593   5.412   4.420   7.511 -1.5293  1.5562 -0.9286
 2632SOL     OW 8594   0.192   7.431   4.413 -0.4843 -0.5315  0.2141
 2632SOL    HW1 8595   0.157   7.520   4.419 -0.2849 -0.3683 -0.9238
 2632SOL    HW2 8596   0.191   7.410   4.320  1.3472 -0.9577  0.2465
 2633SOL     OW 8597   4.966   6.418   2.785  0.0177  0.2632  0.0725
 2633SOL    HW1 8598   4.899   6.487   2.775 -0.3431  0.1449  1.4404
 2633SOL    HW2 8599   4.963   6.370   2.702 -1.0723  0.7333 -0.1886
 2634SOL     OW 8600   5.406   5.935   3.401 -0.2687 -0.5244  0.5106
 2634SOL    HW1 8601   5.376   5.933   3.310 -1.1500 -2.0268  0.7858
 2634SOL    HW2 8602   5.488   5.885   3.400  1.3005  1.9009  0.0997
 2635SOL     OW 8603   0.885   0.560   4.048  0.1119 -0.1310 -0.2049
 2635SOL    HW1 8604   0.882   0.508   3.967  0.8792 -0.7452  0.1506
 2635SOL    HW2 8605   0.978   0.572   4.066 -0.0413  2.0111 -0.6536
 2636SOL     OW 8606   1.789   6.188   6.893  0.0649  0.3330  0.5421
 2636SOL    HW1 8607   1.779   6.279   6.865  0.1733 -0.1787 -1.2751
 2636SOL    HW2 8608   1.724   6.139   6.841 -0.0640 -0.6291  1.5600
 2637SOL     OW 8609   7.901   5.958   1.251  0.6153 -0.1034 -0.2602
 2637SOL    HW1 8610   7.867   5.958   1.162  2.5350 -2.0746 -1.0962
 2637SOL    HW2 8611   7.834   5.914   1.303  0.1828 -0.4031 -1.0627
 2638SOL     OW 8612   6.246   2.649   7.875  0.2141 -0.4111 -0.1171
 2638SOL    HW1 8613   6.210   2.566   7.905 -2.7034  0.0914 -1.8565
 2638SOL    HW2 8614   6.275   2.631   7.785 -0.3533  0.3789 -0.4728
 2639SOL     OW 8615   3.376   4.891   7.615  0.1573  0.3961  0.0856
 2639SOL    HW1 8616   3.434   4.819   7.589  0.0602  0.1724  0.4797
 2639SOL    HW2 8617   3.431   4.969   7.612  0.5781  0.1305  0.8188
 2640SOL     OW 8618   4.907   6.064   6.435 -0.3667 -0.0789  0.6674
 2640SOL    HW1 8619   4.821   6.030   6.459 -0.3502 -0.9640 -0.4523
 2640SOL    HW2 8620   4.953   5.989   6.398  0.8439  0.4132  1.1177
 2641SOL     OW 8621   5.831   4.964   4.760  0.4460 -0.1171 -0.3115
 2641SOL    HW1 8622   5.885   4.900   4.807  0.3056  0.5101  0.7234
 2641SOL    HW2 8623   5.742   4.949   4.792  0.1702 -0.4097 -1.1974
 2642SOL     OW 8624   6.911   7.721   1.225  0.4500  0.2964  0.3958
 2642SOL    HW1 8625   6.949   7.638   1.195  0.4140  0.3215  0.2791
 2642SOL    HW2 8626   6.977   7.787   1.206  0.8527  0.1727  1.3134
 2643SOL     OW 8627   4.158   3.098   2.050  0.2847 -0.2421 -0.0535
 2643SOL    HW1 8628   4.199   3.126   2.131  0.6150 -1.2341  0.1402
 2643SOL    HW2 8629   4.066   3.123   2.059  0.5514  0.6699  0.1381
 2644SOL     OW 8630   4.323   7.812   7.665 -0.0184 -0.0461 -1.0934
 2644SOL    HW1 8631   4.375   7.792   7.587  0.3414 -2.9548 -0.2185
 2644SOL    HW2 8632   4.346   7.743   7.728 -2.5938  0.4059  0.4846
 2645SOL     OW 8633   2.618   1.459   4.185  0.1090 -0.5196 -0.1038
 2645SOL    HW1 8634   2.635   1.549   4.158  3.2701 -1.4227 -1.5425
 2645SOL    HW2 8635   2.584   1.467   4.274 -0.9829  2.1139 -0.6635
 2646SOL     OW 8636   6.414   7.654   7.819  0.4752 -0.1074  0.0474
 2646SOL    HW1 8637   6.361   7.635   7.896  0.6154 -0.6448  0.0112
 2646SOL    HW2 8638   6.475   7.581   7.812  0.3049 -0.1894 -0.7135
 2647SOL     OW 8639   1.439   3.290   7.264 -0.6658  0.0813  0.4613
 2647SOL    HW1 8640   1.405   3.202   7.249  1.9805 -0.8711 -0.4587
 2647SOL    HW2 8641   1.399   3.344   7.195 -0.2852 -0.9727 -0.5986
 2648SOL     OW 8642   5.145   5.444   0.918  0.7824  0.1551 -0.8893
 2648SOL    HW1 8643   5.067   5.397   0.887 -0.0746 -0.2133  1.5438
 2648SOL    HW2 8644   5.208   5.375   0.936  0.2969  0.0595  0.6261
 2649SOL     OW 8645   5.604   5.984   5.226  0.2345  0.0161  0.0516
 2649SOL    HW1 8646   5.599   5.926   5.302  1.3793  1.0114  0.9350
 2649SOL    HW2 8647   5.603   5.925   5.151  1.6561 -1.2117  0.9283
 2650SOL     OW 8648   2.465   1.851   3.473  0.0433  0.3176  0.2417
 2650SOL    HW1 8649   2.468   1.787   3.544  2.0471  0.7409  0.6022
 2650SOL    HW2 8650   2.533   1.821   3.412 -0.8159  0.6487 -0.9094
 2651SOL     OW 8651   7.093   4.170   0.165 -0.6038 -0.1991 -0.3726
 2651SOL    HW1 8652   7.082   4.110   0.092 -1.7809 -0.7032  0.1852
 2651SOL    HW2 8653   7.038   4.134   0.234 -1.1166  1.3515  0.0844
 2652SOL     OW 8654   0.875   1.819   1.272  0.0185  0.1876  0.3182
 2652SOL    HW1 8655   0.901   1.812   1.364 -0.0379 -1.3909  0.2413
 2652SOL    HW2 8656   0.946   1.776   1.224 -0.1886  0.5747 -0.3423
 2653SOL     OW 8657   5.827   7.268   0.265  0.2640  0.2894 -0.0495
 2653SOL    HW1 8658   5.793   7.190   0.221  0.5528 -0.8106  1.5543
 2653SOL    HW2 8659   5.915   7.280   0.228  0.6827 -0.8886  0.4983
 2654SOL     OW 8660   5.002   4.405   4.401  0.2586  0.3629  0.0972
 2654SOL    HW1 8661   5.034   4.496   4.402  0.6628  0.2676 -1.4565
 2654SOL    HW2 8662   4.907   4.414   4.395  0.2415  0.6743  0.7629
 2655SOL     OW 8663   5.247   4.538   1.853 -0.3221 -1.3076  0.3662
 2655SOL    HW1 8664   5.155   4.516   1.845 -0.7037  0.6970 -3.3473
 2655SOL    HW2 8665   5.248   4.617   1.908 -0.4451 -2.7243  2.4916
 2656SOL     OW 8666   7.647   0.526   1.317  0.2489 -0.9880 -0.0045
 2656SOL    HW1 8667   7.692   0.555   1.396 -1.9761  3.4694 -0.0301
 2656SOL    HW2 8668   7.576   0.471   1.348 -0.2349  0.2049  1.0804
 2657SOL     OW 8669   2.452   4.511   2.786 -0.4268  0.4762  0.5920
 2657SOL    HW1 8670   2.371   4.539   2.828 -0.7470 -0.7462  0.8266
 2657SOL    HW2 8671   2.447   4.547   2.698 -1.0856  0.6485  0.6942
 2658SOL     OW 8672   3.068   1.372   3.732 -0.3467 -0.2266 -0.4122
 2658SOL    HW1 8673   3.036   1.435   3.796 -2.5481  0.0298 -1.6413
 2658SOL    HW2 8674   3.163   1.380   3.735 -0.4474  0.8648  1.6841
 2659SOL     OW 8675   1.829   6.011   2.171 -0.0062 -0.0537  0.2077
 2659SOL    HW1 8676   1.816   6.103   2.147  0.8670  0.9954  3.2727
 2659SOL    HW2 8677   1.919   5.992   2.147 -0.2302 -0.2036 -0.5617
 2660SOL     OW 8678   5.008   7.874   6.676  0.2653  0.7560  0.5937
 2660SOL    HW1 8679   4.916   7.899   6.676 -0.0905 -0.4961 -0.1247
 2660SOL    HW2 8680   5.052   7.947   6.720 -0.7180  2.6839 -1.3844
 2661SOL     OW 8681   2.035   6.821   6.784  0.1774 -0.2696  0.1785
 2661SOL    HW1 8682   2.082   6.748   6.826 -0.1777  0.2566  1.5136
 2661SOL    HW2 8683   1.959   6.836   6.839 -0.8223 -0.1578 -1.1804
 2662SOL     OW 8684   0.784   2.194   1.946 -0.5011 -0.4452  0.0863
 2662SOL    HW1 8685   0.834   2.116   1.972  1.4015  0.4189 -0.8020
 2662SOL    HW2 8686   0.771   2.242   2.028 -2.0540 -1.8334  0.7148
 2663SOL     OW 8687   6.513   3.696   5.957 -0.0101 -0.1982 -0.4859
 2663SOL    HW1 8688   6.466   3.649   5.889  0.5111 -0.7662 -0.4572
 2663SOL    HW2 8689   6.540   3.778   5.916  0.8218 -0.7950 -1.1497
 2664SOL     OW 8690   2.329   6.224   5.021  0.1191  0.3459  0.2366
 2664SOL    HW1 8691   2.250   6.187   4.981  0.6542  0.4370 -0.9635
 2664SOL    HW2 8692   2.401   6.173   4.983  0.7968  1.9005 -0.6412
 2665SOL     OW 8693   1.707   2.270   1.268  0.3443  0.1101 -0.1633
 2665SOL    HW1 8694   1.638   2.210   1.297  1.0519 -0.2099  0.9304
 2665SOL    HW2 8695   1.741   2.231   1.188  0.2460 -0.5180  0.0958
 2666SOL     OW 8696   5.708   6.597   7.812  0.1792 -0.3019 -0.4494
 2666SOL    HW1 8697   5.623   6.580   7.852 -0.8554 -0.3181 -2.4946
 2666SOL    HW2 8698   5.770   6.596   7.885 -1.4940 -0.7625  1.0405
 2667SOL     OW 8699   6.752   6.124   0.877  0.0568 -0.5443 -0.3291
 2667SOL    HW1 8700   6.749   6.114   0.972  2.5113  0.3044 -0.0644
 2667SOL    HW2 8701   6.699   6.201   0.859 -0.8654 -1.0260  0.2794
 2668SOL     OW 8702   1.246   3.816   0.863 -0.6718 -0.5096  0.3489
 2668SOL    HW1 8703   1.313   3.748   0.868 -1.3896 -1.2305  0.3881
 2668SOL    HW2 8704   1.166   3.769   0.841 -1.1499  0.3519  0.2071
 2669SOL     OW 8705   3.250   3.558   7.933 -0.9679 -0.4525 -0.0266
 2669SOL    HW1 8706   3.178   3.504   7.966 -0.1194 -1.0351  0.9516
 2669SOL    HW2 8707   3.225   3.647   7.955 -1.2723 -0.6722  0.5508
 2670SOL     OW 8708   1.570   7.532   7.280 -0.4586 -0.0961 -0.2754
 2670SOL    HW1 8709   1.593   7.512   7.370 -0.2351 -2.7078 -0.8552
 2670SOL    HW2 8710   1.549   7.626   7.281  1.1465  0.3295  2.1200
 2671SOL     OW 8711   6.922   5.199   4.056  0.1249  0.4863 -0.1563
 2671SOL    HW1 8712   6.877   5.211   4.139  2.6744  2.5506  1.0908
 2671SOL    HW2 8713   6.980   5.125   4.070 -1.1667 -0.7424 -1.0078
 2672SOL     OW 8714   0.821   3.211   1.179 -0.5722 -0.0779 -0.2668
 2672SOL    HW1 8715   0.839   3.284   1.239 -1.7985  0.8254 -0.9515
 2672SOL    HW2 8716   0.755   3.158   1.224  0.3042 -0.7915  0.2219
 2673SOL     OW 8717   0.824   4.033   7.232  0.3371 -0.0544  0.2842
 2673SOL    HW1 8718   0.758   4.102   7.223  1.0195  0.3768 -1.9458
 2673SOL    HW2 8719   0.810   3.999   7.320 -1.1809  1.7307  0.8097
 2674SOL     OW 8720   3.028   3.206   7.784  0.7073  0.1583 -0.0437
 2674SOL    HW1 8721   3.018   3.300   7.766 -1.0280 -0.2501 -1.5669
 2674SOL    HW2 8722   3.031   3.166   7.697 -1.3960 -1.4063  0.5118
 2675SOL     OW 8723   7.267   1.993   2.001  0.5338  0.4203  0.3181
 2675SOL    HW1 8724   7.347   2.023   2.044 -0.2544  3.7253 -0.2685
 2675SOL    HW2 8725   7.201   2.059   2.023 -1.6177 -1.2739 -0.6194
 2676SOL     OW 8726   2.233   6.554   5.674 -0.4844  0.0878 -0.0989
 2676SOL    HW1 8727   2.306   6.562   5.735  0.2052  1.4926 -1.0547
 2676SOL    HW2 8728   2.208   6.644   5.655 -2.8526 -0.3491  0.6082
 2677SOL     OW 8729   0.299   7.771   6.376  0.1824 -0.5161 -0.1849
 2677SOL    HW1 8730   0.307   7.806   6.287 -0.3401  0.1557  0.0318
 2677SOL    HW2 8731   0.282   7.847   6.431 -1.8210 -1.1550  0.1722
 2678SOL     OW 8732   6.076   6.292   1.752 -0.9353  0.0659 -0.2736
 2678SOL    HW1 8733   6.167   6.277   1.779 -0.7581  1.7799  0.2038
 2678SOL    HW2 8734   6.032   6.322   1.832 -2.0762 -1.2581 -0.3733
 2679SOL     OW 8735   5.877   3.883   1.162  0.5491 -0.1686  0.1415
 2679SOL    HW1 8736   5.789   3.903   1.195 -0.1984  0.4805 -2.0762
 2679SOL    HW2 8737   5.869   3.794   1.127  0.8490 -0.1957  0.1402
 2680SOL     OW 8738   5.870   4.192   7.111  0.2454 -0.1510 -0.1660
 2680SOL    HW1 8739   5.853   4.104   7.078 -0.3275 -0.8920  1.9512
 2680SOL    HW2 8740   5.793   4.214   7.163  1.7155  0.2031  2.0457
 2681SOL     OW 8741   1.067   6.077   4.281 -0.6968 -0.2856  0.3958
 2681SOL    HW1 8742   1.044   5.986   4.262  2.0438 -0.9288 -0.2224
 2681SOL    HW2 8743   1.152   6.072   4.324  0.1523  2.0407 -0.8424
 2682SOL     OW 8744   6.505   3.439   0.472  0.6918 -0.2724 -0.1041
 2682SOL    HW1 8745   6.566   3.420   0.544  1.4980  1.0393 -0.4123
 2682SOL    HW2 8746   6.419   3.440   0.513  0.9721 -1.0985  0.5433
 2683SOL     OW 8747   7.563   5.610   4.848 -0.4766  0.0617 -0.1204
 2683SOL    HW1 8748   7.515   5.688   4.872  0.8545  0.6035  0.9151
 2683SOL    HW2 8749   7.552   5.603   4.753 -3.7193 -0.6672  0.2136
 2684SOL     OW 8750   2.808   7.481   1.787  0.2188 -0.2846 -0.5059
 2684SOL    HW1 8751   2.862   7.483   1.708  1.5444  1.1090  0.3630
 2684SOL    HW2 8752   2.839   7.405   1.836  1.0021  0.1322 -0.3213
 2685SOL     OW 8753   4.694   1.023   6.854 -0.6292  0.1938  0.2389
 2685SOL    HW1 8754   4.623   1.065   6.901 -0.5443 -0.0990  0.6303
 2685SOL    HW2 8755   4.772   1.075   6.875 -0.8144  0.8430 -0.6272
 2686SOL     OW 8756   0.672   1.427   7.809  0.0409 -0.0379 -0.3806
 2686SOL    HW1 8757   0.665   1.420   7.714 -0.6916 -1.9087 -0.2343
 2686SOL    HW2 8758   0.608   1.364   7.842  0.6067  0.2502  1.3423
 2687SOL     OW 8759   2.987   7.493   4.740 -0.1139  0.0224  0.0495
 2687SOL    HW1 8760   2.931   7.529   4.809  3.0180  0.4854  2.6546
 2687SOL    HW2 8761   3.075   7.526   4.762  1.1853 -0.0951 -4.0596
 2688SOL     OW 8762   2.306   7.794   6.808 -0.0767 -0.2277 -0.1346
 2688SOL    HW1 8763   2.351   7.765   6.887  2.1281 -1.5746 -1.7607
 2688SOL    HW2 8764   2.300   7.889   6.818  0.4841 -0.3306  1.4700
 2689SOL     OW 8765   2.723   1.453   3.252 -0.1060  0.9212 -0.2341
 2689SOL    HW1 8766   2.678   1.494   3.178 -0.5579  0.6319 -0.1262
 2689SOL    HW2 8767   2.808   1.426   3.217 -0.2932  0.8399 -0.6300
 2690SOL     OW 8768   3.926   5.608   5.010 -0.3544  0.1729  0.1196
 2690SOL    HW1 8769   3.894   5.521   5.031 -0.6182  0.1541 -0.3443
 2690SOL    HW2 8770   3.884   5.630   4.926 -1.1014  1.1511  0.7273
 2691SOL     OW 8771   6.700   1.600   4.252  0.0443  0.4830 -0.1768
 2691SOL    HW1 8772   6.616   1.614   4.209  1.3674 -0.7850 -3.5223
 2691SOL    HW2 8773   6.740   1.687   4.254 -0.8409  0.8955  0.3952
 2692SOL     OW 8774   3.840   0.632   7.165 -0.2790  0.0052 -0.0670
 2692SOL    HW1 8775   3.853   0.578   7.087  0.2476 -0.3255  0.2371
 2692SOL    HW2 8776   3.758   0.678   7.150 -0.9925 -1.2371 -0.1389
 2693SOL     OW 8777   1.211   3.384   4.136  0.2415 -0.2205  0.2074
 2693SOL    HW1 8778   1.228   3.291   4.124  1.8793  0.1369 -0.4893
 2693SOL    HW2 8779   1.250   3.427   4.060 -1.1563  0.9950  0.1181
 2694SOL     OW 8780   2.566   7.375   2.357 -0.1335  0.5067 -0.6703
 2694SOL    HW1 8781   2.510   7.353   2.431  1.1153 -0.8274 -0.0648
 2694SOL    HW2 8782   2.635   7.431   2.394 -0.3626  1.1221 -1.1543
 2695SOL     OW 8783   0.349   5.934   5.303 -0.3291 -0.6211  0.3389
 2695SOL    HW1 8784   0.351   5.848   5.345 -0.7726 -1.3310 -1.0274
 2695SOL    HW2 8785   0.416   5.985   5.348 -0.3363 -1.5509  1.4403
 2696SOL     OW 8786   4.672   2.760   5.986  0.6306  0.3605 -0.2960
 2696SOL    HW1 8787   4.613   2.787   6.057  0.3645  1.5713 -0.9569
 2696SOL    HW2 8788   4.631   2.681   5.950  1.0998 -0.6494  1.2750
 2697SOL     OW 8789   5.290   1.307   1.629 -0.1818 -0.1263  0.4315
 2697SOL    HW1 8790   5.278   1.386   1.682 -0.8979  1.1578 -1.5583
 2697SOL    HW2 8791   5.254   1.237   1.684 -1.2726  1.2020  1.5018
 2698SOL     OW 8792   7.386   0.941   7.406 -0.0313 -0.4946  0.1153
 2698SOL    HW1 8793   7.438   0.919   7.483  0.8240 -0.7775 -0.5197
 2698SOL    HW2 8794   7.450   0.975   7.343 -0.6216 -0.8056 -0.6722
 2699SOL     OW 8795   2.241   3.900   5.846  0.3061  0.0852  0.1838
 2699SOL    HW1 8796   2.181   3.876   5.916  1.7798  1.1989  1.9280
 2699SOL    HW2 8797   2.251   3.995   5.855  0.5870  0.2465 -1.5194
 2700SOL     OW 8798   0.386   1.691   2.393 -0.1483  0.0186  0.2034
 2700SOL    HW1 8799   0.387   1.786   2.382 -0.4934  0.0735  0.6010
 2700SOL    HW2 8800   0.299   1.672   2.429 -0.2803 -0.5049 -0.3744
 2701SOL     OW 8801   5.333   5.369   0.250  0.2636 -0.3217  0.2685
 2701SOL    HW1 8802   5.350   5.449   0.299  0.5817  1.1496 -2.0725
 2701SOL    HW2 8803   5.414   5.351   0.203  0.1830 -2.0311  0.7211
 2702SOL     OW 8804   4.172   5.525   3.066 -0.1642 -0.0982  0.2711
 2702SOL    HW1 8805   4.210   5.444   3.099  1.6374  0.0412 -1.2993
 2702SOL    HW2 8806   4.225   5.548   2.989  0.6285  3.5647  1.6908
 2703SOL     OW 8807   5.144   4.959   5.222 -0.6620 -0.1212  0.4428
 2703SOL    HW1 8808   5.087   4.908   5.164  0.4724 -2.2355  1.0458
 2703SOL    HW2 8809   5.120   5.050   5.206 -1.3488 -0.6752 -2.3298
 2704SOL     OW 8810   3.086   4.486   2.139 -0.0522  0.2888 -0.0401
 2704SOL    HW1 8811   3.181   4.490   2.129  0.2698 -0.6455  2.1522
 2704SOL    HW2 8812   3.068   4.531   2.221 -1.4444  0.0133 -0.1672
 2705SOL     OW 8813   6.136   2.113   0.185 -0.6051  0.5665  0.9850
 2705SOL    HW1 8814   6.049   2.122   0.224 -1.1736  1.6904 -0.4459
 2705SOL    HW2 8815   6.188   2.182   0.228 -1.1067  1.5087  0.1160
 2706SOL     OW 8816   7.592   7.164   3.306 -0.0226 -0.1973  0.0021
 2706SOL    HW1 8817   7.675   7.181   3.351  1.0202 -0.6787 -1.6330
 2706SOL    HW2 8818   7.534   7.233   3.336  0.2914 -1.0102  2.7604
 2707SOL     OW 8819   6.701   3.532   6.067 -0.3463 -0.4699 -0.5683
 2707SOL    HW1 8820   6.631   3.595   6.046  0.7810  1.7987  1.8591
 2707SOL    HW2 8821   6.780   3.572   6.031  0.3100 -0.7859  0.4928
 2708SOL     OW 8822   0.011   1.664   4.250  0.2181  0.1575 -0.1336
 2708SOL    HW1 8823   0.025   1.759   4.249 -2.1952  0.6120  0.9447
 2708SOL    HW2 8824  -0.037   1.646   4.170 -0.4705  0.0765  0.2922
 2709SOL     OW 8825   0.542   1.101   3.342 -0.7007  0.6914  0.4322
 2709SOL    HW1 8826   0.588   1.020   3.318 -0.6970  0.4229  1.3066
 2709SOL    HW2 8827   0.477   1.073   3.407 -1.3561  1.2440  0.0189
 2710SOL     OW 8828   4.934   5.689   7.075  0.0500 -0.6731 -0.6832
 2710SOL    HW1 8829   4.949   5.610   7.126 -0.4094  0.9343  2.1396
 2710SOL    HW2 8830   4.839   5.697   7.071  0.0945 -0.3268 -1.0514
 2711SOL     OW 8831   3.264   3.908   7.526 -0.4124  0.0461 -0.2352
 2711SOL    HW1 8832   3.179   3.865   7.528 -0.8091  0.8435  0.6590
 2711SOL    HW2 8833   3.326   3.841   7.557 -0.5640 -0.7977 -1.6564
 2712SOL     OW 8834   7.064   0.110   7.864  0.0450 -0.0822  0.3884
 2712SOL    HW1 8835   6.988   0.156   7.898 -0.4083 -1.7298  1.7411
 2712SOL    HW2 8836   7.121   0.097   7.941  2.0163  1.6293 -0.6806
 2713SOL     OW 8837   6.460   4.414   1.232 -0.9149  0.1487 -0.1659
 2713SOL    HW1 8838   6.469   4.383   1.322  0.1783  0.1262 -0.2690
 2713SOL    HW2 8839   6.550   4.421   1.201 -1.3062 -1.5745 -1.8585
 2714SOL     OW 8840   7.970   7.171   7.311  0.1683  0.0422  0.1657
 2714SOL    HW1 8841   7.983   7.088   7.266 -1.2914 -0.0625 -0.1109
 2714SOL    HW2 8842   8.052   7.219   7.297  1.0320 -1.3132  0.3171
 2715SOL     OW 8843   6.357   2.874   3.093  0.4088  0.0437  0.0039
 2715SOL    HW1 8844   6.289   2.926   3.050  0.1031  0.3951  0.8877
 2715SOL    HW2 8845   6.317   2.844   3.175  0.6391 -1.4407 -0.3871
 2716SOL     OW 8846   6.090   7.312   1.304  0.3562  0.0105 -0.0514
 2716SOL    HW1 8847   5.995   7.325   1.295 -0.1019 -1.7171  1.6109
 2716SOL    HW2 8848   6.111   7.348   1.390  0.8997 -0.9312  0.2279
 2717SOL     OW 8849   7.085   3.104   5.934 -0.0648  0.1888 -0.1232
 2717SOL    HW1 8850   7.063   3.020   5.894  2.9566 -0.7659 -0.0611
 2717SOL    HW2 8851   7.146   3.145   5.873  0.4805  1.1561  1.0124
 2718SOL     OW 8852   5.652   6.387   7.181  0.1460  0.2620 -0.1426
 2718SOL    HW1 8853   5.652   6.460   7.119  0.6008  0.5232  0.1608
 2718SOL    HW2 8854   5.730   6.336   7.157  0.0227  0.0670 -0.1310
 2719SOL     OW 8855   3.147   4.121   7.092  0.3712 -0.1913 -0.1120
 2719SOL    HW1 8856   3.081   4.139   7.024 -0.4348 -1.3299  0.3602
 2719SOL    HW2 8857   3.227   4.106   7.042 -0.4935 -2.4270 -0.9731
 2720SOL     OW 8858   1.154   4.150   4.410  0.1587  0.4440  0.1102
 2720SOL    HW1 8859   1.124   4.228   4.363  1.4382  0.1292 -1.3456
 2720SOL    HW2 8860   1.249   4.162   4.417  0.4153 -1.0542 -0.3571
 2721SOL     OW 8861   4.952   6.853   6.214  0.1085  0.1179  0.2465
 2721SOL    HW1 8862   4.911   6.778   6.258 -0.8157 -1.3493 -2.8626
 2721SOL    HW2 8863   4.880   6.901   6.174  1.0032  0.4132 -1.0858
 2722SOL     OW 8864   4.906   2.903   2.887  0.1615 -0.2601 -0.4270
 2722SOL    HW1 8865   4.890   2.940   2.973 -0.4588 -0.7167 -0.3364
 2722SOL    HW2 8866   4.821   2.908   2.842 -0.0031 -1.7254 -0.3367
 2723SOL     OW 8867   5.840   3.764   7.295  0.4691  0.0198  0.5126
 2723SOL    HW1 8868   5.934   3.746   7.306  0.6036  0.4623  0.1492
 2723SOL    HW2 8869   5.796   3.691   7.337  0.9807 -0.1157  0.8200
 2724SOL     OW 8870   7.841   4.033   1.045 -0.0068  0.3161  0.5381
 2724SOL    HW1 8871   7.898   3.984   1.104 -1.5009 -1.4617  0.5986
 2724SOL    HW2 8872   7.901   4.089   0.995  1.4583  0.7236  2.5846
 2725SOL     OW 8873   6.579   7.438   7.803 -0.4283 -0.4634 -0.7857
 2725SOL    HW1 8874   6.664   7.459   7.764 -1.2046  0.9775 -1.7853
 2725SOL    HW2 8875   6.538   7.379   7.740 -0.1233 -1.3514 -0.1910
 2726SOL     OW 8876   5.567   5.064   3.036  0.5756 -0.4134  0.3732
 2726SOL    HW1 8877   5.602   5.128   3.098 -0.0860 -1.6575  2.1012
 2726SOL    HW2 8878   5.633   5.059   2.966  0.0267  3.0868 -0.5592
 2727SOL     OW 8879   2.845   6.095   1.807 -0.0503  0.2777 -0.6247
 2727SOL    HW1 8880   2.854   6.049   1.724  1.3884  1.1128 -0.9561
 2727SOL    HW2 8881   2.904   6.050   1.867 -0.2094  0.4006 -0.3686
 2728SOL     OW 8882   0.898   2.169   6.286  0.3979  0.1017 -0.8450
 2728SOL    HW1 8883   0.820   2.222   6.303  1.2881  0.9428  0.9530
 2728SOL    HW2 8884   0.899   2.157   6.191 -2.3940 -0.7480 -0.8303
 2729SOL     OW 8885   2.896   5.121   0.513 -0.5360 -0.4081 -0.2496
 2729SOL    HW1 8886   2.863   5.034   0.490 -0.3286 -0.8176  0.9324
 2729SOL    HW2 8887   2.827   5.181   0.484 -2.4610 -1.2408  2.2836
 2730SOL     OW 8888   1.315   4.088   0.220  0.3165 -0.5185 -0.7081
 2730SOL    HW1 8889   1.251   4.051   0.159  0.5191 -1.0527 -0.5993
 2730SOL    HW2 8890   1.366   4.013   0.251 -0.9145 -0.5516  1.4756
 2731SOL     OW 8891   0.803   5.242   1.730 -0.7709 -0.1261 -0.1036
 2731SOL    HW1 8892   0.809   5.147   1.725 -2.7194 -0.3052  0.3891
 2731SOL    HW2 8893   0.764   5.259   1.816  0.2919  1.1688  0.1576
 2732SOL     OW 8894   6.997   5.451   5.355 -0.8552  0.1999 -0.1683
 2732SOL    HW1 8895   6.988   5.539   5.392  1.3772  0.0280  0.9344
 2732SOL    HW2 8896   6.993   5.465   5.260 -2.5456  1.1823  0.0053
 2733SOL     OW 8897   6.782   2.864   0.709  0.2840 -0.3449  0.0818
 2733SOL    HW1 8898   6.791   2.775   0.674  1.7107 -0.1709 -0.0224
 2733SOL    HW2 8899   6.690   2.868   0.738  0.0563 -1.6793 -0.3607
 2734SOL     OW 8900   2.043   2.868   4.969  0.0022  0.4832 -0.0002
 2734SOL    HW1 8901   2.087   2.950   4.992 -0.8170  1.4800 -1.7926
 2734SOL    HW2 8902   1.951   2.892   4.958 -1.0406 -1.4732  3.2019
 2735SOL     OW 8903   6.787   4.998   4.256  0.3835  0.2135 -0.3286
 2735SOL    HW1 8904   6.756   4.939   4.188  0.1214  0.9595 -0.8737
 2735SOL    HW2 8905   6.718   4.997   4.322  1.4014 -1.8311  0.7814
 2736SOL     OW 8906   6.125   4.604   3.032 -0.0488  0.3388  0.0722
 2736SOL    HW1 8907   6.087   4.675   2.980 -0.9772 -0.6640 -0.6754
 2736SOL    HW2 8908   6.214   4.594   2.999 -0.3539  0.2739 -0.7566
 2737SOL     OW 8909   5.351   2.136   0.106 -0.2573 -0.7890 -0.0090
 2737SOL    HW1 8910   5.408   2.211   0.123 -1.1939  0.0044 -0.3166
 2737SOL    HW2 8911   5.323   2.147   0.015 -0.7496 -1.2876  0.0760
 2738SOL     OW 8912   4.417   7.290   7.848 -0.3036  0.6134 -0.0566
 2738SOL    HW1 8913   4.346   7.242   7.891  1.8961 -1.7611  1.2065
 2738SOL    HW2 8914   4.449   7.230   7.781  0.9792  1.3232 -0.1161
 2739SOL     OW 8915   5.311   3.666   1.072  0.3391  0.4510  0.2027
 2739SOL    HW1 8916   5.373   3.593   1.062  0.0408 -0.3615  3.2778
 2739SOL    HW2 8917   5.360   3.732   1.121 -0.8678  0.2238  1.7757
 2740SOL     OW 8918   6.635   1.488   0.961 -0.2599  0.3727  0.4078
 2740SOL    HW1 8919   6.582   1.553   0.914 -0.0871 -1.7252 -3.0871
 2740SOL    HW2 8920   6.572   1.426   0.996 -0.2897  0.7196  0.9823
 2741SOL     OW 8921   0.021   1.713   7.079 -0.0664 -0.1140  0.0507
 2741SOL    HW1 8922  -0.034   1.693   7.154 -0.6905  2.2064  0.2853
 2741SOL    HW2 8923  -0.040   1.744   7.012  0.7380  0.5734 -0.3869
 2742SOL     OW 8924   5.838   4.311   3.176 -0.1610 -0.5135  0.1260
 2742SOL    HW1 8925   5.802   4.255   3.108  1.8381 -0.6837 -0.8465
 2742SOL    HW2 8926   5.812   4.268   3.258  0.8738 -2.6283 -0.5824
 2743SOL     OW 8927   1.723   4.310   1.061 -0.1100 -0.0096 -0.0242
 2743SOL    HW1 8928   1.716   4.217   1.041 -0.5787  0.4948 -2.4517
 2743SOL    HW2 8929   1.817   4.327   1.064  0.0308 -0.7902  1.9638
 2744SOL     OW 8930   7.538   0.363   6.599 -0.1480 -0.1940  0.3035
 2744SOL    HW1 8931   7.598   0.362   6.673 -1.3051 -1.6377  1.3046
 2744SOL    HW2 8932   7.453   0.339   6.637 -1.3070  1.3864 -1.1076
 2745SOL     OW 8933   1.910   0.409   2.439  0.6748 -0.6116 -0.3568
 2745SOL    HW1 8934   1.926   0.497   2.405  0.2763  0.0382  1.0570
 2745SOL    HW2 8935   1.996   0.368   2.442  1.0716  0.2305  0.2632
 2746SOL     OW 8936   6.879   3.073   2.833 -0.1919  0.0030 -0.1637
 2746SOL    HW1 8937   6.903   3.076   2.926  2.9185 -0.8192 -0.8210
 2746SOL    HW2 8938   6.828   2.993   2.824 -1.7930  0.8287  1.0146
 2747SOL     OW 8939   4.011   1.482   2.076  0.2700  0.2264 -0.0378
 2747SOL    HW1 8940   3.922   1.464   2.044  0.6044  0.4635 -1.1662
 2747SOL    HW2 8941   4.009   1.456   2.168 -0.4250 -1.5900 -0.5163
 2748SOL     OW 8942   4.970   7.640   7.712 -0.6107 -0.0386 -0.4981
 2748SOL    HW1 8943   4.969   7.614   7.620 -0.6459 -1.7645 -0.0434
 2748SOL    HW2 8944   4.877   7.641   7.737 -0.6036  0.4585 -0.4795
 2749SOL     OW 8945   6.075   4.190   6.864 -0.0516  0.3031 -0.3750
 2749SOL    HW1 8946   6.014   4.220   6.931  0.3493  1.7853 -0.6447
 2749SOL    HW2 8947   6.018   4.161   6.792 -0.4995 -1.6645  0.6781
 2750SOL     OW 8948   5.431   1.508   6.397  0.3407 -0.2721 -0.4135
 2750SOL    HW1 8949   5.458   1.501   6.306  2.7227 -0.5683  0.2574
 2750SOL    HW2 8950   5.416   1.417   6.424  0.4001 -0.2419 -0.2826
 2751SOL     OW 8951   7.333   7.140   3.753 -0.1508 -0.4483  0.4374
 2751SOL    HW1 8952   7.278   7.139   3.674 -1.3547 -1.6978  1.2418
 2751SOL    HW2 8953   7.367   7.050   3.759 -1.3170 -0.8307  2.1290
 2752SOL     OW 8954   1.870   2.282   6.979 -0.1088 -0.0888  0.2687
 2752SOL    HW1 8955   1.956   2.317   7.003  0.0546 -0.0187 -0.4110
 2752SOL    HW2 8956   1.814   2.303   7.054  0.3786  0.1960  0.5567
 2753SOL     OW 8957   1.849   0.065   6.816  0.1791  0.1855 -0.1704
 2753SOL    HW1 8958   1.809   0.149   6.791  0.4958  0.1726 -0.7461
 2753SOL    HW2 8959   1.925   0.089   6.869 -1.0938  0.1872  1.7428
 2754SOL     OW 8960   2.132   6.017   1.001  0.1248  0.7888  0.4783
 2754SOL    HW1 8961   2.115   6.104   1.038 -0.6539  0.4339  0.9614
 2754SOL    HW2 8962   2.137   6.032   0.906 -0.1742  1.3337  0.5448
 2755SOL     OW 8963   4.108   0.110   7.533 -0.1860  0.3323 -0.6868
 2755SOL    HW1 8964   4.126   0.036   7.475  0.1571  0.1246 -0.3173
 2755SOL    HW2 8965   4.014   0.103   7.551  0.1413 -1.0639  0.7453
 2756SOL     OW 8966   5.298   0.449   7.033  0.1296 -0.5918 -0.3441
 2756SOL    HW1 8967   5.343   0.514   7.087 -0.8781 -0.5644  0.4953
 2756SOL    HW2 8968   5.267   0.498   6.957 -0.8769  0.0020  0.4212
 2757SOL     OW 8969   1.934   6.617   5.504 -0.2178 -0.3366  0.6500
 2757SOL    HW1 8970   1.924   6.616   5.408 -2.2921  0.9853  0.7933
 2757SOL    HW2 8971   2.018   6.660   5.518  0.9466 -2.0659 -0.5607
 2758SOL     OW 8972   7.899   5.066   4.817 -0.6454  0.1951  0.0768
 2758SOL    HW1 8973   7.940   5.024   4.892  0.1539  0.7493 -0.0468
 2758SOL    HW2 8974   7.969   5.077   4.754 -1.2077  0.1927 -0.5624
 2759SOL     OW 8975   7.632   3.026   1.155 -0.6159  0.6644 -0.4604
 2759SOL    HW1 8976   7.602   2.938   1.177  1.1571 -0.4567 -2.2247
 2759SOL    HW2 8977   7.578   3.051   1.080 -0.9216  0.9920 -0.1373
 2760SOL     OW 8978   1.585   4.310   0.063  0.1466  0.7995 -0.3175
 2760SOL    HW1 8979   1.553   4.223   0.085 -0.5574  1.3611  0.9763
 2760SOL    HW2 8980   1.540   4.332  -0.019 -0.5004  0.3706 -0.0856
 2761SOL     OW 8981   4.238   1.533   4.317 -0.3595 -0.1577  0.7612
 2761SOL    HW1 8982   4.220   1.556   4.226 -1.3015  0.2887  1.0521
 2761SOL    HW2 8983   4.262   1.440   4.313  0.1849 -0.0033 -0.0022
 2762SOL     OW 8984   7.372   6.649   3.770 -0.1497 -0.4349 -0.5813
 2762SOL    HW1 8985   7.422   6.570   3.747  0.8179 -0.6287  1.7907
 2762SOL    HW2 8986   7.288   6.615   3.801  0.3416 -0.6245  0.6364
 2763SOL     OW 8987   1.990   1.919   5.651  0.1870  0.0581  0.1356
 2763SOL    HW1 8988   1.906   1.873   5.656 -1.5701  2.4416 -3.0314
 2763SOL    HW2 8989   2.000   1.960   5.737 -0.1940 -2.7341  1.6425
 2764SOL     OW 8990   2.666   5.636   1.633 -0.6366  0.0579  0.3833
 2764SOL    HW1 8991   2.659   5.618   1.727 -0.9922  0.0851  0.3639
 2764SOL    HW2 8992   2.637   5.727   1.624  0.5084  0.4438  0.3953
 2765SOL     OW 8993   5.270   2.348   4.542 -0.2971 -0.1804  0.0362
 2765SOL    HW1 8994   5.277   2.369   4.635  1.2093  0.3473 -0.1652
 2765SOL    HW2 8995   5.217   2.418   4.506 -0.2003  0.0699  0.3699
 2766SOL     OW 8996   0.967   2.623   3.880 -0.2993 -0.2639  0.1596
 2766SOL    HW1 8997   1.060   2.615   3.902 -0.0745  0.7999 -0.3475
 2766SOL    HW2 8998   0.922   2.617   3.964  0.4293  2.0916  0.7780
 2767SOL     OW 8999   4.204   5.943   3.841 -0.3480 -0.7081  0.0186
 2767SOL    HW1 9000   4.171   6.003   3.773 -1.1240  0.5824  1.4647
 2767SOL    HW2 9001   4.125   5.898   3.872 -0.2556 -0.1019  1.1563
 2768SOL     OW 9002   4.631   6.481   7.869 -0.4670  0.2265  0.2241
 2768SOL    HW1 9003   4.606   6.415   7.933 -0.7292 -0.5471 -0.6607
 2768SOL    HW2 9004   4.550   6.501   7.822  0.2502 -1.5748 -1.9983
 2769SOL     OW 9005   4.816   7.324   6.182 -0.2843  0.5500 -0.0959
 2769SOL    HW1 9006   4.722   7.338   6.173 -0.2497  0.8234 -0.0608
 2769SOL    HW2 9007   4.836   7.354   6.271 -0.1238  0.7229 -0.1896
 2770SOL     OW 9008   1.193   4.361   4.708 -0.5073 -0.2364 -0.2128
 2770SOL    HW1 9009   1.275   4.339   4.664  0.6576  1.6812  0.8440
 2770SOL    HW2 9010   1.150   4.422   4.649 -0.7105 -0.5052 -0.3414
 2771SOL     OW 9011   1.333   0.954   1.966  0.7878  0.3079 -0.0154
 2771SOL    HW1 9012   1.323   1.023   2.032 -1.6619 -1.0469  1.1416
 2771SOL    HW2 9013   1.421   0.919   1.982  1.3358  1.8722  0.6121
 2772SOL     OW 9014   1.735   4.421   3.148 -0.6967  0.0793  0.5497
 2772SOL    HW1 9015   1.710   4.408   3.239  1.5530  0.0203  1.2207
 2772SOL    HW2 9016   1.675   4.489   3.116 -1.1514  0.5223  2.2288
 2773SOL     OW 9017   7.802   3.274   1.767 -1.3109  0.0787 -0.3424
 2773SOL    HW1 9018   7.781   3.322   1.687 -1.4285  0.5552 -0.0278
 2773SOL    HW2 9019   7.896   3.288   1.779 -0.7465 -2.0549 -1.7511
 2774SOL     OW 9020   3.857   4.344   3.444 -0.0335 -0.1595  0.5534
 2774SOL    HW1 9021   3.776   4.394   3.432  0.2061  0.2111  0.4647
 2774SOL    HW2 9022   3.834   4.255   3.417 -0.5337 -0.1568  0.9560
 2775SOL     OW 9023   4.533   6.569   2.837 -0.2675  0.4163  0.5602
 2775SOL    HW1 9024   4.560   6.494   2.783 -0.3659  1.2045 -0.6238
 2775SOL    HW2 9025   4.516   6.531   2.923 -1.2570 -1.1098 -0.2486
 2776SOL     OW 9026   1.949   1.596   0.589 -0.2058 -0.0403  0.3175
 2776SOL    HW1 9027   2.013   1.527   0.570 -0.0203  0.5703 -1.4726
 2776SOL    HW2 9028   1.953   1.653   0.513 -1.2038  1.3151  1.2481
 2777SOL     OW 9029   1.174   1.728   0.883  0.1453 -0.1363 -0.1453
 2777SOL    HW1 9030   1.266   1.703   0.891  0.9968  2.6406 -0.3009
 2777SOL    HW2 9031   1.173   1.822   0.899 -2.5888  0.0417 -0.8692
 2778SOL     OW 9032   0.927   6.132   7.550  0.9163  0.5782  0.0005
 2778SOL    HW1 9033   0.957   6.206   7.602 -0.1353 -0.2541  1.9248
 2778SOL    HW2 9034   1.007   6.086   7.524  1.4758  1.0607  0.8327
 2779SOL     OW 9035   4.448   1.482   4.736  0.2160 -0.2869  0.0549
 2779SOL    HW1 9036   4.518   1.489   4.801  3.1697 -2.7990 -2.5616
 2779SOL    HW2 9037   4.435   1.571   4.704  1.8471  0.3132  0.9741
 2780SOL     OW 9038   7.627   2.809   3.212 -0.3195 -0.1971 -0.2820
 2780SOL    HW1 9039   7.685   2.738   3.238  0.2454  0.4315  0.1946
 2780SOL    HW2 9040   7.589   2.840   3.295  1.4229  1.7633 -0.1324
 2781SOL     OW 9041   7.595   5.602   2.265  0.1368 -0.1631 -0.7660
 2781SOL    HW1 9042   7.685   5.573   2.284 -0.2942 -2.2719 -1.6551
 2781SOL    HW2 9043   7.556   5.616   2.351  0.7793 -1.1126 -0.2958
 2782SOL     OW 9044   7.141   2.581   7.776 -0.1896 -0.6220 -0.2474
 2782SOL    HW1 9045   7.067   2.639   7.758  1.4787  1.5729 -0.5767
 2782SOL    HW2 9046   7.103   2.509   7.826 -2.5596  0.2917 -0.5674
 2783SOL     OW 9047   3.925   3.761   3.443 -0.3556 -0.1892 -0.3198
 2783SOL    HW1 9048   4.014   3.727   3.435 -0.3421  0.0449 -1.2012
 2783SOL    HW2 9049   3.869   3.689   3.417 -0.2989  0.6845 -3.1708
 2784SOL     OW 9050   0.989   3.387   5.263 -0.1398  0.0690 -0.1454
 2784SOL    HW1 9051   1.054   3.321   5.289  0.1262 -0.4153 -1.9061
 2784SOL    HW2 9052   0.905   3.351   5.291  0.2692  0.4841  1.7417
 2785SOL     OW 9053   0.078   6.263   4.936 -0.2207 -0.4877 -0.1470
 2785SOL    HW1 9054   0.090   6.250   5.031  0.6200 -1.0711 -0.3174
 2785SOL    HW2 9055   0.162   6.238   4.898 -0.0543  1.2014 -0.9354
 2786SOL     OW 9056   2.758   0.796   5.985  0.0605  0.4482  0.8021
 2786SOL    HW1 9057   2.710   0.778   6.065  0.7356  0.0401  1.1246
 2786SOL    HW2 9058   2.709   0.867   5.943 -0.6608  0.2244  1.2486
 2787SOL     OW 9059   4.033   0.463   2.264  0.6535  0.1107  0.2405
 2787SOL    HW1 9060   4.042   0.521   2.340  1.1170 -0.8265  0.9109
 2787SOL    HW2 9061   4.098   0.495   2.202 -0.4761  1.5878 -0.2543
 2788SOL     OW 9062   0.020   4.206   0.118  0.0483  0.0453 -0.0270
 2788SOL    HW1 9063   0.113   4.182   0.109 -0.2924 -1.6001  0.4439
 2788SOL    HW2 9064   0.007   4.215   0.212 -0.2934  0.1719 -0.0873
 2789SOL     OW 9065   5.775   4.557   7.232 -0.5093 -0.2176  0.3325
 2789SOL    HW1 9066   5.774   4.632   7.292  2.4586 -1.5520  2.2807
 2789SOL    HW2 9067   5.781   4.481   7.289 -1.6626 -1.8768 -1.6345
 2790SOL     OW 9068   1.451   6.735   2.885 -0.3204  0.0225  0.1512
 2790SOL    HW1 9069   1.530   6.713   2.933  0.7793 -0.3981 -1.7319
 2790SOL    HW2 9070   1.437   6.660   2.827 -0.0543  1.5428 -1.9971
 2791SOL     OW 9071   5.352   7.803   7.654  0.4296  0.0503  0.0370
 2791SOL    HW1 9072   5.299   7.832   7.579  1.3783 -1.3211 -1.2382
 2791SOL    HW2 9073   5.406   7.878   7.676 -1.4106  1.2133  0.8392
 2792SOL     OW 9074   1.848   1.437   0.082 -0.2202  0.3840  0.1136
 2792SOL    HW1 9075   1.931   1.476   0.053 -0.2305  1.6832  1.6920
 2792SOL    HW2 9076   1.810   1.502   0.140 -2.5602 -0.0443 -0.8466
 2793SOL     OW 9077   7.904   3.191   7.039  0.1496 -0.0462  0.1162
 2793SOL    HW1 9078   7.936   3.275   7.008 -0.2200  0.1105  0.1484
 2793SOL    HW2 9079   7.879   3.207   7.130  1.3248 -0.5274  0.5375
 2794SOL     OW 9080   1.909   2.296   7.832 -0.1548  0.4480  0.3256
 2794SOL    HW1 9081   1.943   2.301   7.743 -0.4513  0.5904  0.2191
 2794SOL    HW2 9082   1.949   2.217   7.869  0.9090  1.0408  0.4684
 2795SOL     OW 9083   6.021   3.739   0.633 -0.2801 -0.1182 -0.5252
 2795SOL    HW1 9084   5.931   3.726   0.606 -0.1785 -1.1624 -0.4136
 2795SOL    HW2 9085   6.018   3.813   0.694 -1.4488 -1.5958  1.3200
 2796SOL     OW 9086   2.674   5.086   7.488 -0.1200 -0.4101 -0.7391
 2796SOL    HW1 9087   2.649   5.151   7.554  0.4128 -1.5947  0.7066
 2796SOL    HW2 9088   2.682   5.135   7.407 -0.3768  1.2034  0.1752
 2797SOL     OW 9089   6.301   7.896   7.435 -0.0138 -0.7017 -0.1138
 2797SOL    HW1 9090   6.383   7.853   7.410 -0.2321 -1.9809  1.2183
 2797SOL    HW2 9091   6.300   7.890   7.531  0.6820  3.7179  0.3518
 2798SOL     OW 9092   4.447   2.784   5.753 -0.0443  0.0784  0.7014
 2798SOL    HW1 9093   4.387   2.800   5.827 -0.1671  0.7468  0.4666
 2798SOL    HW2 9094   4.404   2.716   5.702  0.4136 -0.9485  1.6522
 2799SOL     OW 9095   2.081   6.307   5.989 -0.5038  0.2814 -0.2069
 2799SOL    HW1 9096   2.166   6.322   5.947  0.5125 -1.3116  1.1739
 2799SOL    HW2 9097   2.019   6.354   5.933  1.1261  0.5909 -1.8739
 2800SOL     OW 9098   4.697   0.575   1.687  0.0437  0.0734  0.4599
 2800SOL    HW1 9099   4.711   0.490   1.646 -1.6654  0.3801 -0.8642
 2800SOL    HW2 9100   4.622   0.563   1.745 -0.5169  0.7688 -0.0962
 2801SOL     OW 9101   2.910   0.579   5.976 -0.1106  0.5375  0.2605
 2801SOL    HW1 9102   2.866   0.502   6.012 -0.1834  0.4058 -0.1083
 2801SOL    HW2 9103   2.848   0.651   5.989  0.0423  0.5727  0.7906
 2802SOL     OW 9104   2.632   1.535   1.312 -0.1271 -0.4576  0.1813
 2802SOL    HW1 9105   2.650   1.507   1.402  0.1889  0.8308  0.5456
 2802SOL    HW2 9106   2.539   1.559   1.313  0.0778  0.3688  0.4107
 2803SOL     OW 9107   0.476   3.405   3.279 -0.0903 -0.1671 -0.2659
 2803SOL    HW1 9108   0.394   3.355   3.278  0.7701 -1.6387 -1.0617
 2803SOL    HW2 9109   0.448   3.496   3.272 -1.6824 -0.5901  0.0946
 2804SOL     OW 9110   0.814   5.848   7.069  0.0531  0.5528 -0.9536
 2804SOL    HW1 9111   0.893   5.899   7.087  0.9080 -0.7298 -0.9502
 2804SOL    HW2 9112   0.772   5.837   7.154 -0.1824  1.2931 -0.9650
 2805SOL     OW 9113   6.209   4.028   0.477 -0.3248  0.4581 -0.1451
 2805SOL    HW1 9114   6.269   4.090   0.436  0.1396  1.1557  1.4927
 2805SOL    HW2 9115   6.144   4.084   0.521 -1.1226 -0.2589 -0.3927
 2806SOL     OW 9116   1.022   4.355   2.647 -0.4320  0.6125  0.0604
 2806SOL    HW1 9117   0.935   4.317   2.658 -0.5532  0.4894 -1.1826
 2806SOL    HW2 9118   1.082   4.292   2.687 -0.7516 -0.2217 -0.7686
 2807SOL     OW 9119   1.744   7.833   4.888 -0.1459  0.0484  0.9525
 2807SOL    HW1 9120   1.832   7.839   4.850 -0.1799  0.5874  0.9536
 2807SOL    HW2 9121   1.749   7.759   4.949 -0.5819 -2.0471 -1.3872
 2808SOL     OW 9122   3.863   7.190   6.170  0.5337  0.3128  0.4058
 2808SOL    HW1 9123   3.806   7.157   6.240 -0.8504  1.3058 -0.2217
 2808SOL    HW2 9124   3.951   7.174   6.203 -0.0445 -1.9713  1.0829
 2809SOL     OW 9125   0.409   3.673   2.228  0.1796  0.3125 -0.0901
 2809SOL    HW1 9126   0.389   3.764   2.208  3.8564  1.1176 -0.7823
 2809SOL    HW2 9127   0.494   3.676   2.272  1.2638 -2.8757 -1.6478
 2810SOL     OW 9128   0.151   3.766   3.637  0.0839  0.0585 -0.5592
 2810SOL    HW1 9129   0.103   3.818   3.574 -1.0864 -1.5378 -1.0230
 2810SOL    HW2 9130   0.088   3.747   3.707  0.6387 -0.2912 -0.1366
 2811SOL     OW 9131   2.704   6.669   5.645 -0.4479  0.3200 -0.1288
 2811SOL    HW1 9132   2.714   6.653   5.551  0.7020 -0.2500  0.0806
 2811SOL    HW2 9133   2.641   6.603   5.674 -1.1179  0.7561 -0.5627
 2812SOL     OW 9134   0.918   3.843   7.546 -0.4557 -0.0711 -0.2966
 2812SOL    HW1 9135   0.841   3.809   7.499 -0.7340  0.0045  0.1024
 2812SOL    HW2 9136   0.886   3.862   7.634 -0.0500  0.2510 -0.2172
 2813SOL     OW 9137   0.987   6.192   1.069 -0.2684 -0.1492  1.1206
 2813SOL    HW1 9138   0.996   6.273   1.118  2.0601 -0.3880  1.1661
 2813SOL    HW2 9139   1.042   6.129   1.115  0.5396 -0.8711 -0.7233
 2814SOL     OW 9140   4.060   1.816   6.909  0.3626  0.6884  0.3120
 2814SOL    HW1 9141   4.089   1.764   6.834  1.5612  1.1675  0.4128
 2814SOL    HW2 9142   4.139   1.827   6.963 -0.4872  0.2953  1.6878
 2815SOL     OW 9143   6.452   4.510   2.974  1.0858  0.1644 -0.6296
 2815SOL    HW1 9144   6.487   4.472   3.055  1.2058 -0.5202 -0.9977
 2815SOL    HW2 9145   6.393   4.443   2.939  0.6004  0.6838 -0.8223
 2816SOL     OW 9146   1.261   0.769   5.857 -0.0738  0.0885  0.1148
 2816SOL    HW1 9147   1.226   0.855   5.834 -1.4687 -0.4854 -0.0093
 2816SOL    HW2 9148   1.185   0.710   5.852  0.6429 -0.9651  1.2025
 2817SOL     OW 9149   4.109   5.669   6.029  0.0880 -0.7557  0.4082
 2817SOL    HW1 9150   4.194   5.660   5.985 -0.3147 -0.5903 -0.4343
 2817SOL    HW2 9151   4.080   5.757   6.006 -0.4058 -0.8894  0.5114
 2818SOL     OW 9152   5.632   5.978   5.668  0.1092 -0.0779  0.3893
 2818SOL    HW1 9153   5.618   6.017   5.582 -0.4108 -2.6123 -0.7698
 2818SOL    HW2 9154   5.722   6.002   5.690 -0.1418  1.6338 -0.2474
 2819SOL     OW 9155   2.186   1.961   7.337  0.3178 -0.2008  0.4613
 2819SOL    HW1 9156   2.108   1.914   7.367  0.1406 -0.3306 -0.1931
 2819SOL    HW2 9157   2.181   2.046   7.380 -0.5772  0.0666 -0.1549
 2820SOL     OW 9158   0.608   3.647   3.950 -0.0900 -0.2260  0.3362
 2820SOL    HW1 9159   0.636   3.574   3.895  0.0230 -1.4038  1.8764
 2820SOL    HW2 9160   0.611   3.723   3.893 -1.3027 -1.5751 -1.6508
 2821SOL     OW 9161   1.980   3.942   2.347 -0.3000  0.5265  0.1050
 2821SOL    HW1 9162   2.065   3.970   2.311  0.3406 -0.0186  1.1513
 2821SOL    HW2 9163   1.919   3.953   2.274  0.8351  0.0489 -0.9567
 2822SOL     OW 9164   2.306   3.955   4.642 -0.0463  0.3021  0.6269
 2822SOL    HW1 9165   2.304   3.991   4.554  2.0058 -0.5317  0.2083
 2822SOL    HW2 9166   2.233   3.999   4.687 -2.0271 -0.2727 -1.8198
 2823SOL     OW 9167   2.633   0.459   7.484  0.3719 -0.1967  0.6209
 2823SOL    HW1 9168   2.592   0.387   7.531  0.3426 -0.1200  0.7160
 2823SOL    HW2 9169   2.569   0.486   7.419  1.5202 -2.1847 -1.4473
 2824SOL     OW 9170   4.783   5.756   2.848  0.1731  0.0869  0.4500
 2824SOL    HW1 9171   4.748   5.800   2.770  0.6520 -0.5195 -0.1174
 2824SOL    HW2 9172   4.793   5.826   2.912 -1.2334  0.4321  0.3428
 2825SOL     OW 9173   1.719   1.132   2.814  0.7345 -0.0461 -0.4470
 2825SOL    HW1 9174   1.658   1.105   2.745  0.1293 -1.3606  0.5417
 2825SOL    HW2 9175   1.712   1.227   2.817 -4.0860 -0.1817  1.9505
 2826SOL     OW 9176   0.506   1.243   7.880  0.1785  0.1022 -0.1480
 2826SOL    HW1 9177   0.424   1.194   7.874 -0.5397  1.4240 -2.3268
 2826SOL    HW2 9178   0.553   1.202   7.953 -2.5339 -0.4694  1.4107
 2827SOL     OW 9179   3.627   2.797   0.788  0.4227 -0.4596 -0.4663
 2827SOL    HW1 9180   3.679   2.844   0.853 -1.3218  1.7905 -0.5447
 2827SOL    HW2 9181   3.668   2.819   0.704  1.6175 -1.9296 -0.3141
 2828SOL     OW 9182   1.439   4.929   1.598  0.7611 -0.5608  0.2510
 2828SOL    HW1 9183   1.415   4.850   1.647  1.8519 -2.0825 -1.4783
 2828SOL    HW2 9184   1.522   4.905   1.555 -0.2850  0.4879 -2.5530
 2829SOL     OW 9185   3.207   0.080   0.585 -0.2128  0.1835  0.0293
 2829SOL    HW1 9186   3.211   0.005   0.525 -0.1058 -0.0907  0.3800
 2829SOL    HW2 9187   3.156   0.145   0.537  1.2453  0.5932 -1.0535
 2830SOL     OW 9188   5.310   3.756   0.405 -0.4388  0.4353  0.5699
 2830SOL    HW1 9189   5.237   3.725   0.351 -0.3431  0.0292  0.6701
 2830SOL    HW2 9190   5.354   3.676   0.434 -0.0191  0.6767  0.6001
 2831SOL     OW 9191   1.939   6.974   0.269 -0.3007  0.2427 -0.3426
 2831SOL    HW1 9192   1.998   7.047   0.285 -1.0839  0.3453  2.5303
 2831SOL    HW2 9193   1.905   6.989   0.180  0.1980  2.8979 -0.1496
 2832SOL     OW 9194   4.266   5.132   6.698  0.1978 -0.6480 -0.3024
 2832SOL    HW1 9195   4.325   5.124   6.773  0.1332 -2.6824 -0.4281
 2832SOL    HW2 9196   4.199   5.193   6.727  0.6509 -0.7365  0.9741
 2833SOL     OW 9197   1.795   7.108   3.258  0.4266 -0.4630  0.2113
 2833SOL    HW1 9198   1.766   7.024   3.223 -1.8961  0.0102  0.8225
 2833SOL    HW2 9199   1.797   7.167   3.183 -1.5169 -0.2090  0.3241
 2834SOL     OW 9200   4.463   3.162   5.677 -0.1034  0.3772  0.5896
 2834SOL    HW1 9201   4.486   3.163   5.770  0.8943  1.0878  0.3537
 2834SOL    HW2 9202   4.517   3.231   5.638 -0.3427 -0.0585 -0.5606
 2835SOL     OW 9203   3.998   2.805   1.368 -0.3125 -0.7145 -0.0116
 2835SOL    HW1 9204   3.979   2.876   1.308 -0.4477 -2.0505 -1.6127
 2835SOL    HW2 9205   3.917   2.793   1.418 -1.0371 -1.1510 -1.2558
 2836SOL     OW 9206   7.181   5.470   7.755  0.0923  0.2133  0.1830
 2836SOL    HW1 9207   7.256   5.422   7.792 -0.0992  0.4652  0.9162
 2836SOL    HW2 9208   7.104   5.424   7.788 -0.0978  1.1064  1.0454
 2837SOL     OW 9209   3.296   6.145   0.677  0.3746 -0.0852 -0.4549
 2837SOL    HW1 9210   3.297   6.174   0.586  1.0769 -0.8773 -0.7013
 2837SOL    HW2 9211   3.375   6.183   0.715  1.9632 -2.6031 -1.0891
 2838SOL     OW 9212   3.029   5.945   1.913  0.2061  0.1292 -1.0711
 2838SOL    HW1 9213   3.105   6.002   1.922  0.2262  0.1208 -1.1895
 2838SOL    HW2 9214   3.065   5.858   1.899  0.1817  0.2158 -1.7436
 2839SOL     OW 9215   5.418   0.649   2.607  0.2591 -0.1064  0.5927
 2839SOL    HW1 9216   5.483   0.597   2.654  1.0282 -0.0801 -0.4073
 2839SOL    HW2 9217   5.405   0.602   2.525  0.2901  0.8083  0.0583
 2840SOL     OW 9218   2.356   3.347   5.701  0.0081 -0.0764 -0.7003
 2840SOL    HW1 9219   2.386   3.264   5.665  0.7889 -0.0991 -0.0346
 2840SOL    HW2 9220   2.379   3.343   5.794 -1.1969  0.3207 -0.3617
 2841SOL     OW 9221   0.965   6.953   5.775 -0.0949  0.2806 -0.2566
 2841SOL    HW1 9222   0.966   7.004   5.694  0.5918  1.7420  0.6462
 2841SOL    HW2 9223   0.917   7.007   5.837 -1.0687 -1.0529  0.2090
 2842SOL     OW 9224   7.330   6.053   7.494 -0.0747  0.3466  0.1014
 2842SOL    HW1 9225   7.334   6.018   7.405  0.4927  0.4952  0.0675
 2842SOL    HW2 9226   7.243   6.028   7.525  0.0457 -0.4504 -0.1846
 2843SOL     OW 9227   7.641   4.787   0.790 -0.0310 -0.1461  0.0199
 2843SOL    HW1 9228   7.721   4.821   0.750  0.0441 -0.7839 -0.3888
 2843SOL    HW2 9229   7.671   4.750   0.874  0.0024  0.1634  0.1440
 2844SOL     OW 9230   5.273   5.082   0.264  0.1731 -0.1768 -0.0698
 2844SOL    HW1 9231   5.261   5.055   0.355 -0.8474  0.2722 -0.0550
 2844SOL    HW2 9232   5.239   5.172   0.261  0.0478 -0.2444 -0.9157
 2845SOL     OW 9233   3.496   5.042   2.639 -0.3583  0.2611 -0.1516
 2845SOL    HW1 9234   3.459   4.972   2.694 -2.4175  1.2024 -0.2376
 2845SOL    HW2 9235   3.526   4.997   2.560  1.3069 -0.9170  1.0656
 2846SOL     OW 9236   1.891   1.437   2.572 -0.3781  0.2560 -0.0310
 2846SOL    HW1 9237   1.969   1.493   2.579 -0.1908  0.0667 -0.5956
 2846SOL    HW2 9238   1.924   1.355   2.535 -0.9089  0.3038 -0.6127
 2847SOL     OW 9239   6.431   0.224   6.170 -0.5875 -0.3892 -0.0897
 2847SOL    HW1 9240   6.384   0.165   6.111 -1.1000  0.5920 -0.6917
 2847SOL    HW2 9241   6.366   0.255   6.231 -0.5392  0.2814 -0.3690
 2848SOL     OW 9242   0.043   3.157   4.400 -0.2396  0.0753  0.2579
 2848SOL    HW1 9243   0.121   3.151   4.455 -0.2322 -0.4479  0.1984
 2848SOL    HW2 9244   0.026   3.067   4.373  1.2249  0.5699 -2.7010
 2849SOL     OW 9245   5.754   0.508   3.858 -0.0053  0.4340 -0.1812
 2849SOL    HW1 9246   5.834   0.555   3.882  0.0907  0.1607  0.0386
 2849SOL    HW2 9247   5.773   0.472   3.771 -0.0742  0.7878 -0.3444
 2850SOL     OW 9248   2.612   0.559   5.145 -0.4849 -0.0795  0.2288
 2850SOL    HW1 9249   2.635   0.579   5.235  1.8094 -1.3878  0.0117
 2850SOL    HW2 9250   2.541   0.494   5.151 -0.6489  0.1711  1.0619
 2851SOL     OW 9251   2.237   5.166   6.515 -0.0025  0.2751 -0.4467
 2851SOL    HW1 9252   2.312   5.196   6.565  0.2588 -1.2664  0.1384
 2851SOL    HW2 9253   2.172   5.236   6.523 -0.3745 -0.3039  2.9192
 2852SOL     OW 9254   4.290   6.551   3.972  0.2620  0.5930 -0.2088
 2852SOL    HW1 9255   4.196   6.536   3.984  0.5617 -0.7828  0.6909
 2852SOL    HW2 9256   4.327   6.542   4.060  1.4202 -0.4916 -0.7777
 2853SOL     OW 9257   3.355   1.198   2.713  0.0596  0.0297 -0.1351
 2853SOL    HW1 9258   3.410   1.120   2.703 -0.6238 -0.3981 -0.6497
 2853SOL    HW2 9259   3.291   1.175   2.780  0.5486  0.5631  0.5344
 2854SOL     OW 9260   1.965   7.099   6.252  0.4953 -0.7560 -0.0064
 2854SOL    HW1 9261   1.927   7.011   6.260 -1.2221 -0.1623 -0.9847
 2854SOL    HW2 9262   1.996   7.103   6.161 -1.2679  0.2746 -0.6155
 2855SOL     OW 9263   2.966   4.882   6.560 -0.2975 -0.3044  0.1577
 2855SOL    HW1 9264   2.899   4.948   6.579  0.2544  0.6456 -1.0028
 2855SOL    HW2 9265   2.919   4.799   6.557 -1.3644  0.2989 -0.2533
 2856SOL     OW 9266   1.281   3.969   6.795 -1.4591  0.1908  0.7923
 2856SOL    HW1 9267   1.285   3.945   6.887 -1.9890 -0.5713  0.6191
 2856SOL    HW2 9268   1.205   4.026   6.788 -0.5970  1.4236  1.0746
 2857SOL     OW 9269   3.133   6.959   7.976 -0.2448 -0.1516 -0.2287
 2857SOL    HW1 9270   3.055   7.014   7.964  0.1874  0.4503 -0.2660
 2857SOL    HW2 9271   3.098   6.877   8.010 -0.9222  0.0474 -0.4212
 2858SOL     OW 9272   2.060   6.544   1.812  0.0251  0.2399  0.0966
 2858SOL    HW1 9273   2.024   6.630   1.792 -2.8181 -0.9188 -0.2116
 2858SOL    HW2 9274   2.123   6.527   1.742 -0.9833  1.1791 -1.0737
 2859SOL     OW 9275   3.159   0.485   4.738  0.1681  0.0446 -0.3129
 2859SOL    HW1 9276   3.099   0.411   4.747  0.1189  0.2065  0.8686
 2859SOL    HW2 9277   3.115   0.544   4.677 -0.8973  0.1542  0.5197
 2860SOL     OW 9278   2.698   5.959   7.570  0.3479 -0.5269  0.0765
 2860SOL    HW1 9279   2.765   5.945   7.637  0.0653  0.5795  0.6135
 2860SOL    HW2 9280   2.731   6.031   7.517 -0.9583  0.9308  1.1366
 2861SOL     OW 9281   1.377   0.298   6.451  0.1923 -0.1499  0.4934
 2861SOL    HW1 9282   1.383   0.342   6.366 -0.1153  2.3044  1.6613
 2861SOL    HW2 9283   1.467   0.295   6.482  0.0746  1.1404  1.0567
 2862SOL     OW 9284   5.858   7.629   4.915 -0.1884 -0.3754 -0.2124
 2862SOL    HW1 9285   5.834   7.539   4.936 -1.1563 -0.1265 -0.1917
 2862SOL    HW2 9286   5.953   7.630   4.917 -0.1176 -0.5166  3.6551
 2863SOL     OW 9287   4.289   2.880   0.094 -0.1434  0.2386  0.3521
 2863SOL    HW1 9288   4.318   2.827   0.019 -1.5925  1.5852 -1.2365
 2863SOL    HW2 9289   4.305   2.970   0.067 -1.7007  0.8066  1.2167
 2864SOL     OW 9290   3.379   7.301   3.970  0.2689 -0.5561  0.1900
 2864SOL    HW1 9291   3.444   7.332   4.033 -0.4210  1.0606  0.1727
 2864SOL    HW2 9292   3.303   7.278   4.024 -0.4467  1.1532  0.0042
 2865SOL     OW 9293   1.207   0.604   6.981  0.5143  0.4979 -0.5509
 2865SOL    HW1 9294   1.210   0.521   7.030 -1.9713  0.3032 -0.5898
 2865SOL    HW2 9295   1.213   0.578   6.889 -1.1815  0.2083 -0.6163
 2866SOL     OW 9296   6.491   1.284   5.188  0.5041  0.1143 -0.0871
 2866SOL    HW1 9297   6.515   1.191   5.182  1.8370  0.5473 -3.0822
 2866SOL    HW2 9298   6.532   1.314   5.269  0.2887 -1.7961  0.7951
 2867SOL     OW 9299   6.921   1.256   2.721  0.6374  0.2490  0.8871
 2867SOL    HW1 9300   7.010   1.237   2.750  0.0668 -2.4793  1.1731
 2867SOL    HW2 9301   6.907   1.196   2.647 -1.6428 -1.0718  2.2579
 2868SOL     OW 9302   6.617   7.494   5.583 -0.5339  0.2129  0.1297
 2868SOL    HW1 9303   6.690   7.465   5.528  0.0006  1.1924  0.2965
 2868SOL    HW2 9304   6.559   7.541   5.524 -1.1291 -0.7141 -0.0364
 2869SOL     OW 9305   0.348   0.250   3.328  0.1079  0.7606  0.0876
 2869SOL    HW1 9306   0.298   0.214   3.402  0.8191  1.8517  1.1473
 2869SOL    HW2 9307   0.413   0.182   3.307 -0.2897  0.3200  0.2713
 2870SOL     OW 9308   3.852   7.183   7.107  0.3266  0.2351 -0.4751
 2870SOL    HW1 9309   3.854   7.242   7.031  0.0549 -1.3856 -1.7995
 2870SOL    HW2 9310   3.781   7.217   7.162 -0.3935  0.6582 -1.6339
 2871SOL     OW 9311   6.816   5.307   5.838  0.6258  0.1728 -0.5581
 2871SOL    HW1 9312   6.854   5.236   5.785  0.2276  0.8891 -1.8521
 2871SOL    HW2 9313   6.839   5.386   5.790  0.9474  0.9258  0.7992
 2872SOL     OW 9314   7.940   5.532   4.773 -0.2510 -0.3348 -0.0274
 2872SOL    HW1 9315   8.013   5.473   4.794  0.4304  0.1598 -0.9434
 2872SOL    HW2 9316   7.978   5.596   4.713 -1.2803  0.3385  0.0250
 2873SOL     OW 9317   4.586   1.391   0.824 -0.2936  0.4298  0.6814
 2873SOL    HW1 9318   4.513   1.446   0.853 -0.2882  0.5451  0.4832
 2873SOL    HW2 9319   4.643   1.385   0.900 -1.4814 -1.3277  1.4760
 2874SOL     OW 9320   5.527   7.499   5.773  0.2189 -0.0605  0.2909
 2874SOL    HW1 9321   5.525   7.588   5.809  2.1371 -0.0256  0.4164
 2874SOL    HW2 9322   5.546   7.512   5.680 -1.1132 -0.3060 -0.0373
 2875SOL     OW 9323   6.052   0.178   6.118  0.3564  0.1468 -0.4104
 2875SOL    HW1 9324   6.100   0.100   6.147 -1.3574 -2.0590 -2.9407
 2875SOL    HW2 9325   6.007   0.209   6.196 -0.3942 -2.5969  0.3653
 2876SOL     OW 9326   0.100   7.010   2.036 -0.2726 -0.1278  0.1973
 2876SOL    HW1 9327   0.161   7.051   1.975 -0.4086 -0.6995 -0.3453
 2876SOL    HW2 9328   0.037   7.078   2.058 -0.2053  0.0927 -0.2893
 2877SOL     OW 9329   1.645   7.282   7.053 -0.2971 -0.0773  0.0424
 2877SOL    HW1 9330   1.728   7.268   7.007  0.1486  1.9050  0.1311
 2877SOL    HW2 9331   1.615   7.368   7.023 -3.4851 -1.5997 -1.6370
 2878SOL     OW 9332   0.445   5.212   3.854  0.1956 -0.0756 -0.0591
 2878SOL    HW1 9333   0.445   5.178   3.943 -1.3907  0.4188  0.1530
 2878SOL    HW2 9334   0.392   5.150   3.805 -0.1652  0.4479 -0.3354
 2879SOL     OW 9335   4.114   7.852   6.232 -0.0756 -0.1344  0.3413
 2879SOL    HW1 9336   4.203   7.885   6.244 -0.6949  1.5737  0.4726
 2879SOL    HW2 9337   4.119   7.760   6.259  1.5237  0.0655  0.8438
 2880SOL     OW 9338   5.258   2.015   5.140  0.1046 -0.2552  0.8569
 2880SOL    HW1 9339   5.291   2.092   5.186 -0.0707 -0.4379  1.2977
 2880SOL    HW2 9340   5.326   1.994   5.076 -0.0030  0.4676  0.5006
 2881SOL     OW 9341   1.031   1.753   0.621  0.1196 -0.0228 -0.0577
 2881SOL    HW1 9342   1.090   1.827   0.635 -1.7505  1.4134  0.6909
 2881SOL    HW2 9343   1.062   1.686   0.682  1.2688  0.4785 -0.0611
 2882SOL     OW 9344   0.074   7.188   1.536  0.2170  1.0395  0.4610
 2882SOL    HW1 9345  -0.002   7.180   1.593 -0.3381 -0.1799 -0.3916
 2882SOL    HW2 9346   0.148   7.157   1.588 -0.2552  0.1089  0.5837
 2883SOL     OW 9347   2.438   3.226   6.933 -0.2780  0.0165  0.0562
 2883SOL    HW1 9348   2.521   3.271   6.948  1.0463 -1.7189 -1.5789
 2883SOL    HW2 9349   2.387   3.287   6.880  0.0216  0.9935  0.8577
 2884SOL     OW 9350   0.396   7.205   0.927 -0.3363 -0.5972 -0.0086
 2884SOL    HW1 9351   0.355   7.123   0.899  0.8000 -0.8530 -0.9913
 2884SOL    HW2 9352   0.386   7.205   1.023 -2.2420 -0.8270 -0.1633
 2885SOL     OW 9353   3.312   3.422   0.651 -0.1823 -0.2271 -0.2801
 2885SOL    HW1 9354   3.369   3.368   0.595 -0.6542  0.3254 -1.3307
 2885SOL    HW2 9355   3.369   3.490   0.686 -0.1631  0.2884 -1.2783
 2886SOL     OW 9356   2.690   1.712   3.756  0.0564 -0.2635  0.7563
 2886SOL    HW1 9357   2.624   1.722   3.825  2.0503 -0.1531  2.7745
 2886SOL    HW2 9358   2.674   1.624   3.721 -2.5715  0.6030 -0.5018
 2887SOL     OW 9359   1.513   5.566   5.355  0.0200  0.0681  0.2612
 2887SOL    HW1 9360   1.591   5.516   5.381 -0.4835 -2.0393 -1.9145
 2887SOL    HW2 9361   1.467   5.582   5.437  2.0789  0.2265  1.4569
 2888SOL     OW 9362   2.550   4.006   4.138 -0.0625  0.1563  0.1190
 2888SOL    HW1 9363   2.595   3.950   4.075  2.5190 -0.8236  2.5646
 2888SOL    HW2 9364   2.593   4.091   4.129 -0.0356  0.1508  0.1942
 2889SOL     OW 9365   7.475   2.691   4.618  0.2014 -0.2146 -0.7577
 2889SOL    HW1 9366   7.476   2.599   4.644 -0.7291  0.1778  0.7821
 2889SOL    HW2 9367   7.417   2.693   4.541 -0.4044 -0.8113 -0.3280
 2890SOL     OW 9368   5.890   5.805   6.831  0.8179 -0.1927  0.2897
 2890SOL    HW1 9369   5.961   5.813   6.767  0.8233 -0.8252  0.2129
 2890SOL    HW2 9370   5.812   5.830   6.783  1.1894  2.3184  0.8577
 2891SOL     OW 9371   4.271   3.859   5.557  0.2560  0.2242  0.2366
 2891SOL    HW1 9372   4.275   3.778   5.608  2.2148  0.3775  0.4159
 2891SOL    HW2 9373   4.221   3.836   5.479  0.4417 -1.0460  0.4745
 2892SOL     OW 9374   7.295   5.275   2.782  0.2838  0.4780 -0.3297
 2892SOL    HW1 9375   7.254   5.359   2.801 -0.5882 -0.1656  0.7446
 2892SOL    HW2 9376   7.313   5.238   2.868 -0.6610 -1.0580 -0.7620
 2893SOL     OW 9377   7.633   5.870   1.186  0.0641  0.0762  0.3954
 2893SOL    HW1 9378   7.669   5.886   1.274 -1.2538 -2.5285  1.5342
 2893SOL    HW2 9379   7.538   5.876   1.197 -0.0896  1.2049 -1.2434
 2894SOL     OW 9380   6.239   5.849   5.470 -0.4377 -0.1555  0.0706
 2894SOL    HW1 9381   6.230   5.836   5.375 -0.9778  0.3978  0.0352
 2894SOL    HW2 9382   6.331   5.831   5.489  0.1205  1.4950 -0.8578
 2895SOL     OW 9383   2.783   6.932   0.177 -0.3000  0.0395 -0.4097
 2895SOL    HW1 9384   2.805   6.843   0.150  0.1027 -0.1998  0.6496
 2895SOL    HW2 9385   2.687   6.934   0.179 -0.3355 -1.0096  1.4550
 2896SOL     OW 9386   2.272   6.651   6.871 -0.5516  0.1348  0.3786
 2896SOL    HW1 9387   2.238   6.565   6.847 -0.7054  0.0462  0.9060
 2896SOL    HW2 9388   2.279   6.649   6.966 -0.3325  0.6235  0.3782
 2897SOL     OW 9389   2.107   3.609   0.913  0.4626 -0.5155 -0.6465
 2897SOL    HW1 9390   2.146   3.697   0.912 -0.7610  0.0548 -0.1169
 2897SOL    HW2 9391   2.112   3.580   0.822  2.0301 -0.4382 -0.6136
 2898SOL     OW 9392   4.991   3.023   7.570 -0.2148  0.1299  0.1100
 2898SOL    HW1 9393   5.049   2.988   7.638  0.7483 -0.1512 -0.8384
 2898SOL    HW2 9394   4.944   2.946   7.537  0.1734  0.0925 -0.3503
 2899SOL     OW 9395   5.132   7.336   7.502 -0.5755 -0.4596 -0.2092
 2899SOL    HW1 9396   5.192   7.407   7.524 -1.7594  0.4812  0.0485
 2899SOL    HW2 9397   5.129   7.283   7.582  0.6330 -1.0800 -0.5397
 2900SOL     OW 9398   3.413   7.830   6.057 -0.1186  0.0408 -0.6246
 2900SOL    HW1 9399   3.497   7.806   6.096 -0.8493 -0.0482  0.9716
 2900SOL    HW2 9400   3.409   7.780   5.976  1.6873  0.6203 -1.1308
 2901SOL     OW 9401   7.462   1.667   3.279 -0.0302  0.0487 -0.0558
 2901SOL    HW1 9402   7.463   1.632   3.368  0.6006  1.2413  0.4307
 2901SOL    HW2 9403   7.407   1.745   3.285  2.1626  1.7084 -0.0329
 2902SOL     OW 9404   2.181   4.310   1.691 -0.1866 -0.4646  0.3022
 2902SOL    HW1 9405   2.233   4.305   1.611  0.8049 -3.6991  1.0141
 2902SOL    HW2 9406   2.237   4.273   1.759 -2.4069 -1.6058  1.6500
 2903SOL     OW 9407   6.601   3.870   5.772  0.5256 -0.1339  0.1773
 2903SOL    HW1 9408   6.628   3.832   5.688  0.8653  0.6033 -0.0561
 2903SOL    HW2 9409   6.673   3.928   5.796  0.8866 -1.0520  1.4658
 2904SOL     OW 9410   4.067   5.324   6.768 -0.2488  0.0213 -0.2566
 2904SOL    HW1 9411   3.976   5.324   6.796 -0.7383  0.6336 -1.7528
 2904SOL    HW2 9412   4.094   5.416   6.773  0.5724 -0.2535  0.9594
 2905SOL     OW 9413   6.215   3.595   7.727 -0.2517  0.5488  0.3128
 2905SOL    HW1 9414   6.152   3.534   7.764  0.1839  1.2444  2.3064
 2905SOL    HW2 9415   6.161   3.667   7.694 -0.6243  0.1314 -0.0029
 2906SOL     OW 9416   5.054   4.086   1.880  0.0240  0.7009  0.1846
 2906SOL    HW1 9417   4.987   4.021   1.898 -0.1860  1.0055  0.5293
 2906SOL    HW2 9418   5.046   4.150   1.951 -0.9562  2.0448 -1.0664
 2907SOL     OW 9419   5.986   5.010   2.299  0.0300  0.2824 -0.1788
 2907SOL    HW1 9420   6.039   4.990   2.222  2.1630  0.7014  1.0950
 2907SOL    HW2 9421   5.988   4.930   2.351  1.5343  1.0295  1.0023
 2908SOL     OW 9422   5.235   2.553   1.871  0.0816  0.1756 -0.1336
 2908SOL    HW1 9423   5.325   2.569   1.842  0.6050  0.2591  1.4653
 2908SOL    HW2 9424   5.239   2.470   1.918 -0.6622  0.2383  0.0485
 2909SOL     OW 9425   6.637   2.054   3.663 -0.1127  0.7822  0.4465
 2909SOL    HW1 9426   6.702   2.011   3.717  0.0277  1.6452  0.9825
 2909SOL    HW2 9427   6.620   1.992   3.592  0.5490  0.1295  0.8434
 2910SOL     OW 9428   2.315   3.870   1.702  0.2639 -0.3668 -0.1773
 2910SOL    HW1 9429   2.363   3.899   1.625  0.1740 -0.7852 -0.3904
 2910SOL    HW2 9430   2.225   3.897   1.687  0.7005  2.0012  1.0004
 2911SOL     OW 9431   5.627   1.029   6.364  0.2306 -0.5127  0.1857
 2911SOL    HW1 9432   5.595   0.970   6.296  1.2113  0.0679 -0.8088
 2911SOL    HW2 9433   5.704   0.986   6.399 -0.2591 -0.7976  0.9231
 2912SOL     OW 9434   3.170   1.244   5.656 -0.6392  0.2867 -0.5312
 2912SOL    HW1 9435   3.246   1.186   5.659 -0.0110  1.1074  0.0183
 2912SOL    HW2 9436   3.182   1.295   5.576 -0.2672  0.8616 -0.1127
 2913SOL     OW 9437   1.907   5.416   7.307  0.4803 -0.4169  0.0018
 2913SOL    HW1 9438   1.893   5.482   7.239  1.6038  0.0625  0.2086
 2913SOL    HW2 9439   1.997   5.430   7.335  0.5770 -1.7192  0.4090
 2914SOL     OW 9440   7.799   3.155   4.020  0.2326  0.0828  0.1763
 2914SOL    HW1 9441   7.853   3.077   4.032  1.3499  0.9587  1.1015
 2914SOL    HW2 9442   7.752   3.164   4.103  0.1160  0.3870  0.0768
 2915SOL     OW 9443   0.810   5.818   1.547 -0.2898 -0.2569  0.0771
 2915SOL    HW1 9444   0.881   5.869   1.507  0.4118 -1.2281  0.0508
 2915SOL    HW2 9445   0.849   5.779   1.625 -1.3541  0.7622  1.1669
 2916SOL     OW 9446   7.412   7.200   6.888 -0.1285  0.5464 -0.0113
 2916SOL    HW1 9447   7.484   7.139   6.870 -1.8935 -1.0863 -2.0068
 2916SOL    HW2 9448   7.352   7.152   6.944 -0.4051  1.3343  0.3866
 2917SOL     OW 9449   3.755   1.094   6.564 -0.0950  0.4050  0.0185
 2917SOL    HW1 9450   3.738   1.154   6.637 -0.6448 -0.0966  0.3071
 2917SOL    HW2 9451   3.845   1.113   6.538 -0.2514  1.3407  0.1228
 2918SOL     OW 9452   6.810   1.151   4.348  0.0424 -0.4774  0.0792
 2918SOL    HW1 9453   6.803   1.060   4.375 -0.0014 -0.5379 -0.1326
 2918SOL    HW2 9454   6.749   1.198   4.405 -0.0593 -0.6057  0.0759
 2919SOL     OW 9455   0.389   5.165   4.890  0.1297 -0.1974 -0.2171
 2919SOL    HW1 9456   0.440   5.139   4.813 -1.6430  0.6928 -1.7789
 2919SOL    HW2 9457   0.451   5.214   4.944  1.1509  0.1575 -1.6403
 2920SOL     OW 9458   3.578   7.723   4.040 -0.1508  0.0394 -0.1844
 2920SOL    HW1 9459   3.663   7.744   4.002 -0.7705  0.1018 -1.6135
 2920SOL    HW2 9460   3.520   7.711   3.964 -1.7779  1.5351  0.7293
 2921SOL     OW 9461   1.631   3.453   0.255  0.5680  0.1197 -0.1476
 2921SOL    HW1 9462   1.545   3.411   0.253 -0.3297  1.8841 -1.5575
 2921SOL    HW2 9463   1.659   3.453   0.163  1.8012  0.0931  0.2208
 2922SOL     OW 9464   3.211   1.904   2.625  0.0078 -0.0192 -0.0410
 2922SOL    HW1 9465   3.294   1.937   2.591  0.6262 -1.3591  0.0700
 2922SOL    HW2 9466   3.233   1.816   2.658 -1.0907  0.2523  1.5276
 2923SOL     OW 9467   1.716   3.419   1.111  0.3246  0.2410 -0.2027
 2923SOL    HW1 9468   1.785   3.481   1.087  0.4632  0.7237  1.3379
 2923SOL    HW2 9469   1.637   3.474   1.119 -0.1383 -0.2209 -1.4309
 2924SOL     OW 9470   3.208   0.279   4.979  0.1334 -0.0460 -0.3712
 2924SOL    HW1 9471   3.137   0.265   4.916  0.8864  1.6020 -1.6716
 2924SOL    HW2 9472   3.169   0.334   5.047 -1.1377 -3.1238  1.5824
 2925SOL     OW 9473   5.732   6.884   5.723 -0.4724 -0.4429  0.0268
 2925SOL    HW1 9474   5.675   6.948   5.766  0.3839  0.0432  0.4734
 2925SOL    HW2 9475   5.738   6.812   5.786  1.0879  0.4327  0.9584
 2926SOL     OW 9476   0.249   7.629   5.596  0.0887  0.0538  0.6287
 2926SOL    HW1 9477   0.231   7.650   5.504  1.2760  1.3731  0.6716
 2926SOL    HW2 9478   0.339   7.597   5.597  1.0701  2.6145  1.6506
 2927SOL     OW 9479   6.683   6.824   0.420 -0.1092  0.5268  0.1261
 2927SOL    HW1 9480   6.753   6.778   0.374  0.4661  1.5432 -0.0339
 2927SOL    HW2 9481   6.716   6.836   0.509  0.3218  1.8164 -0.1894
 2928SOL     OW 9482   7.045   6.142   0.762 -0.2018 -0.2139  0.4772
 2928SOL    HW1 9483   7.081   6.163   0.848  1.0406  0.5633 -0.2041
 2928SOL    HW2 9484   6.950   6.141   0.776 -0.0244 -0.4314  1.9114
 2929SOL     OW 9485   6.770   2.317   5.205 -0.1501 -0.1277 -0.5372
 2929SOL    HW1 9486   6.770   2.308   5.301  1.0587  1.3713 -0.3609
 2929SOL    HW2 9487   6.774   2.227   5.173  1.9692 -0.6047  0.8736
 2930SOL     OW 9488   5.087   0.378   4.664 -0.7975 -0.2581 -0.6382
 2930SOL    HW1 9489   5.165   0.427   4.689 -0.9561 -0.6999  0.8031
 2930SOL    HW2 9490   5.106   0.346   4.576  0.5623 -0.1841 -0.3921
 2931SOL     OW 9491   1.345   1.356   6.740 -0.4417 -0.4731 -0.3888
 2931SOL    HW1 9492   1.427   1.307   6.745  0.3656  0.6926 -1.4294
 2931SOL    HW2 9493   1.349   1.400   6.655 -1.5112  0.6771  0.1244
 2932SOL     OW 9494   2.549   7.052   7.562 -0.3926 -0.1998 -0.2130
 2932SOL    HW1 9495   2.636   7.092   7.567 -0.7198  0.5086  0.0030
 2932SOL    HW2 9496   2.502   7.104   7.497 -0.2690 -1.3736 -1.2867
 2933SOL     OW 9497   5.943   5.127   7.217  0.0318  0.0779  0.2954
 2933SOL    HW1 9498   5.855   5.130   7.180  0.1076  0.5045  0.1484
 2933SOL    HW2 9499   5.976   5.216   7.208  0.0338  0.2075  1.4385
 2934SOL     OW 9500   3.659   3.632   5.055 -0.4999  0.0796 -0.5335
 2934SOL    HW1 9501   3.710   3.552   5.046  0.2116  0.3093  1.1123
 2934SOL    HW2 9502   3.583   3.619   4.999 -0.1870 -1.5689 -0.6017
 2935SOL     OW 9503   2.877   4.591   1.578 -0.0263 -0.5815  0.1226
 2935SOL    HW1 9504   2.820   4.515   1.566  1.1493 -1.1412 -2.8929
 2935SOL    HW2 9505   2.819   4.667   1.569 -0.5728 -1.1502 -1.4627
 2936SOL     OW 9506   5.534   3.183   5.143  0.3252 -0.1312 -0.1856
 2936SOL    HW1 9507   5.558   3.114   5.205 -0.7251  0.0691  0.4756
 2936SOL    HW2 9508   5.446   3.159   5.113  0.6729 -0.0327 -1.3511
 2937SOL     OW 9509   3.024   2.213   6.978  0.0446 -0.3858  0.4050
 2937SOL    HW1 9510   2.996   2.268   7.051 -0.0382  0.7944 -0.4849
 2937SOL    HW2 9511   2.979   2.250   6.902  0.0118 -1.6836 -0.2251
 2938SOL     OW 9512   5.240   4.952   4.926  0.5825  0.3729  0.4676
 2938SOL    HW1 9513   5.160   4.958   4.978  0.2370  0.1876 -0.0316
 2938SOL    HW2 9514   5.283   4.873   4.959  2.1287  2.1025  2.8673
 2939SOL     OW 9515   2.598   1.690   2.367 -0.3278  0.3083  0.3021
 2939SOL    HW1 9516   2.625   1.631   2.436 -0.9716 -1.5907 -0.9947
 2939SOL    HW2 9517   2.535   1.750   2.409  0.8114  0.5168  1.7762
 2940SOL     OW 9518   3.449   4.017   1.873 -0.2307 -0.1566  0.2886
 2940SOL    HW1 9519   3.506   4.023   1.797  0.1159  1.3429  0.6274
 2940SOL    HW2 9520   3.361   4.006   1.837 -0.2818  2.0804 -0.4312
 2941SOL     OW 9521   6.693   2.787   4.424 -0.6837 -0.0175  0.0935
 2941SOL    HW1 9522   6.723   2.723   4.489 -0.2523 -0.4296 -0.4937
 2941SOL    HW2 9523   6.600   2.767   4.412 -0.8268  0.2221  0.7551
 2942SOL     OW 9524   5.616   0.121   7.865 -0.3624  0.2323 -0.3447
 2942SOL    HW1 9525   5.542   0.112   7.805 -0.5805  0.6334 -0.1362
 2942SOL    HW2 9526   5.672   0.046   7.844 -1.2972 -0.6248  0.1547
 2943SOL     OW 9527   7.520   1.793   4.230  0.2841 -0.3520 -0.6324
 2943SOL    HW1 9528   7.504   1.811   4.323 -1.7282  0.9982 -1.1725
 2943SOL    HW2 9529   7.595   1.848   4.207 -0.5846  1.0321 -0.2825
 2944SOL     OW 9530   7.734   6.038   0.164 -0.0813  0.4275 -0.2068
 2944SOL    HW1 9531   7.682   6.029   0.084  0.3651 -1.4566 -0.3110
 2944SOL    HW2 9532   7.668   6.037   0.234 -0.2695 -1.6200 -0.3584
 2945SOL     OW 9533   2.473   1.237   7.835  0.2505 -0.2862  0.0931
 2945SOL    HW1 9534   2.567   1.255   7.826 -0.2214  3.1673  0.7392
 2945SOL    HW2 9535   2.466   1.142   7.829  3.7226 -0.6238 -0.4655
 2946SOL     OW 9536   3.405   0.872   3.310  0.4849  0.2288  0.5150
 2946SOL    HW1 9537   3.338   0.875   3.241  2.4756  0.6947 -1.5325
 2946SOL    HW2 9538   3.405   0.961   3.346  0.5440  0.4758 -0.0695
 2947SOL     OW 9539   7.370   2.198   3.181  0.2122 -0.3492  0.0733
 2947SOL    HW1 9540   7.326   2.256   3.243 -0.2528 -0.0529 -0.5293
 2947SOL    HW2 9541   7.442   2.251   3.146 -1.2900  0.5615 -1.8458
 2948SOL     OW 9542   0.044   4.882   0.487 -0.3235 -0.6292  0.2637
 2948SOL    HW1 9543   0.014   4.825   0.416  0.7072 -0.1606 -0.5810
 2948SOL    HW2 9544   0.133   4.906   0.463 -0.4556  0.7214  0.9782
 2949SOL     OW 9545   7.684   7.859   4.035  0.6411  0.1279  0.1021
 2949SOL    HW1 9546   7.609   7.804   4.013  0.0254  0.5320  1.1014
 2949SOL    HW2 9547   7.647   7.945   4.053  1.3284  0.3066  0.7254
 2950SOL     OW 9548   1.956   0.071   2.071  0.0107 -0.0552 -0.7106
 2950SOL    HW1 9549   1.949   0.086   2.165  0.9870 -2.1472 -0.2519
 2950SOL    HW2 9550   1.933  -0.021   2.059  1.6482 -0.3234 -2.2664
 2951SOL     OW 9551   5.665   4.231   3.880  0.0637 -0.2687  0.2323
 2951SOL    HW1 9552   5.605   4.254   3.951  0.2003 -0.0703  0.2867
 2951SOL    HW2 9553   5.677   4.313   3.832  1.2244 -0.0071  0.9249
 2952SOL     OW 9554   0.051   2.684   4.793  0.3870 -0.3679 -0.6258
 2952SOL    HW1 9555  -0.024   2.687   4.733 -2.5047  2.4190  2.6189
 2952SOL    HW2 9556   0.115   2.744   4.754 -0.4221 -0.3560 -2.0043
 2953SOL     OW 9557   0.226   5.672   4.711 -0.0308  0.0591 -0.1099
 2953SOL    HW1 9558   0.311   5.704   4.679  0.8587 -0.4317  1.6244
 2953SOL    HW2 9559   0.162   5.730   4.670  1.1803  0.7789 -1.0656
 2954SOL     OW 9560   5.451   0.696   1.176  0.3300  0.5215  0.2902
 2954SOL    HW1 9561   5.382   0.639   1.141 -0.6751  1.5846  0.4684
 2954SOL    HW2 9562   5.476   0.752   1.103  0.4607  0.6507  0.4314
 2955SOL     OW 9563   4.054   7.924   0.677 -0.0210 -0.2311  0.0419
 2955SOL    HW1 9564   4.025   7.950   0.764 -1.0880  0.5311 -0.5142
 2955SOL    HW2 9565   4.142   7.962   0.669  0.1872 -0.5110  0.8584
 2956SOL     OW 9566   4.354   1.493   0.904  0.2585 -0.5206 -0.4577
 2956SOL    HW1 9567   4.286   1.531   0.959  0.6349 -1.2151  0.5211
 2956SOL    HW2 9568   4.308   1.430   0.848 -0.4105  1.4963 -2.2959
 2957SOL     OW 9569   5.883   0.042   6.700  0.6468 -0.0115  0.5921
 2957SOL    HW1 9570   5.807   0.042   6.641  1.1464  0.4235 -0.0571
 2957SOL    HW2 9571   5.950   0.091   6.653  1.0662  0.3112  1.5124
 2958SOL     OW 9572   2.783   7.677   7.954  0.1735 -0.1035 -0.1297
 2958SOL    HW1 9573   2.775   7.739   7.881  1.2485 -0.1712 -0.3185
 2958SOL    HW2 9574   2.694   7.644   7.967 -0.1912  0.5674 -0.8313
 2959SOL     OW 9575   2.425   0.519   2.449  0.1194  0.1503 -0.0026
 2959SOL    HW1 9576   2.330   0.519   2.455 -0.1927 -0.1963 -3.2298
 2959SOL    HW2 9577   2.451   0.603   2.488 -1.3948  0.0031  1.4485
 2960SOL     OW 9578   4.327   0.555   6.478 -0.1280  0.4403  0.6961
 2960SOL    HW1 9579   4.272   0.497   6.425  2.4964 -0.2918 -1.4169
 2960SOL    HW2 9580   4.301   0.536   6.569 -1.3691 -1.9273 -0.0806
 2961SOL     OW 9581   0.297   3.701   7.780  0.2140  0.1199  0.3848
 2961SOL    HW1 9582   0.307   3.685   7.874  1.1533 -0.5828  0.1894
 2961SOL    HW2 9583   0.261   3.620   7.746 -0.3209  0.4488  0.1615
 2962SOL     OW 9584   0.871   2.780   2.985 -0.2054 -0.3582 -0.3427
 2962SOL    HW1 9585   0.836   2.692   2.975 -0.9090 -0.5480  2.6977
 2962SOL    HW2 9586   0.801   2.830   3.028  1.6466  0.4044  2.0657
 2963SOL     OW 9587   4.342   0.802   1.021  0.1301 -0.4388 -0.1567
 2963SOL    HW1 9588   4.260   0.757   1.002  0.3169 -0.8562  0.0175
 2963SOL    HW2 9589   4.357   0.857   0.944 -0.0810 -0.7031 -0.3905
 2964SOL     OW 9590   3.512   0.918   1.795 -0.2107 -0.7338  0.4447
 2964SOL    HW1 9591   3.568   0.968   1.854  1.8143 -2.1118 -0.2222
 2964SOL    HW2 9592   3.521   0.827   1.824 -0.4687 -1.2295 -0.9488
 2965SOL     OW 9593   2.285   3.492   5.485 -0.2334  0.0356 -0.3006
 2965SOL    HW1 9594   2.341   3.568   5.504  1.1451 -0.7228 -1.1186
 2965SOL    HW2 9595   2.315   3.424   5.545 -1.5858  0.1693  0.5525
 2966SOL     OW 9596   3.482   0.323   4.926  0.3423 -0.0814  0.2094
 2966SOL    HW1 9597   3.391   0.303   4.949 -0.1364  0.7948 -0.8121
 2966SOL    HW2 9598   3.511   0.248   4.875  0.7965 -1.1676  1.9860
 2967SOL     OW 9599   1.961   0.491   1.192 -0.9726  0.9261 -0.1054
 2967SOL    HW1 9600   1.913   0.415   1.159 -0.4199  0.2574  0.5799
 2967SOL    HW2 9601   1.897   0.539   1.244 -0.8545 -0.1262  1.0625
 2968SOL     OW 9602   1.984   2.422   7.383 -0.9082 -0.0617  0.2093
 2968SOL    HW1 9603   1.966   2.471   7.463 -0.3656 -0.3371  0.5085
 2968SOL    HW2 9604   2.012   2.335   7.414  0.9076  0.3345 -0.2082
 2969SOL     OW 9605   4.693   5.561   0.221  0.1206 -0.0918 -0.6093
 2969SOL    HW1 9606   4.609   5.584   0.181  0.1407  0.2868 -0.4397
 2969SOL    HW2 9607   4.733   5.645   0.242  0.1059 -0.2815  0.2109
 2970SOL     OW 9608   6.431   2.513   0.698 -0.1220  0.3341 -0.1144
 2970SOL    HW1 9609   6.461   2.427   0.670 -4.2005 -1.8412  1.3650
 2970SOL    HW2 9610   6.480   2.531   0.778  3.1396  1.1304 -2.1133
 2971SOL     OW 9611   0.859   0.251   5.692 -0.7303 -0.6313  0.3078
 2971SOL    HW1 9612   0.802   0.185   5.651 -1.5599 -0.1053  0.5938
 2971SOL    HW2 9613   0.941   0.244   5.644 -1.0472 -1.3681 -0.1559
 2972SOL     OW 9614   0.726   7.532   3.348  0.0287 -0.2154 -0.2923
 2972SOL    HW1 9615   0.780   7.467   3.303 -0.6074 -1.5774  0.8324
 2972SOL    HW2 9616   0.659   7.556   3.284  0.2230 -0.7295 -0.6972
 2973SOL     OW 9617   4.202   2.056   7.270  0.4441  0.0690 -0.2723
 2973SOL    HW1 9618   4.274   2.119   7.282 -0.3010  0.7798  0.6392
 2973SOL    HW2 9619   4.128   2.097   7.314 -1.1784  0.4264 -3.1222
 2974SOL     OW 9620   1.059   0.654   6.189  0.5687 -0.2005 -0.2033
 2974SOL    HW1 9621   1.080   0.577   6.136 -1.5591 -1.0138  0.0428
 2974SOL    HW2 9622   0.982   0.628   6.240  0.7075  1.5918  1.0173
 2975SOL     OW 9623   1.547   0.492   2.504  0.5357 -0.3063  0.1359
 2975SOL    HW1 9624   1.580   0.523   2.420 -2.2812  0.5326 -0.7567
 2975SOL    HW2 9625   1.498   0.413   2.483 -1.0571  0.4672  0.7846
 2976SOL     OW 9626   2.486   0.346   1.747 -0.4561  0.0899  0.1165
 2976SOL    HW1 9627   2.525   0.287   1.812 -0.1457  0.2856  0.1094
 2976SOL    HW2 9628   2.507   0.434   1.778 -0.3324  0.1864 -0.2300
 2977SOL     OW 9629   2.077   0.741   7.643 -0.2421 -0.0943 -0.5646
 2977SOL    HW1 9630   2.129   0.686   7.584  2.5587  0.0074  1.6138
 2977SOL    HW2 9631   2.075   0.691   7.725  1.0476  2.2876  1.0066
 2978SOL     OW 9632   3.438   4.719   2.668  0.0754  0.4145  0.6830
 2978SOL    HW1 9633   3.511   4.698   2.726  0.5937  0.2699 -0.0021
 2978SOL    HW2 9634   3.467   4.690   2.582 -0.6975  0.5830  0.3547
 2979SOL     OW 9635   0.359   7.140   2.622 -0.1282 -0.1410 -0.2914
 2979SOL    HW1 9636   0.392   7.215   2.671 -2.3221  0.3604  0.5311
 2979SOL    HW2 9637   0.360   7.068   2.684  0.6379 -0.4730 -0.6687
 2980SOL     OW 9638   7.078   0.807   3.686  0.1944  0.1526 -0.0864
 2980SOL    HW1 9639   7.105   0.775   3.773  1.6655  0.4686 -0.4048
 2980SOL    HW2 9640   7.051   0.729   3.639  0.8273 -0.2338  0.1744
 2981SOL     OW 9641   3.017   1.548   0.971 -0.2120  0.1156  0.3135
 2981SOL    HW1 9642   2.974   1.540   0.886  1.7138 -0.3452 -0.6756
 2981SOL    HW2 9643   2.950   1.523   1.035 -1.5933  0.1249 -1.0867
 2982SOL     OW 9644   6.884   5.529   5.656 -0.5698  0.3196  0.0394
 2982SOL    HW1 9645   6.950   5.565   5.597  0.8924  0.5375  1.7236
 2982SOL    HW2 9646   6.849   5.604   5.703 -0.2368 -0.0268  0.8740
 2983SOL     OW 9647   5.673   3.488   2.624 -0.1373  0.0069 -0.2316
 2983SOL    HW1 9648   5.580   3.489   2.599 -0.0690 -0.5011 -0.5157
 2983SOL    HW2 9649   5.682   3.563   2.683 -1.1889 -1.1649  1.5044
 2984SOL     OW 9650   1.019   2.201   0.464  0.1372  0.2430  0.3839
 2984SOL    HW1 9651   1.087   2.204   0.532  0.3716 -0.7998  0.2272
 2984SOL    HW2 9652   1.015   2.290   0.429  1.7632  0.2364  0.0928
 2985SOL     OW 9653   1.022   4.600   1.317  0.2568  0.2206 -0.1318
 2985SOL    HW1 9654   0.986   4.561   1.397  0.7747  0.0655  0.0298
 2985SOL    HW2 9655   1.110   4.564   1.310  0.0559 -0.1158 -1.0213
 2986SOL     OW 9656   5.596   5.346   0.194 -0.4667  0.2729 -0.0683
 2986SOL    HW1 9657   5.669   5.376   0.140 -0.5014 -1.0176 -0.8828
 2986SOL    HW2 9658   5.634   5.333   0.281  0.6727 -1.7065 -0.7842
 2987SOL     OW 9659   5.605   6.682   4.754  0.0095 -0.0027 -0.0781
 2987SOL    HW1 9660   5.658   6.761   4.765 -0.1079 -0.1956  2.4695
 2987SOL    HW2 9661   5.554   6.675   4.835 -1.8321 -1.3750 -1.2512
 2988SOL     OW 9662   4.695   5.292   3.665  0.2501  0.0227  0.6360
 2988SOL    HW1 9663   4.704   5.385   3.646  2.2017 -0.1445  0.6098
 2988SOL    HW2 9664   4.747   5.278   3.744 -1.2902 -0.7871  1.5661
 2989SOL     OW 9665   3.932   4.592   6.800 -0.5642  0.1245  0.2858
 2989SOL    HW1 9666   3.912   4.582   6.707  0.3428 -2.4736  0.2925
 2989SOL    HW2 9667   3.973   4.679   6.806  0.6129 -0.1933 -1.9967
 2990SOL     OW 9668   4.394   1.015   4.083  0.0165 -0.2392  0.5442
 2990SOL    HW1 9669   4.452   0.943   4.061  0.3287  0.2988 -0.4692
 2990SOL    HW2 9670   4.329   0.977   4.143  0.4458 -1.2303  0.3940
 2991SOL     OW 9671   0.089   5.431   4.263  0.2268 -0.2161 -0.0344
 2991SOL    HW1 9672   0.106   5.399   4.174  0.3436 -1.3978  0.3992
 2991SOL    HW2 9673   0.003   5.397   4.285 -0.0573  0.5669  0.1046
 2992SOL     OW 9674   2.894   0.268   7.159 -0.4476  0.1367 -0.1163
 2992SOL    HW1 9675   2.860   0.178   7.167  2.6925 -1.1048  0.6090
 2992SOL    HW2 9676   2.963   0.262   7.093  0.7997  1.6797  0.9724
 2993SOL     OW 9677   7.814   0.114   2.171  0.0864 -0.0254  0.1276
 2993SOL    HW1 9678   7.866   0.193   2.153 -0.0632 -0.1991 -1.2060
 2993SOL    HW2 9679   7.763   0.136   2.248 -0.6198  1.5448 -0.7280
 2994SOL     OW 9680   7.181   2.973   5.622  0.4792  0.2496 -0.4105
 2994SOL    HW1 9681   7.246   3.042   5.634  1.1136  0.0589 -2.3614
 2994SOL    HW2 9682   7.131   3.000   5.545 -0.6741 -0.4384  0.0586
 2995SOL     OW 9683   5.047   2.628   0.516 -0.2026 -0.4323  0.3184
 2995SOL    HW1 9684   5.078   2.589   0.435  0.5278  0.3540  0.2098
 2995SOL    HW2 9685   5.045   2.722   0.499 -1.2422 -0.3496  0.8112
 2996SOL     OW 9686   7.944   0.309   7.086  0.3115  0.5248  0.2226
 2996SOL    HW1 9687   7.881   0.381   7.082 -0.8032 -0.4454 -0.1322
 2996SOL    HW2 9688   8.029   0.353   7.093 -0.2512  1.8833 -0.9050
 2997SOL     OW 9689   5.686   1.304   6.547 -0.1888  0.4597 -0.1847
 2997SOL    HW1 9690   5.747   1.278   6.478 -0.7168 -0.2527 -0.4041
 2997SOL    HW2 9691   5.600   1.294   6.507 -0.4563  1.3201  0.1650
 2998SOL     OW 9692   3.073   7.268   5.844 -0.0071  0.5505 -0.1938
 2998SOL    HW1 9693   3.113   7.222   5.918  0.0026 -1.2292 -1.2318
 2998SOL    HW2 9694   2.980   7.275   5.867  0.0598  0.3458  0.1471
 2999SOL     OW 9695   1.986   6.778   1.707 -0.2777 -0.1636 -0.7557
 2999SOL    HW1 9696   2.027   6.811   1.627 -0.3884  0.7001 -0.4713
 2999SOL    HW2 9697   1.904   6.827   1.713  0.2007  0.5611  0.4170
 3000SOL     OW 9698   5.880   2.100   1.983  0.0567 -0.0018 -0.0861
 3000SOL    HW1 9699   5.932   2.037   1.933 -0.5780 -0.1223 -0.6082
 3000SOL    HW2 9700   5.923   2.184   1.970  2.2852 -0.6083  2.4643
 3001SOL     OW 9701   6.527   3.477   1.095  0.5035 -0.4319  0.3994
 3001SOL    HW1 9702   6.524   3.384   1.073 -0.8024 -0.6863  1.5097
 3001SOL    HW2 9703   6.575   3.517   1.023  0.8203 -1.9115 -0.2575
 3002SOL     OW 9704   2.981   7.712   5.161 -0.1676  0.3743  0.4861
 3002SOL    HW1 9705   2.950   7.796   5.194 -0.4068  0.6457 -0.3826
 3002SOL    HW2 9706   2.995   7.658   5.239 -2.0064  0.5277  0.9752
 3003SOL     OW 9707   3.039   0.450   4.278 -0.0908  0.1280  0.7088
 3003SOL    HW1 9708   3.054   0.418   4.189 -1.4743 -0.7020  0.7557
 3003SOL    HW2 9709   2.958   0.501   4.272  0.4882  1.1532  1.2549
 3004SOL     OW 9710   1.621   5.403   4.505  0.5478  0.2831  0.0334
 3004SOL    HW1 9711   1.597   5.332   4.445 -2.0465 -0.8445  2.1548
 3004SOL    HW2 9712   1.701   5.373   4.547  1.5630  0.4094 -1.7317
 3005SOL     OW 9713   3.263   6.215   1.022 -0.4147  0.4522 -0.2011
 3005SOL    HW1 9714   3.344   6.257   0.995 -1.9330  2.6507 -1.6899
 3005SOL    HW2 9715   3.276   6.195   1.115  2.1288 -0.1737 -0.6046
 3006SOL     OW 9716   2.613   5.713   7.849 -0.3684 -0.1930 -0.1897
 3006SOL    HW1 9717   2.538   5.751   7.894  0.1289  1.2318 -0.5217
 3006SOL    HW2 9718   2.576   5.664   7.775 -0.9417  1.2981 -0.9225
 3007SOL     OW 9719   5.910   6.089   3.546  0.2917  0.4792  0.3084
 3007SOL    HW1 9720   5.933   6.106   3.637  1.6328  3.2122 -0.4324
 3007SOL    HW2 9721   5.926   5.996   3.534 -0.8286 -0.1812  3.0573
 3008SOL     OW 9722   7.429   1.958   5.974 -0.2560 -0.1456 -0.4727
 3008SOL    HW1 9723   7.484   1.903   6.030 -0.6639 -0.7249 -0.6449
 3008SOL    HW2 9724   7.341   1.950   6.011 -0.3073  0.4487 -0.4563
 3009SOL     OW 9725   7.095   0.599   2.363 -0.2751  0.3254  0.6473
 3009SOL    HW1 9726   7.177   0.604   2.413 -0.5137  1.1715  0.9638
 3009SOL    HW2 9727   7.089   0.684   2.319 -0.4698 -0.1141 -0.1987
 3010SOL     OW 9728   3.303   0.409   3.621 -0.0776 -0.4785  0.9907
 3010SOL    HW1 9729   3.381   0.355   3.627  1.4776  1.4405 -0.4382
 3010SOL    HW2 9730   3.332   0.496   3.647 -2.3200 -0.1359  2.5845
 3011SOL     OW 9731   5.916   0.432   0.132 -0.1964  0.3074 -0.2220
 3011SOL    HW1 9732   5.840   0.374   0.139 -0.4185  0.5763 -0.4270
 3011SOL    HW2 9733   5.880   0.518   0.112  0.0784  0.6790  0.7723
 3012SOL     OW 9734   1.946   0.080   2.376  0.5037  0.6073  0.2978
 3012SOL    HW1 9735   1.968   0.026   2.452  0.0350  0.8237  0.5969
 3012SOL    HW2 9736   1.854   0.058   2.358  0.6561  0.4454 -0.3055
 3013SOL     OW 9737   1.830   1.522   1.574  0.0882  0.3264 -0.0202
 3013SOL    HW1 9738   1.828   1.432   1.543 -1.2273  0.3654 -0.1345
 3013SOL    HW2 9739   1.817   1.575   1.495 -0.8374  0.5296  0.2548
 3014SOL     OW 9740   4.817   0.555   0.470 -0.0957 -0.1557  0.4032
 3014SOL    HW1 9741   4.778   0.624   0.524 -1.1445 -0.8813  0.6073
 3014SOL    HW2 9742   4.912   0.566   0.480 -0.2661 -0.0340  2.0977
 3015SOL     OW 9743   1.836   2.075   5.349  0.3205 -0.0936 -0.4461
 3015SOL    HW1 9744   1.911   2.135   5.344 -0.7432  1.5223  1.4186
 3015SOL    HW2 9745   1.762   2.126   5.315 -0.3777 -0.7720  0.0215
 3016SOL     OW 9746   6.953   7.583   0.786  0.1900 -0.2850 -0.0808
 3016SOL    HW1 9747   6.992   7.515   0.731  1.4065  0.3841 -0.1056
 3016SOL    HW2 9748   7.027   7.617   0.837 -0.2389  1.4742 -0.5662
 3017SOL     OW 9749   5.647   1.046   2.175 -0.7301  0.2245  0.0799
 3017SOL    HW1 9750   5.583   1.042   2.104  0.8276  0.6030 -1.3933
 3017SOL    HW2 9751   5.730   1.025   2.134  0.1033 -0.4836  1.9987
 3018SOL     OW 9752   6.462   6.536   1.138 -0.4264  0.5720 -0.2340
 3018SOL    HW1 9753   6.384   6.553   1.086 -0.7953 -2.3724 -0.8341
 3018SOL    HW2 9754   6.535   6.553   1.079 -0.6722  1.6474 -0.2350
 3019SOL     OW 9755   4.533   0.359   5.167 -0.2154 -0.1648  0.3319
 3019SOL    HW1 9756   4.589   0.385   5.240 -1.9245  2.8862  0.6671
 3019SOL    HW2 9757   4.502   0.271   5.191  1.2694 -0.2996  1.9801
 3020SOL     OW 9758   7.307   5.278   2.506  0.1235  0.2571  0.5385
 3020SOL    HW1 9759   7.274   5.236   2.586  0.1336  0.0590  0.4407
 3020SOL    HW2 9760   7.320   5.369   2.530 -0.3786  0.3095  0.6150
 3021SOL     OW 9761   4.160   0.598   0.418  0.3642 -0.0226  0.7707
 3021SOL    HW1 9762   4.112   0.626   0.496  0.0725 -1.9208  1.3234
 3021SOL    HW2 9763   4.223   0.534   0.450  1.0032 -0.0138 -0.4233
 3022SOL     OW 9764   6.752   0.479   1.500  0.3873  0.0575 -0.8690
 3022SOL    HW1 9765   6.688   0.429   1.449 -1.2650  0.1542  0.9927
 3022SOL    HW2 9766   6.795   0.413   1.555  1.1482  0.1454 -1.3433
 3023SOL     OW 9767   5.846   0.904   4.210 -0.3317  0.3410 -0.4545
 3023SOL    HW1 9768   5.913   0.929   4.273 -1.0666 -0.0284  0.4877
 3023SOL    HW2 9769   5.887   0.919   4.124  1.2979 -0.7489  0.0803
 3024SOL     OW 9770   4.089   0.553   7.270  0.3569  0.3737  0.5924
 3024SOL    HW1 9771   4.145   0.619   7.231  1.2255 -0.2083  0.8293
 3024SOL    HW2 9772   4.002   0.570   7.233  1.2386 -0.5886 -2.1525
 3025SOL     OW 9773   1.463   0.208   0.923  0.2838 -0.3059  0.3381
 3025SOL    HW1 9774   1.473   0.137   0.859 -2.2115 -0.0427 -0.4157
 3025SOL    HW2 9775   1.464   0.288   0.871  1.8053  0.2049  1.0652
 3026SOL     OW 9776   0.921   7.256   5.323 -0.2543  0.0413  0.4594
 3026SOL    HW1 9777   0.863   7.300   5.261 -0.0206  0.3532  0.4591
 3026SOL    HW2 9778   0.941   7.172   5.280 -1.6868 -0.6154  1.0234
 3027SOL     OW 9779   5.120   0.717   2.504  0.1546  0.0302 -0.3484
 3027SOL    HW1 9780   5.063   0.794   2.506  1.4339  1.1181 -2.2233
 3027SOL    HW2 9781   5.208   0.753   2.492  0.6523 -1.6954 -2.7313
 3028SOL     OW 9782   0.468   2.692   0.857 -0.4230 -0.6499  0.1996
 3028SOL    HW1 9783   0.436   2.621   0.913  0.2752 -1.0024  0.1733
 3028SOL    HW2 9784   0.550   2.658   0.821 -0.5986 -0.2223 -0.6286
 3029SOL     OW 9785   4.043   1.713   3.069  0.3428  0.1126  0.2117
 3029SOL    HW1 9786   3.983   1.670   3.008 -0.6177 -0.4241  1.4916
 3029SOL    HW2 9787   4.044   1.805   3.040  0.8020 -0.3231 -1.2754
 3030SOL     OW 9788   4.058   4.169   2.781 -0.1222  0.1396  0.8825
 3030SOL    HW1 9789   4.020   4.099   2.835 -0.1308  1.6564  2.9812
 3030SOL    HW2 9790   3.984   4.224   2.757  0.2748  1.3362  2.2613
 3031SOL     OW 9791   7.776   7.475   2.151  0.0741  0.1207  0.2885
 3031SOL    HW1 9792   7.835   7.456   2.224 -0.9240  0.9960  1.3516
 3031SOL    HW2 9793   7.709   7.533   2.188 -2.8755 -2.6861 -0.1988
 3032SOL     OW 9794   2.977   3.437   0.526 -0.2960 -0.0510  0.5660
 3032SOL    HW1 9795   3.034   3.410   0.455 -0.0781  0.2173  0.6359
 3032SOL    HW2 9796   3.032   3.494   0.581 -0.5872  0.0968  0.7095
 3033SOL     OW 9797   7.353   6.038   0.923 -0.5742 -0.8801 -0.1865
 3033SOL    HW1 9798   7.388   6.126   0.940 -0.3240 -1.2647  1.4719
 3033SOL    HW2 9799   7.377   6.019   0.832 -1.7198  1.2547 -1.0112
 3034SOL     OW 9800   2.492   2.691   5.060  0.0414 -0.1149 -0.3753
 3034SOL    HW1 9801   2.581   2.667   5.087 -0.1156 -1.2988 -0.8764
 3034SOL    HW2 9802   2.502   2.779   5.023  1.1210 -0.4819 -1.0070
 3035SOL     OW 9803   0.507   2.652   1.336  0.3261  0.5168 -0.0583
 3035SOL    HW1 9804   0.494   2.561   1.310  0.3274  0.1731  1.0855
 3035SOL    HW2 9805   0.526   2.698   1.254 -3.3366  0.2002 -1.2848
 3036SOL     OW 9806   6.299   4.632   0.330  0.1793 -0.3740  0.0893
 3036SOL    HW1 9807   6.234   4.678   0.384 -0.2448  0.0601 -0.7808
 3036SOL    HW2 9808   6.327   4.558   0.385 -0.7740 -0.3534  0.6235
 3037SOL     OW 9809   4.826   5.279   2.926 -0.0686 -0.3698  0.1983
 3037SOL    HW1 9810   4.888   5.346   2.898  0.9301 -1.7963 -1.1715
 3037SOL    HW2 9811   4.865   5.240   3.004  0.1715 -0.4710  0.0276
 3038SOL     OW 9812   5.052   6.026   1.336  0.1789  0.2378 -0.0834
 3038SOL    HW1 9813   4.986   6.095   1.347 -1.8278 -1.6466  0.3570
 3038SOL    HW2 9814   5.077   6.002   1.425 -0.3695 -0.7016 -0.1725
 3039SOL     OW 9815   7.729   6.169   1.693  0.8434 -0.0705  0.3221
 3039SOL    HW1 9816   7.790   6.126   1.753  0.1471 -0.2125  0.9475
 3039SOL    HW2 9817   7.768   6.255   1.677  0.9468  0.0507  1.1505
 3040SOL     OW 9818   6.791   6.859   0.094  0.0630 -1.3306 -0.6052
 3040SOL    HW1 9819   6.877   6.870   0.053 -0.7715 -2.2625 -2.7749
 3040SOL    HW2 9820   6.785   6.765   0.110 -0.3420 -1.1962  0.0354
 3041SOL     OW 9821   6.249   5.124   5.308  0.3822  0.3196 -0.2159
 3041SOL    HW1 9822   6.296   5.166   5.379  1.6318 -1.2861 -0.0254
 3041SOL    HW2 9823   6.300   5.143   5.230  0.4510 -0.0658 -0.2689
 3042SOL     OW 9824   3.574   0.468   6.249  0.3386 -0.9520 -0.7547
 3042SOL    HW1 9825   3.553   0.392   6.304 -0.9378 -1.4985 -1.9467
 3042SOL    HW2 9826   3.568   0.435   6.160  2.9739 -0.2514 -1.2891
 3043SOL     OW 9827   0.695   0.771   0.897  0.3462 -0.1493 -0.3546
 3043SOL    HW1 9828   0.709   0.778   0.992 -1.4445 -3.8738  0.3583
 3043SOL    HW2 9829   0.723   0.682   0.875 -0.8958  0.0178 -2.9813
 3044SOL     OW 9830   1.098   7.511   2.575  0.1178 -0.4397  0.5029
 3044SOL    HW1 9831   1.018   7.460   2.562 -0.3924  0.2354  0.9191
 3044SOL    HW2 9832   1.074   7.575   2.643  0.9692 -0.1443  0.5263
 3045SOL     OW 9833   3.079   6.813   7.301  0.4889  0.0376 -0.1763
 3045SOL    HW1 9834   3.020   6.863   7.246  0.6279  0.0765 -0.2914
 3045SOL    HW2 9835   3.033   6.804   7.385  0.1134 -0.3659 -0.4254
 3046SOL     OW 9836   3.780   1.416   1.962  0.6009 -0.6479  0.2331
 3046SOL    HW1 9837   3.698   1.434   1.916 -0.3158 -3.3461  0.5880
 3046SOL    HW2 9838   3.753   1.367   2.041  2.4592 -0.4104  1.0768
 3047SOL     OW 9839   4.463   7.178   0.923 -0.1997  0.2065 -0.4831
 3047SOL    HW1 9840   4.481   7.248   0.860 -1.1483  0.2441 -0.7282
 3047SOL    HW2 9841   4.537   7.118   0.914 -0.3729  0.1463 -1.7191
 3048SOL     OW 9842   6.052   6.929   5.964  0.5327 -0.2654  0.1253
 3048SOL    HW1 9843   6.071   6.880   5.883 -1.3312 -0.9771  0.0776
 3048SOL    HW2 9844   6.090   7.016   5.949  1.5917 -0.8687 -0.8616
 3049SOL     OW 9845   7.716   2.266   7.703 -0.4003 -0.1236 -0.5148
 3049SOL    HW1 9846   7.641   2.245   7.648 -0.8997  0.7715 -0.1920
 3049SOL    HW2 9847   7.683   2.329   7.767  0.3072 -0.6940  0.4557
 3050SOL     OW 9848   4.903   6.654   3.529 -0.5741 -0.5304  0.6927
 3050SOL    HW1 9849   4.845   6.613   3.464  0.7087  0.4026 -1.1458
 3050SOL    HW2 9850   4.862   6.738   3.548 -0.5859 -0.4991  0.5321
 3051SOL     OW 9851   3.161   3.611   2.571 -0.5283 -0.4793  0.0437
 3051SOL    HW1 9852   3.234   3.550   2.558 -0.9650 -1.7606  2.8219
 3051SOL    HW2 9853   3.083   3.557   2.557 -0.9234  0.0860  0.0667
 3052SOL     OW 9854   7.756   4.274   3.821  0.2297  0.7144 -0.0527
 3052SOL    HW1 9855   7.676   4.297   3.869 -1.2735 -1.6244 -1.2754
 3052SOL    HW2 9856   7.761   4.179   3.827  1.1650  0.5202 -2.6697
 3053SOL     OW 9857   7.758   6.455   0.520  0.5559  0.3898 -0.2453
 3053SOL    HW1 9858   7.672   6.454   0.560  0.7303  0.7681  0.1476
 3053SOL    HW2 9859   7.775   6.364   0.495 -0.1762  0.3977 -0.8102
 3054SOL     OW 9860   5.064   4.662   6.248  0.0527 -0.3981  0.6047
 3054SOL    HW1 9861   5.002   4.735   6.248  1.0296  0.4497  0.4992
 3054SOL    HW2 9862   5.023   4.597   6.190 -0.9932 -0.0968  0.9763
 3055SOL     OW 9863   3.707   6.576   2.431 -0.2237 -0.2104  0.3376
 3055SOL    HW1 9864   3.647   6.648   2.412 -2.0315 -2.0963 -1.6331
 3055SOL    HW2 9865   3.671   6.534   2.510  0.1623  0.3098  0.7996
 3056SOL     OW 9866   4.632   5.184   4.454  0.3969 -0.2397  0.3389
 3056SOL    HW1 9867   4.645   5.233   4.535 -1.6076 -0.5095  0.8754
 3056SOL    HW2 9868   4.600   5.249   4.391  0.3522 -0.3576  0.2400
 3057SOL     OW 9869   5.652   0.899   1.302 -0.1563 -0.5209  0.0997
 3057SOL    HW1 9870   5.640   0.938   1.216  0.4970 -0.3096  0.0918
 3057SOL    HW2 9871   5.567   0.864   1.326  0.3385 -3.6429 -2.1037
 3058SOL     OW 9872   2.734   6.225   4.984 -0.4702  0.5728  0.1158
 3058SOL    HW1 9873   2.666   6.162   4.960  2.0925 -1.8347 -1.4067
 3058SOL    HW2 9874   2.762   6.262   4.900  1.6517 -0.2758  0.3909
 3059SOL     OW 9875   3.261   0.776   7.860  0.4709 -0.2660  1.0179
 3059SOL    HW1 9876   3.177   0.733   7.843 -0.0890  0.0775  2.7274
 3059SOL    HW2 9877   3.317   0.748   7.788 -1.7290  1.2965 -1.5284
 3060SOL     OW 9878   0.960   4.772   6.044 -0.0355 -0.3170  0.2651
 3060SOL    HW1 9879   1.048   4.802   6.066 -0.4001 -0.3030  1.8390
 3060SOL    HW2 9880   0.973   4.709   5.973  0.9974  1.4349 -1.1844
 3061SOL     OW 9881   4.025   4.409   1.688  0.0997 -0.1264  0.2072
 3061SOL    HW1 9882   3.961   4.340   1.706  1.4877 -1.3136  0.7118
 3061SOL    HW2 9883   4.110   4.369   1.705  0.9414  1.7893  0.7498
 3062SOL     OW 9884   2.057   7.317   1.818  0.2730  0.0666  0.1882
 3062SOL    HW1 9885   2.089   7.334   1.730 -1.2987  0.6406 -0.3017
 3062SOL    HW2 9886   2.088   7.392   1.870  1.2524 -0.3059  0.1603
 3063SOL     OW 9887   7.004   0.737   5.771 -0.4039 -0.3264 -0.3728
 3063SOL    HW1 9888   6.925   0.736   5.717 -2.1137 -0.4014  1.9456
 3063SOL    HW2 9889   6.995   0.817   5.824  0.8223 -0.6244  0.3238
 3064SOL     OW 9890   4.525   4.222   0.707  0.1646  0.9032 -0.0708
 3064SOL    HW1 9891   4.581   4.216   0.629  0.3859  0.6183  0.1064
 3064SOL    HW2 9892   4.497   4.132   0.723  0.0673  0.9716  0.1382
 3065SOL     OW 9893   2.898   0.486   7.392 -0.2153  0.3104 -0.2351
 3065SOL    HW1 9894   2.816   0.481   7.441 -0.2941 -3.5349 -0.4685
 3065SOL    HW2 9895   2.874   0.462   7.302  1.1114 -0.8346 -0.3151
 3066SOL     OW 9896   7.001   6.470   4.573  0.3960 -0.0355 -0.2223
 3066SOL    HW1 9897   6.931   6.416   4.535  0.3804  0.1293 -0.4319
 3066SOL    HW2 9898   6.998   6.551   4.521  2.0114 -0.7548 -1.5233
 3067SOL     OW 9899   3.954   6.408   1.636 -0.6105 -0.6006  0.3232
 3067SOL    HW1 9900   3.869   6.421   1.678 -0.6477 -1.0359  0.3892
 3067SOL    HW2 9901   4.019   6.433   1.702 -0.6952  1.0855 -0.1920
 3068SOL     OW 9902   2.279   5.953   4.835  0.3055 -0.3474  0.3134
 3068SOL    HW1 9903   2.190   5.928   4.860  0.2339 -0.0936  0.3125
 3068SOL    HW2 9904   2.315   5.874   4.794 -0.3085 -0.1189 -0.7114
 3069SOL     OW 9905   1.330   1.045   4.660  0.0819  0.8662  0.3668
 3069SOL    HW1 9906   1.369   0.968   4.621 -2.6229  0.0476 -0.9491
 3069SOL    HW2 9907   1.253   1.013   4.707  0.9176  2.3554  3.0071
 3070SOL     OW 9908   3.716   3.396   5.551  0.3564  0.4360  0.5580
 3070SOL    HW1 9909   3.657   3.466   5.577 -0.6923 -0.1987 -0.0658
 3070SOL    HW2 9910   3.800   3.419   5.592 -0.4901  0.9804  2.0435
 3071SOL     OW 9911   4.869   3.148   6.956 -0.1148  0.2129 -0.8383
 3071SOL    HW1 9912   4.796   3.119   7.011  0.9654  0.3448  0.7174
 3071SOL    HW2 9913   4.935   3.080   6.967  0.7275  1.0446 -0.6831
 3072SOL     OW 9914   2.538   5.037   3.319  0.0638  0.6949 -0.0785
 3072SOL    HW1 9915   2.543   5.027   3.224 -1.5287 -0.9530 -0.0363
 3072SOL    HW2 9916   2.586   4.962   3.353  0.3514  1.1026  0.4138
 3073SOL     OW 9917   7.086   3.579   4.844  0.1049 -0.1328 -0.1406
 3073SOL    HW1 9918   7.114   3.506   4.789 -0.3209  0.3853 -1.0769
 3073SOL    HW2 9919   7.050   3.538   4.922 -0.2347 -0.9359 -0.7018
 3074SOL     OW 9920   7.480   4.465   5.434 -0.2791 -0.3172 -0.1500
 3074SOL    HW1 9921   7.483   4.437   5.342  1.4822 -0.3008 -0.1283
 3074SOL    HW2 9922   7.513   4.555   5.432 -2.5417  0.5895  0.2322
 3075SOL     OW 9923   2.049   6.135   4.947  0.0938  0.0152 -0.2910
 3075SOL    HW1 9924   1.981   6.107   5.008  1.8179 -1.7053  0.9577
 3075SOL    HW2 9925   2.056   6.064   4.884 -1.2600  1.5191 -2.2403
 3076SOL     OW 9926   3.525   4.440   0.269  0.0566 -0.3174 -0.1885
 3076SOL    HW1 9927   3.543   4.534   0.271  2.8441 -0.7760  0.2704
 3076SOL    HW2 9928   3.430   4.433   0.281 -0.0577  2.3848  1.0965
 3077SOL     OW 9929   4.714   4.519   0.662  0.3287 -0.6819  0.1073
 3077SOL    HW1 9930   4.624   4.546   0.641  0.1203  0.4173  2.1643
 3077SOL    HW2 9931   4.762   4.528   0.579 -0.9441  0.9284 -0.4988
 3078SOL     OW 9932   2.183   0.776   3.579 -0.7428 -0.5514  0.1763
 3078SOL    HW1 9933   2.232   0.848   3.540 -0.7963  0.1193  1.3081
 3078SOL    HW2 9934   2.092   0.804   3.575 -0.7938 -0.6912  0.3436
 3079SOL     OW 9935   4.701   1.751   2.902  1.0510 -0.2440  0.0318
 3079SOL    HW1 9936   4.623   1.794   2.867  2.4883  0.8276 -2.0229
 3079SOL    HW2 9937   4.667   1.677   2.952 -1.2740  0.2604 -0.7006
 3080SOL     OW 9938   3.839   6.406   5.730  0.2402 -0.3725  0.2241
 3080SOL    HW1 9939   3.825   6.454   5.812  1.1647 -1.7024  1.2069
 3080SOL    HW2 9940   3.924   6.437   5.699  0.2394 -0.4185  0.1765
 3081SOL     OW 9941   4.113   0.373   1.366  0.1091  0.3725 -0.9205
 3081SOL    HW1 9942   4.153   0.408   1.286 -0.1630 -0.6650 -1.5293
 3081SOL    HW2 9943   4.025   0.411   1.367 -0.3527 -0.6047 -1.8264
 3082SOL     OW 9944   3.536   6.213   0.955  0.5591  0.6446  0.3341
 3082SOL    HW1 9945   3.540   6.121   0.928 -1.7379  0.8771 -1.1230
 3082SOL    HW2 9946   3.620   6.230   0.998  0.9974 -2.1469  0.7583
 3083SOL     OW 9947   5.349   3.765   7.872  0.3405  0.5656  0.1000
 3083SOL    HW1 9948   5.396   3.682   7.871  1.6635  1.2746 -0.8610
 3083SOL    HW2 9949   5.259   3.743   7.850  0.8741 -0.5244 -1.1200
 3084SOL     OW 9950   6.186   7.134   1.930  0.0426  0.1611  0.2998
 3084SOL    HW1 9951   6.125   7.145   2.003 -0.2094 -0.2308  0.1539
 3084SOL    HW2 9952   6.245   7.063   1.957 -1.6425 -1.8277 -0.8717
 3085SOL     OW 9953   2.032   4.712   2.518 -1.0244  0.1456 -0.0497
 3085SOL    HW1 9954   1.983   4.736   2.597  0.7387 -0.7062  1.3593
 3085SOL    HW2 9955   2.123   4.729   2.540 -0.2273 -2.4684 -0.9557
 3086SOL     OW 9956   6.942   3.525   0.589 -0.7891  0.3683  0.1948
 3086SOL    HW1 9957   6.952   3.486   0.502 -0.8504 -0.1358  0.4084
 3086SOL    HW2 9958   6.885   3.464   0.636  2.4891 -1.6237  1.9408
 3087SOL     OW 9959   4.772   2.961   5.828  0.4407  0.1093 -0.1643
 3087SOL    HW1 9960   4.711   2.895   5.862  0.5817  1.0981  2.1136
 3087SOL    HW2 9961   4.857   2.919   5.831  0.2159 -0.4749 -1.2151
 3088SOL     OW 9962   4.913   2.326   1.652  0.1866 -0.2606  0.1314
 3088SOL    HW1 9963   4.859   2.385   1.706  1.5780  1.8041 -0.5944
 3088SOL    HW2 9964   4.872   2.329   1.566  1.3842  1.3242 -0.4250
 3089SOL     OW 9965   4.434   4.669   3.515  0.3227 -1.1720 -0.0810
 3089SOL    HW1 9966   4.489   4.627   3.581  1.4210 -2.0482 -1.5044
 3089SOL    HW2 9967   4.495   4.697   3.447 -0.7056  0.2810 -0.4761
 3090SOL     OW 9968   1.850   3.292   0.267 -0.0239 -0.3697 -0.5653
 3090SOL    HW1 9969   1.914   3.341   0.216 -0.8764 -0.4275 -1.7330
 3090SOL    HW2 9970   1.781   3.355   0.287  1.0365  0.1011  1.9957
 3091SOL     OW 9971   1.930   3.507   6.365  0.2012 -0.2611  0.3634
 3091SOL    HW1 9972   1.888   3.524   6.449 -2.5193 -1.8189 -0.5659
 3091SOL    HW2 9973   1.877   3.439   6.325  1.3795  0.4606 -2.6747
 3092SOL     OW 9974   2.530   7.064   4.451  0.1273  0.3121  0.6863
 3092SOL    HW1 9975   2.467   7.009   4.496 -0.1833  0.1396  0.0599
 3092SOL    HW2 9976   2.504   7.060   4.359  0.6718  0.7451  0.5040
 3093SOL     OW 9977   3.910   4.658   7.051  0.0566  0.0901  0.0481
 3093SOL    HW1 9978   3.820   4.645   7.083  0.4069 -2.9344  0.0308
 3093SOL    HW2 9979   3.912   4.615   6.966  1.8846 -1.3458  0.7506
 3094SOL     OW 9980   1.533   7.552   4.781  0.3864  0.5942  0.1336
 3094SOL    HW1 9981   1.525   7.550   4.876  1.2141 -0.9408  0.1951
 3094SOL    HW2 9982   1.505   7.640   4.757 -0.5888  0.7535  1.7136
 3095SOL     OW 9983   0.737   6.668   5.346 -0.0591  0.2414 -0.6553
 3095SOL    HW1 9984   0.642   6.666   5.334 -0.2698  1.2253  0.6497
 3095SOL    HW2 9985   0.766   6.745   5.296 -0.2407  1.1439  0.5765
 3096SOL     OW 9986   6.914   7.672   5.640 -0.0697 -0.4190 -0.3761
 3096SOL    HW1 9987   6.901   7.582   5.609 -1.3358  0.2979 -2.1279
 3096SOL    HW2 9988   6.846   7.722   5.595 -1.5684  0.9204  3.0386
 3097SOL     OW 9989   1.518   2.065   2.482 -0.3629 -0.5235 -0.4191
 3097SOL    HW1 9990   1.529   1.972   2.462  2.6189 -0.3213 -0.1524
 3097SOL    HW2 9991   1.561   2.076   2.567 -3.0065  0.6824  0.8857
 3098SOL     OW 9992   2.701   1.994   4.068 -0.1610  0.0951  0.2391
 3098SOL    HW1 9993   2.657   2.031   4.146 -0.6666 -2.3762  1.2315
 3098SOL    HW2 9994   2.711   2.069   4.009 -1.2500  1.7543  2.0032
 3099SOL     OW 9995   1.690   7.169   0.754  0.3100 -0.5260 -0.2993
 3099SOL    HW1 9996   1.596   7.155   0.760  0.2141  0.6060  2.2740
 3099SOL    HW2 9997   1.727   7.080   0.747 -0.9012 -1.0701 -0.0170
 3100SOL     OW 9998   4.340   7.709   1.949 -0.0430 -0.3051 -0.2021
 3100SOL    HW1 9999   4.369   7.670   2.031 -0.2416  0.2491  0.1386
 3100SOL    HW210000   4.286   7.642   1.908 -1.1465 -0.0631  0.8120
 3101SOL     OW10001   4.765   4.926   4.503  0.7040 -0.2300  0.3905
 3101SOL    HW110002   4.692   4.984   4.480  0.4446 -1.1558 -1.2757
 3101SOL    HW210003   4.756   4.913   4.598  1.0681  2.7894  0.9506
 3102SOL     OW10004   6.398   6.532   6.163  0.1934 -0.5999  0.1401
 3102SOL    HW110005   6.417   6.446   6.201  0.7077 -1.2771 -1.5250
 3102SOL    HW210006   6.302   6.533   6.156  0.1147 -0.6013  1.0946
 3103SOL     OW10007   4.743   7.308   2.670 -0.3145 -0.0848 -0.4516
 3103SOL    HW110008   4.788   7.333   2.750 -0.2357  0.1883 -0.5789
 3103SOL    HW210009   4.660   7.270   2.699  0.3503 -1.4004 -0.1713
 3104SOL     OW10010   5.764   4.994   3.773 -0.2417  0.6094 -0.3178
 3104SOL    HW110011   5.756   4.944   3.692  1.1827 -0.6068  0.2664
 3104SOL    HW210012   5.834   5.057   3.756 -0.2607  0.6718 -0.1697
 3105SOL     OW10013   4.301   3.683   5.096 -0.0928 -0.1415 -0.4802
 3105SOL    HW110014   4.309   3.635   5.014  0.3333 -0.0198 -0.5136
 3105SOL    HW210015   4.256   3.764   5.073  0.3750  0.0702 -0.6712
 3106SOL     OW10016   7.614   3.441   3.071  0.3461 -0.1145  0.2353
 3106SOL    HW110017   7.605   3.432   3.166 -1.9215 -3.6623 -0.1428
 3106SOL    HW210018   7.580   3.529   3.052  0.3271  0.4470  2.6345
 3107SOL     OW10019   0.624   7.706   7.968 -0.1559  0.3893  0.1815
 3107SOL    HW110020   0.702   7.683   7.917  1.1731  3.3863  0.6744
 3107SOL    HW210021   0.553   7.655   7.928  0.8474  2.1712 -4.4578
 3108SOL     OW10022   4.211   1.863   3.266 -0.1478 -0.1673  0.3444
 3108SOL    HW110023   4.131   1.838   3.311  0.2548  0.8916  1.7320
 3108SOL    HW210024   4.277   1.867   3.335  0.2910  2.4580 -0.1071
 3109SOL     OW10025   1.934   5.195   0.343 -0.3851  0.4379 -0.4997
 3109SOL    HW110026   1.964   5.273   0.297  0.0474 -0.1201 -1.1728
 3109SOL    HW210027   1.984   5.123   0.305 -1.1937 -0.2539 -0.2945
 3110SOL     OW10028   6.913   7.940   0.195 -0.1150 -0.0665  0.1065
 3110SOL    HW110029   6.955   8.023   0.218  0.6695  0.6147 -3.2528
 3110SOL    HW210030   6.941   7.879   0.263  1.1661  1.8685  1.4199
 3111SOL     OW10031   6.956   7.022   7.385 -0.1859 -0.0676 -0.2597
 3111SOL    HW110032   6.898   7.020   7.309  1.3504 -0.7040 -1.4603
 3111SOL    HW210033   6.966   6.930   7.410  0.9273 -0.0429 -0.5754
 3112SOL     OW10034   4.234   2.682   0.781 -0.5283 -0.1096  0.6585
 3112SOL    HW110035   4.206   2.694   0.871 -1.2813 -1.5080  0.6393
 3112SOL    HW210036   4.318   2.637   0.788 -0.9204 -0.8536  0.6689
 3113SOL     OW10037   5.517   6.213   4.808  0.2775  0.4637 -0.8600
 3113SOL    HW110038   5.469   6.141   4.850  0.3803 -0.4015 -2.1425
 3113SOL    HW210039   5.525   6.280   4.876 -0.9333 -0.2178  0.0003
 3114SOL     OW10040   0.846   0.206   5.152 -0.0981  0.0057 -0.1855
 3114SOL    HW110041   0.881   0.274   5.095  0.7018 -0.2217  0.0237
 3114SOL    HW210042   0.863   0.125   5.105  0.0640 -0.1384  0.1163
 3115SOL     OW10043   6.442   2.563   5.327 -0.2313 -0.1698  0.0127
 3115SOL    HW110044   6.418   2.504   5.256 -1.7192 -0.3112  0.5818
 3115SOL    HW210045   6.446   2.506   5.405  0.4147  0.1381  0.2110
 3116SOL     OW10046   6.697   3.948   0.272 -0.2417 -0.0581 -0.0535
 3116SOL    HW110047   6.655   3.880   0.327 -1.5287 -1.6689 -2.7890
 3116SOL    HW210048   6.748   3.898   0.208  1.7996  1.7693  0.0529
 3117SOL     OW10049   7.396   6.601   5.187  0.2335  0.0110  0.0420
 3117SOL    HW110050   7.425   6.564   5.270  1.4969  0.9689  0.0549
 3117SOL    HW210051   7.452   6.559   5.121 -1.1133 -1.1379 -0.4160
 3118SOL     OW10052   5.599   3.868   2.965  0.2884 -0.1093  0.0909
 3118SOL    HW110053   5.504   3.863   2.970  0.2759 -1.6516 -1.0837
 3118SOL    HW210054   5.627   3.892   3.054 -1.1829  0.6463  0.3730
 3119SOL     OW10055   0.079   1.259   1.341  0.6938 -0.0364 -0.4310
 3119SOL    HW110056   0.034   1.338   1.310 -0.5014 -0.5689 -0.0919
 3119SOL    HW210057   0.158   1.255   1.288  0.2428  0.7978 -1.2039
 3120SOL     OW10058   0.964   5.934   1.214 -0.5547  0.3218 -0.4757
 3120SOL    HW110059   0.995   5.938   1.305 -1.5370  1.8156 -0.1680
 3120SOL    HW210060   0.972   5.842   1.190 -1.5467 -0.3621  1.5908
 3121SOL     OW10061   7.000   5.221   2.519  0.0785 -0.2670 -0.4882
 3121SOL    HW110062   7.030   5.296   2.571  0.1992  0.6447 -1.8167
 3121SOL    HW210063   6.931   5.181   2.573 -0.0452  0.8422  0.2214
 3122SOL     OW10064   7.479   6.614   6.790  0.1581 -0.4461 -0.0154
 3122SOL    HW110065   7.542   6.652   6.730 -0.5723  0.5143 -0.1997
 3122SOL    HW210066   7.412   6.574   6.733 -0.4972  0.4023  0.1387
 3123SOL     OW10067   2.426   5.869   5.133 -0.0939  0.0674 -0.4665
 3123SOL    HW110068   2.484   5.942   5.157 -0.6810  0.1603  0.7875
 3123SOL    HW210069   2.346   5.886   5.183 -0.7552 -0.6955 -1.2529
 3124SOL     OW10070   5.848   0.600   3.008 -0.3078  0.2451  0.5283
 3124SOL    HW110071   5.893   0.546   3.074 -0.3941  1.1328  1.3256
 3124SOL    HW210072   5.866   0.556   2.925  3.1725  1.2338  0.6123
 3125SOL     OW10073   6.560   5.417   1.503 -0.3864 -0.1901 -0.0559
 3125SOL    HW110074   6.582   5.450   1.590 -2.0762  0.2007  0.2521
 3125SOL    HW210075   6.584   5.324   1.506  0.6269  0.0699  0.4231
 3126SOL     OW10076   4.993   4.487   6.021 -0.1731 -0.4600 -0.1628
 3126SOL    HW110077   5.045   4.419   5.979 -0.6109 -0.3773 -0.8445
 3126SOL    HW210078   4.922   4.438   6.064  0.0888 -0.5137  0.2227
 3127SOL     OW10079   5.028   7.042   6.952 -0.0073 -0.3939  0.5420
 3127SOL    HW110080   5.102   7.092   6.988  1.8819 -3.7675  1.8447
 3127SOL    HW210081   4.988   7.002   7.029  0.3045 -2.9702 -0.5449
 3128SOL     OW10082   3.091   1.883   3.197 -0.0761  0.1553  0.2190
 3128SOL    HW110083   3.021   1.936   3.235 -0.7398 -0.4543 -0.1437
 3128SOL    HW210084   3.131   1.940   3.131  0.1834  0.7236  0.8539
 3129SOL     OW10085   4.310   0.819   4.270 -0.7101 -0.1620  0.7682
 3129SOL    HW110086   4.331   0.730   4.245 -2.7214  0.0801 -2.2538
 3129SOL    HW210087   4.252   0.810   4.345 -1.4078 -1.4471  0.0996
 3130SOL     OW10088   2.451   3.117   2.562 -0.1087  0.0015  0.0527
 3130SOL    HW110089   2.501   3.039   2.586 -1.9898 -0.9909  1.0172
 3130SOL    HW210090   2.364   3.101   2.598 -1.1894  1.5477 -1.6870
 3131SOL     OW10091   5.357   1.915   4.568  0.2122  0.5113 -0.0679
 3131SOL    HW110092   5.332   1.996   4.524 -0.5776 -0.0904 -0.7618
 3131SOL    HW210093   5.339   1.931   4.660 -1.9333  0.4476 -0.4170
 3132SOL     OW10094   7.438   6.222   4.483  0.1019  0.4223  0.0048
 3132SOL    HW110095   7.422   6.255   4.394  0.2321  0.6471  0.0641
 3132SOL    HW210096   7.354   6.234   4.528  0.4313  1.6613  0.3353
 3133SOL     OW10097   4.720   3.686   2.686 -0.2983 -0.0968  0.1563
 3133SOL    HW110098   4.681   3.679   2.599  0.5212  2.0865 -0.4372
 3133SOL    HW210099   4.686   3.609   2.733 -1.6434 -0.7282 -1.7133
 3134SOL     OW10100   3.167   3.782   3.218 -0.5116 -0.1456  0.9252
 3134SOL    HW110101   3.183   3.846   3.149  0.0129 -1.6081 -0.3575
 3134SOL    HW210102   3.072   3.782   3.228 -0.8309 -1.4848 -1.4158
 3135SOL     OW10103   2.240   1.053   3.213 -0.4529  0.0584  0.2613
 3135SOL    HW110104   2.294   1.014   3.282  0.4595 -0.8606 -0.9165
 3135SOL    HW210105   2.271   1.143   3.207  2.2183 -0.8435 -1.4629
 3136SOL     OW10106   4.183   6.058   0.187  0.4514  0.1687  0.5922
 3136SOL    HW110107   4.104   6.010   0.163  1.5350 -1.5190  0.1683
 3136SOL    HW210108   4.218   6.090   0.103  0.2779  0.8283  0.7666
 3137SOL     OW10109   2.926   4.673   1.101  1.1411  0.0411 -0.1625
 3137SOL    HW110110   2.871   4.744   1.066  2.1518  0.9453  0.0210
 3137SOL    HW210111   2.945   4.700   1.191  1.8129 -0.2959 -0.1977
 3138SOL     OW10112   5.545   1.095   3.876  0.4375 -0.4331 -0.3005
 3138SOL    HW110113   5.609   1.094   3.804  1.1077  0.6230  0.2652
 3138SOL    HW210114   5.538   1.003   3.902  0.1305 -0.8491 -1.7442
 3139SOL     OW10115   5.425   2.989   6.552  0.7345  0.4213  0.3448
 3139SOL    HW110116   5.448   3.038   6.473 -1.5343  1.0587 -0.0015
 3139SOL    HW210117   5.399   2.903   6.520 -0.9406  0.9245  0.2413
 3140SOL     OW10118   6.970   1.529   2.579  0.1100  0.6211 -0.8706
 3140SOL    HW110119   7.052   1.479   2.585 -0.3837 -0.0411  0.8963
 3140SOL    HW210120   6.912   1.488   2.643 -0.5150  3.1046  0.2723
 3141SOL     OW10121   4.364   0.575   2.352 -0.0388 -0.3509  0.0671
 3141SOL    HW110122   4.387   0.494   2.307 -0.2476  0.1566 -0.9909
 3141SOL    HW210123   4.281   0.556   2.396 -0.5129 -0.4859 -0.8535
 3142SOL     OW10124   4.050   5.816   3.525  0.1140  0.2316 -0.1014
 3142SOL    HW110125   4.112   5.748   3.549  1.4060  1.2019 -0.5805
 3142SOL    HW210126   4.036   5.805   3.431  0.4811  0.7306 -0.2200
 3143SOL     OW10127   7.542   0.004   1.215  0.3747  0.1767  0.2073
 3143SOL    HW110128   7.576   0.066   1.150  1.8804 -0.6002  0.2082
 3143SOL    HW210129   7.565   0.043   1.299 -1.1346  0.9351  0.3097
 3144SOL     OW10130   6.404   0.918   6.024  0.1082 -0.0761  0.0225
 3144SOL    HW110131   6.384   1.009   6.004 -0.6983 -0.3319 -0.4017
 3144SOL    HW210132   6.497   0.918   6.049 -0.1629  1.0079  1.0959
 3145SOL     OW10133   5.923   6.255   2.524 -0.0469 -0.4402  0.3141
 3145SOL    HW110134   5.837   6.215   2.538  0.2770 -1.6661 -0.9517
 3145SOL    HW210135   5.922   6.334   2.578 -2.0746 -0.2631  0.0964
 3146SOL     OW10136   1.244   1.057   4.124  0.1140 -0.1410 -0.7633
 3146SOL    HW110137   1.217   1.125   4.063  1.5493 -0.2263 -1.5401
 3146SOL    HW210138   1.255   1.103   4.208  3.0158  1.0754 -1.7057
 3147SOL     OW10139   4.564   1.745   5.321 -0.8125 -0.4120 -0.4630
 3147SOL    HW110140   4.525   1.662   5.294  1.2458 -1.5846 -0.0675
 3147SOL    HW210141   4.566   1.742   5.416 -1.0201  0.2519 -0.4295
 3148SOL     OW10142   0.533   7.815   1.762 -0.2980 -0.3685  0.0376
 3148SOL    HW110143   0.577   7.731   1.752  1.3820  0.2564  1.6170
 3148SOL    HW210144   0.440   7.793   1.771 -0.0629 -1.9192 -0.9729
 3149SOL     OW10145   5.180   7.298   7.248  0.1407  0.1190 -0.2300
 3149SOL    HW110146   5.176   7.306   7.343 -0.1547 -1.0147 -0.1312
 3149SOL    HW210147   5.110   7.354   7.216  0.3474  0.6315  0.2134
 3150SOL     OW10148   0.032   6.230   5.306  0.7929 -0.2281  0.1464
 3150SOL    HW110149   0.053   6.150   5.258  0.5754  0.0346 -0.3943
 3150SOL    HW210150   0.072   6.300   5.255 -0.2630  0.1538 -0.1992
 3151SOL     OW10151   3.827   2.340   4.130  0.1252 -0.7778  0.0814
 3151SOL    HW110152   3.884   2.308   4.200 -0.8381  0.8701  1.7175
 3151SOL    HW210153   3.747   2.368   4.175 -0.0528  1.5327 -1.5030
 3152SOL     OW10154   5.776   0.205   4.877  0.0802 -0.3183 -0.5828
 3152SOL    HW110155   5.807   0.150   4.949 -1.6660 -1.3768 -0.5818
 3152SOL    HW210156   5.691   0.238   4.906  0.4660  1.2986 -1.1594
 3153SOL     OW10157   6.705   4.260   1.284  0.5512  0.0642  0.4564
 3153SOL    HW110158   6.753   4.207   1.220  0.6859  0.2398  0.4127
 3153SOL    HW210159   6.619   4.219   1.289 -0.3883  1.5802 -1.8013
 3154SOL     OW10160   2.116   7.762   7.032  0.3036  0.0599  0.0292
 3154SOL    HW110161   2.164   7.742   6.952 -1.0496  0.9479 -1.0540
 3154SOL    HW210162   2.166   7.833   7.072  0.9889 -0.3835 -0.0202
 3155SOL     OW10163   1.645   0.362   0.556 -0.2422 -0.1028 -0.0231
 3155SOL    HW110164   1.687   0.308   0.489  0.1707 -1.7782  1.5084
 3155SOL    HW210165   1.579   0.413   0.508  2.3470  1.4489 -2.2723
 3156SOL     OW10166   1.767   4.489   5.434 -0.6021 -0.2066  0.0114
 3156SOL    HW110167   1.687   4.516   5.389 -0.6430  0.1860  0.3135
 3156SOL    HW210168   1.818   4.569   5.442 -1.1843  0.0157  1.8588
 3157SOL     OW10169   0.656   2.059   3.854 -0.1789  0.1037  0.4451
 3157SOL    HW110170   0.674   2.148   3.824 -0.2847  0.0191  0.1197
 3157SOL    HW210171   0.621   2.015   3.776  0.9306 -0.5353  0.2986
 3158SOL     OW10172   0.046   1.723   6.317  0.6023  0.6491  0.4589
 3158SOL    HW110173  -0.050   1.726   6.312  0.5693  1.8399  1.3210
 3158SOL    HW210174   0.070   1.639   6.276 -0.7657  0.5531 -0.2027
 3159SOL     OW10175   0.991   6.456   3.570  0.1768  0.3852  0.2823
 3159SOL    HW110176   0.939   6.463   3.490  1.8910  1.0098 -0.8178
 3159SOL    HW210177   0.927   6.433   3.637 -1.4964  0.9551 -1.0352
 3160SOL     OW10178   5.142   4.790   4.214 -0.1203  0.2373 -0.8549
 3160SOL    HW110179   5.064   4.768   4.266  0.4819  0.6171  0.2325
 3160SOL    HW210180   5.116   4.865   4.162 -0.3406  0.6642 -0.1381
 3161SOL     OW10181   3.949   0.416   3.094  0.0897 -0.4531 -0.2003
 3161SOL    HW110182   4.040   0.390   3.110 -0.3684 -1.2528  1.2670
 3161SOL    HW210183   3.936   0.494   3.148 -0.7472 -1.7341  1.5633
 3162SOL     OW10184   3.443   6.078   0.077  0.4074  0.0333 -0.6725
 3162SOL    HW110185   3.501   6.103   0.149 -0.6517  2.3913 -0.5145
 3162SOL    HW210186   3.500   6.036   0.013  1.4375 -1.7912  1.3331
 3163SOL     OW10187   3.609   6.888   7.027 -0.1182  0.3167  0.1054
 3163SOL    HW110188   3.579   6.937   6.950 -0.6955 -1.4591 -0.8591
 3163SOL    HW210189   3.570   6.801   7.016  0.6794 -0.2972  1.8712
 3164SOL     OW10190   5.069   3.941   2.865  0.5806  0.2308  0.0643
 3164SOL    HW110191   5.085   4.032   2.841  0.4317 -0.0396 -1.1395
 3164SOL    HW210192   5.073   3.893   2.781  1.8447 -1.0397  0.8045
 3165SOL     OW10193   7.600   7.030   6.463 -0.2701  1.0132 -0.2678
 3165SOL    HW110194   7.690   7.057   6.446 -0.5500  0.8178 -2.2915
 3165SOL    HW210195   7.548   7.109   6.448 -0.5068  0.9615  0.2511
 3166SOL     OW10196   1.563   1.574   5.370  0.3150 -0.0412 -0.3657
 3166SOL    HW110197   1.586   1.518   5.444 -0.1007  2.3660  1.7585
 3166SOL    HW210198   1.598   1.660   5.394 -1.4347  1.2552 -2.1115
 3167SOL     OW10199   0.463   1.568   7.636 -0.0354  0.2678 -0.3677
 3167SOL    HW110200   0.466   1.645   7.579 -0.8878 -0.7232 -1.8465
 3167SOL    HW210201   0.518   1.504   7.591 -1.1203 -0.6975 -0.3653
 3168SOL     OW10202   0.166   5.322   3.056 -0.3550 -0.4023 -0.0922
 3168SOL    HW110203   0.227   5.339   2.985  0.7008  0.1912  0.9158
 3168SOL    HW210204   0.217   5.272   3.120 -0.3488  1.5847  1.5505
 3169SOL     OW10205   6.606   4.445   6.241  0.3755 -1.1865 -0.4864
 3169SOL    HW110206   6.630   4.512   6.305  1.7743 -2.5170  0.4614
 3169SOL    HW210207   6.609   4.490   6.157  0.9995  0.0088  0.1525
 3170SOL     OW10208   4.458   5.193   0.197 -0.9500  0.9721  0.7264
 3170SOL    HW110209   4.381   5.156   0.240 -0.4841  0.8755  1.4784
 3170SOL    HW210210   4.421   5.250   0.129 -1.6794 -0.1519  0.1436
 3171SOL     OW10211   0.277   2.337   5.890 -0.7081  0.4446 -0.1746
 3171SOL    HW110212   0.185   2.327   5.868 -0.5874 -2.0756  0.2305
 3171SOL    HW210213   0.286   2.298   5.977  0.6518  1.1698  0.0436
 3172SOL     OW10214   7.369   6.113   0.623 -0.3107  0.3015  0.2794
 3172SOL    HW110215   7.313   6.083   0.551  1.6761 -1.0352 -0.8041
 3172SOL    HW210216   7.450   6.062   0.613 -0.0820 -0.2361  3.7154
 3173SOL     OW10217   0.317   3.869   6.092 -0.2675  0.1328  0.2853
 3173SOL    HW110218   0.296   3.961   6.106 -0.7245  0.4972 -2.3092
 3173SOL    HW210219   0.413   3.867   6.088 -0.2387  0.4054  0.7282
 3174SOL     OW10220   0.883   0.187   3.839  0.2035 -0.4562  0.1593
 3174SOL    HW110221   0.809   0.203   3.781  0.8686  0.7323 -0.4083
 3174SOL    HW210222   0.950   0.149   3.782  0.9982  1.0735  0.0192
 3175SOL     OW10223   5.207   4.661   1.517 -0.2319  0.5886 -0.4619
 3175SOL    HW110224   5.197   4.580   1.468 -1.0176  1.2157 -1.3767
 3175SOL    HW210225   5.176   4.640   1.606 -0.5223 -0.0804 -0.7162
 3176SOL     OW10226   3.160   5.049   6.458 -0.4316 -0.5816  0.0114
 3176SOL    HW110227   3.131   5.136   6.486 -0.5171  0.2526 -2.4658
 3176SOL    HW210228   3.121   4.989   6.522 -0.9729  1.1055  1.3557
 3177SOL     OW10229   7.922   6.047   2.199  0.0371  0.3242 -0.0602
 3177SOL    HW110230   7.897   6.069   2.288  0.8482  0.5852  0.1121
 3177SOL    HW210231   7.917   6.130   2.151 -0.1470  0.2341 -0.1997
 3178SOL     OW10232   5.168   5.720   4.328 -0.1157 -0.5136 -0.5337
 3178SOL    HW110233   5.238   5.670   4.370 -0.0508  0.1065  0.1195
 3178SOL    HW210234   5.162   5.801   4.379 -0.5153 -0.0426 -1.3013
 3179SOL     OW10235   7.671   3.003   6.974 -0.2650  0.4338 -0.0811
 3179SOL    HW110236   7.695   3.094   6.989 -0.4976  0.8428 -1.9902
 3179SOL    HW210237   7.585   3.007   6.932  0.1858 -0.5870 -1.1735
 3180SOL     OW10238   0.182   2.637   5.501 -0.4371 -0.0448 -0.6657
 3180SOL    HW110239   0.118   2.658   5.568 -0.0451  0.4695 -0.4404
 3180SOL    HW210240   0.258   2.604   5.549 -0.4248 -0.3673 -0.9051
 3181SOL     OW10241   5.835   5.750   1.541 -0.6281  0.0245 -0.2819
 3181SOL    HW110242   5.856   5.657   1.542  0.9254  0.3336 -0.6021
 3181SOL    HW210243   5.754   5.756   1.491 -0.1398 -1.0623 -1.2559
 3182SOL     OW10244   0.993   3.590   3.756 -0.6712 -0.5391  0.5024
 3182SOL    HW110245   1.040   3.594   3.672  0.4211  0.9030  1.1461
 3182SOL    HW210246   0.975   3.682   3.777 -1.6814 -0.9433  1.4465
 3183SOL     OW10247   5.163   2.612   7.584  0.5207  0.0302  0.4346
 3183SOL    HW110248   5.259   2.621   7.587  0.5260  0.6669 -0.8694
 3183SOL    HW210249   5.131   2.692   7.624  0.5245 -0.3553  1.2195
 3184SOL     OW10250   1.676   1.271   2.373  0.4298 -0.2929 -0.6031
 3184SOL    HW110251   1.647   1.211   2.305  3.8933  0.7506 -3.3124
 3184SOL    HW210252   1.757   1.232   2.406  0.1053  0.4662  1.2324
 3185SOL     OW10253   3.107   2.003   1.310  0.3264 -0.2552  0.2111
 3185SOL    HW110254   3.140   1.913   1.306  2.0162  0.3365 -0.3037
 3185SOL    HW210255   3.187   2.057   1.311 -0.5908  1.1960  2.2944
 3186SOL     OW10256   7.844   0.077   6.563  0.3622 -0.4261  0.1154
 3186SOL    HW110257   7.824   0.065   6.656  2.8333 -0.1326  0.7493
 3186SOL    HW210258   7.905   0.150   6.561  1.7420 -1.5544 -1.5568
 3187SOL     OW10259   2.803   7.599   4.936 -0.0493  0.2829 -0.1767
 3187SOL    HW110260   2.744   7.664   4.898  2.1204  2.0296 -0.7730
 3187SOL    HW210261   2.861   7.650   4.993  0.4353 -1.4520  0.9531
 3188SOL     OW10262   5.256   6.618   7.209 -0.4501  0.3291 -0.0888
 3188SOL    HW110263   5.312   6.620   7.288 -1.8674  1.7733  0.9473
 3188SOL    HW210264   5.246   6.525   7.189  0.1655 -0.0608  1.2816
 3189SOL     OW10265   6.092   1.785   3.503  0.0233  0.5459  0.0844
 3189SOL    HW110266   6.064   1.795   3.594 -0.3161  2.0339 -0.1509
 3189SOL    HW210267   6.188   1.779   3.508 -0.1071 -2.4517  0.7268
 3190SOL     OW10268   0.963   5.694   7.553 -0.4364 -0.1112 -0.0798
 3190SOL    HW110269   0.869   5.673   7.550 -1.3109  3.2210 -0.7765
 3190SOL    HW210270   0.981   5.729   7.465  1.6640 -1.2233 -0.1436
 3191SOL     OW10271   7.237   2.872   4.196 -0.1335 -0.2385  0.5273
 3191SOL    HW110272   7.332   2.878   4.210 -0.1913 -1.8744  1.9409
 3191SOL    HW210273   7.198   2.913   4.273 -0.6900  2.6404 -1.1319
 3192SOL     OW10274   7.459   7.479   2.766  0.3271  0.3048  0.1935
 3192SOL    HW110275   7.382   7.510   2.719  0.4185 -3.1165 -2.6573
 3192SOL    HW210276   7.532   7.491   2.705  1.5145  0.5986  1.6023
 3193SOL     OW10277   5.433   0.224   3.834  0.2423 -0.5768  0.2734
 3193SOL    HW110278   5.424   0.184   3.748 -1.1521  0.1794  0.0271
 3193SOL    HW210279   5.435   0.150   3.895 -3.1540 -1.1241 -0.0882
 3194SOL     OW10280   4.219   3.515   4.075  0.4358  0.6158  0.0025
 3194SOL    HW110281   4.270   3.435   4.059  0.5114  0.2962  1.6399
 3194SOL    HW210282   4.147   3.510   4.013  0.8813 -0.3316 -0.4651
 3195SOL     OW10283   3.704   5.723   2.141  0.0360  0.1616 -0.0077
 3195SOL    HW110284   3.743   5.805   2.173 -1.0881  0.6315  0.2052
 3195SOL    HW210285   3.683   5.674   2.220  1.9066 -0.9442 -0.1522
 3196SOL     OW10286   5.275   0.509   1.050  0.5418 -1.0816  0.1371
 3196SOL    HW110287   5.251   0.448   1.120 -1.0592 -0.5423  0.0906
 3196SOL    HW210288   5.286   0.454   0.973  1.6051 -1.5916  0.6244
 3197SOL     OW10289   2.244   0.957   7.917 -0.3777  0.0967  0.1039
 3197SOL    HW110290   2.177   0.973   7.983  0.4222  1.2163  0.6824
 3197SOL    HW210291   2.206   0.990   7.835 -0.8721 -0.1146  0.2439
 3198SOL     OW10292   1.288   3.737   5.101 -0.3282  0.4038  0.1663
 3198SOL    HW110293   1.236   3.660   5.123  0.0412  0.5924  1.8260
 3198SOL    HW210294   1.317   3.722   5.011 -2.5082 -0.1092 -0.5103
 3199SOL     OW10295   6.382   1.495   7.703 -0.6431 -0.0514 -0.4096
 3199SOL    HW110296   6.313   1.555   7.673  0.6947  0.6043 -2.3701
 3199SOL    HW210297   6.445   1.552   7.747 -0.9035 -0.5219  0.5897
 3200SOL     OW10298   2.286   2.664   1.952 -0.6057  0.0365 -0.2613
 3200SOL    HW110299   2.271   2.712   2.033  0.5927  0.1253 -0.0788
 3200SOL    HW210300   2.207   2.679   1.900 -1.2044  0.3171  0.7169
 3201SOL     OW10301   5.063   3.384   7.207  0.1312  0.5696 -0.4817
 3201SOL    HW110302   4.994   3.353   7.149 -0.0820  0.9550 -0.4379
 3201SOL    HW210303   5.064   3.321   7.279  0.1172  0.3211 -0.7003
 3202SOL     OW10304   4.771   2.187   4.512 -0.1954  0.0761  0.6422
 3202SOL    HW110305   4.710   2.128   4.468 -0.3845  0.5288  0.2967
 3202SOL    HW210306   4.762   2.166   4.605  0.4037 -1.0698  0.4593
 3203SOL     OW10307   6.104   7.605   4.053  0.6285 -0.2582 -0.1332
 3203SOL    HW110308   6.088   7.513   4.075 -1.3409  0.2327  0.7160
 3203SOL    HW210309   6.026   7.651   4.084  0.5267  1.4096 -2.5879
 3204SOL     OW10310   6.587   4.621   3.379 -0.0434 -0.5902 -0.8854
 3204SOL    HW110311   6.630   4.693   3.425  0.0684 -1.0529 -0.2525
 3204SOL    HW210312   6.545   4.570   3.448 -2.9756  0.6988 -1.5775
 3205SOL     OW10313   3.184   0.824   1.054  0.0690  0.3435  0.5756
 3205SOL    HW110314   3.277   0.836   1.034  0.4860 -2.4523  0.4196
 3205SOL    HW210315   3.166   0.733   1.032 -2.7230  0.7742  0.6831
 3206SOL     OW10316   2.577   3.166   6.420  0.0192  0.0485 -0.1690
 3206SOL    HW110317   2.559   3.175   6.513 -0.4429 -0.3685 -0.2123
 3206SOL    HW210318   2.671   3.181   6.412  0.0569  0.1120  0.3595
 3207SOL     OW10319   6.911   1.607   3.254 -0.4109 -0.3103 -0.2149
 3207SOL    HW110320   6.860   1.532   3.225  0.2977 -0.6693 -0.5609
 3207SOL    HW210321   7.002   1.578   3.248 -0.0585  0.9212 -1.3986
 3208SOL     OW10322   1.629   4.561   7.194  0.1603  0.0255 -0.4542
 3208SOL    HW110323   1.696   4.561   7.125 -0.5796  2.9148 -1.2951
 3208SOL    HW210324   1.673   4.599   7.270 -0.3202  1.2895 -0.8003
 3209SOL     OW10325   1.735   3.876   0.179  0.0200 -0.6233  0.2548
 3209SOL    HW110326   1.824   3.906   0.159 -0.1846 -0.1642  0.0146
 3209SOL    HW210327   1.731   3.878   0.275  0.3165 -0.7903  0.2723
 3210SOL     OW10328   0.831   4.530   2.120 -0.2386 -0.7488  0.4646
 3210SOL    HW110329   0.753   4.558   2.169 -0.7674  0.1009 -0.7932
 3210SOL    HW210330   0.904   4.546   2.179 -0.8658  0.1297  1.0261
 3211SOL     OW10331   6.946   2.060   3.694  0.0144  0.8051 -0.5360
 3211SOL    HW110332   6.910   2.109   3.620  1.9296 -0.2181 -2.2264
 3211SOL    HW210333   7.021   2.111   3.723 -0.5211  1.0223  0.5318
 3212SOL     OW10334   4.940   7.910   5.038  0.4457  0.1002 -0.1366
 3212SOL    HW110335   4.937   7.961   5.119 -0.8090  0.4569 -0.3918
 3212SOL    HW210336   4.955   7.820   5.067 -2.0632 -0.1267  0.6925
 3213SOL     OW10337   3.285   2.201   6.820  0.4232 -0.0547 -0.3939
 3213SOL    HW110338   3.251   2.173   6.736  0.5332 -0.6655 -0.2419
 3213SOL    HW210339   3.209   2.205   6.877  0.5498 -1.1418 -0.1289
 3214SOL     OW10340   2.166   0.978   7.266  0.1956 -0.5618 -0.3466
 3214SOL    HW110341   2.185   0.925   7.343 -1.7953 -1.6860 -0.5514
 3214SOL    HW210342   2.187   1.068   7.292 -0.9750 -0.8346  1.7240
 3215SOL     OW10343   4.594   0.473   4.390 -0.2173 -0.0089  0.5996
 3215SOL    HW110344   4.657   0.429   4.447  0.3988 -0.0361 -0.0848
 3215SOL    HW210345   4.553   0.539   4.445 -0.8633 -1.1472  1.5418
 3216SOL     OW10346   4.206   1.813   0.898 -0.0092 -0.0925 -0.3543
 3216SOL    HW110347   4.223   1.774   0.812 -1.5841 -1.7895  0.0398
 3216SOL    HW210348   4.181   1.739   0.953 -0.4840  1.1578  1.1877
 3217SOL     OW10349   6.112   0.093   3.437  0.5401  0.3757 -0.0227
 3217SOL    HW110350   6.025   0.069   3.404  0.0598 -0.5947  1.7879
 3217SOL    HW210351   6.163   0.012   3.433  0.6096  0.3397  1.0818
 3218SOL     OW10352   2.542   5.022   4.341 -0.0179 -0.3590  0.4549
 3218SOL    HW110353   2.626   4.985   4.314  0.1510 -0.0387  0.5477
 3218SOL    HW210354   2.558   5.061   4.426  0.2977  1.6696 -0.4785
 3219SOL     OW10355   3.035   1.698   7.001  0.2076  0.2095  0.1706
 3219SOL    HW110356   2.985   1.778   6.984  2.9724  1.9047 -0.6959
 3219SOL    HW210357   3.090   1.720   7.076 -0.0334 -1.4567  0.8863
 3220SOL     OW10358   6.055   4.516   1.034 -0.7031  0.3138 -0.7300
 3220SOL    HW110359   6.080   4.516   0.942  1.5883 -0.9156 -0.1661
 3220SOL    HW210360   6.117   4.576   1.076 -0.8729 -0.1517  0.2123
 3221SOL     OW10361   7.741   6.582   2.620  0.2793  0.4004  0.2362
 3221SOL    HW110362   7.825   6.536   2.618  0.6497  1.0933 -0.3809
 3221SOL    HW210363   7.732   6.612   2.711  0.3044 -0.3828  0.5047
 3222SOL     OW10364   5.654   5.026   0.289 -0.3591  0.4239 -0.2619
 3222SOL    HW110365   5.663   5.050   0.196 -1.3347 -1.9865 -1.0826
 3222SOL    HW210366   5.578   5.075   0.319 -0.1090  1.1454 -0.7740
 3223SOL     OW10367   6.289   6.208   6.051  0.0780 -0.0478 -0.3145
 3223SOL    HW110368   6.276   6.258   6.131 -1.1056 -0.4816 -0.2227
 3223SOL    HW210369   6.306   6.118   6.082  0.1613 -0.1101 -0.5377
 3224SOL     OW10370   3.005   0.554   1.681 -0.2839 -0.2130 -0.3147
 3224SOL    HW110371   3.022   0.607   1.604  0.9134 -0.2320 -0.0834
 3224SOL    HW210372   2.950   0.482   1.650 -2.8493  1.6742 -0.4273
 3225SOL     OW10373   6.581   3.941   3.443 -0.1700  0.0342  0.0700
 3225SOL    HW110374   6.657   3.884   3.457 -0.8796 -1.0389 -0.3835
 3225SOL    HW210375   6.585   4.003   3.516 -0.1428 -1.4323  1.3666
 3226SOL     OW10376   0.676   6.380   5.389  0.1341 -0.0802  0.2295
 3226SOL    HW110377   0.708   6.464   5.422  1.1440 -0.0421 -0.7733
 3226SOL    HW210378   0.730   6.315   5.432 -0.8138 -0.2699  1.1976
 3227SOL     OW10379   0.342   5.465   2.558 -0.2637 -1.1304  0.5704
 3227SOL    HW110380   0.365   5.417   2.479 -0.3448 -0.4110  0.0969
 3227SOL    HW210381   0.246   5.458   2.564 -0.9220  2.5629 -1.9870
 3228SOL     OW10382   2.708   7.243   2.987 -0.1116  0.4913  0.2042
 3228SOL    HW110383   2.634   7.259   2.928  0.0247 -1.5529 -0.5895
 3228SOL    HW210384   2.770   7.192   2.935 -0.5577 -2.5344  2.3992
 3229SOL     OW10385   0.302   0.278   4.060 -0.5566 -0.0551  0.1278
 3229SOL    HW110386   0.272   0.275   4.151  0.6432 -0.7144  0.5266
 3229SOL    HW210387   0.309   0.371   4.040  0.0368  0.1104  1.0298
 3230SOL     OW10388   3.638   3.495   0.904 -0.8584  0.6808  0.3254
 3230SOL    HW110389   3.561   3.440   0.920 -0.0082 -0.3092  1.1347
 3230SOL    HW210390   3.669   3.519   0.991  0.3810  0.1590  0.0413
 3231SOL     OW10391   7.418   0.301   0.128 -0.6096 -0.4261 -0.0823
 3231SOL    HW110392   7.494   0.244   0.138 -0.2082  0.4054  2.3410
 3231SOL    HW210393   7.342   0.242   0.132 -0.1650 -0.9712  0.3359
 3232SOL     OW10394   1.330   6.076   2.813 -0.3168 -0.3423 -0.0342
 3232SOL    HW110395   1.400   6.141   2.808  0.1815 -0.8633  0.0663
 3232SOL    HW210396   1.268   6.113   2.875 -0.4639  0.4322 -0.6328
 3233SOL     OW10397   2.627   1.772   1.558 -0.1792  0.1175  0.0227
 3233SOL    HW110398   2.575   1.844   1.523 -0.7911  0.4838  1.5899
 3233SOL    HW210399   2.653   1.802   1.645 -1.1707 -1.8771  1.0714
 3234SOL     OW10400   6.791   7.526   3.542 -0.1812  0.1347 -0.4516
 3234SOL    HW110401   6.852   7.461   3.507  0.6726  0.9305 -0.4924
 3234SOL    HW210402   6.705   7.488   3.527  0.2838 -0.8816 -0.6841
 3235SOL     OW10403   6.256   5.960   1.029 -0.0048 -0.1901  0.5926
 3235SOL    HW110404   6.207   6.041   1.041 -1.2531 -0.2224 -3.0110
 3235SOL    HW210405   6.207   5.895   1.080 -1.1902  0.6206  0.5216
 3236SOL     OW10406   1.271   3.853   3.455 -0.1388 -0.3138  0.0655
 3236SOL    HW110407   1.339   3.799   3.414 -1.4411 -1.8859 -0.0931
 3236SOL    HW210408   1.261   3.927   3.395  0.7658 -0.5354 -0.3871
 3237SOL     OW10409   6.125   7.879   1.180 -0.3747  0.1866 -0.2321
 3237SOL    HW110410   6.127   7.811   1.113  0.5388 -0.1788  0.1551
 3237SOL    HW210411   6.058   7.849   1.242 -0.2813 -0.1451 -0.2893
 3238SOL     OW10412   3.020   3.525   4.553 -0.3504 -0.3389  0.2190
 3238SOL    HW110413   2.996   3.604   4.505  0.3833 -0.8029 -0.9466
 3238SOL    HW210414   3.115   3.527   4.559 -0.2851 -1.3527 -0.2309
 3239SOL     OW10415   4.384   1.370   0.541  0.7137  0.2591  0.2516
 3239SOL    HW110416   4.320   1.385   0.611  1.0402  1.1358  0.3781
 3239SOL    HW210417   4.450   1.314   0.581  0.5340  0.1700  0.4257
 3240SOL     OW10418   6.524   2.909   1.398  0.0939  0.0393 -0.0271
 3240SOL    HW110419   6.440   2.905   1.442  0.7070 -0.0271  1.1941
 3240SOL    HW210420   6.576   2.970   1.451  0.9805 -0.3300 -0.4460
 3241SOL     OW10421   7.763   4.863   3.415  0.1946  0.5254 -0.2929
 3241SOL    HW110422   7.705   4.886   3.488  0.0817  0.6511 -0.4210
 3241SOL    HW210423   7.812   4.787   3.446  0.1596  0.5897 -0.0791
 3242SOL     OW10424   5.921   3.719   5.345  0.3637 -0.2054  0.3630
 3242SOL    HW110425   5.923   3.726   5.440 -0.7362  1.3782  0.3066
 3242SOL    HW210426   5.838   3.674   5.326 -0.1645  0.8355  0.1232
 3243SOL     OW10427   3.725   6.771   5.660 -0.2102 -0.6422  0.2530
 3243SOL    HW110428   3.696   6.687   5.625  0.5922 -0.8734  0.1371
 3243SOL    HW210429   3.664   6.834   5.622 -0.5987 -1.1246  0.0548
 3244SOL     OW10430   1.424   0.191   3.027 -0.0136 -0.1709  0.0152
 3244SOL    HW110431   1.454   0.170   2.938 -0.6563 -1.7332  0.1447
 3244SOL    HW210432   1.504   0.191   3.080  0.4761  1.4568 -0.6438
 3245SOL     OW10433   6.746   2.538   0.331  0.2421  0.1265  1.4010
 3245SOL    HW110434   6.701   2.622   0.327 -1.2142 -0.5390  2.5893
 3245SOL    HW210435   6.675   2.473   0.333  1.2856 -1.3342 -1.7899
 3246SOL     OW10436   5.949   7.156   6.895  0.6847  0.3135  0.1545
 3246SOL    HW110437   5.948   7.246   6.927 -1.0945 -0.4233  2.5431
 3246SOL    HW210438   5.896   7.108   6.959  1.7196 -2.4710 -0.9261
 3247SOL     OW10439   5.589   1.995   7.779  0.2445  0.5139 -0.0833
 3247SOL    HW110440   5.609   1.913   7.824  1.1739  0.2484 -0.9275
 3247SOL    HW210441   5.539   1.969   7.702  0.0192  0.8002 -0.0362
 3248SOL     OW10442   1.562   3.674   7.162  0.5763  0.8448  0.2962
 3248SOL    HW110443   1.570   3.661   7.257 -0.5855  0.6055  0.3778
 3248SOL    HW210444   1.651   3.691   7.133  1.5659 -2.5790  0.8854
 3249SOL     OW10445   4.369   5.720   2.607 -0.2004  0.2853  0.1872
 3249SOL    HW110446   4.406   5.801   2.643 -1.0565  0.7566  0.0441
 3249SOL    HW210447   4.399   5.718   2.516 -0.8093  0.8554 -0.0340
 3250SOL     OW10448   1.366   0.802   2.561  0.5712 -0.0254  0.0015
 3250SOL    HW110449   1.427   0.876   2.562 -1.1500  1.4631 -0.4265
 3250SOL    HW210450   1.284   0.837   2.595 -0.6166 -1.4416 -1.2396
 3251SOL     OW10451   0.446   4.667   7.611 -0.1091  0.1641 -0.4367
 3251SOL    HW110452   0.484   4.600   7.667 -0.6231  0.4326  0.2353
 3251SOL    HW210453   0.517   4.692   7.552  0.3240 -0.3772 -0.1461
 3252SOL     OW10454   0.096   3.061   7.770 -0.4301 -0.0547  0.0847
 3252SOL    HW110455   0.010   3.090   7.801 -0.6172  0.0134 -0.4792
 3252SOL    HW210456   0.077   3.003   7.697 -0.0298 -1.0836  0.7821
 3253SOL     OW10457   4.239   5.888   5.382 -0.5038 -0.8106  0.0873
 3253SOL    HW110458   4.332   5.911   5.375 -0.0791 -1.7541  1.9482
 3253SOL    HW210459   4.217   5.905   5.473 -2.4853  0.4103 -0.5615
 3254SOL     OW10460   1.326   4.881   5.056  0.1219 -0.2691 -0.7187
 3254SOL    HW110461   1.323   4.885   5.152 -0.3905 -3.3247 -0.5032
 3254SOL    HW210462   1.236   4.898   5.029  0.5062  1.9163 -0.8322
 3255SOL     OW10463   1.737   0.658   6.116  0.2352 -0.3880  0.6942
 3255SOL    HW110464   1.643   0.661   6.098  0.6096  0.6276 -1.3690
 3255SOL    HW210465   1.759   0.565   6.114 -0.8039 -0.6792  1.7839
 3256SOL     OW10466   4.238   4.060   0.239 -0.1193 -0.5849 -0.1343
 3256SOL    HW110467   4.329   4.086   0.224 -0.3442  0.5458  0.3613
 3256SOL    HW210468   4.221   3.993   0.172  1.8189 -2.6569  1.2770
 3257SOL     OW10469   3.068   3.685   1.277 -0.5587  0.5382  0.4116
 3257SOL    HW110470   3.134   3.710   1.213 -0.7389  0.9989  0.4002
 3257SOL    HW210471   3.100   3.602   1.314 -1.4712 -0.8773 -1.7519
 3258SOL     OW10472   3.648   1.128   5.570 -0.4040 -0.1512  0.4571
 3258SOL    HW110473   3.687   1.215   5.575 -1.8784  0.4676  2.4268
 3258SOL    HW210474   3.719   1.068   5.594  0.4005  0.5683 -0.0906
 3259SOL     OW10475   1.286   5.188   1.365 -0.7736  0.1086 -0.3605
 3259SOL    HW110476   1.348   5.122   1.396 -0.6079  0.0080 -0.8886
 3259SOL    HW210477   1.214   5.138   1.327  0.0937  0.1712 -2.2557
 3260SOL     OW10478   0.714   6.699   2.830  0.0583 -0.3031  0.4253
 3260SOL    HW110479   0.622   6.673   2.827  0.4443 -1.7769  0.5977
 3260SOL    HW210480   0.735   6.723   2.740 -0.2008 -1.0565  0.1612
 3261SOL     OW10481   7.245   1.672   0.998  0.1093  0.1447  0.5389
 3261SOL    HW110482   7.309   1.709   0.937  0.0052 -0.5574 -0.0097
 3261SOL    HW210483   7.199   1.606   0.947 -1.3428  0.9104  0.8009
 3262SOL     OW10484   1.843   1.932   3.332  0.1067  0.1041 -0.0966
 3262SOL    HW110485   1.857   1.869   3.261  0.5764 -1.6764  1.4962
 3262SOL    HW210486   1.831   1.879   3.410 -1.3393  1.9736  1.0606
 3263SOL     OW10487   6.675   6.488   2.464  0.5108 -0.5562  0.6616
 3263SOL    HW110488   6.595   6.527   2.499  1.3409  1.1655  0.7397
 3263SOL    HW210489   6.741   6.503   2.533  1.0779 -1.2591  0.2835
 3264SOL     OW10490   6.101   3.414   4.756 -0.0179 -0.1362  0.5984
 3264SOL    HW110491   6.191   3.413   4.788 -0.4401  0.8509  1.8948
 3264SOL    HW210492   6.085   3.324   4.727  1.0833 -0.5424  1.1946
 3265SOL     OW10493   5.498   1.033   1.910  0.1581 -0.3483  0.3133
 3265SOL    HW110494   5.540   0.947   1.901 -0.0462 -0.4688  0.5127
 3265SOL    HW210495   5.490   1.065   1.820  1.9020  0.2736  0.3472
 3266SOL     OW10496   0.708   4.073   1.894  0.4946 -0.1349 -0.1030
 3266SOL    HW110497   0.785   4.029   1.932  0.7789  0.5620  0.1384
 3266SOL    HW210498   0.745   4.136   1.832  0.1503  0.6829  0.5140
 3267SOL     OW10499   0.675   0.035   2.407  0.0224 -0.1854  0.5487
 3267SOL    HW110500   0.610  -0.032   2.427 -1.5356  1.2368  0.4616
 3267SOL    HW210501   0.655   0.062   2.318 -0.1817  1.2113  0.9842
 3268SOL     OW10502   3.338   7.246   2.414 -0.2946  0.1981 -0.4144
 3268SOL    HW110503   3.266   7.309   2.412  0.6201  1.2959 -0.3871
 3268SOL    HW210504   3.412   7.294   2.378  0.4522 -0.8716 -0.3541
 3269SOL     OW10505   4.636   7.868   3.828 -0.0177 -0.1902  0.0659
 3269SOL    HW110506   4.696   7.809   3.782  0.2881 -0.1084  0.3538
 3269SOL    HW210507   4.659   7.858   3.921 -0.4986 -0.2102  0.1846
 3270SOL     OW10508   2.470   0.777   3.259 -0.0352 -0.0580 -0.1003
 3270SOL    HW110509   2.506   0.731   3.334 -1.0313 -0.1772  0.3100
 3270SOL    HW210510   2.547   0.811   3.213  0.5835 -0.0268  0.9332
 3271SOL     OW10511   1.989   7.751   4.098 -0.8289 -0.5981  0.2500
 3271SOL    HW110512   1.978   7.694   4.174 -1.6120 -0.2931  0.3758
 3271SOL    HW210513   1.932   7.826   4.117  2.1382  1.5575  1.3717
 3272SOL     OW10514   7.023   6.197   7.209  0.3699 -0.1470  0.1046
 3272SOL    HW110515   7.027   6.110   7.248  1.0178 -0.1729 -0.0026
 3272SOL    HW210516   7.036   6.183   7.115 -0.9244 -0.0614 -0.1012
 3273SOL     OW10517   1.550   3.912   0.842 -0.5188  0.5843  0.2843
 3273SOL    HW110518   1.630   3.860   0.833 -1.6687 -1.8372  2.6377
 3273SOL    HW210519   1.489   3.874   0.778 -0.2988  1.3543 -0.3890
 3274SOL     OW10520   4.030   7.902   1.709  0.3184  0.1829  0.4705
 3274SOL    HW110521   4.109   7.860   1.676  0.3742  1.4040 -1.0706
 3274SOL    HW210522   4.053   7.929   1.798  2.3470  2.1642 -0.5492
 3275SOL     OW10523   1.346   7.307   2.658 -0.1482 -0.0963  0.0034
 3275SOL    HW110524   1.309   7.363   2.589 -1.9151 -0.7161  0.3932
 3275SOL    HW210525   1.281   7.238   2.670  1.5434 -1.7386  0.1925
 3276SOL     OW10526   3.264   4.902   3.718  0.6028  0.3128 -0.2499
 3276SOL    HW110527   3.249   4.971   3.654 -0.7163 -0.8406 -1.2647
 3276SOL    HW210528   3.321   4.839   3.674  2.0914  0.8787  0.7922
 3277SOL     OW10529   1.578   5.956   2.663 -0.1548 -0.2296  0.6430
 3277SOL    HW110530   1.537   5.876   2.631  1.7208 -1.7469  1.8207
 3277SOL    HW210531   1.533   5.977   2.744  0.0990 -0.7534  0.9193
 3278SOL     OW10532   7.940   7.144   2.706 -0.3540 -0.1017 -0.0394
 3278SOL    HW110533   7.867   7.104   2.752 -1.6287  0.9807 -1.0146
 3278SOL    HW210534   7.899   7.199   2.639  1.3591  0.5331 -0.6380
 3279SOL     OW10535   7.190   5.018   0.325 -0.2907 -0.4391  0.4396
 3279SOL    HW110536   7.286   5.015   0.329 -0.3644 -1.5655  1.8065
 3279SOL    HW210537   7.165   4.936   0.282 -0.6747 -0.5553  0.8805
 3280SOL     OW10538   7.131   2.588   5.389 -0.0078  0.1594 -0.5465
 3280SOL    HW110539   7.051   2.635   5.366 -1.2607 -1.1637  0.8287
 3280SOL    HW210540   7.102   2.522   5.453  2.0126 -1.0516 -0.7946
 3281SOL     OW10541   4.556   0.410   6.469  0.1887  0.4407  0.4856
 3281SOL    HW110542   4.526   0.324   6.501  1.4110 -0.4843 -0.7525
 3281SOL    HW210543   4.475   0.460   6.456 -0.5659 -0.6242  0.9120
 3282SOL     OW10544   0.839   3.692   4.070  0.2434  1.1128  0.4580
 3282SOL    HW110545   0.748   3.679   4.043 -0.1395  2.8770  0.7474
 3282SOL    HW210546   0.875   3.604   4.078 -1.0346  0.4115 -1.0171
 3283SOL     OW10547   4.742   0.682   0.949 -0.5291  0.0014  0.2127
 3283SOL    HW110548   4.664   0.642   0.986  0.6877 -2.6882  0.1411
 3283SOL    HW210549   4.809   0.613   0.955  1.5691  1.8420 -0.6255
 3284SOL     OW10550   3.850   1.370   5.994 -0.1040 -0.0291 -0.3275
 3284SOL    HW110551   3.928   1.422   5.977  0.4191 -0.6331  0.1655
 3284SOL    HW210552   3.778   1.432   5.985  0.4835  0.7231 -0.0316
 3285SOL     OW10553   4.071   7.037   5.534 -0.1039  0.8073 -0.2299
 3285SOL    HW110554   4.011   7.085   5.478 -0.0794  0.0093 -0.9523
 3285SOL    HW210555   4.015   6.992   5.597 -0.2235  0.5454 -0.5250
 3286SOL     OW10556   4.320   2.495   1.980  0.0473  0.3412 -0.0538
 3286SOL    HW110557   4.238   2.447   1.968  1.3206 -1.8787 -0.4209
 3286SOL    HW210558   4.350   2.513   1.891  0.3716  0.3750  0.0639
 3287SOL     OW10559   0.055   6.696   0.701 -0.4341  0.0123  0.3134
 3287SOL    HW110560   0.094   6.637   0.766  1.2447 -0.1538 -0.7773
 3287SOL    HW210561   0.024   6.771   0.752 -0.8372 -0.9301  1.4960
 3288SOL     OW10562   1.631   0.324   6.528  0.2369  0.0020 -0.1694
 3288SOL    HW110563   1.685   0.399   6.503  0.6086 -0.3114 -0.2998
 3288SOL    HW210564   1.682   0.247   6.503  0.3192 -0.3108  0.9314
 3289SOL     OW10565   3.037   1.880   7.266 -0.2120  0.1879 -0.2496
 3289SOL    HW110566   2.973   1.821   7.307 -2.1211  2.1983 -0.1844
 3289SOL    HW210567   3.121   1.839   7.284 -1.4246 -2.5662 -0.3050
 3290SOL     OW10568   4.025   7.939   0.071 -0.4161  0.1018 -0.5848
 3290SOL    HW110569   3.940   7.916   0.034 -0.7394  0.2384  0.0493
 3290SOL    HW210570   4.044   7.868   0.132  0.5550 -0.6134 -1.6797
 3291SOL     OW10571   5.304   6.317   2.236 -0.6365  0.1483 -0.3184
 3291SOL    HW110572   5.330   6.225   2.236  0.7233  0.5123  0.2017
 3291SOL    HW210573   5.230   6.321   2.297  0.5565 -0.2940  1.2282
 3292SOL     OW10574   2.237   5.906   3.906 -0.0068  0.2922 -0.3399
 3292SOL    HW110575   2.281   5.846   3.965  0.6776  0.4943 -0.6384
 3292SOL    HW210576   2.306   5.939   3.849 -0.4956  0.8159 -0.6413
 3293SOL     OW10577   1.541   1.473   3.899  0.2976 -0.4749  0.0321
 3293SOL    HW110578   1.558   1.447   3.990  1.0016  0.0921  0.0703
 3293SOL    HW210579   1.546   1.568   3.901 -0.1393 -0.4378 -0.5210
 3294SOL     OW10580   0.662   2.694   3.175  0.0409  0.3468  0.0814
 3294SOL    HW110581   0.623   2.638   3.242 -0.0506 -0.4316 -0.6042
 3294SOL    HW210582   0.588   2.742   3.138 -0.1576 -0.4972 -0.6340
 3295SOL     OW10583   7.916   7.872   1.644 -0.0807 -0.1165 -0.2294
 3295SOL    HW110584   7.920   7.942   1.709 -0.9978  0.5803 -0.8996
 3295SOL    HW210585   7.946   7.914   1.563 -0.5783 -0.5092 -0.6222
 3296SOL     OW10586   5.573   4.680   3.299 -0.7842  0.2607  0.1427
 3296SOL    HW110587   5.484   4.674   3.266 -0.5477 -0.8228 -0.3265
 3296SOL    HW210588   5.564   4.719   3.386 -1.7059  0.1731  0.0914
 3297SOL     OW10589   1.251   4.569   6.063 -0.0508 -0.1207  0.5134
 3297SOL    HW110590   1.199   4.586   5.985 -0.0305  0.6966  0.6702
 3297SOL    HW210591   1.307   4.495   6.039 -0.7936 -0.5686  0.1152
 3298SOL     OW10592   4.657   0.602   0.232 -0.3090  0.0119  0.2535
 3298SOL    HW110593   4.725   0.598   0.299 -0.3067  1.5317  0.3577
 3298SOL    HW210594   4.580   0.634   0.278 -0.7054 -0.3012 -0.1808
 3299SOL     OW10595   3.543   2.348   7.874 -0.5609  0.1515 -0.3939
 3299SOL    HW110596   3.599   2.319   7.945  1.9694 -0.3599 -2.4452
 3299SOL    HW210597   3.538   2.443   7.884 -0.2317  0.0854  0.4521
 3300SOL     OW10598   6.268   6.142   6.782  0.0672 -0.1818 -0.1031
 3300SOL    HW110599   6.320   6.071   6.819 -1.8809 -2.4484 -1.4330
 3300SOL    HW210600   6.183   6.135   6.826 -0.4583  0.7355 -0.9314
 3301SOL     OW10601   6.728   1.204   2.057  0.3705 -0.1083  0.1103
 3301SOL    HW110602   6.760   1.273   2.116 -2.3581  0.0616  1.5623
 3301SOL    HW210603   6.679   1.145   2.114 -0.4328 -1.2483 -1.6712
 3302SOL     OW10604   1.635   5.762   7.729  0.1486  0.3180 -0.0467
 3302SOL    HW110605   1.729   5.757   7.711  0.4326 -1.1310  1.5041
 3302SOL    HW210606   1.611   5.673   7.755 -1.6580  0.6651 -0.3740
 3303SOL     OW10607   2.781   0.240   4.305  0.0500 -0.1425 -0.1013
 3303SOL    HW110608   2.778   0.333   4.326 -1.4666  0.1739 -1.5343
 3303SOL    HW210609   2.750   0.196   4.385  0.2666  0.5986  0.3951
 3304SOL     OW10610   6.552   3.899   5.056  0.4455  0.0481 -0.2359
 3304SOL    HW110611   6.640   3.876   5.027  0.1805  0.2244 -1.2414
 3304SOL    HW210612   6.524   3.966   4.993 -1.3337 -1.7563 -1.4816
 3305SOL     OW10613   2.728   3.938   2.092  0.4676 -0.6941 -0.3993
 3305SOL    HW110614   2.654   3.882   2.116  0.5972 -0.9913 -0.6882
 3305SOL    HW210615   2.741   3.994   2.169 -0.3224 -0.3489 -0.5039
 3306SOL     OW10616   1.711   4.961   3.709 -0.0880  0.2282 -0.5566
 3306SOL    HW110617   1.680   4.907   3.782  0.3704  0.7363  0.0251
 3306SOL    HW210618   1.665   4.927   3.632  0.7797 -1.5251 -0.3463
 3307SOL     OW10619   1.662   7.030   6.082 -0.5793  0.2058 -0.2673
 3307SOL    HW110620   1.632   7.105   6.033  1.2242  0.6149 -0.8424
 3307SOL    HW210621   1.702   6.972   6.017  2.4408  1.0559  0.6632
 3308SOL     OW10622   5.519   7.627   3.534  0.1706 -0.2770  0.1120
 3308SOL    HW110623   5.571   7.653   3.610  0.7276 -1.8557  0.3251
 3308SOL    HW210624   5.585   7.605   3.467 -0.3011  2.7512 -1.5010
 3309SOL     OW10625   0.874   1.650   3.167  0.1318 -0.0458  0.5880
 3309SOL    HW110626   0.810   1.673   3.099  1.3458  1.9794  0.0361
 3309SOL    HW210627   0.846   1.702   3.243  0.2706 -0.2923  0.8076
 3310SOL     OW10628   7.310   2.034   3.610 -0.4131  0.4034 -0.4025
 3310SOL    HW110629   7.374   2.076   3.552 -0.3005 -1.0883 -1.4371
 3310SOL    HW210630   7.229   2.031   3.559 -0.7765  0.5245  0.1540
 3311SOL     OW10631   0.076   2.255   1.383  0.1218  0.3217  0.0040
 3311SOL    HW110632   0.052   2.294   1.467 -3.2831  0.7342 -1.0092
 3311SOL    HW210633   0.054   2.162   1.393  0.4525  0.2172 -0.2189
 3312SOL     OW10634   7.675   1.829   3.883  0.8783 -0.3281 -0.6817
 3312SOL    HW110635   7.646   1.920   3.892  3.0272  0.2950  1.1691
 3312SOL    HW210636   7.670   1.811   3.789 -2.0579  0.7599 -0.8267
 3313SOL     OW10637   0.999   4.431   3.352  0.0522 -0.0850  0.7072
 3313SOL    HW110638   1.013   4.470   3.438  0.4575  1.2908  0.0439
 3313SOL    HW210639   1.036   4.495   3.291  0.3520 -1.3290 -0.4503
 3314SOL     OW10640   2.002   3.369   5.409  0.1209  0.1243 -0.3792
 3314SOL    HW110641   2.091   3.400   5.424 -0.0478  0.5435 -0.2345
 3314SOL    HW210642   1.965   3.360   5.497  0.1895 -0.5526 -0.4157
 3315SOL     OW10643   3.664   5.472   0.818  0.4112 -0.1442  0.1215
 3315SOL    HW110644   3.689   5.397   0.764 -0.4539 -0.6770  0.4482
 3315SOL    HW210645   3.640   5.540   0.755  1.5460  0.0009 -0.1821
 3316SOL     OW10646   5.576   3.614   0.713 -0.1447 -0.1668 -0.7638
 3316SOL    HW110647   5.606   3.536   0.759 -2.4197 -0.0128  1.2393
 3316SOL    HW210648   5.507   3.582   0.654 -2.4226  0.3967  1.4208
 3317SOL     OW10649   5.371   7.338   4.615 -0.1777  0.1503  0.4358
 3317SOL    HW110650   5.448   7.287   4.589  0.3272  1.8908 -1.8972
 3317SOL    HW210651   5.385   7.357   4.707  1.8137 -0.2603  0.2753
 3318SOL     OW10652   3.549   4.525   2.940 -0.3121 -0.1270  0.3556
 3318SOL    HW110653   3.478   4.538   3.002 -0.3511  0.3399  0.2144
 3318SOL    HW210654   3.553   4.430   2.927 -3.0862 -0.0554 -2.1142
 3319SOL     OW10655   0.152   4.769   2.275 -0.1172  0.4300  0.3804
 3319SOL    HW110656   0.143   4.864   2.277 -2.0503  0.3138 -0.5856
 3319SOL    HW210657   0.072   4.737   2.318  1.2227 -0.7829  2.1132
 3320SOL     OW10658   0.669   1.758   4.532 -0.1423  0.3739  0.6130
 3320SOL    HW110659   0.608   1.706   4.583 -1.4176 -0.6192 -1.7452
 3320SOL    HW210660   0.727   1.695   4.490  0.7835  1.1311  0.7106
 3321SOL     OW10661   1.150   0.967   3.424 -0.1587  0.2289 -0.5045
 3321SOL    HW110662   1.199   0.916   3.489 -1.8966 -0.5220  0.2788
 3321SOL    HW210663   1.156   1.057   3.456 -0.4709 -0.0520  0.3695
 3322SOL     OW10664   7.895   2.674   6.843 -0.0313 -0.1716 -0.6558
 3322SOL    HW110665   7.905   2.624   6.762 -0.3842  0.8251 -1.3276
 3322SOL    HW210666   7.870   2.762   6.815  1.0176  0.5199  0.4800
 3323SOL     OW10667   3.533   3.000   2.342  0.0450  0.2398 -0.6090
 3323SOL    HW110668   3.515   3.051   2.263 -0.2376  0.3224 -0.4956
 3323SOL    HW210669   3.476   2.924   2.335 -2.1174  1.6022  0.8197
 3324SOL     OW10670   7.778   5.085   2.239 -0.0839 -0.0493  0.1030
 3324SOL    HW110671   7.811   5.104   2.327 -0.1817  1.6734 -0.2111
 3324SOL    HW210672   7.835   5.014   2.208  0.9794  0.3835  0.9649
 3325SOL     OW10673   6.731   7.693   6.793  0.1612 -0.1286  0.2619
 3325SOL    HW110674   6.823   7.669   6.779  0.4629  0.4390  1.1972
 3325SOL    HW210675   6.682   7.631   6.739  1.0143 -1.5273  1.0193
 3326SOL     OW10676   5.951   5.988   0.054  0.2828 -0.4727  0.3518
 3326SOL    HW110677   5.866   5.995   0.097 -0.3383 -0.1938 -0.8932
 3326SOL    HW210678   5.952   5.900   0.016  0.1862 -0.1745 -0.3597
 3327SOL     OW10679   6.584   7.095   0.923  0.3014  0.4158 -0.0828
 3327SOL    HW110680   6.536   7.171   0.956  1.2283  0.5206  1.0370
 3327SOL    HW210681   6.533   7.020   0.953 -0.3393  0.5582 -0.7660
 3328SOL     OW10682   4.517   2.889   1.215 -0.2759  0.5518 -0.4083
 3328SOL    HW110683   4.427   2.906   1.243 -1.0386  0.2265 -2.4289
 3328SOL    HW210684   4.571   2.910   1.291 -2.0589  0.6916  0.8792
 3329SOL     OW10685   4.191   6.003   4.362  0.1623 -0.1426  0.2434
 3329SOL    HW110686   4.169   6.093   4.339 -0.6309 -0.4837 -0.3675
 3329SOL    HW210687   4.109   5.955   4.352  1.0273 -1.3485 -1.5765
 3330SOL     OW10688   7.717   2.181   4.621 -0.5706 -0.5386 -0.4024
 3330SOL    HW110689   7.704   2.147   4.532 -2.1188 -1.3418  0.0969
 3330SOL    HW210690   7.651   2.136   4.673  0.1281  0.1410  1.1122
 3331SOL     OW10691   6.906   3.093   1.808  0.2413  0.1709 -0.3611
 3331SOL    HW110692   6.991   3.071   1.847 -0.1560 -0.5919  0.1016
 3331SOL    HW210693   6.880   3.174   1.852  0.1829 -0.2366  0.3695
 3332SOL     OW10694   5.672   0.099   2.178 -0.3636  0.0967 -0.6237
 3332SOL    HW110695   5.665   0.174   2.119  0.5464  0.3499 -0.4232
 3332SOL    HW210696   5.704   0.027   2.123  2.4753  0.8460 -0.0926
 3333SOL     OW10697   5.146   4.282   5.923 -0.1631  0.0673  0.4106
 3333SOL    HW110698   5.086   4.207   5.925 -0.6487  0.4298  2.7003
 3333SOL    HW210699   5.222   4.253   5.972  0.3063  0.5857 -0.0009
 3334SOL     OW10700   6.533   5.685   1.928 -0.3231 -0.6012  0.0321
 3334SOL    HW110701   6.572   5.655   1.846 -3.5048 -0.6026 -1.6175
 3334SOL    HW210702   6.565   5.775   1.937  0.4972 -0.7745 -0.9176
 3335SOL     OW10703   7.636   6.873   5.652 -0.1284  0.2936 -0.0400
 3335SOL    HW110704   7.682   6.899   5.732 -1.2900 -0.6925  1.0165
 3335SOL    HW210705   7.621   6.779   5.664 -0.1729  0.1012 -1.5158
 3336SOL     OW10706   1.396   6.901   4.878 -0.3598 -0.1516 -0.7571
 3336SOL    HW110707   1.304   6.878   4.865 -0.6219 -0.1997  0.9617
 3336SOL    HW210708   1.432   6.830   4.930  0.4773  0.2263 -0.7954
 3337SOL     OW10709   6.879   0.848   6.390 -0.4462 -0.0749  0.1901
 3337SOL    HW110710   6.841   0.771   6.347  0.9472 -1.6553  1.6600
 3337SOL    HW210711   6.972   0.826   6.400 -0.2022  1.4233  1.4898
 3338SOL     OW10712   1.082   1.231   6.691  0.4466 -0.7787  0.1260
 3338SOL    HW110713   1.057   1.143   6.665  1.1797 -1.6870  2.2528
 3338SOL    HW210714   1.176   1.225   6.709  0.6680  0.6424 -0.3677
 3339SOL     OW10715   7.219   0.178   1.264  0.0112 -0.1587  0.3246
 3339SOL    HW110716   7.190   0.186   1.354 -1.2276  1.7192 -0.1737
 3339SOL    HW210717   7.286   0.246   1.254  0.7151 -0.8838  0.0295
 3340SOL     OW10718   0.123   7.555   1.971  0.0444 -0.0677 -0.1686
 3340SOL    HW110719   0.063   7.492   1.931  0.2361 -0.1113 -0.3885
 3340SOL    HW210720   0.205   7.543   1.925 -0.2391  1.1908 -1.0612
 3341SOL     OW10721   2.182   0.527   3.317 -0.1125  0.5303 -0.1913
 3341SOL    HW110722   2.191   0.445   3.268  0.9694  1.7261 -2.1390
 3341SOL    HW210723   2.214   0.506   3.405 -1.7900 -1.6192 -0.0051
 3342SOL     OW10724   7.975   2.403   1.621  0.8172 -0.0072 -0.0986
 3342SOL    HW110725   7.906   2.406   1.687 -0.0013  0.2007 -0.9420
 3342SOL    HW210726   7.988   2.494   1.595  2.5903  0.1653  1.2176
 3343SOL     OW10727   7.949   1.063   4.915  0.2050 -0.0745 -0.1513
 3343SOL    HW110728   7.933   1.081   5.007 -1.5660  0.0981 -0.4706
 3343SOL    HW210729   7.862   1.052   4.876  0.8882  0.3722 -1.9098
 3344SOL     OW10730   0.898   1.608   5.033  0.1551  0.0405  0.4589
 3344SOL    HW110731   0.852   1.556   5.098 -1.9282 -0.6375 -1.4192
 3344SOL    HW210732   0.963   1.549   4.996  0.8426  0.2049  1.3756
 3345SOL     OW10733   3.156   3.297   3.681  0.0711  0.0125  0.1995
 3345SOL    HW110734   3.159   3.371   3.742 -1.8641 -0.9321  1.5536
 3345SOL    HW210735   3.074   3.253   3.702  1.1414 -2.5112 -0.5813
 3346SOL     OW10736   2.228   1.380   6.467 -0.0550  0.2807  0.0200
 3346SOL    HW110737   2.151   1.340   6.426 -0.7713 -0.5477  2.0533
 3346SOL    HW210738   2.285   1.402   6.393 -2.5094  1.5824 -1.6361
 3347SOL     OW10739   2.682   1.158   1.811  0.2060 -0.7295  0.2801
 3347SOL    HW110740   2.664   1.188   1.722 -0.4888  0.5546  0.8322
 3347SOL    HW210741   2.760   1.104   1.802  1.1492  0.7381 -0.8752
 3348SOL     OW10742   6.494   1.848   0.275 -0.0667 -0.0881 -0.3929
 3348SOL    HW110743   6.539   1.808   0.201  2.8083 -1.8511  2.0857
 3348SOL    HW210744   6.551   1.920   0.302 -0.4925 -0.1423  0.7175
 3349SOL     OW10745   2.232   4.880   0.081  0.3955  0.1240 -0.1247
 3349SOL    HW110746   2.257   4.873   0.173 -0.7469 -0.2716  0.1810
 3349SOL    HW210747   2.301   4.835   0.033  0.5400 -0.4730  0.6270
 3350SOL     OW10748   7.718   5.694   2.817 -0.0631  0.1904 -0.1559
 3350SOL    HW110749   7.628   5.706   2.846 -0.0745 -0.7493  0.2165
 3350SOL    HW210750   7.771   5.717   2.893 -0.0124  0.2056 -0.1962
 3351SOL     OW10751   5.249   1.642   7.232 -0.4995 -0.0308  0.0488
 3351SOL    HW110752   5.215   1.660   7.144  0.9944  1.1432 -0.3326
 3351SOL    HW210753   5.172   1.612   7.281 -1.4744 -0.2352 -1.5094
 3352SOL     OW10754   6.881   3.011   1.292  0.0684 -0.6421  0.0642
 3352SOL    HW110755   6.813   2.990   1.228 -0.2649 -1.5445  0.6807
 3352SOL    HW210756   6.880   2.937   1.353  1.4319 -0.5581  0.2377
 3353SOL     OW10757   2.300   6.707   6.547 -0.3053  0.6095  0.0211
 3353SOL    HW110758   2.378   6.761   6.560 -0.3914  1.0742 -1.2344
 3353SOL    HW210759   2.281   6.670   6.633  1.7822 -0.1920  0.1896
 3354SOL     OW10760   3.061   2.808   3.113  0.4103 -0.1738  0.3282
 3354SOL    HW110761   3.052   2.863   3.035 -0.6127 -0.0280  0.5331
 3354SOL    HW210762   3.154   2.815   3.137  0.6153  0.2180 -0.5483
 3355SOL     OW10763   2.453   5.398   1.974 -0.1997  0.1548 -0.1237
 3355SOL    HW110764   2.362   5.420   1.953 -0.3426  0.1639  0.5066
 3355SOL    HW210765   2.477   5.332   1.909 -1.0826 -0.8409  0.5393
 3356SOL     OW10766   3.543   7.698   5.236 -0.2288  0.2996  0.7368
 3356SOL    HW110767   3.560   7.626   5.174 -0.0075  0.2660  0.8355
 3356SOL    HW210768   3.519   7.772   5.180  1.9844  0.8735  0.4387
 3357SOL     OW10769   4.324   1.171   2.773 -0.5325  0.0344  0.0956
 3357SOL    HW110770   4.351   1.096   2.826 -0.8770 -0.3936 -0.3259
 3357SOL    HW210771   4.367   1.158   2.688 -2.2019 -0.7958 -0.6735
 3358SOL     OW10772   0.940   7.548   2.026  0.5493  0.3006  0.0917
 3358SOL    HW110773   0.877   7.506   1.968  2.1348 -0.4434 -1.1873
 3358SOL    HW210774   0.942   7.492   2.104 -1.3764  1.1371  0.7965
 3359SOL     OW10775   5.561   0.828   0.735 -0.0691 -0.2536  0.0025
 3359SOL    HW110776   5.505   0.753   0.712  1.2871 -1.3157  0.0799
 3359SOL    HW210777   5.529   0.898   0.678 -0.5421 -1.2370 -1.0033
 3360SOL     OW10778   3.254   3.643   4.127  0.4748 -0.5480 -0.0544
 3360SOL    HW110779   3.167   3.611   4.150  0.5606 -0.5365  0.2852
 3360SOL    HW210780   3.307   3.630   4.205  0.4228  0.7560  0.2315
 3361SOL     OW10781   7.836   0.164   0.935 -0.0223  0.1143  0.2008
 3361SOL    HW110782   7.851   0.165   0.841 -0.3905  1.8383  0.1245
 3361SOL    HW210783   7.890   0.091   0.967  1.1615  0.3364 -1.1676
 3362SOL     OW10784   4.813   3.717   6.464 -0.8138  0.3629  0.3675
 3362SOL    HW110785   4.835   3.790   6.406  0.9465 -1.5008 -1.5111
 3362SOL    HW210786   4.725   3.690   6.436 -0.9701  0.9698  0.2531
 3363SOL     OW10787   4.425   1.762   6.748 -0.0692 -0.2328 -0.2423
 3363SOL    HW110788   4.403   1.669   6.760 -0.6379  0.2145  4.0321
 3363SOL    HW210789   4.520   1.766   6.764 -0.4977  0.1043  2.9791
 3364SOL     OW10790   1.162   3.471   0.676  0.2404 -0.1401  0.3705
 3364SOL    HW110791   1.250   3.507   0.692  0.0051  0.8526 -0.5246
 3364SOL    HW210792   1.104   3.527   0.727 -0.0789  0.4727 -0.6522
 3365SOL     OW10793   6.315   6.857   0.703 -0.1095 -0.3782  0.0371
 3365SOL    HW110794   6.279   6.942   0.728 -1.1450 -1.0362  0.8328
 3365SOL    HW210795   6.285   6.844   0.613 -2.3066 -1.1021  0.8138
 3366SOL     OW10796   7.566   3.808   7.108  0.4784  0.1626 -0.2708
 3366SOL    HW110797   7.474   3.809   7.079  0.2491 -1.9202  0.2494
 3366SOL    HW210798   7.606   3.737   7.058  0.9174 -1.2697  1.9693
 3367SOL     OW10799   3.468   5.513   7.923 -0.6090  0.5058  0.6781
 3367SOL    HW110800   3.549   5.501   7.873 -0.9113  1.0866  0.0377
 3367SOL    HW210801   3.497   5.519   8.014 -0.1781 -1.9979  0.7633
 3368SOL     OW10802   3.523   7.766   6.389  0.5315  0.7269 -0.3192
 3368SOL    HW110803   3.589   7.824   6.351 -0.4531  0.1500 -3.1260
 3368SOL    HW210804   3.447   7.823   6.404 -0.3682  0.3495 -2.8938
 3369SOL     OW10805   5.016   5.198   2.732  1.0881 -0.0284 -0.2258
 3369SOL    HW110806   5.077   5.244   2.790  2.6315 -2.1574 -0.0550
 3369SOL    HW210807   4.943   5.174   2.789  2.0507 -1.0834  0.5922
 3370SOL     OW10808   4.200   7.362   0.861 -0.0582  0.2087  0.0276
 3370SOL    HW110809   4.187   7.282   0.912 -3.0686  0.4551 -0.1416
 3370SOL    HW210810   4.289   7.389   0.881 -0.0414 -1.4240  2.6647
 3371SOL     OW10811   4.017   4.854   6.829 -0.0628  0.0447 -0.2402
 3371SOL    HW110812   4.016   4.892   6.741  0.4497  0.1360 -0.2057
 3371SOL    HW210813   3.930   4.875   6.865  0.3437  1.5582 -0.0685
 3372SOL     OW10814   7.003   0.276   7.182  0.6092 -0.4720  0.1768
 3372SOL    HW110815   7.073   0.299   7.244  0.1871  0.9212  0.1791
 3372SOL    HW210816   7.049   0.255   7.101  1.0603  0.3448  0.2021
 3373SOL     OW10817   2.495   6.490   1.720  0.5645  0.4801  0.3587
 3373SOL    HW110818   2.412   6.531   1.695 -0.2062 -0.8554  0.6397
 3373SOL    HW210819   2.562   6.551   1.688 -0.4789  0.8842 -1.1879
 3374SOL     OW10820   4.050   4.992   6.612 -0.4679  0.5686  0.4535
 3374SOL    HW110821   4.107   4.948   6.548 -0.2452 -1.1603  1.7614
 3374SOL    HW210822   4.110   5.042   6.667 -0.5282  1.0536  0.0826
 3375SOL     OW10823   7.227   1.275   1.509 -0.2873 -0.2672 -0.1534
 3375SOL    HW110824   7.167   1.214   1.553  0.0745 -1.2108 -0.9397
 3375SOL    HW210825   7.231   1.351   1.567 -2.2818 -0.1531 -0.0967
 3376SOL     OW10826   5.452   1.319   7.624  0.0168  0.1615 -0.0235
 3376SOL    HW110827   5.381   1.373   7.659 -0.4392  0.4484 -1.3008
 3376SOL    HW210828   5.531   1.370   7.639  0.0002 -0.2206  1.5399
 3377SOL     OW10829   3.885   7.157   5.024 -0.1966  0.4200  0.8527
 3377SOL    HW110830   3.940   7.123   5.094 -0.6109 -0.5301  0.7443
 3377SOL    HW210831   3.801   7.111   5.036  0.2823 -1.1848 -1.3224
 3378SOL     OW10832   0.860   2.379   6.935  0.1243  0.0310 -0.2781
 3378SOL    HW110833   0.922   2.359   6.865 -1.2766  0.6624 -1.7513
 3378SOL    HW210834   0.778   2.339   6.907 -0.3844 -0.0176  1.1983
 3379SOL     OW10835   1.578   6.423   4.731 -0.4424  0.3305  0.0950
 3379SOL    HW110836   1.538   6.336   4.737  0.7418 -0.1446  1.8835
 3379SOL    HW210837   1.504   6.483   4.733 -1.2918 -0.6003 -1.2570
 3380SOL     OW10838   5.404   4.186   7.678  0.9354  1.1205 -0.4717
 3380SOL    HW110839   5.348   4.202   7.755  1.0486  1.6912 -0.5030
 3380SOL    HW210840   5.377   4.100   7.647 -0.0513  1.4511 -0.5852
 3381SOL     OW10841   6.348   5.591   0.391 -0.4032 -0.4321  0.3182
 3381SOL    HW110842   6.315   5.537   0.319 -0.1601 -0.0692 -0.0686
 3381SOL    HW210843   6.316   5.547   0.470 -3.3717  0.8465 -0.0161
 3382SOL     OW10844   2.871   2.064   3.367  0.0372 -0.3341  0.1326
 3382SOL    HW110845   2.891   1.985   3.417  1.5078 -0.1519 -0.1265
 3382SOL    HW210846   2.890   2.136   3.426 -0.6106 -0.1548  0.1272
 3383SOL     OW10847   3.677   0.877   6.122  0.5642  0.2239  0.1863
 3383SOL    HW110848   3.704   0.960   6.083 -0.6214  0.4729 -0.1527
 3383SOL    HW210849   3.759   0.835   6.149  1.4122  0.3308 -1.9876
 3384SOL     OW10850   5.772   2.436   4.410  0.0045  0.2228 -0.6458
 3384SOL    HW110851   5.781   2.341   4.404 -0.7431  0.0225  1.0495
 3384SOL    HW210852   5.848   2.470   4.362 -0.4767 -1.1729 -2.5456
 3385SOL     OW10853   2.918   3.498   7.124  0.2125  0.1391 -0.5576
 3385SOL    HW110854   2.946   3.422   7.073 -0.0745  0.5686 -1.3822
 3385SOL    HW210855   2.999   3.535   7.159  0.5843  0.6880 -1.9358
 3386SOL     OW10856   7.949   2.024   6.982  0.1135  0.2626  0.3648
 3386SOL    HW110857   7.859   2.008   7.012 -0.6334  0.7529 -1.4881
 3386SOL    HW210858   7.951   1.992   6.892  2.2983 -1.2539  0.8724
 3387SOL     OW10859   6.946   4.454   2.458 -0.4443  0.0065  0.4227
 3387SOL    HW110860   6.855   4.426   2.446 -0.6692  0.2248  1.5424
 3387SOL    HW210861   6.970   4.420   2.544  0.1251  1.0320  0.6739
 3388SOL     OW10862   4.718   3.886   2.128  0.1050 -0.0068 -0.6397
 3388SOL    HW110863   4.795   3.828   2.131  0.8921  0.9904  1.8262
 3388SOL    HW210864   4.693   3.896   2.220 -0.7457  2.5732 -1.0717
 3389SOL     OW10865   2.624   3.096   1.616 -0.1982  0.2524  0.8841
 3389SOL    HW110866   2.609   3.160   1.547 -0.5528 -1.0755 -0.3083
 3389SOL    HW210867   2.577   3.018   1.587  0.7467 -0.7517  1.9816
 3390SOL     OW10868   0.422   0.105   7.651 -0.3571  0.1364  0.4938
 3390SOL    HW110869   0.470   0.071   7.726 -1.7002 -0.6794  1.0283
 3390SOL    HW210870   0.395   0.193   7.677 -1.3932 -0.3948  1.2569
 3391SOL     OW10871   7.285   2.430   7.288  0.2273 -0.1054  0.5727
 3391SOL    HW110872   7.239   2.418   7.205  1.3133  0.1820 -0.0924
 3391SOL    HW210873   7.296   2.524   7.296 -0.2116 -0.1047  1.2489
 3392SOL     OW10874   2.251   0.256   2.594 -0.0868  0.4179 -0.2517
 3392SOL    HW110875   2.226   0.252   2.501  0.7889 -1.5249 -0.4644
 3392SOL    HW210876   2.174   0.224   2.641  0.1311 -0.5060 -0.4948
 3393SOL     OW10877   6.505   2.447   2.487 -0.3538  0.0012 -0.1278
 3393SOL    HW110878   6.433   2.476   2.431  0.8191  2.9539 -0.2913
 3393SOL    HW210879   6.569   2.409   2.426  0.4261  2.1680 -0.7460
 3394SOL     OW10880   6.030   5.475   5.509  0.4208 -0.8998 -0.1701
 3394SOL    HW110881   5.977   5.431   5.575 -0.2748  0.3263  0.1219
 3394SOL    HW210882   6.113   5.493   5.554 -0.3354  0.6692  0.7001
 3395SOL     OW10883   5.470   3.994   0.374  0.0360  0.3697  0.0808
 3395SOL    HW110884   5.404   3.926   0.387  0.2785 -0.2567 -1.7278
 3395SOL    HW210885   5.514   4.001   0.459 -2.1270  0.5999  1.2542
 3396SOL     OW10886   2.631   2.374   2.552 -0.0767  0.2135  0.3387
 3396SOL    HW110887   2.578   2.451   2.572 -0.7049  0.4625 -1.9513
 3396SOL    HW210888   2.598   2.306   2.610 -1.6867  0.8464  0.2150
 3397SOL     OW10889   4.558   5.252   1.840 -0.1401  0.4118  1.1329
 3397SOL    HW110890   4.599   5.334   1.814 -0.4550  0.2317  0.0387
 3397SOL    HW210891   4.630   5.199   1.876  0.0517  1.1753  1.8968
 3398SOL     OW10892   2.957   4.692   0.359  0.3812  0.3515  0.3260
 3398SOL    HW110893   2.956   4.609   0.312 -1.2643  0.1759  0.6016
 3398SOL    HW210894   2.930   4.669   0.448 -2.3651  1.4261 -0.1399
 3399SOL     OW10895   5.458   1.093   7.891  0.0118 -0.2330  0.1829
 3399SOL    HW110896   5.524   1.158   7.867  0.9282 -1.3054 -0.3102
 3399SOL    HW210897   5.447   1.105   7.986  1.3492 -0.3811  0.3849
 3400SOL     OW10898   4.783   0.917   3.846 -0.6015 -0.1292  0.1884
 3400SOL    HW110899   4.807   0.957   3.930 -0.4705 -0.3905  0.2750
 3400SOL    HW210900   4.866   0.900   3.802 -0.6590  3.0634 -1.4727
 3401SOL     OW10901   0.612   2.160   3.441  1.1507 -0.6198  0.4767
 3401SOL    HW110902   0.526   2.172   3.401  0.3582 -0.8962  2.0316
 3401SOL    HW210903   0.653   2.246   3.434  0.5572 -0.3513  0.1832
 3402SOL     OW10904   1.073   2.925   2.209  0.3580  0.3299 -0.6707
 3402SOL    HW110905   1.152   2.881   2.177 -0.0557 -0.0230 -1.2286
 3402SOL    HW210906   1.102   2.975   2.286  1.1621  0.3869 -1.0094
 3403SOL     OW10907   6.817   1.731   7.242 -0.1343 -0.0390  0.4591
 3403SOL    HW110908   6.861   1.663   7.190 -2.7179 -1.2177 -0.3540
 3403SOL    HW210909   6.837   1.813   7.197  0.7111 -0.6137 -0.2376
 3404SOL     OW10910   3.576   0.026   1.951  0.4943  0.1520  0.0557
 3404SOL    HW110911   3.556  -0.067   1.937  1.2218  0.1406 -1.0271
 3404SOL    HW210912   3.491   0.065   1.972  0.2085 -0.7839  0.7225
 3405SOL     OW10913   2.066   7.079   5.965  0.5093 -0.0957 -0.5156
 3405SOL    HW110914   2.145   7.125   5.938  0.7407  0.7161  1.3642
 3405SOL    HW210915   2.085   6.987   5.947  1.6859  0.1411 -0.5852
 3406SOL     OW10916   7.360   1.114   1.937 -0.0336  0.4448 -0.4038
 3406SOL    HW110917   7.298   1.101   1.865 -0.1815 -0.3155 -0.1602
 3406SOL    HW210918   7.352   1.206   1.959 -1.0656  0.3783 -0.4116
 3407SOL     OW10919   0.451   0.490   6.960  0.3459  0.2534 -0.1510
 3407SOL    HW110920   0.543   0.517   6.963 -0.0119  2.3820 -3.4340
 3407SOL    HW210921   0.419   0.522   6.876 -2.3533 -3.9792 -1.0644
 3408SOL     OW10922   5.629   6.340   6.214 -0.3610  0.1318  0.0913
 3408SOL    HW110923   5.647   6.302   6.128  0.0564 -0.2627  0.3463
 3408SOL    HW210924   5.671   6.427   6.211  0.7798 -0.3861  0.3285
 3409SOL     OW10925   4.636   0.698   2.427  0.2323  0.1440 -0.6032
 3409SOL    HW110926   4.546   0.670   2.409  0.3293  0.2585 -1.3014
 3409SOL    HW210927   4.630   0.792   2.442  0.2071  0.1218 -0.4797
 3410SOL     OW10928   6.961   3.149   7.683 -0.2711 -0.2687 -0.2618
 3410SOL    HW110929   7.047   3.166   7.644  0.1530 -1.1470  0.2462
 3410SOL    HW210930   6.922   3.236   7.693  0.7453  0.1932 -0.0885
 3411SOL     OW10931   4.697   5.377   6.071 -0.0348 -0.3492  0.3427
 3411SOL    HW110932   4.761   5.308   6.088  1.4006  0.4972 -1.2844
 3411SOL    HW210933   4.722   5.448   6.131  0.7914  0.0888 -0.4845
 3412SOL     OW10934   3.988   4.325   6.729  0.0211  0.2242 -0.3790
 3412SOL    HW110935   3.993   4.256   6.795 -1.6320 -0.3346 -0.8018
 3412SOL    HW210936   3.949   4.400   6.774  1.0868  0.6477 -0.1280
 3413SOL     OW10937   7.671   4.856   4.317  0.4590 -0.5632  0.3277
 3413SOL    HW110938   7.748   4.902   4.283 -0.5389  0.3182 -0.8769
 3413SOL    HW210939   7.693   4.834   4.407  1.9621  0.0260  0.1291
 3414SOL     OW10940   2.426   4.286   2.187 -0.0921 -0.0834  0.4233
 3414SOL    HW110941   2.511   4.284   2.143 -0.0549 -1.8934  0.4753
 3414SOL    HW210942   2.371   4.341   2.132  0.7191 -0.0753 -0.3972
 3415SOL     OW10943   5.291   6.494   1.799  0.2789 -0.1116  0.0145
 3415SOL    HW110944   5.338   6.554   1.741 -0.4912  1.1320  0.6308
 3415SOL    HW210945   5.320   6.520   1.887 -0.4464 -0.3069  0.3132
 3416SOL     OW10946   0.994   6.107   2.307 -0.2865  0.1164  0.1211
 3416SOL    HW110947   1.055   6.035   2.321 -1.3283 -0.9916 -0.8123
 3416SOL    HW210948   1.050   6.185   2.304  1.2356 -0.9483 -1.6716
 3417SOL     OW10949   5.360   0.358   1.286 -0.0210 -0.2206  0.0659
 3417SOL    HW110950   5.338   0.268   1.263  1.5525 -0.3012 -1.3140
 3417SOL    HW210951   5.427   0.349   1.354 -0.4781 -0.0539  0.5502
 3418SOL     OW10952   7.007   2.713   2.788  0.1257  0.3410 -0.6225
 3418SOL    HW110953   7.089   2.678   2.822 -0.4185 -1.2496 -0.8868
 3418SOL    HW210954   6.965   2.753   2.865  0.4700 -0.1600 -0.1616
 3419SOL     OW10955   5.233   0.175   5.874 -0.4322 -0.1520 -0.7553
 3419SOL    HW110956   5.181   0.212   5.945 -0.1115  0.8747 -1.0380
 3419SOL    HW210957   5.196   0.088   5.860 -2.2446  0.6161 -1.0931
 3420SOL     OW10958   7.529   2.264   0.803 -0.2120  0.1191 -0.6016
 3420SOL    HW110959   7.495   2.347   0.836  0.7403 -0.1505  1.1838
 3420SOL    HW210960   7.622   2.266   0.825 -0.2467 -1.5729 -0.2169
 3421SOL     OW10961   5.069   0.402   7.364 -0.2739  0.0010  0.1996
 3421SOL    HW110962   5.079   0.495   7.344 -0.0722  0.0585  0.5607
 3421SOL    HW210963   4.987   0.377   7.322  0.3805 -0.0027 -1.1255
 3422SOL     OW10964   6.570   1.977   4.904  0.7888 -0.4840 -0.0994
 3422SOL    HW110965   6.614   2.005   4.985  2.5409 -0.1382 -1.1263
 3422SOL    HW210966   6.595   1.886   4.894 -0.2101 -0.8084  0.2137
 3423SOL     OW10967   5.196   7.012   3.246 -0.0295 -0.3495 -0.6320
 3423SOL    HW110968   5.289   7.014   3.267 -0.0794 -1.9026 -0.1071
 3423SOL    HW210969   5.193   7.004   3.151  0.2886  2.3081 -0.9142
 3424SOL     OW10970   0.104   1.913   2.287  0.6807  0.3739  0.6442
 3424SOL    HW110971   0.126   1.827   2.250  0.2983  0.0686  1.1139
 3424SOL    HW210972   0.183   1.941   2.332  1.0221  0.5705 -0.0593
 3425SOL     OW10973   1.730   3.855   4.451  0.2039  0.4751  0.6574
 3425SOL    HW110974   1.699   3.812   4.372 -0.6671 -0.3611  1.4211
 3425SOL    HW210975   1.658   3.846   4.513  1.4154 -0.2185  2.0280
 3426SOL     OW10976   3.766   6.397   2.243 -0.5005  0.2609  0.1382
 3426SOL    HW110977   3.731   6.447   2.316  0.3809  0.4422  0.4521
 3426SOL    HW210978   3.841   6.349   2.281 -1.8732 -2.0710  0.1100
 3427SOL     OW10979   2.374   1.018   6.574 -0.5515  0.1838 -0.0777
 3427SOL    HW110980   2.403   1.058   6.491 -0.6816  0.0781 -0.1736
 3427SOL    HW210981   2.445   1.038   6.635 -0.5498  0.4434 -0.1610
 3428SOL     OW10982   4.471   2.504   3.855  0.0746 -0.1252  0.2636
 3428SOL    HW110983   4.376   2.510   3.858  0.0444 -0.3827 -0.1102
 3428SOL    HW210984   4.495   2.544   3.772  0.2400 -0.6945  0.0345
 3429SOL     OW10985   3.909   3.262   3.694 -0.2902  0.0387 -0.1061
 3429SOL    HW110986   3.881   3.351   3.717  0.7393  0.1764  0.6821
 3429SOL    HW210987   3.985   3.246   3.749  1.1825 -0.3291 -2.1218
 3430SOL     OW10988   6.594   4.843   4.107 -0.1483 -0.2055  0.0654
 3430SOL    HW110989   6.662   4.778   4.121  0.6582  0.6279  0.1095
 3430SOL    HW210990   6.515   4.805   4.146  0.2794 -1.1922 -0.0220
 3431SOL     OW10991   2.266   0.652   0.201 -0.0481 -0.1556  0.2058
 3431SOL    HW110992   2.174   0.676   0.207  0.5853  2.4505  0.7506
 3431SOL    HW210993   2.287   0.618   0.288  0.0233  1.4930  0.8693
 3432SOL     OW10994   0.577   3.148   2.761  0.0951 -0.5748  0.0965
 3432SOL    HW110995   0.516   3.123   2.692  0.5294  0.4027 -0.6597
 3432SOL    HW210996   0.537   3.114   2.841 -0.3266 -1.8862 -0.6419
 3433SOL     OW10997   5.530   0.465   6.758 -0.4066  0.5163  0.6138
 3433SOL    HW110998   5.495   0.550   6.785 -1.5867  0.4604 -0.6538
 3433SOL    HW210999   5.460   0.403   6.777 -0.1324  0.0515  0.1249
 3434SOL     OW11000   0.147   3.572   2.148  0.1002 -0.1298 -0.2732
 3434SOL    HW111001   0.181   3.541   2.064 -0.0606  2.6589 -1.4872
 3434SOL    HW211002   0.224   3.602   2.196  0.0402 -0.2788 -0.0835
 3435SOL     OW11003   2.350   5.995   7.199  0.1379  0.4392 -0.1265
 3435SOL    HW111004   2.367   6.086   7.224 -1.0324  0.3197  1.2965
 3435SOL    HW211005   2.287   6.002   7.127 -1.2932  0.8052  1.0880
 3436SOL     OW11006   5.784   7.555   4.493 -0.8059 -0.2944  0.2766
 3436SOL    HW111007   5.866   7.546   4.542 -0.8939 -1.4428  0.2286
 3436SOL    HW211008   5.768   7.650   4.491 -0.0346 -0.1299  1.1901
 3437SOL     OW11009   7.505   1.800   4.945  0.1452  0.4376  0.5366
 3437SOL    HW111010   7.542   1.721   4.985 -1.7870 -0.3653  0.8219
 3437SOL    HW211011   7.480   1.855   5.020  2.6977  2.0176  0.3641
 3438SOL     OW11012   1.912   1.494   6.278  0.4884  0.6072 -0.1550
 3438SOL    HW111013   1.951   1.407   6.266 -0.2130  0.3338 -0.5643
 3438SOL    HW211014   1.871   1.490   6.364  0.0424  0.3570 -0.3732
 3439SOL     OW11015   5.886   1.537   7.919 -0.1587  0.0163  0.4400
 3439SOL    HW111016   5.965   1.586   7.938 -0.4389  0.2098  1.1081
 3439SOL    HW211017   5.822   1.603   7.892 -0.4605 -0.0024  1.0978
 3440SOL     OW11018   6.372   7.158   5.642 -0.3960 -0.4031  0.0883
 3440SOL    HW111019   6.335   7.107   5.570 -0.4340 -0.2629  0.0087
 3440SOL    HW211020   6.357   7.104   5.719  0.5616 -1.0245 -0.1450
 3441SOL     OW11021   5.272   3.570   4.667 -0.0642  0.4357  0.4304
 3441SOL    HW111022   5.245   3.607   4.751 -0.3031  0.9139  0.1494
 3441SOL    HW211023   5.256   3.640   4.604 -1.7651 -0.5688 -0.3324
 3442SOL     OW11024   0.817   6.235   4.221  0.2192  0.1205 -0.0815
 3442SOL    HW111025   0.808   6.197   4.308  0.9848  2.2151  0.9642
 3442SOL    HW211026   0.845   6.162   4.166 -1.4980 -1.5252  1.1224
 3443SOL     OW11027   3.061   2.780   7.008  0.0254  0.4616  0.5062
 3443SOL    HW111028   2.995   2.728   6.962  2.5333 -0.5700 -2.3074
 3443SOL    HW211029   3.072   2.858   6.954 -1.6048  2.6844  3.1225
 3444SOL     OW11030   7.419   7.089   2.102 -0.3771  0.0759 -0.2079
 3444SOL    HW111031   7.462   7.006   2.123 -2.1515 -0.7452  0.3858
 3444SOL    HW211032   7.338   7.064   2.059 -1.2829  1.4550  0.6101
 3445SOL     OW11033   6.755   4.923   5.363 -0.4186 -0.6673  0.0724
 3445SOL    HW111034   6.738   4.946   5.454  1.7172 -1.7558  0.7938
 3445SOL    HW211035   6.780   4.831   5.364 -0.0986 -0.6471 -1.5796
 3446SOL     OW11036   6.257   3.097   2.239 -0.0420 -0.2181  0.3587
 3446SOL    HW111037   6.247   3.190   2.219 -0.1954 -0.0250  1.2597
 3446SOL    HW211038   6.169   3.067   2.259  0.2171 -0.1494  1.6874
 3447SOL     OW11039   5.370   4.182   6.029  0.1757 -0.1973 -0.1967
 3447SOL    HW111040   5.440   4.158   5.969  1.9462  2.2530  0.6829
 3447SOL    HW211041   5.415   4.203   6.111 -1.6481  0.9509  0.5841
 3448SOL     OW11042   7.145   6.945   4.331 -0.0930 -0.0805  0.0894
 3448SOL    HW111043   7.222   6.921   4.382 -1.0555 -1.1181  1.1333
 3448SOL    HW211044   7.180   6.983   4.251  1.4938  1.5421  1.4462
 3449SOL     OW11045   4.046   5.348   5.981 -0.5098  0.6199 -0.0150
 3449SOL    HW111046   4.087   5.413   6.037 -0.8975  0.5738  0.3284
 3449SOL    HW211047   3.994   5.400   5.919  1.2974  0.7643 -1.4893
 3450SOL     OW11048   1.002   4.879   5.396 -0.3731  0.3207  0.0015
 3450SOL    HW111049   0.941   4.831   5.451  0.5504 -0.8400  0.0587
 3450SOL    HW211050   1.009   4.826   5.316 -1.3490  1.7456 -1.0796
 3451SOL     OW11051   0.093   0.515   6.881 -0.2328  1.2975 -0.3815
 3451SOL    HW111052   0.173   0.511   6.829  1.4336 -2.4838  1.9679
 3451SOL    HW211053   0.108   0.586   6.943  0.1820  2.2383 -1.5403
 3452SOL     OW11054   5.992   5.292   2.065  0.0834  0.2912  0.1896
 3452SOL    HW111055   6.074   5.285   2.115  0.3579  0.2878 -0.2605
 3452SOL    HW211056   6.002   5.229   1.994  0.0918  0.9877 -0.4323
 3453SOL     OW11057   0.050   4.119   7.264 -0.3696  0.2898  0.2701
 3453SOL    HW111058  -0.026   4.078   7.305  0.0268 -1.3575 -0.5145
 3453SOL    HW211059   0.054   4.206   7.302 -0.1769 -0.9793  3.5540
 3454SOL     OW11060   5.468   6.388   3.892  0.5329 -0.1687  0.0699
 3454SOL    HW111061   5.527   6.358   3.823 -1.3814 -1.8080 -0.9727
 3454SOL    HW211062   5.452   6.311   3.946 -0.0447  0.4341  0.7852
 3455SOL     OW11063   5.602   7.368   2.975 -0.2774  0.3361  0.5259
 3455SOL    HW111064   5.688   7.396   2.944 -0.6710  0.0429 -0.9416
 3455SOL    HW211065   5.600   7.274   2.957 -0.5314  0.1395  1.5139
 3456SOL     OW11066   5.377   6.190   3.036 -0.0972 -0.0343  0.0702
 3456SOL    HW111067   5.422   6.252   3.094 -0.2990 -0.3842  0.6135
 3456SOL    HW211068   5.326   6.245   2.977 -0.3406  0.3223  0.6008
 3457SOL     OW11069   5.433   1.155   2.975 -0.1540 -0.1994  0.0257
 3457SOL    HW111070   5.367   1.212   3.015 -0.2725 -0.2389 -0.1113
 3457SOL    HW211071   5.428   1.073   3.025 -0.6431 -0.4235 -0.3732
 3458SOL     OW11072   1.663   0.462   4.503  0.3872  0.3270  0.0381
 3458SOL    HW111073   1.748   0.425   4.480  0.4988  0.6525 -0.0808
 3458SOL    HW211074   1.658   0.544   4.454 -0.1634  0.1220 -0.2596
 3459SOL     OW11075   1.851   0.487   1.786 -0.5618 -0.5180 -0.1552
 3459SOL    HW111076   1.875   0.395   1.773 -0.0710 -0.2278 -1.3711
 3459SOL    HW211077   1.805   0.512   1.707 -0.2149  0.4419 -0.0754
 3460SOL     OW11078   6.636   5.825   7.195  0.2912  0.3361 -0.0173
 3460SOL    HW111079   6.653   5.905   7.245 -0.3842 -0.9168  2.3268
 3460SOL    HW211080   6.550   5.840   7.155 -0.7876  0.0310  2.0974
 3461SOL     OW11081   5.722   2.973   6.258  1.3134  0.4991  0.3144
 3461SOL    HW111082   5.635   2.934   6.256  1.8634 -0.7827 -0.2749
 3461SOL    HW211083   5.717   3.041   6.324  0.2625 -0.5460  1.3507
 3462SOL     OW11084   1.589   7.920   0.546  0.0811  0.1090  0.3251
 3462SOL    HW111085   1.671   7.920   0.496 -0.3380  1.8801 -0.4615
 3462SOL    HW211086   1.610   7.874   0.627  1.2516 -1.3533 -0.7406
 3463SOL     OW11087   7.489   1.172   3.918  0.1670 -0.4614 -0.1313
 3463SOL    HW111088   7.571   1.170   3.966  0.8127  0.4493 -1.1452
 3463SOL    HW211089   7.451   1.258   3.940  0.3012 -0.1855 -0.9653
 3464SOL     OW11090   0.960   2.077   1.612  0.2560  0.1055 -0.1000
 3464SOL    HW111091   0.987   2.072   1.704  1.9568  0.0458 -0.5697
 3464SOL    HW211092   0.964   1.986   1.582 -1.7487 -0.0948  0.1215
 3465SOL     OW11093   0.605   6.424   1.469  0.5036 -0.4036  0.3128
 3465SOL    HW111094   0.678   6.378   1.427 -0.3336 -0.1930 -1.4385
 3465SOL    HW211095   0.535   6.359   1.476  0.0877 -0.0056 -0.1008
 3466SOL     OW11096   2.795   4.879   0.748 -0.1031  0.1827 -0.1976
 3466SOL    HW111097   2.715   4.910   0.705  0.8488  0.7007 -1.6805
 3466SOL    HW211098   2.766   4.848   0.834 -2.0434 -0.6323 -1.0952
 3467SOL     OW11099   2.569   2.877   3.200  0.2161 -0.1307  0.2495
 3467SOL    HW111100   2.578   2.961   3.245  0.3661  0.7971 -1.4352
 3467SOL    HW211101   2.658   2.840   3.201  0.4394  0.3712 -0.1530
 3468SOL     OW11102   3.822   6.567   7.163 -0.6141 -0.1315  0.8188
 3468SOL    HW111103   3.745   6.601   7.209  0.3672  1.5424  1.2953
 3468SOL    HW211104   3.796   6.566   7.071 -1.4132 -0.1771  1.0352
 3469SOL     OW11105   5.230   0.277   0.436  0.4775  0.1207 -0.3316
 3469SOL    HW111106   5.271   0.260   0.521  1.8796  0.8348 -0.8363
 3469SOL    HW211107   5.162   0.209   0.429  1.2271 -0.7913  0.7596
 3470SOL     OW11108   4.621   4.733   1.031  0.8007 -0.2332  0.5478
 3470SOL    HW111109   4.648   4.642   1.025  2.1582  0.1019  1.2462
 3470SOL    HW211110   4.680   4.772   1.096  3.1987  2.2158 -2.7547
 3471SOL     OW11111   5.508   1.586   7.865  0.6616 -0.4413  0.3644
 3471SOL    HW111112   5.589   1.636   7.874  1.0528 -1.0280  0.1584
 3471SOL    HW211113   5.536   1.495   7.862  0.2086 -0.5684 -1.8694
 3472SOL     OW11114   6.516   7.497   3.536  0.1267  0.0159 -0.0211
 3472SOL    HW111115   6.425   7.475   3.520  0.0229 -1.6479  2.2950
 3472SOL    HW211116   6.513   7.583   3.579 -0.1815  0.6220 -1.2059
 3473SOL     OW11117   3.558   7.533   0.711  0.8710  0.1018 -0.5540
 3473SOL    HW111118   3.485   7.481   0.744  2.0710 -0.2437  1.7711
 3473SOL    HW211119   3.634   7.474   0.718  1.5142  0.6763 -2.2454
 3474SOL     OW11120   0.734   5.970   3.612 -0.2182 -0.5011  0.3277
 3474SOL    HW111121   0.806   5.976   3.675 -0.6396  0.8350  0.7110
 3474SOL    HW211122   0.748   6.045   3.553 -2.1424  0.7281  1.3432
 3475SOL     OW11123   5.680   5.478   4.614  0.2597 -0.5733 -0.0811
 3475SOL    HW111124   5.688   5.556   4.559 -1.9790 -0.2279 -0.0171
 3475SOL    HW211125   5.748   5.488   4.681  0.5377  0.8941 -0.5510
 3476SOL     OW11126   0.040   7.227   2.946 -0.2103  0.0362 -0.2547
 3476SOL    HW111127   0.018   7.234   2.853 -1.6033 -0.3061  0.0180
 3476SOL    HW211128   0.064   7.135   2.959 -0.9050 -0.1333 -0.1168
 3477SOL     OW11129   6.669   1.138   3.277 -0.4324  0.0160 -0.0668
 3477SOL    HW111130   6.647   1.051   3.244  0.7679 -0.7497  1.0518
 3477SOL    HW211131   6.633   1.140   3.365  2.1669 -0.5562  1.0873
 3478SOL     OW11132   2.877   1.142   7.623  0.4628  0.0885 -0.7029
 3478SOL    HW111133   2.795   1.095   7.612 -0.4643  0.8185  2.0938
 3478SOL    HW211134   2.928   1.088   7.684  1.4095  0.3718 -1.2262
 3479SOL     OW11135   0.341   7.415   3.249  0.2921  0.4346 -0.3045
 3479SOL    HW111136   0.427   7.420   3.206 -0.2748 -0.4774 -1.6325
 3479SOL    HW211137   0.278   7.429   3.178 -0.6845 -0.5089  0.3413
 3480SOL     OW11138   3.546   7.308   0.470  0.1580 -0.1189 -0.9997
 3480SOL    HW111139   3.489   7.237   0.500 -0.5698  0.7646 -0.2630
 3480SOL    HW211140   3.503   7.388   0.498  1.3084  0.6141 -1.2314
 3481SOL     OW11141   3.021   3.792   7.156  0.1907  0.5357  0.0945
 3481SOL    HW111142   3.045   3.869   7.105 -1.4243  1.4394  0.6293
 3481SOL    HW211143   3.090   3.728   7.137  1.2283  1.8826 -0.8450
 3482SOL     OW11144   3.629   6.246   3.172  0.1584 -0.5349  0.0510
 3482SOL    HW111145   3.688   6.203   3.110  1.5083  0.3317  0.6796
 3482SOL    HW211146   3.581   6.310   3.119 -0.4223 -1.4389 -0.5189
 3483SOL     OW11147   6.731   2.399   5.491  0.5708  0.5199  0.1856
 3483SOL    HW111148   6.710   2.354   5.573 -0.0564  0.8171  0.1918
 3483SOL    HW211149   6.760   2.486   5.517 -0.2821  0.8469  0.0599
 3484SOL     OW11150   7.974   2.141   4.498 -0.3458 -0.0894 -0.3819
 3484SOL    HW111151   8.051   2.171   4.547  0.3305  0.2949 -1.6456
 3484SOL    HW211152   7.938   2.070   4.551  0.6581 -0.0214  0.4209
 3485SOL     OW11153   7.176   3.671   4.337 -0.9825  0.5668 -0.4257
 3485SOL    HW111154   7.189   3.607   4.407  0.7805  0.2497 -0.9850
 3485SOL    HW211155   7.202   3.625   4.258  1.1072  2.1546 -0.7608
 3486SOL     OW11156   6.136   2.804   0.322  0.1500  0.2858  0.2998
 3486SOL    HW111157   6.160   2.895   0.335  0.1639  0.1502  1.2725
 3486SOL    HW211158   6.217   2.761   0.295 -0.1855  0.8412 -1.7585
 3487SOL     OW11159   0.958   2.083   6.974  0.3316  0.2025  0.5765
 3487SOL    HW111160   1.009   2.163   6.960  0.3977 -0.1275 -1.2733
 3487SOL    HW211161   1.024   2.016   6.994  0.7294 -0.2624 -1.9823
 3488SOL     OW11162   2.014   4.514   1.284  0.7897  0.3707  0.4736
 3488SOL    HW111163   2.091   4.553   1.242  0.5196  1.2682  0.7874
 3488SOL    HW211164   2.008   4.558   1.369  0.7118 -0.6639  1.0274
 3489SOL     OW11165   1.376   7.326   4.307 -0.2633 -0.1624 -0.6866
 3489SOL    HW111166   1.296   7.289   4.343 -0.0066  0.3052  0.3899
 3489SOL    HW211167   1.401   7.396   4.368  0.8037 -0.1054 -1.1526
 3490SOL     OW11168   2.688   4.251   7.852  0.0402  0.5445 -0.0631
 3490SOL    HW111169   2.738   4.295   7.784  0.4259  0.7232  0.3258
 3490SOL    HW211170   2.746   4.182   7.884 -1.1221 -1.2838 -1.7118
 3491SOL     OW11171   6.103   0.337   5.881  0.4475 -0.4538 -0.2452
 3491SOL    HW111172   6.143   0.412   5.925  0.0101  0.6791 -1.7030
 3491SOL    HW211173   6.132   0.261   5.932  0.4960  0.7279  1.5774
 3492SOL     OW11174   4.373   1.765   4.358  0.5109  0.0937  0.5376
 3492SOL    HW111175   4.324   1.685   4.339  0.2005  0.2030  0.8768
 3492SOL    HW211176   4.437   1.771   4.287 -0.7903  0.6236 -0.6365
 3493SOL     OW11177   3.306   4.966   3.347  0.0189 -0.2835 -0.1188
 3493SOL    HW111178   3.309   4.893   3.286  2.6162 -0.3013 -0.0853
 3493SOL    HW211179   3.216   4.999   3.341  0.1656 -0.1081 -4.1573
 3494SOL     OW11180   4.841   2.758   4.445  0.7626  0.0885  0.0282
 3494SOL    HW111181   4.856   2.813   4.522  1.6398  0.0675 -0.1201
 3494SOL    HW211182   4.928   2.729   4.419  0.3662 -0.9040 -0.2462
 3495SOL     OW11183   6.394   0.001   4.097  0.3724 -0.1745 -0.3080
 3495SOL    HW111184   6.301  -0.020   4.108  0.1292  1.5922  1.7089
 3495SOL    HW211185   6.395   0.091   4.064  1.3736 -0.1633 -0.2857
 3496SOL     OW11186   0.619   1.383   7.540  0.3165  0.0234  0.1724
 3496SOL    HW111187   0.567   1.345   7.470  0.0374 -0.8451  0.8384
 3496SOL    HW211188   0.700   1.412   7.497 -0.2818  0.4580 -0.6839
 3497SOL     OW11189   2.392   6.100   6.511  0.1989 -0.5404  0.0957
 3497SOL    HW111190   2.425   6.173   6.459  1.1787 -0.6288  0.5639
 3497SOL    HW211191   2.321   6.137   6.563  0.3012 -0.0607 -0.1025
 3498SOL     OW11192   7.727   4.826   5.037  0.0240  0.6416 -0.1112
 3498SOL    HW111193   7.701   4.898   4.980 -2.1774 -0.7446 -1.0360
 3498SOL    HW211194   7.673   4.836   5.115  1.3138  1.2014  0.7342
 3499SOL     OW11195   7.656   2.012   6.770 -0.4629  0.1657  0.0911
 3499SOL    HW111196   7.656   1.939   6.832 -1.2610 -0.5318 -0.6899
 3499SOL    HW211197   7.574   2.001   6.721  0.1019  0.7371 -1.0172
 3500SOL     OW11198   5.075   5.613   0.475  0.0653 -0.0002 -0.0182
 3500SOL    HW111199   5.047   5.691   0.523 -1.3488 -0.9791  0.8377
 3500SOL    HW211200   5.026   5.542   0.516  0.9758 -1.2742 -1.0835
 3501SOL     OW11201   7.654   4.546   6.787 -0.0204 -0.1561 -0.2466
 3501SOL    HW111202   7.677   4.486   6.717  0.6382  0.6096 -0.7023
 3501SOL    HW211203   7.652   4.492   6.866 -1.0698 -1.0920 -0.8832
 3502SOL     OW11204   4.899   6.332   6.430 -0.1505  0.1176 -0.1262
 3502SOL    HW111205   4.921   6.240   6.444  1.2021  0.6631  1.7843
 3502SOL    HW211206   4.982   6.378   6.439 -1.3044  1.8971  3.1139
 3503SOL     OW11207   5.176   5.733   5.066  0.0288  0.1913  0.0044
 3503SOL    HW111208   5.083   5.752   5.074 -0.3209 -1.4012  0.0482
 3503SOL    HW211209   5.200   5.765   4.979 -0.7446 -0.1365 -0.3338
 3504SOL     OW11210   0.488   6.992   3.972  0.1593 -0.5740 -0.0097
 3504SOL    HW111211   0.569   6.953   4.005 -0.4581 -1.3151  0.6719
 3504SOL    HW211212   0.517   7.057   3.908  1.2817 -0.9511  0.0936
 3505SOL     OW11213   5.561   7.471   6.948 -0.5924 -0.1425  0.8911
 3505SOL    HW111214   5.592   7.562   6.955 -0.6457 -0.1151  0.7744
 3505SOL    HW211215   5.479   7.477   6.900 -0.0806 -0.3543 -0.0283
 3506SOL     OW11216   0.309   7.795   2.619 -0.3605 -0.1081  0.2415
 3506SOL    HW111217   0.283   7.704   2.604 -0.7015  0.0862 -0.3820
 3506SOL    HW211218   0.236   7.833   2.668  0.2367 -0.4295  1.4340
 3507SOL     OW11219   7.400   1.465   1.766  0.1541  0.2206 -0.2348
 3507SOL    HW111220   7.466   1.405   1.732  1.0110  0.6182  0.6626
 3507SOL    HW211221   7.381   1.523   1.692  1.1289  0.3554 -0.3994
 3508SOL     OW11222   0.210   7.568   7.777  0.5094 -0.2641 -0.2404
 3508SOL    HW111223   0.126   7.554   7.734 -0.6998  1.1477  1.5086
 3508SOL    HW211224   0.234   7.658   7.755  1.2803 -0.4609 -0.2444
 3509SOL     OW11225   3.212   5.913   7.393 -0.0954 -0.0639  0.5114
 3509SOL    HW111226   3.123   5.941   7.372 -0.2210 -0.8717 -0.0776
 3509SOL    HW211227   3.213   5.820   7.371  1.9527  0.6473 -3.1140
 3510SOL     OW11228   3.723   7.587   7.118  0.2444  0.1422 -0.4033
 3510SOL    HW111229   3.805   7.629   7.142  0.5027 -0.7311  0.2532
 3510SOL    HW211230   3.743   7.538   7.038  0.0329  0.9365 -0.9612
 3511SOL     OW11231   4.993   1.066   0.782  0.3583  0.0632 -0.4770
 3511SOL    HW111232   4.970   0.981   0.744  2.6419  0.2124 -2.3861
 3511SOL    HW211233   5.051   1.045   0.854 -0.5530 -0.0242  0.2580
 3512SOL     OW11234   3.945   1.145   5.839  0.0262  0.3771  0.3784
 3512SOL    HW111235   3.888   1.194   5.899  1.4759  0.1109  2.0513
 3512SOL    HW211236   3.903   1.059   5.831 -0.9211  0.8795 -0.1245
 3513SOL     OW11237   0.895   2.463   5.924 -0.4292 -0.7718  0.0335
 3513SOL    HW111238   0.891   2.501   5.837 -0.5679 -1.2815 -0.1821
 3513SOL    HW211239   0.865   2.533   5.982  2.3484  0.6007  0.0008
 3514SOL     OW11240   6.416   6.368   3.906 -0.2755 -0.5562  0.3530
 3514SOL    HW111241   6.416   6.462   3.921 -1.0218 -0.4801 -0.0319
 3514SOL    HW211242   6.413   6.329   3.993 -0.5644 -0.2057  0.5053
 3515SOL     OW11243   1.986   5.257   6.793 -0.1578 -0.0074  0.3100
 3515SOL    HW111244   2.069   5.215   6.817  0.5208  1.1395  0.0632
 3515SOL    HW211245   1.986   5.256   6.697 -0.3080  0.2212  0.3080
 3516SOL     OW11246   2.353   3.514   4.947  0.0522 -0.0414  0.2070
 3516SOL    HW111247   2.290   3.518   5.019 -1.5413 -1.2218 -1.0542
 3516SOL    HW211248   2.431   3.558   4.981 -1.7564  2.3943  1.4840
 3517SOL     OW11249   3.885   3.323   6.949 -0.0909 -0.1397  0.0549
 3517SOL    HW111250   3.940   3.309   7.026 -0.7322  0.2874  0.5997
 3517SOL    HW211251   3.936   3.380   6.893  0.7962 -1.2406 -0.2922
 3518SOL     OW11252   3.246   5.086   4.074  0.3046 -0.6054  0.0770
 3518SOL    HW111253   3.241   5.182   4.078 -2.8538 -0.5327 -1.6611
 3518SOL    HW211254   3.321   5.068   4.018  2.1716  0.6752  1.9878
 3519SOL     OW11255   4.561   1.330   2.749 -0.5961  0.1713 -0.3949
 3519SOL    HW111256   4.611   1.266   2.799 -1.7802  1.2816  2.4338
 3519SOL    HW211257   4.475   1.332   2.791 -1.2696  2.1390 -1.6942
 3520SOL     OW11258   4.833   6.485   5.707 -0.3813  0.3665 -0.4245
 3520SOL    HW111259   4.903   6.420   5.712  0.3586  1.1198 -0.8004
 3520SOL    HW211260   4.777   6.465   5.783  0.6941  0.2702  0.3651
 3521SOL     OW11261   1.635   4.129   3.948 -0.3107 -0.1304  0.0513
 3521SOL    HW111262   1.637   4.202   3.886  0.3348 -0.1295  0.0708
 3521SOL    HW211263   1.574   4.066   3.909  1.1723 -0.7819 -1.3410
 3522SOL     OW11264   7.795   2.829   7.849 -0.5548 -0.8699  0.2997
 3522SOL    HW111265   7.847   2.832   7.768 -2.0666 -0.8421 -0.7132
 3522SOL    HW211266   7.777   2.736   7.862 -0.2363 -0.8810  0.6522
 3523SOL     OW11267   3.265   7.927   6.769 -1.0749  0.0499  0.1703
 3523SOL    HW111268   3.229   7.944   6.857 -1.7054  0.6644 -0.1963
 3523SOL    HW211269   3.325   8.001   6.754 -1.0214 -0.0195  0.0484
 3524SOL     OW11270   7.112   5.283   5.546  0.6157 -0.3194 -0.0981
 3524SOL    HW111271   7.098   5.354   5.484 -0.9483 -0.3813  0.1596
 3524SOL    HW211272   7.125   5.205   5.491  0.1534 -0.2133 -0.3572
 3525SOL     OW11273   2.206   5.525   2.536 -0.1775  0.5267  0.4649
 3525SOL    HW111274   2.279   5.463   2.542 -0.2969  0.3217 -0.1311
 3525SOL    HW211275   2.223   5.589   2.605  0.3406  0.2430  0.6061
 3526SOL     OW11276   2.480   2.303   7.856  0.0360 -0.3919  0.0146
 3526SOL    HW111277   2.414   2.365   7.885  0.5065 -0.2483  0.8131
 3526SOL    HW211278   2.479   2.234   7.922  1.2008 -0.0117  0.4574
 3527SOL     OW11279   4.416   3.396   7.317  0.1131 -0.3579  0.1218
 3527SOL    HW111280   4.478   3.334   7.277  0.5127 -0.1071  0.3398
 3527SOL    HW211281   4.361   3.341   7.373  1.2548 -0.3756  1.2729
 3528SOL     OW11282   0.325   7.109   1.661  0.4211 -0.2367  0.3735
 3528SOL    HW111283   0.375   7.171   1.715  2.5037 -2.2361  0.9076
 3528SOL    HW211284   0.379   7.098   1.582  0.5867 -2.0390  0.7091
 3529SOL     OW11285   4.880   1.799   6.032  0.5392  0.4018  0.6112
 3529SOL    HW111286   4.862   1.767   6.121  2.2531 -0.5086  0.6830
 3529SOL    HW211287   4.957   1.856   6.043  0.2669  0.9361 -0.1902
 3530SOL     OW11288   3.676   6.629   6.656 -0.2233  0.0174  0.4265
 3530SOL    HW111289   3.608   6.565   6.675 -1.0764 -0.0506 -2.3475
 3530SOL    HW211290   3.712   6.601   6.572  3.3667  0.0260  1.7883
 3531SOL     OW11291   7.401   2.463   2.168 -0.0190  0.3982 -0.0052
 3531SOL    HW111292   7.359   2.399   2.225 -0.3101  1.3225  0.8370
 3531SOL    HW211293   7.435   2.411   2.095  0.9734 -0.9096  1.3255
 3532SOL     OW11294   6.533   5.064   2.042 -0.0308  0.1204 -0.4365
 3532SOL    HW111295   6.570   4.979   2.065 -0.9855 -1.0267 -2.8080
 3532SOL    HW211296   6.448   5.065   2.086  0.6479  0.5649  0.8945
 3533SOL     OW11297   3.615   3.574   3.167 -0.7262 -0.2871  0.0974
 3533SOL    HW111298   3.612   3.569   3.071  1.5002  2.8725 -0.3228
 3533SOL    HW211299   3.523   3.574   3.194 -1.5453  1.1816 -2.3110
 3534SOL     OW11300   1.990   5.230   3.990 -0.2457 -0.3420 -0.0231
 3534SOL    HW111301   2.057   5.199   4.051 -1.2254  1.2762  2.0135
 3534SOL    HW211302   2.032   5.304   3.945  0.1211 -0.8601 -0.5454
 3535SOL     OW11303   4.903   6.804   0.614 -0.0235  0.6076 -0.7875
 3535SOL    HW111304   4.836   6.871   0.628 -0.5335 -0.0758  0.1659
 3535SOL    HW211305   4.855   6.721   0.614  0.9911 -0.1348  2.3309
 3536SOL     OW11306   2.032   1.045   1.603  0.5282 -0.0563  0.4599
 3536SOL    HW111307   1.947   1.014   1.573  0.3289 -1.1707  2.0796
 3536SOL    HW211308   2.095   1.001   1.546  0.1458 -1.9860  1.4663
 3537SOL     OW11309   4.493   3.356   5.207  0.2152 -0.0627 -0.1743
 3537SOL    HW111310   4.572   3.345   5.155 -0.1633  1.9669 -1.2678
 3537SOL    HW211311   4.522   3.341   5.297  1.2573 -1.8313 -0.7396
 3538SOL     OW11312   4.320   4.877   4.234  0.7537 -0.1812  0.1900
 3538SOL    HW111313   4.312   4.953   4.177  1.6791  1.3971  2.0661
 3538SOL    HW211314   4.412   4.852   4.228  0.8684  0.0257  0.9949
 3539SOL     OW11315   4.564   7.296   4.553 -0.1396  0.1866  0.1767
 3539SOL    HW111316   4.482   7.268   4.594  0.3105  0.0434  1.0070
 3539SOL    HW211317   4.553   7.276   4.460 -0.8830 -0.2135  0.3427
 3540SOL     OW11318   0.371   3.932   2.150  0.1536 -0.1236 -0.6067
 3540SOL    HW111319   0.316   3.960   2.077  1.3461  1.3325 -1.0052
 3540SOL    HW211320   0.348   3.992   2.221  2.1087  1.4816 -1.1978
 3541SOL     OW11321   7.720   6.411   5.864 -0.5256 -0.0059  0.3156
 3541SOL    HW111322   7.693   6.440   5.777 -0.4556 -0.1177  0.2566
 3541SOL    HW211323   7.780   6.479   5.895 -0.9855  0.3213  0.5086
 3542SOL     OW11324   4.241   2.493   4.141 -0.0223  0.1252 -0.4175
 3542SOL    HW111325   4.204   2.414   4.181 -2.4894  1.3974  0.0252
 3542SOL    HW211326   4.289   2.535   4.212  1.0037 -0.7470 -0.5632
 3543SOL     OW11327   4.512   1.113   7.405 -0.6042 -0.4689  0.0704
 3543SOL    HW111328   4.592   1.141   7.359 -0.0603 -1.0070  0.6649
 3543SOL    HW211329   4.512   1.018   7.396 -1.8554 -0.3839 -0.9967
 3544SOL     OW11330   3.119   0.703   2.584 -0.3835  0.4380 -0.0172
 3544SOL    HW111331   3.054   0.635   2.569  0.6089 -0.5995  0.2274
 3544SOL    HW211332   3.148   0.690   2.674  0.7085  0.3675 -0.3547
 3545SOL     OW11333   3.239   4.035   5.409 -0.2161  0.1836 -0.4680
 3545SOL    HW111334   3.155   4.081   5.414  0.7621  1.9341  2.2700
 3545SOL    HW211335   3.304   4.105   5.404  1.1623 -1.0766 -0.5937
 3546SOL     OW11336   6.582   4.224   6.020  0.1147  0.4439  0.5824
 3546SOL    HW111337   6.522   4.276   6.073 -0.4206  0.1203  0.3047
 3546SOL    HW211338   6.645   4.189   6.083 -0.3677  0.2662  0.9746
 3547SOL     OW11339   5.186   5.246   0.683  0.0848  0.3143  0.2735
 3547SOL    HW111340   5.256   5.310   0.677 -0.3884  1.0095  1.6636
 3547SOL    HW211341   5.193   5.212   0.772 -2.0295  1.2552  0.8655
 3548SOL     OW11342   1.433   6.162   4.722 -0.1006  0.1214  0.3812
 3548SOL    HW111343   1.507   6.118   4.679 -0.3906  0.4977 -0.5267
 3548SOL    HW211344   1.380   6.090   4.756 -0.2756 -0.2353 -0.5989
 3549SOL     OW11345   3.429   7.968   7.894  0.1500  0.0060 -0.0861
 3549SOL    HW111346   3.466   7.939   7.978 -0.5318 -0.0002  0.2210
 3549SOL    HW211347   3.335   7.950   7.903  0.0024  0.5081 -0.6468
 3550SOL     OW11348   2.306   0.302   4.545  0.1379  0.0168  0.3531
 3550SOL    HW111349   2.286   0.376   4.602  0.1549 -1.3537  2.2470
 3550SOL    HW211350   2.280   0.331   4.458 -3.3828  0.9223  1.5313
 3551SOL     OW11351   3.134   5.428   5.526  0.2508  0.0094 -0.3982
 3551SOL    HW111352   3.043   5.433   5.556 -0.2438 -1.8897 -1.4195
 3551SOL    HW211353   3.178   5.500   5.571 -1.2396 -0.4367  1.9520
 3552SOL     OW11354   5.304   1.305   0.510 -0.1264 -0.1384  0.0756
 3552SOL    HW111355   5.305   1.278   0.418  0.1762  0.0868  0.0119
 3552SOL    HW211356   5.231   1.257   0.548 -0.3474 -0.1194 -0.3194
 3553SOL     OW11357   2.966   6.994   1.283  0.1598  0.2564 -0.0064
 3553SOL    HW111358   2.969   6.970   1.376  0.0946  2.9921  0.7968
 3553SOL    HW211359   3.056   6.984   1.253  0.3854  0.2943  0.6403
 3554SOL     OW11360   4.542   0.244   5.876 -0.7600 -0.4716 -0.4664
 3554SOL    HW111361   4.556   0.150   5.879 -1.0346 -0.5011  0.1489
 3554SOL    HW211362   4.604   0.279   5.940 -0.7913 -0.2519 -0.5558
 3555SOL     OW11363   0.967   3.857   3.090  0.3948  0.6218 -0.2039
 3555SOL    HW111364   0.972   3.933   3.032  3.1743  0.5857 -0.1278
 3555SOL    HW211365   0.898   3.803   3.052 -0.2473  2.2313 -1.4340
 3556SOL     OW11366   2.985   7.887   7.384  0.6235  0.5267  0.7183
 3556SOL    HW111367   2.920   7.913   7.319  1.9935 -0.5291 -1.1703
 3556SOL    HW211368   3.000   7.966   7.436 -1.9535  0.8501  1.0982
 3557SOL     OW11369   5.781   0.606   1.259  0.3982 -0.1586  0.1945
 3557SOL    HW111370   5.717   0.673   1.282  0.5931  0.4928 -1.0793
 3557SOL    HW211371   5.765   0.588   1.166  0.0379 -2.2456  0.6107
 3558SOL     OW11372   2.962   5.471   6.374  0.1390  0.0653 -0.2479
 3558SOL    HW111373   2.936   5.487   6.283 -0.6716 -0.3204 -0.0897
 3558SOL    HW211374   2.880   5.455   6.420  0.5880 -0.2569  0.4564
 3559SOL     OW11375   0.306   1.700   7.052 -0.1845  0.2617  0.6596
 3559SOL    HW111376   0.212   1.704   7.070 -0.7482 -4.2067 -0.1022
 3559SOL    HW211377   0.344   1.660   7.130  0.7599  0.1010  0.1341
 3560SOL     OW11378   4.402   2.733   2.754 -0.5088  0.1797  0.7211
 3560SOL    HW111379   4.440   2.652   2.719  0.9368  1.7899 -1.7216
 3560SOL    HW211380   4.330   2.703   2.809  2.1274 -2.9280  2.8901
 3561SOL     OW11381   5.604   6.819   5.361  0.1394  0.6856  0.2828
 3561SOL    HW111382   5.573   6.745   5.309 -0.8133  0.6507  0.8889
 3561SOL    HW211383   5.693   6.795   5.386 -0.1107 -0.1983  0.3576
 3562SOL     OW11384   0.597   1.892   5.465  0.3839  0.3855  0.1387
 3562SOL    HW111385   0.523   1.942   5.500  0.3944 -0.9301  2.2194
 3562SOL    HW211386   0.665   1.902   5.532  1.1613 -0.5423 -0.5002
 3563SOL     OW11387   4.875   2.316   5.277  0.4256 -0.4072 -0.2870
 3563SOL    HW111388   4.801   2.371   5.249  0.6631  0.6131  1.0248
 3563SOL    HW211389   4.950   2.376   5.280  0.9960 -1.1174 -0.1629
 3564SOL     OW11390   0.841   6.789   2.212 -0.3661  0.2510 -0.4655
 3564SOL    HW111391   0.819   6.782   2.119  0.3816 -1.3394 -0.5593
 3564SOL    HW211392   0.936   6.777   2.215 -0.6581 -2.5847  0.6853
 3565SOL     OW11393   4.755   1.420   2.397 -0.4975  0.3779 -0.2406
 3565SOL    HW111394   4.706   1.479   2.454  0.2524  1.3428 -0.5501
 3565SOL    HW211395   4.781   1.475   2.322  3.4529  0.8087  1.1780
 3566SOL     OW11396   6.181   3.217   4.371 -0.0825 -0.1283 -0.8320
 3566SOL    HW111397   6.186   3.310   4.393  1.0050  0.0027 -1.5423
 3566SOL    HW211398   6.207   3.171   4.452  3.6111  0.3355 -1.5833
 3567SOL     OW11399   2.198   3.106   7.251  0.2078  0.5257 -0.3500
 3567SOL    HW111400   2.156   3.054   7.320  0.0395  1.6747  0.4441
 3567SOL    HW211401   2.160   3.072   7.170 -1.0755  0.4606  0.2460
 3568SOL     OW11402   1.509   4.265   7.136  0.2927  0.3196  0.8397
 3568SOL    HW111403   1.549   4.353   7.139 -0.0544  0.5133 -0.0237
 3568SOL    HW211404   1.425   4.278   7.093 -0.0814 -0.3292  1.3585
 3569SOL     OW11405   1.467   1.463   2.571  0.2036  0.0560  0.3041
 3569SOL    HW111406   1.511   1.407   2.507 -1.7136 -1.6295  0.3402
 3569SOL    HW211407   1.427   1.533   2.519  2.1231  1.1235  0.1882
 3570SOL     OW11408   4.119   6.203   6.993  0.0972  0.1192  0.2203
 3570SOL    HW111409   4.167   6.188   7.075  1.6395 -0.5551 -0.7756
 3570SOL    HW211410   4.151   6.136   6.934  0.4484  1.7630 -1.5507
 3571SOL     OW11411   4.480   0.306   1.503 -0.0460  0.4756 -0.2824
 3571SOL    HW111412   4.482   0.290   1.408  1.1613  0.9499 -0.3526
 3571SOL    HW211413   4.387   0.310   1.524 -0.4235 -2.6032 -0.9199
 3572SOL     OW11414   6.854   4.937   3.333 -0.0070 -0.0845 -0.9594
 3572SOL    HW111415   6.872   5.031   3.344  1.8449 -0.5687  0.7811
 3572SOL    HW211416   6.795   4.915   3.405  1.3235 -0.6382  0.0073
 3573SOL     OW11417   6.071   7.948   1.631  0.1726  0.3471  0.6060
 3573SOL    HW111418   6.145   7.896   1.599  2.2051  3.5307 -0.3847
 3573SOL    HW211419   6.038   7.993   1.553 -1.7023  0.3596  1.3498
 3574SOL     OW11420   3.422   0.275   1.606  0.2268 -0.8104  0.1488
 3574SOL    HW111421   3.474   0.239   1.678  0.2943 -1.9624 -0.4512
 3574SOL    HW211422   3.436   0.213   1.534 -1.3609 -0.7143 -0.2695
 3575SOL     OW11423   5.185   6.231   6.066 -0.7185 -0.1441  0.0232
 3575SOL    HW111424   5.230   6.197   5.988  0.4456 -1.0565  1.0560
 3575SOL    HW211425   5.094   6.241   6.039 -0.7638 -2.4656 -0.8438
 3576SOL     OW11426   3.070   4.967   2.273 -0.0159 -0.2984 -0.6382
 3576SOL    HW111427   3.047   5.042   2.219  0.5163  1.6052  1.6317
 3576SOL    HW211428   2.990   4.948   2.323  0.4086  0.0297  0.1838
 3577SOL     OW11429   4.529   6.753   2.620 -0.4204  0.0954  0.1973
 3577SOL    HW111430   4.450   6.805   2.636 -1.6925 -1.3947 -0.9990
 3577SOL    HW211431   4.524   6.681   2.683  0.7125  0.6997  1.0249
 3578SOL     OW11432   2.506   6.604   3.459 -0.0417  0.0283 -0.4720
 3578SOL    HW111433   2.431   6.548   3.478  0.6045 -0.5574  0.4848
 3578SOL    HW211434   2.521   6.595   3.365 -0.6035 -0.5730 -0.5038
 3579SOL     OW11435   4.185   1.959   4.451  0.2871 -0.0554  0.2519
 3579SOL    HW111436   4.255   1.901   4.422 -0.4153 -0.6544 -0.2764
 3579SOL    HW211437   4.231   2.035   4.487  1.2410 -1.0940  1.3555
 3580SOL     OW11438   6.916   2.491   6.219  0.1442 -0.2758 -0.1256
 3580SOL    HW111439   6.994   2.462   6.266 -0.5668 -0.8994  0.7280
 3580SOL    HW211440   6.906   2.583   6.242 -0.3128 -0.6230  1.1729
 3581SOL     OW11441   6.273   0.989   4.517 -0.0015  0.9314  0.1542
 3581SOL    HW111442   6.206   1.021   4.578  1.0374  1.4256  1.0803
 3581SOL    HW211443   6.278   0.895   4.535 -1.6060  0.5710 -1.1130
 3582SOL     OW11444   7.244   2.311   1.049 -0.0961  0.1261  0.0111
 3582SOL    HW111445   7.281   2.331   1.135  0.3731  0.3949 -0.2492
 3582SOL    HW211446   7.288   2.371   0.989 -0.4468 -0.0323 -0.4141
 3583SOL     OW11447   5.271   2.707   5.476 -0.1795 -0.6275  0.4339
 3583SOL    HW111448   5.202   2.669   5.530 -0.2556  0.2212  0.9545
 3583SOL    HW211449   5.227   2.773   5.423 -0.0901 -1.4063 -0.6395
 3584SOL     OW11450   3.360   7.779   3.345 -0.1586 -0.7370 -0.1416
 3584SOL    HW111451   3.325   7.689   3.344 -2.2332  0.0138  0.6795
 3584SOL    HW211452   3.364   7.803   3.437  0.6808 -0.0591 -0.3367
 3585SOL     OW11453   3.180   0.942   7.626  0.4433 -0.4105 -0.3706
 3585SOL    HW111454   3.181   0.939   7.722  2.9821  1.3015 -0.2211
 3585SOL    HW211455   3.179   0.851   7.599  0.8640 -0.9639  1.3387
 3586SOL     OW11456   1.823   1.791   7.162 -0.1288 -0.1251 -0.0690
 3586SOL    HW111457   1.853   1.712   7.117 -1.7680 -0.1385 -1.2338
 3586SOL    HW211458   1.866   1.863   7.116 -0.4180 -0.2327 -0.5105
 3587SOL     OW11459   1.545   5.758   3.450  0.2707  0.3902  0.7487
 3587SOL    HW111460   1.453   5.734   3.445  0.8447 -1.9386 -0.4435
 3587SOL    HW211461   1.560   5.815   3.374  0.0178 -0.1345  0.2958
 3588SOL     OW11462   6.711   5.560   6.470 -0.0483  0.3506  0.2648
 3588SOL    HW111463   6.632   5.614   6.465 -0.7690 -0.7922 -1.8502
 3588SOL    HW211464   6.782   5.622   6.487 -1.0924  1.6776 -0.0282
 3589SOL     OW11465   1.625   3.662   0.442 -0.6211  0.3511  0.2932
 3589SOL    HW111466   1.692   3.653   0.510  0.4300 -1.5187 -0.8779
 3589SOL    HW211467   1.633   3.582   0.390 -1.2168  1.7791 -2.1731
 3590SOL     OW11468   0.506   2.478   3.965 -0.9926  0.3076 -0.5649
 3590SOL    HW111469   0.428   2.423   3.972  0.3869 -1.7787 -0.6465
 3590SOL    HW211470   0.550   2.468   4.050 -1.7937  3.1718  0.3037
 3591SOL     OW11471   3.027   1.958   4.937 -0.7483 -0.2368  0.1297
 3591SOL    HW111472   3.033   2.002   4.852 -2.5410 -1.6084 -0.7670
 3591SOL    HW211473   3.001   1.868   4.916  0.5439 -1.1254  2.0500
 3592SOL     OW11474   6.586   2.478   1.639 -0.5268 -0.0945 -0.9686
 3592SOL    HW111475   6.523   2.539   1.602 -0.6792 -0.0486 -0.6410
 3592SOL    HW211476   6.670   2.507   1.604 -0.1349  2.2972  1.5884
 3593SOL     OW11477   7.055   1.491   5.279 -0.8277  0.2830 -0.1986
 3593SOL    HW111478   7.022   1.523   5.363 -0.2348  0.1226  0.1029
 3593SOL    HW211479   6.983   1.505   5.218 -1.1284  0.7596  0.2550
 3594SOL     OW11480   2.463   1.661   6.275  0.2420  0.6350 -0.1089
 3594SOL    HW111481   2.401   1.604   6.230 -1.8302  1.6751  1.2890
 3594SOL    HW211482   2.543   1.608   6.283 -0.2281 -0.5528 -2.4141
 3595SOL     OW11483   7.154   2.802   2.081 -0.8255 -0.3713 -0.3964
 3595SOL    HW111484   7.147   2.818   2.175  0.3452  0.8193 -0.4899
 3595SOL    HW211485   7.108   2.876   2.040 -3.7837 -2.2536 -0.8097
 3596SOL     OW11486   3.949   5.835   3.803  0.5005  0.1845  0.0181
 3596SOL    HW111487   3.985   5.834   3.714 -1.2640 -0.2756 -0.7342
 3596SOL    HW211488   3.901   5.917   3.809  1.5020  0.7262  0.9536
 3597SOL     OW11489   0.124   3.214   4.807 -0.2538 -0.1454  0.3397
 3597SOL    HW111490   0.195   3.208   4.870 -0.2053  0.8636  0.4057
 3597SOL    HW211491   0.098   3.306   4.810 -0.7290 -0.2404 -0.5905
 3598SOL     OW11492   6.906   3.310   5.396  0.0001 -0.2481  0.1129
 3598SOL    HW111493   6.988   3.317   5.347 -0.8542 -1.8643 -1.6877
 3598SOL    HW211494   6.931   3.326   5.487  2.0344  0.7622 -0.5609
 3599SOL     OW11495   5.483   2.771   0.839 -0.4690 -0.9217 -0.6897
 3599SOL    HW111496   5.405   2.718   0.858 -1.1645  0.8591  1.9777
 3599SOL    HW211497   5.553   2.729   0.889 -1.2425  1.0436  2.2845
 3600SOL     OW11498   0.281   0.146   1.266  0.0273  0.0088  0.6150
 3600SOL    HW111499   0.275   0.155   1.171 -3.7999  0.6357  0.7270
 3600SOL    HW211500   0.221   0.074   1.287  0.7280 -0.0565  2.5597
 3601SOL     OW11501   0.534   0.493   7.373  0.4198 -0.4063  0.2551
 3601SOL    HW111502   0.589   0.463   7.445 -0.4032 -1.9289  0.2799
 3601SOL    HW211503   0.449   0.451   7.388 -0.1214  0.2100 -0.9483
 3602SOL     OW11504   1.668   0.682   2.304 -0.7074 -0.2388  0.2144
 3602SOL    HW111505   1.695   0.772   2.321 -0.8086 -0.0272 -0.6903
 3602SOL    HW211506   1.741   0.645   2.254 -0.2289 -0.9694  1.4147
 3603SOL     OW11507   0.064   1.520   1.190 -0.3139 -0.5076 -0.2134
 3603SOL    HW111508   0.066   1.499   1.097  1.5940 -2.3719  0.1839
 3603SOL    HW211509   0.128   1.591   1.200 -0.1348 -0.6661 -0.2391
 3604SOL     OW11510   0.905   7.455   0.212 -0.1856  0.4020 -1.1490
 3604SOL    HW111511   0.895   7.430   0.304  0.5744  2.7321 -0.3740
 3604SOL    HW211512   0.815   7.469   0.182 -0.5011 -1.2280 -1.0607
 3605SOL     OW11513   1.829   7.667   3.383  0.4754 -0.7008 -0.0302
 3605SOL    HW111514   1.871   7.651   3.467  0.2746 -2.9464 -0.2702
 3605SOL    HW211515   1.756   7.604   3.381 -1.2109  1.1800 -0.7772
 3606SOL     OW11516   2.567   7.851   7.637 -0.2788  0.1712 -0.2611
 3606SOL    HW111517   2.567   7.884   7.547 -1.1672  2.3209  0.4543
 3606SOL    HW211518   2.657   7.824   7.653 -0.0629 -0.0409 -1.7056
 3607SOL     OW11519   2.625   1.474   6.775 -0.4356  0.2871  0.1430
 3607SOL    HW111520   2.618   1.423   6.694 -0.2557  1.2462 -0.4954
 3607SOL    HW211521   2.535   1.494   6.798 -0.6646 -1.9757  1.5224
 3608SOL     OW11522   7.286   6.316   2.544 -0.2234  0.7039 -0.2787
 3608SOL    HW111523   7.239   6.381   2.596 -0.7354  1.3623 -1.5333
 3608SOL    HW211524   7.362   6.363   2.510  1.5881 -0.4129  1.9366
 3609SOL     OW11525   3.532   6.985   0.210 -0.0843 -0.2200 -0.4294
 3609SOL    HW111526   3.467   7.025   0.151  0.1069 -1.7452 -1.7553
 3609SOL    HW211527   3.487   6.911   0.249  0.6861 -1.0500 -1.0487
 3610SOL     OW11528   0.390   6.722   0.918  0.0522  0.2133 -0.2973
 3610SOL    HW111529   0.482   6.747   0.912  0.4996 -1.0601  0.6111
 3610SOL    HW211530   0.377   6.661   0.845 -0.0212  0.2776 -0.3375
 3611SOL     OW11531   0.651   5.636   5.072 -0.2948  0.4474 -0.0450
 3611SOL    HW111532   0.646   5.644   5.167 -2.0510 -1.5890  0.1008
 3611SOL    HW211533   0.617   5.719   5.039  0.3826  1.1984  1.0821
 3612SOL     OW11534   4.977   6.202   4.958  0.0113 -0.4611  0.4002
 3612SOL    HW111535   5.026   6.154   5.025  0.4469  1.2670  1.3695
 3612SOL    HW211536   4.900   6.235   5.004 -0.3716 -0.3855 -0.2882
 3613SOL     OW11537   3.576   6.484   4.383 -0.5770 -0.3818 -0.1616
 3613SOL    HW111538   3.611   6.516   4.466 -2.0861 -2.2094  1.2777
 3613SOL    HW211539   3.569   6.562   4.328  2.5172  0.5578  0.5888
 3614SOL     OW11540   5.544   0.167   0.654 -0.9659 -0.4875 -0.1685
 3614SOL    HW111541   5.594   0.160   0.573 -3.0739  1.3087 -1.7401
 3614SOL    HW211542   5.602   0.213   0.714 -0.4542  0.9852 -1.7189
 3615SOL     OW11543   7.141   1.524   0.780 -0.1912  0.0992 -0.1050
 3615SOL    HW111544   7.126   1.599   0.722  1.4665  1.2388  0.8557
 3615SOL    HW211545   7.055   1.506   0.818 -0.9005  0.6163 -1.3839
 3616SOL     OW11546   4.152   7.157   1.047  0.3117  0.3121 -0.2963
 3616SOL    HW111547   4.207   7.181   1.121  0.9997  1.4380 -1.1423
 3616SOL    HW211548   4.067   7.136   1.087  0.3030  2.1036  0.7198
 3617SOL     OW11549   6.888   6.167   5.868  0.2443 -0.1967  0.0821
 3617SOL    HW111550   6.856   6.240   5.815 -0.4982 -1.4161 -1.2338
 3617SOL    HW211551   6.881   6.091   5.810  0.9044 -1.3324  1.4345
 3618SOL     OW11552   5.452   3.886   6.184  0.6129  0.1729 -0.1510
 3618SOL    HW111553   5.466   3.927   6.269  3.5883  1.0623 -0.9329
 3618SOL    HW211554   5.431   3.795   6.204 -1.9721  1.0404  1.5279
 3619SOL     OW11555   0.402   2.298   0.830 -0.1831  0.0336  0.1970
 3619SOL    HW111556   0.465   2.258   0.890 -1.3633 -1.1940  0.6578
 3619SOL    HW211557   0.361   2.368   0.880  3.2272  3.3825 -1.1738
 3620SOL     OW11558   0.009   4.623   3.198  0.2090  0.7906 -0.3238
 3620SOL    HW111559  -0.042   4.576   3.132 -1.8028 -0.5593  2.0111
 3620SOL    HW211560  -0.004   4.715   3.178 -1.1928  0.4215 -1.2134
 3621SOL     OW11561   0.078   2.876   1.691 -0.0428  0.7545  0.3098
 3621SOL    HW111562   0.163   2.921   1.701 -0.1294  1.1416 -0.5759
 3621SOL    HW211563   0.073   2.817   1.766  1.8292 -0.5894 -0.5542
 3622SOL     OW11564   2.767   3.488   1.303  0.2413 -0.5149 -0.3656
 3622SOL    HW111565   2.752   3.575   1.265  1.4753 -0.6347 -1.1628
 3622SOL    HW211566   2.726   3.492   1.389 -0.0614  0.7247 -0.5549
 3623SOL     OW11567   0.112   6.659   4.111  0.1614 -0.0206 -0.2573
 3623SOL    HW111568   0.062   6.583   4.140 -0.6215  0.6054  0.0689
 3623SOL    HW211569   0.126   6.710   4.191  2.4460 -0.7992 -0.1081
 3624SOL     OW11570   7.044   0.276   4.649  0.0420  0.3095  0.3060
 3624SOL    HW111571   7.045   0.360   4.604 -0.5459  0.5826  0.7798
 3624SOL    HW211572   7.049   0.211   4.579  1.0833  0.7289 -0.0358
 3625SOL     OW11573   5.311   6.869   1.629  0.6969  0.6507 -0.0897
 3625SOL    HW111574   5.329   6.949   1.579 -0.8530  0.0442 -1.7161
 3625SOL    HW211575   5.398   6.838   1.657  1.2950  3.3444  1.4179
 3626SOL     OW11576   1.292   1.539   1.838  0.1446 -0.7094 -0.7896
 3626SOL    HW111577   1.344   1.602   1.889 -0.0111 -1.4736  0.3632
 3626SOL    HW211578   1.349   1.512   1.767  1.0089 -0.8661 -0.0540
 3627SOL     OW11579   0.721   5.861   6.147 -0.9506  0.8553  0.4208
 3627SOL    HW111580   0.630   5.879   6.127 -1.8638 -2.1394  1.3324
 3627SOL    HW211581   0.748   5.796   6.081 -0.5446 -0.7342  2.0895
 3628SOL     OW11582   7.420   4.446   4.783  0.0422 -0.0740  0.1010
 3628SOL    HW111583   7.385   4.367   4.743 -1.1828 -0.3397  1.6225
 3628SOL    HW211584   7.343   4.495   4.813  0.7782  1.6157 -0.6150
 3629SOL     OW11585   3.714   6.693   3.383 -0.2593  0.1980 -0.6199
 3629SOL    HW111586   3.809   6.699   3.375 -0.0459 -0.9876  0.6761
 3629SOL    HW211587   3.699   6.624   3.447 -2.0347 -0.2378 -1.4320
 3630SOL     OW11588   0.258   1.467   1.888 -0.5616 -0.1350  0.5990
 3630SOL    HW111589   0.222   1.555   1.899 -1.0099 -0.2507  0.1236
 3630SOL    HW211590   0.349   1.481   1.862 -0.6726  0.1916  0.3757
 3631SOL     OW11591   0.764   3.789   0.853  0.1902 -0.5273  0.0768
 3631SOL    HW111592   0.713   3.772   0.774  0.6909  0.6227 -0.5274
 3631SOL    HW211593   0.699   3.789   0.924 -0.1216 -2.6278 -0.1438
 3632SOL     OW11594   0.169   2.127   7.896 -0.3864  0.0975  0.3802
 3632SOL    HW111595   0.156   2.213   7.935 -0.4251  0.3729 -0.2214
 3632SOL    HW211596   0.185   2.069   7.970 -0.5200  0.5910  0.8039
 3633SOL     OW11597   7.746   2.639   4.716 -0.2360  0.1423 -0.5464
 3633SOL    HW111598   7.795   2.585   4.652  1.3143  1.7559 -0.8032
 3633SOL    HW211599   7.663   2.658   4.673 -1.2458 -2.7321 -0.0815
 3634SOL     OW11600   1.684   2.956   7.948  0.4000 -0.4645 -0.2489
 3634SOL    HW111601   1.758   2.924   7.896 -0.6695 -1.1683 -1.4044
 3634SOL    HW211602   1.716   3.035   7.990  1.9588 -1.0287 -0.3162
 3635SOL     OW11603   5.323   5.764   1.427 -0.1363  0.4422 -0.1686
 3635SOL    HW111604   5.256   5.799   1.486 -0.2735 -0.3078  0.1362
 3635SOL    HW211605   5.337   5.675   1.458  0.3368  0.2901 -0.8115
 3636SOL     OW11606   7.510   0.165   2.768  0.3280 -0.3667  0.0388
 3636SOL    HW111607   7.517   0.097   2.836  1.5436 -1.9895 -1.6119
 3636SOL    HW211608   7.561   0.238   2.802  0.8620 -1.1262  0.9226
 3637SOL     OW11609   0.857   0.819   1.108 -0.2168 -0.5362  0.2703
 3637SOL    HW111610   0.937   0.783   1.145  1.0429  0.0290 -1.7352
 3637SOL    HW211611   0.835   0.894   1.163 -0.1337 -1.4767  1.6098
 3638SOL     OW11612   1.887   3.344   0.721  0.5649 -0.2698 -0.3652
 3638SOL    HW111613   1.862   3.253   0.704 -0.1922 -0.3616  1.0979
 3638SOL    HW211614   1.982   3.343   0.723  0.5839 -1.5419  1.9051
 3639SOL     OW11615   0.469   5.777   5.662 -0.2392 -0.6755  0.0439
 3639SOL    HW111616   0.527   5.709   5.696 -0.2970 -1.5110 -1.4069
 3639SOL    HW211617   0.388   5.730   5.640  0.0436 -0.3746 -1.8496
 3640SOL     OW11618   0.165   6.479   6.520 -0.0823 -0.1458  0.2290
 3640SOL    HW111619   0.149   6.384   6.519 -1.6217  0.0902 -0.7035
 3640SOL    HW211620   0.226   6.493   6.447 -0.9315 -0.2628 -0.5155
 3641SOL     OW11621   7.086   4.940   3.597 -0.1023  0.5713  1.1898
 3641SOL    HW111622   7.070   4.848   3.576 -2.2371  0.6839  2.0669
 3641SOL    HW211623   7.113   4.939   3.689  3.7417  0.5664  0.2327
 3642SOL     OW11624   5.290   3.002   1.755 -0.3516  0.1847 -0.2734
 3642SOL    HW111625   5.248   2.951   1.825  0.1950 -1.4481 -1.0875
 3642SOL    HW211626   5.305   2.938   1.685  0.1106  1.5493 -1.4525
 3643SOL     OW11627   1.703   7.644   2.930 -0.6586 -0.8014  0.0881
 3643SOL    HW111628   1.679   7.728   2.891 -1.1243 -0.8016  0.3750
 3643SOL    HW211629   1.696   7.582   2.858 -2.1230 -0.9115  0.2928
 3644SOL     OW11630   0.296   0.502   6.049 -0.1364  0.4389 -0.0712
 3644SOL    HW111631   0.232   0.451   6.097 -1.2551  1.1541 -0.7379
 3644SOL    HW211632   0.351   0.438   6.005 -1.2068 -0.2129 -0.5013
 3645SOL     OW11633   5.373   7.632   7.048  0.5010 -0.3808 -0.6587
 3645SOL    HW111634   5.461   7.667   7.034 -0.2526  0.9001 -2.7535
 3645SOL    HW211635   5.315   7.699   7.010 -1.4716 -0.6776  1.5904
 3646SOL     OW11636   0.641   7.701   0.372  0.1858  0.5123  0.5185
 3646SOL    HW111637   0.632   7.719   0.465 -0.2791 -1.2201  0.8468
 3646SOL    HW211638   0.732   7.723   0.352  0.2043  1.1781  1.3078
 3647SOL     OW11639   5.557   1.522   0.299  0.0948  0.7602  0.5438
 3647SOL    HW111640   5.495   1.541   0.370  0.1742 -0.1632  0.8801
 3647SOL    HW211641   5.643   1.523   0.341  0.1124 -0.1511  0.5518
 3648SOL     OW11642   2.269   5.093   3.315 -0.8049 -0.0754  0.0618
 3648SOL    HW111643   2.244   5.085   3.407 -1.6337  0.0621 -0.1405
 3648SOL    HW211644   2.358   5.059   3.311 -0.4466  0.7054  1.0627
 3649SOL     OW11645   1.477   6.417   2.131  0.1553 -0.2447  0.2626
 3649SOL    HW111646   1.426   6.411   2.050  0.9044 -2.4040 -0.1102
 3649SOL    HW211647   1.555   6.467   2.106  0.8674 -1.7514 -0.6737
 3650SOL     OW11648   5.224   7.279   6.317  0.3066  0.1923 -0.0678
 3650SOL    HW111649   5.255   7.352   6.371 -0.3394  0.0844  0.4661
 3650SOL    HW211650   5.263   7.201   6.358 -0.0236  0.1287  0.1303
 3651SOL     OW11651   3.647   5.610   0.598 -0.1013 -0.3642  0.3250
 3651SOL    HW111652   3.591   5.686   0.578  0.5980  0.4044  1.2104
 3651SOL    HW211653   3.732   5.647   0.618  1.0258 -1.5851 -1.8577
 3652SOL     OW11654   4.816   2.803   0.805 -0.5919 -0.2276 -0.1084
 3652SOL    HW111655   4.903   2.840   0.789 -0.8935  0.3724 -0.3968
 3652SOL    HW211656   4.797   2.750   0.728 -1.6193  1.8540 -1.3855
 3653SOL     OW11657   7.945   4.511   0.924  0.1554 -0.1904  0.1723
 3653SOL    HW111658   7.866   4.544   0.966  0.3631  0.4495  0.0702
 3653SOL    HW211659   8.004   4.586   0.922  0.8888 -0.7488  0.5502
 3654SOL     OW11660   1.521   6.662   6.119  0.1069  0.4274 -0.3081
 3654SOL    HW111661   1.440   6.705   6.090 -0.3415 -0.8575 -1.0627
 3654SOL    HW211662   1.569   6.646   6.037  0.6696  0.3067  0.0459
 3655SOL     OW11663   7.436   0.568   3.637 -0.2221 -0.0845  0.4064
 3655SOL    HW111664   7.484   0.555   3.719  0.0905  0.3171  0.2885
 3655SOL    HW211665   7.466   0.653   3.604 -2.0910  0.8789  1.0559
 3656SOL     OW11666   5.097   4.973   3.884 -0.0135 -0.1661 -0.4674
 3656SOL    HW111667   5.168   4.998   3.943 -0.1777  0.8500 -0.6838
 3656SOL    HW211668   5.026   4.944   3.942  0.1975 -0.1819 -0.2143
 3657SOL     OW11669   7.851   3.242   0.135 -0.2968  0.1243 -0.1260
 3657SOL    HW111670   7.831   3.233   0.228  1.4296 -0.0694  0.2477
 3657SOL    HW211671   7.945   3.227   0.128 -0.3508  0.3296 -1.8855
 3658SOL     OW11672   1.497   0.249   3.912 -0.2695 -0.1039  0.0824
 3658SOL    HW111673   1.553   0.284   3.843 -0.5904  1.0102  0.3684
 3658SOL    HW211674   1.545   0.173   3.946  0.8157  0.5099 -0.0432
 3659SOL     OW11675   3.416   0.100   3.551 -0.2135 -0.0946 -0.8380
 3659SOL    HW111676   3.374   0.014   3.562 -1.0231  0.2955 -0.7564
 3659SOL    HW211677   3.380   0.134   3.469 -0.2565  0.3618 -0.6331
 3660SOL     OW11678   4.902   0.321   3.847 -0.1992  0.0387  0.2436
 3660SOL    HW111679   4.870   0.395   3.796  1.4286  1.0131  0.5664
 3660SOL    HW211680   4.835   0.308   3.915 -1.5143 -0.1625 -1.0297
 3661SOL     OW11681   0.493   6.231   6.598  0.2553  0.0283 -0.4834
 3661SOL    HW111682   0.575   6.191   6.626  0.0472 -1.0675 -1.3634
 3661SOL    HW211683   0.426   6.164   6.616 -0.0518 -0.2221 -2.3020
 3662SOL     OW11684   5.147   3.833   6.267 -0.2853 -0.3387  0.1452
 3662SOL    HW111685   5.079   3.895   6.295 -0.2544  0.2057 -0.9493
 3662SOL    HW211686   5.171   3.787   6.347 -2.3166 -0.9213  0.4818
 3663SOL     OW11687   3.185   5.228   4.396 -0.0047 -0.0887 -0.1518
 3663SOL    HW111688   3.188   5.276   4.313  0.3989  1.1725  0.5591
 3663SOL    HW211689   3.193   5.136   4.372  0.1386  0.2661 -1.5040
 3664SOL     OW11690   6.166   4.768   0.856 -0.2319  0.3184  0.4510
 3664SOL    HW111691   6.232   4.813   0.909  0.3793 -1.3952  1.2256
 3664SOL    HW211692   6.101   4.835   0.835  0.8494  1.6285  1.1872
 3665SOL     OW11693   6.228   6.834   2.315 -0.0505 -0.2414 -0.1754
 3665SOL    HW111694   6.219   6.892   2.390 -0.2144 -1.5561  0.8630
 3665SOL    HW211695   6.206   6.747   2.349  4.6564 -1.8067 -0.4131
 3666SOL     OW11696   5.056   4.005   5.378  0.0389  0.2978 -0.2986
 3666SOL    HW111697   5.119   4.046   5.438 -0.3760  0.1755  0.2247
 3666SOL    HW211698   4.972   4.009   5.425  0.1149 -1.8545  0.1015
 3667SOL     OW11699   4.004   0.825   0.839 -0.0109  0.5873 -0.2311
 3667SOL    HW111700   3.956   0.866   0.911  1.1623  0.1425  0.8361
 3667SOL    HW211701   4.018   0.735   0.868  1.3173  0.6639 -0.5890
 3668SOL     OW11702   6.042   1.193   1.312  0.1757  0.6148  0.0536
 3668SOL    HW111703   6.115   1.213   1.370 -0.4488 -0.5219  1.3062
 3668SOL    HW211704   5.973   1.162   1.370 -0.3946 -0.8457 -1.3005
 3669SOL     OW11705   3.121   7.055   7.499 -0.3011  0.0881  0.6814
 3669SOL    HW111706   3.077   7.131   7.462  0.8751  1.0085  1.1071
 3669SOL    HW211707   3.208   7.087   7.525  0.2888 -1.4321  0.7221
 3670SOL     OW11708   0.042   6.537   4.691  0.3656  0.2562  0.2609
 3670SOL    HW111709   0.120   6.539   4.637 -0.1767 -0.0857 -0.5550
 3670SOL    HW211710  -0.025   6.495   4.636  0.2412 -1.7068  1.7809
 3671SOL     OW11711   4.762   2.794   6.375 -0.4646  0.2280 -0.1268
 3671SOL    HW111712   4.755   2.775   6.282  2.1087  1.3245 -0.6408
 3671SOL    HW211713   4.755   2.890   6.380  0.9692  0.3200  0.5758
 3672SOL     OW11714   0.797   6.523   6.391 -0.1818  0.4884  0.1635
 3672SOL    HW111715   0.717   6.470   6.391 -0.7147  1.2088  2.4938
 3672SOL    HW211716   0.841   6.500   6.473  1.2869  1.1714 -0.4001
 3673SOL     OW11717   7.865   1.354   4.567  0.0525  0.4839 -0.5843
 3673SOL    HW111718   7.868   1.449   4.575 -2.6156  0.5973  0.0919
 3673SOL    HW211719   7.835   1.338   4.477  2.9735  0.1147 -1.5952
 3674SOL     OW11720   6.295   2.713   6.168  0.0800  0.2810 -0.1060
 3674SOL    HW111721   6.240   2.786   6.142  0.0734  0.7272  1.0721
 3674SOL    HW211722   6.257   2.683   6.251  0.6945 -0.3934 -0.0542
 3675SOL     OW11723   1.640   4.760   4.436  0.5276  0.3370  0.5341
 3675SOL    HW111724   1.559   4.760   4.384 -0.6421  2.1958  2.2146
 3675SOL    HW211725   1.695   4.827   4.395  0.5615  0.1915  0.3392
 3676SOL     OW11726   4.394   4.807   1.773 -0.1854 -0.1211  0.1057
 3676SOL    HW111727   4.373   4.820   1.865 -0.7854 -0.2724 -0.0079
 3676SOL    HW211728   4.429   4.718   1.768 -2.2163 -0.9533 -0.1474
 3677SOL     OW11729   3.307   1.257   3.909 -0.2204  0.3641 -0.3980
 3677SOL    HW111730   3.343   1.344   3.922  1.0128 -0.0206 -1.0687
 3677SOL    HW211731   3.367   1.199   3.956 -1.8800 -0.0250  1.3821
 3678SOL     OW11732   2.726   7.138   4.078  0.2367  0.1042 -0.4356
 3678SOL    HW111733   2.708   7.076   4.149  1.3653  1.3100  0.9674
 3678SOL    HW211734   2.770   7.211   4.121 -3.0955  3.0700 -1.5508
 3679SOL     OW11735   0.037   3.323   2.185  0.1417 -0.1469  0.2113
 3679SOL    HW111736  -0.055   3.345   2.202 -0.5689 -1.1961 -2.0085
 3679SOL    HW211737   0.079   3.408   2.172 -1.0043  0.2741 -0.9547
 3680SOL     OW11738   1.284   0.060   2.753 -0.1688 -0.1925 -0.0739
 3680SOL    HW111739   1.251   0.142   2.715 -0.7284 -1.0596 -1.5408
 3680SOL    HW211740   1.373   0.051   2.717  0.6431  0.6637  1.5679
 3681SOL     OW11741   3.605   3.785   6.636 -0.2247  0.0056  0.2962
 3681SOL    HW111742   3.634   3.853   6.575 -1.7467  0.6821  0.2928
 3681SOL    HW211743   3.686   3.742   6.665  0.6887  1.2465 -0.3649
 3682SOL     OW11744   6.916   2.722   7.643 -0.4119 -0.0197  0.6372
 3682SOL    HW111745   6.988   2.738   7.581 -0.6630  1.0480  0.5942
 3682SOL    HW211746   6.838   2.719   7.588 -0.4338 -0.9972  0.7041
 3683SOL     OW11747   3.041   6.886   0.912  0.1946 -0.6585  0.0639
 3683SOL    HW111748   3.128   6.900   0.949  0.5354  2.1511 -1.5157
 3683SOL    HW211749   3.056   6.862   0.821 -0.6456  0.6033 -0.4365
 3684SOL     OW11750   3.286   4.492   2.419  0.0373  0.0117 -0.1475
 3684SOL    HW111751   3.333   4.461   2.342 -0.4288  0.0556 -0.4553
 3684SOL    HW211752   3.206   4.439   2.421 -0.3638  0.6152 -0.1928
 3685SOL     OW11753   2.760   1.435   2.141 -0.8760  0.5837 -0.0396
 3685SOL    HW111754   2.759   1.339   2.144 -2.0806  0.4842 -1.8059
 3685SOL    HW211755   2.806   1.461   2.220 -0.8720 -1.4464  0.6876
 3686SOL     OW11756   1.945   5.693   1.631  0.1514  0.2308 -0.0227
 3686SOL    HW111757   1.995   5.620   1.594  0.4062  1.0561 -1.3491
 3686SOL    HW211758   1.926   5.750   1.557 -1.7268  0.5642  0.6605
 3687SOL     OW11759   7.477   2.100   2.166 -0.4952  0.0547  0.3786
 3687SOL    HW111760   7.408   2.096   2.233  0.4782  3.2169  1.7517
 3687SOL    HW211761   7.558   2.081   2.214 -0.0855 -0.7927 -0.6192
 3688SOL     OW11762   2.029   2.805   5.895 -0.4880 -0.5594 -0.1216
 3688SOL    HW111763   1.978   2.795   5.814 -0.8428  0.5502 -0.0564
 3688SOL    HW211764   1.963   2.815   5.964 -0.2829  2.5045 -0.2394
 3689SOL     OW11765   7.053   0.427   6.466 -0.5184  0.2872  0.5826
 3689SOL    HW111766   7.064   0.521   6.478 -0.1370 -0.0050  3.2499
 3689SOL    HW211767   7.142   0.394   6.456 -0.2529 -0.0965  3.3702
 3690SOL     OW11768   2.121   7.908   1.128 -0.1571  0.0665 -0.2836
 3690SOL    HW111769   2.115   7.997   1.093  1.4945  0.3570  0.0672
 3690SOL    HW211770   2.051   7.860   1.084 -2.4953  2.0045  1.0781
 3691SOL     OW11771   7.330   2.864   3.212 -0.0188 -0.0411  0.2398
 3691SOL    HW111772   7.412   2.913   3.203 -0.5639  0.9828  0.6491
 3691SOL    HW211773   7.321   2.817   3.129  0.2561  0.9830 -0.3933
 3692SOL     OW11774   2.247   1.766   2.797 -0.1072 -0.2647 -0.3571
 3692SOL    HW111775   2.190   1.842   2.810  1.2054  0.6645  0.2419
 3692SOL    HW211776   2.282   1.746   2.884  1.7775  0.3019 -0.9182
 3693SOL     OW11777   5.244   0.960   5.904  0.3120 -0.1518 -0.0781
 3693SOL    HW111778   5.314   1.018   5.934  0.1968 -0.2953  0.4897
 3693SOL    HW211779   5.289   0.896   5.848  1.3926 -2.5100  3.1324
 3694SOL     OW11780   5.207   3.670   4.274 -0.1592 -0.4540 -0.1047
 3694SOL    HW111781   5.144   3.701   4.340  0.3773  0.1427  0.1378
 3694SOL    HW211782   5.202   3.574   4.279 -0.7048 -0.4097  0.2432
 3695SOL     OW11783   5.636   3.016   1.811 -0.0018  1.2255  0.2405
 3695SOL    HW111784   5.651   3.016   1.717 -0.3332  2.2293  0.1801
 3695SOL    HW211785   5.693   2.946   1.844  0.2692  1.0045 -0.6714
 3696SOL     OW11786   6.624   5.925   0.101 -0.1835  0.6473  0.3697
 3696SOL    HW111787   6.679   5.904   0.026 -0.5621 -2.5682  0.8469
 3696SOL    HW211788   6.538   5.891   0.077 -0.8181  1.4856  1.4216
 3697SOL     OW11789   1.124   4.507   4.917 -0.0448  0.1008 -0.5385
 3697SOL    HW111790   1.151   4.453   4.843  0.6057 -0.0298 -0.2149
 3697SOL    HW211791   1.083   4.584   4.877  1.5675  0.7041 -1.0933
 3698SOL     OW11792   1.048   5.975   7.022  0.0764  0.5458 -0.2764
 3698SOL    HW111793   1.053   5.881   7.005  0.8163  0.2046  1.6341
 3698SOL    HW211794   1.115   6.013   6.965  1.0641 -0.3127  0.2731
 3699SOL     OW11795   6.017   7.782   1.855  0.5022 -0.0597 -0.2839
 3699SOL    HW111796   6.004   7.838   1.778 -2.0872 -1.4932 -1.0260
 3699SOL    HW211797   5.974   7.700   1.832  2.2004 -1.5883  1.6362
 3700SOL     OW11798   7.391   2.950   7.400 -0.1195 -1.2960  0.2960
 3700SOL    HW111799   7.410   2.992   7.484 -0.1414  0.4414 -0.5250
 3700SOL    HW211800   7.462   2.979   7.342 -1.6310 -0.0714 -1.0463
 3701SOL     OW11801   2.075   0.715   6.991  0.3721 -0.2870  0.3241
 3701SOL    HW111802   2.064   0.807   7.016 -1.4639 -0.1198 -0.8458
 3701SOL    HW211803   2.126   0.718   6.910 -0.9041 -0.1465 -0.5043
 3702SOL     OW11804   6.682   1.590   3.856 -0.0457 -0.0309  0.4551
 3702SOL    HW111805   6.594   1.554   3.846 -0.2315  0.6658 -0.5967
 3702SOL    HW211806   6.738   1.514   3.869 -0.8369 -0.4661  1.5214
 3703SOL     OW11807   1.181   4.008   2.514 -0.6260  0.5405  0.2175
 3703SOL    HW111808   1.223   3.941   2.459  0.3708  0.1550  1.4047
 3703SOL    HW211809   1.128   4.059   2.452  0.2896  0.0016 -1.0734
 3704SOL     OW11810   3.700   1.911   6.529  0.0290  0.6073 -0.0223
 3704SOL    HW111811   3.620   1.909   6.582  1.1599  1.5683  1.8173
 3704SOL    HW211812   3.759   1.850   6.573  1.1122  1.6773  0.0398
 3705SOL     OW11813   7.211   3.533   3.172 -0.0673 -0.9038  0.3475
 3705SOL    HW111814   7.117   3.550   3.170  0.0190 -0.3516  0.7253
 3705SOL    HW211815   7.230   3.512   3.263  0.2649 -0.4628  0.3830
 3706SOL     OW11816   7.157   4.324   1.976  0.0584 -0.0777  0.1928
 3706SOL    HW111817   7.084   4.318   2.038  0.1955  1.1738  0.4880
 3706SOL    HW211818   7.127   4.275   1.900 -1.0721  0.3585  0.3371
 3707SOL     OW11819   0.374   4.868   6.337 -0.1113  0.0952 -0.5019
 3707SOL    HW111820   0.404   4.836   6.252  1.2405  1.5966 -0.6402
 3707SOL    HW211821   0.329   4.950   6.317 -0.5800 -0.0004  0.1470
 3708SOL     OW11822   2.162   3.317   4.842 -0.4907  0.5746 -0.2419
 3708SOL    HW111823   2.231   3.359   4.893  1.5652 -1.5973 -1.0554
 3708SOL    HW211824   2.163   3.364   4.758 -2.4593  2.7880  0.8757
 3709SOL     OW11825   3.591   7.592   1.609 -0.6007  0.0156 -0.2053
 3709SOL    HW111826   3.548   7.627   1.687 -0.9963  2.4317 -1.4265
 3709SOL    HW211827   3.681   7.622   1.616 -0.0154 -1.7449  0.4096
 3710SOL     OW11828   0.315   3.597   3.472 -0.3030 -1.0428  0.0773
 3710SOL    HW111829   0.281   3.600   3.382  0.4401  1.6144 -0.2111
 3710SOL    HW211830   0.252   3.649   3.523  0.9659  0.2778  0.3758
 3711SOL     OW11831   1.010   0.141   6.177  0.4339  0.2357 -0.0293
 3711SOL    HW111832   0.976   0.194   6.106  1.8075  0.0145 -0.9005
 3711SOL    HW211833   0.955   0.063   6.178 -1.7384  1.6757  1.3976
 3712SOL     OW11834   2.375   4.294   7.254 -0.1559 -0.0675 -0.5814
 3712SOL    HW111835   2.442   4.289   7.185  0.7397  2.4955  0.0217
 3712SOL    HW211836   2.408   4.236   7.323  0.1209 -0.8161 -1.3189
 3713SOL     OW11837   1.880   2.098   6.761  0.0512 -0.2503 -0.0150
 3713SOL    HW111838   1.876   2.137   6.673  2.8366 -0.7806 -0.4706
 3713SOL    HW211839   1.903   2.172   6.818 -2.2526  0.1969  0.4192
 3714SOL     OW11840   7.778   0.504   2.382  0.2583 -0.1781  0.2051
 3714SOL    HW111841   7.772   0.589   2.425  0.9333 -0.4833  0.9183
 3714SOL    HW211842   7.821   0.447   2.446  4.6849  0.1984 -2.0469
 3715SOL     OW11843   2.675   0.761   6.249  0.4673  0.6878  0.3012
 3715SOL    HW111844   2.761   0.785   6.284  0.7534  0.8464 -0.5017
 3715SOL    HW211845   2.659   0.673   6.285  1.2315  0.4089 -0.0143
 3716SOL     OW11846   6.600   0.565   4.673 -0.2066 -0.0428 -0.0167
 3716SOL    HW111847   6.513   0.525   4.679 -0.9287  1.0269 -2.3252
 3716SOL    HW211848   6.655   0.498   4.631 -0.5062  0.0831 -0.6179
 3717SOL     OW11849   2.384   2.536   6.820 -0.0699 -0.3368 -0.2947
 3717SOL    HW111850   2.435   2.598   6.769 -1.5881  0.6779 -0.6662
 3717SOL    HW211851   2.306   2.519   6.766 -0.5960 -1.0565  0.6542
 3718SOL     OW11852   5.258   6.871   5.087 -0.4988 -0.5179  0.5988
 3718SOL    HW111853   5.225   6.841   5.172  0.7698  0.2352  1.3886
 3718SOL    HW211854   5.317   6.943   5.108  0.7005 -1.0270 -0.8395
 3719SOL     OW11855   3.553   6.216   2.163  0.3088  0.5886  0.3462
 3719SOL    HW111856   3.563   6.140   2.221  1.0340  0.9532  0.7182
 3719SOL    HW211857   3.611   6.282   2.200  1.3909  0.5830 -1.2265
 3720SOL     OW11858   4.812   7.286   1.198  0.5168 -0.4568  0.0862
 3720SOL    HW111859   4.891   7.250   1.238 -0.7922 -0.7800  2.5443
 3720SOL    HW211860   4.828   7.279   1.103  3.5959 -0.0582  0.4767
 3721SOL     OW11861   5.513   2.027   0.374  0.4098 -0.2916 -0.7635
 3721SOL    HW111862   5.455   2.033   0.298 -0.3498 -2.0270 -0.3769
 3721SOL    HW211863   5.539   1.935   0.376  0.8254 -0.1615  0.7818
 3722SOL     OW11864   2.760   7.312   0.911  0.1753 -0.2225  0.2047
 3722SOL    HW111865   2.752   7.263   0.993  0.9358 -1.1462 -0.2517
 3722SOL    HW211866   2.788   7.247   0.847 -1.7672  0.1528 -1.1431
 3723SOL     OW11867   2.748   7.310   7.041  0.3662 -0.5300  0.2999
 3723SOL    HW111868   2.743   7.343   6.951  1.5154  0.2201  0.4958
 3723SOL    HW211869   2.660   7.324   7.076  0.5005  1.2673 -0.0046
 3724SOL     OW11870   6.620   0.861   7.055 -0.4577 -0.1549  0.0474
 3724SOL    HW111871   6.703   0.830   7.092 -0.1632  1.9601  1.3214
 3724SOL    HW211872   6.646   0.914   6.979 -0.6125  0.6673  0.5620
 3725SOL     OW11873   3.922   6.388   6.234  0.5813 -1.0370 -0.3494
 3725SOL    HW111874   3.913   6.295   6.255  1.9866 -0.7546  1.7723
 3725SOL    HW211875   4.016   6.405   6.237  0.2887  0.6782  0.4182
 3726SOL     OW11876   4.020   2.772   6.520 -0.3480  0.2815 -0.2541
 3726SOL    HW111877   4.056   2.698   6.569  2.0566  1.0821 -0.6847
 3726SOL    HW211878   4.066   2.770   6.436  0.0951  2.4650 -0.1226
 3727SOL     OW11879   6.465   2.272   5.426 -0.0015  0.5371 -0.3579
 3727SOL    HW111880   6.560   2.261   5.431 -0.1497 -0.4504  0.6563
 3727SOL    HW211881   6.439   2.216   5.353  0.3796  2.4121 -2.0401
 3728SOL     OW11882   0.916   2.848   7.488 -0.2176  0.0476 -0.0412
 3728SOL    HW111883   0.852   2.820   7.553 -1.5285 -0.6610 -1.5597
 3728SOL    HW211884   0.883   2.812   7.405  1.6763  0.4439 -1.0158
 3729SOL     OW11885   6.969   0.125   1.923 -0.2684 -0.2657 -0.3021
 3729SOL    HW111886   7.027   0.198   1.941 -1.0000  0.3583 -0.4111
 3729SOL    HW211887   7.021   0.047   1.943  1.2063  0.1942 -2.1083
 3730SOL     OW11888   2.467   4.734   1.713  0.1519  0.1325 -0.0467
 3730SOL    HW111889   2.498   4.645   1.731 -0.7437 -0.8638 -2.8690
 3730SOL    HW211890   2.547   4.785   1.697  0.6340 -0.3126  0.8747
 3731SOL     OW11891   4.464   0.716   5.796  0.2634  0.4103  0.2048
 3731SOL    HW111892   4.411   0.736   5.873  1.5943  2.3716  0.6982
 3731SOL    HW211893   4.480   0.802   5.756 -0.0957 -0.5220 -2.0880
 3732SOL     OW11894   1.713   2.536   1.151 -0.4948  0.5257  0.0646
 3732SOL    HW111895   1.788   2.560   1.095 -1.1048  1.3127 -0.4429
 3732SOL    HW211896   1.739   2.454   1.192 -0.1274 -0.2358 -1.5926
 3733SOL     OW11897   0.355   7.941   2.948 -0.4950 -0.0144  0.4666
 3733SOL    HW111898   0.277   7.985   2.913  0.6040  2.0398  0.4714
 3733SOL    HW211899   0.352   7.959   3.042 -0.9342 -1.4875  0.7600
 3734SOL     OW11900   6.834   4.357   0.701  0.1091 -0.2946  0.9567
 3734SOL    HW111901   6.763   4.306   0.741  0.2907 -0.9694  0.4324
 3734SOL    HW211902   6.904   4.294   0.685  0.7008  0.2980  1.1436
 3735SOL     OW11903   5.302   0.965   7.634  0.0728  0.0227 -0.1678
 3735SOL    HW111904   5.299   1.037   7.697 -1.0556 -0.1702  0.0249
 3735SOL    HW211905   5.273   0.888   7.684  0.7308 -0.4613 -0.5116
 3736SOL     OW11906   7.345   0.629   1.878 -0.4167  0.1305  0.1334
 3736SOL    HW111907   7.377   0.660   1.963 -1.5194  0.2956  0.4972
 3736SOL    HW211908   7.355   0.704   1.820 -1.8191  0.7732  0.6887
 3737SOL     OW11909   0.408   5.184   4.608 -0.2107  0.4682  0.6504
 3737SOL    HW111910   0.341   5.250   4.592 -0.9013 -0.0231  1.4503
 3737SOL    HW211911   0.361   5.101   4.607  0.5988 -0.0052 -0.0310
 3738SOL     OW11912   6.290   3.504   2.352 -0.0267 -0.1640 -0.2770
 3738SOL    HW111913   6.378   3.466   2.354 -1.1490 -2.9807 -0.0374
 3738SOL    HW211914   6.253   3.474   2.270 -1.1750  0.0088  0.1605
 3739SOL     OW11915   1.988   7.934   6.208  0.2859  0.2949  0.4723
 3739SOL    HW111916   2.049   7.898   6.143 -0.9303 -0.6600 -0.1856
 3739SOL    HW211917   2.001   7.879   6.286  0.7508  0.5493  0.5794
 3740SOL     OW11918   2.207   1.756   3.214  0.3551  0.0638 -0.2936
 3740SOL    HW111919   2.237   1.847   3.224  2.7872 -0.6147 -0.9084
 3740SOL    HW211920   2.115   1.765   3.188  0.5351  2.3437 -0.4053
 3741SOL     OW11921   4.006   6.935   0.899  0.1750 -0.2504 -1.0331
 3741SOL    HW111922   4.098   6.961   0.897  0.4743 -1.1665 -0.0712
 3741SOL    HW211923   3.962   7.007   0.944  0.7660 -0.7371  0.3622
 3742SOL     OW11924   7.395   2.601   3.322 -0.1209  0.7078 -0.0340
 3742SOL    HW111925   7.413   2.695   3.318 -0.2292  0.6932 -1.1997
 3742SOL    HW211926   7.472   2.563   3.365  0.8342  1.1120 -1.3330
 3743SOL     OW11927   3.779   6.905   0.145  0.6378  0.3127 -0.3735
 3743SOL    HW111928   3.809   6.942   0.063 -0.5537 -1.1775 -1.5379
 3743SOL    HW211929   3.692   6.942   0.158  0.3599 -0.3207 -0.3864
 3744SOL     OW11930   4.801   4.298   0.814 -0.0065 -0.3237 -0.5638
 3744SOL    HW111931   4.766   4.210   0.800 -1.0031  0.2694 -2.0416
 3744SOL    HW211932   4.755   4.353   0.750 -0.1694  1.4687  0.9787
 3745SOL     OW11933   3.781   0.936   5.731 -0.0087 -0.7882  0.5067
 3745SOL    HW111934   3.855   0.880   5.753  0.7418 -1.1803 -2.6719
 3745SOL    HW211935   3.706   0.877   5.729 -0.1932 -0.6702  2.1587
 3746SOL     OW11936   1.551   6.304   2.370  0.7467 -0.0895  0.2456
 3746SOL    HW111937   1.500   6.225   2.350  2.9689 -1.8456  1.0099
 3746SOL    HW211938   1.531   6.365   2.299 -0.4411 -1.6455 -0.8180
 3747SOL     OW11939   6.777   3.848   2.581  0.3587 -0.0412 -0.0103
 3747SOL    HW111940   6.813   3.762   2.602  1.1444  0.0403 -0.9281
 3747SOL    HW211941   6.768   3.892   2.665  0.8065 -0.6966  0.3890
 3748SOL     OW11942   6.780   6.309   5.086 -0.2830 -0.3008 -0.0051
 3748SOL    HW111943   6.806   6.218   5.098  1.9652  0.0776 -1.4449
 3748SOL    HW211944   6.791   6.325   4.992 -0.0987  1.5779  0.2977
 3749SOL     OW11945   2.503   7.646   7.917 -0.0942  0.9538 -0.3255
 3749SOL    HW111946   2.432   7.651   7.853  0.1438  0.6041 -0.6206
 3749SOL    HW211947   2.466   7.596   7.990  0.3794 -0.7447 -1.2092
 3750SOL     OW11948   0.009   6.420   3.505  0.2344  0.3242  0.0392
 3750SOL    HW111949   0.014   6.330   3.474 -0.0756  0.2695  0.1417
 3750SOL    HW211950   0.029   6.415   3.598 -2.2588 -0.0064  0.6349
 3751SOL     OW11951   0.410   0.165   2.576  0.6799 -0.1976 -0.7422
 3751SOL    HW111952   0.458   0.123   2.648  0.1178  0.6796  0.1775
 3751SOL    HW211953   0.320   0.172   2.608 -0.1669 -1.9883 -2.5073
 3752SOL     OW11954   3.472   2.874   6.744 -0.1845 -0.0896 -0.0500
 3752SOL    HW111955   3.510   2.935   6.681 -0.9105  0.5008  0.0708
 3752SOL    HW211956   3.419   2.814   6.691 -0.0970 -0.1379 -0.0840
 3753SOL     OW11957   2.148   2.028   7.722 -0.4479  0.1879 -0.3115
 3753SOL    HW111958   2.199   2.078   7.786 -0.8996 -1.1301  1.1141
 3753SOL    HW211959   2.209   1.961   7.690 -0.3086  0.6701 -1.0837
 3754SOL     OW11960   6.001   1.277   6.915 -0.6556 -0.1320  0.3082
 3754SOL    HW111961   5.916   1.293   6.875 -1.7175 -2.1792  1.5314
 3754SOL    HW211962   5.983   1.211   6.983  1.9931 -1.1259  0.1719
 3755SOL     OW11963   6.866   2.613   0.594  0.0513 -0.2341 -0.0600
 3755SOL    HW111964   6.904   2.543   0.647 -0.4676 -0.2330  0.3216
 3755SOL    HW211965   6.832   2.568   0.516  1.5844 -0.1258 -0.8349
 3756SOL     OW11966   1.886   7.562   3.925 -0.0090 -0.1091  0.3002
 3756SOL    HW111967   1.804   7.529   3.962 -0.3335 -0.2051 -0.4797
 3756SOL    HW211968   1.907   7.638   3.978 -0.5535 -0.1414  0.5725
 3757SOL     OW11969   0.727   6.774   4.665 -0.8166  0.1136  0.1149
 3757SOL    HW111970   0.807   6.812   4.631 -0.5543 -0.1859  0.3900
 3757SOL    HW211971   0.690   6.841   4.722 -0.4423  0.0220  0.4706
 3758SOL     OW11972   0.242   3.088   0.433  0.1151 -0.3987 -0.5763
 3758SOL    HW111973   0.208   3.066   0.347  1.5818  0.3259 -1.3814
 3758SOL    HW211974   0.336   3.101   0.419  0.3504 -0.1006  1.0979
 3759SOL     OW11975   5.176   7.281   3.422 -0.3261  0.0584 -0.3721
 3759SOL    HW111976   5.272   7.283   3.419 -0.3256  2.0786 -0.7708
 3759SOL    HW211977   5.151   7.214   3.358  0.8037 -0.8337  0.0872
 3760SOL     OW11978   2.911   5.002   7.599  0.0742  0.2921 -0.6594
 3760SOL    HW111979   2.836   5.051   7.564 -0.8782 -0.6525  0.0106
 3760SOL    HW211980   2.911   4.920   7.550  0.8538  0.3967 -0.8488
 3761SOL     OW11981   5.238   6.521   3.842 -0.0766  0.2945 -0.1075
 3761SOL    HW111982   5.227   6.610   3.876  0.3274  0.4554 -0.3901
 3761SOL    HW211983   5.322   6.491   3.877 -1.1400 -0.7657  1.6799
 3762SOL     OW11984   3.475   3.604   6.819  0.7470 -0.3053  0.3621
 3762SOL    HW111985   3.550   3.545   6.826  0.1289 -1.3302 -1.0146
 3762SOL    HW211986   3.504   3.672   6.758  0.5909 -0.6922 -0.1566
 3763SOL     OW11987   0.743   3.645   0.039 -0.4492  0.5969 -0.3437
 3763SOL    HW111988   0.833   3.628   0.012 -0.3969  1.0224 -0.4439
 3763SOL    HW211989   0.748   3.724   0.093 -0.8114  0.8358 -0.6499
 3764SOL     OW11990   5.068   4.018   0.122 -0.1717 -0.2804  0.2451
 3764SOL    HW111991   5.089   4.087   0.185 -0.6117 -1.3344  1.6060
 3764SOL    HW211992   5.149   3.967   0.114 -0.0054  0.0668 -0.3450
 3765SOL     OW11993   6.434   5.591   6.077  0.0513 -0.2495  0.3484
 3765SOL    HW111994   6.496   5.659   6.049 -0.3528  0.0762  0.2225
 3765SOL    HW211995   6.353   5.612   6.030  0.1961 -1.3928 -0.4446
 3766SOL     OW11996   2.986   7.103   0.535  0.0889 -0.0914  0.8218
 3766SOL    HW111997   2.922   7.165   0.500 -0.7327 -0.7630  1.1029
 3766SOL    HW211998   3.007   7.046   0.461  1.1274  0.7292  0.4616
 3767SOL     OW11999   0.054   3.994   3.865 -0.3101  0.2307 -0.0432
 3767SOL    HW112000  -0.031   3.952   3.852 -0.5293  1.0462 -1.4932
 3767SOL    HW212001   0.111   3.924   3.898 -0.8896 -0.9760 -1.5026
 3768SOL     OW12002   0.673   1.827   1.720 -0.3251  0.0205 -0.5895
 3768SOL    HW112003   0.766   1.822   1.742 -0.2921  0.6460 -0.5640
 3768SOL    HW212004   0.671   1.848   1.626 -0.4457 -0.5117 -0.7080
 3769SOL     OW12005   0.326   4.513   1.295 -0.1240 -0.3445  0.2815
 3769SOL    HW112006   0.234   4.532   1.274 -0.6598 -4.3433 -2.0303
 3769SOL    HW212007   0.322   4.473   1.382 -0.7289 -1.1590 -0.1044
 3770SOL     OW12008   1.832   1.836   6.732  0.0255  0.7054 -0.3079
 3770SOL    HW112009   1.855   1.768   6.796  0.5064 -0.3210 -1.5321
 3770SOL    HW212010   1.858   1.918   6.775 -0.0944  0.0947  0.9979
 3771SOL     OW12011   6.581   6.137   7.061  0.3032  0.0181  0.0001
 3771SOL    HW112012   6.537   6.148   7.145 -0.2868 -1.5702 -0.0556
 3771SOL    HW212013   6.634   6.215   7.051 -2.3001  1.9352  0.1867
 3772SOL     OW12014   5.704   7.804   2.000 -0.0450 -0.6683 -0.1435
 3772SOL    HW112015   5.648   7.822   1.924 -1.3953 -1.2576  0.6625
 3772SOL    HW212016   5.645   7.762   2.063  1.5200 -2.1188  0.4269
 3773SOL     OW12017   4.548   3.589   6.478 -0.3270 -0.2487 -0.1424
 3773SOL    HW112018   4.505   3.670   6.507 -0.1677 -0.4678  0.7123
 3773SOL    HW212019   4.501   3.519   6.524  0.1031 -0.5850 -0.2142
 3774SOL     OW12020   5.366   7.756   3.803  0.2747 -0.2679 -0.0117
 3774SOL    HW112021   5.432   7.820   3.831  0.0621 -1.2390  3.1945
 3774SOL    HW212022   5.354   7.773   3.710  3.0078  1.7779 -0.1344
 3775SOL     OW12023   0.988   7.020   6.201 -0.0451 -0.2421  0.2927
 3775SOL    HW112024   1.038   7.094   6.236 -1.8628  0.0738  2.3789
 3775SOL    HW212025   0.944   7.055   6.123 -0.3208  0.6628  0.8507
 3776SOL     OW12026   6.078   7.737   4.593 -0.4652 -0.2320 -0.1794
 3776SOL    HW112027   5.991   7.762   4.562  0.0748  0.4995 -1.1976
 3776SOL    HW212028   6.129   7.727   4.512  0.6933  0.5266  0.4361
 3777SOL     OW12029   4.452   5.147   6.889 -0.4154 -0.3391 -0.4539
 3777SOL    HW112030   4.538   5.130   6.928 -0.7688 -0.2828  0.3572
 3777SOL    HW212031   4.416   5.219   6.940 -0.7457 -0.0311 -1.1076
 3778SOL     OW12032   2.884   7.074   5.428 -0.0119  0.2469 -0.1365
 3778SOL    HW112033   2.822   7.096   5.358 -0.3352 -0.2885 -0.0265
 3778SOL    HW212034   2.969   7.102   5.395 -0.2813  0.8080 -0.3741
 3779SOL     OW12035   2.269   0.952   7.026 -0.0093 -0.1367  0.1269
 3779SOL    HW112036   2.179   0.949   6.995  0.6059  0.1362 -1.8080
 3779SOL    HW212037   2.261   0.956   7.122 -1.9944 -1.5676  0.0958
 3780SOL     OW12038   5.998   4.730   7.048 -0.1004 -0.2603 -0.1130
 3780SOL    HW112039   6.055   4.654   7.062 -0.0668  0.1353  2.2686
 3780SOL    HW212040   6.055   4.795   7.007  0.1280 -1.1576 -1.2787
 3781SOL     OW12041   3.562   3.031   4.189 -0.4251 -0.1967  0.1334
 3781SOL    HW112042   3.509   3.097   4.144 -0.3083 -0.2522 -0.0839
 3781SOL    HW212043   3.501   2.960   4.208 -0.3200 -0.4696 -0.5464
 3782SOL     OW12044   3.191   1.333   0.885 -0.4407 -0.1691 -0.1415
 3782SOL    HW112045   3.275   1.334   0.930 -0.6077 -1.6295  0.2473
 3782SOL    HW212046   3.144   1.409   0.919  0.1817 -0.1400  0.6775
 3783SOL     OW12047   2.367   2.372   1.180 -0.0758  1.0365  0.4311
 3783SOL    HW112048   2.337   2.459   1.156 -1.9320 -0.0107 -1.4039
 3783SOL    HW212049   2.320   2.351   1.261  0.2320  1.6580  0.7725
 3784SOL     OW12050   2.524   4.814   7.687  0.0952  0.0712  0.0435
 3784SOL    HW112051   2.553   4.893   7.733  2.9918  0.3705 -2.0826
 3784SOL    HW212052   2.440   4.839   7.648  0.0334  1.4185  0.9630
 3785SOL     OW12053   2.885   2.445   6.587 -0.2234 -0.0944  0.4107
 3785SOL    HW112054   2.970   2.488   6.577  0.6047 -1.6280  0.5946
 3785SOL    HW212055   2.835   2.474   6.511  0.6663  0.3946 -0.0027
 3786SOL     OW12056   0.684   3.499   5.746 -0.3560  0.0834  0.0334
 3786SOL    HW112057   0.719   3.574   5.699  1.7110  0.0309  1.3748
 3786SOL    HW212058   0.610   3.533   5.796  0.2438  1.1081  0.2332
 3787SOL     OW12059   7.188   4.132   2.879 -0.0119 -0.2708  0.5754
 3787SOL    HW112060   7.234   4.134   2.964 -0.5531  0.5738  0.8577
 3787SOL    HW212061   7.163   4.040   2.868  0.0925 -0.3997  1.3217
 3788SOL     OW12062   1.310   4.606   1.352  0.3323 -0.4203  0.3130
 3788SOL    HW112063   1.391   4.597   1.300 -1.2201  0.2727 -2.4225
 3788SOL    HW212064   1.296   4.700   1.358 -0.2564 -0.5399  0.8396
 3789SOL     OW12065   5.192   1.154   6.338  0.1781 -0.2293  0.6160
 3789SOL    HW112066   5.165   1.161   6.246  2.6549 -1.1594 -0.2641
 3789SOL    HW212067   5.192   1.060   6.356  1.8049 -0.2104  0.8504
 3790SOL     OW12068   2.352   5.449   4.735 -0.0473  0.3322 -0.4225
 3790SOL    HW112069   2.394   5.375   4.779 -1.5678 -0.3359 -0.0236
 3790SOL    HW212070   2.346   5.517   4.802 -0.9378 -0.1206 -0.0212
 3791SOL     OW12071   0.194   2.831   6.114  0.2252 -0.0685 -0.5955
 3791SOL    HW112072   0.145   2.820   6.033 -1.1332  0.3227  0.1423
 3791SOL    HW212073   0.220   2.923   6.114 -0.0854  0.0219 -0.4320
 3792SOL     OW12074   6.254   4.707   6.107  0.3867 -0.5113  0.2951
 3792SOL    HW112075   6.170   4.751   6.121  0.4939  0.2302 -1.2535
 3792SOL    HW212076   6.285   4.687   6.196  0.2713  2.4361  1.1214
 3793SOL     OW12077   7.131   2.014   0.872  0.3372 -0.5683  0.1779
 3793SOL    HW112078   7.056   1.957   0.855 -0.7402  0.0991  2.4032
 3793SOL    HW212079   7.107   2.064   0.949  2.0526  1.5304 -0.5367
 3794SOL     OW12080   3.495   5.287   0.646  0.7083  0.4278 -0.0673
 3794SOL    HW112081   3.517   5.279   0.553  0.8540 -0.4891  0.0405
 3794SOL    HW212082   3.537   5.212   0.687 -1.1835 -0.4001  0.4236
 3795SOL     OW12083   1.388   2.406   6.808 -0.2357  0.4883  0.1351
 3795SOL    HW112084   1.342   2.470   6.754 -0.1101  1.2613  0.9322
 3795SOL    HW212085   1.439   2.458   6.870 -0.0330 -0.3788  0.7186
 3796SOL     OW12086   6.529   1.974   6.632 -0.0240 -0.0677 -0.2009
 3796SOL    HW112087   6.469   2.021   6.691  0.4372 -0.0467  0.2622
 3796SOL    HW212088   6.580   2.043   6.590  0.4529 -0.1259  0.2621
 3797SOL     OW12089   2.589   0.039   4.081 -0.3157  0.1858  0.2213
 3797SOL    HW112090   2.551  -0.033   4.031  0.0691  0.7036 -0.8655
 3797SOL    HW212091   2.562   0.118   4.033  0.3762  0.6850  0.6349
 3798SOL     OW12092   7.134   5.322   0.915 -0.3384  0.1147  0.0472
 3798SOL    HW112093   7.112   5.390   0.978 -1.2047 -0.3219  0.2269
 3798SOL    HW212094   7.150   5.370   0.833 -1.5476  0.5038  0.0172
 3799SOL     OW12095   0.702   1.106   5.668  0.3697 -0.7836 -0.4194
 3799SOL    HW112096   0.793   1.087   5.645  0.7075  0.0817  0.1236
 3799SOL    HW212097   0.704   1.122   5.762 -0.4270 -1.1766 -0.3289
 3800SOL     OW12098   3.014   6.069   2.952 -0.3314 -0.3056  0.0057
 3800SOL    HW112099   2.940   6.015   2.924 -0.2780 -1.1471  1.3773
 3800SOL    HW212100   2.979   6.158   2.958 -0.4623 -0.1748 -2.1282
 3801SOL     OW12101   1.817   7.804   7.054  0.2177  0.3083 -0.4776
 3801SOL    HW112102   1.775   7.876   7.005 -0.1781  1.4712  1.4579
 3801SOL    HW212103   1.906   7.800   7.019  0.2874  1.8597 -0.5617
 3802SOL     OW12104   3.677   0.294   5.432 -0.4553  0.3921 -0.0524
 3802SOL    HW112105   3.627   0.219   5.398 -0.1384  0.2006 -0.0960
 3802SOL    HW212106   3.765   0.260   5.446 -0.0514  1.0115 -1.0136
 3803SOL     OW12107   7.077   4.654   4.642  0.0652  0.0774  0.0397
 3803SOL    HW112108   7.167   4.687   4.640  0.8583 -1.9607 -0.4144
 3803SOL    HW212109   7.078   4.584   4.709 -0.7674 -0.9953 -1.0192
 3804SOL     OW12110   4.450   0.142   3.460 -0.7950  0.5488 -0.4350
 3804SOL    HW112111   4.438   0.212   3.396 -0.3673  0.4521 -0.6259
 3804SOL    HW212112   4.543   0.121   3.455 -1.0398 -0.5023 -0.8793
 3805SOL     OW12113   4.496   5.808   6.044 -0.0173  0.1120 -0.0713
 3805SOL    HW112114   4.424   5.858   6.081 -0.7677 -2.0878  1.6922
 3805SOL    HW212115   4.551   5.785   6.119  0.4292 -1.4306 -0.8169
 3806SOL     OW12116   5.423   2.286   2.124 -0.2744  0.2452 -0.6696
 3806SOL    HW112117   5.402   2.234   2.201 -1.3095  0.4949 -0.7704
 3806SOL    HW212118   5.483   2.231   2.074  1.0021  0.3830  0.6515
 3807SOL     OW12119   1.925   0.938   5.362  0.5352  0.2383 -0.6995
 3807SOL    HW112120   1.869   1.014   5.345  1.2583  0.6954 -1.1022
 3807SOL    HW212121   1.865   0.864   5.365 -0.0955  0.7220 -1.1206
 3808SOL     OW12122   0.981   4.533   6.246 -0.0418 -0.3834 -0.2936
 3808SOL    HW112123   1.061   4.584   6.233  0.1578 -0.7164 -0.3946
 3808SOL    HW212124   0.915   4.597   6.270 -0.2456  0.1863 -2.1636
 3809SOL     OW12125   6.309   6.362   3.090 -0.0587  0.5371 -0.2755
 3809SOL    HW112126   6.347   6.284   3.050 -1.1741 -0.2616  0.1593
 3809SOL    HW212127   6.279   6.415   3.016  0.8551  0.6363 -0.5786
 3810SOL     OW12128   3.206   7.264   3.368 -0.2140 -0.4215  1.1726
 3810SOL    HW112129   3.118   7.230   3.354 -0.6521  1.4286 -1.2906
 3810SOL    HW212130   3.235   7.224   3.450 -2.2481 -3.2270  0.6625
 3811SOL     OW12131   2.886   3.824   7.806  0.1661 -0.2491  0.2921
 3811SOL    HW112132   2.849   3.736   7.811 -0.5115  0.0581  0.8757
 3811SOL    HW212133   2.898   3.850   7.897 -1.1046  0.8568  0.1697
 3812SOL     OW12134   3.971   4.069   0.396  0.0421 -0.2476  0.5733
 3812SOL    HW112135   4.041   4.042   0.337 -1.1401  0.3587 -1.1798
 3812SOL    HW212136   4.003   4.045   0.483  2.4486  0.0906 -0.1420
 3813SOL     OW12137   0.103   2.589   6.651  0.0909 -0.1166  0.4486
 3813SOL    HW112138   0.056   2.557   6.574  1.1871  1.7496 -1.0883
 3813SOL    HW212139   0.117   2.683   6.634  0.9178  0.2262  2.6404
 3814SOL     OW12140   1.920   2.538   5.331 -0.5814  0.0756 -0.4842
 3814SOL    HW112141   1.917   2.448   5.364 -1.5332  0.1629 -0.3049
 3814SOL    HW212142   2.005   2.572   5.362 -0.2016 -0.7575 -0.5831
 3815SOL     OW12143   0.530   3.101   3.490  0.2341  0.3511 -0.5981
 3815SOL    HW112144   0.450   3.114   3.439 -2.4689  0.6959  3.2868
 3815SOL    HW212145   0.580   3.182   3.477 -1.7573  1.6712 -0.4087
 3816SOL     OW12146   3.932   2.103   3.259 -0.3770 -0.0747 -0.2675
 3816SOL    HW112147   3.842   2.131   3.241 -0.0220  0.9641 -0.5044
 3816SOL    HW212148   3.949   2.134   3.347 -0.6095 -1.2602  0.2187
 3817SOL     OW12149   0.767   5.191   5.369  0.2056 -0.1154  0.6349
 3817SOL    HW112150   0.783   5.157   5.457  0.7745 -0.5914  0.3571
 3817SOL    HW212151   0.676   5.168   5.351  0.3036 -0.6644  0.8194
 3818SOL     OW12152   2.250   6.948   0.881  0.0441  0.1466 -0.1180
 3818SOL    HW112153   2.273   7.041   0.882  0.3963  0.0546  0.3224
 3818SOL    HW212154   2.325   6.903   0.919 -0.3415 -0.2712  0.1679
 3819SOL     OW12155   0.727   6.369   2.022 -0.1481  0.2984 -0.3288
 3819SOL    HW112156   0.766   6.455   2.038  0.6820 -0.3207  1.1965
 3819SOL    HW212157   0.736   6.356   1.928 -1.5762  2.4655 -0.8371
 3820SOL     OW12158   7.374   6.312   1.537  0.3305 -0.3681  0.3118
 3820SOL    HW112159   7.359   6.356   1.453  0.0634  1.5917  1.3352
 3820SOL    HW212160   7.397   6.382   1.597  0.4570 -1.7256  1.9162
 3821SOL     OW12161   4.610   3.899   6.243  0.2566 -0.1825 -0.0244
 3821SOL    HW112162   4.596   3.921   6.151  2.0032 -0.1249 -0.3082
 3821SOL    HW212163   4.535   3.845   6.267 -0.3314 -0.0132 -1.4089
 3822SOL     OW12164   1.923   0.264   3.504 -0.2253 -0.7286  0.1533
 3822SOL    HW112165   1.933   0.356   3.532  2.0232 -0.9994  0.4438
 3822SOL    HW212166   1.897   0.270   3.412  1.1997  0.2318 -0.2198
 3823SOL     OW12167   2.803   0.047   2.830 -0.2276 -0.5999 -0.5431
 3823SOL    HW112168   2.749   0.069   2.754  0.8599  0.2427 -1.1024
 3823SOL    HW212169   2.883   0.011   2.793  0.3609 -0.0670  0.1949
 3824SOL     OW12170   6.224   2.674   1.095  0.2098  0.5692 -0.0608
 3824SOL    HW112171   6.171   2.678   1.016 -0.9409  0.3497  0.6847
 3824SOL    HW212172   6.183   2.607   1.149  2.0563 -0.6048 -0.0231
 3825SOL     OW12173   6.931   5.547   2.128 -0.1260 -0.2243  0.0605
 3825SOL    HW112174   6.915   5.506   2.213 -0.4732  0.3415  0.2725
 3825SOL    HW212175   6.855   5.604   2.114 -1.1388 -1.8699 -1.5855
 3826SOL     OW12176   4.000   3.320   7.486  0.3411  0.1673 -0.0628
 3826SOL    HW112177   3.993   3.407   7.447 -0.8097  0.3164  0.4299
 3826SOL    HW212178   3.916   3.307   7.530  0.1888 -1.5350 -0.8190
 3827SOL     OW12179   4.375   7.622   4.141  0.4441  0.0495 -0.4568
 3827SOL    HW112180   4.415   7.599   4.057 -0.9255  0.7842 -1.3561
 3827SOL    HW212181   4.288   7.582   4.137  0.0742  0.7580  0.2727
 3828SOL     OW12182   2.141   4.787   1.926 -0.3543  0.2326  0.0843
 3828SOL    HW112183   2.064   4.784   1.982  0.5011 -1.6353  1.2367
 3828SOL    HW212184   2.105   4.792   1.837 -1.7344  2.0202  0.6749
 3829SOL     OW12185   4.025   1.906   6.645 -0.1745 -0.4221  0.2971
 3829SOL    HW112186   3.974   1.854   6.583 -0.3724 -1.8203  1.5603
 3829SOL    HW212187   4.114   1.906   6.610 -0.7850  1.2076 -1.4123
 3830SOL     OW12188   2.554   3.795   1.048 -0.4804  0.4224 -0.1281
 3830SOL    HW112189   2.495   3.838   1.110 -1.4383  1.0358 -1.4088
 3830SOL    HW212190   2.636   3.784   1.096 -0.8964  1.7129  0.9451
 3831SOL     OW12191   4.907   5.778   4.616 -0.1094 -0.4338  0.0805
 3831SOL    HW112192   4.923   5.850   4.556  1.5348 -0.5041  0.3966
 3831SOL    HW212193   4.816   5.752   4.598 -0.3211  0.8791 -0.9050
 3832SOL     OW12194   1.536   2.115   2.764  0.7257  0.5181 -0.0508
 3832SOL    HW112195   1.464   2.116   2.827 -0.3967 -1.5495 -1.1962
 3832SOL    HW212196   1.568   2.205   2.762  0.9115  0.6720  3.5184
 3833SOL     OW12197   5.132   6.069   6.606  0.0195 -0.2013  0.0187
 3833SOL    HW112198   5.051   6.080   6.555  0.4873 -0.0591 -0.7073
 3833SOL    HW212199   5.129   5.978   6.635  0.9287 -1.0854 -2.4013
 3834SOL     OW12200   2.372   0.671   1.565 -0.0875 -0.4837 -0.6460
 3834SOL    HW112201   2.361   0.720   1.483  0.6515  0.3546 -0.2749
 3834SOL    HW212202   2.418   0.591   1.540  0.7707  0.0985 -0.9684
 3835SOL     OW12203   0.971   2.533   1.691  1.0521  0.1839  0.0016
 3835SOL    HW112204   0.909   2.508   1.623  0.8850 -2.0362  0.8795
 3835SOL    HW212205   0.927   2.605   1.738  1.1760  1.7676 -2.1343
 3836SOL     OW12206   5.610   6.695   2.627 -0.5194 -0.5840  0.3277
 3836SOL    HW112207   5.593   6.608   2.664  0.4547 -0.5698  0.8614
 3836SOL    HW212208   5.704   6.709   2.642 -0.3912  0.0276 -0.9005
 3837SOL     OW12209   1.514   6.955   0.258 -0.1646 -0.3665 -0.1748
 3837SOL    HW112210   1.470   6.968   0.342  0.6513 -0.2022  0.2379
 3837SOL    HW212211   1.573   7.030   0.250  0.5477 -0.9495 -0.3948
 3838SOL     OW12212   6.940   1.000   0.438 -0.0801  0.6228  0.3159
 3838SOL    HW112213   6.867   1.009   0.376 -0.0988 -0.7997  0.0951
 3838SOL    HW212214   6.969   1.090   0.454 -0.9397  1.1107 -0.7152
 3839SOL     OW12215   0.962   4.242   3.947  0.7514  0.2998 -0.7257
 3839SOL    HW112216   0.910   4.321   3.962 -0.0030  0.1916 -2.4822
 3839SOL    HW212217   1.046   4.275   3.914  1.8661  0.4715  2.0408
 3840SOL     OW12218   2.675   2.297   1.959  0.2260  0.3713 -0.1466
 3840SOL    HW112219   2.583   2.322   1.966  0.2199  0.2407  0.2635
 3840SOL    HW212220   2.704   2.286   2.050  0.8255  1.0613 -0.2495
 3841SOL     OW12221   6.192   7.256   3.155 -0.2104  0.4101 -0.1138
 3841SOL    HW112222   6.277   7.288   3.122 -0.3015 -0.8511 -1.6980
 3841SOL    HW212223   6.131   7.271   3.082 -1.2534  0.7909  0.8096
 3842SOL     OW12224   7.304   2.822   4.851 -0.4157  0.4188 -0.0423
 3842SOL    HW112225   7.367   2.833   4.780 -0.5750  1.0783 -0.0814
 3842SOL    HW212226   7.238   2.762   4.816  0.5754 -0.8987  0.2534
 3843SOL     OW12227   3.658   5.961   5.617 -0.2371 -0.2700  0.7996
 3843SOL    HW112228   3.684   6.050   5.591 -0.6955  0.1242  1.6661
 3843SOL    HW212229   3.700   5.948   5.702  0.4846 -1.2013  0.3247
 3844SOL     OW12230   4.616   0.578   6.807 -0.0103 -0.1884  0.3573
 3844SOL    HW112231   4.695   0.565   6.858  1.0607 -1.3604 -1.5050
 3844SOL    HW212232   4.596   0.672   6.816  2.6802  0.5510 -0.6350
 3845SOL     OW12233   3.889   6.737   1.295  0.2922  0.2751  0.0046
 3845SOL    HW112234   3.825   6.724   1.225  1.3319  0.1067 -0.9507
 3845SOL    HW212235   3.857   6.685   1.368  0.6362 -1.8650 -1.3018
 3846SOL     OW12236   0.022   5.057   3.439  0.1212 -0.7643  0.0878
 3846SOL    HW112237  -0.057   5.094   3.479  1.3958  1.2462  0.9488
 3846SOL    HW212238   0.050   4.989   3.499  1.4770  1.5821  2.3354
 3847SOL     OW12239   6.673   4.140   0.837  0.0581  0.2364 -0.4784
 3847SOL    HW112240   6.612   4.104   0.901  0.8621  1.2463  0.9154
 3847SOL    HW212241   6.745   4.174   0.890  0.5426  1.5108 -1.8967
 3848SOL     OW12242   4.647   1.998   0.718 -0.2516 -0.1155  1.0411
 3848SOL    HW112243   4.671   1.925   0.660  1.3409  1.9413 -1.0770
 3848SOL    HW212244   4.696   1.982   0.798  0.4036 -1.1380  0.4583
 3849SOL     OW12245   4.344   7.084   2.053 -0.2462 -0.5027  0.0759
 3849SOL    HW112246   4.375   7.049   1.969 -0.1140 -0.1022 -0.0433
 3849SOL    HW212247   4.378   7.022   2.118  0.1451 -0.4945 -0.1165
 3850SOL     OW12248   0.735   3.299   2.464 -0.7912 -0.4245  0.4366
 3850SOL    HW112249   0.744   3.390   2.490 -0.6796 -0.1960 -0.3769
 3850SOL    HW212250   0.682   3.302   2.384  0.2617 -0.9493 -0.3137
 3851SOL     OW12251   4.898   1.632   4.311  0.2307  0.0839 -0.1547
 3851SOL    HW112252   4.832   1.622   4.242  0.4941  0.0105 -0.4005
 3851SOL    HW212253   4.981   1.618   4.266  0.4504  0.7142  0.0415
 3852SOL     OW12254   1.006   7.011   5.265 -0.7148 -0.0584  0.3045
 3852SOL    HW112255   1.049   6.943   5.317 -0.3349  0.5786  0.8306
 3852SOL    HW212256   0.970   6.964   5.189  1.3258 -0.5453 -0.4237
 3853SOL     OW12257   4.720   4.658   2.269  0.1072 -0.6441 -0.4409
 3853SOL    HW112258   4.785   4.683   2.335 -0.4282 -0.5975  0.0721
 3853SOL    HW212259   4.637   4.690   2.303 -0.3427 -1.5965 -0.5949
 3854SOL     OW12260   6.940   2.162   7.898  0.3320 -0.2910 -0.1004
 3854SOL    HW112261   6.981   2.158   7.985  2.5298  0.2774 -1.0256
 3854SOL    HW212262   6.971   2.084   7.853  1.8240  0.9202 -1.3420
 3855SOL     OW12263   4.351   7.339   3.159 -0.1343 -0.3929  0.1661
 3855SOL    HW112264   4.427   7.395   3.175 -1.2208  0.6709  2.0547
 3855SOL    HW212265   4.334   7.347   3.066  2.5683 -1.3862 -0.5041
 3856SOL     OW12266   0.625   7.399   0.713 -0.3862  0.0666 -0.8392
 3856SOL    HW112267   0.566   7.376   0.784  0.3741 -1.0433 -0.5419
 3856SOL    HW212268   0.674   7.475   0.746 -2.2876  1.6412 -1.4745
 3857SOL     OW12269   4.397   3.639   2.912 -0.3882  0.5357 -0.0534
 3857SOL    HW112270   4.401   3.639   2.816  0.7806  1.6446 -0.0391
 3857SOL    HW212271   4.480   3.600   2.938 -0.2497  1.1719  0.4903
 3858SOL     OW12272   3.916   0.474   5.788  0.0316 -0.7284 -0.2748
 3858SOL    HW112273   3.926   0.385   5.754  0.0763 -0.7891 -0.1061
 3858SOL    HW212274   3.843   0.510   5.739 -0.1959 -0.9707 -0.1206
 3859SOL     OW12275   5.304   0.543   1.498  0.3457  0.7738 -0.3304
 3859SOL    HW112276   5.231   0.512   1.551 -0.1725  2.6742  0.1464
 3859SOL    HW212277   5.290   0.503   1.412  0.7791 -1.7550  0.6785
 3860SOL     OW12278   5.996   2.892   2.506  0.0880 -0.3562  0.2420
 3860SOL    HW112279   6.030   2.967   2.555 -0.6783  0.9408 -1.1223
 3860SOL    HW212280   6.068   2.830   2.503  2.0335  1.7980 -1.5447
 3861SOL     OW12281   0.787   0.512   6.618  0.5473 -0.1238  0.0475
 3861SOL    HW112282   0.833   0.460   6.684 -0.0605 -1.2344 -0.3778
 3861SOL    HW212283   0.741   0.447   6.564 -1.7542  0.9367  0.6086
 3862SOL     OW12284   2.453   1.762   7.844  0.1713 -0.1794 -0.1935
 3862SOL    HW112285   2.360   1.757   7.868  0.2387 -1.4906 -0.1431
 3862SOL    HW212286   2.499   1.716   7.915  0.7302 -0.6938 -0.8754
 3863SOL     OW12287   2.009   5.136   0.610 -0.1970 -0.0551 -0.1548
 3863SOL    HW112288   1.960   5.211   0.644  0.3799  0.5430 -0.6235
 3863SOL    HW212289   1.984   5.129   0.518 -0.8522 -0.9388  0.0783
 3864SOL     OW12290   4.719   2.883   4.906 -0.0722  0.4745  0.4542
 3864SOL    HW112291   4.752   2.861   4.993  1.3178  0.8878  0.0549
 3864SOL    HW212292   4.655   2.953   4.922  1.0818  1.4368  1.0646
 3865SOL     OW12293   5.310   0.194   7.105 -0.2690  0.4900  0.1451
 3865SOL    HW112294   5.361   0.158   7.032 -0.4554 -0.7313  0.6046
 3865SOL    HW212295   5.285   0.281   7.075 -0.2176  0.0710 -1.1937
 3866SOL     OW12296   1.193   4.724   6.288  0.1598 -0.1258  0.3333
 3866SOL    HW112297   1.230   4.693   6.205  0.8858  0.0389  0.5876
 3866SOL    HW212298   1.269   4.742   6.343 -0.3087  0.0455  0.9380
 3867SOL     OW12299   0.843   0.864   6.916  0.2890 -0.0415  0.1014
 3867SOL    HW112300   0.799   0.902   6.992  0.0440 -3.0963  1.6289
 3867SOL    HW212301   0.934   0.856   6.943  0.2571 -0.8587 -0.0063
 3868SOL     OW12302   7.616   2.738   7.080 -0.1154 -0.0333 -0.2142
 3868SOL    HW112303   7.658   2.824   7.070 -0.1507  0.3994  2.5133
 3868SOL    HW212304   7.689   2.677   7.090 -0.0594  0.3061  1.7435
 3869SOL     OW12305   2.916   7.632   4.522  0.3323  0.0238 -0.3953
 3869SOL    HW112306   2.925   7.565   4.590  0.6166 -0.2008 -0.6516
 3869SOL    HW212307   2.993   7.621   4.467  0.8635  1.1872  0.0954
 3870SOL     OW12308   7.548   5.949   4.597 -0.2531  0.1489 -0.9326
 3870SOL    HW112309   7.516   6.031   4.558 -0.2242  0.1235 -1.0078
 3870SOL    HW212310   7.477   5.922   4.656 -0.4895 -0.0534 -1.3069
 3871SOL     OW12311   6.897   7.104   4.608  0.1596  0.2772  0.0164
 3871SOL    HW112312   6.963   7.092   4.676 -0.9375  1.0051  1.2406
 3871SOL    HW212313   6.815   7.117   4.655 -0.3275  2.8977 -1.3617
 3872SOL     OW12314   5.697   5.879   4.966 -0.5062 -0.6255  0.1884
 3872SOL    HW112315   5.690   5.921   4.881 -2.8085 -2.1463 -0.4407
 3872SOL    HW212316   5.792   5.870   4.980 -0.0494  0.7752 -1.5840
 3873SOL     OW12317   7.763   1.931   3.627  0.0744  0.4380 -0.3588
 3873SOL    HW112318   7.742   1.897   3.541  1.4147  1.0012 -0.9229
 3873SOL    HW212319   7.852   1.966   3.619 -0.0634  1.1893  1.0337
 3874SOL     OW12320   6.263   2.140   2.961  0.2402 -0.1275 -0.3339
 3874SOL    HW112321   6.195   2.119   2.898  1.5789 -0.8315 -1.5920
 3874SOL    HW212322   6.230   2.104   3.044 -1.2368  0.2130 -0.7460
 3875SOL     OW12323   3.399   4.098   5.822  0.1116 -0.1213 -0.1545
 3875SOL    HW112324   3.433   4.024   5.770 -2.5340 -0.6537 -1.2602
 3875SOL    HW212325   3.305   4.096   5.808 -0.1331  3.0947  0.3549
 3876SOL     OW12326   6.810   2.196   6.846 -0.7453 -0.1177 -0.0837
 3876SOL    HW112327   6.895   2.235   6.826  0.1341 -1.8046  0.1852
 3876SOL    HW212328   6.747   2.263   6.821  0.6084  0.7473 -1.3901
 3877SOL     OW12329   5.825   0.380   1.474 -0.2442 -0.7171  0.0212
 3877SOL    HW112330   5.845   0.465   1.435 -0.7311 -0.4645  0.3165
 3877SOL    HW212331   5.908   0.332   1.470  0.5870  0.4728  1.6093
 3878SOL     OW12332   3.793   3.181   4.055 -0.5645  0.4399  0.2021
 3878SOL    HW112333   3.742   3.140   4.126 -2.6288  0.9246 -0.9341
 3878SOL    HW212334   3.767   3.133   3.976  0.6311  0.8369 -0.4507
 3879SOL     OW12335   2.121   0.816   2.128  0.1547  0.1815 -0.7897
 3879SOL    HW112336   2.105   0.756   2.055 -2.9316 -0.4199  0.2412
 3879SOL    HW212337   2.206   0.789   2.163 -0.4040 -2.6420 -1.3294
 3880SOL     OW12338   1.316   1.050   6.944 -0.7094 -0.7125  0.2307
 3880SOL    HW112339   1.342   1.139   6.966 -1.7253 -0.3849  0.1587
 3880SOL    HW212340   1.394   0.997   6.963 -0.7952 -0.1456  2.4701
 3881SOL     OW12341   1.334   2.667   1.445  0.2502 -0.8176 -0.2934
 3881SOL    HW112342   1.368   2.586   1.408  2.4104 -0.2480  0.3210
 3881SOL    HW212343   1.319   2.724   1.369  2.4878 -0.4508 -0.5127
 3882SOL     OW12344   2.713   4.518   1.986  0.1842  0.4211  0.1335
 3882SOL    HW112345   2.736   4.600   1.941 -0.5586  0.6910  0.2354
 3882SOL    HW212346   2.623   4.500   1.959 -0.1003  0.3130  1.1135
 3883SOL     OW12347   3.876   6.001   5.759 -0.0061  0.4861 -0.0846
 3883SOL    HW112348   3.937   6.075   5.758  0.5706  0.0304  0.4283
 3883SOL    HW212349   3.844   5.999   5.849 -0.3036  0.3353 -0.1945
 3884SOL     OW12350   7.574   1.580   2.513 -0.8631 -0.4964 -0.9745
 3884SOL    HW112351   7.480   1.593   2.524 -0.3353  2.0799  2.0208
 3884SOL    HW212352   7.604   1.655   2.462 -0.1493  0.2055  0.4053
 3885SOL     OW12353   7.231   2.963   1.620 -0.1368  0.0265 -0.0078
 3885SOL    HW112354   7.253   2.898   1.686  0.4666  1.2891  1.0824
 3885SOL    HW212355   7.311   2.975   1.569 -0.3843 -0.3975 -0.5148
 3886SOL     OW12356   7.576   2.193   0.050 -0.1139  0.1198 -0.3090
 3886SOL    HW112357   7.631   2.130   0.096  0.4790  0.7206 -0.1873
 3886SOL    HW212358   7.542   2.144  -0.025  0.1234 -0.4183 -0.0726
 3887SOL     OW12359   1.589   7.903   2.057 -0.3449  0.2593  0.2027
 3887SOL    HW112360   1.566   7.991   2.088  0.6431  0.5458  0.1592
 3887SOL    HW212361   1.576   7.907   1.962 -1.0764  0.1056  0.2911
 3888SOL     OW12362   2.561   5.876   6.535 -0.7196  0.0320  0.2339
 3888SOL    HW112363   2.482   5.930   6.532  0.1877  1.3634 -0.6355
 3888SOL    HW212364   2.577   5.852   6.444  0.4307  0.6388  0.2565
 3889SOL     OW12365   0.528   3.524   0.186 -0.4839 -0.0748 -0.2216
 3889SOL    HW112366   0.588   3.559   0.120 -1.3263 -0.3117 -1.1417
 3889SOL    HW212367   0.462   3.476   0.136 -0.1057 -1.8711  0.9344
 3890SOL     OW12368   4.746   7.779   3.363  0.4282 -1.0097 -0.2736
 3890SOL    HW112369   4.826   7.812   3.403 -0.0526 -0.2520  0.0863
 3890SOL    HW212370   4.713   7.852   3.311 -0.1736 -1.2248 -0.1998
 3891SOL     OW12371   6.751   2.970   6.803  0.3878 -0.0922 -0.1444
 3891SOL    HW112372   6.681   2.998   6.862 -0.3716 -1.2379 -0.4725
 3891SOL    HW212373   6.710   2.905   6.746  1.1421  0.8308 -1.8095
 3892SOL     OW12374   3.993   2.319   5.613 -0.4524  0.1883  0.2860
 3892SOL    HW112375   3.929   2.279   5.554  0.3953  0.4200 -0.8139
 3892SOL    HW212376   4.077   2.283   5.584 -0.1227 -0.7376  2.2113
 3893SOL     OW12377   7.427   5.501   3.002 -0.0413  0.4793 -0.6666
 3893SOL    HW112378   7.462   5.581   3.039  0.0945 -0.0232  0.3268
 3893SOL    HW212379   7.389   5.455   3.077 -0.4296 -0.2156 -1.2804
 3894SOL     OW12380   5.378   5.778   7.894  0.3036 -0.2607 -0.3205
 3894SOL    HW112381   5.389   5.757   7.987  1.3308  0.2470 -0.3066
 3894SOL    HW212382   5.314   5.714   7.862 -1.9693  1.1173  1.2584
 3895SOL     OW12383   1.349   0.460   2.188 -0.3373 -0.1011 -0.6347
 3895SOL    HW112384   1.328   0.475   2.096  0.7586 -0.8738 -1.0329
 3895SOL    HW212385   1.297   0.526   2.236 -1.2114  0.0558 -1.7615
 3896SOL     OW12386   5.448   7.347   1.194 -0.1369  0.5395 -0.6228
 3896SOL    HW112387   5.357   7.324   1.215  0.1753  1.4576  2.1557
 3896SOL    HW212388   5.467   7.298   1.113 -2.6799 -0.6482 -0.6147
 3897SOL     OW12389   5.913   3.631   3.319 -0.0797  0.0404  0.1619
 3897SOL    HW112390   5.852   3.564   3.289  1.0438 -1.1187  0.3565
 3897SOL    HW212391   5.945   3.599   3.403 -0.1764  1.2746  0.6934
 3898SOL     OW12392   3.793   1.725   1.533  0.1148 -0.2921 -0.0041
 3898SOL    HW112393   3.697   1.721   1.538  0.1450 -0.0712  1.1342
 3898SOL    HW212394   3.821   1.732   1.625  1.1051  2.3116 -0.4327
 3899SOL     OW12395   2.542   5.242   2.178 -0.1942 -0.2508 -0.3862
 3899SOL    HW112396   2.510   5.294   2.104  0.7459 -1.4625 -1.7045
 3899SOL    HW212397   2.463   5.207   2.219 -0.7624  1.0298 -0.3656
 3900SOL     OW12398   4.517   1.165   7.837  0.1245  0.2957 -0.6082
 3900SOL    HW112399   4.487   1.210   7.758  0.3132 -1.3346 -1.6632
 3900SOL    HW212400   4.452   1.096   7.851  0.7978 -0.2531 -0.1238
 3901SOL     OW12401   7.120   2.486   4.417  0.5003  0.0018  0.4280
 3901SOL    HW112402   7.040   2.510   4.372  1.3130  0.1939 -0.9819
 3901SOL    HW212403   7.096   2.410   4.470 -1.0727  1.2861  1.6418
 3902SOL     OW12404   5.908   6.440   2.708  0.0094 -0.0993 -0.3449
 3902SOL    HW112405   5.931   6.387   2.784 -2.1290 -0.4088  0.1602
 3902SOL    HW212406   5.978   6.504   2.700  1.2759 -1.3113  0.6760
 3903SOL     OW12407   5.795   7.746   6.383 -0.8480  0.1206  0.4733
 3903SOL    HW112408   5.790   7.749   6.479  0.3567 -0.2422  0.5735
 3903SOL    HW212409   5.863   7.681   6.365 -2.0581 -0.8833 -0.6780
 3904SOL     OW12410   5.141   3.219   3.520 -0.3242  0.0213 -0.3090
 3904SOL    HW112411   5.072   3.284   3.532  0.0935  0.2135  1.4579
 3904SOL    HW212412   5.142   3.171   3.603  1.6957  0.0950 -0.2386
 3905SOL     OW12413   4.172   4.666   2.681  0.3286  0.1899  0.1714
 3905SOL    HW112414   4.208   4.687   2.595  0.1954 -2.0856 -0.5110
 3905SOL    HW212415   4.096   4.724   2.690  1.7103  2.1692 -0.1224
 3906SOL     OW12416   6.042   1.016   5.213  0.0870  0.3325 -0.5732
 3906SOL    HW112417   6.015   0.946   5.153 -1.6650  1.0606 -0.6703
 3906SOL    HW212418   5.969   1.024   5.274  0.1365  2.2806 -0.7358
 3907SOL     OW12419   3.521   0.342   2.703  0.5992  0.4421 -0.2378
 3907SOL    HW112420   3.551   0.274   2.643 -1.0318 -1.8398  1.3808
 3907SOL    HW212421   3.434   0.314   2.730  0.6828  2.1283  2.0791
 3908SOL     OW12422   1.104   7.254   1.978  0.6123 -0.1259  0.1783
 3908SOL    HW112423   1.117   7.238   2.072  0.4028 -0.7438  0.1064
 3908SOL    HW212424   1.161   7.328   1.958  1.0935 -0.3573  0.6751
 3909SOL     OW12425   3.824   4.736   4.378  0.5258 -0.2918 -0.1681
 3909SOL    HW112426   3.756   4.722   4.443  0.6777 -1.2282 -0.2014
 3909SOL    HW212427   3.802   4.676   4.306  0.4498  0.6051 -0.9145
 3910SOL     OW12428   3.009   2.990   6.819  0.3293  0.1932  0.6565
 3910SOL    HW112429   3.015   3.073   6.867  0.6529 -0.2221  1.3594
 3910SOL    HW212430   3.042   3.010   6.732  0.3715  0.8172  0.8125
 3911SOL     OW12431   6.837   1.397   3.972 -0.1556  0.3108  0.2016
 3911SOL    HW112432   6.769   1.348   4.019  0.3756 -0.2980  0.3552
 3911SOL    HW212433   6.850   1.346   3.891 -1.3616  1.5704 -0.8380
 3912SOL     OW12434   2.417   1.375   5.619 -0.7449  0.3797  0.1063
 3912SOL    HW112435   2.411   1.409   5.708  0.3189  2.0880 -0.4315
 3912SOL    HW212436   2.412   1.452   5.563 -4.8987 -0.8512 -1.5878
 3913SOL     OW12437   0.527   0.491   3.794  0.1652 -0.3510 -0.1688
 3913SOL    HW112438   0.505   0.455   3.880 -1.0800 -0.2824 -0.4396
 3913SOL    HW212439   0.443   0.500   3.750  0.5610  1.6058 -0.6147
 3914SOL     OW12440   0.650   6.289   1.033 -0.3663 -0.4755 -0.4515
 3914SOL    HW112441   0.571   6.315   1.079  0.0640  0.5860 -0.2780
 3914SOL    HW212442   0.699   6.371   1.020  0.4049 -1.0164 -1.1106
 3915SOL     OW12443   2.982   3.851   7.556  0.2647  0.3839 -0.1141
 3915SOL    HW112444   2.961   3.942   7.535  0.5699  0.4685 -0.0662
 3915SOL    HW212445   2.964   3.843   7.649 -0.2470  0.2539 -0.2225
 3916SOL     OW12446   4.121   5.676   7.501  0.2756 -0.3960 -0.3619
 3916SOL    HW112447   4.037   5.654   7.461 -0.5350  2.4754 -0.4957
 3916SOL    HW212448   4.104   5.674   7.595  0.0849  0.0652 -0.3855
 3917SOL     OW12449   3.548   3.781   2.044  0.2497 -0.3925 -0.1211
 3917SOL    HW112450   3.469   3.761   1.994  0.3719 -0.4078 -0.3072
 3917SOL    HW212451   3.538   3.730   2.125 -0.4741  0.4832  0.3681
 3918SOL     OW12452   6.532   2.918   7.757 -0.0927  0.3746  0.7545
 3918SOL    HW112453   6.517   2.851   7.824 -1.0090  0.8907  1.0870
 3918SOL    HW212454   6.481   2.993   7.787 -0.2815  0.7140 -0.3862
 3919SOL     OW12455   4.504   4.617   1.947 -0.2859  0.5400 -0.1734
 3919SOL    HW112456   4.535   4.558   2.016 -1.9285  0.3927  0.4840
 3919SOL    HW212457   4.575   4.680   1.936  1.0607 -0.9036 -0.1360
 3920SOL     OW12458   1.662   4.782   5.302 -0.7195  0.5271  0.0091
 3920SOL    HW112459   1.739   4.798   5.357 -0.5764  1.2771 -0.4022
 3920SOL    HW212460   1.674   4.840   5.227 -1.3926  0.2068 -0.3497
 3921SOL     OW12461   3.503   3.598   0.080 -0.1318 -0.1706 -0.6093
 3921SOL    HW112462   3.431   3.572   0.022 -0.8582 -1.0451  0.6372
 3921SOL    HW212463   3.476   3.568   0.167  0.0686  2.7083  0.5592
 3922SOL     OW12464   0.524   3.122   5.489 -0.2412  0.0663 -0.4078
 3922SOL    HW112465   0.431   3.133   5.506 -0.2639  0.0593 -0.5275
 3922SOL    HW212466   0.553   3.057   5.553 -0.7613 -1.5653 -1.7314
 3923SOL     OW12467   6.689   0.981   1.818 -0.4741 -0.1014  0.1702
 3923SOL    HW112468   6.670   0.963   1.726  0.7324 -0.1332 -0.0868
 3923SOL    HW212469   6.666   0.899   1.863 -1.2219 -0.0313 -0.0668
 3924SOL     OW12470   5.072   1.557   4.759  0.0349 -0.2518 -0.0788
 3924SOL    HW112471   5.115   1.617   4.820 -1.7019  0.5106  0.4784
 3924SOL    HW212472   5.093   1.592   4.672  0.5501  0.0741  0.1714
 3925SOL     OW12473   0.628   3.717   0.580  0.2024  0.5023 -0.0254
 3925SOL    HW112474   0.609   3.634   0.537  0.1206 -0.1428  1.2179
 3925SOL    HW212475   0.542   3.754   0.601  0.2249  1.1675 -1.0328
 3926SOL     OW12476   2.033   7.651   4.330  0.0062 -0.0200  0.4045
 3926SOL    HW112477   2.116   7.670   4.373 -0.6112 -0.8968  2.0797
 3926SOL    HW212478   1.969   7.647   4.402 -1.4432  0.3594 -0.8110
 3927SOL     OW12479   2.873   7.757   6.111 -0.1668 -0.2730  0.3209
 3927SOL    HW112480   2.882   7.699   6.035 -0.3252 -2.4709  1.8970
 3927SOL    HW212481   2.962   7.787   6.129  0.3271 -1.9766  0.8931
 3928SOL     OW12482   5.158   2.102   3.051  0.1795 -0.2411  0.5615
 3928SOL    HW112483   5.251   2.091   3.072  0.7405 -0.3092 -1.7210
 3928SOL    HW212484   5.150   2.068   2.962 -2.1368 -0.5839  0.8547
 3929SOL     OW12485   6.911   3.635   0.205 -0.1187  0.2553 -0.0729
 3929SOL    HW112486   6.942   3.666   0.290  1.4399 -1.3783  0.0086
 3929SOL    HW212487   6.826   3.594   0.223  1.5143 -2.7683  1.3326
 3930SOL     OW12488   2.895   6.877   5.633 -0.2303  0.4237 -0.1454
 3930SOL    HW112489   2.841   6.800   5.618  0.4983 -0.2555  0.6451
 3930SOL    HW212490   2.863   6.941   5.569 -2.4373  0.3113  0.7546
 3931SOL     OW12491   2.947   5.049   4.214 -0.3760 -0.1208  0.0827
 3931SOL    HW112492   2.894   5.083   4.286  0.0294  0.3506  0.1654
 3931SOL    HW212493   2.937   5.113   4.144  1.1197  0.6869  0.5557
 3932SOL     OW12494   1.086   2.542   0.093 -0.4294  0.0781  0.5557
 3932SOL    HW112495   1.114   2.467   0.041 -2.1245 -0.5691  0.5304
 3932SOL    HW212496   1.010   2.576   0.047  0.0582  1.5923  0.7901
 3933SOL     OW12497   3.552   2.235   6.789 -0.4849 -0.2273 -0.8643
 3933SOL    HW112498   3.541   2.249   6.883 -0.0824  2.3162 -1.1413
 3933SOL    HW212499   3.470   2.193   6.761 -0.4590 -1.3571  0.6363
 3934SOL     OW12500   3.216   5.292   5.800  0.4979 -0.2595 -0.4837
 3934SOL    HW112501   3.138   5.316   5.750  1.1811  0.1139 -1.3979
 3934SOL    HW212502   3.225   5.360   5.866 -0.1798 -0.5283 -0.1130
 3935SOL     OW12503   4.066   0.999   4.793  0.1651  0.3837  0.2355
 3935SOL    HW112504   4.053   1.045   4.710  1.4134  0.3415 -0.0004
 3935SOL    HW212505   4.002   1.038   4.852 -0.8452  0.3126 -0.7796
 3936SOL     OW12506   4.225   1.284   3.479  0.3617  0.3216  0.5139
 3936SOL    HW112507   4.267   1.351   3.533  0.6137  1.0727 -0.5795
 3936SOL    HW212508   4.192   1.332   3.403  0.1692 -0.7405 -0.0868
 3937SOL     OW12509   3.468   7.544   4.990 -0.0237  0.3987 -0.0740
 3937SOL    HW112510   3.523   7.484   4.941 -1.6733 -1.1514 -0.1738
 3937SOL    HW212511   3.431   7.603   4.924 -0.2809 -0.0628 -0.3499
 3938SOL     OW12512   3.022   2.152   0.567  0.0435  0.2138 -0.7908
 3938SOL    HW112513   3.013   2.085   0.634 -0.9778  1.1924  0.1050
 3938SOL    HW212514   3.116   2.162   0.555  0.2266 -1.9423 -1.5688
 3939SOL     OW12515   5.237   4.961   3.072 -0.3027  0.2631  0.3827
 3939SOL    HW112516   5.329   4.936   3.065 -0.3142 -0.3364  2.0368
 3939SOL    HW212517   5.225   5.025   3.002  1.1887 -0.1407 -0.2926
 3940SOL     OW12518   3.327   5.546   7.022  0.8962  0.4091 -0.0873
 3940SOL    HW112519   3.292   5.627   6.985  0.2512  0.7284  1.1830
 3940SOL    HW212520   3.363   5.499   6.946 -0.3130  1.0734 -1.1183
 3941SOL     OW12521   7.424   4.470   5.131  0.1956  0.4085  0.0794
 3941SOL    HW112522   7.492   4.501   5.072 -0.2877  0.2334 -0.5771
 3941SOL    HW212523   7.386   4.394   5.088  0.0907  0.0415  0.7921
 3942SOL     OW12524   6.896   6.647   3.342  0.5316  0.3476 -0.3669
 3942SOL    HW112525   6.925   6.641   3.433 -1.5251  1.9182  0.4735
 3942SOL    HW212526   6.828   6.581   3.334  1.6781 -0.7793 -1.2391
 3943SOL     OW12527   1.565   4.974   2.076  0.4424  0.0809 -0.3276
 3943SOL    HW112528   1.549   4.894   2.127  0.1377  0.3523  0.0023
 3943SOL    HW212529   1.540   5.045   2.134  0.8761  0.4283 -0.5600
 3944SOL     OW12530   1.069   6.993   1.910  0.0778  0.8872 -0.4880
 3944SOL    HW112531   1.163   6.971   1.911  0.1884  1.3710  0.2815
 3944SOL    HW212532   1.067   7.087   1.925 -0.5344  0.8899 -0.5923
 3945SOL     OW12533   7.942   3.463   1.223  0.2729  0.6037  0.4549
 3945SOL    HW112534   7.973   3.553   1.235 -0.6927  1.1107 -0.7065
 3945SOL    HW212535   7.946   3.449   1.128  0.2993 -0.5519  0.6111
 3946SOL     OW12536   6.812   2.081   2.048  0.4480  0.0350 -0.8287
 3946SOL    HW112537   6.755   2.022   2.096  0.8760 -0.0983 -0.4770
 3946SOL    HW212538   6.754   2.149   2.014  0.4693  2.1091  2.7410
 3947SOL     OW12539   6.441   5.159   1.015  0.2695 -0.1252  0.7604
 3947SOL    HW112540   6.508   5.161   1.083 -0.3859 -1.0026  1.4537
 3947SOL    HW212541   6.480   5.206   0.942  0.2920  2.5949  2.3581
 3948SOL     OW12542   2.234   7.386   2.328 -0.0481 -0.4897 -0.1635
 3948SOL    HW112543   2.160   7.370   2.270 -0.0616 -0.7363 -0.0796
 3948SOL    HW212544   2.222   7.475   2.359 -1.0420 -0.9753  0.9116
 3949SOL     OW12545   7.553   5.317   5.415 -0.9728 -0.1219  0.1867
 3949SOL    HW112546   7.470   5.270   5.427 -0.9175  0.1539  1.7201
 3949SOL    HW212547   7.616   5.270   5.471 -0.4319  0.5468  0.1526
 3950SOL     OW12548   0.518   0.964   7.167  0.3492  0.1381 -0.2216
 3950SOL    HW112549   0.612   0.956   7.155  0.2624 -0.5921 -0.4845
 3950SOL    HW212550   0.486   0.874   7.171 -0.6142  0.2962 -2.4928
 3951SOL     OW12551   1.259   2.199   2.516  0.3981  0.1688 -0.4231
 3951SOL    HW112552   1.274   2.293   2.508  1.1234  0.2243  1.0975
 3951SOL    HW212553   1.346   2.161   2.501  0.9213  0.0363  2.4139
 3952SOL     OW12554   3.508   0.771   2.225  0.1714 -0.0722  0.7347
 3952SOL    HW112555   3.437   0.774   2.161  1.0309  1.8020 -0.2033
 3952SOL    HW212556   3.488   0.841   2.287  2.3472  2.1811 -0.9200
 3953SOL     OW12557   5.276   2.820   1.548  0.6871 -0.1184 -0.1355
 3953SOL    HW112558   5.272   2.887   1.479  1.9043  0.3101  0.1838
 3953SOL    HW212559   5.194   2.772   1.540 -0.1874  1.3738 -0.4167
 3954SOL     OW12560   5.026   1.095   5.801 -0.0119  0.1856  0.1100
 3954SOL    HW112561   5.008   1.101   5.707  1.2958 -1.8271 -0.3358
 3954SOL    HW212562   5.093   1.027   5.808 -1.8502 -1.5189  2.7221
 3955SOL     OW12563   1.437   1.083   7.651 -0.1489  0.4298 -0.3256
 3955SOL    HW112564   1.469   1.148   7.713 -0.5337  2.1883 -1.8840
 3955SOL    HW212565   1.342   1.096   7.649 -0.3144 -0.6466 -0.1724
 3956SOL     OW12566   7.959   1.618   3.404  0.2160 -0.3391 -0.7495
 3956SOL    HW112567   7.890   1.560   3.371 -0.0376  0.1824 -1.1505
 3956SOL    HW212568   7.989   1.666   3.327 -1.6437  2.2376 -0.0313
 3957SOL     OW12569   0.331   6.831   3.530 -0.1708 -0.0798  0.2161
 3957SOL    HW112570   0.252   6.788   3.496  0.2407 -2.6041  2.2329
 3957SOL    HW212571   0.299   6.916   3.563 -2.0580 -0.9961  0.9132
 3958SOL     OW12572   4.641   4.878   3.875 -0.8361 -0.4374 -0.4342
 3958SOL    HW112573   4.706   4.837   3.818 -0.7758 -1.8060  0.5563
 3958SOL    HW212574   4.559   4.837   3.850 -1.0081 -0.1279 -0.3769
 3959SOL     OW12575   4.336   5.361   4.081 -0.5343  0.4632 -0.1436
 3959SOL    HW112576   4.327   5.368   3.986 -0.8442 -0.9392 -0.2451
 3959SOL    HW212577   4.319   5.449   4.114 -2.5106  0.5350 -1.2419
 3960SOL     OW12578   2.020   2.574   2.078  0.5004 -0.2805 -0.3581
 3960SOL    HW112579   2.053   2.660   2.102  1.0457 -0.3385 -0.8954
 3960SOL    HW212580   2.081   2.512   2.118  0.1124 -0.4242  0.0237
 3961SOL     OW12581   0.793   5.306   4.688 -0.2757  0.4101 -0.3817
 3961SOL    HW112582   0.878   5.267   4.667 -0.2549  0.8398 -1.1026
 3961SOL    HW212583   0.747   5.238   4.738  0.6211  0.3001  0.3155
 3962SOL     OW12584   0.409   7.777   4.233 -0.0260 -0.0592  0.1576
 3962SOL    HW112585   0.495   7.783   4.193 -0.2927  2.1362 -0.2026
 3962SOL    HW212586   0.393   7.683   4.242  2.2291 -0.5160 -0.0927
 3963SOL     OW12587   5.871   5.137   0.161  0.2007 -0.2322  0.0973
 3963SOL    HW112588   5.957   5.117   0.126 -0.1637 -0.6353 -0.5929
 3963SOL    HW212589   5.810   5.090   0.104 -0.4383 -0.5454  1.0127
 3964SOL     OW12590   7.188   2.087   7.022  0.5500 -0.3795 -0.2868
 3964SOL    HW112591   7.132   2.159   7.051 -2.6254 -1.7766 -2.3691
 3964SOL    HW212592   7.170   2.016   7.084 -0.2641 -0.9262 -1.1314
 3965SOL     OW12593   5.809   5.631   5.310  0.1811  0.5995 -0.5318
 3965SOL    HW112594   5.883   5.571   5.307  0.3727  0.6257  2.0707
 3965SOL    HW212595   5.789   5.649   5.218  1.7811 -1.3662 -1.3180
 3966SOL     OW12596   5.039   1.658   0.709 -0.1544 -0.0937 -0.2420
 3966SOL    HW112597   5.035   1.713   0.630  0.5340  1.2830  0.6254
 3966SOL    HW212598   5.105   1.702   0.764 -1.4819 -0.3192  1.6036
 3967SOL     OW12599   3.309   4.389   0.756 -0.4749 -0.3446  0.3631
 3967SOL    HW112600   3.324   4.483   0.752 -0.5663 -0.3446  0.0402
 3967SOL    HW212601   3.220   4.377   0.723 -0.0146 -0.6645 -0.8097
 3968SOL     OW12602   0.509   1.209   6.378  0.1212  0.2520 -0.2109
 3968SOL    HW112603   0.539   1.288   6.332  0.5263  0.9542  1.1994
 3968SOL    HW212604   0.562   1.207   6.458 -0.3177 -1.1285  0.0637
 3969SOL     OW12605   2.781   1.273   5.115 -0.0843  0.2488  0.1259
 3969SOL    HW112606   2.758   1.180   5.115 -0.4517  0.3316  1.1632
 3969SOL    HW212607   2.717   1.314   5.172 -0.2394  1.2334 -0.7206
 3970SOL     OW12608   4.984   7.943   0.759 -0.4619  0.0176  1.1053
 3970SOL    HW112609   4.922   7.877   0.791  0.4297 -0.3617  2.1352
 3970SOL    HW212610   5.069   7.898   0.759 -0.1482  0.5719 -0.1244
 3971SOL     OW12611   4.156   6.551   1.028  0.3454 -0.1683 -0.0308
 3971SOL    HW112612   4.239   6.584   1.063  0.1896 -0.1547  0.3307
 3971SOL    HW212613   4.169   6.549   0.933  0.0773  1.7379 -0.1429
 3972SOL     OW12614   7.609   7.613   6.900 -0.3262  0.1542  0.0900
 3972SOL    HW112615   7.564   7.536   6.865 -1.3353  0.2386  1.1410
 3972SOL    HW212616   7.554   7.687   6.874 -0.8187  0.2606  1.3413
 3973SOL     OW12617   2.103   4.228   7.269 -0.2065 -0.1670  0.7487
 3973SOL    HW112618   2.196   4.252   7.267 -0.0828 -0.6849 -0.1099
 3973SOL    HW212619   2.088   4.202   7.360 -0.1911  2.4253  1.5775
 3974SOL     OW12620   7.053   0.068   2.451  0.3059 -0.2604 -0.0811
 3974SOL    HW112621   7.120   0.103   2.510  1.1067  0.6077 -1.4477
 3974SOL    HW212622   7.082   0.095   2.364 -1.7390 -0.0394 -0.7358
 3975SOL     OW12623   0.415   2.121   4.646  0.0040 -0.3028  0.0866
 3975SOL    HW112624   0.476   2.052   4.671 -0.0975 -0.5995 -0.4796
 3975SOL    HW212625   0.426   2.188   4.714  0.6240 -0.5534  0.2393
 3976SOL     OW12626   0.039   6.703   2.435  0.0028  0.0671 -0.0449
 3976SOL    HW112627  -0.009   6.738   2.510  0.0404  2.5471 -1.0889
 3976SOL    HW212628   0.116   6.759   2.427 -0.6191  0.6900 -2.6395
 3977SOL     OW12629   6.094   7.574   4.807 -0.0068 -0.0338  0.0119
 3977SOL    HW112630   6.187   7.596   4.803  0.4471 -1.9787 -1.4226
 3977SOL    HW212631   6.059   7.602   4.723 -0.4295 -0.4708  0.0386
 3978SOL     OW12632   1.753   4.020   6.516  0.1567 -0.3412  0.1315
 3978SOL    HW112633   1.691   4.074   6.468  0.3185 -0.8475 -0.6550
 3978SOL    HW212634   1.820   4.082   6.546  0.3567 -0.1066 -0.7896
 3979SOL     OW12635   2.455   7.253   2.556  0.7945  0.3576 -0.1410
 3979SOL    HW112636   2.419   7.200   2.485  0.4356 -0.5325  0.6830
 3979SOL    HW212637   2.480   7.190   2.623  0.3123  1.2294  0.8903
 3980SOL     OW12638   3.221   1.689   6.505 -0.1653  0.0733  0.5936
 3980SOL    HW112639   3.208   1.760   6.443  1.8432  0.3176  0.3709
 3980SOL    HW212640   3.212   1.609   6.453  3.2769  0.2768 -0.5637
 3981SOL     OW12641   2.585   6.941   1.517 -0.2561 -0.0740  0.3429
 3981SOL    HW112642   2.640   6.863   1.507  0.7278  0.7894 -1.4726
 3981SOL    HW212643   2.507   6.922   1.466  0.4732  0.5175 -1.0458
 3982SOL     OW12644   6.123   2.400   2.849  0.8229  0.1848  0.3034
 3982SOL    HW112645   6.066   2.422   2.775 -0.3754 -0.2204  1.0883
 3982SOL    HW212646   6.120   2.305   2.854 -0.7842  0.2833  2.1406
 3983SOL     OW12647   6.206   4.850   4.477  0.2172 -0.5176 -0.6235
 3983SOL    HW112648   6.183   4.939   4.504  0.0496 -0.9178  0.6239
 3983SOL    HW212649   6.217   4.802   4.560 -0.8711 -1.9459 -1.2664
 3984SOL     OW12650   2.009   1.357   6.063  0.2632  0.1424 -0.4150
 3984SOL    HW112651   1.964   1.441   6.072 -2.3639 -1.3366  1.3364
 3984SOL    HW212652   1.967   1.314   5.989  1.1054  0.0576 -0.8590
 3985SOL     OW12653   1.500   0.703   3.744 -0.1139 -0.2509  0.0867
 3985SOL    HW112654   1.439   0.657   3.687 -0.7317 -0.5738  0.9812
 3985SOL    HW212655   1.486   0.665   3.830  0.7582  0.2637  0.4766
 3986SOL     OW12656   3.953   5.685   2.678 -0.2843  0.3984  0.5507
 3986SOL    HW112657   4.003   5.608   2.705  0.4052  1.2603  1.8244
 3986SOL    HW212658   3.984   5.756   2.735 -0.8568  1.6440 -0.6231
 3987SOL     OW12659   4.814   2.083   0.304 -0.0953  0.1415  0.4507
 3987SOL    HW112660   4.753   2.096   0.377  0.9870  1.3428  1.1907
 3987SOL    HW212661   4.884   2.146   0.320  0.9326 -0.6226 -0.8296
 3988SOL     OW12662   0.020   2.574   5.780 -0.0750 -0.3791 -0.3088
 3988SOL    HW112663   0.029   2.481   5.800  1.0189 -0.4483 -1.0346
 3988SOL    HW212664  -0.059   2.579   5.725  0.4452 -1.0392 -1.1485
 3989SOL     OW12665   7.420   3.982   3.267 -0.2055  0.5550  0.4255
 3989SOL    HW112666   7.375   4.066   3.262  2.3602  1.9928 -0.3539
 3989SOL    HW212667   7.350   3.917   3.266 -2.2322  2.6091 -0.5631
 3990SOL     OW12668   0.070   2.364   4.292 -0.5667 -0.1919  0.4897
 3990SOL    HW112669  -0.008   2.316   4.318 -1.6487  1.3743  0.2592
 3990SOL    HW212670   0.095   2.325   4.208 -2.5844  0.8545 -0.6786
 3991SOL     OW12671   2.183   2.194   6.797  0.3946 -0.1473 -0.3857
 3991SOL    HW112672   2.262   2.148   6.825  1.7440  2.2140 -0.0046
 3991SOL    HW212673   2.202   2.221   6.707  0.5130  1.3401  0.0578
 3992SOL     OW12674   3.908   4.441   4.691  0.1450 -0.1063 -0.3724
 3992SOL    HW112675   3.959   4.463   4.613  0.6775  0.4493  0.1172
 3992SOL    HW212676   3.890   4.526   4.732 -1.1282 -0.2990 -0.5032
 3993SOL     OW12677   2.396   5.038   5.443  0.1571  0.3971 -0.3046
 3993SOL    HW112678   2.443   5.111   5.484 -1.7844  0.1665  2.6415
 3993SOL    HW212679   2.311   5.075   5.420 -0.5444 -0.7028  0.4465
 3994SOL     OW12680   6.876   0.778   6.886  0.6925 -0.5263 -0.5357
 3994SOL    HW112681   6.913   0.762   6.799  2.9923 -1.0317  0.4491
 3994SOL    HW212682   6.851   0.870   6.885 -2.3327 -1.1926 -2.6892
 3995SOL     OW12683   2.821   5.168   1.821 -0.1724 -0.4495  0.3483
 3995SOL    HW112684   2.812   5.255   1.783 -0.9068 -0.3013  0.8259
 3995SOL    HW212685   2.911   5.163   1.851  0.2138 -0.3108 -0.7583
 3996SOL     OW12686   5.450   5.124   0.629 -0.0229  0.2437 -0.5681
 3996SOL    HW112687   5.478   5.097   0.716  0.5025  0.3044 -0.7115
 3996SOL    HW212688   5.463   5.219   0.628 -1.6730  0.4947 -0.1340
 3997SOL     OW12689   1.271   1.503   0.108  0.1285 -0.1597  0.1769
 3997SOL    HW112690   1.187   1.527   0.147 -0.3614 -0.1009 -0.8703
 3997SOL    HW212691   1.250   1.480   0.017  1.0935 -1.1621  0.1791
 3998SOL     OW12692   6.875   7.375   3.312 -0.2700 -0.2944 -0.1011
 3998SOL    HW112693   6.803   7.384   3.249 -0.0548  0.4615 -0.2495
 3998SOL    HW212694   6.953   7.404   3.264 -0.1130  0.3533  0.5244
 3999SOL     OW12695   1.613   4.065   2.048  0.5338 -0.1150  0.5591
 3999SOL    HW112696   1.563   4.068   2.130  1.2639  1.5506  0.9825
 3999SOL    HW212697   1.704   4.074   2.075  0.8246 -0.0405 -0.4125
 4000SOL     OW12698   2.167   0.846   3.877  0.6541 -0.1779 -0.6555
 4000SOL    HW112699   2.169   0.803   3.792 -2.8098 -0.3543 -0.7949
 4000SOL    HW212700   2.092   0.807   3.922  1.3824  1.0881  1.8570
 4001SOL     OW12701   1.379   3.719   6.736  0.4477  0.8950  0.1524
 4001SOL    HW112702   1.463   3.734   6.693  0.2000 -0.4650 -0.8864
 4001SOL    HW212703   1.348   3.806   6.760  1.4198  1.5449 -0.8689
 4002SOL     OW12704   3.009   7.320   7.410  0.1037  0.1779 -0.0251
 4002SOL    HW112705   3.022   7.367   7.328  0.2868  1.0046  0.4697
 4002SOL    HW212706   3.043   7.379   7.478 -1.8442  0.3839  0.8440
 4003SOL     OW12707   4.522   2.116   5.867  0.5915 -0.9875  0.1365
 4003SOL    HW112708   4.615   2.095   5.864  0.9730  0.5696  0.0028
 4003SOL    HW212709   4.479   2.033   5.886  1.9994 -1.7391  0.1796
 4004SOL     OW12710   0.946   3.969   4.471  0.2787 -0.1746 -0.2542
 4004SOL    HW112711   1.001   4.037   4.433  0.0890 -0.4721 -1.0742
 4004SOL    HW212712   0.943   3.900   4.404 -2.3594  0.4958 -0.9174
 4005SOL     OW12713   4.138   7.045   2.967  0.4653  0.1557  0.0423
 4005SOL    HW112714   4.064   7.003   2.922 -0.4283  0.6829  0.9589
 4005SOL    HW212715   4.105   7.132   2.990  1.5676  0.5890  0.0125
 4006SOL     OW12716   5.711   3.521   7.415 -0.1846  0.2802  0.4654
 4006SOL    HW112717   5.665   3.457   7.468 -2.8506  1.1049 -0.7099
 4006SOL    HW212718   5.803   3.512   7.441 -0.8398 -2.0577  2.2882
 4007SOL     OW12719   7.374   1.960   6.679 -0.3773  0.7062 -0.1509
 4007SOL    HW112720   7.330   1.980   6.596 -1.2182  0.0335  0.1111
 4007SOL    HW212721   7.302   1.951   6.741  0.0335 -1.4487  0.0841
 4008SOL     OW12722   5.078   4.459   5.292  0.2626 -0.1814  0.1685
 4008SOL    HW112723   5.173   4.446   5.301 -0.0725 -3.3654  0.2243
 4008SOL    HW212724   5.067   4.492   5.202  1.4172  0.7022  0.3249
 4009SOL     OW12725   3.718   6.909   6.671 -0.1661 -0.6404  0.2865
 4009SOL    HW112726   3.791   6.935   6.727  0.0053 -1.1285  0.2936
 4009SOL    HW212727   3.713   6.813   6.681 -1.3324 -0.5407  0.9501
 4010SOL     OW12728   1.848   4.023   6.908  0.2370 -0.0498 -0.3603
 4010SOL    HW112729   1.753   4.035   6.903  0.3505  1.6678  0.9704
 4010SOL    HW212730   1.858   3.940   6.955 -0.6884  1.4157  2.6905
 4011SOL     OW12731   3.780   7.015   2.455 -0.3347 -0.0636 -0.0801
 4011SOL    HW112732   3.811   6.950   2.517 -1.2909 -0.0450  0.4253
 4011SOL    HW212733   3.722   7.072   2.505  1.4368  1.9842 -0.1800
 4012SOL     OW12734   6.623   2.459   7.381  0.0676 -0.1705  0.1911
 4012SOL    HW112735   6.582   2.392   7.328  2.6354 -1.3805 -0.4350
 4012SOL    HW212736   6.578   2.540   7.358 -1.5075 -1.2991 -0.8218
 4013SOL     OW12737   1.581   6.513   2.546  0.0045  0.0308 -0.0779
 4013SOL    HW112738   1.576   6.430   2.499  0.1063 -0.9299  1.5382
 4013SOL    HW212739   1.513   6.507   2.613  0.0046  1.2737  0.0679
 4014SOL     OW12740   4.876   2.397   4.398  0.3412  0.0018  0.3074
 4014SOL    HW112741   4.851   2.319   4.449 -1.0439  0.5438  0.4996
 4014SOL    HW212742   4.819   2.394   4.321  0.4900  0.6721  0.1697
 4015SOL     OW12743   3.853   5.171   7.175  0.0793  0.3817 -0.2813
 4015SOL    HW112744   3.800   5.132   7.244  2.2266 -1.1574  0.6200
 4015SOL    HW212745   3.791   5.220   7.121 -2.1351 -0.9547  0.9246
 4016SOL     OW12746   7.097   1.319   0.075  0.4245 -0.3793 -0.4104
 4016SOL    HW112747   7.056   1.399   0.107  0.4621 -1.0143  1.3686
 4016SOL    HW212748   7.139   1.344  -0.007  0.5063  1.4374  0.1429
 4017SOL     OW12749   0.720   4.846   2.496  0.1444 -0.5923  0.1545
 4017SOL    HW112750   0.717   4.924   2.441  2.3078  0.7116  1.7087
 4017SOL    HW212751   0.798   4.858   2.550  0.0430 -3.4253  1.1033
 4018SOL     OW12752   2.609   0.503   4.441  0.4560 -0.0281 -0.1852
 4018SOL    HW112753   2.673   0.497   4.512 -0.3633 -1.1217  0.5154
 4018SOL    HW212754   2.528   0.529   4.484  0.3309  1.0212 -1.0086
 4019SOL     OW12755   5.497   1.847   6.730 -0.5947 -0.2933  0.1516
 4019SOL    HW112756   5.537   1.788   6.666  0.1934 -0.7109  1.0117
 4019SOL    HW212757   5.551   1.925   6.727 -1.1516  0.0824 -0.3941
 4020SOL     OW12758   0.941   2.998   4.302 -0.5701 -0.1393 -0.0618
 4020SOL    HW112759   0.994   3.046   4.367 -2.3515  1.3354  0.3820
 4020SOL    HW212760   0.979   2.910   4.301  1.1242  0.5237  1.0904
 4021SOL     OW12761   3.646   2.098   2.287 -0.0669  0.1748 -0.2057
 4021SOL    HW112762   3.555   2.097   2.260 -0.5748  1.4925  1.2953
 4021SOL    HW212763   3.695   2.096   2.205 -1.3350 -2.6976 -1.0082
 4022SOL     OW12764   0.727   4.648   6.360 -0.3080  0.1316 -0.1051
 4022SOL    HW112765   0.659   4.709   6.387 -2.9370 -1.4402 -2.5173
 4022SOL    HW212766   0.732   4.659   6.265  2.6258 -0.1055 -0.0636
 4023SOL     OW12767   6.890   0.842   1.049 -0.5874  0.3399 -0.7853
 4023SOL    HW112768   6.950   0.905   1.089 -1.4647  0.4689  0.4239
 4023SOL    HW212769   6.809   0.851   1.100 -0.8813 -1.4639 -0.8517
 4024SOL     OW12770   5.636   0.052   1.596 -0.0170  0.2050  0.6549
 4024SOL    HW112771   5.594  -0.018   1.646  0.4787  0.1398  0.9938
 4024SOL    HW212772   5.679   0.008   1.523  1.1375  0.0067  1.4149
 4025SOL     OW12773   0.867   4.692   4.793  0.3032 -0.0790  0.0768
 4025SOL    HW112774   0.933   4.752   4.829 -0.7918  1.2515 -0.0527
 4025SOL    HW212775   0.820   4.744   4.729 -1.0507 -0.9211  0.3566
 4026SOL     OW12776   2.751   5.661   0.289 -0.5071 -0.2792 -0.3738
 4026SOL    HW112777   2.816   5.595   0.266  0.6384  0.8282 -0.4727
 4026SOL    HW212778   2.768   5.680   0.381  0.4511  1.1971 -0.8210
 4027SOL     OW12779   1.064   4.853   6.578  0.1540  0.4421  0.0061
 4027SOL    HW112780   1.022   4.778   6.620 -0.4902  0.7592 -0.0597
 4027SOL    HW212781   1.157   4.841   6.596  0.1828 -0.9490 -0.9232
 4028SOL     OW12782   1.533   3.279   3.918  0.1464  0.3312  0.3645
 4028SOL    HW112783   1.560   3.256   4.007 -0.3677 -0.8158  0.2368
 4028SOL    HW212784   1.543   3.198   3.868 -0.1543  0.8068 -0.4809
 4029SOL     OW12785   5.821   1.405   3.313  0.0034  0.8143  0.0121
 4029SOL    HW112786   5.800   1.386   3.222  2.0360  1.5629 -0.6498
 4029SOL    HW212787   5.907   1.367   3.327 -0.4262  0.3774  1.7672
 4030SOL     OW12788   0.512   5.811   2.799  0.0310 -0.2242 -0.5955
 4030SOL    HW112789   0.489   5.900   2.826 -0.3819  0.0073 -1.6856
 4030SOL    HW212790   0.459   5.795   2.722 -0.9645 -1.9606  0.3951
 4031SOL     OW12791   3.134   5.586   6.582 -0.0122 -0.0522  0.3981
 4031SOL    HW112792   3.210   5.530   6.565  0.4296  0.2111  1.3807
 4031SOL    HW212793   3.071   5.564   6.514  0.9578 -0.2640 -0.4565
 4032SOL     OW12794   4.258   1.125   5.146  0.2541 -0.6531  0.1522
 4032SOL    HW112795   4.216   1.039   5.142  1.6898 -1.3946  0.3703
 4032SOL    HW212796   4.233   1.160   5.231  0.9563 -1.5664  0.7586
 4033SOL     OW12797   3.122   3.629   0.673 -0.3116 -0.4813 -0.3157
 4033SOL    HW112798   3.209   3.591   0.658 -1.0421 -1.8840 -1.1811
 4033SOL    HW212799   3.097   3.666   0.588  0.0474  1.3291  0.3131
 4034SOL     OW12800   0.532   1.056   0.560  0.2178  0.1960 -0.1701
 4034SOL    HW112801   0.505   1.105   0.637  2.3768  1.2497 -0.0063
 4034SOL    HW212802   0.497   1.105   0.486  1.0202  1.1371  0.0555
 4035SOL     OW12803   6.863   6.316   3.420  0.2395  0.1055  0.0689
 4035SOL    HW112804   6.903   6.309   3.333 -0.3349  0.7292 -0.2568
 4035SOL    HW212805   6.784   6.370   3.406  0.1833  0.2810  0.9875
 4036SOL     OW12806   2.371   1.306   3.136  0.1399 -0.3336 -0.1535
 4036SOL    HW112807   2.450   1.289   3.084 -0.6811 -1.3586 -1.1133
 4036SOL    HW212808   2.314   1.355   3.077  0.0362  0.4080  0.5408
 4037SOL     OW12809   0.972   7.455   1.691 -0.3372  0.2274  0.3245
 4037SOL    HW112810   0.890   7.458   1.740  1.0777 -0.6802  2.9102
 4037SOL    HW212811   0.995   7.547   1.678 -0.6008  0.5027  1.6809
 4038SOL     OW12812   6.472   5.523   2.821 -0.3269 -0.5582 -0.3420
 4038SOL    HW112813   6.403   5.464   2.852  0.3772 -0.7548  0.9356
 4038SOL    HW212814   6.473   5.511   2.726 -1.1745 -1.5202 -0.2502
 4039SOL     OW12815   5.631   1.153   6.095  0.0067 -0.3490  0.4527
 4039SOL    HW112816   5.681   1.163   6.176 -1.4145  3.0034  1.0759
 4039SOL    HW212817   5.688   1.188   6.026  0.5838 -1.6937  0.2173
 4040SOL     OW12818   6.134   2.397   3.959  0.4116 -0.0503 -0.0634
 4040SOL    HW112819   6.068   2.467   3.962  0.3464 -0.1502  1.1675
 4040SOL    HW212820   6.178   2.409   3.875  0.2438  1.3253  0.0272
 4041SOL     OW12821   4.814   6.552   6.734 -0.1175 -0.2526  0.1737
 4041SOL    HW112822   4.847   6.506   6.812  1.2684 -0.4946 -0.5142
 4041SOL    HW212823   4.793   6.482   6.673 -2.2181 -0.1112  0.6638
 4042SOL     OW12824   1.069   6.007   4.686  0.3677 -0.4219  0.7569
 4042SOL    HW112825   1.067   5.962   4.770  1.4048 -2.5461 -0.2875
 4042SOL    HW212826   1.094   5.940   4.623  0.2776  1.2533 -1.1739
 4043SOL     OW12827   4.361   5.715   7.418 -0.1298  0.3513 -0.5453
 4043SOL    HW112828   4.415   5.751   7.488  0.2544 -1.3917  0.1055
 4043SOL    HW212829   4.280   5.688   7.462 -0.2194 -0.0143 -0.9291
 4044SOL     OW12830   3.203   7.829   1.937  0.8743  0.0976  0.1313
 4044SOL    HW112831   3.280   7.773   1.945  1.3876  0.8846  0.9494
 4044SOL    HW212832   3.163   7.828   2.024 -2.6029 -3.7322 -1.1855
 4045SOL     OW12833   1.648   3.090   5.462  0.1798 -0.0078  0.6485
 4045SOL    HW112834   1.666   3.136   5.379  0.5896  0.9282  1.2453
 4045SOL    HW212835   1.565   3.045   5.446  0.6568 -0.4978 -0.5449
 4046SOL     OW12836   2.730   2.505   3.402  0.1193 -0.0496 -0.9443
 4046SOL    HW112837   2.636   2.487   3.406  0.4139 -1.5761  0.8266
 4046SOL    HW212838   2.742   2.557   3.323 -1.8160 -2.2475 -2.8042
 4047SOL     OW12839   0.623   1.755   2.029  0.2066 -0.6319  0.0846
 4047SOL    HW112840   0.653   1.673   1.990  0.5900 -0.2250 -0.5045
 4047SOL    HW212841   0.700   1.789   2.076 -0.1042 -0.8649  0.7666
 4048SOL     OW12842   1.009   2.862   6.627  0.0304  0.3921 -0.2549
 4048SOL    HW112843   0.950   2.918   6.677  0.2318 -0.5688  1.1352
 4048SOL    HW212844   0.951   2.804   6.578 -0.1976  0.2553  0.1659
 4049SOL     OW12845   6.940   5.055   1.317  0.6506  0.2297  0.1557
 4049SOL    HW112846   6.871   5.121   1.320  1.2781  0.8742  0.7931
 4049SOL    HW212847   6.901   4.977   1.356  0.0508  0.3571 -0.1760
 4050SOL     OW12848   6.858   2.276   3.546 -0.0451  0.2430 -0.0554
 4050SOL    HW112849   6.871   2.314   3.633  0.2201 -1.4265  0.6668
 4050SOL    HW212850   6.766   2.292   3.526 -0.5980 -0.9377  1.3635
 4051SOL     OW12851   4.879   0.381   5.732  0.2573 -0.0662  0.4510
 4051SOL    HW112852   4.961   0.387   5.683 -0.1102  1.0189 -0.0587
 4051SOL    HW212853   4.854   0.288   5.727  0.6367 -0.1151 -0.7317
 4052SOL     OW12854   3.297   0.714   4.246  0.2004  0.5146  0.4209
 4052SOL    HW112855   3.254   0.756   4.321 -2.3359 -0.7859 -0.2042
 4052SOL    HW212856   3.302   0.622   4.270 -0.4739  0.1118 -0.8874
 4053SOL     OW12857   4.617   7.090   4.745  0.1824  0.7001  0.4070
 4053SOL    HW112858   4.582   7.094   4.656 -1.0351 -1.2842  0.7498
 4053SOL    HW212859   4.707   7.060   4.734  0.1570  0.8364 -0.1769
 4054SOL     OW12860   4.088   1.039   1.727  0.6035 -0.4595  0.2402
 4054SOL    HW112861   4.183   1.049   1.735  0.5712  1.9222 -1.3331
 4054SOL    HW212862   4.053   1.107   1.785 -0.0165  1.0805 -1.8466
 4055SOL     OW12863   4.580   7.034   6.527 -0.1803  0.6547  0.2795
 4055SOL    HW112864   4.525   7.005   6.454 -0.3014 -0.2895  0.7364
 4055SOL    HW212865   4.642   6.962   6.540 -1.4358 -0.1312  2.4026
 4056SOL     OW12866   2.619   4.522   3.033 -0.3675 -0.2901  0.1924
 4056SOL    HW112867   2.548   4.502   2.973 -0.7745 -0.0321  0.5851
 4056SOL    HW212868   2.657   4.436   3.053 -1.6963 -0.6557  1.3531
 4057SOL     OW12869   5.912   3.252   7.586  0.0687 -0.5756  0.1159
 4057SOL    HW112870   5.999   3.211   7.581 -0.2556 -1.2493 -0.1057
 4057SOL    HW212871   5.851   3.179   7.592 -0.7116 -0.2677 -2.5235
 4058SOL     OW12872   7.045   7.515   5.288  0.1192  0.6649  0.2176
 4058SOL    HW112873   7.138   7.520   5.265  0.2545  0.2612  0.6815
 4058SOL    HW212874   7.012   7.604   5.271  0.1182  0.3203 -1.9185
 4059SOL     OW12875   6.158   5.005   1.985 -0.4126 -0.0747 -0.1204
 4059SOL    HW112876   6.209   5.020   2.065  0.8722 -0.5827 -0.8022
 4059SOL    HW212877   6.198   5.063   1.920 -0.8722 -0.3005 -0.6140
 4060SOL     OW12878   3.814   0.438   7.517  0.2003 -0.4388  0.5598
 4060SOL    HW112879   3.741   0.491   7.550  0.0027  0.9560 -1.8731
 4060SOL    HW212880   3.892   0.478   7.553  0.1502  2.4563 -2.1555
 4061SOL     OW12881   5.712   5.293   3.626  0.5973 -0.1513  0.1647
 4061SOL    HW112882   5.729   5.385   3.605 -0.3458  0.3853  1.6076
 4061SOL    HW212883   5.798   5.258   3.652  1.1580  0.0151 -1.3468
 4062SOL     OW12884   6.383   4.017   7.349  0.1031  0.6552 -0.1045
 4062SOL    HW112885   6.407   4.017   7.256  0.4750 -0.4417 -0.0197
 4062SOL    HW212886   6.367   4.109   7.369  1.4189  1.0878 -0.9030
 4063SOL     OW12887   5.221   2.900   6.338  0.5113  0.2927  0.0532
 4063SOL    HW112888   5.166   2.860   6.405  2.1887  0.2269  1.4729
 4063SOL    HW212889   5.183   2.987   6.324  0.0850  0.2777  1.0587
 4064SOL     OW12890   4.162   6.743   7.673 -0.1685  0.0508  0.0058
 4064SOL    HW112891   4.147   6.789   7.591  1.4042 -0.3700 -0.5574
 4064SOL    HW212892   4.114   6.660   7.663  1.0494 -0.5747 -1.0776
 4065SOL     OW12893   6.728   5.868   7.819 -0.7206  0.1896 -0.4916
 4065SOL    HW112894   6.705   5.776   7.832  1.8343 -0.6212 -1.1298
 4065SOL    HW212895   6.689   5.892   7.735 -1.1516 -0.3959 -0.4605
 4066SOL     OW12896   1.203   3.665   4.359 -0.9370 -0.1258  0.7210
 4066SOL    HW112897   1.134   3.695   4.301 -1.8650 -1.1382  1.2650
 4066SOL    HW212898   1.203   3.728   4.432 -0.9499  0.1455  0.4885
 4067SOL     OW12899   7.204   0.118   0.129  0.1266 -0.3981  0.4862
 4067SOL    HW112900   7.153   0.163   0.196  1.2421  0.4800  0.7873
 4067SOL    HW212901   7.258   0.056   0.178 -0.4838 -1.1559  0.1987
 4068SOL     OW12902   5.701   4.059   6.678  0.3699 -0.2396 -0.2830
 4068SOL    HW112903   5.704   3.964   6.686  2.5590 -0.1598  0.2827
 4068SOL    HW212904   5.673   4.090   6.765  1.2346 -0.3130  0.0265
 4069SOL     OW12905   5.624   1.715   0.946  0.0559 -0.5289 -0.4859
 4069SOL    HW112906   5.619   1.658   0.869  1.3129 -0.6876 -0.4768
 4069SOL    HW212907   5.705   1.689   0.990 -0.4008 -0.1093  0.6374
 4070SOL     OW12908   3.294   3.048   2.017  0.6249  0.0218 -0.0794
 4070SOL    HW112909   3.291   3.107   2.092  1.4500  0.1502 -0.1362
 4070SOL    HW212910   3.355   2.979   2.044  1.0595  0.1593 -0.6837
 4071SOL     OW12911   7.348   3.370   1.360 -0.3705 -0.5485  0.3280
 4071SOL    HW112912   7.281   3.434   1.333  0.3270 -0.0418 -0.2259
 4071SOL    HW212913   7.348   3.305   1.290 -0.2712 -0.5405  0.3210
 4072SOL     OW12914   3.082   6.656   0.115 -0.3896  0.8398  0.1545
 4072SOL    HW112915   3.120   6.574   0.148  1.3867  2.1344  1.4847
 4072SOL    HW212916   3.002   6.666   0.167 -0.3921  0.1705  0.2963
 4073SOL     OW12917   6.201   1.227   3.821  0.2590 -0.4158  0.0325
 4073SOL    HW112918   6.211   1.318   3.792  1.1963  0.1343  1.8945
 4073SOL    HW212919   6.129   1.230   3.884  0.8095 -0.7825  0.6995
 4074SOL     OW12920   7.225   4.626   6.743  0.4624 -0.5914 -0.6441
 4074SOL    HW112921   7.267   4.541   6.726  0.5591 -0.4464 -1.1507
 4074SOL    HW212922   7.132   4.607   6.749  0.6984 -1.3526  3.0978
 4075SOL     OW12923   4.991   0.801   0.741 -0.6141 -0.1758 -0.0340
 4075SOL    HW112924   4.991   0.754   0.825  0.0588 -0.0140  0.0627
 4075SOL    HW212925   4.920   0.761   0.692 -0.6163 -0.7025  0.3797
 4076SOL     OW12926   4.955   0.383   5.268 -0.4123  0.1460  0.3015
 4076SOL    HW112927   4.900   0.434   5.208  1.7018 -0.8413 -2.7660
 4076SOL    HW212928   4.927   0.292   5.254  1.0460 -0.2357 -0.3791
 4077SOL     OW12929   4.194   6.547   7.949 -0.0592  0.2357 -0.7320
 4077SOL    HW112930   4.179   6.589   8.033  0.9706  0.8978 -0.8649
 4077SOL    HW212931   4.108   6.547   7.907  0.0045  2.9148 -1.0350
 4078SOL     OW12932   3.565   4.738   0.298  0.0376 -0.6410 -0.9992
 4078SOL    HW112933   3.493   4.736   0.234 -0.9880 -0.2725  0.1073
 4078SOL    HW212934   3.620   4.811   0.270 -1.7133  1.1126 -0.1233
 4079SOL     OW12935   4.077   3.682   1.576 -0.4038  0.0321 -0.1693
 4079SOL    HW112936   4.128   3.601   1.584  0.8377  0.6797 -1.1300
 4079SOL    HW212937   3.986   3.654   1.583  0.0553 -1.1170  1.9892
 4080SOL     OW12938   2.454   2.861   7.673 -0.8062 -0.2795 -0.4041
 4080SOL    HW112939   2.440   2.814   7.591  1.0269  0.4461 -1.1886
 4080SOL    HW212940   2.485   2.948   7.646  0.2245 -0.1573  1.0527
 4081SOL     OW12941   2.304   5.116   0.870  0.0082 -0.5223 -0.6485
 4081SOL    HW112942   2.309   5.175   0.945  0.2329 -1.6965  0.2768
 4081SOL    HW212943   2.281   5.173   0.797  2.1255  1.0696 -0.1883
 4082SOL     OW12944   5.404   0.641   4.138  0.4795  0.3517 -0.0667
 4082SOL    HW112945   5.425   0.567   4.080 -0.4375  0.2893 -0.3406
 4082SOL    HW212946   5.318   0.619   4.173 -0.5073  2.0024 -1.3329
 4083SOL     OW12947   4.928   1.231   5.354 -0.4138  0.0253  0.2158
 4083SOL    HW112948   4.936   1.280   5.272 -0.0188  0.3604  0.4551
 4083SOL    HW212949   4.848   1.179   5.343  0.2935 -0.8840 -0.8912
 4084SOL     OW12950   2.937   5.075   4.772  0.3080  0.3062 -0.0004
 4084SOL    HW112951   3.016   5.030   4.803 -0.1066 -0.2201  0.3116
 4084SOL    HW212952   2.902   5.018   4.703 -0.4697 -0.1010  0.7083
 4085SOL     OW12953   5.170   6.817   7.039  0.0830 -0.6785 -0.5244
 4085SOL    HW112954   5.096   6.782   6.989  1.0817 -0.0648 -2.5370
 4085SOL    HW212955   5.203   6.742   7.088 -1.0422 -1.2809 -0.6527
 4086SOL     OW12956   7.486   2.537   7.890  0.2542 -0.5580  0.3923
 4086SOL    HW112957   7.420   2.468   7.894 -0.7160  0.3917  1.2510
 4086SOL    HW212958   7.461   2.599   7.958  1.2722  0.5044 -0.1574
 4087SOL     OW12959   2.653   6.849   2.860  0.3041 -0.3149 -0.6612
 4087SOL    HW112960   2.592   6.778   2.842 -1.9577  0.6455  2.2715
 4087SOL    HW212961   2.701   6.821   2.938  2.0623 -0.1067 -1.6230
 4088SOL     OW12962   4.734   2.255   1.445  0.1454 -0.2028 -0.1489
 4088SOL    HW112963   4.652   2.280   1.403 -1.0122 -1.5868  1.1315
 4088SOL    HW212964   4.706   2.214   1.527  2.0526 -1.9928 -0.3247
 4089SOL     OW12965   2.165   2.072   4.080  0.0347  0.2728 -0.0871
 4089SOL    HW112966   2.232   2.124   4.037 -0.6518  1.1839 -0.0801
 4089SOL    HW212967   2.184   1.982   4.055  0.5114  0.6463 -1.0973
 4090SOL     OW12968   4.130   2.379   3.666 -0.3288  0.3998  0.2487
 4090SOL    HW112969   4.177   2.304   3.630 -0.2637  0.0487  1.0590
 4090SOL    HW212970   4.170   2.455   3.623  0.3669  0.0443  0.2573
 4091SOL     OW12971   6.521   1.005   0.367  0.3180  0.5495 -0.0574
 4091SOL    HW112972   6.540   0.925   0.318  1.3202 -1.0307  2.6431
 4091SOL    HW212973   6.426   1.013   0.364  0.1705 -0.9105 -0.2278
 4092SOL     OW12974   4.489   4.961   7.149  0.1104 -0.1546  0.1709
 4092SOL    HW112975   4.556   4.939   7.214 -0.4199 -1.0808  0.4197
 4092SOL    HW212976   4.418   4.999   7.200  0.2762  0.4648 -0.0485
 4093SOL     OW12977   6.902   1.387   5.570  0.1361 -0.7491  0.2219
 4093SOL    HW112978   6.845   1.397   5.646  0.3385 -0.0656  0.2945
 4093SOL    HW212979   6.879   1.460   5.512 -0.9495 -2.0135 -1.0082
 4094SOL     OW12980   1.433   7.743   3.276 -0.2287  1.1947  0.8714
 4094SOL    HW112981   1.500   7.773   3.215 -0.6640 -0.4903 -0.5058
 4094SOL    HW212982   1.360   7.804   3.263 -0.7207  0.2570 -1.1473
 4095SOL     OW12983   4.645   2.827   0.139 -0.1479  0.5747 -0.1514
 4095SOL    HW112984   4.595   2.879   0.203 -0.6926 -0.2342  0.0945
 4095SOL    HW212985   4.690   2.761   0.192  0.1261  0.4685 -0.5143
 4096SOL     OW12986   1.445   1.320   4.138 -0.4839 -0.4237  0.0106
 4096SOL    HW112987   1.485   1.398   4.177 -0.4012 -0.6793  0.4369
 4096SOL    HW212988   1.352   1.343   4.132 -0.5190 -0.4312  0.4832
 4097SOL     OW12989   7.254   1.175   3.361  0.2786 -0.3827 -0.0835
 4097SOL    HW112990   7.204   1.145   3.437 -0.7442  1.6294  0.1149
 4097SOL    HW212991   7.346   1.172   3.390 -0.0985  0.4026  1.2780
 4098SOL     OW12992   6.151   6.205   1.082  0.0371  0.0497  0.4707
 4098SOL    HW112993   6.228   6.230   1.134  1.0270 -0.1488 -0.8648
 4098SOL    HW212994   6.111   6.288   1.058  1.2589  0.2907 -0.8884
 4099SOL     OW12995   6.743   3.131   2.114  0.0763 -0.2069  0.6638
 4099SOL    HW112996   6.651   3.106   2.107  0.1466 -0.2533 -0.2599
 4099SOL    HW212997   6.784   3.060   2.163 -0.7547  0.8126  2.9907
 4100SOL     OW12998   0.955   4.506   4.609  0.2951  0.5832  0.1448
 4100SOL    HW112999   0.935   4.561   4.685 -1.1166  1.8828 -1.0866
 4100SOL    HW213000   0.872   4.501   4.561  0.9597 -0.8489 -0.9264
 4101SOL     OW13001   6.881   6.960   2.183  0.1753 -0.4950 -0.2397
 4101SOL    HW113002   6.869   6.885   2.242  2.0432  0.5792  1.6345
 4101SOL    HW213003   6.867   6.924   2.096 -4.5493 -1.8409  0.7596
 4102SOL     OW13004   5.282   6.249   6.307  0.2158  0.1124  0.6179
 4102SOL    HW113005   5.266   6.163   6.346 -1.7429  0.6153  1.0534
 4102SOL    HW213006   5.238   6.245   6.222 -1.4296  1.2000  1.3624
 4103SOL     OW13007   5.516   5.373   5.841  0.3243 -0.1177 -0.0788
 4103SOL    HW113008   5.431   5.413   5.824  0.8920  0.4097 -1.8708
 4103SOL    HW213009   5.544   5.411   5.925 -0.3589  1.1683 -0.4108
 4104SOL     OW13010   7.151   3.439   2.139 -0.9134  0.0259 -0.0712
 4104SOL    HW113011   7.116   3.492   2.211  0.1474 -0.3465  0.7482
 4104SOL    HW213012   7.164   3.352   2.177 -0.0730 -0.1032 -0.6131
 4105SOL     OW13013   1.346   7.386   1.969 -0.5527  0.7783 -0.3546
 4105SOL    HW113014   1.403   7.457   1.940  1.7412 -0.5654  0.5695
 4105SOL    HW213015   1.370   7.372   2.060 -0.4905 -1.5276 -0.6630
 4106SOL     OW13016   6.550   7.803   7.359 -0.0702 -0.0088  0.1449
 4106SOL    HW113017   6.594   7.815   7.275  0.9188  0.5858  0.7361
 4106SOL    HW213018   6.603   7.738   7.405 -1.1912 -1.1293 -0.0744
 4107SOL     OW13019   4.211   6.417   2.477 -0.3113  0.3340  0.3989
 4107SOL    HW113020   4.274   6.439   2.409  0.0833  0.4707  0.8015
 4107SOL    HW213021   4.144   6.486   2.472 -1.1529 -0.5177 -0.8956
 4108SOL     OW13022   4.422   0.022   1.606 -0.9568  0.4728 -0.1063
 4108SOL    HW113023   4.511  -0.008   1.627 -1.0450 -0.6207 -1.2181
 4108SOL    HW213024   4.436   0.103   1.556 -0.5218 -0.3315 -1.3244
 4109SOL     OW13025   1.864   0.015   0.439 -0.2074  0.0975 -0.0122
 4109SOL    HW113026   1.950   0.014   0.396 -0.4557 -2.1553 -0.6056
 4109SOL    HW213027   1.881   0.051   0.526  1.5293 -1.0373  0.1654
 4110SOL     OW13028   6.997   2.742   6.536  0.3571 -0.1878  0.5155
 4110SOL    HW113029   7.034   2.681   6.600  1.0478  0.2148  0.5039
 4110SOL    HW213030   7.069   2.761   6.476  0.1248  0.5917  0.4738
 4111SOL     OW13031   6.005   7.273   0.594 -0.0760  0.3320 -0.6578
 4111SOL    HW113032   6.054   7.270   0.513 -0.2694  0.1395 -0.7693
 4111SOL    HW213033   5.995   7.181   0.620 -0.9799  0.3182 -1.0099
 4112SOL     OW13034   2.841   5.095   6.667 -0.4028  0.1443 -0.1779
 4112SOL    HW113035   2.823   5.146   6.746  1.7058  0.6429  0.0277
 4112SOL    HW213036   2.889   5.155   6.610  0.0238 -0.8930 -0.9459
 4113SOL     OW13037   4.942   7.538   6.038 -0.4154  0.1464  0.3684
 4113SOL    HW113038   4.927   7.622   6.081 -0.3339 -0.0910  0.8626
 4113SOL    HW213039   4.929   7.473   6.107  1.4653 -0.1587  0.4759
 4114SOL     OW13040   4.823   1.651   0.872  0.0527  0.0707  0.3968
 4114SOL    HW113041   4.846   1.671   0.963 -0.7388 -0.4995  0.7386
 4114SOL    HW213042   4.903   1.668   0.822  1.2498 -1.8643  1.5248
 4115SOL     OW13043   1.319   1.491   4.788 -0.1371 -0.5351 -0.5303
 4115SOL    HW113044   1.308   1.567   4.844  3.8424  0.4410 -0.7991
 4115SOL    HW213045   1.305   1.416   4.845 -0.4861  0.4140  0.6593
 4116SOL     OW13046   2.163   5.409   5.202 -0.7305 -0.6190  0.7977
 4116SOL    HW113047   2.080   5.417   5.247 -0.8677  1.1933  0.3011
 4116SOL    HW213048   2.225   5.460   5.255 -0.2639 -0.7898  0.4256
 4117SOL     OW13049   5.791   7.946   7.546  0.1547  0.5700 -0.0355
 4117SOL    HW113050   5.861   7.885   7.524 -0.7452 -0.2862 -0.6753
 4117SOL    HW213051   5.787   7.946   7.642  0.6940  0.2376 -0.0141
 4118SOL     OW13052   5.426   6.722   3.673 -0.0525  0.2248  0.4182
 4118SOL    HW113053   5.335   6.747   3.688 -0.1702 -0.1688  0.3690
 4118SOL    HW213054   5.420   6.641   3.622  0.3276  0.8465 -0.6515
 4119SOL     OW13055   6.609   2.633   7.076 -0.0923  0.5845 -0.2074
 4119SOL    HW113056   6.606   2.545   7.115  0.2917  0.3542 -0.6897
 4119SOL    HW213057   6.528   2.640   7.027 -0.0287  0.4147 -0.3393
 4120SOL     OW13058   3.258   3.964   6.630 -0.2618 -0.6130 -0.3077
 4120SOL    HW113059   3.183   4.009   6.592 -0.6325 -0.7153  0.2801
 4120SOL    HW213060   3.334   4.000   6.585 -0.5380  0.6648  0.2063
 4121SOL     OW13061   1.820   3.817   7.097  0.3122  0.3574 -0.0727
 4121SOL    HW113062   1.902   3.810   7.146  0.7061  0.6004 -0.6849
 4121SOL    HW213063   1.762   3.870   7.153  0.7771  0.6980  0.0906
 4122SOL     OW13064   0.466   5.468   4.651 -0.3630 -0.6162 -0.0624
 4122SOL    HW113065   0.471   5.374   4.665  0.6991 -0.6797 -0.7290
 4122SOL    HW213066   0.373   5.486   4.635 -0.4101 -1.7262 -1.1107
 4123SOL     OW13067   5.985   0.460   3.182 -0.4903 -0.3735 -0.3013
 4123SOL    HW113068   6.028   0.525   3.238 -2.4652  1.7988 -1.1455
 4123SOL    HW213069   5.937   0.404   3.243 -1.3679  0.9965  0.3144
 4124SOL     OW13070   6.228   3.313   6.484 -0.2303 -0.6125 -0.4428
 4124SOL    HW113071   6.210   3.245   6.419  1.1540 -1.2706 -0.1594
 4124SOL    HW213072   6.251   3.390   6.432 -2.9387  0.0552 -0.8026
 4125SOL     OW13073   2.312   6.905   4.632 -0.0798  0.0313  0.1231
 4125SOL    HW113074   2.371   6.925   4.704 -0.6246 -0.0980  0.6191
 4125SOL    HW213075   2.289   6.812   4.644 -0.1494 -0.0003 -0.2312
 4126SOL     OW13076   1.210   1.726   3.657 -0.3370  0.4805  0.2582
 4126SOL    HW113077   1.208   1.694   3.567 -0.1674 -0.4162  0.5662
 4126SOL    HW213078   1.141   1.792   3.661  0.5964  1.5691 -0.9050
 4127SOL     OW13079   7.575   1.606   5.270  0.5152 -0.5939  0.2288
 4127SOL    HW113080   7.541   1.527   5.229 -0.3439 -0.7862  1.2951
 4127SOL    HW213081   7.501   1.644   5.317  1.5465 -0.5801  1.9313
 4128SOL     OW13082   2.841   6.625   4.029 -0.3267  0.5127  0.1639
 4128SOL    HW113083   2.774   6.686   3.998 -0.5155  0.6139  0.7650
 4128SOL    HW213084   2.924   6.668   4.008 -0.4024 -0.2384 -1.8603
 4129SOL     OW13085   1.489   1.838   0.586 -0.2792  0.0511  0.3875
 4129SOL    HW113086   1.584   1.849   0.584 -0.1065 -1.3307 -1.3575
 4129SOL    HW213087   1.471   1.802   0.673  0.9808 -0.9189  0.2868
 4130SOL     OW13088   4.207   2.893   4.448  0.0765 -0.4483  0.6222
 4130SOL    HW113089   4.224   2.851   4.532 -0.0796 -0.7423  0.5108
 4130SOL    HW213090   4.286   2.944   4.430  0.9193 -1.8803  0.0671
 4131SOL     OW13091   0.460   1.235   7.207 -0.4210  0.7242  0.3729
 4131SOL    HW113092   0.444   1.286   7.127 -0.1000  0.2603  0.0009
 4131SOL    HW213093   0.466   1.145   7.176 -0.9844  0.4555  1.0219
 4132SOL     OW13094   1.844   7.037   0.032 -0.2821  0.6761  0.2451
 4132SOL    HW113095   1.765   7.060  -0.015 -0.1620 -0.8617 -0.7667
 4132SOL    HW213096   1.915   7.074  -0.021 -0.2188  0.3016  0.0721
 4133SOL     OW13097   6.290   5.519   6.670 -0.3929  0.3352 -0.1177
 4133SOL    HW113098   6.288   5.561   6.756  0.0187  0.3881 -0.1287
 4133SOL    HW213099   6.371   5.467   6.671 -0.4340  0.2651 -0.4368
 4134SOL     OW13100   6.419   2.999   5.615  0.2872  0.6470  0.3646
 4134SOL    HW113101   6.325   3.017   5.612  0.1932  0.1681  0.3708
 4134SOL    HW213102   6.425   2.907   5.639  0.7553  0.6032  0.0925
 4135SOL     OW13103   7.265   2.631   3.623 -0.6359  0.2071  0.1037
 4135SOL    HW113104   7.335   2.575   3.588 -0.5379  0.2667  0.2032
 4135SOL    HW213105   7.290   2.645   3.714 -0.8176  0.1675  0.1600
 4136SOL     OW13106   6.422   7.323   7.595  0.1754 -0.5572  0.3090
 4136SOL    HW113107   6.329   7.344   7.589  0.4781  0.7368 -0.4703
 4136SOL    HW213108   6.452   7.323   7.504  1.0112 -0.5154  0.5763
 4137SOL     OW13109   5.941   5.900   2.272 -0.2086 -0.0029  0.0392
 4137SOL    HW113110   6.016   5.956   2.294  0.4249 -1.0894  0.7252
 4137SOL    HW213111   5.873   5.961   2.242 -0.0250  1.2535  2.0416
 4138SOL     OW13112   2.136   7.026   3.156  0.1286  0.0925 -0.6674
 4138SOL    HW113113   2.116   7.061   3.069 -2.1276 -0.8926 -0.6261
 4138SOL    HW213114   2.218   6.978   3.144  0.6989  1.2994 -1.8556
 4139SOL     OW13115   4.838   2.606   5.421  0.0428 -0.2306  0.1414
 4139SOL    HW113116   4.775   2.582   5.353 -0.5333  0.7885  0.2806
 4139SOL    HW213117   4.783   2.642   5.492  0.5902 -1.6631  1.3344
 4140SOL     OW13118   3.045   0.451   6.562 -0.0321  0.0758  0.1204
 4140SOL    HW113119   2.994   0.452   6.481 -1.9251 -0.8392  1.2482
 4140SOL    HW213120   2.982   0.470   6.631  1.5593  0.9257  1.4130
 4141SOL     OW13121   2.550   4.303   0.815 -0.8867 -0.0545  0.1934
 4141SOL    HW113122   2.522   4.385   0.855  0.2034  1.3450 -1.7740
 4141SOL    HW213123   2.472   4.271   0.770 -0.4234  1.9980 -2.2979
 4142SOL     OW13124   0.188   4.667   7.183 -0.0548 -0.4530 -0.0683
 4142SOL    HW113125   0.113   4.611   7.163  0.5784 -0.5179 -2.6039
 4142SOL    HW213126   0.230   4.625   7.258 -1.4426 -1.4980  0.1715
 4143SOL     OW13127   2.397   1.602   5.489 -0.1476 -0.5767 -0.1458
 4143SOL    HW113128   2.485   1.600   5.449 -0.0095 -1.0768  0.1770
 4143SOL    HW213129   2.342   1.645   5.423  0.7683  1.7970  0.5309
 4144SOL     OW13130   4.447   7.019   1.394  0.4614 -0.0724 -0.5153
 4144SOL    HW113131   4.362   7.004   1.435  0.6584 -1.0041 -0.4240
 4144SOL    HW213132   4.444   6.968   1.313  1.3265 -1.0337  0.0254
 4145SOL     OW13133   7.030   0.267   5.331  0.3898 -0.5009 -0.3629
 4145SOL    HW113134   7.047   0.347   5.281 -2.4399  0.0480 -0.6096
 4145SOL    HW213135   7.034   0.197   5.266 -1.3607 -0.0147 -1.0409
 4146SOL     OW13136   7.705   5.019   6.762 -0.0744 -0.2094 -0.0718
 4146SOL    HW113137   7.629   4.963   6.775  0.2795 -1.0954 -1.5644
 4146SOL    HW213138   7.675   5.089   6.703  0.2871 -0.6572 -0.8029
 4147SOL     OW13139   3.671   0.580   3.068 -0.0401 -0.1488  0.1850
 4147SOL    HW113140   3.578   0.564   3.082 -0.2568  1.4139  0.7517
 4147SOL    HW213141   3.712   0.494   3.078 -1.1256 -0.4836  2.5875
 4148SOL     OW13142   1.941   4.823   0.345  0.6424 -0.4919 -0.0104
 4148SOL    HW113143   2.031   4.815   0.376  0.5510 -0.6271  0.2239
 4148SOL    HW213144   1.948   4.866   0.260  0.7964  1.1269  0.7870
 4149SOL     OW13145   1.749   0.793   2.643  0.4058  0.1378  0.1331
 4149SOL    HW113146   1.665   0.839   2.641 -0.4382 -1.3918 -0.7128
 4149SOL    HW213147   1.737   0.723   2.707  1.7262  1.0899  1.5034
 4150SOL     OW13148   7.468   1.763   7.222  0.2731 -0.4154  0.1367
 4150SOL    HW113149   7.516   1.841   7.251  2.6010 -0.9900 -1.8480
 4150SOL    HW213150   7.431   1.726   7.302  0.6239  1.7196  1.3549
 4151SOL     OW13151   6.385   7.337   2.124 -0.4818  0.1168 -0.0002
 4151SOL    HW113152   6.363   7.430   2.121 -1.3017 -0.0852 -0.5177
 4151SOL    HW213153   6.400   7.313   2.033  1.1313  0.0486  0.2462
 4152SOL     OW13154   2.295   7.894   0.157  0.9145  0.2571 -0.0618
 4152SOL    HW113155   2.358   7.922   0.091  1.2542  1.1749  0.6275
 4152SOL    HW213156   2.226   7.851   0.107  0.8724  1.4514 -1.0859
 4153SOL     OW13157   4.877   4.395   4.817 -0.8918  0.2490  0.7006
 4153SOL    HW113158   4.900   4.395   4.910  3.5934  0.7934 -0.1501
 4153SOL    HW213159   4.945   4.448   4.776 -2.0243 -0.8675 -3.0263
 4154SOL     OW13160   7.567   4.446   1.854  0.5860  0.3188  0.7612
 4154SOL    HW113161   7.505   4.476   1.920  1.1200  1.8564  0.5953
 4154SOL    HW213162   7.522   4.458   1.771  0.0766 -1.2190  0.7729
 4155SOL     OW13163   5.262   1.456   4.533  0.0715 -0.4465 -0.1258
 4155SOL    HW113164   5.319   1.422   4.603 -0.1353  0.5182  0.5182
 4155SOL    HW213165   5.282   1.549   4.528 -2.5583  0.2643  1.1949
 4156SOL     OW13166   1.807   5.344   2.356 -0.1893 -0.2011 -0.1919
 4156SOL    HW113167   1.795   5.358   2.450 -0.0381 -0.1731 -0.1766
 4156SOL    HW213168   1.818   5.432   2.320 -0.2099 -0.2149 -0.2318
 4157SOL     OW13169   4.826   7.685   2.557 -0.2325  0.0894  0.2320
 4157SOL    HW113170   4.753   7.623   2.548 -1.8694  1.9255  0.2837
 4157SOL    HW213171   4.888   7.640   2.614 -1.9556 -1.0061  1.3394
 4158SOL     OW13172   0.652   0.124   5.324  0.0085  0.2909  0.1212
 4158SOL    HW113173   0.624   0.070   5.250  1.0537 -0.2376  0.0874
 4158SOL    HW213174   0.723   0.178   5.288 -1.2281  1.9765  0.0615
 4159SOL     OW13175   1.120   7.640   6.253  0.1398  0.1980  0.5472
 4159SOL    HW113176   1.186   7.665   6.188  1.4338 -2.3456  0.7712
 4159SOL    HW213177   1.165   7.649   6.337  0.7544 -2.7786  0.6317
 4160SOL     OW13178   4.704   3.718   0.455 -0.3675  0.1086  0.1921
 4160SOL    HW113179   4.705   3.672   0.539  1.2569 -0.8186 -0.2878
 4160SOL    HW213180   4.664   3.803   0.474  1.0352  0.3939  2.1988
 4161SOL     OW13181   3.473   0.633   1.296 -0.1376 -0.7355 -0.6741
 4161SOL    HW113182   3.397   0.691   1.298 -0.2045 -0.8446  1.0814
 4161SOL    HW213183   3.517   0.654   1.213 -0.6604  1.1820 -0.5118
 4162SOL     OW13184   6.605   4.439   1.525  0.2006  0.4537 -0.1730
 4162SOL    HW113185   6.522   4.401   1.555  0.4747  1.6729  2.3944
 4162SOL    HW213186   6.660   4.363   1.504 -0.6456 -0.4672  0.8296
 4163SOL     OW13187   2.881   6.384   3.897  0.0689 -0.3209 -0.2414
 4163SOL    HW113188   2.882   6.465   3.947 -0.9354 -0.3981 -0.0799
 4163SOL    HW213189   2.820   6.327   3.945 -1.4004 -0.1844 -1.8642
 4164SOL     OW13190   3.916   1.932   7.910  0.8385  0.0283 -0.1237
 4164SOL    HW113191   3.920   1.967   7.999  0.7037 -0.0847 -0.0739
 4164SOL    HW213192   4.007   1.916   7.887  0.8443 -0.3198  0.1430
 4165SOL     OW13193   6.960   6.000   2.500 -0.0446  0.0156  0.8043
 4165SOL    HW113194   6.888   6.036   2.551 -0.4193  1.7163 -0.8160
 4165SOL    HW213195   6.918   5.961   2.423  0.7073  0.4283  0.1730
 4166SOL     OW13196   7.117   5.730   2.553 -0.3294 -1.4301 -0.5244
 4166SOL    HW113197   7.033   5.697   2.585  0.0740 -0.8353  1.2980
 4166SOL    HW213198   7.097   5.814   2.513 -0.8177 -2.0813 -1.7080
 4167SOL     OW13199   4.340   6.713   4.556  0.7889  0.8954 -0.1519
 4167SOL    HW113200   4.280   6.647   4.591  0.1208  1.9052  0.6585
 4167SOL    HW213201   4.387   6.746   4.632 -0.3435  2.7829 -0.1987
 4168SOL     OW13202   2.670   6.316   6.798 -0.1929 -0.3226 -0.0325
 4168SOL    HW113203   2.715   6.242   6.758 -0.4423 -0.4603 -0.0575
 4168SOL    HW213204   2.617   6.353   6.727  0.1354  0.0419 -0.0910
 4169SOL     OW13205   5.543   6.095   2.776 -0.3723 -0.2327 -0.2134
 4169SOL    HW113206   5.475   6.132   2.834  1.2345  0.1185  1.5430
 4169SOL    HW213207   5.625   6.116   2.820  0.9237 -0.3394 -2.4693
 4170SOL     OW13208   6.888   7.159   4.011 -0.0556  0.1218 -0.2557
 4170SOL    HW113209   6.961   7.113   3.969  0.3122 -0.2883  0.7976
 4170SOL    HW213210   6.874   7.112   4.093  0.3432  1.8734  0.8718
 4171SOL     OW13211   4.244   2.667   5.968  0.0457  0.5341 -0.2375
 4171SOL    HW113212   4.157   2.680   5.932  0.3450 -0.1717 -1.2341
 4171SOL    HW213213   4.253   2.573   5.977  0.3277  0.6503  0.8388
 4172SOL     OW13214   0.544   1.993   1.895 -0.7428 -0.2048 -0.1834
 4172SOL    HW113215   0.567   1.910   1.937 -1.0446 -0.0454  0.3020
 4172SOL    HW213216   0.612   2.007   1.829 -0.9819 -1.1042 -0.6385
 4173SOL     OW13217   5.407   5.757   0.200  0.2752 -0.5071  0.3610
 4173SOL    HW113218   5.370   5.702   0.269 -1.9656  1.6827  1.0562
 4173SOL    HW213219   5.410   5.844   0.238  0.6262  0.4572 -1.7573
 4174SOL     OW13220   0.442   3.037   2.540  0.1449  0.4059  0.0078
 4174SOL    HW113221   0.502   3.042   2.466 -0.9097  0.8998 -0.8454
 4174SOL    HW213222   0.408   2.948   2.538 -1.2049  0.9143 -1.2101
 4175SOL     OW13223   6.266   5.581   3.454  0.8167  0.1007  0.0969
 4175SOL    HW113224   6.239   5.492   3.476 -0.2782  0.0676 -1.2216
 4175SOL    HW213225   6.201   5.610   3.389  1.8132  1.4373 -0.3400
 4176SOL     OW13226   2.537   4.690   5.317 -0.1215  0.0657  0.4137
 4176SOL    HW113227   2.571   4.609   5.355  1.7867  1.5111  2.0617
 4176SOL    HW213228   2.453   4.704   5.361  1.0328  0.5636  2.6118
 4177SOL     OW13229   1.092   4.702   1.737 -0.2935 -0.1444 -0.2055
 4177SOL    HW113230   1.055   4.628   1.689  2.2251 -1.0952 -0.8477
 4177SOL    HW213231   1.086   4.776   1.677 -1.3762 -0.1969 -0.1758
 4178SOL     OW13232   3.878   5.334   4.069  0.1273 -0.6382  0.6980
 4178SOL    HW113233   3.820   5.372   4.135 -1.5852  0.3672 -1.2622
 4178SOL    HW213234   3.966   5.352   4.101 -0.6291  0.1129  2.5153
 4179SOL     OW13235   4.982   0.410   2.658 -0.4471  0.1195 -0.2020
 4179SOL    HW113236   5.048   0.439   2.721 -0.9940  1.0842 -0.0703
 4179SOL    HW213237   4.933   0.488   2.636 -0.6597 -0.3224 -1.3753
 4180SOL     OW13238   2.876   5.377   1.040 -0.3598  0.0129 -0.0703
 4180SOL    HW113239   2.797   5.325   1.055 -0.3612  0.3535  1.3054
 4180SOL    HW213240   2.934   5.353   1.112 -0.0190  1.2619  0.0967
 4181SOL     OW13241   2.762   2.004   5.825  0.8433 -0.5651 -0.5078
 4181SOL    HW113242   2.844   1.955   5.826  1.1645 -0.1191  2.4314
 4181SOL    HW213243   2.723   1.987   5.911 -0.8360  1.3915 -0.8137
 4182SOL     OW13244   0.232   5.835   0.485 -0.0569  0.1445 -0.1762
 4182SOL    HW113245   0.296   5.764   0.488  0.8724  0.9792  1.3634
 4182SOL    HW213246   0.234   5.865   0.394  1.2918 -0.2616 -0.3093
 4183SOL     OW13247   2.759   4.236   1.432  0.1029  0.4808  0.4822
 4183SOL    HW113248   2.727   4.256   1.345  0.5362  1.0409  0.4488
 4183SOL    HW213249   2.851   4.213   1.419  0.5447  1.9198  0.9526
 4184SOL     OW13250   5.080   1.567   6.419 -0.0134 -0.1098  0.0474
 4184SOL    HW113251   5.166   1.607   6.438  0.0296 -0.0048 -0.3664
 4184SOL    HW213252   5.068   1.504   6.489  0.2948  0.0477  0.2481
 4185SOL     OW13253   2.829   5.932   1.054  0.1268  0.3084  0.3769
 4185SOL    HW113254   2.900   5.994   1.071 -0.6077  0.7322  2.1057
 4185SOL    HW213255   2.774   5.936   1.132  0.2223 -2.7974  0.7347
 4186SOL     OW13256   5.557   4.167   1.973 -0.8960 -0.6309  0.3000
 4186SOL    HW113257   5.482   4.186   1.916  0.2353 -0.3070 -1.1645
 4186SOL    HW213258   5.541   4.079   2.005 -2.0389 -0.4606  0.2373
 4187SOL     OW13259   1.276   7.202   5.452  0.0336 -0.3565  0.7941
 4187SOL    HW113260   1.262   7.296   5.466 -2.2895 -0.8740  2.5272
 4187SOL    HW213261   1.286   7.193   5.358 -1.6059  1.4703  0.3753
 4188SOL     OW13262   1.713   0.289   2.271 -0.1256  0.0861  0.4809
 4188SOL    HW113263   1.716   0.338   2.189  1.0076 -1.0654 -0.1991
 4188SOL    HW213264   1.784   0.326   2.324 -1.5811  1.6171  1.4530
 4189SOL     OW13265   6.563   6.150   5.701  0.2932  0.8585  0.0701
 4189SOL    HW113266   6.612   6.226   5.732  2.2328 -0.6844  1.0561
 4189SOL    HW213267   6.565   6.157   5.606  0.8301  1.8339  0.1412
 4190SOL     OW13268   6.261   5.840   5.200 -0.4713 -0.2681  0.0009
 4190SOL    HW113269   6.291   5.888   5.123 -0.7230 -0.9395 -0.5251
 4190SOL    HW213270   6.240   5.753   5.167 -1.7023 -0.2252  0.5930
 4191SOL     OW13271   4.945   5.831   6.335 -0.0400 -0.2091  0.3105
 4191SOL    HW113272   4.880   5.781   6.286  0.4130 -0.8343  0.3337
 4191SOL    HW213273   5.004   5.765   6.371  0.2368  0.3098  0.8265
 4192SOL     OW13274   0.771   4.042   3.451  0.7092  0.2478  0.5323
 4192SOL    HW113275   0.724   3.967   3.487  0.5821  0.9150  1.8374
 4192SOL    HW213276   0.821   4.076   3.526  0.0644  1.9989  0.2096
 4193SOL     OW13277   3.547   7.059   0.619  0.1388 -0.1867  0.7425
 4193SOL    HW113278   3.606   7.078   0.692  1.5131 -0.6695 -0.2003
 4193SOL    HW213279   3.588   6.985   0.574  0.2595  1.1607 -1.5070
 4194SOL     OW13280   4.615   6.425   2.243  0.7796  0.0562  0.0484
 4194SOL    HW113281   4.606   6.342   2.196  0.9037  0.7057 -1.1808
 4194SOL    HW213282   4.646   6.486   2.176  0.6128  1.1113  0.9131
 4195SOL     OW13283   0.536   0.431   2.180 -0.1114  0.1073  0.2579
 4195SOL    HW113284   0.599   0.393   2.119 -1.0555 -0.7047 -0.2474
 4195SOL    HW213285   0.589   0.467   2.250  1.0040  1.0675 -1.0382
 4196SOL     OW13286   1.107   0.209   3.300  0.4462 -0.0294  0.0015
 4196SOL    HW113287   1.142   0.153   3.231 -1.0662  0.3519 -1.1229
 4196SOL    HW213288   1.013   0.195   3.296  0.3252 -0.1332  2.1309
 4197SOL     OW13289   3.553   0.398   5.990  0.2956  0.1973 -0.2889
 4197SOL    HW113290   3.597   0.403   5.905 -2.2939  0.4240 -1.7553
 4197SOL    HW213291   3.462   0.421   5.970 -0.9819 -2.2080  2.0947
 4198SOL     OW13292   1.293   2.647   2.583 -0.3956 -0.1251  0.8671
 4198SOL    HW113293   1.202   2.673   2.569  0.1958  1.4055 -0.4480
 4198SOL    HW213294   1.313   2.587   2.512 -0.5030 -0.8840  1.4587
 4199SOL     OW13295   4.914   0.907   5.494  0.2015  0.6646 -0.5606
 4199SOL    HW113296   4.895   0.817   5.468  2.3586 -0.5067  1.4860
 4199SOL    HW213297   4.832   0.938   5.533 -0.2327 -0.8658 -0.1855
 4200SOL     OW13298   6.836   0.367   3.948  0.4220 -0.4585  0.9218
 4200SOL    HW113299   6.794   0.359   3.862  0.1998  0.5296  0.9261
 4200SOL    HW213300   6.871   0.456   3.949  0.1216 -0.3352  1.9919
 4201SOL     OW13301   7.242   6.198   5.248  0.2441 -0.1686 -0.0184
 4201SOL    HW113302   7.235   6.147   5.167  1.2659 -1.6021  0.7366
 4201SOL    HW213303   7.221   6.135   5.317 -3.9314  1.7604  0.7804
 4202SOL     OW13304   0.411   5.806   3.260 -0.0722 -0.4080  0.0130
 4202SOL    HW113305   0.502   5.833   3.248 -0.0378  0.3826  1.7764
 4202SOL    HW213306   0.416   5.722   3.306 -0.2470 -0.7418 -0.5612
 4203SOL     OW13307   3.090   5.694   2.041 -0.3444  0.6436  0.0970
 4203SOL    HW113308   3.143   5.616   2.023  0.2048  0.9493  0.3334
 4203SOL    HW213309   3.100   5.707   2.135  0.2754  1.4918 -0.0747
 4204SOL     OW13310   3.525   7.125   6.870  0.5284  0.6955 -0.3067
 4204SOL    HW113311   3.479   7.196   6.914  0.7738  0.8949 -0.3681
 4204SOL    HW213312   3.597   7.168   6.824  0.3480  0.4713 -0.7992
 4205SOL     OW13313   3.501   4.998   4.801 -0.4192  0.2001 -0.8187
 4205SOL    HW113314   3.522   4.935   4.869 -0.5548 -1.7610 -2.4839
 4205SOL    HW213315   3.467   5.074   4.848 -3.3847 -2.1304  1.2242
 4206SOL     OW13316   5.651   6.691   3.839 -0.3450 -0.1842  0.0205
 4206SOL    HW113317   5.680   6.777   3.808 -0.2185  0.4976  1.9153
 4206SOL    HW213318   5.561   6.682   3.807 -0.3668  0.6690 -0.1668
 4207SOL     OW13319   6.409   5.296   7.890 -0.0757  0.3433  0.2512
 4207SOL    HW113320   6.377   5.376   7.849  1.6914  0.4712 -0.9959
 4207SOL    HW213321   6.486   5.323   7.939  0.3935 -0.5553  0.0262
 4208SOL     OW13322   0.669   4.777   1.367  0.1289  0.0552  0.2586
 4208SOL    HW113323   0.674   4.716   1.441  2.0484 -0.0933  0.0465
 4208SOL    HW213324   0.596   4.745   1.314 -1.2982  0.1650  2.0548
 4209SOL     OW13325   3.292   7.886   1.028 -0.4690 -0.3794 -0.8134
 4209SOL    HW113326   3.325   7.962   0.981 -0.2146  0.1934  0.2529
 4209SOL    HW213327   3.276   7.821   0.960 -0.4532  0.5322 -1.7247
 4210SOL     OW13328   3.647   0.538   4.222  0.4241 -0.5661  0.2117
 4210SOL    HW113329   3.614   0.526   4.311 -0.1939 -0.2457  0.0328
 4210SOL    HW213330   3.689   0.455   4.200  0.3815 -0.7239  0.7203
 4211SOL     OW13331   7.072   6.677   3.580 -0.5103  0.0371  0.1626
 4211SOL    HW113332   7.093   6.619   3.652 -0.3770 -0.5067 -0.3073
 4211SOL    HW213333   7.037   6.756   3.622  0.4820  0.1258  0.8687
 4212SOL     OW13334   2.381   3.391   0.965 -0.7119 -0.3289  0.2061
 4212SOL    HW113335   2.421   3.426   0.886 -0.0197  1.7391  1.3972
 4212SOL    HW213336   2.286   3.395   0.948 -0.5887  0.5907 -0.3426
 4213SOL     OW13337   6.961   1.224   3.757  0.1086 -0.1489  0.1749
 4213SOL    HW113338   6.883   1.174   3.782  1.3215 -3.1601 -1.5562
 4213SOL    HW213339   7.020   1.214   3.831 -0.2456  0.0404  0.4844
 4214SOL     OW13340   0.979   1.728   4.041  0.2479  0.2745  0.3313
 4214SOL    HW113341   1.018   1.808   4.007 -1.4880  1.2965  0.5948
 4214SOL    HW213342   0.888   1.752   4.060 -0.0257 -1.4558  1.4812
 4215SOL     OW13343   7.364   2.512   5.667 -0.1338  0.0149 -0.6239
 4215SOL    HW113344   7.449   2.517   5.709 -0.1162 -1.0215 -0.5260
 4215SOL    HW213345   7.341   2.604   5.650 -0.0649  0.4634  1.4478
 4216SOL     OW13346   5.068   6.052   5.258  0.4686  0.5845  0.2408
 4216SOL    HW113347   5.026   5.979   5.213  1.3307  0.6958 -0.7694
 4216SOL    HW213348   4.999   6.091   5.312 -0.4592  0.1558 -0.6327
 4217SOL     OW13349   6.327   1.922   7.402  0.7436  0.0172 -0.4522
 4217SOL    HW113350   6.250   1.869   7.383  1.0108 -0.5707  0.0706
 4217SOL    HW213351   6.361   1.947   7.317 -1.2451  2.1018 -0.7249
 4218SOL     OW13352   7.094   3.624   1.209 -0.2499 -0.3463 -0.6206
 4218SOL    HW113353   7.189   3.621   1.217 -0.2591 -0.6435 -0.6304
 4218SOL    HW213354   7.063   3.548   1.258 -0.5478  0.4110  0.3965
 4219SOL     OW13355   7.009   7.162   1.714  0.0464  0.2827  0.1462
 4219SOL    HW113356   6.971   7.132   1.631  0.6934  1.3032 -0.5361
 4219SOL    HW213357   7.096   7.195   1.690  0.8637 -0.8110  1.4709
 4220SOL     OW13358   4.046   5.657   2.223  0.2775 -0.1209 -0.2547
 4220SOL    HW113359   4.096   5.630   2.300  2.0076  0.7700 -1.0050
 4220SOL    HW213360   4.113   5.671   2.155 -0.8835  1.9605 -1.0542
 4221SOL     OW13361   4.704   5.278   4.678  0.0634 -0.1307  0.1758
 4221SOL    HW113362   4.652   5.310   4.751  1.6307  0.3655  1.1286
 4221SOL    HW213363   4.732   5.191   4.706 -0.0085 -0.2716 -0.1939
 4222SOL     OW13364   0.543   3.781   1.967 -0.1691 -0.3405  0.1858
 4222SOL    HW113365   0.491   3.821   2.036  1.8909 -0.2179  1.7755
 4222SOL    HW213366   0.631   3.775   2.004  0.4852 -2.6376 -1.4970
 4223SOL     OW13367   1.126   0.864   7.042  0.0556  0.5125 -1.4494
 4223SOL    HW113368   1.153   0.935   6.985  0.5183  0.1057 -1.7370
 4223SOL    HW213369   1.161   0.785   7.002  0.8500  0.2689 -0.3265
 4224SOL     OW13370   4.061   3.443   2.155 -0.6403  0.3209  0.3025
 4224SOL    HW113371   3.975   3.466   2.119 -0.7878  0.3970  0.6954
 4224SOL    HW213372   4.052   3.352   2.182 -0.0406 -0.2468 -1.2958
 4225SOL     OW13373   0.131   2.945   4.754  0.2299 -0.3894 -0.6306
 4225SOL    HW113374   0.203   2.952   4.691  0.9406 -0.5919  0.1272
 4225SOL    HW213375   0.119   3.035   4.786 -0.0444 -0.3082 -0.9636
 4226SOL     OW13376   2.948   7.185   0.077  0.0400 -0.7954  0.1606
 4226SOL    HW113377   2.988   7.214  -0.005  2.1783 -0.6515  1.1748
 4226SOL    HW213378   2.874   7.130   0.050  1.0941 -1.3353 -1.8586
 4227SOL     OW13379   4.683   4.617   7.549 -0.1161 -0.4072 -0.3523
 4227SOL    HW113380   4.635   4.698   7.567 -1.3942 -1.5773  2.0220
 4227SOL    HW213381   4.771   4.645   7.526 -0.8800  1.6915 -0.8702
 4228SOL     OW13382   1.840   7.627   3.654  0.2092 -0.7623 -0.6621
 4228SOL    HW113383   1.833   7.582   3.739 -1.3487 -2.5891 -1.6625
 4228SOL    HW213384   1.778   7.700   3.661  0.4149 -0.6434 -0.0691
 4229SOL     OW13385   3.441   0.465   0.648 -0.0572  0.4271 -0.3369
 4229SOL    HW113386   3.357   0.434   0.614 -0.3923  1.6561 -0.6810
 4229SOL    HW213387   3.489   0.494   0.571  0.8481 -0.6200 -0.1824
 4230SOL     OW13388   2.643   4.836   6.759  0.0510 -0.9766  1.4615
 4230SOL    HW113389   2.565   4.780   6.767  1.4788 -3.2893  0.3830
 4230SOL    HW213390   2.635   4.874   6.671 -0.8215  0.4254  2.1196
 4231SOL     OW13391   1.711   1.687   3.209  0.4047  0.4651  1.2708
 4231SOL    HW113392   1.671   1.601   3.198  1.4215  0.3386 -2.9564
 4231SOL    HW213393   1.640   1.743   3.241 -1.5991 -0.9585 -0.4759
 4232SOL     OW13394   5.360   0.070   3.015 -0.5451 -0.1436 -0.6091
 4232SOL    HW113395   5.280   0.111   3.047 -1.4752 -1.6659 -0.8620
 4232SOL    HW213396   5.344  -0.024   3.024  1.9495 -0.5272  1.1216
 4233SOL     OW13397   1.630   0.127   3.525 -0.2669  0.2421 -0.2733
 4233SOL    HW113398   1.715   0.168   3.537  0.8538 -1.4014 -1.9431
 4233SOL    HW213399   1.566   0.196   3.543  1.4587  2.4077 -1.9718
 4234SOL     OW13400   1.503   1.678   0.957 -1.1871 -0.1776  0.2547
 4234SOL    HW113401   1.471   1.759   0.997  0.2664 -0.0478  1.2074
 4234SOL    HW213402   1.592   1.668   0.991 -0.1533 -0.4838 -2.3176
 4235SOL     OW13403   4.536   0.306   0.948  1.1584 -0.0596 -0.4540
 4235SOL    HW113404   4.467   0.296   0.883  0.1844 -1.7498  0.7466
 4235SOL    HW213405   4.520   0.392   0.987 -2.6176 -1.6453  2.1987
 4236SOL     OW13406   4.910   5.642   4.278 -0.7136  0.2866 -0.1633
 4236SOL    HW113407   4.995   5.677   4.305 -1.3338  0.5742  1.6061
 4236SOL    HW213408   4.848   5.679   4.342 -2.2791  0.6008 -1.7679
 4237SOL     OW13409   3.414   0.543   4.557  0.0509  0.5835 -0.6186
 4237SOL    HW113410   3.404   0.467   4.499  1.9963 -1.0808  1.0396
 4237SOL    HW213411   3.338   0.539   4.615  0.7585 -0.9772  0.2826
 4238SOL     OW13412   2.014   6.949   3.575  0.9043  0.0746 -0.2491
 4238SOL    HW113413   2.098   6.938   3.530  0.7393  0.0056 -0.5431
 4238SOL    HW213414   1.963   6.871   3.552  0.4918  0.4624 -0.6654
 4239SOL     OW13415   6.498   1.247   2.561  0.2848  0.5190  0.2735
 4239SOL    HW113416   6.565   1.179   2.568 -0.9319 -0.6332  1.3944
 4239SOL    HW213417   6.472   1.264   2.652 -1.0477  0.7918 -0.1328
 4240SOL     OW13418   5.909   5.296   0.993 -0.3549 -0.1303  0.3827
 4240SOL    HW113419   6.002   5.275   0.997 -0.1487  0.6831 -0.1300
 4240SOL    HW213420   5.866   5.211   0.981  0.1577 -0.7527  2.6154
 4241SOL     OW13421   1.240   4.099   4.839  0.4010  0.2311 -0.0062
 4241SOL    HW113422   1.197   4.177   4.804 -0.7795  0.4221  1.7458
 4241SOL    HW213423   1.331   4.124   4.848  0.0846  1.3279  0.2713
 4242SOL     OW13424   3.505   3.361   5.242 -0.3081  0.2484  0.2582
 4242SOL    HW113425   3.437   3.339   5.305 -0.8873  0.5779 -0.2389
 4242SOL    HW213426   3.587   3.356   5.291 -0.8908  2.3481  1.5494
 4243SOL     OW13427   0.345   1.794   4.407  0.0873  0.4297 -0.8467
 4243SOL    HW113428   0.434   1.814   4.377 -0.4736  2.4047 -1.3768
 4243SOL    HW213429   0.350   1.798   4.502  0.0753  3.4302 -0.8594
 4244SOL     OW13430   3.931   7.364   0.412  0.0479 -0.3884 -0.0890
 4244SOL    HW113431   3.895   7.451   0.431  0.3847 -0.1650 -0.4482
 4244SOL    HW213432   4.014   7.382   0.367 -0.2394 -0.8914 -0.8473
 4245SOL     OW13433   2.716   5.029   2.051 -0.2280 -0.1084  0.1534
 4245SOL    HW113434   2.688   5.098   2.112  0.1211 -0.9277  1.2796
 4245SOL    HW213435   2.760   5.076   1.980 -1.1408  0.9164  0.2310
 4246SOL     OW13436   6.132   6.925   7.058  0.2827 -0.0052 -0.0351
 4246SOL    HW113437   6.093   6.952   6.975  1.2367  0.1599 -0.4384
 4246SOL    HW213438   6.185   6.849   7.035  0.0006 -0.3903  0.5583
 4247SOL     OW13439   7.635   0.211   3.821 -0.4597 -0.2112  0.1629
 4247SOL    HW113440   7.689   0.159   3.762 -1.2989  0.8144 -1.5979
 4247SOL    HW213441   7.595   0.147   3.879  1.7312 -1.0959  0.8143
 4248SOL     OW13442   2.661   2.406   5.895 -0.2099 -0.0275  0.0896
 4248SOL    HW113443   2.668   2.475   5.830  0.8951  1.0931  1.3492
 4248SOL    HW213444   2.732   2.345   5.873  0.3668  0.5140  0.4123
 4249SOL     OW13445   4.102   7.734   2.640  0.0186  0.1493  0.0366
 4249SOL    HW113446   4.025   7.746   2.584  0.3072 -1.7123 -0.8159
 4249SOL    HW213447   4.133   7.646   2.620  1.1108  0.0512  1.9530
 4250SOL     OW13448   7.168   7.337   7.133 -0.2432  0.0314  0.0133
 4250SOL    HW113449   7.111   7.340   7.210 -0.3783 -0.0081 -0.0848
 4250SOL    HW213450   7.181   7.244   7.117  2.4018 -0.0310  1.9178
 4251SOL     OW13451   4.669   5.555   2.995  0.7009 -0.0174 -0.1329
 4251SOL    HW113452   4.673   5.472   2.947 -2.2342 -0.0142 -0.5669
 4251SOL    HW213453   4.696   5.621   2.931 -0.0159 -0.3535 -0.8086
 4252SOL     OW13454   6.193   2.388   5.765  1.0089 -0.2099 -0.0712
 4252SOL    HW113455   6.213   2.430   5.848 -0.2247 -0.5926  0.4499
 4252SOL    HW213456   6.229   2.300   5.773 -2.0999 -1.4946  1.5499
 4253SOL     OW13457   5.530   0.701   6.202  0.3290 -0.7355 -0.0557
 4253SOL    HW113458   5.450   0.653   6.178  0.6906 -1.0636 -0.6318
 4253SOL    HW213459   5.565   0.732   6.118  0.3648  0.1219  0.2722
 4254SOL     OW13460   5.151   2.417   3.300  0.3330  0.4471 -0.3549
 4254SOL    HW113461   5.063   2.379   3.302  0.7335 -0.5009 -0.1872
 4254SOL    HW213462   5.169   2.430   3.207  0.6550 -0.9364 -0.5107
 4255SOL     OW13463   2.847   5.743   6.832 -0.2224 -0.2149  0.0274
 4255SOL    HW113464   2.829   5.809   6.899 -2.9058 -0.0388 -0.7442
 4255SOL    HW213465   2.867   5.794   6.753 -2.0999 -0.2530 -0.5187
 4256SOL     OW13466   0.875   6.302   1.781  0.5369  0.1820 -0.4299
 4256SOL    HW113467   0.884   6.242   1.856 -2.0119  2.4705  1.9376
 4256SOL    HW213468   0.796   6.272   1.736  2.1025 -1.2323 -2.4262
 4257SOL     OW13469   2.669   3.056   5.183  0.5975 -1.0658 -0.5606
 4257SOL    HW113470   2.668   3.152   5.174 -0.4350 -1.1318 -1.1748
 4257SOL    HW213471   2.759   3.032   5.161  0.6897 -0.3014 -1.0690
 4258SOL     OW13472   0.051   1.335   2.434 -0.6455 -0.0121  0.0698
 4258SOL    HW113473  -0.028   1.386   2.416  1.5410  2.6528 -3.2868
 4258SOL    HW213474   0.103   1.344   2.354  2.4447 -2.8523  1.5598
 4259SOL     OW13475   6.298   0.672   6.704  0.5601 -0.0899  0.2782
 4259SOL    HW113476   6.382   0.716   6.705  0.1778  0.6554  1.3605
 4259SOL    HW213477   6.315   0.587   6.662  1.3021  1.0519 -1.8564
 4260SOL     OW13478   2.782   7.702   1.465 -0.3320 -0.1881 -0.4511
 4260SOL    HW113479   2.841   7.642   1.419  0.9772  1.3500 -0.8913
 4260SOL    HW213480   2.694   7.675   1.438  0.0749 -2.8802  0.6296
 4261SOL     OW13481   1.898   0.061   5.164  0.5881 -0.1243  0.1554
 4261SOL    HW113482   1.968   0.038   5.102  0.7682  1.5909 -0.3270
 4261SOL    HW213483   1.859   0.140   5.127 -0.3016  0.0765  1.4761
 4262SOL     OW13484   6.342   1.547   6.345 -0.4474  0.6299  1.1387
 4262SOL    HW113485   6.254   1.520   6.320  0.2033 -0.3453 -0.3018
 4262SOL    HW213486   6.376   1.474   6.397  0.2046  0.0416 -0.0660
 4263SOL     OW13487   4.009   0.607   1.652  0.1953  0.2631 -0.6105
 4263SOL    HW113488   3.977   0.550   1.582 -0.0596  0.9054 -1.0227
 4263SOL    HW213489   3.934   0.613   1.712 -0.0709  0.8330 -0.9915
 4264SOL     OW13490   3.525   6.801   3.216  0.5158 -0.0330 -0.1996
 4264SOL    HW113491   3.545   6.892   3.238  2.4467 -0.3230 -0.6300
 4264SOL    HW213492   3.582   6.750   3.273 -1.0344 -1.0417  0.5306
 4265SOL     OW13493   2.652   5.867   1.936  0.4664  0.1775  0.5831
 4265SOL    HW113494   2.694   5.888   2.020  1.0328 -1.2543  0.6910
 4265SOL    HW213495   2.603   5.787   1.954  0.9898 -0.4205 -0.5695
 4266SOL     OW13496   0.049   4.992   1.958 -0.3491 -0.0675 -0.3830
 4266SOL    HW113497   0.124   5.038   1.922 -1.5270  1.3748 -1.0975
 4266SOL    HW213498   0.082   4.904   1.977  1.3023  0.2854 -1.4026
 4267SOL     OW13499   0.271   2.174   0.243 -0.6264 -0.5736 -0.2049
 4267SOL    HW113500   0.188   2.137   0.211  0.1330 -2.3765 -0.2127
 4267SOL    HW213501   0.300   2.112   0.309 -0.1189  0.9675  1.0556
 4268SOL     OW13502   2.598   4.041   1.561  0.3155  0.4530 -0.2387
 4268SOL    HW113503   2.592   4.049   1.656  0.5683  0.5769 -0.2313
 4268SOL    HW213504   2.650   4.117   1.534 -2.8062  2.5442 -0.8694
 4269SOL     OW13505   3.056   4.345   7.488  0.6720 -0.2107 -0.2438
 4269SOL    HW113506   3.104   4.276   7.443  1.6033  0.6247 -0.5725
 4269SOL    HW213507   3.121   4.413   7.504 -0.3373  0.8302 -0.4456
 4270SOL     OW13508   7.680   3.935   3.307 -0.3203 -0.2715 -0.0780
 4270SOL    HW113509   7.590   3.948   3.280 -0.3399  0.3923  0.2947
 4270SOL    HW213510   7.717   3.877   3.240 -0.5831  0.7067 -1.0950
 4271SOL     OW13511   5.111   6.381   0.632 -0.3443  0.4357 -0.1473
 4271SOL    HW113512   5.078   6.302   0.590  1.8519 -1.2807  1.1046
 4271SOL    HW213513   5.125   6.357   0.724 -1.4670  2.9202  0.7854
 4272SOL     OW13514   5.128   7.415   0.289  0.0368 -0.0832 -0.1828
 4272SOL    HW113515   5.155   7.481   0.226 -0.2110 -0.4775 -0.7174
 4272SOL    HW213516   5.210   7.379   0.324  0.2970  3.2060  3.1212
 4273SOL     OW13517   3.388   0.390   3.996 -0.9075  0.0600  0.0668
 4273SOL    HW113518   3.463   0.430   3.953 -0.6882  0.4979  0.8192
 4273SOL    HW213519   3.360   0.456   4.061 -2.2459  0.1181 -0.5303
 4274SOL     OW13520   7.557   2.136   3.576  0.7356 -0.2984  0.1466
 4274SOL    HW113521   7.582   2.061   3.630 -0.7985 -0.2249  1.0063
 4274SOL    HW213522   7.641   2.171   3.544  1.4368 -3.4088 -1.8269
 4275SOL     OW13523   3.842   2.062   1.452  0.0736  0.1877 -0.1576
 4275SOL    HW113524   3.832   2.078   1.358  0.4651 -0.8265 -0.3808
 4275SOL    HW213525   3.920   2.111   1.477  0.7319 -0.5953 -0.6434
 4276SOL     OW13526   5.080   0.331   6.042 -0.1079  0.5538 -0.2496
 4276SOL    HW113527   5.146   0.379   5.991 -0.6054  1.4474 -0.0656
 4276SOL    HW213528   5.020   0.399   6.073 -0.6324 -0.1567  0.3038
 4277SOL     OW13529   1.296   4.247   2.253  0.3214 -0.0552  0.4163
 4277SOL    HW113530   1.320   4.170   2.201 -0.0756  1.1159 -1.5921
 4277SOL    HW213531   1.274   4.314   2.189 -2.7342  0.7309  2.0486
 4278SOL     OW13532   6.998   4.118   1.486  0.2810  0.6110 -0.1687
 4278SOL    HW113533   6.903   4.127   1.479  0.1865  1.5484  1.6518
 4278SOL    HW213534   7.013   4.023   1.488 -0.5628  0.4533 -0.9721
 4279SOL     OW13535   1.149   5.876   4.903 -0.3320 -0.0719  0.0044
 4279SOL    HW113536   1.205   5.914   4.971  0.9386  1.7738 -1.9654
 4279SOL    HW213537   1.173   5.784   4.901  1.5507  0.3773  0.2417
 4280SOL     OW13538   3.147   0.673   7.575 -0.1489  0.0973  0.0186
 4280SOL    HW113539   3.208   0.625   7.519  0.9172  0.0048  1.2194
 4280SOL    HW213540   3.120   0.610   7.642  0.1145  0.7359  0.7472
 4281SOL     OW13541   3.233   6.369   7.157 -0.4808  0.1136 -0.6302
 4281SOL    HW113542   3.230   6.362   7.061  3.1433 -0.8815 -0.8166
 4281SOL    HW213543   3.245   6.462   7.174  1.0497  0.0742 -1.3395
 4282SOL     OW13544   7.766   0.030   6.822  0.0037  0.0367 -0.4799
 4282SOL    HW113545   7.721  -0.019   6.890 -1.3950  0.2676 -1.1948
 4282SOL    HW213546   7.859   0.022   6.843 -0.1886 -2.5546 -0.3289
 4283SOL     OW13547   0.864   4.779   1.180 -0.0727  0.2700 -0.1373
 4283SOL    HW113548   0.786   4.759   1.232 -2.0955 -0.0975 -3.0298
 4283SOL    HW213549   0.933   4.726   1.218 -1.4475 -0.0927  2.0079
 4284SOL     OW13550   5.606   0.313   4.305  0.0587  0.5144  0.0146
 4284SOL    HW113551   5.559   0.236   4.274 -0.6532  0.5839  0.8780
 4284SOL    HW213552   5.606   0.373   4.230 -1.4278  0.5905  0.0496
 4285SOL     OW13553   4.049   2.251   1.466 -0.0251 -0.7411  0.0094
 4285SOL    HW113554   4.133   2.224   1.428  0.4273  0.8535 -0.1962
 4285SOL    HW213555   4.073   2.296   1.548 -0.3849  2.0255 -1.2803
 4286SOL     OW13556   1.633   4.399   1.291  0.2975  0.0028  0.8018
 4286SOL    HW113557   1.654   4.343   1.365  0.5730 -1.1117 -0.0957
 4286SOL    HW213558   1.683   4.362   1.218  0.1412  1.1548  0.0842
 4287SOL     OW13559   4.446   3.199   7.703 -0.0361  0.0360  0.2609
 4287SOL    HW113560   4.351   3.206   7.696 -0.2999 -0.5323  2.4314
 4287SOL    HW213561   4.469   3.258   7.775  1.3485  0.5004 -0.5095
 4288SOL     OW13562   4.566   7.141   4.317  0.2097  0.1415 -0.2679
 4288SOL    HW113563   4.655   7.148   4.284 -0.2321  0.9466 -1.3587
 4288SOL    HW213564   4.550   7.047   4.324  1.6433 -0.0149  1.3992
 4289SOL     OW13565   4.067   7.000   5.226 -0.1329 -0.1887  0.2968
 4289SOL    HW113566   4.095   6.958   5.144 -1.4461 -1.2872  0.3662
 4289SOL    HW213567   3.986   6.954   5.249 -2.4724  3.2883 -0.3036
 4290SOL     OW13568   2.264   7.404   5.138  0.2015 -0.1202 -0.5924
 4290SOL    HW113569   2.262   7.372   5.047 -0.7170  0.5882 -0.8375
 4290SOL    HW213570   2.211   7.484   5.136 -2.4538 -1.6884  1.1704
 4291SOL     OW13571   2.035   7.920   7.338 -0.2848 -0.7350 -0.2677
 4291SOL    HW113572   2.094   7.931   7.412 -0.0472 -0.1814 -0.5351
 4291SOL    HW213573   2.092   7.924   7.261 -0.7785  0.8998 -0.5972
 4292SOL     OW13574   3.178   7.081   4.850 -0.1075 -0.2043  0.4325
 4292SOL    HW113575   3.106   7.143   4.836  0.0300 -0.0587  0.3633
 4292SOL    HW213576   3.135   6.995   4.855 -0.1790 -0.2674 -0.8748
 4293SOL     OW13577   2.072   2.437   4.575  0.1444  0.1870 -0.3530
 4293SOL    HW113578   2.007   2.490   4.622  0.7280  0.3310  0.3237
 4293SOL    HW213579   2.071   2.352   4.620 -0.7360 -0.3716 -1.3867
 4294SOL     OW13580   4.314   4.300   2.764  0.2215  0.5246  0.2879
 4294SOL    HW113581   4.222   4.274   2.758  0.4132 -0.1299  0.0878
 4294SOL    HW213582   4.327   4.360   2.691  0.1594 -0.0235 -0.1724
 4295SOL     OW13583   1.171   2.531   4.270  0.0372 -0.1797  0.0416
 4295SOL    HW113584   1.232   2.468   4.308 -0.0006  0.1255  0.6173
 4295SOL    HW213585   1.097   2.477   4.241  0.0569 -0.4175  0.4225
 4296SOL     OW13586   6.996   3.777   3.818 -0.5084 -0.0938  0.4866
 4296SOL    HW113587   6.990   3.696   3.870  0.5260 -0.2054  0.4503
 4296SOL    HW213588   6.905   3.796   3.794 -0.9678 -0.2940  1.9410
 4297SOL     OW13589   6.120   6.772   5.737  0.0927  0.8874 -0.0827
 4297SOL    HW113590   6.147   6.683   5.758 -0.5689  1.0975  1.9625
 4297SOL    HW213591   6.093   6.769   5.645  0.1649 -0.9959 -0.0742
 4298SOL     OW13592   2.403   6.293   2.060  0.2167 -0.1466  0.2685
 4298SOL    HW113593   2.331   6.354   2.075  1.1082  0.7176  1.1904
 4298SOL    HW213594   2.427   6.262   2.147  0.2752 -1.2470 -0.1228
 4299SOL     OW13595   2.409   0.284   6.513 -0.2887  0.2107 -0.0512
 4299SOL    HW113596   2.483   0.341   6.534  1.0155 -1.5393  0.3679
 4299SOL    HW213597   2.357   0.281   6.594  0.0913  0.1618  0.1927
 4300SOL     OW13598   3.838   2.851   0.999  0.4343  0.3913  0.4974
 4300SOL    HW113599   3.924   2.889   0.980  1.2643 -0.9269  1.4180
 4300SOL    HW213600   3.852   2.757   0.989 -1.0334  0.1956  0.2166
 4301SOL     OW13601   7.078   6.996   4.826 -0.0729 -0.0773  0.4165
 4301SOL    HW113602   7.101   6.983   4.917 -0.9940  1.4934  0.9116
 4301SOL    HW213603   7.062   6.908   4.792 -0.0129 -0.6581  1.8501
 4302SOL     OW13604   6.169   0.301   4.194 -0.1514 -0.6701  0.5495
 4302SOL    HW113605   6.104   0.239   4.228 -0.6045  0.2439  1.4262
 4302SOL    HW213606   6.168   0.289   4.100 -2.8633  0.4730  0.3414
 4303SOL     OW13607   7.316   3.812   6.992  0.2558 -0.3585 -0.5185
 4303SOL    HW113608   7.258   3.855   6.930 -0.1740 -1.2264 -0.7323
 4303SOL    HW213609   7.260   3.749   7.038  0.8036 -0.4844 -0.0081
 4304SOL     OW13610   6.161   0.180   1.830  0.2191  0.3377  0.6867
 4304SOL    HW113611   6.130   0.099   1.789 -2.5094  0.7388  1.8120
 4304SOL    HW213612   6.221   0.150   1.898  0.4508 -0.6342  0.0859
 4305SOL     OW13613   6.778   6.013   2.727  0.5576 -0.0350  0.1782
 4305SOL    HW113614   6.683   6.006   2.719  0.6766 -0.3798 -1.2210
 4305SOL    HW213615   6.805   5.928   2.762  0.3846 -0.1138  0.1261
 4306SOL     OW13616   5.539   6.161   5.494 -0.5409  0.5164 -0.5367
 4306SOL    HW113617   5.550   6.186   5.402 -0.0842 -0.1279 -0.6651
 4306SOL    HW213618   5.450   6.190   5.515 -0.1132  2.0638 -0.7111
 4307SOL     OW13619   7.149   7.070   6.717  0.3221 -0.1219 -0.4327
 4307SOL    HW113620   7.054   7.058   6.725  0.3968  0.5817  2.7800
 4307SOL    HW213621   7.187   6.992   6.758  1.1288  0.2106 -0.5317
 4308SOL     OW13622   7.105   0.496   6.935  0.0500  0.8499  0.4315
 4308SOL    HW113623   7.082   0.577   6.981  0.8145  0.4998  1.4802
 4308SOL    HW213624   7.028   0.441   6.944  0.4014  0.5485  1.9088
 4309SOL     OW13625   1.434   2.829   7.914  0.0329  0.4150  0.4598
 4309SOL    HW113626   1.434   2.736   7.936 -2.0334  0.0989 -0.6451
 4309SOL    HW213627   1.512   2.864   7.958  0.9558 -1.8403  0.7648
 4310SOL     OW13628   5.805   7.345   1.250 -0.6364  0.2069  0.0511
 4310SOL    HW113629   5.741   7.397   1.201  0.1396 -0.8072 -2.1684
 4310SOL    HW213630   5.795   7.256   1.215 -0.1763 -0.6201  1.9340
 4311SOL     OW13631   5.216   5.013   0.536 -0.0379  0.2348  0.9666
 4311SOL    HW113632   5.149   5.064   0.582  0.3144  0.3578  1.3409
 4311SOL    HW213633   5.299   5.045   0.570  0.2642  0.7405 -0.1741
 4312SOL     OW13634   7.579   7.572   5.496  0.7978  0.0605  0.8076
 4312SOL    HW113635   7.618   7.622   5.425  2.1948 -0.9763  0.8035
 4312SOL    HW213636   7.640   7.499   5.511 -0.8438 -1.3056  1.2069
 4313SOL     OW13637   4.311   1.730   7.320 -0.0725 -0.3427 -0.1712
 4313SOL    HW113638   4.313   1.640   7.351  0.8969 -0.7236 -1.2577
 4313SOL    HW213639   4.402   1.750   7.298 -0.3123  0.8201 -0.2052
 4314SOL     OW13640   0.266   2.317   1.601 -0.1491 -0.0049 -0.0474
 4314SOL    HW113641   0.289   2.400   1.558  0.1170  0.7469  1.4751
 4314SOL    HW213642   0.178   2.331   1.634 -0.0326 -0.2615  0.3707
 4315SOL     OW13643   2.126   4.534   5.188  0.4123 -0.1084  0.2717
 4315SOL    HW113644   2.219   4.532   5.208  0.7302 -0.7324 -1.1333
 4315SOL    HW213645   2.119   4.587   5.109 -0.5020  0.3943  0.6713
 4316SOL     OW13646   4.713   6.280   3.196 -0.2565 -0.5695 -0.0646
 4316SOL    HW113647   4.720   6.202   3.250  1.1084 -0.2423  0.2794
 4316SOL    HW213648   4.704   6.352   3.259  1.5249 -0.1671 -0.2216
 4317SOL     OW13649   3.917   6.661   2.922 -0.4085  0.3417 -0.4337
 4317SOL    HW113650   3.974   6.601   2.872  1.2701  1.9182 -0.4982
 4317SOL    HW213651   3.937   6.747   2.887  0.3808  1.4592  2.5298
 4318SOL     OW13652   5.759   5.913   2.569 -0.4119 -0.3422  0.3891
 4318SOL    HW113653   5.774   5.982   2.504 -2.3617  1.0741  1.3283
 4318SOL    HW213654   5.840   5.911   2.621  0.3348  0.0216 -0.7236
 4319SOL     OW13655   2.461   7.764   5.193 -0.0954 -0.1242  0.1763
 4319SOL    HW113656   2.367   7.760   5.174 -0.0947 -1.1041  0.3539
 4319SOL    HW213657   2.468   7.823   5.268 -0.8433 -1.9566  1.7799
 4320SOL     OW13658   5.015   1.382   2.160 -0.2162 -0.3267 -0.2335
 4320SOL    HW113659   5.099   1.340   2.178  0.3004  0.4360 -0.7970
 4320SOL    HW213660   4.981   1.406   2.246  0.1347 -0.6375 -0.0019
 4321SOL     OW13661   6.298   7.373   3.774 -0.0094  0.3294 -0.1700
 4321SOL    HW113662   6.386   7.343   3.795  0.6124  1.3781 -1.1445
 4321SOL    HW213663   6.284   7.449   3.831 -0.8719 -0.6967  1.0208
 4322SOL     OW13664   6.426   1.532   3.979  0.4060  0.0057  0.3223
 4322SOL    HW113665   6.344   1.526   3.930 -0.0825 -0.0678  1.1305
 4322SOL    HW213666   6.453   1.441   3.992  1.2233  0.0425 -0.9010
 4323SOL     OW13667   6.318   2.955   7.490  0.1194 -0.2927  0.1994
 4323SOL    HW113668   6.397   2.946   7.544  1.3390  1.7186 -1.1022
 4323SOL    HW213669   6.319   2.878   7.433  1.6950  0.1340 -0.4022
 4324SOL     OW13670   5.576   6.960   4.263 -0.3193  0.1656 -0.2773
 4324SOL    HW113671   5.580   6.873   4.225 -0.8583 -0.0234  0.0893
 4324SOL    HW213672   5.484   6.972   4.287  0.1776 -0.1308  1.9224
 4325SOL     OW13673   7.927   7.856   2.597 -0.1298 -0.0843  0.0119
 4325SOL    HW113674   7.845   7.904   2.594  0.5553  1.0971 -0.3265
 4325SOL    HW213675   7.953   7.847   2.505 -0.4485 -1.4892  0.0339
 4326SOL     OW13676   6.314   5.122   1.520 -0.0378  0.1690  0.4247
 4326SOL    HW113677   6.294   5.052   1.458  1.7252 -1.1446  1.2376
 4326SOL    HW213678   6.279   5.201   1.479 -0.8989 -0.9817 -1.1730
 4327SOL     OW13679   0.044   1.277   0.961  0.0511 -0.2850  1.2964
 4327SOL    HW113680   0.016   1.263   1.051  0.1444 -2.5834  1.0197
 4327SOL    HW213681   0.126   1.228   0.953  0.3991  0.4395  0.1237
 4328SOL     OW13682   6.194   7.100   1.191 -0.5058 -0.3833  0.1719
 4328SOL    HW113683   6.242   7.048   1.256 -0.3850  0.0778  0.4500
 4328SOL    HW213684   6.150   7.168   1.241 -1.5905 -0.8899 -0.0622
 4329SOL     OW13685   5.582   4.730   3.778 -0.6810  0.0893 -0.1835
 4329SOL    HW113686   5.647   4.777   3.831 -0.4747  0.5967 -0.8656
 4329SOL    HW213687   5.612   4.741   3.688 -0.3631 -1.8066 -0.3348
 4330SOL     OW13688   5.443   7.898   1.268 -0.5695  0.1670  0.0534
 4330SOL    HW113689   5.420   7.806   1.259 -0.8345  0.1585  0.7597
 4330SOL    HW213690   5.362   7.945   1.251 -0.2813  0.3053 -0.9677
 4331SOL     OW13691   3.348   1.654   6.957  0.1609 -0.2680  0.0989
 4331SOL    HW113692   3.280   1.684   6.897  1.2153  2.1758 -0.0007
 4331SOL    HW213693   3.309   1.665   7.044  0.7344  2.3607  0.1226
 4332SOL     OW13694   3.286   3.230   2.229  0.2936 -0.2628  0.6199
 4332SOL    HW113695   3.210   3.283   2.205  1.1124  1.0918  0.8608
 4332SOL    HW213696   3.286   3.231   2.325  1.0516  0.4426  0.6249
 4333SOL     OW13697   7.010   0.030   5.951 -0.4500  0.2356 -0.3143
 4333SOL    HW113698   6.990   0.093   5.881 -0.6195 -0.4603 -0.9111
 4333SOL    HW213699   6.964  -0.050   5.924 -0.8406  0.0760  0.8034
 4334SOL     OW13700   2.468   0.376   5.837 -0.1198  0.2017  0.3380
 4334SOL    HW113701   2.452   0.287   5.869  0.1631  0.2540  0.6323
 4334SOL    HW213702   2.560   0.376   5.812 -0.8771 -0.5875 -2.9272
 4335SOL     OW13703   0.693   3.871   3.053 -0.0107  0.0818 -0.0597
 4335SOL    HW113704   0.729   3.796   3.100 -0.5954 -0.8489 -1.0321
 4335SOL    HW213705   0.642   3.832   2.981 -1.5591  1.3552  0.2748
 4336SOL     OW13706   2.679   0.090   2.412 -0.2636 -0.1918  0.2631
 4336SOL    HW113707   2.601   0.139   2.387 -0.4564 -0.2781  0.6737
 4336SOL    HW213708   2.703   0.125   2.498  0.6224  0.3893 -0.2066
 4337SOL     OW13709   4.819   5.550   3.634  0.0868 -0.2071  0.2783
 4337SOL    HW113710   4.826   5.637   3.674 -0.1761  0.0282 -0.1807
 4337SOL    HW213711   4.858   5.491   3.698 -1.6238 -0.0436  1.5596
 4338SOL     OW13712   2.579   0.573   1.903 -0.2356  0.0082 -0.1722
 4338SOL    HW113713   2.669   0.564   1.935  0.0346  0.4772 -0.7787
 4338SOL    HW213714   2.584   0.644   1.838 -1.4040  1.3782  1.1736
 4339SOL     OW13715   3.332   1.462   6.669 -0.0528 -0.1808  0.0761
 4339SOL    HW113716   3.284   1.538   6.636  1.9685  0.2089 -2.3180
 4339SOL    HW213717   3.276   1.387   6.649  0.0963  0.2782 -2.4108
 4340SOL     OW13718   4.228   0.499   6.935 -0.3110  0.0745 -0.0649
 4340SOL    HW113719   4.190   0.480   6.850 -0.2940 -0.0541 -0.0436
 4340SOL    HW213720   4.238   0.414   6.977  0.1910  0.0865 -0.1534
 4341SOL     OW13721   0.968   6.900   0.364  0.1969  0.1780 -0.0172
 4341SOL    HW113722   0.930   6.907   0.277  2.3966  0.9563 -0.9920
 4341SOL    HW213723   1.011   6.814   0.365  1.6435  0.8678 -0.3773
 4342SOL     OW13724   0.942   7.544   6.089  1.4562  0.5405 -0.1925
 4342SOL    HW113725   0.901   7.623   6.052  0.3462  0.3507  0.5929
 4342SOL    HW213726   0.992   7.576   6.164  1.3895  0.5563 -0.1547
 4343SOL     OW13727   1.990   7.813   6.447 -0.4704  0.6985 -0.3294
 4343SOL    HW113728   1.914   7.826   6.504 -1.7387 -0.5796 -1.6519
 4343SOL    HW213729   2.063   7.804   6.508 -1.9482 -1.9387  1.3039
 4344SOL     OW13730   0.905   6.301   2.901 -0.4765  0.7431  0.6110
 4344SOL    HW113731   0.828   6.245   2.893  0.1948  0.0871 -2.0687
 4344SOL    HW213732   0.875   6.374   2.956 -2.1981 -0.7761  1.8308
 4345SOL     OW13733   4.384   4.008   1.229  0.5832  0.5295 -0.1786
 4345SOL    HW113734   4.340   4.044   1.305 -0.9301 -0.2571 -0.6484
 4345SOL    HW213735   4.345   3.921   1.217  1.1482  0.4360 -1.5466
 4346SOL     OW13736   5.850   6.881   7.516 -0.4921  0.8554  0.5212
 4346SOL    HW113737   5.866   6.865   7.423 -1.9120 -2.0945  0.6558
 4346SOL    HW213738   5.918   6.831   7.561 -1.0520  0.5670  1.0577
 4347SOL     OW13739   7.759   7.124   0.310 -0.5710 -0.1756  0.9293
 4347SOL    HW113740   7.804   7.208   0.299  0.0009 -0.6280 -0.5066
 4347SOL    HW213741   7.687   7.142   0.370 -2.1244  1.9817 -1.4251
 4348SOL     OW13742   0.405   3.554   5.774  0.1594  0.8085  0.8274
 4348SOL    HW113743   0.445   3.598   5.849 -0.0804  2.9197 -0.1942
 4348SOL    HW213744   0.311   3.554   5.794  0.1155  1.1823  0.6232
 4349SOL     OW13745   6.123   1.621   2.250 -0.1431  0.2407 -0.0948
 4349SOL    HW113746   6.095   1.553   2.189  0.0924  0.9118 -0.9603
 4349SOL    HW213747   6.085   1.594   2.334 -0.1365 -0.8986 -0.4373
 4350SOL     OW13748   4.047   5.924   7.269 -0.4597  0.1588 -0.3133
 4350SOL    HW113749   4.092   5.840   7.262 -0.9171  0.0050 -1.6600
 4350SOL    HW213750   4.115   5.985   7.299 -0.1582 -0.6964  0.8046
 4351SOL     OW13751   2.184   2.611   0.853 -0.2571 -0.1010  0.4711
 4351SOL    HW113752   2.232   2.616   0.935 -2.4681  2.6132  1.7480
 4351SOL    HW213753   2.178   2.702   0.822  0.8867 -1.0275 -3.0374
 4352SOL     OW13754   6.162   3.164   0.091 -0.6294 -0.2663  0.2560
 4352SOL    HW113755   6.069   3.186   0.100 -0.4545  0.8307 -0.5178
 4352SOL    HW213756   6.163   3.068   0.088 -1.9162 -0.2659 -1.4432
 4353SOL     OW13757   3.453   0.437   7.293  0.3948 -0.3993 -0.6369
 4353SOL    HW113758   3.381   0.382   7.323 -0.7061  1.6259  0.6676
 4353SOL    HW213759   3.532   0.389   7.315 -0.5263 -1.8945 -0.4860
 4354SOL     OW13760   7.963   0.879   5.342 -0.1283  0.0167  0.6535
 4354SOL    HW113761   7.986   0.822   5.268  0.5525  2.5372 -1.2126
 4354SOL    HW213762   7.899   0.828   5.392 -0.3101 -1.9750 -1.4289
 4355SOL     OW13763   2.602   3.870   1.362 -0.0360 -0.2457  0.2586
 4355SOL    HW113764   2.636   3.937   1.421 -0.6323  1.0903 -0.8633
 4355SOL    HW213765   2.593   3.792   1.417 -0.1134  0.8092  1.7986
 4356SOL     OW13766   5.655   6.965   3.122  0.1972 -0.3226  0.4882
 4356SOL    HW113767   5.749   6.976   3.108  0.0225 -0.3063 -0.7881
 4356SOL    HW213768   5.615   6.990   3.039 -0.8246 -2.1584  0.3742
 4357SOL     OW13769   5.114   5.316   5.401  0.1280  0.4254  0.2035
 4357SOL    HW113770   5.158   5.332   5.484  2.4033  1.5780 -1.1407
 4357SOL    HW213771   5.184   5.292   5.340 -1.3213  0.6179 -1.6552
 4358SOL     OW13772   1.693   5.154   6.794  0.1311  0.1777 -0.3050
 4358SOL    HW113773   1.632   5.226   6.776 -0.7727  0.2413  2.4789
 4358SOL    HW213774   1.778   5.197   6.804 -0.2212  0.7655  0.3015
 4359SOL     OW13775   5.485   3.370   6.189  0.7891  0.2922 -0.2582
 4359SOL    HW113776   5.430   3.315   6.245  3.6906  0.0285  2.6463
 4359SOL    HW213777   5.457   3.459   6.208  0.2795  0.1002 -0.0906
 4360SOL     OW13778   7.235   3.173   2.241 -0.1198  0.0291  0.8771
 4360SOL    HW113779   7.325   3.166   2.211  0.1996 -2.5637  2.2442
 4360SOL    HW213780   7.241   3.179   2.336 -1.4028  0.0341  0.9757
 4361SOL     OW13781   2.120   7.229   6.433 -0.1490  0.1955  0.3585
 4361SOL    HW113782   2.172   7.282   6.372 -1.5866  1.2304 -0.0591
 4361SOL    HW213783   2.075   7.166   6.376  1.9316 -1.8834  0.9098
 4362SOL     OW13784   0.840   0.767   6.645 -0.6132  0.6593  0.4832
 4362SOL    HW113785   0.851   0.795   6.736 -1.0045 -0.3958  0.8700
 4362SOL    HW213786   0.812   0.676   6.651  2.1840 -0.4046 -0.7409
 4363SOL     OW13787   4.180   1.367   0.754 -0.0745  0.2525  0.1580
 4363SOL    HW113788   4.129   1.285   0.751  0.7951 -0.2741 -1.5910
 4363SOL    HW213789   4.119   1.434   0.723 -0.0399 -0.1923 -0.9075
 4364SOL     OW13790   2.946   3.202   7.004  0.2489  0.3652 -0.0760
 4364SOL    HW113791   3.030   3.237   7.034  0.9878 -0.4195 -1.1518
 4364SOL    HW213792   2.924   3.136   7.070  0.1170  1.0621  0.5882
 4365SOL     OW13793   6.264   2.700   3.345  0.1091 -0.0315 -0.3208
 4365SOL    HW113794   6.173   2.711   3.318  0.3918 -0.6973 -1.6558
 4365SOL    HW213795   6.259   2.678   3.438 -1.3545 -3.0537 -0.9795
 4366SOL     OW13796   5.209   2.417   2.517 -0.0158  0.6064 -0.0434
 4366SOL    HW113797   5.175   2.343   2.567  0.4443  0.9535  0.8144
 4366SOL    HW213798   5.185   2.494   2.569 -0.6002  1.0844 -0.9824
 4367SOL     OW13799   4.602   6.759   3.409  0.7388  1.6994 -0.3278
 4367SOL    HW113800   4.515   6.737   3.445  1.2303 -0.5071 -0.3441
 4367SOL    HW213801   4.603   6.855   3.405 -1.4748  1.7951  0.2121
 4368SOL     OW13802   4.890   4.692   7.006  0.2960 -0.7683 -0.4914
 4368SOL    HW113803   4.902   4.606   7.047 -1.3086 -1.0600 -0.5640
 4368SOL    HW213804   4.929   4.681   6.919  1.3511 -0.9652 -0.0148
 4369SOL     OW13805   3.894   0.543   0.615 -0.3373  0.1304 -0.1755
 4369SOL    HW113806   3.872   0.485   0.688 -0.9909 -1.1674 -1.3593
 4369SOL    HW213807   3.850   0.626   0.637  0.4745  0.1667  1.4564
 4370SOL     OW13808   1.671   6.259   4.193  0.0634 -0.3187  0.3551
 4370SOL    HW113809   1.583   6.220   4.198 -0.6448  1.0753 -0.7154
 4370SOL    HW213810   1.658   6.342   4.148  1.8322  0.2851  0.8950
 4371SOL     OW13811   3.139   6.346   4.504 -0.0854  0.2005 -0.5471
 4371SOL    HW113812   3.198   6.352   4.580 -1.0208 -1.8600  0.4225
 4371SOL    HW213813   3.194   6.368   4.429  1.4704  0.0647  0.5087
 4372SOL     OW13814   2.817   0.375   6.742  0.8872  0.5817 -0.0713
 4372SOL    HW113815   2.772   0.354   6.660 -1.6279 -0.8076  1.5139
 4372SOL    HW213816   2.770   0.451   6.776  1.6914  0.9418  0.2662
 4373SOL     OW13817   1.275   7.568   1.672  0.2997  0.0971  0.2729
 4373SOL    HW113818   1.324   7.639   1.629  1.0990  0.4308  1.6851
 4373SOL    HW213819   1.232   7.611   1.746 -0.5451 -0.5957  0.1984
 4374SOL     OW13820   3.464   2.626   5.004 -0.3336  0.5524 -0.4914
 4374SOL    HW113821   3.461   2.549   4.947  0.3162 -0.3487  0.6459
 4374SOL    HW213822   3.379   2.668   4.992 -0.7340 -0.3900 -1.0806
 4375SOL     OW13823   6.826   0.568   2.032 -0.5903 -0.1027  0.1570
 4375SOL    HW113824   6.733   0.590   2.036 -0.4270  0.7603 -0.3444
 4375SOL    HW213825   6.861   0.628   1.965  0.3458 -0.3229  0.4412
 4376SOL     OW13826   3.125   4.432   5.645  0.3241  0.1711  0.7498
 4376SOL    HW113827   3.151   4.479   5.724  2.3957  0.0756  0.1870
 4376SOL    HW213828   3.106   4.501   5.581  1.7545  0.2986  0.4209
 4377SOL     OW13829   4.771   1.695   4.646  0.8037  0.0706 -0.4688
 4377SOL    HW113830   4.807   1.743   4.721  0.6439 -0.3029 -0.1465
 4377SOL    HW213831   4.809   1.738   4.570 -0.0365  1.2842 -0.2309
 4378SOL     OW13832   7.381   5.405   3.865  0.6899  0.0443 -0.6294
 4378SOL    HW113833   7.372   5.436   3.955  1.8625 -0.9043 -0.1598
 4378SOL    HW213834   7.315   5.455   3.816 -0.6939 -0.1535  0.9160
 4379SOL     OW13835   0.338   2.206   7.175  0.4416  0.4309  0.1322
 4379SOL    HW113836   0.338   2.127   7.121  0.8961 -0.0378  0.8087
 4379SOL    HW213837   0.429   2.236   7.173  0.3694  0.6611  0.2803
 4380SOL     OW13838   6.044   3.537   1.505  0.3908  0.1009  0.4188
 4380SOL    HW113839   5.963   3.551   1.554 -0.6916 -0.4544 -1.1541
 4380SOL    HW213840   6.058   3.442   1.509  1.5054  0.2832  1.4667
 4381SOL     OW13841   0.566   2.165   2.134  0.4453  0.2475  0.2953
 4381SOL    HW113842   0.613   2.104   2.192  2.6504  0.6603 -0.9678
 4381SOL    HW213843   0.565   2.121   2.049 -1.3165  0.3647  0.2174
 4382SOL     OW13844   0.389   5.731   2.563 -0.1353  0.0685 -0.8211
 4382SOL    HW113845   0.459   5.761   2.505 -0.3356 -0.0401 -1.1235
 4382SOL    HW213846   0.398   5.636   2.565 -1.3307 -0.1035 -2.2499
 4383SOL     OW13847   0.279   3.549   4.252  0.6118 -0.0406 -0.3442
 4383SOL    HW113848   0.293   3.456   4.270 -0.4522 -0.2990 -0.8114
 4383SOL    HW213849   0.227   3.551   4.172 -0.0535  0.9357  0.0950
 4384SOL     OW13850   4.176   7.468   2.599 -0.3664  0.0296 -0.0505
 4384SOL    HW113851   4.266   7.442   2.578 -0.8675 -0.8755 -1.2053
 4384SOL    HW213852   4.125   7.389   2.584 -1.3211  0.4141  1.0051
 4385SOL     OW13853   2.329   2.901   3.591 -0.3206  0.0286  0.2364
 4385SOL    HW113854   2.369   2.814   3.597  0.3660  0.4524  3.3320
 4385SOL    HW213855   2.236   2.884   3.578 -0.8631 -1.4683  4.5040
 4386SOL     OW13856   6.397   3.454   2.653  0.3727 -0.1178 -0.2276
 4386SOL    HW113857   6.439   3.528   2.609  0.6546 -0.5828 -0.7517
 4386SOL    HW213858   6.457   3.381   2.640  0.1134 -0.4358  0.3175
 4387SOL     OW13859   7.736   7.249   5.743  0.1785  0.1019 -0.2576
 4387SOL    HW113860   7.681   7.181   5.705  1.0166 -0.9666  0.3881
 4387SOL    HW213861   7.759   7.306   5.670  0.8192 -1.2532 -1.1477
 4388SOL     OW13862   5.890   7.208   3.367  0.3570  0.2843 -0.5675
 4388SOL    HW113863   5.953   7.244   3.429 -0.0113  0.0739 -0.0620
 4388SOL    HW213864   5.914   7.247   3.283  0.7979  0.6512 -0.2771
 4389SOL     OW13865   6.319   6.631   0.234 -0.2691 -0.1773  0.5293
 4389SOL    HW113866   6.225   6.613   0.244 -0.4097  0.5379  0.5186
 4389SOL    HW213867   6.329   6.653   0.141  0.3126 -2.5111 -0.0370
 4390SOL     OW13868   0.665   0.026   4.449  0.4274 -0.0006 -0.1116
 4390SOL    HW113869   0.732   0.062   4.391  1.8346  0.9154  1.9684
 4390SOL    HW213870   0.671  -0.068   4.437 -1.4661  0.1262 -3.6451
 4391SOL     OW13871   2.182   0.842   1.284 -0.1145  0.0370  0.0955
 4391SOL    HW113872   2.255   0.885   1.329 -0.0890  1.2655 -1.0514
 4391SOL    HW213873   2.118   0.912   1.271 -0.4045 -0.4405 -1.1548
 4392SOL     OW13874   3.792   3.052   6.989 -0.5838  0.2753  0.6906
 4392SOL    HW113875   3.835   3.137   6.979 -1.2790  0.6683  0.9713
 4392SOL    HW213876   3.829   2.998   6.919  0.2691  0.6356  0.8592
 4393SOL     OW13877   6.579   2.903   6.293 -0.1704  0.4546 -0.0015
 4393SOL    HW113878   6.646   2.921   6.359  1.2387 -0.5621 -1.0976
 4393SOL    HW213879   6.497   2.928   6.335  0.9290  2.4269  1.1372
 4394SOL     OW13880   5.823   2.025   3.087 -0.3461  0.5145  0.7242
 4394SOL    HW113881   5.753   1.967   3.057 -0.7255  0.0207  2.4906
 4394SOL    HW213882   5.777   2.101   3.122 -0.2545 -0.9414  4.3744
 4395SOL     OW13883   5.003   2.457   4.020  0.5905 -0.1545  0.7058
 4395SOL    HW113884   5.091   2.456   4.057  1.2588  1.3742 -0.7221
 4395SOL    HW213885   4.977   2.549   4.020 -0.6410 -0.4730  0.2602
 4396SOL     OW13886   1.900   5.294   1.763 -0.2430 -0.3305 -0.2045
 4396SOL    HW113887   1.923   5.303   1.856 -0.8126  0.1803 -0.1074
 4396SOL    HW213888   1.823   5.350   1.752 -0.3356 -0.5935 -0.9285
 4397SOL     OW13889   3.494   0.143   4.061  0.3172  0.2461 -0.1330
 4397SOL    HW113890   3.440   0.217   4.087  1.7573  1.8948 -1.5821
 4397SOL    HW213891   3.569   0.146   4.121 -0.4431 -1.1459  0.9335
 4398SOL     OW13892   0.819   2.425   7.471 -0.6816 -0.3654  0.1660
 4398SOL    HW113893   0.816   2.449   7.563 -2.0054  0.8793 -0.1592
 4398SOL    HW213894   0.741   2.370   7.458 -1.3685  0.7075 -0.4845
 4399SOL     OW13895   6.694   3.895   3.162 -0.1226 -0.4774 -0.3239
 4399SOL    HW113896   6.662   3.897   3.252  1.0015  0.5876  0.0744
 4399SOL    HW213897   6.786   3.921   3.168  0.6336 -2.6029 -1.5274
 4400SOL     OW13898   6.741   5.989   4.501  0.4404 -0.2594  0.0722
 4400SOL    HW113899   6.654   5.994   4.460  1.0225 -0.0300 -1.1933
 4400SOL    HW213900   6.732   6.034   4.584 -0.5056  0.3008 -0.3241
 4401SOL     OW13901   3.859   1.708   3.906 -0.0879 -0.1263  0.2035
 4401SOL    HW113902   3.806   1.750   3.837 -0.9327 -0.0509  0.8833
 4401SOL    HW213903   3.915   1.646   3.859 -0.2612  0.3194 -0.6072
 4402SOL     OW13904   5.823   0.870   7.911 -0.0991 -0.1450 -0.2108
 4402SOL    HW113905   5.825   0.961   7.938  0.9170  0.0504 -0.8622
 4402SOL    HW213906   5.758   0.867   7.841  0.2759  0.2188 -0.5855
 4403SOL     OW13907   5.954   0.744   0.444  0.3158 -0.1711 -0.2326
 4403SOL    HW113908   5.963   0.655   0.410 -1.3066 -0.5818  0.2903
 4403SOL    HW213909   5.918   0.733   0.532  1.3211  0.9698  0.3531
 4404SOL     OW13910   7.517   5.326   3.469 -0.1642 -0.1650 -0.3864
 4404SOL    HW113911   7.469   5.279   3.538 -0.4570  0.2103 -0.3336
 4404SOL    HW213912   7.523   5.416   3.501 -0.3332  0.0203 -0.8712
 4405SOL     OW13913   5.286   0.007   3.975 -0.3031 -0.0614  0.5995
 4405SOL    HW113914   5.258  -0.066   4.030 -0.3151 -0.1437  0.4832
 4405SOL    HW213915   5.264  -0.020   3.886  0.9049 -0.4760  0.4104
 4406SOL     OW13916   3.879   7.306   4.637  0.0419 -0.0323  0.2324
 4406SOL    HW113917   3.801   7.262   4.672  1.6398 -1.6486  1.9932
 4406SOL    HW213918   3.907   7.250   4.565  1.9294 -1.9887  2.3141
 4407SOL     OW13919   6.968   5.556   6.149  0.7375  0.0320 -0.0198
 4407SOL    HW113920   7.030   5.519   6.211  0.7382 -0.7345 -0.4666
 4407SOL    HW213921   6.990   5.516   6.065  0.0515  0.2285 -0.3061
 4408SOL     OW13922   3.407   1.643   0.047  0.0941 -0.4345 -0.3229
 4408SOL    HW113923   3.315   1.617   0.052 -0.3991  1.0876 -1.0238
 4408SOL    HW213924   3.428   1.673   0.136 -0.3737  0.0837 -0.3811
 4409SOL     OW13925   2.978   4.630   7.631 -0.4390 -0.1388 -0.0338
 4409SOL    HW113926   3.069   4.652   7.652 -1.0451  2.0533  0.5428
 4409SOL    HW213927   2.955   4.685   7.557 -1.1920 -0.9979 -0.4740
 4410SOL     OW13928   1.144   2.149   1.904 -0.1466  0.5674 -0.1397
 4410SOL    HW113929   1.131   2.243   1.890  0.8450  0.6027 -1.0104
 4410SOL    HW213930   1.101   2.130   1.987  0.6941  2.0596  0.6818
 4411SOL     OW13931   2.541   4.895   2.422  0.1157  0.6456 -0.7018
 4411SOL    HW113932   2.576   4.845   2.348 -2.0831 -1.6523 -0.3493
 4411SOL    HW213933   2.486   4.962   2.382 -0.3015  0.0226 -1.1925
 4412SOL     OW13934   6.500   1.529   0.081 -0.4917 -0.1660  0.1631
 4412SOL    HW113935   6.487   1.586   0.005  1.1073  1.9992  1.4068
 4412SOL    HW213936   6.589   1.494   0.070  0.1814  1.0228  1.4938
 4413SOL     OW13937   7.503   6.256   0.989  0.1122  0.0576  1.0098
 4413SOL    HW113938   7.535   6.240   1.078  0.6167  2.4510  1.3067
 4413SOL    HW213939   7.467   6.344   0.992 -1.2018 -0.3613 -0.8289
 4414SOL     OW13940   7.343   1.418   3.995 -0.1498  0.3274  0.1812
 4414SOL    HW113941   7.263   1.448   4.038 -0.0909 -1.1860  1.4554
 4414SOL    HW213942   7.410   1.480   4.023 -0.1510 -0.5216  2.2296
 4415SOL     OW13943   4.176   2.422   5.808 -0.3179 -0.0252 -0.3326
 4415SOL    HW113944   4.112   2.368   5.761  0.2220 -0.4399 -0.5926
 4415SOL    HW213945   4.227   2.360   5.859  1.0681  0.0853 -1.5186
 4416SOL     OW13946   6.992   1.073   7.031  0.4074 -0.5150  0.0123
 4416SOL    HW113947   7.052   1.147   7.028  0.1255 -0.1121  2.3529
 4416SOL    HW213948   7.044   1.001   7.066  0.2722 -1.0238 -0.7971
 4417SOL     OW13949   4.939   6.272   2.563  0.3230  0.3147 -0.0361
 4417SOL    HW113950   4.943   6.352   2.511 -0.4868 -0.8835 -2.0521
 4417SOL    HW213951   4.954   6.202   2.500 -1.0053 -1.2498  1.3100
 4418SOL     OW13952   2.722   5.752   7.362 -0.2391  0.1345 -0.2660
 4418SOL    HW113953   2.799   5.780   7.313 -0.5907 -1.1895 -1.6476
 4418SOL    HW213954   2.721   5.808   7.440  0.8082  1.7318 -1.3497
 4419SOL     OW13955   7.346   5.517   0.756  0.2925  0.4097 -0.1726
 4419SOL    HW113956   7.371   5.491   0.845  0.5989 -0.5947 -0.5351
 4419SOL    HW213957   7.422   5.563   0.722 -0.0179  1.2691  0.2512
 4420SOL     OW13958   4.154   0.850   4.512 -0.1891 -0.5585  1.1708
 4420SOL    HW113959   4.069   0.810   4.495 -0.8158  2.1081 -4.3169
 4420SOL    HW213960   4.133   0.938   4.545  0.3655  0.0389 -0.0093
 4421SOL     OW13961   7.234   3.694   7.949  0.3190  0.0471  0.6965
 4421SOL    HW113962   7.288   3.773   7.938  2.2261 -1.4016 -1.1204
 4421SOL    HW213963   7.150   3.716   7.908  1.1061  0.8831 -0.5165
 4422SOL     OW13964   5.036   4.087   4.299  0.2447  0.3146  0.4399
 4422SOL    HW113965   4.959   4.099   4.244  1.3446  2.4852 -0.7580
 4422SOL    HW213966   5.063   4.176   4.324  1.5093 -0.4595  2.0653
 4423SOL     OW13967   3.490   7.085   6.401 -0.3638 -0.5464 -0.4212
 4423SOL    HW113968   3.470   7.081   6.494 -1.3616  1.6985 -0.4823
 4423SOL    HW213969   3.440   7.012   6.363 -1.2080 -0.5274  0.5959
 4424SOL     OW13970   3.895   4.587   2.093 -0.4317  0.6083  0.1743
 4424SOL    HW113971   3.866   4.515   2.037 -0.3697  0.7614 -0.0601
 4424SOL    HW213972   3.974   4.621   2.050 -0.8278  1.2323 -0.0869
 4425SOL     OW13973   4.262   0.252   7.020 -0.3900  0.0085 -0.4779
 4425SOL    HW113974   4.223   0.166   7.008 -0.2374 -0.1395  0.0575
 4425SOL    HW213975   4.286   0.255   7.113 -3.7989  2.0497  0.5325
 4426SOL     OW13976   2.926   0.637   2.983 -0.4700  0.6501  0.1258
 4426SOL    HW113977   2.897   0.689   2.908 -1.6708  1.0960  0.8635
 4426SOL    HW213978   3.021   0.645   2.982 -0.5449  1.7081 -0.6011
 4427SOL     OW13979   7.449   1.250   2.668 -0.4019 -0.3383  0.0118
 4427SOL    HW113980   7.443   1.340   2.701 -0.1902 -0.7309  1.1806
 4427SOL    HW213981   7.542   1.241   2.643 -0.3415 -0.3487  0.2391
 4428SOL     OW13982   1.472   1.116   5.517 -0.2249 -0.2496  0.5350
 4428SOL    HW113983   1.409   1.107   5.445 -0.2330  1.9468  0.1817
 4428SOL    HW213984   1.437   1.189   5.569  0.7187 -0.6441  1.7557
 4429SOL     OW13985   1.380   0.729   5.617  0.2213 -0.5504  0.1142
 4429SOL    HW113986   1.417   0.645   5.644 -0.1507 -0.3212  1.3945
 4429SOL    HW213987   1.360   0.774   5.699 -0.1790  0.5316 -0.5548
 4430SOL     OW13988   0.414   2.643   4.613  0.8895  0.0910 -0.6199
 4430SOL    HW113989   0.489   2.699   4.635 -0.9018  2.1105  0.7103
 4430SOL    HW213990   0.399   2.592   4.693 -0.5534  1.4084 -0.0182
 4431SOL     OW13991   1.670   6.962   2.591 -0.6277  0.1125 -0.3484
 4431SOL    HW113992   1.765   6.958   2.585 -0.7053 -0.4491 -1.3347
 4431SOL    HW213993   1.652   7.045   2.636  0.3159  0.2779 -0.2693
 4432SOL     OW13994   2.769   3.149   4.586  0.1654  0.0948  0.8302
 4432SOL    HW113995   2.810   3.216   4.642  1.4609 -0.2089  0.2734
 4432SOL    HW213996   2.814   3.157   4.502 -0.5005 -0.6858  0.3842
 4433SOL     OW13997   1.888   0.050   3.832  0.0407  0.4641 -0.0692
 4433SOL    HW113998   1.955   0.059   3.764  0.4053  0.6998  0.3125
 4433SOL    HW213999   1.893   0.132   3.881  0.8631 -0.3180  1.2026
 4434SOL     OW14000   6.410   0.374   0.048 -0.6347  0.0653  0.0154
 4434SOL    HW114001   6.424   0.387  -0.046 -2.2677 -1.5623 -0.5083
 4434SOL    HW214002   6.316   0.366   0.058 -0.3927 -1.7403  1.4843
 4435SOL     OW14003   6.652   1.828   2.545 -0.3734 -0.0088 -1.1468
 4435SOL    HW114004   6.634   1.776   2.624  0.2110 -1.5322 -1.9660
 4435SOL    HW214005   6.570   1.874   2.527 -0.3843  0.7209  0.5826
 4436SOL     OW14006   2.542   2.248   0.967  0.0226  0.0987  0.8702
 4436SOL    HW114007   2.483   2.296   1.026  0.4864  1.0428  0.5739
 4436SOL    HW214008   2.606   2.208   1.025 -1.0737 -1.2183  1.2306
 4437SOL     OW14009   1.717   1.359   1.106  0.2736 -0.1746  0.7114
 4437SOL    HW114010   1.688   1.449   1.092 -1.3118 -0.2999  2.6747
 4437SOL    HW214011   1.641   1.315   1.145  0.7407 -2.5973 -0.9039
 4438SOL     OW14012   0.449   3.259   6.680 -0.2188 -0.0963  0.8533
 4438SOL    HW114013   0.464   3.296   6.593 -1.1227  1.7882  1.4435
 4438SOL    HW214014   0.397   3.180   6.664  1.3154 -0.9061 -0.4268
 4439SOL     OW14015   6.571   5.425   3.641 -0.3033  0.4208 -0.5400
 4439SOL    HW114016   6.519   5.505   3.643 -0.5539  0.2883  2.1012
 4439SOL    HW214017   6.612   5.421   3.727  1.5025 -1.1704 -1.3995
 4440SOL     OW14018   6.984   1.647   7.445  0.6863 -0.4248 -0.7456
 4440SOL    HW114019   7.003   1.556   7.422 -0.8047 -0.6369 -1.2509
 4440SOL    HW214020   6.959   1.688   7.363 -0.8617 -0.1709 -0.1978
 4441SOL     OW14021   2.300   5.184   5.108  0.3587 -0.5648  0.0222
 4441SOL    HW114022   2.263   5.270   5.130 -0.4434 -0.4871 -1.4809
 4441SOL    HW214023   2.243   5.122   5.154 -2.2019 -0.4757 -2.7144
 4442SOL     OW14024   2.149   0.267   6.105  0.4562  0.3206 -0.0086
 4442SOL    HW114025   2.156   0.259   6.010  0.5416  0.3798 -0.0067
 4442SOL    HW214026   2.223   0.217   6.139  0.0505 -0.2670  0.0432
 4443SOL     OW14027   5.829   0.317   0.535  0.3326 -0.3345 -0.6119
 4443SOL    HW114028   5.874   0.259   0.596  0.3975  0.3492  0.0097
 4443SOL    HW214029   5.760   0.263   0.497 -2.1140  0.0870  2.7427
 4444SOL     OW14030   7.041   7.112   0.443 -0.2798  0.4130  0.1958
 4444SOL    HW114031   7.060   7.152   0.358 -0.5822 -2.4017 -1.3106
 4444SOL    HW214032   6.947   7.126   0.455 -0.6132 -0.7104 -0.8662
 4445SOL     OW14033   2.662   2.553   7.640  0.2751 -0.2222 -0.5559
 4445SOL    HW114034   2.568   2.545   7.630 -0.2298  1.6020  1.7022
 4445SOL    HW214035   2.683   2.497   7.716  1.1012 -0.8995 -1.2574
 4446SOL     OW14036   4.166   2.581   1.634  0.0884 -0.4641 -0.4387
 4446SOL    HW114037   4.105   2.633   1.686 -2.1001 -0.3494 -2.8705
 4446SOL    HW214038   4.252   2.618   1.653 -0.8266  0.8399  1.5027
 4447SOL     OW14039   6.284   7.038   4.188 -0.4979 -0.5851  0.0669
 4447SOL    HW114040   6.230   7.040   4.267 -1.9984 -0.2189 -0.9478
 4447SOL    HW214041   6.298   6.944   4.171 -1.7146 -0.7194 -0.2483
 4448SOL     OW14042   3.519   4.031   4.608 -0.2508  0.5032 -0.1847
 4448SOL    HW114043   3.442   3.984   4.578  0.3054 -0.7618  0.3080
 4448SOL    HW214044   3.562   4.061   4.527 -0.8898  0.6354 -0.4797
 4449SOL     OW14045   4.291   7.124   0.538  0.0706 -0.1006 -0.3168
 4449SOL    HW114046   4.324   7.200   0.490  2.0779 -0.9634 -0.3940
 4449SOL    HW214047   4.203   7.149   0.564 -0.4009  1.1269 -2.8061
 4450SOL     OW14048   2.029   0.033   3.613 -0.0915 -0.0278  0.5792
 4450SOL    HW114049   2.009   0.119   3.575  1.0651  0.1974  0.4333
 4450SOL    HW214050   2.097  -0.003   3.556  0.2632 -0.5295  1.3052
 4451SOL     OW14051   5.353   7.836   2.523 -0.3876  0.4083 -0.0183
 4451SOL    HW114052   5.435   7.874   2.556  0.5152 -0.0559 -1.6007
 4451SOL    HW214053   5.356   7.852   2.429 -1.8914 -0.0879 -0.1715
 4452SOL     OW14054   2.936   1.530   5.437 -0.4471 -0.4315 -0.0377
 4452SOL    HW114055   2.989   1.524   5.357 -1.8314 -0.8939 -0.9656
 4452SOL    HW214056   2.927   1.624   5.453 -0.5691 -0.3167 -0.7261
 4453SOL     OW14057   2.523   7.886   5.479  0.0648  0.7346 -0.2959
 4453SOL    HW114058   2.430   7.890   5.455 -0.1737 -0.4486  0.3640
 4453SOL    HW214059   2.533   7.952   5.548 -1.1084 -1.3750  2.0728
 4454SOL     OW14060   0.125   6.379   3.768 -0.0209  0.0614 -0.1383
 4454SOL    HW114061   0.114   6.285   3.754  0.0320  0.3609 -2.6523
 4454SOL    HW214062   0.220   6.391   3.777 -0.0286 -0.1045  0.2043
 4455SOL     OW14063   3.507   1.682   7.513  0.3600 -0.9658 -0.0363
 4455SOL    HW114064   3.483   1.653   7.601  0.1031 -1.8140 -0.3763
 4455SOL    HW214065   3.441   1.748   7.491  0.4409 -0.7297  0.4135
 4456SOL     OW14066   1.306   7.177   6.691 -0.2400 -0.0226  0.1953
 4456SOL    HW114067   1.346   7.099   6.730 -0.5699  0.1067  0.8088
 4456SOL    HW214068   1.214   7.154   6.680  0.2838 -1.0438 -3.0605
 4457SOL     OW14069   0.903   5.937   4.994  0.3995 -0.1202 -0.0523
 4457SOL    HW114070   0.988   5.914   4.956  0.8058 -0.1523  0.8259
 4457SOL    HW214071   0.839   5.919   4.926  0.9137 -1.7979 -0.1402
 4458SOL     OW14072   1.976   6.698   0.535  0.4305 -0.6624 -0.3399
 4458SOL    HW114073   1.946   6.683   0.445 -0.3515  0.3668 -0.2828
 4458SOL    HW214074   2.062   6.739   0.525 -0.6088  1.5898 -0.7515
 4459SOL     OW14075   4.283   6.556   4.891 -0.9983  0.0736 -0.3366
 4459SOL    HW114076   4.367   6.525   4.855 -0.6173 -3.0354  2.7874
 4459SOL    HW214077   4.308   6.625   4.952 -1.2195  2.0203 -2.3269
 4460SOL     OW14078   0.605   5.761   5.342  0.0322 -0.2945  0.2869
 4460SOL    HW114079   0.604   5.705   5.419 -0.9116 -0.0366  0.4698
 4460SOL    HW214080   0.587   5.849   5.375 -0.6229 -0.2191 -0.2501
 4461SOL     OW14081   6.872   4.897   2.082  0.2793  0.1433  0.5481
 4461SOL    HW114082   6.870   4.992   2.067  2.1928 -0.0452 -1.5314
 4461SOL    HW214083   6.957   4.870   2.047 -0.8370 -2.5426 -0.3062
 4462SOL     OW14084   1.386   2.267   5.943  0.5118 -0.4692  0.2434
 4462SOL    HW114085   1.440   2.339   5.976 -0.4169  0.5844 -0.4608
 4462SOL    HW214086   1.407   2.263   5.849 -1.3341  0.6459 -0.2597
 4463SOL     OW14087   4.943   7.367   0.490 -0.2783  0.0874 -0.0886
 4463SOL    HW114088   4.968   7.277   0.509  1.2010  0.9484  2.5841
 4463SOL    HW214089   4.992   7.390   0.411  0.1260 -1.1156 -0.2022
 4464SOL     OW14090   7.339   2.928   3.956 -0.0982 -1.2754  0.7001
 4464SOL    HW114091   7.385   2.998   4.003  0.5955 -2.5416  1.9751
 4464SOL    HW214092   7.290   2.881   4.024 -1.2231 -1.5534 -0.2574
 4465SOL     OW14093   5.156   1.607   3.404  0.3063 -0.1910 -0.3290
 4465SOL    HW114094   5.105   1.686   3.420  1.3379  0.3575  0.4222
 4465SOL    HW214095   5.195   1.586   3.489  2.2112  0.0839 -1.0683
 4466SOL     OW14096   1.143   0.549   6.460 -0.0534 -0.5950 -0.4833
 4466SOL    HW114097   1.053   0.579   6.470  0.2613  0.0233  0.5181
 4466SOL    HW214098   1.140   0.492   6.383 -1.2863 -0.5459 -0.4895
 4467SOL     OW14099   2.600   2.167   3.120 -0.1967  0.1960  0.1687
 4467SOL    HW114100   2.663   2.097   3.135  0.6662  1.4926  3.6143
 4467SOL    HW214101   2.653   2.245   3.103 -1.0858  0.4945 -1.4922
 4468SOL     OW14102   2.162   1.943   5.452  0.3080 -0.1598  0.6130
 4468SOL    HW114103   2.226   2.012   5.470  0.6295 -0.7409  1.8301
 4468SOL    HW214104   2.097   1.952   5.522 -1.7675  1.2930 -1.3590
 4469SOL     OW14105   6.103   2.027   5.476 -0.2677  0.0491  0.2703
 4469SOL    HW114106   6.041   2.097   5.498 -0.5231 -0.3200  0.7645
 4469SOL    HW214107   6.074   1.953   5.530  0.5271 -0.1666  0.4077
 4470SOL     OW14108   1.627   1.463   7.875  0.3393 -0.0151 -0.6008
 4470SOL    HW114109   1.701   1.436   7.930  0.1584 -0.8401 -0.7474
 4470SOL    HW214110   1.666   1.484   7.790  0.4904  0.2225 -0.4714
 4471SOL     OW14111   6.641   6.612   4.254 -0.3022  0.0083 -0.1674
 4471SOL    HW114112   6.654   6.669   4.178 -0.7886 -1.7849 -1.6744
 4471SOL    HW214113   6.578   6.659   4.308  0.3241  1.4972 -0.6876
 4472SOL     OW14114   5.385   5.872   1.171 -0.0456 -0.1451  0.0692
 4472SOL    HW114115   5.350   5.823   1.096 -0.2871 -0.2790  0.2666
 4472SOL    HW214116   5.342   5.833   1.247  1.0972 -0.8153  0.3912
 4473SOL     OW14117   1.588   1.574   5.880  0.1044 -0.3933  0.4097
 4473SOL    HW114118   1.631   1.530   5.953  0.7145  0.3500  0.5109
 4473SOL    HW214119   1.619   1.665   5.885  0.8730 -0.5243 -1.3014
 4474SOL     OW14120   6.578   7.271   2.809 -0.0203  0.0012 -0.2152
 4474SOL    HW114121   6.637   7.337   2.772 -1.8683  1.7713 -0.1481
 4474SOL    HW214122   6.531   7.237   2.733 -0.8733  0.6222  0.0285
 4475SOL     OW14123   0.014   3.807   2.863  0.2576 -0.5575 -0.1136
 4475SOL    HW114124   0.085   3.753   2.896  1.4758  0.1107 -1.4975
 4475SOL    HW214125   0.054   3.893   2.849 -0.7535 -0.2257 -1.1296
 4476SOL     OW14126   2.129   4.366   4.881  0.2261 -0.1191 -0.4276
 4476SOL    HW114127   2.175   4.341   4.961 -0.7858  0.7846  0.4664
 4476SOL    HW214128   2.178   4.441   4.848 -0.3204  0.5514  0.2681
 4477SOL     OW14129   0.254   4.148   7.672 -0.5524  0.0382  0.1669
 4477SOL    HW114130   0.182   4.090   7.696 -0.1806 -1.2382 -1.5630
 4477SOL    HW214131   0.331   4.090   7.668  0.9210  1.5685  3.2096
 4478SOL     OW14132   4.641   0.851   3.095 -0.0357 -0.1912  0.3084
 4478SOL    HW114133   4.732   0.878   3.107 -0.0693  1.0597 -1.7946
 4478SOL    HW214134   4.610   0.833   3.184  2.1412 -0.3461  1.1054
 4479SOL     OW14135   4.226   4.954   6.978 -0.3736 -0.3783  0.3927
 4479SOL    HW114136   4.200   5.041   7.008 -1.1062 -0.1764 -0.8149
 4479SOL    HW214137   4.162   4.930   6.912 -0.3043 -1.9411  0.8516
 4480SOL     OW14138   2.023   2.827   6.408 -0.1469  0.1865  0.1751
 4480SOL    HW114139   1.932   2.857   6.403 -0.3672 -0.5187 -0.1013
 4480SOL    HW214140   2.049   2.844   6.499 -0.2154  1.3421 -0.0076
 4481SOL     OW14141   6.453   4.124   1.310 -0.2058  0.5465 -0.1903
 4481SOL    HW114142   6.364   4.154   1.291 -0.5024  2.0778  2.9544
 4481SOL    HW214143   6.443   4.030   1.328 -0.9817  0.5000 -0.8175
 4482SOL     OW14144   4.926   3.293   3.030  0.1997 -0.0480 -0.3088
 4482SOL    HW114145   4.866   3.367   3.020  0.5763  0.2837 -0.1279
 4482SOL    HW214146   5.013   3.331   3.023  0.4334 -0.2214  1.4148
 4483SOL     OW14147   3.106   5.118   1.929  0.1361 -0.1777 -0.0315
 4483SOL    HW114148   3.149   5.032   1.927  2.2813  0.8298 -1.3917
 4483SOL    HW214149   3.098   5.138   2.022 -0.4139 -1.8306  0.3151
 4484SOL     OW14150   3.471   1.183   3.074 -0.1389 -0.5835 -0.0491
 4484SOL    HW114151   3.469   1.088   3.080  0.6842 -0.5442  1.2709
 4484SOL    HW214152   3.381   1.210   3.094  0.0103 -1.0303  1.3066
 4485SOL     OW14153   3.855   4.691   1.472 -0.4271 -0.7408  0.1562
 4485SOL    HW114154   3.938   4.659   1.435  0.5879 -0.6500  2.1811
 4485SOL    HW214155   3.880   4.766   1.525 -1.8734 -0.5350  0.5871
 4486SOL     OW14156   2.978   1.685   4.881 -0.2338 -0.0097  0.1989
 4486SOL    HW114157   3.057   1.631   4.878 -1.5713 -2.0410 -1.3786
 4486SOL    HW214158   2.913   1.629   4.923 -1.0157  1.4568  1.0323
 4487SOL     OW14159   2.106   0.682   1.075  0.1103  0.4789 -0.0300
 4487SOL    HW114160   2.152   0.739   1.137  0.4377 -0.2866  0.4447
 4487SOL    HW214161   2.060   0.619   1.131  0.4476 -0.2514 -0.5702
 4488SOL     OW14162   3.050   0.592   7.823  0.3327 -0.0542 -0.1368
 4488SOL    HW114163   3.077   0.512   7.868 -1.9400 -1.6045 -1.3217
 4488SOL    HW214164   2.955   0.595   7.835 -0.0081  0.8783 -2.5369
 4489SOL     OW14165   3.415   0.713   6.563 -0.1142  0.1391  0.0199
 4489SOL    HW114166   3.440   0.795   6.607 -1.6821  0.5054  0.2890
 4489SOL    HW214167   3.477   0.705   6.490  0.0686  1.5754 -0.0168
 4490SOL     OW14168   4.943   1.997   6.744 -0.4039  0.0577 -0.0128
 4490SOL    HW114169   4.918   1.991   6.836 -0.3696 -3.1883 -0.0927
 4490SOL    HW214170   4.874   2.050   6.704 -1.5012 -0.0982  1.5612
 4491SOL     OW14171   7.760   0.608   0.229 -0.3731  0.6294 -0.0279
 4491SOL    HW114172   7.685   0.646   0.273 -0.2543  1.2738 -0.3749
 4491SOL    HW214173   7.813   0.683   0.202  1.0961  0.1766  1.4177
 4492SOL     OW14174   1.407   0.470   5.677  0.6647 -0.1123  0.3248
 4492SOL    HW114175   1.471   0.426   5.732  0.7949 -0.1713  0.1277
 4492SOL    HW214176   1.323   0.433   5.704  0.8925 -1.4775 -0.7519
 4493SOL     OW14177   7.613   0.125   1.834 -0.9457 -0.4546  0.0486
 4493SOL    HW114178   7.595   0.088   1.920 -3.6404 -0.4935 -0.4437
 4493SOL    HW214179   7.619   0.219   1.848  4.8696 -0.5954  1.1284
 4494SOL     OW14180   1.408   3.964   3.657 -0.3571  0.2159  0.0119
 4494SOL    HW114181   1.486   3.909   3.659 -0.5970 -0.1490 -0.5139
 4494SOL    HW214182   1.350   3.922   3.594 -0.7262  0.8276 -0.0683
 4495SOL     OW14183   1.021   7.579   6.941  0.0011  0.4502 -0.4848
 4495SOL    HW114184   1.059   7.534   6.866 -0.6178  1.0444 -1.1776
 4495SOL    HW214185   1.010   7.670   6.911 -0.5248  0.6305  0.2231
 4496SOL     OW14186   2.706   4.122   1.890  0.0592 -0.5391 -0.0639
 4496SOL    HW114187   2.717   4.204   1.938 -0.2737 -0.6797  0.2500
 4496SOL    HW214188   2.723   4.053   1.954 -0.1763 -0.7245 -0.2000
 4497SOL     OW14189   7.213   4.221   5.541 -0.7306  0.0327 -0.2214
 4497SOL    HW114190   7.174   4.247   5.458 -1.1147 -0.9522 -0.3613
 4497SOL    HW214191   7.299   4.185   5.518 -0.8441 -0.2569 -0.2057
 4498SOL     OW14192   7.838   3.423   3.667 -0.0362  0.1422 -0.0832
 4498SOL    HW114193   7.812   3.486   3.600 -0.2802 -0.0736 -0.1911
 4498SOL    HW214194   7.880   3.352   3.618  0.7333  0.4666  0.0820
 4499SOL     OW14195   4.728   7.834   0.895 -0.2503  0.2956 -0.4706
 4499SOL    HW114196   4.662   7.825   0.964  1.1482 -0.1105  0.8775
 4499SOL    HW214197   4.700   7.911   0.845 -2.2531 -0.4236 -0.5696
 4500SOL     OW14198   4.862   5.813   3.733  0.2034  0.3618  0.0157
 4500SOL    HW114199   4.799   5.885   3.737  0.1222  0.2971 -0.0871
 4500SOL    HW214200   4.855   5.770   3.818 -0.7242 -0.3463 -0.4032
 4501SOL     OW14201   7.094   7.056   3.844  0.1574 -0.1490  0.5552
 4501SOL    HW114202   7.052   7.023   3.764 -0.4127 -1.4383  1.3612
 4501SOL    HW214203   7.178   7.090   3.814 -0.0540 -0.5893 -0.6050
 4502SOL     OW14204   1.978   0.609   2.674 -0.0764 -0.3318 -0.0531
 4502SOL    HW114205   1.985   0.593   2.580  1.1927  1.1067 -0.2400
 4502SOL    HW214206   1.900   0.664   2.683  0.9086  1.1847 -0.5265
 4503SOL     OW14207   4.780   5.135   3.908 -0.1614  0.1711 -0.0115
 4503SOL    HW114208   4.772   5.047   3.872 -1.7914  0.3912 -0.2614
 4503SOL    HW214209   4.828   5.123   3.990 -1.3706 -1.1466  0.5488
 4504SOL     OW14210   0.430   0.511   6.382 -0.4360 -0.2806 -0.2962
 4504SOL    HW114211   0.436   0.497   6.476  3.4415 -0.1816 -0.3903
 4504SOL    HW214212   0.394   0.599   6.373  1.8991  0.9441  1.2891
 4505SOL     OW14213   1.178   2.399   4.616 -0.3098 -0.5732 -0.0101
 4505SOL    HW114214   1.092   2.385   4.576 -1.2522  0.2001  1.6383
 4505SOL    HW214215   1.199   2.317   4.660  0.5558 -1.2957 -1.6755
 4506SOL     OW14216   7.958   4.261   6.903 -0.1401  0.1140 -0.5120
 4506SOL    HW114217   8.049   4.235   6.915 -0.5934 -1.5080 -0.3320
 4506SOL    HW214218   7.947   4.339   6.957  1.1439  0.3491 -0.5802
 4507SOL     OW14219   2.408   1.495   0.325  0.1667 -0.7133 -0.3779
 4507SOL    HW114220   2.368   1.426   0.379 -2.2677  0.9615  0.1601
 4507SOL    HW214221   2.333   1.543   0.289  1.7342  1.3718 -1.0711
 4508SOL     OW14222   4.652   4.830   6.936 -0.6718 -0.2480 -0.6896
 4508SOL    HW114223   4.690   4.801   6.852  0.0454 -0.9124 -0.1593
 4508SOL    HW214224   4.707   4.787   7.002 -1.6002 -0.2183  0.1184
 4509SOL     OW14225   6.968   1.471   7.713  0.3795  0.4091  0.1744
 4509SOL    HW114226   7.026   1.395   7.721 -1.5890 -1.2910 -0.8675
 4509SOL    HW214227   6.951   1.479   7.620 -3.2184 -0.9543  0.5561
 4510SOL     OW14228   0.100   0.637   6.481 -0.0570  0.0182 -0.3215
 4510SOL    HW114229   0.169   0.627   6.546  0.7683 -0.1154 -1.1928
 4510SOL    HW214230   0.146   0.642   6.398 -1.1769 -2.7071 -1.2128
 4511SOL     OW14231   5.134   4.411   1.421 -0.5818  0.3805 -0.2576
 4511SOL    HW114232   5.133   4.347   1.493 -2.2431 -0.4406 -0.9524
 4511SOL    HW214233   5.073   4.375   1.357  0.0729  1.6236 -1.6331
 4512SOL     OW14234   2.481   1.122   2.029 -0.2333  0.6222 -0.4356
 4512SOL    HW114235   2.522   1.064   2.093 -0.7329 -0.1342 -0.7915
 4512SOL    HW214236   2.521   1.098   1.945 -0.8085  0.4313 -0.6620
 4513SOL     OW14237   6.907   7.028   4.264  0.1612  1.0910  0.1963
 4513SOL    HW114238   6.879   7.025   4.355 -0.9064  0.8134 -0.1296
 4513SOL    HW214239   6.996   6.992   4.264 -0.5864 -0.8728  0.8451
 4514SOL     OW14240   5.183   7.812   6.982  0.8040 -0.9850 -0.5398
 4514SOL    HW114241   5.131   7.878   7.029  0.9637 -0.4922 -1.0425
 4514SOL    HW214242   5.149   7.814   6.892 -0.0880 -2.5264 -0.2743
 4515SOL     OW14243   2.551   2.196   4.298 -0.3288 -0.4235  0.1719
 4515SOL    HW114244   2.486   2.266   4.306 -1.0414 -1.1488  1.0614
 4515SOL    HW214245   2.635   2.241   4.300 -0.7886  0.5518 -1.1249
 4516SOL     OW14246   7.870   2.456   4.941  0.0985 -0.3601  0.4331
 4516SOL    HW114247   7.907   2.406   4.868  0.6898 -1.2311  1.2955
 4516SOL    HW214248   7.822   2.527   4.899  0.3715 -0.8654 -0.8045
 4517SOL     OW14249   5.315   0.186   2.760  0.5366  0.1068  0.1049
 4517SOL    HW114250   5.365   0.263   2.786 -2.4753  1.6120  1.9236
 4517SOL    HW214251   5.327   0.125   2.833  1.2628 -0.3647 -0.3918
 4518SOL     OW14252   0.434   3.356   1.222 -0.4460 -0.0506  0.2364
 4518SOL    HW114253   0.390   3.338   1.139 -1.6001  0.1256  0.7759
 4518SOL    HW214254   0.404   3.444   1.246 -0.2246 -0.1480  0.8839
 4519SOL     OW14255   3.996   6.710   3.458 -0.3914  0.7647  0.0128
 4519SOL    HW114256   4.057   6.731   3.388  0.4240 -0.3009  0.3702
 4519SOL    HW214257   4.031   6.755   3.535  0.1399 -0.0704  0.2824
 4520SOL     OW14258   0.987   5.421   1.663  0.4538  0.5649  0.0958
 4520SOL    HW114259   0.965   5.443   1.573  1.3780 -1.2416 -0.6387
 4520SOL    HW214260   0.919   5.359   1.690  2.1560 -1.8402 -0.7578
 4521SOL     OW14261   6.387   1.641   4.458  0.0075 -0.0445 -0.1278
 4521SOL    HW114262   6.465   1.691   4.433 -0.3546  0.9877  0.7678
 4521SOL    HW214263   6.368   1.668   4.547 -2.0892  0.6328 -0.7146
 4522SOL     OW14264   7.456   0.938   1.181 -0.3935  0.5510 -0.0690
 4522SOL    HW114265   7.526   0.877   1.203 -0.5546  0.6649  0.8107
 4522SOL    HW214266   7.481   0.974   1.096  0.2899  0.1233 -0.0552
 4523SOL     OW14267   5.302   7.148   2.562  0.6622 -0.2993  0.2395
 4523SOL    HW114268   5.386   7.194   2.555  0.2076  0.4564 -0.5046
 4523SOL    HW214269   5.264   7.180   2.644 -0.7342  2.6440 -1.3908
 4524SOL     OW14270   4.489   5.584   6.359 -0.0954  0.2958  0.2506
 4524SOL    HW114271   4.555   5.539   6.413 -1.4860  0.0874  1.8790
 4524SOL    HW214272   4.425   5.516   6.339  0.1077  0.5173 -1.2213
 4525SOL     OW14273   2.088   5.835   3.194 -0.5647  0.5217  0.5768
 4525SOL    HW114274   2.037   5.760   3.225  0.8358 -0.2355  1.1103
 4525SOL    HW214275   2.065   5.842   3.101  1.0517 -2.1070 -0.1190
 4526SOL     OW14276   6.960   2.998   7.245 -0.1661 -0.1005  0.4195
 4526SOL    HW114277   6.968   2.950   7.327  2.0515  0.0648  0.3481
 4526SOL    HW214278   6.909   3.076   7.268  2.2945  1.1133  2.2447
 4527SOL     OW14279   7.077   5.008   5.382  0.7434 -0.1215 -0.1850
 4527SOL    HW114280   7.006   4.954   5.417 -0.3428  1.3436 -0.0546
 4527SOL    HW214281   7.040   5.048   5.303  1.3958  0.7376 -0.0632
 4528SOL     OW14282   4.789   0.508   4.980 -0.5082 -0.3452 -0.3596
 4528SOL    HW114283   4.725   0.578   4.976 -0.8884 -0.5441  1.4986
 4528SOL    HW214284   4.738   0.428   4.970 -0.4774 -0.4721  0.4370
 4529SOL     OW14285   1.854   3.104   0.617  0.2933 -0.2749 -0.4104
 4529SOL    HW114286   1.828   3.032   0.675 -0.3905 -2.6470 -3.4075
 4529SOL    HW214287   1.773   3.151   0.598  0.2284 -0.4941 -0.6818
 4530SOL     OW14288   0.680   4.471   7.597  0.5474  0.4647  0.0685
 4530SOL    HW114289   0.653   4.381   7.615 -1.0493  1.1583  1.4101
 4530SOL    HW214290   0.657   4.485   7.505 -1.2438  0.1675  0.4385
 4531SOL     OW14291   0.091   1.805   3.167 -0.1389 -0.5017  0.2820
 4531SOL    HW114292   0.155   1.839   3.106 -1.1042  1.3538  0.2384
 4531SOL    HW214293   0.100   1.859   3.245 -2.4165  0.6541 -0.1683
 4532SOL     OW14294   4.135   1.160   1.301 -0.0034 -0.0764  0.0493
 4532SOL    HW114295   4.196   1.087   1.295  1.1814  0.9572 -1.1700
 4532SOL    HW214296   4.189   1.238   1.288 -1.0957  1.1030  2.0302
 4533SOL     OW14297   7.071   4.243   0.802 -0.6996  0.4630 -0.2227
 4533SOL    HW114298   7.092   4.319   0.857  1.2863  1.5791 -2.3589
 4533SOL    HW214299   7.154   4.218   0.763 -1.6010 -1.9140 -0.7502
 4534SOL     OW14300   0.315   3.286   7.170 -0.0862 -0.2456  0.2535
 4534SOL    HW114301   0.317   3.190   7.168 -0.1584 -0.2443 -0.6259
 4534SOL    HW214302   0.306   3.311   7.078 -3.2429  0.5204  0.6581
 4535SOL     OW14303   1.518   7.428   1.284 -0.1782  0.5453  0.4198
 4535SOL    HW114304   1.476   7.352   1.325 -0.7445  1.2162  1.1301
 4535SOL    HW214305   1.573   7.465   1.353  0.2366  0.6745  0.0209
 4536SOL     OW14306   4.324   4.223   4.644 -0.7625  0.0434 -0.0983
 4536SOL    HW114307   4.300   4.271   4.565  0.7390  2.6063  0.8666
 4536SOL    HW214308   4.289   4.277   4.716  0.1629 -0.8263  1.0409
 4537SOL     OW14309   7.295   1.907   5.278 -0.3438  0.7414 -0.0876
 4537SOL    HW114310   7.290   2.000   5.257 -1.7722  1.3618  2.5828
 4537SOL    HW214311   7.226   1.867   5.224 -0.7713  1.4896 -0.1120
 4538SOL     OW14312   1.332   6.028   2.018 -0.2112  0.1494  0.5140
 4538SOL    HW114313   1.250   6.009   1.972  1.3361 -1.9455 -1.6065
 4538SOL    HW214314   1.385   6.074   1.954  2.1069 -3.0728 -0.1452
 4539SOL     OW14315   0.473   7.538   7.832 -0.1402  0.2583  0.4576
 4539SOL    HW114316   0.510   7.548   7.745  0.3047  0.3277  0.6536
 4539SOL    HW214317   0.378   7.539   7.818 -0.0684 -0.3691 -0.0954
 4540SOL     OW14318   2.079   3.442   4.285  0.5573 -0.2045  0.2471
 4540SOL    HW114319   2.154   3.383   4.283  1.1180  0.4557  0.9595
 4540SOL    HW214320   2.003   3.386   4.271  1.1773 -0.8976 -0.4251
 4541SOL     OW14321   3.983   5.299   7.423  0.9830 -0.1405 -0.1085
 4541SOL    HW114322   3.958   5.236   7.355 -0.4183  0.5334 -0.2555
 4541SOL    HW214323   3.918   5.285   7.493  1.6705  0.0139  0.5784
 4542SOL     OW14324   3.344   6.924   0.814 -0.3238 -0.0554  0.4174
 4542SOL    HW114325   3.400   6.998   0.792  0.7571 -1.2181 -1.0105
 4542SOL    HW214326   3.321   6.885   0.729 -2.0975 -0.4762  1.0588
 4543SOL     OW14327   3.218   3.266   2.487 -0.1722  0.3798 -0.6873
 4543SOL    HW114328   3.225   3.319   2.567 -0.4282  1.9404 -1.6463
 4543SOL    HW214329   3.163   3.192   2.511  0.8352  0.1076  0.9184
 4544SOL     OW14330   1.942   7.903   2.869 -0.3118  0.2422 -0.1886
 4544SOL    HW114331   1.964   7.822   2.915 -2.4185  0.1185  0.7082
 4544SOL    HW214332   1.899   7.874   2.789  0.9482  0.5014 -1.0005
 4545SOL     OW14333   1.260   3.065   3.007 -0.1651  0.6189 -0.0140
 4545SOL    HW114334   1.220   3.060   2.920  2.2537 -0.1164 -1.1769
 4545SOL    HW214335   1.224   2.990   3.055  1.4078 -1.4390 -1.8267
 4546SOL     OW14336   3.953   3.217   5.228  0.2272 -0.5090 -0.3284
 4546SOL    HW114337   3.955   3.190   5.136 -1.3574 -0.8997 -0.2787
 4546SOL    HW214338   4.011   3.155   5.272  0.5523 -0.6730 -0.9755
 4547SOL     OW14339   4.935   4.962   7.080 -0.4174  0.8305  0.2948
 4547SOL    HW114340   4.942   4.877   7.037 -1.5099  1.1860 -0.6251
 4547SOL    HW214341   4.980   4.950   7.164  0.0663 -0.4346 -0.1172
 4548SOL     OW14342   0.087   4.770   6.642  0.3145  0.0736  0.4631
 4548SOL    HW114343   0.039   4.837   6.593  1.1837 -0.7613 -1.6173
 4548SOL    HW214344   0.049   4.774   6.730 -0.2121  2.7159  0.2033
 4549SOL     OW14345   6.843   4.090   1.090 -0.4118 -0.5296  0.2443
 4549SOL    HW114346   6.784   4.015   1.079  0.0870 -1.4898  3.1078
 4549SOL    HW214347   6.929   4.050   1.102  0.3519  0.7032 -0.9420
 4550SOL     OW14348   5.571   1.383   2.078  0.2636 -0.2042  0.1206
 4550SOL    HW114349   5.615   1.326   2.015 -1.9231 -2.2106  0.2492
 4550SOL    HW214350   5.612   1.362   2.162 -0.2979 -1.4065  0.1162
 4551SOL     OW14351   2.908   0.527   0.233  0.4416  0.2946 -0.3003
 4551SOL    HW114352   2.866   0.475   0.164 -1.1632 -0.2393  1.0179
 4551SOL    HW214353   2.879   0.486   0.314  1.4129  1.5713  0.7248
 4552SOL     OW14354   4.793   0.432   7.850  0.0776 -0.0582 -0.1182
 4552SOL    HW114355   4.732   0.426   7.923  0.6752  0.9076  0.4737
 4552SOL    HW214356   4.736   0.436   7.772 -0.5558 -1.3975  0.2400
 4553SOL     OW14357   5.562   3.154   0.518 -0.1529  0.0701  0.2704
 4553SOL    HW114358   5.635   3.217   0.521  0.1516 -0.0250 -2.4865
 4553SOL    HW214359   5.487   3.203   0.552  0.2752  1.7113 -0.9435
 4554SOL     OW14360   0.936   1.371   2.224  0.1998  0.5318  0.0001
 4554SOL    HW114361   1.031   1.365   2.216  0.0789 -0.2601 -1.0447
 4554SOL    HW214362   0.920   1.464   2.242  1.2345  0.4418  1.5898
 4555SOL     OW14363   4.141   1.044   6.741 -0.2406  0.4424 -0.0729
 4555SOL    HW114364   4.229   1.014   6.764 -1.0486 -1.2443  1.0581
 4555SOL    HW214365   4.095   0.964   6.714 -1.2497  1.4018 -1.3082
 4556SOL     OW14366   2.161   6.669   2.556 -0.1031 -0.5830  0.7327
 4556SOL    HW114367   2.091   6.734   2.556  0.6759  0.2842  0.6782
 4556SOL    HW214368   2.227   6.705   2.498  0.0494 -1.7825  0.1266
 4557SOL     OW14369   1.862   3.674   2.457  0.2608  0.2125 -0.2341
 4557SOL    HW114370   1.857   3.658   2.363  1.8800 -0.3730 -0.2540
 4557SOL    HW214371   1.823   3.760   2.469 -0.1395  0.2113 -1.4022
 4558SOL     OW14372   2.210   5.919   1.607  0.1257 -0.1198 -0.4457
 4558SOL    HW114373   2.150   5.945   1.678  0.7480 -1.0612  0.4702
 4558SOL    HW214374   2.297   5.921   1.647  0.2859 -2.8639 -0.4497
 4559SOL     OW14375   4.148   2.091   3.799 -0.7126 -0.3232  0.2854
 4559SOL    HW114376   4.107   2.029   3.860 -0.2133  0.0710  1.0360
 4559SOL    HW214377   4.129   2.177   3.836  0.2810 -0.1088  0.3262
 4560SOL     OW14378   4.510   7.209   2.813  0.2881  0.5245 -0.3906
 4560SOL    HW114379   4.435   7.263   2.838  1.3992  2.0334 -0.1647
 4560SOL    HW214380   4.506   7.133   2.870  0.2567  1.7431  1.3049
 4561SOL     OW14381   3.843   1.110   2.903 -0.3859 -0.1041 -0.4298
 4561SOL    HW114382   3.914   1.069   2.853 -0.3703 -1.7341  0.8442
 4561SOL    HW214383   3.763   1.078   2.862 -0.4215  1.1191 -1.3775
 4562SOL     OW14384   1.905   1.487   4.785  0.3493 -0.3459 -0.1751
 4562SOL    HW114385   1.825   1.460   4.831 -1.6828  2.0224 -1.9946
 4562SOL    HW214386   1.890   1.461   4.694  1.2240  0.9835 -0.7260
 4563SOL     OW14387   7.394   4.498   6.428  0.0720  0.2705 -0.1517
 4563SOL    HW114388   7.385   4.456   6.514  0.7152  1.9378  0.7796
 4563SOL    HW214389   7.306   4.525   6.405 -0.9332 -3.8030 -2.0830
 4564SOL     OW14390   4.407   5.109   6.443  1.0088 -0.5418 -0.3580
 4564SOL    HW114391   4.390   5.122   6.537  2.8333 -2.7167  0.3525
 4564SOL    HW214392   4.343   5.043   6.417 -0.1416  0.7536 -0.9423
 4565SOL     OW14393   2.907   0.994   6.975  0.0368 -0.1405 -0.5564
 4565SOL    HW114394   2.930   1.053   6.902  2.0184 -0.0096  0.1277
 4565SOL    HW214395   2.820   1.024   7.002  0.3358  1.4755 -1.2297
 4566SOL     OW14396   2.315   0.995   1.481 -0.1314 -0.8145 -0.4234
 4566SOL    HW114397   2.369   1.032   1.411 -1.4279  1.0040 -0.5313
 4566SOL    HW214398   2.377   0.977   1.551  0.9940 -1.3369 -1.5047
 4567SOL     OW14399   1.838   6.428   0.577 -0.2946 -0.5675 -0.2045
 4567SOL    HW114400   1.874   6.513   0.605  0.5229 -0.7699 -0.6219
 4567SOL    HW214401   1.757   6.450   0.533 -0.9514 -0.1324  1.1594
 4568SOL     OW14402   1.379   6.921   2.696 -0.2219 -0.5783  0.4984
 4568SOL    HW114403   1.428   6.876   2.765 -1.6707 -1.9653  0.6891
 4568SOL    HW214404   1.423   6.896   2.615  0.1930 -0.6989  0.7573
 4569SOL     OW14405   7.746   5.716   7.021  0.0653 -0.1471  0.6963
 4569SOL    HW114406   7.682   5.734   7.089  0.1805 -0.2124  0.8219
 4569SOL    HW214407   7.694   5.696   6.943 -0.0709  0.4436  0.6296
 4570SOL     OW14408   5.222   1.271   4.323 -0.2940  0.1023 -0.1023
 4570SOL    HW114409   5.241   1.330   4.396 -0.6511  0.8676 -0.6167
 4570SOL    HW214410   5.308   1.253   4.284 -0.1622  0.1386  0.1682
 4571SOL     OW14411   6.669   5.971   4.989 -0.4558 -0.2116  0.1056
 4571SOL    HW114412   6.654   6.043   4.927  0.5238  0.3430  0.4948
 4571SOL    HW214413   6.652   5.892   4.937 -0.7999  0.2712 -0.5424
 4572SOL     OW14414   3.758   3.010   0.067  0.4503  0.5245  0.5188
 4572SOL    HW114415   3.703   3.052   0.133  0.6144  0.7833  0.4921
 4572SOL    HW214416   3.836   2.983   0.116  0.3844  0.3310  0.5178
 4573SOL     OW14417   2.514   3.992   0.559 -0.4237  0.2314  0.3083
 4573SOL    HW114418   2.421   4.017   0.562 -0.6549 -0.4012 -1.0144
 4573SOL    HW214419   2.536   3.971   0.650 -1.8681 -0.6562  0.4777
 4574SOL     OW14420   5.081   0.527   0.513  0.5394  0.1763  0.7009
 4574SOL    HW114421   5.093   0.451   0.570  1.5773  0.0827  0.3763
 4574SOL    HW214422   5.131   0.506   0.435  1.4500  1.4983  0.8961
 4575SOL     OW14423   2.851   3.408   6.248  0.1531 -0.1609 -0.4820
 4575SOL    HW114424   2.937   3.375   6.276  0.3450 -0.1777 -1.0813
 4575SOL    HW214425   2.871   3.486   6.197 -0.1361 -0.5631 -1.2339
 4576SOL     OW14426   1.781   1.483   0.779 -0.0009 -0.4237  0.0989
 4576SOL    HW114427   1.830   1.533   0.714  0.7522 -0.9078  0.2766
 4576SOL    HW214428   1.690   1.499   0.757  0.2341 -0.0444 -0.6647
 4577SOL     OW14429   6.933   4.770   2.686  0.0496  0.0228  0.2342
 4577SOL    HW114430   6.986   4.691   2.679  0.0589  0.1208 -0.9746
 4577SOL    HW214431   6.980   4.826   2.747  1.1794 -0.0315 -0.5597
 4578SOL     OW14432   6.756   7.353   7.557 -0.0226 -0.1685 -0.2633
 4578SOL    HW114433   6.720   7.368   7.470 -0.8056 -1.3473 -0.1611
 4578SOL    HW214434   6.756   7.258   7.568  2.0098 -0.1697  0.2327
 4579SOL     OW14435   0.924   7.808   4.505 -1.2422  0.6895  0.5656
 4579SOL    HW114436   0.883   7.852   4.431 -1.2861  0.7350  0.6170
 4579SOL    HW214437   0.944   7.721   4.473  2.0760  1.7780 -0.7173
 4580SOL     OW14438   7.143   6.503   2.670 -0.2739  0.1553 -0.0353
 4580SOL    HW114439   7.059   6.544   2.646 -0.4982 -1.4643 -2.3824
 4580SOL    HW214440   7.187   6.569   2.724 -3.1404  0.9464  1.5352
 4581SOL     OW14441   5.353   2.788   2.374 -0.5843  0.0724 -0.2382
 4581SOL    HW114442   5.399   2.705   2.366 -0.8283  0.0173 -1.2594
 4581SOL    HW214443   5.374   2.835   2.293 -2.8303 -0.2347 -1.0848
 4582SOL     OW14444   1.176   7.098   2.681 -0.3176  0.2582  0.4886
 4582SOL    HW114445   1.251   7.040   2.668 -1.2579 -0.8084 -0.4308
 4582SOL    HW214446   1.101   7.047   2.651 -1.5143  1.0520  1.9661
 4583SOL     OW14447   2.100   3.164   7.643 -0.0162  0.0283  0.2965
 4583SOL    HW114448   2.161   3.145   7.714 -2.1146 -0.3094  2.1201
 4583SOL    HW214449   2.114   3.095   7.579  1.5076 -0.0108  0.6416
 4584SOL     OW14450   5.180   4.009   3.521 -0.0159 -0.2496 -0.1766
 4584SOL    HW114451   5.183   3.917   3.495  1.8297 -0.6883  1.3667
 4584SOL    HW214452   5.210   4.057   3.444  0.2500 -1.0456 -0.5830
 4585SOL     OW14453   1.339   2.459   0.469  0.2802  0.6253 -0.7708
 4585SOL    HW114454   1.301   2.384   0.514  0.2923 -0.1333 -1.9694
 4585SOL    HW214455   1.420   2.478   0.517  1.3055 -1.3895 -1.5793
 4586SOL     OW14456   3.885   4.027   1.040  0.2278  0.3379  0.1979
 4586SOL    HW114457   3.953   4.094   1.050 -1.8443  2.3027  2.5390
 4586SOL    HW214458   3.819   4.068   0.983 -0.1475 -0.5366 -0.0179
 4587SOL     OW14459   6.781   5.689   2.466 -0.7542 -0.2341  0.5165
 4587SOL    HW114460   6.838   5.630   2.416 -0.5294 -0.3946  0.9510
 4587SOL    HW214461   6.784   5.772   2.418  0.7909  0.1127  1.1604
 4588SOL     OW14462   1.906   2.125   4.015  0.1821 -0.0526 -0.2622
 4588SOL    HW114463   1.994   2.131   4.051  0.6435 -0.4970 -1.2740
 4588SOL    HW214464   1.849   2.119   4.091  1.0841 -0.4680  0.3950
 4589SOL     OW14465   5.454   7.663   1.498  0.3395  0.1094  0.3970
 4589SOL    HW114466   5.454   7.568   1.511  0.4410  0.3536  2.4869
 4589SOL    HW214467   5.480   7.674   1.406  2.3721 -1.8198  0.6329
 4590SOL     OW14468   6.090   6.497   5.066  0.9562  0.4876  0.0935
 4590SOL    HW114469   6.160   6.535   5.119  0.9713 -1.8380  1.8694
 4590SOL    HW214470   6.134   6.432   5.012  0.2147 -1.1433  1.3709
 4591SOL     OW14471   7.648   4.766   6.016  0.0025  0.2885 -0.0073
 4591SOL    HW114472   7.732   4.759   5.971  0.9145 -0.8117  1.7510
 4591SOL    HW214473   7.583   4.756   5.947  1.3190 -0.9379 -1.1381
 4592SOL     OW14474   3.942   0.299   4.486 -0.7477 -0.5772 -0.1544
 4592SOL    HW114475   3.981   0.234   4.427 -0.9911 -1.9344  1.1049
 4592SOL    HW214476   3.987   0.380   4.465  0.2766 -1.3553 -1.1286
 4593SOL     OW14477   1.154   4.945   2.130 -0.0061 -0.0647  0.2936
 4593SOL    HW114478   1.161   4.925   2.223 -1.5112 -0.8483  0.2614
 4593SOL    HW214479   1.120   4.865   2.090  0.4944  0.2996 -0.9264
 4594SOL     OW14480   6.518   1.797   5.199 -0.3365  0.8522 -0.0755
 4594SOL    HW114481   6.562   1.712   5.207  1.2719  1.8107  2.1744
 4594SOL    HW214482   6.588   1.857   5.173 -1.3330  1.6239 -1.0390
 4595SOL     OW14483   4.231   5.816   0.397  0.0563 -0.2879  0.4146
 4595SOL    HW114484   4.238   5.912   0.389  0.8992 -0.4658 -1.5805
 4595SOL    HW214485   4.293   5.793   0.465  0.8552  0.4859 -0.0287
 4596SOL     OW14486   4.292   1.071   3.867  0.4282 -0.5523  0.5210
 4596SOL    HW114487   4.326   1.049   3.954 -1.2664 -0.4256  1.2725
 4596SOL    HW214488   4.203   1.036   3.867  0.3649 -0.4584 -1.1456
 4597SOL     OW14489   7.565   5.314   0.601 -0.0165  0.0241 -0.1807
 4597SOL    HW114490   7.552   5.408   0.613  1.6104  0.3652 -0.7490
 4597SOL    HW214491   7.600   5.284   0.685 -0.7953 -0.1451  0.0923
 4598SOL     OW14492   1.415   6.129   0.990  0.5464 -0.2190  0.4344
 4598SOL    HW114493   1.503   6.100   1.013  0.0036 -0.6991  2.0872
 4598SOL    HW214494   1.380   6.164   1.072 -0.3264  1.2428 -0.5145
 4599SOL     OW14495   4.044   3.473   3.876  0.0096  0.4814 -0.0413
 4599SOL    HW114496   3.983   3.537   3.838 -0.1012 -0.1140 -0.8886
 4599SOL    HW214497   4.072   3.420   3.802 -0.8301 -1.2355  0.8230
 4600SOL     OW14498   4.728   6.250   1.433 -0.0909 -0.3583  0.2198
 4600SOL    HW114499   4.823   6.247   1.443 -0.1449 -1.4251  0.5466
 4600SOL    HW214500   4.708   6.343   1.421  1.1968 -0.2649 -1.8285
 4601SOL     OW14501   4.830   3.334   1.091  0.2779 -0.0318  0.2518
 4601SOL    HW114502   4.896   3.264   1.088 -0.6062 -0.9434  1.2988
 4601SOL    HW214503   4.750   3.293   1.059 -0.3428  0.3774  1.2316
 4602SOL     OW14504   4.107   5.909   1.248  0.2156  0.3288  0.6077
 4602SOL    HW114505   4.153   5.906   1.332  1.5030  0.4412 -0.0697
 4602SOL    HW214506   4.033   5.967   1.263  2.5198  3.5039  0.7059
 4603SOL     OW14507   5.700   0.485   6.297  0.0825 -0.4435 -0.1834
 4603SOL    HW114508   5.655   0.556   6.251  1.0792  0.0503 -0.4187
 4603SOL    HW214509   5.729   0.525   6.380  0.1702 -0.7318 -0.0742
 4604SOL     OW14510   5.027   2.001   5.006  0.2919  0.2562  0.0513
 4604SOL    HW114511   4.947   2.020   5.056  0.7859 -0.3878  1.1028
 4604SOL    HW214512   5.098   2.017   5.067  1.3347  4.5476 -1.8451
 4605SOL     OW14513   4.943   5.323   5.672  0.0366  0.0902 -0.4348
 4605SOL    HW114514   4.959   5.365   5.757  2.1230  1.4367 -1.3935
 4605SOL    HW214515   4.922   5.396   5.613 -2.5356 -0.9274 -0.9148
 4606SOL     OW14516   6.477   4.947   2.959 -0.4105 -0.1625 -0.0365
 4606SOL    HW114517   6.497   4.875   2.899 -1.1928 -1.1793  0.9129
 4606SOL    HW214518   6.435   4.906   3.034  0.7887  1.0546  1.3608
 4607SOL     OW14519   2.065   2.811   4.423 -0.6005 -0.3582 -0.2102
 4607SOL    HW114520   2.114   2.844   4.498  2.1647  1.0336 -2.3882
 4607SOL    HW214521   1.974   2.807   4.452  0.0369  2.0548  2.5352
 4608SOL     OW14522   3.359   0.146   4.352 -0.6250 -0.3549 -0.1128
 4608SOL    HW114523   3.409   0.128   4.431 -0.7356  0.5292  0.1715
 4608SOL    HW214524   3.383   0.076   4.292 -0.0212 -0.6571  0.4687
 4609SOL     OW14525   0.289   1.455   6.519  0.2634 -0.0908  0.1458
 4609SOL    HW114526   0.298   1.550   6.522 -0.6373 -0.0202  0.9294
 4609SOL    HW214527   0.329   1.430   6.436 -0.2311  1.0536 -0.4502
 4610SOL     OW14528   2.208   0.138   1.913 -0.2985 -0.2056  0.2148
 4610SOL    HW114529   2.134   0.081   1.936 -0.2920 -0.3122 -0.0273
 4610SOL    HW214530   2.284   0.096   1.952 -0.4070  0.0724  0.7389
 4611SOL     OW14531   5.158   7.400   3.793 -0.2234 -0.8021  0.1805
 4611SOL    HW114532   5.232   7.387   3.734 -0.9644 -3.1551 -0.3402
 4611SOL    HW214533   5.143   7.313   3.832 -2.9437 -0.5355 -0.0653
 4612SOL     OW14534   7.539   1.002   1.451  0.3385  0.5185  0.8222
 4612SOL    HW114535   7.495   0.922   1.423 -0.9997  1.2340  0.7869
 4612SOL    HW214536   7.631   0.987   1.431 -0.1193 -0.3069 -0.8693
 4613SOL     OW14537   6.183   2.933   5.223  0.5209 -0.3659 -0.1853
 4613SOL    HW114538   6.247   2.991   5.181  0.0726 -0.1760 -0.6150
 4613SOL    HW214539   6.100   2.981   5.219  0.1305 -1.0607 -0.5990
 4614SOL     OW14540   3.441   5.043   4.547 -0.3832 -0.0983  0.0457
 4614SOL    HW114541   3.462   5.032   4.640  0.8581 -1.5609 -0.3637
 4614SOL    HW214542   3.368   4.982   4.532  0.4640 -1.0501 -0.2657
 4615SOL     OW14543   5.300   1.510   3.605 -0.5377 -0.0047 -0.0668
 4615SOL    HW114544   5.371   1.574   3.599 -1.1744  0.6294 -4.5327
 4615SOL    HW214545   5.344   1.425   3.606  0.3086  0.4274  0.1936
 4616SOL     OW14546   2.987   1.607   3.191 -0.6325 -0.0351  0.5024
 4616SOL    HW114547   2.999   1.572   3.279  2.0374 -1.6404 -0.3904
 4616SOL    HW214548   3.013   1.699   3.198  1.4923 -0.6241  1.0765
 4617SOL     OW14549   1.331   7.212   5.950  0.1630 -0.8138  0.3661
 4617SOL    HW114550   1.410   7.266   5.947 -0.3536 -0.0877 -2.0057
 4617SOL    HW214551   1.362   7.123   5.934  0.5898 -0.6561  0.3060
 4618SOL     OW14552   5.744   2.472   4.782 -0.4589 -0.0439  0.5507
 4618SOL    HW114553   5.773   2.563   4.774 -1.0729  0.3862  2.5276
 4618SOL    HW214554   5.663   2.468   4.730  1.7874 -0.7245 -3.2813
 4619SOL     OW14555   4.731   2.168   1.948  0.4492 -0.4946  0.4929
 4619SOL    HW114556   4.814   2.159   1.995  0.8735  0.6978  0.0097
 4619SOL    HW214557   4.692   2.248   1.981 -0.0650 -0.5526  0.0501
 4620SOL     OW14558   4.638   3.120   3.289  0.4111 -0.2781  0.7001
 4620SOL    HW114559   4.677   3.205   3.312 -0.3547  0.3625 -0.2570
 4620SOL    HW214560   4.544   3.136   3.293  0.2624 -0.9695  0.0958
 4621SOL     OW14561   5.773   5.631   2.234 -0.6723  0.6083  0.1934
 4621SOL    HW114562   5.825   5.707   2.260 -0.4762  0.2047  1.0135
 4621SOL    HW214563   5.796   5.616   2.142  0.3220  0.7124  0.4121
 4622SOL     OW14564   1.307   5.629   2.734  0.7812  0.3091 -0.0191
 4622SOL    HW114565   1.377   5.647   2.671  1.2132 -0.8567  0.1016
 4622SOL    HW214566   1.344   5.562   2.792 -0.9660 -1.5156 -0.9125
 4623SOL     OW14567   3.579   4.808   5.002  0.0020  0.0148 -0.0955
 4623SOL    HW114568   3.651   4.818   4.940  1.7942 -0.2217  1.8740
 4623SOL    HW214569   3.585   4.717   5.032 -0.8502  0.1254  0.4455
 4624SOL     OW14570   3.659   2.155   3.935  0.4857 -0.6099  0.6454
 4624SOL    HW114571   3.677   2.248   3.946 -0.1471 -0.5357  1.0768
 4624SOL    HW214572   3.690   2.135   3.846  0.0192  0.1622  0.3026
 4625SOL     OW14573   1.311   0.452   4.488 -0.4403  0.0916 -0.4063
 4625SOL    HW114574   1.404   0.432   4.480 -0.1211  0.8389  1.0574
 4625SOL    HW214575   1.269   0.399   4.420  0.9692 -0.8311 -0.6028
 4626SOL     OW14576   4.684   3.492   1.341 -0.3845 -0.2183 -0.6057
 4626SOL    HW114577   4.723   3.416   1.299 -2.2413 -1.0258 -0.9928
 4626SOL    HW214578   4.600   3.460   1.375 -0.3427  1.1907  0.9362
 4627SOL     OW14579   0.087   0.374   6.223  0.2016 -0.6724 -0.1386
 4627SOL    HW114580   0.023   0.436   6.189 -0.0870 -0.4291  0.8023
 4627SOL    HW214581   0.073   0.375   6.318  2.6294  0.5864  0.3060
 4628SOL     OW14582   3.763   0.736   2.096  0.2407  0.1107 -0.0259
 4628SOL    HW114583   3.695   0.781   2.146  1.7400  2.1453  0.3110
 4628SOL    HW214584   3.761   0.646   2.128 -1.8347  0.2658  0.4198
 4629SOL     OW14585   6.835   5.770   2.876  0.4219 -0.1484 -0.6046
 4629SOL    HW114586   6.929   5.755   2.886  0.0668 -1.2455  1.4357
 4629SOL    HW214587   6.795   5.684   2.886 -0.9100  0.5153  0.0215
 4630SOL     OW14588   6.288   3.278   6.035  0.7860 -0.7849  0.7603
 4630SOL    HW114589   6.224   3.217   6.000  0.2435 -0.3189  0.9336
 4630SOL    HW214590   6.321   3.236   6.114  1.9460 -1.7982 -0.2195
 4631SOL     OW14591   7.303   3.972   6.737  0.4002 -0.4907  0.2548
 4631SOL    HW114592   7.316   4.067   6.732 -0.8072 -0.2755  0.9182
 4631SOL    HW214593   7.390   3.935   6.720  1.0081  0.7489  0.5799
 4632SOL     OW14594   5.884   4.086   0.034 -0.3815  0.0545 -0.0329
 4632SOL    HW114595   5.798   4.127   0.021  0.0830  1.2956  0.5958
 4632SOL    HW214596   5.944   4.139  -0.019  0.1965  0.0431  0.5889
 4633SOL     OW14597   2.199   3.790   1.312 -0.1591 -1.0132  0.0469
 4633SOL    HW114598   2.115   3.767   1.270  0.4589 -1.0955 -1.1956
 4633SOL    HW214599   2.259   3.722   1.282  0.6075 -0.3458  0.0552
 4634SOL     OW14600   3.341   1.949   1.784  0.2575  0.4405 -0.0936
 4634SOL    HW114601   3.430   1.949   1.819  0.4006  0.1581 -0.4472
 4634SOL    HW214602   3.341   2.017   1.717  0.6055 -0.4705 -1.0527
 4635SOL     OW14603   0.158   3.900   5.288 -0.6771  0.5959 -0.0833
 4635SOL    HW114604   0.208   3.819   5.283 -0.2762  0.8624 -0.4765
 4635SOL    HW214605   0.104   3.900   5.209  2.3306  2.6467 -2.3166
 4636SOL     OW14606   3.045   2.296   3.516 -0.1394  0.3047 -0.6496
 4636SOL    HW114607   3.129   2.324   3.479 -0.0432  1.7599  0.5749
 4636SOL    HW214608   3.055   2.202   3.529  1.1393  0.3743 -0.9521
 4637SOL     OW14609   0.075   7.586   1.021 -0.3264  0.4764 -0.0259
 4637SOL    HW114610   0.129   7.537   0.960 -0.3676  0.5369 -0.1108
 4637SOL    HW214611   0.138   7.639   1.071 -0.2298 -0.0854  0.4547
 4638SOL     OW14612   4.163   6.908   4.958 -0.0457 -0.1608 -0.0700
 4638SOL    HW114613   4.216   6.986   4.943  0.3928 -0.2991  0.6964
 4638SOL    HW214614   4.215   6.854   5.018 -1.4162  0.1211  1.4759
 4639SOL     OW14615   7.478   3.276   7.258 -0.4835  0.4410 -0.0294
 4639SOL    HW114616   7.387   3.306   7.264  0.0422  1.9825  0.9826
 4639SOL    HW214617   7.511   3.316   7.177 -0.5420  0.3869 -0.0799
 4640SOL     OW14618   7.847   5.077   2.500  0.3686  0.4506  0.1670
 4640SOL    HW114619   7.922   5.035   2.542  0.8604  2.3609  1.3186
 4640SOL    HW214620   7.803   5.123   2.571  0.1215  2.2152 -1.0824
 4641SOL     OW14621   1.134   7.647   2.344  0.1097  0.7816 -0.0307
 4641SOL    HW114622   1.133   7.584   2.417 -0.0766 -0.8201 -1.3675
 4641SOL    HW214623   1.125   7.732   2.387  0.4969 -0.0612  1.8596
 4642SOL     OW14624   5.764   2.460   7.487  0.1507  0.7193 -0.2814
 4642SOL    HW114625   5.695   2.507   7.440  1.5979  3.2394 -0.0909
 4642SOL    HW214626   5.828   2.437   7.419 -0.4389 -0.8783 -0.3360
 4643SOL     OW14627   1.122   4.079   7.609 -0.0093  0.0257 -0.5330
 4643SOL    HW114628   1.078   4.097   7.692  1.2977 -0.2656  0.2507
 4643SOL    HW214629   1.081   4.139   7.546 -1.6776 -0.4341  0.0885
 4644SOL     OW14630   4.683   3.052   4.553 -0.0945 -0.1502  0.7726
 4644SOL    HW114631   4.625   3.095   4.616  0.1877  1.5235 -0.0277
 4644SOL    HW214632   4.770   3.086   4.573  0.4544 -1.7811  1.2514
 4645SOL     OW14633   6.397   7.367   4.294  0.0110  0.4720 -0.8696
 4645SOL    HW114634   6.310   7.371   4.256 -0.1381  0.0767 -0.5812
 4645SOL    HW214635   6.447   7.436   4.250  0.1600 -0.6801 -2.5674
 4646SOL     OW14636   5.064   4.563   4.729 -0.1181 -0.0913  0.3457
 4646SOL    HW114637   5.128   4.553   4.799  1.0280  1.6760 -0.3796
 4646SOL    HW214638   5.115   4.560   4.649 -1.2025 -0.4599 -0.3469
 4647SOL     OW14639   3.348   3.237   1.537  0.5053  0.4838 -0.0413
 4647SOL    HW114640   3.341   3.267   1.628  0.7235 -0.9998  0.5013
 4647SOL    HW214641   3.361   3.142   1.544  1.9289  0.5206 -1.5902
 4648SOL     OW14642   3.111   1.603   0.007 -0.1580  0.1483  0.5408
 4648SOL    HW114643   3.023   1.570   0.020 -0.4030  0.7150  0.3608
 4648SOL    HW214644   3.123   1.603  -0.088  0.0030  0.1506  0.5605
 4649SOL     OW14645   3.195   4.852   0.854 -0.0178 -0.1576 -0.5796
 4649SOL    HW114646   3.147   4.933   0.839 -2.2502 -1.1169  0.7432
 4649SOL    HW214647   3.234   4.831   0.769  0.4458  2.1391 -1.0063
 4650SOL     OW14648   7.354   6.638   2.095 -0.2561  0.0872  0.1016
 4650SOL    HW114649   7.427   6.699   2.080 -0.5004  0.3507 -0.0195
 4650SOL    HW214650   7.307   6.636   2.012 -0.6521  0.2735  0.3191
 4651SOL     OW14651   5.311   3.353   4.997  0.4969  0.4347  0.1356
 4651SOL    HW114652   5.262   3.433   4.976  0.0869  0.3045  0.5630
 4651SOL    HW214653   5.402   3.375   4.981  0.2636  0.5103 -1.2431
 4652SOL     OW14654   4.148   5.802   5.637  0.4204  0.1950  0.2238
 4652SOL    HW114655   4.056   5.814   5.617  0.0720  2.2973  2.5979
 4652SOL    HW214656   4.159   5.707   5.643 -1.4020 -0.1223 -0.7505
 4653SOL     OW14657   3.104   0.255   3.700  0.2316 -0.2171  0.3698
 4653SOL    HW114658   3.033   0.308   3.738 -0.4934 -0.5846 -0.4513
 4653SOL    HW214659   3.173   0.318   3.681 -0.3410  0.3258  0.0731
 4654SOL     OW14660   2.837   2.082   5.412 -0.2590  0.2798  0.1338
 4654SOL    HW114661   2.761   2.080   5.354  0.0784 -0.6482 -0.2941
 4654SOL    HW214662   2.906   2.039   5.362  0.3699  0.5222  0.7761
 4655SOL     OW14663   1.355   2.261   2.998 -0.7754 -0.1072  0.0979
 4655SOL    HW114664   1.312   2.177   2.982  1.3492 -0.9874 -1.5390
 4655SOL    HW214665   1.301   2.325   2.952 -0.9751 -0.9855 -0.9348
 4656SOL     OW14666   0.174   7.696   2.236 -0.7718  0.5553 -0.6647
 4656SOL    HW114667   0.189   7.670   2.145  0.4061 -1.0366 -0.0575
 4656SOL    HW214668   0.163   7.613   2.283 -0.4072  1.3171  0.8069
 4657SOL     OW14669   1.482   7.799   7.380 -0.3353 -0.3759 -0.1817
 4657SOL    HW114670   1.389   7.811   7.396 -0.1485  1.2841 -0.2433
 4657SOL    HW214671   1.517   7.764   7.462 -1.2356 -2.5011 -0.6399
 4658SOL     OW14672   5.192   1.933   1.487  0.1669 -0.1935 -0.5549
 4658SOL    HW114673   5.264   1.984   1.452  0.1922  0.1006 -0.0832
 4658SOL    HW214674   5.113   1.981   1.460  0.2192  0.8271  0.9583
 4659SOL     OW14675   4.761   5.061   4.191 -0.0947 -0.1891 -0.6280
 4659SOL    HW114676   4.757   5.100   4.278  1.5895  2.3831 -1.6065
 4659SOL    HW214677   4.670   5.062   4.160 -0.7674 -1.4403  1.1364
 4660SOL     OW14678   7.379   1.783   3.719 -0.1079  0.5796  0.4711
 4660SOL    HW114679   7.378   1.874   3.690 -0.9067  0.3516 -0.2413
 4660SOL    HW214680   7.370   1.787   3.814 -1.6526  1.2030  0.3216
 4661SOL     OW14681   6.845   3.612   5.200  0.3109 -0.2426 -0.4034
 4661SOL    HW114682   6.919   3.560   5.168  0.8860 -0.1950  0.8127
 4661SOL    HW214683   6.876   3.651   5.281 -0.7460  0.5301 -0.3482
 4662SOL     OW14684   6.818   0.993   5.022  0.6579  0.2242 -0.0975
 4662SOL    HW114685   6.821   1.045   4.942  0.7632 -1.5586 -1.3037
 4662SOL    HW214686   6.734   1.015   5.063 -1.1595 -1.5271 -2.6332
 4663SOL     OW14687   3.102   5.558   0.640 -0.1310  0.2020 -0.2382
 4663SOL    HW114688   3.145   5.642   0.649  0.2843  0.1642 -1.6471
 4663SOL    HW214689   3.131   5.524   0.556  1.0895 -2.1500  1.0088
 4664SOL     OW14690   6.173   0.149   2.387  0.2852 -0.1071  0.2358
 4664SOL    HW114691   6.184   0.244   2.379  0.3915 -0.0573  0.9405
 4664SOL    HW214692   6.188   0.116   2.298  1.2190  0.4462  0.1672
 4665SOL     OW14693   4.419   5.479   1.574  0.1102 -0.5167 -0.2633
 4665SOL    HW114694   4.332   5.517   1.587 -0.2084 -1.1299 -0.5700
 4665SOL    HW214695   4.407   5.385   1.587  0.8274 -0.5619  0.1693
 4666SOL     OW14696   0.633   6.525   3.893 -0.1897  0.5543 -0.3523
 4666SOL    HW114697   0.691   6.467   3.942 -0.5445 -0.4174 -1.0416
 4666SOL    HW214698   0.560   6.542   3.952 -0.7844 -0.8894 -0.6428
 4667SOL     OW14699   0.209   4.278   5.688  0.4273  0.0651  0.2411
 4667SOL    HW114700   0.259   4.300   5.767 -0.1421  1.5564  0.2127
 4667SOL    HW214701   0.128   4.239   5.722 -0.7153  2.5088  0.5514
 4668SOL     OW14702   4.976   6.672   1.894 -0.0885  0.0097  0.5599
 4668SOL    HW114703   4.903   6.730   1.874 -0.4141 -0.4224  0.5025
 4668SOL    HW214704   5.050   6.732   1.909 -0.3963  0.4357  0.4024
 4669SOL     OW14705   3.844   2.332   3.509  0.8020 -0.2379  0.0120
 4669SOL    HW114706   3.895   2.393   3.561 -1.9625  1.6405  0.7710
 4669SOL    HW214707   3.817   2.383   3.432 -0.5559 -0.8724  0.0348
 4670SOL     OW14708   1.175   6.038   7.304  0.5715  0.2490 -0.1745
 4670SOL    HW114709   1.152   5.945   7.293 -0.7348  0.6692 -1.3482
 4670SOL    HW214710   1.105   6.085   7.258  1.3394  1.8163  0.2016
 4671SOL     OW14711   4.417   2.757   3.620 -0.0238  0.1194  0.3439
 4671SOL    HW114712   4.507   2.788   3.607  0.4661 -0.7706  1.5143
 4671SOL    HW214713   4.383   2.810   3.692 -0.0446 -0.3530  0.6798
 4672SOL     OW14714   1.476   4.612   3.463 -1.2212  0.0042 -0.5394
 4672SOL    HW114715   1.506   4.524   3.441  1.0323  0.4917  0.2923
 4672SOL    HW214716   1.517   4.669   3.398  0.0530  0.7401  0.8443
 4673SOL     OW14717   2.332   5.466   2.989 -0.1402 -0.0702 -0.2257
 4673SOL    HW114718   2.247   5.454   3.033 -0.9252  1.6913 -1.1620
 4673SOL    HW214719   2.346   5.385   2.940  0.5146 -1.9061  2.7203
 4674SOL     OW14720   7.067   6.017   0.514  0.0482  0.4244  0.0731
 4674SOL    HW114721   6.993   5.958   0.525  0.4508 -0.2212 -0.5274
 4674SOL    HW214722   7.066   6.072   0.591  0.8627 -1.7167  1.7322
 4675SOL     OW14723   3.742   7.437   4.401 -0.2377 -0.2984 -0.5959
 4675SOL    HW114724   3.740   7.512   4.461  1.7398  0.0113 -0.8678
 4675SOL    HW214725   3.683   7.462   4.330 -1.7620 -0.2087  0.6284
 4676SOL     OW14726   4.897   6.868   3.729  0.8433 -0.6306  0.1089
 4676SOL    HW114727   4.846   6.838   3.804 -0.0855 -0.6251 -0.5044
 4676SOL    HW214728   4.852   6.948   3.700  1.4291 -0.4073 -0.2093
 4677SOL     OW14729   6.593   4.960   5.596  0.6837 -0.0734 -0.0971
 4677SOL    HW114730   6.589   5.008   5.678 -0.0207 -0.6688  0.2283
 4677SOL    HW214731   6.566   4.871   5.618 -1.9783  0.3026 -1.3807
 4678SOL     OW14732   5.872   0.073   5.924  0.0764  0.4683  0.0504
 4678SOL    HW114733   5.845   0.028   6.004  0.9531  0.0762  0.1341
 4678SOL    HW214734   5.945   0.129   5.952 -0.2153  1.0255 -0.2926
 4679SOL     OW14735   6.393   1.698   4.727  0.1090  0.0781  0.1052
 4679SOL    HW114736   6.462   1.698   4.794 -1.6794  0.9246  2.0708
 4679SOL    HW214737   6.399   1.784   4.686 -0.7824  0.8149  1.4460
 4680SOL     OW14738   1.098   3.937   6.067  0.1003  0.3348 -0.3230
 4680SOL    HW114739   1.165   3.876   6.035  1.1845  1.4769 -0.3207
 4680SOL    HW214740   1.145   4.020   6.078 -0.9871  0.8020  1.1225
 4681SOL     OW14741   2.614   4.940   6.490 -0.3445  0.1798  0.5233
 4681SOL    HW114742   2.566   4.971   6.414  1.7919 -1.0368 -1.4639
 4681SOL    HW214743   2.665   4.865   6.457  1.9927  0.6790  2.6896
 4682SOL     OW14744   6.349   6.344   2.395 -0.3409 -0.4421 -0.2170
 4682SOL    HW114745   6.427   6.361   2.341  1.1854 -3.8719  0.5905
 4682SOL    HW214746   6.385   6.315   2.479 -2.4673 -2.1011  0.2025
 4683SOL     OW14747   2.417   1.558   5.029  0.4851  0.0156 -0.1674
 4683SOL    HW114748   2.431   1.468   5.000 -0.9888 -0.2768 -0.0900
 4683SOL    HW214749   2.338   1.586   4.981  0.2162  0.8416  0.7184
 4684SOL     OW14750   2.352   4.249   3.151 -0.1179  1.0778 -0.1594
 4684SOL    HW114751   2.427   4.240   3.210 -1.3579  0.2243  1.3535
 4684SOL    HW214752   2.370   4.188   3.079 -0.2237 -0.5506  1.1467
 4685SOL     OW14753   0.969   6.873   2.886 -0.2079  0.1552 -0.1590
 4685SOL    HW114754   0.888   6.871   2.837 -0.2856 -2.1940 -0.0594
 4685SOL    HW214755   1.032   6.827   2.831  0.1654 -0.9413  1.1083
 4686SOL     OW14756   3.488   7.294   4.536  0.1650 -0.4815 -0.0305
 4686SOL    HW114757   3.477   7.380   4.578 -1.0657 -0.4683 -0.3308
 4686SOL    HW214758   3.580   7.274   4.546  0.0996 -0.0217  1.8042
 4687SOL     OW14759   6.378   0.768   7.373  0.5886 -0.4828  0.4001
 4687SOL    HW114760   6.356   0.732   7.459 -0.8829 -0.1329  0.1894
 4687SOL    HW214761   6.455   0.719   7.346  2.9495  1.3123  3.1766
 4688SOL     OW14762   2.870   5.635   1.215 -0.2106  0.3839 -0.5090
 4688SOL    HW114763   2.940   5.690   1.179 -0.9805  1.2553 -0.7206
 4688SOL    HW214764   2.856   5.567   1.149 -0.0106  0.5920 -0.7665
 4689SOL     OW14765   0.419   2.057   2.623 -0.7863  0.1183  0.0190
 4689SOL    HW114766   0.415   2.082   2.715  0.2882 -0.2793  0.1876
 4689SOL    HW214767   0.496   2.102   2.589 -2.6656  2.4974 -1.4206
 4690SOL     OW14768   7.828   3.027   2.863 -0.3038  0.1675  0.1063
 4690SOL    HW114769   7.870   3.113   2.862  0.4680 -0.1993  0.2045
 4690SOL    HW214770   7.875   2.976   2.797 -0.5635 -0.2620  0.2493
 4691SOL     OW14771   5.421   0.090   7.686 -0.8914  0.1066  0.6494
 4691SOL    HW114772   5.454   0.108   7.598  1.8626  0.8819  1.7169
 4691SOL    HW214773   5.353   0.156   7.701  0.4063  1.6617 -0.0115
 4692SOL     OW14774   4.180   6.451   3.579  0.2188  0.0034  0.6681
 4692SOL    HW114775   4.092   6.444   3.542  0.3527 -0.7018  0.4756
 4692SOL    HW214776   4.222   6.520   3.529 -0.2239  0.3411  0.7592
 4693SOL     OW14777   2.007   4.549   6.734  0.1352  0.1055  0.4462
 4693SOL    HW114778   1.912   4.553   6.728  0.1626 -0.5830 -0.6961
 4693SOL    HW214779   2.030   4.463   6.699  1.0737 -0.4785  2.3664
 4694SOL     OW14780   0.009   7.322   1.881  0.0301  0.0508  0.4454
 4694SOL    HW114781  -0.046   7.244   1.887 -0.7523  0.5750  0.2024
 4694SOL    HW214782  -0.026   7.371   1.807  1.8231 -0.3616 -0.7535
 4695SOL     OW14783   0.071   2.292   1.897 -0.3305  0.1385  0.2920
 4695SOL    HW114784   0.031   2.248   1.822  1.3600  1.2265 -1.3457
 4695SOL    HW214785   0.133   2.228   1.933  0.8182  0.4725 -0.9787
 4696SOL     OW14786   5.342   3.676   2.176 -0.4381 -0.2581 -0.0594
 4696SOL    HW114787   5.314   3.634   2.257 -0.2074  0.0693  0.1884
 4696SOL    HW214788   5.410   3.738   2.202  0.6440 -1.1560 -0.6752
 4697SOL     OW14789   3.021   3.274   3.398  0.0253  0.4310 -0.3692
 4697SOL    HW114790   3.024   3.220   3.319 -1.2579  0.3121 -0.3524
 4697SOL    HW214791   2.960   3.228   3.456  0.0140  1.1577  0.2112
 4698SOL     OW14792   6.510   1.723   7.837  0.0912  0.3746  0.0706
 4698SOL    HW114793   6.541   1.790   7.897  1.3620 -0.3815  0.2834
 4698SOL    HW214794   6.520   1.762   7.750  0.4338  0.6176  0.2168
 4699SOL     OW14795   0.317   6.166   5.105  0.1296 -0.0543 -0.1394
 4699SOL    HW114796   0.304   6.089   5.161  0.5204 -0.7069 -0.9092
 4699SOL    HW214797   0.404   6.198   5.129  0.2733 -0.2999 -0.3225
 4700SOL     OW14798   2.118   3.185   5.184  0.3335  0.1507  0.3170
 4700SOL    HW114799   2.187   3.147   5.130 -0.3522  0.1301 -0.5899
 4700SOL    HW214800   2.096   3.267   5.140 -1.4705 -0.7064 -0.5069
 4701SOL     OW14801   4.466   0.642   7.261 -0.4075  0.0669  0.0096
 4701SOL    HW114802   4.386   0.675   7.218  1.4253  0.9796 -3.0211
 4701SOL    HW214803   4.436   0.567   7.312 -3.2477  0.5516 -0.7363
 4702SOL     OW14804   7.496   0.656   0.953 -0.3145  0.3144 -1.0402
 4702SOL    HW114805   7.555   0.720   0.993 -0.5064  0.0214 -0.2700
 4702SOL    HW214806   7.415   0.704   0.936 -0.0455  0.5797 -1.5944
 4703SOL     OW14807   6.213   0.738   6.962  0.8223 -0.0409 -0.1252
 4703SOL    HW114808   6.288   0.691   6.999  0.5683 -0.4899 -0.1804
 4703SOL    HW214809   6.227   0.736   6.868  0.7890 -0.0385 -0.1301
 4704SOL     OW14810   6.009   7.143   0.052 -0.0078 -0.0576  0.3185
 4704SOL    HW114811   5.976   7.055   0.034  1.6709 -0.4917 -0.7768
 4704SOL    HW214812   5.944   7.201   0.013  0.8080 -0.9009 -2.5362
 4705SOL     OW14813   3.091   7.397   5.614  0.5102 -0.3811 -0.3481
 4705SOL    HW114814   3.178   7.381   5.579  0.2621 -0.0956 -1.1176
 4705SOL    HW214815   3.078   7.328   5.679  0.4462 -1.7821 -1.7925
 4706SOL     OW14816   4.857   3.428   4.372  0.0112 -0.2500 -0.0026
 4706SOL    HW114817   4.801   3.453   4.298 -0.5100  0.0030  0.4717
 4706SOL    HW214818   4.814   3.466   4.449 -0.1777 -1.6288  0.5935
 4707SOL     OW14819   0.575   0.826   4.212  0.4394  0.2278 -0.3795
 4707SOL    HW114820   0.541   0.897   4.267  0.1891  1.0539 -1.5390
 4707SOL    HW214821   0.619   0.767   4.272 -1.3919  0.1223  0.9377
 4708SOL     OW14822   4.320   0.979   7.917 -0.5603 -0.5719  0.7064
 4708SOL    HW114823   4.315   0.906   7.855  0.9237  0.2468 -0.4463
 4708SOL    HW214824   4.231   1.015   7.919 -0.9786 -1.5359  0.2319
 4709SOL     OW14825   2.342   6.692   5.190 -0.2844  0.1386 -0.1892
 4709SOL    HW114826   2.432   6.708   5.163 -0.0127 -0.2668  0.4748
 4709SOL    HW214827   2.320   6.765   5.248 -0.8851  1.0358 -1.4900
 4710SOL     OW14828   5.401   7.075   1.474  0.0434 -0.4454 -0.6638
 4710SOL    HW114829   5.456   7.154   1.478  0.4310 -0.7328 -0.3385
 4710SOL    HW214830   5.453   7.012   1.426 -0.2258 -0.5454 -0.8276
 4711SOL     OW14831   3.941   1.228   3.820  0.6476  0.3132 -0.6301
 4711SOL    HW114832   4.013   1.270   3.866  1.1181 -1.5412  0.3858
 4711SOL    HW214833   3.911   1.159   3.878 -0.8160 -0.1001 -1.7893
 4712SOL     OW14834   3.792   0.105   3.301  0.5816 -0.0871 -0.1268
 4712SOL    HW114835   3.747   0.077   3.381  2.0403 -0.5836  0.5422
 4712SOL    HW214836   3.839   0.185   3.327  1.0434 -0.2369 -0.4935
 4713SOL     OW14837   1.613   3.238   4.197 -0.2994  0.2738  0.0483
 4713SOL    HW114838   1.588   3.279   4.280  1.0671  1.2041  0.0264
 4713SOL    HW214839   1.686   3.291   4.165  1.5579 -2.1649  0.0138
 4714SOL     OW14840   5.492   5.206   5.020 -0.1637 -0.1608  0.0532
 4714SOL    HW114841   5.420   5.177   4.963 -0.3071 -1.9242  1.0522
 4714SOL    HW214842   5.457   5.198   5.108  1.0870 -0.5836  0.5360
 4715SOL     OW14843   1.513   3.066   0.772  0.8333  0.8311 -0.3439
 4715SOL    HW114844   1.448   3.019   0.720  0.4309 -0.9929  1.6602
 4715SOL    HW214845   1.465   3.137   0.814  0.4706  0.4530 -0.1124
 4716SOL     OW14846   6.048   0.670   6.553  0.1988 -0.1919  0.3625
 4716SOL    HW114847   6.047   0.764   6.535 -0.5686 -0.0412  1.1330
 4716SOL    HW214848   6.115   0.659   6.620 -0.0846 -0.1098  0.6638
 4717SOL     OW14849   7.475   4.150   3.621  0.5474 -0.3365 -0.1405
 4717SOL    HW114850   7.486   4.117   3.710 -3.2251 -0.4017  0.4911
 4717SOL    HW214851   7.498   4.076   3.565  1.0337 -0.9668  0.8537
 4718SOL     OW14852   3.203   5.866   6.327  0.0808 -0.5604  0.1043
 4718SOL    HW114853   3.129   5.909   6.284  1.5980  0.1612 -1.9277
 4718SOL    HW214854   3.179   5.865   6.419 -1.4980  1.6742 -0.1833
 4719SOL     OW14855   5.181   2.868   1.238  0.3936  0.1076  0.2990
 4719SOL    HW114856   5.172   2.782   1.197  0.4927  0.1934  0.0983
 4719SOL    HW214857   5.238   2.917   1.179  0.7320  0.1541  0.6617
 4720SOL     OW14858   7.101   5.225   3.741 -0.5501  0.0098 -0.0077
 4720SOL    HW114859   7.018   5.201   3.701 -1.0538  0.8019  0.5268
 4720SOL    HW214860   7.088   5.314   3.774  0.6424  0.3046 -0.2657
 4721SOL     OW14861   1.711   2.535   4.482  0.6457 -0.4545 -0.0314
 4721SOL    HW114862   1.760   2.552   4.562  0.7228  0.5440 -0.2836
 4721SOL    HW214863   1.691   2.621   4.446 -0.9096 -0.8282 -0.1700
 4722SOL     OW14864   5.225   6.231   4.155 -0.8091 -0.0882 -0.4722
 4722SOL    HW114865   5.248   6.219   4.248 -1.6163 -1.6429 -0.4426
 4722SOL    HW214866   5.139   6.271   4.156 -0.4576  0.6784 -0.5627
 4723SOL     OW14867   6.441   4.899   0.471  0.0879  0.3195  0.0044
 4723SOL    HW114868   6.417   4.807   0.456  1.7461 -0.6472  2.5615
 4723SOL    HW214869   6.527   4.908   0.429 -0.0793  0.7083 -0.2527
 4724SOL     OW14870   1.614   1.349   3.663 -0.5048  0.1447  0.5592
 4724SOL    HW114871   1.551   1.278   3.653 -0.3736 -0.2150  1.9811
 4724SOL    HW214872   1.612   1.369   3.757  1.2932  0.3031  0.5926
 4725SOL     OW14873   7.173   7.787   2.761  0.1219  0.2179  0.5471
 4725SOL    HW114874   7.082   7.763   2.748  0.8388 -1.0391 -3.4974
 4725SOL    HW214875   7.175   7.882   2.754 -0.7624  0.1686 -0.6187
 4726SOL     OW14876   2.535   4.726   5.905 -0.4251  0.9606  0.2576
 4726SOL    HW114877   2.621   4.702   5.872 -0.6549  1.5601 -0.8254
 4726SOL    HW214878   2.524   4.673   5.984  1.1710  1.3138  0.7457
 4727SOL     OW14879   7.189   3.591   4.064 -0.1846  0.6821 -0.0932
 4727SOL    HW114880   7.094   3.579   4.061 -0.1998 -1.0467  3.0719
 4727SOL    HW214881   7.223   3.522   4.007 -0.7906  0.9116 -0.7480
 4728SOL     OW14882   6.741   5.583   3.937  0.5661 -0.1312 -0.0725
 4728SOL    HW114883   6.819   5.549   3.893 -0.6082  1.0544 -3.3735
 4728SOL    HW214884   6.682   5.508   3.943  1.3833 -0.7101  1.2013
 4729SOL     OW14885   0.171   5.371   4.850 -0.3440  0.4118  0.3641
 4729SOL    HW114886   0.221   5.289   4.850 -0.6363  0.2353  0.3531
 4729SOL    HW214887   0.132   5.376   4.937 -0.9496  0.1608  0.1070
 4730SOL     OW14888   1.735   2.023   3.607 -0.2444 -0.4643  0.6516
 4730SOL    HW114889   1.783   2.027   3.524 -0.6532 -2.2762  0.2733
 4730SOL    HW214890   1.764   2.100   3.655 -1.5207  1.8328 -1.9448
 4731SOL     OW14891   3.975   0.349   1.884  0.3734 -0.5404 -0.0873
 4731SOL    HW114892   3.941   0.437   1.865 -1.3578 -1.5290 -1.8836
 4731SOL    HW214893   3.919   0.290   1.835  1.9629 -2.6421  0.4678
 4732SOL     OW14894   7.026   3.846   4.230  0.2456 -0.4425 -0.4360
 4732SOL    HW114895   7.073   3.793   4.295 -1.3647  0.1710  1.3345
 4732SOL    HW214896   6.971   3.783   4.183 -0.6638 -0.5666  0.7449
 4733SOL     OW14897   3.327   5.298   7.748  0.4883 -0.0677 -0.0385
 4733SOL    HW114898   3.385   5.345   7.809 -0.5647  0.7878  0.3354
 4733SOL    HW214899   3.252   5.274   7.801 -0.5607  0.9014 -1.0335
 4734SOL     OW14900   7.319   2.652   4.375 -0.1534  0.1550  0.2082
 4734SOL    HW114901   7.257   2.585   4.405  1.6812 -1.4451  0.6836
 4734SOL    HW214902   7.277   2.735   4.395 -2.5351 -0.8402 -0.3976
 4735SOL     OW14903   5.728   3.825   1.802  0.3625 -0.0988 -0.0743
 4735SOL    HW114904   5.755   3.741   1.840  1.3530 -0.7241 -2.0062
 4735SOL    HW214905   5.714   3.805   1.710  1.0973  1.9596 -0.6734
 4736SOL     OW14906   6.022   1.955   4.404  0.0171  0.1442 -0.7755
 4736SOL    HW114907   6.115   1.939   4.387 -0.1462  0.8117 -2.5919
 4736SOL    HW214908   5.979   1.932   4.321 -1.4430 -0.1495  0.0346
 4737SOL     OW14909   2.137   3.021   6.652  0.0696 -0.3063 -0.3906
 4737SOL    HW114910   2.068   3.067   6.700  0.5010  0.1303 -0.1724
 4737SOL    HW214911   2.131   3.056   6.563 -0.1401 -0.4394 -0.4289
 4738SOL     OW14912   2.660   6.509   6.029 -0.0318  0.5099  0.2213
 4738SOL    HW114913   2.710   6.448   5.975 -1.1566 -1.0524  0.8664
 4738SOL    HW214914   2.669   6.594   5.985  2.0961  0.0388 -0.3523
 4739SOL     OW14915   3.850   6.012   0.593 -0.3280  0.2853  0.3501
 4739SOL    HW114916   3.865   6.062   0.674  1.1611 -0.6664  0.6991
 4739SOL    HW214917   3.859   5.921   0.620 -1.5702 -0.1339 -0.5696
 4740SOL     OW14918   4.831   6.829   5.888 -0.2757 -0.7152 -0.0741
 4740SOL    HW114919   4.917   6.822   5.846 -1.0069  0.9889 -2.0671
 4740SOL    HW214920   4.837   6.908   5.943  0.2255 -2.1380  2.0202
 4741SOL     OW14921   1.900   3.135   3.101 -0.0910  0.1952  0.2160
 4741SOL    HW114922   1.935   3.131   3.190 -0.8408  1.4318  0.5834
 4741SOL    HW214923   1.897   3.228   3.080 -0.4378 -0.0551 -0.9084
 4742SOL     OW14924   6.111   1.327   7.271  0.1613 -0.1748  0.4480
 4742SOL    HW114925   6.155   1.339   7.356  0.0241 -0.7946  0.6112
 4742SOL    HW214926   6.065   1.244   7.279  2.4954 -1.7666 -1.2069
 4743SOL     OW14927   6.074   3.631   2.650 -0.1155  0.4283 -0.4472
 4743SOL    HW114928   6.169   3.634   2.644  0.0101  0.3932  1.1139
 4743SOL    HW214929   6.056   3.562   2.715 -1.2188  0.1822 -0.9863
 4744SOL     OW14930   6.274   5.252   0.230 -0.0825 -0.3083 -0.2060
 4744SOL    HW114931   6.360   5.222   0.201 -0.4655  0.0121 -1.7559
 4744SOL    HW214932   6.258   5.204   0.311  0.5119 -2.2149 -1.1583
 4745SOL     OW14933   3.021   3.123   5.920 -0.1803  0.5246 -0.4398
 4745SOL    HW114934   3.110   3.158   5.914  0.6536 -1.1354  1.2305
 4745SOL    HW214935   2.976   3.183   5.979  0.6384 -0.0007  0.7768
 4746SOL     OW14936   5.507   1.343   5.019  0.2887 -0.2408 -0.6471
 4746SOL    HW114937   5.491   1.310   4.930 -2.0481 -2.3266  0.4214
 4746SOL    HW214938   5.423   1.332   5.064  1.0382  1.9692  1.5119
 4747SOL     OW14939   3.137   5.176   5.098  0.2911  0.1776 -0.3338
 4747SOL    HW114940   3.166   5.111   5.163  0.6760  1.1264  0.4631
 4747SOL    HW214941   3.044   5.189   5.117  0.5329  0.8831  0.4283
 4748SOL     OW14942   5.164   6.409   1.274  0.3840 -0.7333 -0.3772
 4748SOL    HW114943   5.250   6.447   1.292 -0.0409 -0.1922  0.6192
 4748SOL    HW214944   5.160   6.402   1.179  1.7418 -1.2855 -0.4273
 4749SOL     OW14945   7.622   5.847   2.084 -0.0373  0.0612 -0.3090
 4749SOL    HW114946   7.623   5.812   2.173 -2.3188 -0.5273 -0.4534
 4749SOL    HW214947   7.685   5.793   2.036 -0.4028 -1.0700  0.4459
 4750SOL     OW14948   4.082   0.605   2.490  0.3352  0.1371 -0.2882
 4750SOL    HW114949   3.995   0.589   2.528  0.2630 -3.7709 -1.6384
 4750SOL    HW214950   4.125   0.661   2.554 -1.9308 -0.8925  2.3881
 4751SOL     OW14951   0.721   2.616   3.775  0.0089 -0.4702  0.4105
 4751SOL    HW114952   0.682   2.546   3.829 -0.5369  0.4232  1.2142
 4751SOL    HW214953   0.811   2.623   3.807 -0.1726 -0.2707  0.8953
 4752SOL     OW14954   0.549   1.462   2.824 -0.0486 -0.4085  0.6976
 4752SOL    HW114955   0.586   1.495   2.743 -0.5956  1.3336  1.1258
 4752SOL    HW214956   0.549   1.367   2.813  3.0440 -0.4405  0.0563
 4753SOL     OW14957   3.265   6.992   2.352  0.0223  0.0126 -0.2140
 4753SOL    HW114958   3.284   7.085   2.358  0.4010 -0.0863  0.2251
 4753SOL    HW214959   3.287   6.958   2.439 -3.3641  0.0926  0.8202
 4754SOL     OW14960   4.810   5.604   3.373 -0.5544  0.0393 -0.0357
 4754SOL    HW114961   4.781   5.525   3.327 -0.7829 -1.1870  2.0978
 4754SOL    HW214962   4.834   5.574   3.461  0.2505  2.2090  0.5545
 4755SOL     OW14963   6.297   1.669   1.190  0.1592  0.1585 -0.7303
 4755SOL    HW114964   6.235   1.739   1.166 -0.2328  0.6395  1.4247
 4755SOL    HW214965   6.241   1.593   1.205 -0.4856  1.2456  3.8580
 4756SOL     OW14966   5.929   2.699   5.597  0.2137 -0.1982  1.0930
 4756SOL    HW114967   6.017   2.675   5.566 -0.2385 -2.5627  1.4508
 4756SOL    HW214968   5.911   2.636   5.667 -2.8415 -1.6138 -0.7747
 4757SOL     OW14969   3.570   2.776   5.240  0.2001  0.1165 -0.1660
 4757SOL    HW114970   3.522   2.858   5.250  1.6529  1.0495 -0.6222
 4757SOL    HW214971   3.504   2.713   5.210 -0.4642  1.6795 -2.1441
 4758SOL     OW14972   6.981   3.960   7.117  0.4528 -0.6053  1.1246
 4758SOL    HW114973   7.067   4.002   7.119  0.1749 -0.0002  0.5844
 4758SOL    HW214974   6.992   3.881   7.170  0.9573  0.1931  2.2494
 4759SOL     OW14975   6.694   6.275   4.151 -0.0758  0.1183  0.3393
 4759SOL    HW114976   6.789   6.277   4.143  0.1173  0.9777  2.1385
 4759SOL    HW214977   6.664   6.355   4.109  0.1388  0.4920  0.8823
 4760SOL     OW14978   5.952   0.703   7.003 -0.3293 -0.1915  0.3401
 4760SOL    HW114979   6.045   0.705   6.979 -0.8693 -0.8648 -2.0957
 4760SOL    HW214980   5.910   0.761   6.939 -1.5473  0.6524  1.8282
 4761SOL     OW14981   6.341   3.161   1.160 -0.1656 -0.7256  0.3896
 4761SOL    HW114982   6.369   3.175   1.251  0.9245 -0.1386 -0.0223
 4761SOL    HW214983   6.420   3.176   1.108 -0.9242 -0.4328 -0.7082
 4762SOL     OW14984   5.643   0.288   6.571  0.4701  1.3789 -0.3484
 4762SOL    HW114985   5.609   0.332   6.649 -0.0716  0.4566 -0.0562
 4762SOL    HW214986   5.713   0.346   6.540  0.9145  1.6077  1.0084
 4763SOL     OW14987   7.926   3.198   3.560  0.1981 -0.1993 -0.3422
 4763SOL    HW114988   7.969   3.134   3.617 -0.1201 -0.1028  0.0072
 4763SOL    HW214989   7.985   3.207   3.485  0.7640 -0.1121  0.1067
 4764SOL     OW14990   5.940   7.925   2.086 -0.1043  0.0870 -0.4032
 4764SOL    HW114991   6.032   7.929   2.110 -0.2511 -0.3397  0.2460
 4764SOL    HW214992   5.936   7.857   2.018  0.1808  0.7138 -1.0616
 4765SOL     OW14993   2.261   4.063   6.559  0.1003  0.1959  0.4669
 4765SOL    HW114994   2.264   3.985   6.615 -0.6502  0.2021  0.5289
 4765SOL    HW214995   2.230   4.132   6.617 -0.0957  0.3366  0.1966
 4766SOL     OW14996   3.887   7.290   0.114 -0.4561  0.5813 -0.2335
 4766SOL    HW114997   3.926   7.297   0.201 -0.7686 -0.0077 -0.0403
 4766SOL    HW214998   3.794   7.301   0.128 -0.4925  0.6558 -0.5179
 4767SOL     OW14999   6.739   3.338   7.832  0.0866  0.0237 -0.2678
 4767SOL    HW115000   6.755   3.432   7.843  0.5660 -0.3390  3.3833
 4767SOL    HW215001   6.730   3.305   7.921 -0.3941 -3.3878 -1.4408
 4768SOL     OW15002   6.357   2.591   4.662 -0.1255  0.2311  0.4579
 4768SOL    HW115003   6.396   2.624   4.581  1.3613  0.4337  1.2280
 4768SOL    HW215004   6.263   2.606   4.651  0.0242  0.0428 -1.3134
 4769SOL     OW15005   7.033   5.251   2.968  0.4687 -0.4012  0.6261
 4769SOL    HW115006   6.938   5.262   2.972  0.1955 -2.0314 -0.4288
 4769SOL    HW215007   7.063   5.271   3.057 -1.1950 -2.4907  1.7496
 4770SOL     OW15008   4.619   3.540   2.450  0.2949 -0.1685 -0.7825
 4770SOL    HW115009   4.690   3.488   2.414  2.7218  1.3503  1.4519
 4770SOL    HW215010   4.601   3.499   2.535 -2.2661 -1.0827 -1.6621
 4771SOL     OW15011   2.367   6.490   7.310  0.3843  0.0893  0.1129
 4771SOL    HW115012   2.388   6.498   7.217  0.1156  0.3659  0.0739
 4771SOL    HW215013   2.273   6.469   7.312  0.4520 -0.1978  0.3114
 4772SOL     OW15014   3.579   6.680   5.901  0.3025 -0.3871 -0.1398
 4772SOL    HW115015   3.673   6.694   5.887 -0.0915  2.6037 -0.5300
 4772SOL    HW215016   3.561   6.723   5.985 -0.5622 -1.9911  0.5432
 4773SOL     OW15017   7.036   7.651   3.239  0.3182 -0.0330 -0.0548
 4773SOL    HW115018   7.019   7.681   3.150  1.5146 -0.8457 -0.5861
 4773SOL    HW215019   6.969   7.694   3.292  0.0073  1.0077 -1.2364
 4774SOL     OW15020   5.253   1.793   1.148  0.4018  0.1903  0.0805
 4774SOL    HW115021   5.322   1.735   1.178 -0.9843 -0.8352  1.4148
 4774SOL    HW215022   5.178   1.772   1.203 -0.3685  2.7927  0.1815
 4775SOL     OW15023   1.917   3.961   4.276 -0.1822 -0.6413 -0.3308
 4775SOL    HW115024   2.002   3.934   4.312  0.1018 -2.7119 -2.3315
 4775SOL    HW215025   1.853   3.922   4.335  0.2242 -0.0952  0.4992
 4776SOL     OW15026   3.878   2.490   1.130  0.3793 -0.4664 -0.0231
 4776SOL    HW115027   3.887   2.462   1.039  0.3975 -0.5566  0.0065
 4776SOL    HW215028   3.968   2.500   1.161  0.4838 -3.3219  0.8832
 4777SOL     OW15029   0.066   1.902   7.679 -0.3646  0.5435 -0.2888
 4777SOL    HW115030   0.056   1.872   7.588 -3.0172  1.9910 -0.5798
 4777SOL    HW215031   0.063   1.998   7.673  2.8582  0.8658  1.0754
 4778SOL     OW15032   4.758   1.563   2.173 -0.0203 -0.3137 -0.3186
 4778SOL    HW115033   4.663   1.561   2.185 -0.2463 -1.7142 -2.0764
 4778SOL    HW215034   4.772   1.629   2.105  0.4313  0.9099  0.9125
 4779SOL     OW15035   4.448   7.616   2.227 -0.1282 -0.3091  0.0019
 4779SOL    HW115036   4.441   7.521   2.223 -2.9761 -0.2423  1.1257
 4779SOL    HW215037   4.368   7.644   2.270  0.6914  2.6205 -0.1767
 4780SOL     OW15038   3.638   1.069   1.966  0.2419 -0.0815 -0.2178
 4780SOL    HW115039   3.641   1.150   1.915  0.0464  1.4002  1.9504
 4780SOL    HW215040   3.629   1.099   2.057  0.0491 -2.5645  0.6558
 4781SOL     OW15041   0.070   1.508   5.838  0.2367 -0.4326  0.0651
 4781SOL    HW115042   0.111   1.425   5.815 -0.1899 -0.7300  0.3656
 4781SOL    HW215043  -0.023   1.487   5.851 -0.0637  0.2640 -0.8112
 4782SOL     OW15044   7.850   2.730   6.422 -0.4795 -0.2648 -0.0666
 4782SOL    HW115045   7.911   2.800   6.398  0.2526 -0.3484  1.4326
 4782SOL    HW215046   7.808   2.705   6.340  2.5877 -1.2451 -1.4643
 4783SOL     OW15047   3.084   3.226   5.186  0.6743  0.4760 -0.9947
 4783SOL    HW115048   3.105   3.151   5.240  2.0017  0.3062 -1.7056
 4783SOL    HW215049   3.094   3.302   5.244  1.6441  0.2629 -0.8700
 4784SOL     OW15050   6.679   7.136   4.951  0.6504 -0.3562  0.1637
 4784SOL    HW115051   6.684   7.087   4.870  1.2204 -0.7767  0.4432
 4784SOL    HW215052   6.742   7.208   4.939  0.1330  0.0573 -0.0806
 4785SOL     OW15053   1.936   0.636   6.348 -0.1442  0.0918 -0.2062
 4785SOL    HW115054   1.931   0.557   6.294  1.8725  0.2118 -0.6508
 4785SOL    HW215055   1.877   0.698   6.305  0.9321 -0.0277 -1.9359
 4786SOL     OW15056   3.670   6.158   1.925  0.3019  0.0486  0.3926
 4786SOL    HW115057   3.628   6.216   1.989  0.2665 -1.7500  2.1140
 4786SOL    HW215058   3.604   6.090   1.909  0.9759 -0.4764 -0.1973
 4787SOL     OW15059   5.315   6.992   6.846  0.3409 -0.5815 -0.7670
 4787SOL    HW115060   5.322   7.081   6.880 -0.8319 -0.2590 -1.3131
 4787SOL    HW215061   5.255   6.948   6.906  0.5985 -0.8842 -0.7289
 4788SOL     OW15062   6.395   4.196   3.948  0.2580 -0.0357  0.0978
 4788SOL    HW115063   6.343   4.272   3.923  1.7232  1.4805  1.4327
 4788SOL    HW215064   6.441   4.171   3.867 -1.1477 -0.3082 -0.6502
 4789SOL     OW15065   5.066   7.692   0.521 -0.2134 -0.6112  0.2639
 4789SOL    HW115066   4.991   7.665   0.575  0.9611 -2.2254  1.1774
 4789SOL    HW215067   5.074   7.622   0.456  0.8088 -0.7321  0.5072
 4790SOL     OW15068   5.470   7.011   3.320  0.0076 -0.3132  0.6839
 4790SOL    HW115069   5.508   6.941   3.373 -0.2250  0.6403  2.1600
 4790SOL    HW215070   5.538   7.034   3.258  1.2381  0.1740  2.1526
 4791SOL     OW15071   1.189   0.792   1.008  0.5487 -0.4587  0.1804
 4791SOL    HW115072   1.154   0.833   0.928  0.4794  1.3218  1.0677
 4791SOL    HW215073   1.191   0.699   0.988  0.6288 -0.0618 -1.9458
 4792SOL     OW15074   0.224   2.552   1.996  0.5156  0.5216  0.7050
 4792SOL    HW115075   0.313   2.520   2.003  0.4488 -0.3976 -1.7459
 4792SOL    HW215076   0.171   2.473   1.983 -0.4510  1.1601  0.6873
 4793SOL     OW15077   7.597   5.949   6.694 -0.4758  0.1767  0.4278
 4793SOL    HW115078   7.635   5.992   6.770  0.4339  0.9462 -0.4419
 4793SOL    HW215079   7.601   5.855   6.715 -0.3661  0.3911  1.3750
 4794SOL     OW15080   3.999   6.704   1.594 -0.1227  0.5098  0.1611
 4794SOL    HW115081   3.982   6.629   1.537 -0.2767  0.1912  0.6187
 4794SOL    HW215082   3.934   6.769   1.569 -1.2355 -0.2260  1.0455
 4795SOL     OW15083   2.332   5.798   7.829 -0.2136 -0.5337  0.8605
 4795SOL    HW115084   2.270   5.821   7.761  1.7399 -0.6178 -1.0693
 4795SOL    HW215085   2.324   5.868   7.894  0.7980  2.0373 -1.5519
 4796SOL     OW15086   5.004   0.941   4.848  0.1280  0.0131 -0.7137
 4796SOL    HW115087   4.966   0.983   4.771 -0.1586  1.1099  0.0072
 4796SOL    HW215088   4.932   0.893   4.888 -0.1942  0.9884 -0.0969
 4797SOL     OW15089   6.363   7.632   4.761  0.0078 -0.0536 -0.7060
 4797SOL    HW115090   6.364   7.694   4.834  0.1939 -1.3887  0.4727
 4797SOL    HW215091   6.389   7.684   4.685 -2.3304  1.9063 -0.2996
 4798SOL     OW15092   3.303   2.680   3.984 -0.1293 -0.1340 -0.4812
 4798SOL    HW115093   3.252   2.694   3.904 -2.4449 -2.2325  0.4903
 4798SOL    HW215094   3.298   2.585   3.998  2.9703 -0.2552  0.4688
 4799SOL     OW15095   0.681   6.158   2.825  0.2516  0.2798 -0.2503
 4799SOL    HW115096   0.712   6.144   2.736 -0.1418 -0.5957 -0.2566
 4799SOL    HW215097   0.689   6.073   2.868 -1.4409  0.1767 -0.0423
 4800SOL     OW15098   4.941   6.290   5.983 -0.1271  0.0199 -0.1655
 4800SOL    HW115099   4.909   6.200   5.988  0.5055 -0.4170 -2.6175
 4800SOL    HW215100   4.866   6.343   6.011 -0.6897 -1.2359  0.7904
 4801SOL     OW15101   2.918   6.363   2.650  0.5318  0.3903 -0.1338
 4801SOL    HW115102   3.003   6.361   2.607  0.7930  3.2319  0.0333
 4801SOL    HW215103   2.931   6.419   2.726 -0.0382 -4.0321  3.6627
 4802SOL     OW15104   2.939   5.676   0.923  0.0468  0.6270  0.1906
 4802SOL    HW115105   2.859   5.729   0.926  0.5529  1.3986  0.5768
 4802SOL    HW215106   2.994   5.712   0.993  0.3605 -0.5056  0.5413
 4803SOL     OW15107   0.222   0.650   5.831 -0.3451 -0.0255  0.1158
 4803SOL    HW115108   0.212   0.642   5.926 -2.0727  0.1578 -0.0266
 4803SOL    HW215109   0.242   0.562   5.801  0.8499  0.0222  0.6853
 4804SOL     OW15110   3.615   7.602   3.600 -0.1108 -0.3357 -0.3512
 4804SOL    HW115111   3.556   7.660   3.553 -1.0081  0.3987  1.5402
 4804SOL    HW215112   3.557   7.546   3.652  0.8040 -1.1767 -0.2170
 4805SOL     OW15113   1.899   2.495   5.879 -0.3837 -0.9419 -0.7164
 4805SOL    HW115114   1.836   2.549   5.926 -0.0506 -0.3629 -0.9284
 4805SOL    HW215115   1.919   2.423   5.938  1.2324  0.5903  0.7190
 4806SOL     OW15116   3.687   5.233   5.424  0.0497  0.1704  0.8289
 4806SOL    HW115117   3.781   5.221   5.437 -0.3128 -1.1398  2.5865
 4806SOL    HW215118   3.667   5.186   5.343  0.7037 -0.5842  1.1042
 4807SOL     OW15119   0.451   2.854   2.303 -0.0043 -0.1077 -0.7996
 4807SOL    HW115120   0.404   2.928   2.265 -1.2216 -0.8687 -0.8106
 4807SOL    HW215121   0.434   2.781   2.243 -0.1563 -0.7836  0.0475
 4808SOL     OW15122   1.773   2.594   1.428  0.7677 -0.2968 -0.1502
 4808SOL    HW115123   1.765   2.678   1.474  1.2676 -0.3456  0.0320
 4808SOL    HW215124   1.731   2.608   1.344 -2.2410 -0.8513  1.1244
 4809SOL     OW15125   4.289   0.325   5.890  0.5583  0.1635 -0.8520
 4809SOL    HW115126   4.378   0.291   5.892  0.7046  0.5139  0.9799
 4809SOL    HW215127   4.239   0.265   5.946 -0.0635  0.6814 -0.8346
 4810SOL     OW15128   1.293   2.520   3.638  0.5154 -0.2261 -0.3975
 4810SOL    HW115129   1.354   2.457   3.599  1.7803  1.1894 -0.7898
 4810SOL    HW215130   1.309   2.601   3.590 -2.1039  0.0775 -0.8954
 4811SOL     OW15131   7.002   3.460   3.545 -0.4020 -0.1953  0.8814
 4811SOL    HW115132   6.917   3.454   3.588 -1.1547 -0.1237 -0.5567
 4811SOL    HW215133   7.054   3.390   3.587 -1.2135 -0.3697  1.6322
 4812SOL     OW15134   1.899   2.515   3.837  0.3311 -0.4719  0.6628
 4812SOL    HW115135   1.974   2.523   3.778  0.6175 -1.3250  0.9027
 4812SOL    HW215136   1.823   2.535   3.782  0.6846 -0.2041  0.2689
 4813SOL     OW15137   6.058   7.820   5.605 -0.5604  0.0538 -0.4684
 4813SOL    HW115138   6.051   7.903   5.558  1.7844  1.0974  0.8287
 4813SOL    HW215139   6.014   7.836   5.689  2.1742  1.0623  0.9225
 4814SOL     OW15140   2.672   7.378   3.853 -0.1468  0.2410  0.1026
 4814SOL    HW115141   2.671   7.393   3.758 -0.9275  1.5405  0.2875
 4814SOL    HW215142   2.582   7.354   3.874  0.5992 -3.0059  0.1432
 4815SOL     OW15143   5.971   0.091   0.598 -0.0553  0.1037  0.5338
 4815SOL    HW115144   6.019   0.140   0.531 -2.3870  1.5273 -0.2408
 4815SOL    HW215145   6.004   0.002   0.592  1.1138  0.6119 -1.2344
 4816SOL     OW15146   4.803   2.775   1.993 -0.3950 -0.5489 -0.4187
 4816SOL    HW115147   4.804   2.846   1.929 -2.4308  1.0159  1.1562
 4816SOL    HW215148   4.895   2.765   2.018  0.0101  1.2100 -1.0284
 4817SOL     OW15149   1.992   0.816   5.725 -0.1621  0.5378 -0.3610
 4817SOL    HW115150   2.067   0.876   5.729  2.6529 -2.7224  2.6958
 4817SOL    HW215151   1.959   0.813   5.815 -1.9038 -0.6036 -0.9723
 4818SOL     OW15152   3.829   1.975   5.640  0.2299  0.0685 -0.1858
 4818SOL    HW115153   3.777   2.046   5.676  0.8106  0.6158 -0.4141
 4818SOL    HW215154   3.810   1.977   5.546  0.8800  0.4521 -0.3090
 4819SOL     OW15155   6.334   6.779   4.129 -0.0646  0.7612  0.0250
 4819SOL    HW115156   6.263   6.722   4.159  0.3516  0.9990  1.5581
 4819SOL    HW215157   6.332   6.772   4.034 -0.7286 -0.9679  0.1285
 4820SOL     OW15158   3.250   7.200   6.065 -0.1217 -0.1068  0.1046
 4820SOL    HW115159   3.173   7.155   6.099  0.9404 -1.6879  0.5048
 4820SOL    HW215160   3.299   7.226   6.143 -0.6374  1.6634 -0.1222
 4821SOL     OW15161   7.336   4.564   7.633 -0.0152  0.4248  0.4967
 4821SOL    HW115162   7.371   4.497   7.692 -0.8697 -1.3269 -0.9133
 4821SOL    HW215163   7.406   4.582   7.571 -0.5768 -0.9557 -0.5705
 4822SOL     OW15164   2.985   5.422   7.373 -0.1832  0.5509 -0.1126
 4822SOL    HW115165   2.897   5.406   7.407 -1.4001  3.6479 -1.4007
 4822SOL    HW215166   3.038   5.440   7.450 -0.0044 -3.4466  0.8874
 4823SOL     OW15167   3.136   0.987   2.583  0.0136 -1.3130  0.6167
 4823SOL    HW115168   3.136   0.892   2.569  1.3054 -1.2250 -0.0790
 4823SOL    HW215169   3.149   0.997   2.678 -2.0320 -1.8244  1.0016
 4824SOL     OW15170   7.568   0.005   5.377 -0.0907  0.1004 -0.1073
 4824SOL    HW115171   7.546  -0.042   5.296 -0.4147 -2.1566  1.2007
 4824SOL    HW215172   7.509  -0.033   5.442  0.7210  1.2981  1.3652
 4825SOL     OW15173   4.768   4.743   3.035 -0.2605  0.2867  0.0188
 4825SOL    HW115174   4.674   4.757   3.051 -0.3209 -1.1319  1.1262
 4825SOL    HW215175   4.771   4.670   2.974  0.1362 -0.1873  0.6040
 4826SOL     OW15176   6.547   4.414   2.453  0.5466  0.5543 -0.1366
 4826SOL    HW115177   6.478   4.393   2.516 -0.5119 -0.0183 -1.4299
 4826SOL    HW215178   6.622   4.441   2.507  0.2389 -1.4773  1.4200
 4827SOL     OW15179   4.552   1.314   6.755 -0.1191 -0.0953  0.2667
 4827SOL    HW115180   4.643   1.285   6.756  0.2109  0.8830  0.4609
 4827SOL    HW215181   4.505   1.248   6.806  0.6065 -0.2475  0.7623
 4828SOL     OW15182   7.881   0.934   6.077  0.0215  0.0116  0.3601
 4828SOL    HW115183   7.836   1.019   6.071  0.4221  0.3594  1.7820
 4828SOL    HW215184   7.970   0.952   6.048  0.7980  0.7135  2.8678
 4829SOL     OW15185   1.151   2.918   6.900  0.0455  0.2789 -0.5076
 4829SOL    HW115186   1.176   2.836   6.943 -0.2349  0.7638  0.6186
 4829SOL    HW215187   1.139   2.894   6.808  0.1724 -0.9002 -0.2353
 4830SOL     OW15188   1.789   6.433   6.127 -0.1380  0.0095 -0.4561
 4830SOL    HW115189   1.712   6.377   6.135 -0.6521  0.0196 -3.8402
 4830SOL    HW215190   1.766   6.496   6.059  1.8106  1.9814  0.5654
 4831SOL     OW15191   0.657   6.345   0.468  0.4234  0.0228  0.3283
 4831SOL    HW115192   0.676   6.353   0.561 -0.1186 -0.9515  0.5240
 4831SOL    HW215193   0.563   6.359   0.461  0.4485  0.0003 -0.0683
 4832SOL     OW15194   7.420   6.141   2.229 -0.1539  0.0404 -0.8266
 4832SOL    HW115195   7.452   6.099   2.150  0.6500 -0.0435 -0.4647
 4832SOL    HW215196   7.499   6.160   2.280 -0.3423  3.1505 -1.5108
 4833SOL     OW15197   1.891   7.647   5.036  0.3098  0.4126  0.1865
 4833SOL    HW115198   1.986   7.656   5.049  0.5439 -0.8290 -0.4315
 4833SOL    HW215199   1.883   7.571   4.978 -1.0481  0.8464 -0.2089
 4834SOL     OW15200   0.939   5.229   0.919  0.0403  0.9350 -0.0826
 4834SOL    HW115201   0.890   5.161   0.966 -0.6885  0.7890 -1.0223
 4834SOL    HW215202   1.027   5.193   0.909  0.5395  1.4297  2.1200
 4835SOL     OW15203   4.254   3.932   3.225  0.0640 -0.2571  0.3581
 4835SOL    HW115204   4.280   3.902   3.312  0.4530 -1.0009 -0.0066
 4835SOL    HW215205   4.263   4.028   3.229  1.6107 -0.3838  0.6666
 4836SOL     OW15206   4.644   6.343   5.499 -0.7532  0.2020 -0.2990
 4836SOL    HW115207   4.566   6.339   5.554  0.0625 -0.6590  0.8156
 4836SOL    HW215208   4.705   6.398   5.548 -0.5237  0.5951 -1.0093
 4837SOL     OW15209   4.796   2.100   5.117  0.4607  0.1174  0.1622
 4837SOL    HW115210   4.840   2.176   5.155 -1.8860  1.9825 -0.5806
 4837SOL    HW215211   4.771   2.129   5.029  1.0848 -2.2157 -0.8742
 4838SOL     OW15212   3.345   1.455   5.104 -0.7883 -0.1382 -0.1642
 4838SOL    HW115213   3.432   1.474   5.140 -0.9627 -0.3291  0.3747
 4838SOL    HW215214   3.337   1.360   5.108 -2.7310 -0.0729  4.1220
 4839SOL     OW15215   5.859   6.371   6.535  0.1314 -0.1292 -0.3723
 4839SOL    HW115216   5.874   6.284   6.571  0.4792 -0.1817 -0.6308
 4839SOL    HW215217   5.943   6.416   6.547  0.3839 -0.2856 -1.4861
 4840SOL     OW15218   2.954   5.308   2.527 -0.3880  0.6750 -0.4633
 4840SOL    HW115219   2.886   5.303   2.460 -0.5285 -1.1177 -0.2352
 4840SOL    HW215220   2.928   5.243   2.592  2.1812 -1.0347 -0.9892
 4841SOL     OW15221   5.962   0.085   1.020  0.5504 -0.3545  0.6227
 4841SOL    HW115222   5.903   0.100   1.094 -0.2114  0.3128 -0.0939
 4841SOL    HW215223   6.048   0.070   1.060 -0.0083 -0.8947  1.6702
 4842SOL     OW15224   5.178   1.947   7.870  0.3406 -0.1344  0.1134
 4842SOL    HW115225   5.128   2.004   7.927 -0.8008  0.1418 -1.1089
 4842SOL    HW215226   5.136   1.862   7.878  0.2803 -0.1334 -0.1635
 4843SOL     OW15227   4.463   1.978   4.921  0.0669 -0.3019 -0.3249
 4843SOL    HW115228   4.378   1.965   4.961 -0.1645 -1.9500 -1.2985
 4843SOL    HW215229   4.525   1.933   4.979  0.0994 -0.2631 -0.3292
 4844SOL     OW15230   2.890   1.260   1.613 -0.1948 -0.2155  0.1266
 4844SOL    HW115231   2.808   1.251   1.565  0.2159  0.4268 -0.7183
 4844SOL    HW215232   2.912   1.353   1.606  1.6617 -0.7099 -1.4837
 4845SOL     OW15233   4.138   2.166   6.357  0.1335  0.1603  0.2069
 4845SOL    HW115234   4.215   2.114   6.380  0.0806  0.1610  0.3884
 4845SOL    HW215235   4.122   2.146   6.265 -0.9501 -1.5538  0.7016
 4846SOL     OW15236   6.363   4.879   0.996  0.4132 -0.6096  0.2779
 4846SOL    HW115237   6.406   4.841   1.073  0.9775  0.7426  0.6623
 4846SOL    HW215238   6.407   4.963   0.983  0.0920 -0.6553 -1.3281
 4847SOL     OW15239   5.826   2.137   7.283 -0.5768  0.1022 -0.4928
 4847SOL    HW115240   5.853   2.101   7.367  0.0072  0.1038 -0.6753
 4847SOL    HW215241   5.766   2.072   7.247  0.3255 -0.6177 -0.7411
 4848SOL     OW15242   6.020   3.013   6.746  0.0481  0.2783 -0.0717
 4848SOL    HW115243   6.076   3.050   6.815  1.0183  1.4889 -1.4627
 4848SOL    HW215244   5.931   3.033   6.775  0.4823  2.3935  0.0143
 4849SOL     OW15245   0.176   7.184   0.253 -0.3782 -0.1891 -0.6038
 4849SOL    HW115246   0.145   7.103   0.293 -0.5307 -0.0258 -0.3868
 4849SOL    HW215247   0.255   7.158   0.204 -0.5533 -0.5064 -0.7220
 4850SOL     OW15248   3.932   6.712   7.411  0.1341 -0.0919 -0.5001
 4850SOL    HW115249   3.994   6.785   7.418 -1.1208  0.8613  2.3080
 4850SOL    HW215250   3.899   6.717   7.321  2.0218  1.0934 -1.2031
 4851SOL     OW15251   0.764   1.182   5.922  0.1729  0.0298  0.2897
 4851SOL    HW115252   0.806   1.259   5.960  0.4715 -0.4096  0.8617
 4851SOL    HW215253   0.747   1.125   5.997 -0.7558 -0.1312 -0.0276
 4852SOL     OW15254   3.402   7.301   6.254  0.2990 -0.5103 -0.3173
 4852SOL    HW115255   3.468   7.369   6.268 -0.2366  0.1704 -1.0064
 4852SOL    HW215256   3.415   7.240   6.327  1.6417 -0.3657 -0.4094
 4853SOL     OW15257   2.882   7.694   3.243 -0.3235  0.4682 -0.3863
 4853SOL    HW115258   2.858   7.751   3.169 -1.9865 -1.6767 -1.6003
 4853SOL    HW215259   2.915   7.615   3.202  0.5933 -0.0192  1.2460
 4854SOL     OW15260   2.408   0.330   0.454  0.2026 -0.0358  0.0193
 4854SOL    HW115261   2.374   0.322   0.365 -0.8263 -1.1514  0.4766
 4854SOL    HW215262   2.467   0.255   0.464 -0.9162 -0.8558  0.7629
 4855SOL     OW15263   5.018   4.406   5.586 -0.4701  0.1836  0.3095
 4855SOL    HW115264   5.014   4.500   5.604  2.9234  0.3968  0.4359
 4855SOL    HW215265   4.997   4.400   5.493 -1.1138  1.0022  0.3815
 4856SOL     OW15266   2.955   0.050   5.016  0.2582 -0.1614  0.1150
 4856SOL    HW115267   2.934   0.075   4.926 -0.5849  1.6016  0.7644
 4856SOL    HW215268   2.872   0.019   5.052  0.1407  0.9585  0.8417
 4857SOL     OW15269   2.505   6.871   5.461 -0.3143  0.7818 -0.5154
 4857SOL    HW115270   2.511   6.963   5.437  0.0848  0.8708 -0.0631
 4857SOL    HW215271   2.475   6.871   5.552 -2.7209  0.4327 -1.2362
 4858SOL     OW15272   1.775   0.728   0.664 -0.0304  0.0981 -0.2741
 4858SOL    HW115273   1.683   0.705   0.676  0.0880 -0.6760 -0.8035
 4858SOL    HW215274   1.805   0.755   0.750 -1.1856  1.9633 -0.4003
 4859SOL     OW15275   6.560   3.347   5.783 -0.2335  0.6934  0.8195
 4859SOL    HW115276   6.521   3.321   5.866  0.8552  2.1691  1.8205
 4859SOL    HW215277   6.519   3.430   5.761 -2.1710 -0.6808 -1.3311
 4860SOL     OW15278   6.598   1.674   4.922 -0.8735 -0.2174  0.1660
 4860SOL    HW115279   6.653   1.666   4.844 -0.7402 -1.4793  0.3563
 4860SOL    HW215280   6.585   1.583   4.951 -0.1380  0.2550  2.1398
 4861SOL     OW15281   6.212   6.024   0.080  0.1161 -0.0146 -0.1534
 4861SOL    HW115282   6.119   6.035   0.062  0.0697 -0.7487 -0.3904
 4861SOL    HW215283   6.223   5.930   0.097  0.4932  0.3295  1.7553
 4862SOL     OW15284   4.643   2.213   4.924 -0.1542 -0.0042  0.1025
 4862SOL    HW115285   4.602   2.240   4.841  0.6478 -0.5075 -0.4732
 4862SOL    HW215286   4.580   2.152   4.963 -1.0831  1.1528  0.4584
 4863SOL     OW15287   3.502   0.918   7.481  0.0609  0.3132  0.2592
 4863SOL    HW115288   3.597   0.917   7.464 -0.0467  0.7091 -0.4000
 4863SOL    HW215289   3.466   0.858   7.416 -0.1460  0.1901  0.4864
 4864SOL     OW15290   1.169   0.107   5.811  0.0437  0.0848  0.7116
 4864SOL    HW115291   1.143   0.068   5.895  0.2488 -0.3501  0.5787
 4864SOL    HW215292   1.123   0.054   5.746 -0.7577  0.9280  0.5765
 4865SOL     OW15293   7.917   6.291   5.555 -0.1391 -0.4216 -0.1078
 4865SOL    HW115294   7.942   6.286   5.463 -1.7815  0.2801 -0.6203
 4865SOL    HW215295   7.939   6.380   5.581 -1.0196 -0.1538 -0.2507
 4866SOL     OW15296   1.269   6.338   1.571 -0.0106 -0.0207  0.5008
 4866SOL    HW115297   1.296   6.413   1.518  0.6720 -0.2835  0.4791
 4866SOL    HW215298   1.179   6.321   1.542 -1.7073  3.1998  3.1680
 4867SOL     OW15299   2.206   6.400   6.779 -0.1657 -0.3835  0.3324
 4867SOL    HW115300   2.216   6.342   6.704  0.2178 -0.9070  0.7755
 4867SOL    HW215301   2.152   6.350   6.841 -1.1212  0.3397  0.1054
 4868SOL     OW15302   4.484   0.249   1.247  0.2102  0.0052 -0.3648
 4868SOL    HW115303   4.446   0.224   1.163 -1.3879  1.0574 -0.0021
 4868SOL    HW215304   4.572   0.279   1.226  0.6648 -1.8982 -1.3336
 4869SOL     OW15305   4.838   0.583   7.419  0.3732  0.2221 -1.0763
 4869SOL    HW115306   4.796   0.648   7.475  0.2436  1.5176 -2.6053
 4869SOL    HW215307   4.927   0.615   7.407  1.2010 -1.3679  0.3743
 4870SOL     OW15308   2.732   7.875   5.114 -0.4793  0.0381 -0.2977
 4870SOL    HW115309   2.740   7.824   5.194  1.4716 -2.1971 -1.7815
 4870SOL    HW215310   2.648   7.850   5.077  0.1709 -1.6776 -0.6764
 4871SOL     OW15311   3.403   5.205   3.124  0.5345 -0.3237  0.0530
 4871SOL    HW115312   3.341   5.256   3.176  0.2702  0.0465 -0.6144
 4871SOL    HW215313   3.409   5.121   3.169 -2.3822 -1.3364 -1.1824
 4872SOL     OW15314   3.476   5.329   0.352  0.4082  0.4419 -0.1779
 4872SOL    HW115315   3.411   5.394   0.376  0.2284 -0.3324  1.6392
 4872SOL    HW215316   3.548   5.379   0.314 -0.7724  1.4172 -1.1728
 4873SOL     OW15317   4.974   6.774   4.587 -0.0635  0.4795  0.5956
 4873SOL    HW115318   5.056   6.790   4.540 -1.3149  0.2727 -1.7967
 4873SOL    HW215319   4.977   6.681   4.610 -0.4019  0.0253 -1.1221
 4874SOL     OW15320   5.436   5.259   7.747 -0.6181  0.2324 -0.1405
 4874SOL    HW115321   5.386   5.341   7.739 -0.0932  0.5515 -0.2082
 4874SOL    HW215322   5.414   5.226   7.834  0.3429  1.2513  0.5252
 4875SOL     OW15323   5.449   0.103   6.888 -0.0955  1.0882  0.2442
 4875SOL    HW115324   5.539   0.135   6.889 -0.2935  1.6405  0.9797
 4875SOL    HW215325   5.457   0.007   6.891  0.4544  1.1621  1.8986
 4876SOL     OW15326   4.847   2.669   3.706  0.3362 -0.1949  0.5235
 4876SOL    HW115327   4.844   2.639   3.797 -1.7696 -1.6177  0.0707
 4876SOL    HW215328   4.788   2.744   3.704 -1.4422 -1.5266 -0.0258
 4877SOL     OW15329   3.470   6.884   4.945  0.1402 -0.1034  0.8435
 4877SOL    HW115330   3.515   6.847   4.869 -1.4438  0.9012 -0.6410
 4877SOL    HW215331   3.403   6.820   4.967  0.5491 -0.3584  1.3807
 4878SOL     OW15332   1.248   3.134   4.213  0.0919  0.2934  0.5520
 4878SOL    HW115333   1.226   3.052   4.256  0.9263 -0.5151 -0.5182
 4878SOL    HW215334   1.270   3.194   4.285  1.9644 -1.1728  1.2893
 4879SOL     OW15335   7.594   2.370   3.101 -0.1144  0.2791 -0.1316
 4879SOL    HW115336   7.629   2.436   3.041 -1.8383  0.0404 -1.4936
 4879SOL    HW215337   7.587   2.414   3.186  0.8718  1.1274 -0.4882
 4880SOL     OW15338   4.001   5.174   2.775  0.0631 -0.3485 -0.1160
 4880SOL    HW115339   4.060   5.105   2.803  0.7402  1.0429  2.2093
 4880SOL    HW215340   3.914   5.137   2.785  0.3305 -0.4723  2.6950
 4881SOL     OW15341   7.788   2.402   1.876  0.4233 -0.0068  0.9366
 4881SOL    HW115342   7.856   2.352   1.920 -0.2481  0.2835  2.3435
 4881SOL    HW215343   7.706   2.367   1.909 -0.1458 -0.2679 -0.6509
 4882SOL     OW15344   7.794   2.369   0.179  0.9066 -0.5216  0.5136
 4882SOL    HW115345   7.784   2.344   0.271  3.1537 -1.3978  0.5774
 4882SOL    HW215346   7.705   2.364   0.143 -0.4709  2.0676  3.1078
 4883SOL     OW15347   0.257   6.793   1.192  0.7473 -0.1926  0.4355
 4883SOL    HW115348   0.269   6.718   1.250  0.2843 -0.2077  0.5128
 4883SOL    HW215349   0.294   6.764   1.108  0.6951 -0.4562  0.5024
 4884SOL     OW15350   7.708   6.848   3.350 -0.5408 -0.1499  0.2756
 4884SOL    HW115351   7.779   6.891   3.398 -0.6526  0.6590 -0.2756
 4884SOL    HW215352   7.628   6.872   3.397 -0.4951 -0.7714  0.6868
 4885SOL     OW15353   6.418   0.642   7.112 -0.4150  0.2840 -0.6291
 4885SOL    HW115354   6.445   0.597   7.192 -0.9700  2.1904  0.6891
 4885SOL    HW215355   6.478   0.716   7.106  0.7330 -0.7159 -2.9665
 4886SOL     OW15356   1.687   3.099   6.677 -0.4449 -0.2117  0.2946
 4886SOL    HW115357   1.738   3.048   6.614 -1.3096 -1.2265  0.4004
 4886SOL    HW215358   1.746   3.111   6.752 -0.6474 -2.1335  0.7899
 4887SOL     OW15359   3.248   6.716   4.945 -0.1939 -0.2520  0.2940
 4887SOL    HW115360   3.189   6.659   4.896 -0.8793  1.1217 -0.5381
 4887SOL    HW215361   3.190   6.760   5.008  0.1273  0.3267  0.1876
 4888SOL     OW15362   5.361   7.122   5.169 -0.3464  0.0891 -0.5233
 4888SOL    HW115363   5.449   7.150   5.194 -1.0358  1.0550  0.9409
 4888SOL    HW215364   5.311   7.203   5.161 -1.8147 -0.5068  1.5668
 4889SOL     OW15365   6.167   6.561   2.407 -0.2201 -0.5998  0.4404
 4889SOL    HW115366   6.132   6.573   2.496 -2.4753 -1.9772 -0.1820
 4889SOL    HW215367   6.187   6.468   2.401 -3.0711 -1.2309 -1.3804
 4890SOL     OW15368   3.735   2.684   7.655 -0.1173 -0.2394 -0.1037
 4890SOL    HW115369   3.826   2.659   7.636 -0.4949  0.2622 -3.1622
 4890SOL    HW215370   3.734   2.779   7.647 -1.1688 -0.3502 -1.9421
 4891SOL     OW15371   5.799   0.647   4.653  0.5848  0.1679 -0.6361
 4891SOL    HW115372   5.736   0.706   4.611 -0.1302 -0.8558 -1.0519
 4891SOL    HW215373   5.816   0.579   4.587 -0.3988 -1.3527  0.6157
 4892SOL     OW15374   2.622   3.356   7.883 -0.0113  0.0032 -0.1697
 4892SOL    HW115375   2.543   3.373   7.831 -0.1524 -1.3691 -0.4302
 4892SOL    HW215376   2.619   3.262   7.901  0.8533  0.1872  0.9998
 4893SOL     OW15377   3.956   7.627   2.849 -0.6475  0.0593  0.3995
 4893SOL    HW115378   4.027   7.661   2.794 -0.5598  0.6393  0.8658
 4893SOL    HW215379   3.997   7.558   2.902 -0.7659 -0.6075 -0.3507
 4894SOL     OW15380   6.322   5.491   3.961 -0.4185  0.1388 -0.0131
 4894SOL    HW115381   6.298   5.533   4.043 -0.1913  0.8144 -0.2813
 4894SOL    HW215382   6.337   5.399   3.984 -1.5938  0.0491  0.4581
 4895SOL     OW15383   2.285   0.841   4.588  0.7114 -0.1698 -0.0872
 4895SOL    HW115384   2.243   0.831   4.502  0.6715 -0.9395  0.0177
 4895SOL    HW215385   2.244   0.919   4.625  0.3308 -0.1473 -0.5417
 4896SOL     OW15386   4.908   3.370   0.827  0.3607  0.1047 -0.3689
 4896SOL    HW115387   4.819   3.350   0.855 -0.0401  2.2391  0.0670
 4896SOL    HW215388   4.938   3.290   0.784 -2.0367 -0.4260 -1.2314
 4897SOL     OW15389   6.000   6.791   6.499 -0.5182 -0.3079 -0.4735
 4897SOL    HW115390   5.940   6.859   6.468 -0.0542  0.5121  0.3844
 4897SOL    HW215391   6.076   6.798   6.442  0.1073  0.8359  0.4572
 4898SOL     OW15392   3.009   5.230   1.224  0.0344 -0.0208 -0.6205
 4898SOL    HW115393   2.989   5.136   1.225  1.3329 -0.3056  0.2334
 4898SOL    HW215394   3.101   5.235   1.200 -0.1454  1.0809 -1.1413
 4899SOL     OW15395   7.633   7.085   4.201 -0.2432  0.0086  0.1089
 4899SOL    HW115396   7.699   7.147   4.167 -1.1328 -0.3477 -2.5069
 4899SOL    HW215397   7.552   7.111   4.157 -1.3605 -0.9957  1.5157
 4900SOL     OW15398   5.554   2.815   6.787  0.5023  0.0406 -0.2081
 4900SOL    HW115399   5.538   2.883   6.720  1.2988  0.6737  0.2233
 4900SOL    HW215400   5.476   2.760   6.784  0.6702 -0.1552 -1.9101
 4901SOL     OW15401   7.776   4.886   1.868 -0.0473  0.9789  0.2838
 4901SOL    HW115402   7.762   4.800   1.908 -0.3627  0.9192  0.0516
 4901SOL    HW215403   7.865   4.911   1.894  0.2720  0.3137 -0.1588
 4902SOL     OW15404   4.434   3.200   4.678  0.4029  0.1109 -0.2423
 4902SOL    HW115405   4.342   3.225   4.671  0.7917  1.2294 -2.0657
 4902SOL    HW215406   4.451   3.195   4.772 -1.4033  0.2777  0.1257
 4903SOL     OW15407   5.710   1.149   4.248  0.5517  0.3809  0.1919
 4903SOL    HW115408   5.745   1.061   4.233 -0.4870 -0.1284  0.5864
 4903SOL    HW215409   5.748   1.176   4.331 -0.5797 -0.5125  1.0399
 4904SOL     OW15410   5.729   1.763   7.860  0.0154 -0.4595 -0.0268
 4904SOL    HW115411   5.797   1.782   7.796  1.8499 -0.3209  1.8396
 4904SOL    HW215412   5.754   1.814   7.937 -2.0290 -0.7014  0.8689
 4905SOL     OW15413   7.952   1.494   6.568 -0.2115 -0.6418  0.0204
 4905SOL    HW115414   8.005   1.418   6.545  1.3330  0.6525 -0.8149
 4905SOL    HW215415   8.014   1.558   6.602 -1.5661  0.0512  1.3288
 4906SOL     OW15416   2.887   6.580   5.880 -0.2909 -0.1532  0.7831
 4906SOL    HW115417   2.849   6.589   5.792 -1.3221  1.5149  1.3602
 4906SOL    HW215418   2.944   6.503   5.873  0.3541  0.4367 -1.5872
 4907SOL     OW15419   3.422   6.865   2.971 -0.1699 -0.0821  0.0055
 4907SOL    HW115420   3.467   6.834   3.050  0.3264  1.1097  0.2039
 4907SOL    HW215421   3.375   6.943   2.999 -0.8982 -0.2806 -0.6312
 4908SOL     OW15422   1.607   1.057   3.648  0.3218 -0.0069  0.3525
 4908SOL    HW115423   1.635   0.984   3.703  1.4160  0.2017  0.0811
 4908SOL    HW215424   1.559   1.015   3.576  1.0640 -0.4791  0.1220
 4909SOL     OW15425   2.609   3.152   4.137 -0.2905  0.1366  0.1531
 4909SOL    HW115426   2.607   3.247   4.145 -0.7935  0.1553 -0.1925
 4909SOL    HW215427   2.522   3.124   4.163 -0.1847 -0.2233  0.1224
 4910SOL     OW15428   3.417   0.711   3.803 -0.0471  0.1870  0.0940
 4910SOL    HW115429   3.508   0.736   3.784 -0.0136 -0.7867 -1.1492
 4910SOL    HW215430   3.376   0.700   3.718 -1.2356  0.2249  0.6383
 4911SOL     OW15431   6.418   3.036   2.621 -0.0005  0.5399  0.7969
 4911SOL    HW115432   6.469   3.117   2.632 -0.2353  0.6481  1.1075
 4911SOL    HW215433   6.478   2.966   2.649 -0.0114  0.6643  1.1384
 4912SOL     OW15434   7.258   0.282   0.575  0.1585 -0.3356  0.1559
 4912SOL    HW115435   7.272   0.349   0.642 -0.8425 -2.4503  2.6773
 4912SOL    HW215436   7.253   0.330   0.493  2.1594  2.3619  1.4484
 4913SOL     OW15437   7.727   2.824   4.934 -0.1324  0.6081 -0.0223
 4913SOL    HW115438   7.817   2.810   4.962 -0.7118 -1.3223  1.0562
 4913SOL    HW215439   7.709   2.751   4.875 -0.5217  1.8657 -1.5217
 4914SOL     OW15440   0.686   1.051   6.253 -0.1982 -0.0541  0.5844
 4914SOL    HW115441   0.605   1.083   6.292 -0.3884  1.6320 -1.0118
 4914SOL    HW215442   0.658   0.979   6.196 -0.5009  0.1808  0.4334
 4915SOL     OW15443   5.607   4.977   3.368 -0.2085 -0.1190 -0.3462
 4915SOL    HW115444   5.647   5.000   3.284  0.7249  0.6655  0.2949
 4915SOL    HW215445   5.514   4.997   3.357  0.2114  1.9094 -0.5600
 4916SOL     OW15446   6.587   5.484   5.377 -0.3790 -0.1794  0.3962
 4916SOL    HW115447   6.664   5.432   5.399 -0.0664 -0.9570 -2.2157
 4916SOL    HW215448   6.515   5.442   5.425  0.7471  0.8142  3.2212
 4917SOL     OW15449   0.433   3.254   0.673  0.5861  0.7276  0.4068
 4917SOL    HW115450   0.378   3.191   0.719 -1.0741  1.3194 -0.6703
 4917SOL    HW215451   0.441   3.219   0.584  0.7293  1.3893  0.1521
 4918SOL     OW15452   1.436   4.978   6.105  0.5620  0.5500 -0.3599
 4918SOL    HW115453   1.371   5.038   6.140 -0.0221 -0.1501 -0.2031
 4918SOL    HW215454   1.397   4.946   6.023  0.3331 -0.4588  0.1166
 4919SOL     OW15455   4.203   6.874   3.994  0.0504 -0.0701 -0.3256
 4919SOL    HW115456   4.136   6.820   3.953 -0.4968  0.9901 -0.8525
 4919SOL    HW215457   4.156   6.930   4.055  0.5347  0.1973 -0.1881
 4920SOL     OW15458   3.588   4.649   2.427 -0.3625  0.3244 -0.0968
 4920SOL    HW115459   3.590   4.553   2.428 -1.7823  0.2756 -0.1619
 4920SOL    HW215460   3.680   4.675   2.419  0.1035 -1.0170  0.6104
 4921SOL     OW15461   2.929   3.131   0.482 -0.6177 -0.0664 -0.6134
 4921SOL    HW115462   3.013   3.133   0.435 -0.9702  0.5247 -1.2362
 4921SOL    HW215463   2.927   3.213   0.531 -0.5240 -0.4029 -0.0434
 4922SOL     OW15464   4.481   6.413   3.052 -0.3907 -0.4210 -0.3080
 4922SOL    HW115465   4.554   6.376   3.101  0.4444  0.8438 -0.5665
 4922SOL    HW215466   4.449   6.340   2.998  0.9157 -0.8900 -0.4683
 4923SOL     OW15467   2.355   6.705   2.368 -0.3635  0.2422  0.5890
 4923SOL    HW115468   2.312   6.652   2.301  1.5761  0.9070 -1.2996
 4923SOL    HW215469   2.428   6.652   2.398 -0.1150  0.6998  0.8054
 4924SOL     OW15470   0.434   5.932   7.692 -0.1563 -0.6118  0.3154
 4924SOL    HW115471   0.377   6.007   7.679  0.7145  0.7950  3.4446
 4924SOL    HW215472   0.522   5.970   7.700  0.2758 -1.8686  2.2764
 4925SOL     OW15473   1.281   7.903   4.884 -0.4920 -0.3474 -0.4727
 4925SOL    HW115474   1.204   7.930   4.834 -0.2943  0.0418 -0.5726
 4925SOL    HW215475   1.353   7.951   4.844 -0.0911 -1.2019 -0.8005
 4926SOL     OW15476   1.292   2.167   6.906 -0.3442 -0.0583  0.3666
 4926SOL    HW115477   1.321   2.174   6.997 -1.0078 -0.3904  0.6100
 4926SOL    HW215478   1.346   2.230   6.859 -0.7737  0.9402  1.1784
 4927SOL     OW15479   1.667   7.131   4.228 -0.0335 -0.2292 -0.3957
 4927SOL    HW115480   1.747   7.080   4.243 -0.5401 -0.4698  1.9408
 4927SOL    HW215481   1.677   7.208   4.285 -0.8062  0.5228 -1.2491
 4928SOL     OW15482   7.180   2.443   0.665 -0.1646 -0.2858  0.1904
 4928SOL    HW115483   7.233   2.446   0.744 -0.8279  0.2381  0.6233
 4928SOL    HW215484   7.215   2.512   0.609  1.5507 -1.8567 -0.8149
 4929SOL     OW15485   6.151   6.507   5.727 -0.0105 -0.4163 -0.6006
 4929SOL    HW115486   6.231   6.463   5.754 -0.6088 -1.4551 -0.4478
 4929SOL    HW215487   6.138   6.482   5.635  2.2022  3.3761 -2.1991
 4930SOL     OW15488   5.796   5.048   6.633 -0.2212 -0.1098  0.1402
 4930SOL    HW115489   5.817   4.968   6.680 -1.6484 -0.7053 -0.1708
 4930SOL    HW215490   5.730   5.092   6.688  0.7226  0.9848  0.4284
 4931SOL     OW15491   0.743   5.446   5.324 -0.1607 -0.1146  0.1212
 4931SOL    HW115492   0.774   5.500   5.397 -0.7959 -1.0415  1.1156
 4931SOL    HW215493   0.762   5.356   5.351 -0.5959 -0.4858 -0.7715
 4932SOL     OW15494   3.487   7.061   5.282 -0.2033  0.0720 -0.1058
 4932SOL    HW115495   3.424   7.114   5.330 -0.0228  0.3373 -0.1596
 4932SOL    HW215496   3.558   7.044   5.344 -0.0026  0.3575 -0.2558
 4933SOL     OW15497   1.024   5.511   2.372 -0.2128 -0.7438  0.1646
 4933SOL    HW115498   1.077   5.570   2.317 -1.7459  0.3105 -0.2463
 4933SOL    HW215499   1.036   5.544   2.461 -3.9942  2.8198 -0.3628
 4934SOL     OW15500   1.087   4.474   2.999 -0.0171 -0.0291 -0.2933
 4934SOL    HW115501   1.113   4.385   2.977 -1.5337 -0.5898  0.0445
 4934SOL    HW215502   0.993   4.477   2.981 -0.0160  1.4774 -0.2129
 4935SOL     OW15503   5.327   0.087   4.459 -0.6568 -0.3421 -0.0448
 4935SOL    HW115504   5.309  -0.002   4.488 -2.8165 -0.0727 -0.4013
 4935SOL    HW215505   5.401   0.116   4.513 -0.5128 -2.0158  0.6973
 4936SOL     OW15506   3.838   5.957   7.433  0.4633 -0.1917  0.1288
 4936SOL    HW115507   3.911   5.960   7.371 -1.0958  1.3851 -1.7916
 4936SOL    HW215508   3.792   6.040   7.420 -1.3716 -0.8941  1.6396
 4937SOL     OW15509   6.550   5.448   2.186  0.2253 -0.1621 -0.4422
 4937SOL    HW115510   6.590   5.448   2.099 -0.2004  2.1539 -0.6851
 4937SOL    HW215511   6.519   5.537   2.199 -0.8844 -0.7717  1.5789
 4938SOL     OW15512   5.512   1.957   5.048 -0.4157 -0.0117 -0.2389
 4938SOL    HW115513   5.583   1.893   5.044  0.4975  1.0076 -1.0780
 4938SOL    HW215514   5.530   2.007   5.127  1.3614  1.9128 -1.7506
 4939SOL     OW15515   0.423   2.165   2.887 -0.2609 -0.5434 -0.2971
 4939SOL    HW115516   0.331   2.184   2.907 -0.8309 -0.5481 -2.5913
 4939SOL    HW215517   0.469   2.179   2.969 -2.0970  0.9527  0.5510
 4940SOL     OW15518   2.476   1.710   7.172 -0.2848 -0.1049 -0.0951
 4940SOL    HW115519   2.493   1.617   7.190 -2.0897 -0.3985  0.2584
 4940SOL    HW215520   2.560   1.744   7.143  0.5740 -1.7023  0.3948
 4941SOL     OW15521   4.341   3.814   3.453  0.5203  0.2876  0.2923
 4941SOL    HW115522   4.436   3.814   3.460  0.4127  0.0974  2.7261
 4941SOL    HW215523   4.311   3.861   3.531 -1.4062 -2.1699  1.1743
 4942SOL     OW15524   7.108   2.973   6.228 -0.0323  0.0033  0.1492
 4942SOL    HW115525   7.187   2.966   6.176  0.1587 -0.5062  0.5011
 4942SOL    HW215526   7.076   3.062   6.212  0.1447 -0.0717 -0.6505
 4943SOL     OW15527   0.998   6.960   6.887 -0.4610 -0.3063  0.0475
 4943SOL    HW115528   0.985   7.025   6.818 -0.0593 -0.8797 -0.5836
 4943SOL    HW215529   1.051   7.005   6.953 -0.4415  0.0975 -0.2394
 4944SOL     OW15530   1.241   6.567   3.303 -0.3990  0.1365  0.2959
 4944SOL    HW115531   1.302   6.641   3.307 -0.4963  0.2304  0.0651
 4944SOL    HW215532   1.250   6.524   3.388 -1.1939  1.0954  0.8883
 4945SOL     OW15533   2.133   6.686   7.171 -0.4296  0.4158 -0.3888
 4945SOL    HW115534   2.220   6.710   7.203 -0.4437 -0.2232  0.1391
 4945SOL    HW215535   2.073   6.725   7.234 -0.5166  0.6709 -0.6305
 4946SOL     OW15536   6.277   2.676   5.127  0.5129  0.0263 -0.2275
 4946SOL    HW115537   6.354   2.715   5.168  0.3602  0.4339 -0.3197
 4946SOL    HW215538   6.213   2.747   5.125  0.1048 -0.3391 -0.0696
 4947SOL     OW15539   0.046   4.584   5.148 -0.4179  0.2998  0.1518
 4947SOL    HW115540  -0.008   4.546   5.217  0.6705 -2.8642 -0.5905
 4947SOL    HW215541   0.134   4.553   5.166  0.1299  0.5354 -1.8871
 4948SOL     OW15542   0.331   3.604   0.344 -0.6513  0.4407 -0.3854
 4948SOL    HW115543   0.409   3.574   0.297 -0.5860  1.9685 -1.3092
 4948SOL    HW215544   0.328   3.550   0.423 -1.5937 -3.3385 -2.7542
 4949SOL     OW15545   5.997   5.361   4.439 -0.5466 -0.0949 -0.5612
 4949SOL    HW115546   5.992   5.423   4.367  0.5658  0.9456  0.2334
 4949SOL    HW215547   5.941   5.288   4.411 -1.2961  0.9205 -1.8219
 4950SOL     OW15548   2.875   4.319   2.118  0.0550 -0.5157  0.0237
 4950SOL    HW115549   2.825   4.392   2.080  1.6841 -0.2852 -1.8196
 4950SOL    HW215550   2.957   4.358   2.146  1.1901 -1.7023 -1.5019
 4951SOL     OW15551   6.661   0.090   3.650 -0.4365  0.1796 -0.1626
 4951SOL    HW115552   6.602   0.050   3.713  0.1685 -0.0797  0.2502
 4951SOL    HW215553   6.625   0.067   3.564 -1.0866  0.2713  0.0858
 4952SOL     OW15554   4.775   0.766   4.824 -0.6237 -0.1101 -0.2793
 4952SOL    HW115555   4.829   0.718   4.762  1.0828  0.8785  0.3828
 4952SOL    HW215556   4.685   0.748   4.796 -0.2346 -4.4092  0.4438
 4953SOL     OW15557   6.731   7.789   5.457  0.2987 -0.0606  0.2913
 4953SOL    HW115558   6.646   7.748   5.444  0.0366  0.3393  0.7029
 4953SOL    HW215559   6.712   7.882   5.468  0.6594 -0.1206  1.5959
 4954SOL     OW15560   1.406   5.202   2.156  0.7193 -0.3759  0.2621
 4954SOL    HW115561   1.318   5.225   2.125  0.0547 -0.6401  1.8111
 4954SOL    HW215562   1.442   5.285   2.188  0.7395 -0.3946  0.2874
 4955SOL     OW15563   6.797   1.016   1.372 -0.6648 -0.1187  0.3377
 4955SOL    HW115564   6.751   1.010   1.456  0.7520  0.9936  1.2426
 4955SOL    HW215565   6.749   0.956   1.314 -1.3838 -1.2993  2.0635
 4956SOL     OW15566   2.263   2.102   4.502 -0.5431 -0.4011  0.2062
 4956SOL    HW115567   2.322   2.085   4.575 -0.4086 -1.8206 -0.2049
 4956SOL    HW215568   2.177   2.111   4.542 -0.0971  1.8533  0.8284
 4957SOL     OW15569   3.263   5.664   7.866 -0.0268  0.3547  0.4263
 4957SOL    HW115570   3.275   5.733   7.801 -3.0058  1.5459  0.9993
 4957SOL    HW215571   3.343   5.612   7.860  0.2475  0.9027 -3.5415
 4958SOL     OW15572   7.158   0.345   0.873 -0.4482  0.3040  0.0661
 4958SOL    HW115573   7.234   0.394   0.843 -0.4422 -0.4514 -1.2240
 4958SOL    HW215574   7.131   0.389   0.954  1.5169  0.4102  0.7065
 4959SOL     OW15575   1.375   5.720   3.776  0.1382 -0.7444  0.2417
 4959SOL    HW115576   1.346   5.716   3.685  1.1308 -0.5629 -0.0968
 4959SOL    HW215577   1.316   5.661   3.823 -1.1361  0.0610 -0.2994
 4960SOL     OW15578   5.709   6.376   2.208 -0.0205 -0.2076  0.3758
 4960SOL    HW115579   5.779   6.426   2.249 -1.2297  0.9589  1.0969
 4960SOL    HW215580   5.629   6.409   2.248 -0.8903 -2.8101  0.9809
 4961SOL     OW15581   7.192   4.581   6.251  0.2975  0.0155  0.9408
 4961SOL    HW115582   7.167   4.673   6.250  1.0283  0.2281  1.3348
 4961SOL    HW215583   7.185   4.553   6.160 -0.7675  0.2162  0.9466
 4962SOL     OW15584   1.789   7.633   4.573 -0.3631 -0.0215  0.5181
 4962SOL    HW115585   1.737   7.658   4.649 -0.6503 -0.2275  0.3929
 4962SOL    HW215586   1.757   7.689   4.502  0.3005  0.5760  0.6744
 4963SOL     OW15587   3.868   2.195   7.159  0.7269  0.0724  0.6472
 4963SOL    HW115588   3.813   2.147   7.221  0.8923  0.5671  1.1878
 4963SOL    HW215589   3.852   2.152   7.075 -1.9094  1.3188  0.3980
 4964SOL     OW15590   4.026   5.953   2.222  0.4624 -0.2496 -0.3162
 4964SOL    HW115591   3.975   5.918   2.295  1.1373 -1.2042 -0.2929
 4964SOL    HW215592   4.046   5.878   2.168 -0.1020  0.4619 -1.5607
 4965SOL     OW15593   6.491   4.409   5.701  0.1906 -0.1643  0.2869
 4965SOL    HW115594   6.520   4.491   5.662 -0.0844  0.8480  2.0761
 4965SOL    HW215595   6.572   4.363   5.722  0.3437 -0.5163 -1.0037
 4966SOL     OW15596   7.692   4.741   0.504 -0.0578  0.3806 -0.6375
 4966SOL    HW115597   7.664   4.692   0.582 -0.1979  1.5610  0.0815
 4966SOL    HW215598   7.716   4.827   0.538  2.3729  0.1266 -1.5542
 4967SOL     OW15599   5.955   7.803   1.374 -0.3472 -0.2817 -0.2249
 4967SOL    HW115600   5.866   7.832   1.393  0.6132  2.1508  0.9257
 4967SOL    HW215601   5.985   7.760   1.454 -0.1780 -0.3022 -0.2966
 4968SOL     OW15602   5.031   3.764   2.118 -0.6640 -0.4753  0.2285
 4968SOL    HW115603   5.090   3.689   2.106  1.3234  1.0428 -0.1734
 4968SOL    HW215604   5.045   3.818   2.040 -2.5921 -0.0038  0.1524
 4969SOL     OW15605   4.340   1.256   2.259  0.0764 -0.4149  0.0945
 4969SOL    HW115606   4.422   1.214   2.232  1.3602 -0.0107  3.0164
 4969SOL    HW215607   4.298   1.192   2.316 -1.1367 -0.1925 -0.5348
 4970SOL     OW15608   7.226   3.834   3.159  0.1975  0.2321  0.3999
 4970SOL    HW115609   7.285   3.862   3.089 -0.0514  1.4273  0.6558
 4970SOL    HW215610   7.229   3.738   3.155  0.2894  0.2706 -1.1563
 4971SOL     OW15611   7.759   7.363   7.950  0.3496  0.1546 -0.0860
 4971SOL    HW115612   7.717   7.449   7.951 -0.3485 -0.1794  0.8475
 4971SOL    HW215613   7.807   7.359   8.033 -0.8509 -0.9158  0.6001
 4972SOL     OW15614   1.338   2.216   5.672 -0.3617 -0.4690  0.0447
 4972SOL    HW115615   1.251   2.218   5.713 -0.5363 -2.1991 -0.1854
 4972SOL    HW215616   1.325   2.252   5.585 -1.1162 -1.8632 -0.4328
 4973SOL     OW15617   5.670   7.819   0.115  0.4208 -0.2256 -0.2023
 4973SOL    HW115618   5.606   7.884   0.142  1.7971  0.6807  1.0918
 4973SOL    HW215619   5.618   7.745   0.083 -1.2827  0.1281  1.5704
 4974SOL     OW15620   3.129   5.990   4.423 -0.7047  0.3036  0.4244
 4974SOL    HW115621   3.054   6.029   4.377 -1.1067  2.3453  2.5986
 4974SOL    HW215622   3.112   6.007   4.515  1.9900 -0.0268  1.0706
 4975SOL     OW15623   3.667   0.972   4.634  0.0460 -0.4007  0.3065
 4975SOL    HW115624   3.745   1.010   4.593 -0.0596 -1.2018 -0.7030
 4975SOL    HW215625   3.673   0.879   4.612 -1.0129 -0.5226  0.5121
 4976SOL     OW15626   7.015   0.490   7.816 -0.0408 -0.5486  0.2478
 4976SOL    HW115627   6.994   0.546   7.741  1.0924  3.4075  2.5768
 4976SOL    HW215628   7.099   0.451   7.792  0.5890  1.0937 -0.4165
 4977SOL     OW15629   4.386   7.002   5.524 -0.1918  0.5131  0.1563
 4977SOL    HW115630   4.453   6.988   5.590 -0.6796  0.8244  0.7267
 4977SOL    HW215631   4.316   7.048   5.570 -0.4311  0.9641 -0.6370
 4978SOL     OW15632   2.645   4.872   3.979 -0.4100 -0.2441  0.1028
 4978SOL    HW115633   2.725   4.830   4.013 -0.5944 -0.1131  0.7142
 4978SOL    HW215634   2.676   4.930   3.910  0.0868  0.2006  0.6882
 4979SOL     OW15635   7.306   4.789   4.655 -0.0334 -0.3989  0.1504
 4979SOL    HW115636   7.334   4.821   4.741 -1.6549 -0.7484  0.8523
 4979SOL    HW215637   7.296   4.868   4.602 -1.2315  0.0426  0.9964
 4980SOL     OW15638   7.158   6.805   2.759  0.0082 -0.2322 -0.0700
 4980SOL    HW115639   7.074   6.813   2.805 -0.0366 -0.0002 -0.1897
 4980SOL    HW215640   7.134   6.793   2.667  0.0988 -0.6929 -0.0348
 4981SOL     OW15641   3.363   0.110   6.173  0.3992  0.1413  0.1947
 4981SOL    HW115642   3.409   0.049   6.114  0.3108  0.7553 -0.5162
 4981SOL    HW215643   3.271   0.104   6.147  0.3292  0.2612  0.4123
 4982SOL     OW15644   0.628   2.718   4.773 -1.0897  0.4682 -0.3347
 4982SOL    HW115645   0.598   2.636   4.812  0.8633 -0.2711 -0.2814
 4982SOL    HW215646   0.646   2.775   4.848 -0.9479  0.3875 -0.3073
 4983SOL     OW15647   6.932   3.939   5.639  0.2185  0.0118 -0.3866
 4983SOL    HW115648   6.949   3.891   5.558  0.6825 -0.1759 -0.1788
 4983SOL    HW215649   6.841   3.917   5.661 -0.0030  0.2897 -1.0057
 4984SOL     OW15650   4.530   2.910   1.674 -0.3466 -0.0472 -0.0919
 4984SOL    HW115651   4.624   2.919   1.690 -0.3207 -1.4685  0.7441
 4984SOL    HW215652   4.520   2.821   1.639 -1.4120 -0.0619  0.2033
 4985SOL     OW15653   1.478   1.942   1.064 -0.1206 -0.0684 -0.0679
 4985SOL    HW115654   1.394   1.945   1.110  0.6037  2.9324  1.3207
 4985SOL    HW215655   1.542   1.970   1.130  1.5394  0.5836 -1.8692
 4986SOL     OW15656   0.127   7.743   3.060 -0.1238 -0.6902 -0.3279
 4986SOL    HW115657   0.119   7.809   2.992  1.9450 -0.3269 -0.2668
 4986SOL    HW215658   0.144   7.661   3.012  1.5493 -0.3970 -0.2924
 4987SOL     OW15659   6.867   0.450   0.506 -0.5531  0.6739  0.0735
 4987SOL    HW115660   6.819   0.381   0.552  0.9139  0.1397  0.8626
 4987SOL    HW215661   6.932   0.480   0.569  3.0920 -1.6390 -2.2536
 4988SOL     OW15662   3.109   0.608   5.527  0.8382 -1.0591 -0.2709
 4988SOL    HW115663   3.170   0.538   5.504  1.1245 -0.9665  0.1890
 4988SOL    HW215664   3.118   0.672   5.457  0.6094 -1.4607 -0.6697
 4989SOL     OW15665   5.463   7.933   5.378 -0.3535  0.3181  0.1464
 4989SOL    HW115666   5.448   7.881   5.456 -0.1397  1.0932  0.7141
 4989SOL    HW215667   5.406   7.894   5.311 -1.0473  0.0733  0.8736
 4990SOL     OW15668   2.385   3.299   5.281  0.1738  0.2898 -0.0385
 4990SOL    HW115669   2.335   3.381   5.287 -0.6673 -0.2906  1.1034
 4990SOL    HW215670   2.440   3.311   5.203  0.7639  2.3173  0.6211
 4991SOL     OW15671   5.407   6.503   2.048  0.3735 -0.2233 -0.2734
 4991SOL    HW115672   5.379   6.592   2.066 -0.2168 -0.5405  0.3910
 4991SOL    HW215673   5.365   6.449   2.115  2.0725 -0.7969  0.4069
 4992SOL     OW15674   6.517   4.408   3.211 -0.1397 -0.0420  0.1955
 4992SOL    HW115675   6.501   4.475   3.277  1.8774 -0.5625  1.3030
 4992SOL    HW215676   6.497   4.325   3.255 -1.0361 -0.2902 -0.6387
 4993SOL     OW15677   0.954   4.402   5.890  0.2461 -0.3758 -0.0820
 4993SOL    HW115678   0.962   4.365   5.978 -3.0738 -0.5092  0.3071
 4993SOL    HW215679   0.924   4.329   5.836 -1.2200  0.4706 -0.4770
 4994SOL     OW15680   3.248   3.537   7.536  0.0182  0.2470 -0.1769
 4994SOL    HW115681   3.177   3.565   7.595  0.7744 -0.0623  0.9148
 4994SOL    HW215682   3.324   3.587   7.565  0.4143  0.0674 -0.8936
 4995SOL     OW15683   4.986   5.534   4.776  0.1254  0.4095 -0.5315
 4995SOL    HW115684   4.987   5.612   4.720 -0.2349 -0.6578 -2.0697
 4995SOL    HW215685   4.984   5.460   4.716  2.5934 -0.9094  0.8288
 4996SOL     OW15686   3.791   2.111   0.861 -0.3358 -0.1676  0.1728
 4996SOL    HW115687   3.722   2.045   0.865  0.7176 -1.2448  1.7629
 4996SOL    HW215688   3.845   2.085   0.787 -0.7665 -0.1928 -0.1392
 4997SOL     OW15689   5.063   6.846   6.597 -0.3996  0.4980  0.0394
 4997SOL    HW115690   5.004   6.921   6.599  0.9502  1.6435 -0.6564
 4997SOL    HW215691   5.135   6.871   6.655  0.0060 -0.3033 -0.1073
 4998SOL     OW15692   2.492   3.434   6.651  0.0201 -0.5822  0.4316
 4998SOL    HW115693   2.556   3.459   6.585 -1.5468  0.4555 -0.7920
 4998SOL    HW215694   2.528   3.355   6.692  2.1755  0.1377  0.0231
 4999SOL     OW15695   7.207   3.343   7.193  0.6213  0.0427 -0.1287
 4999SOL    HW115696   7.160   3.311   7.116 -0.6001  0.3925  0.4470
 4999SOL    HW215697   7.150   3.411   7.229  1.1285 -0.1688  1.1244
 5000SOL     OW15698   7.769   4.252   5.362 -0.2099 -0.4398 -0.2374
 5000SOL    HW115699   7.774   4.341   5.396  0.9368 -0.1524 -1.0723
 5000SOL    HW215700   7.846   4.244   5.306 -0.1867 -2.0225 -0.0287
 5001SOL     OW15701   6.055   6.209   3.187  0.0648  0.1539 -0.0226
 5001SOL    HW115702   6.125   6.273   3.174 -0.2025  0.5063  0.2299
 5001SOL    HW215703   6.092   6.145   3.248  0.4796 -0.1738 -0.6025
 5002SOL     OW15704   5.338   2.441   3.488  0.2128 -0.4637 -0.4681
 5002SOL    HW115705   5.271   2.426   3.422  0.8252  0.6940 -1.3828
 5002SOL    HW215706   5.295   2.495   3.554  0.5776  1.4888 -1.7466
 5003SOL     OW15707   1.469   3.371   4.816 -0.2119 -0.1734 -0.3155
 5003SOL    HW115708   1.558   3.397   4.795 -0.4466  0.9082 -0.0383
 5003SOL    HW215709   1.459   3.284   4.777  0.9804 -0.3426 -0.2710
 5004SOL     OW15710   5.225   0.828   5.181 -0.1558 -1.0271  0.1465
 5004SOL    HW115711   5.138   0.850   5.214  0.5355  1.3854  0.5069
 5004SOL    HW215712   5.229   0.868   5.094  1.5534  1.4921  1.2852
 5005SOL     OW15713   5.548   5.295   6.329 -0.1734 -0.2991  0.0566
 5005SOL    HW115714   5.634   5.258   6.345  0.4016  0.3107 -1.4762
 5005SOL    HW215715   5.521   5.259   6.245 -2.4438 -2.2454  1.4767
 5006SOL     OW15716   2.460   7.682   7.003  0.1357 -0.1637  0.1143
 5006SOL    HW115717   2.524   7.665   6.935  1.8464 -0.2465  1.6780
 5006SOL    HW215718   2.481   7.769   7.036 -2.5955  1.2318 -1.4207
 5007SOL     OW15719   5.618   2.412   1.837  0.0144  0.2089  0.0698
 5007SOL    HW115720   5.598   2.505   1.845 -1.7726 -0.0481 -0.8969
 5007SOL    HW215721   5.575   2.385   1.756 -0.3592 -1.6775  0.8440
 5008SOL     OW15722   1.650   7.862   0.153 -0.0536 -0.2333  0.5090
 5008SOL    HW115723   1.592   7.906   0.215  0.4560  0.4290  0.5150
 5008SOL    HW215724   1.647   7.916   0.074 -0.3034 -0.7977  0.1219
 5009SOL     OW15725   0.666   4.145   5.151 -0.0855  0.0362 -0.1157
 5009SOL    HW115726   0.595   4.100   5.197 -1.5280  3.2621  1.1124
 5009SOL    HW215727   0.632   4.160   5.063  0.4991 -1.4071 -0.6062
 5010SOL     OW15728   0.087   7.439   2.389 -0.4850  0.8988  0.0806
 5010SOL    HW115729  -0.002   7.412   2.411 -0.9445  0.3490 -2.2663
 5010SOL    HW215730   0.136   7.356   2.381  0.2202  1.1869  1.1014
 5011SOL     OW15731   4.204   6.031   1.491  0.5089 -0.2088  0.4418
 5011SOL    HW115732   4.158   6.108   1.457  0.0452 -0.9268 -0.6116
 5011SOL    HW215733   4.207   6.045   1.585  0.9665  1.3851  0.2139
 5012SOL     OW15734   6.760   5.298   4.995 -0.3115  0.4334  0.0507
 5012SOL    HW115735   6.747   5.286   5.089 -0.1275 -3.7659 -0.2485
 5012SOL    HW215736   6.851   5.325   4.987  0.1182 -0.5668  1.1089
 5013SOL     OW15737   0.084   3.316   1.425 -0.5891  0.2448 -0.5396
 5013SOL    HW115738   0.053   3.343   1.339 -1.1824  1.7003  0.1072
 5013SOL    HW215739   0.138   3.389   1.455  0.1960 -0.5514  0.0459
 5014SOL     OW15740   1.290   6.654   1.043 -0.1260 -0.1139  0.3357
 5014SOL    HW115741   1.214   6.664   1.100  0.6695  1.4728  1.2115
 5014SOL    HW215742   1.281   6.723   0.977  0.1147 -0.4753 -0.0850
 5015SOL     OW15743   5.109   5.398   1.302  0.1175  0.1372 -0.2358
 5015SOL    HW115744   5.057   5.348   1.239 -0.0512  0.3476 -0.2629
 5015SOL    HW215745   5.051   5.407   1.378  0.1869  0.2027 -0.1910
 5016SOL     OW15746   0.882   2.963   6.358 -0.1605 -0.0630  0.5604
 5016SOL    HW115747   0.857   2.880   6.398 -1.2763  0.0207  0.0625
 5016SOL    HW215748   0.972   2.977   6.386  0.0660 -1.4771  0.5979
 5017SOL     OW15749   1.945   0.726   7.387  0.1858  0.2466 -0.0914
 5017SOL    HW115750   1.881   0.655   7.387  0.7708 -0.3113  0.5899
 5017SOL    HW215751   1.973   0.732   7.479  0.8417  0.7078 -0.3176
 5018SOL     OW15752   3.112   4.386   5.296 -0.0717  0.4245 -0.1601
 5018SOL    HW115753   3.179   4.345   5.241  0.0058 -0.3949  0.5353
 5018SOL    HW215754   3.033   4.384   5.242 -0.2311 -1.2492  0.0831
 5019SOL     OW15755   5.892   3.644   6.370 -0.3414  0.0034  0.3107
 5019SOL    HW115756   5.845   3.711   6.320 -0.5895 -0.7252 -0.4583
 5019SOL    HW215757   5.964   3.619   6.312  1.4939  1.6385  1.7659
 5020SOL     OW15758   1.652   2.899   5.799 -0.5816 -0.0896  0.5278
 5020SOL    HW115759   1.562   2.930   5.795  0.0986  1.9625 -2.8658
 5020SOL    HW215760   1.654   2.823   5.741 -0.0925 -0.0808  0.5287
 5021SOL     OW15761   7.347   3.503   6.186  0.0173  0.0888 -0.0862
 5021SOL    HW115762   7.335   3.471   6.275  0.4733  0.4995  0.1285
 5021SOL    HW215763   7.282   3.456   6.134  0.3179 -0.7899  0.3119
 5022SOL     OW15764   7.427   4.839   0.611  0.1944 -0.2252 -0.2121
 5022SOL    HW115765   7.460   4.844   0.701  2.1234 -0.7716 -0.8330
 5022SOL    HW215766   7.406   4.930   0.589 -0.7215 -0.1438  0.9222
 5023SOL     OW15767   3.677   3.733   2.873  0.2029 -0.8434  0.5071
 5023SOL    HW115768   3.647   3.724   2.783  0.5991  2.1447 -0.0232
 5023SOL    HW215769   3.770   3.713   2.870  0.4671  0.3661 -0.0289
 5024SOL     OW15770   1.769   1.290   7.171  0.2425  0.1573  0.1780
 5024SOL    HW115771   1.836   1.238   7.128  0.5381  1.3998 -0.9419
 5024SOL    HW215772   1.687   1.245   7.151  0.6444 -0.8536  0.7566
 5025SOL     OW15773   1.454   2.837   6.632 -0.0885 -0.2990 -0.1946
 5025SOL    HW115774   1.394   2.912   6.634 -0.1275 -0.3394  0.0907
 5025SOL    HW215775   1.519   2.856   6.699 -0.8072 -1.1066  0.7668
 5026SOL     OW15776   4.224   6.699   7.240 -0.1604  0.2372 -0.0364
 5026SOL    HW115777   4.192   6.758   7.308  1.7052  0.1406  0.9946
 5026SOL    HW215778   4.264   6.756   7.174  0.0398  0.2252  0.0732
 5027SOL     OW15779   5.788   1.759   0.598 -1.0578  0.2178 -0.5167
 5027SOL    HW115780   5.794   1.705   0.519 -1.5618 -0.4499 -0.1043
 5027SOL    HW215781   5.706   1.732   0.639 -0.8372  0.6194  0.1935
 5028SOL     OW15782   3.563   3.587   6.377 -0.0776 -0.1364 -0.4108
 5028SOL    HW115783   3.578   3.654   6.444  1.4068  0.2984 -1.1078
 5028SOL    HW215784   3.561   3.505   6.424  0.6394  0.1904  0.2107
 5029SOL     OW15785   5.882   2.429   0.125  0.4729  0.3100 -0.1076
 5029SOL    HW115786   5.892   2.344   0.169 -2.9113 -0.7015 -0.9595
 5029SOL    HW215787   5.861   2.490   0.195  1.6545  0.1916  0.3702
 5030SOL     OW15788   0.649   5.354   1.909  0.2865 -0.5899  0.9903
 5030SOL    HW115789   0.621   5.416   1.841 -2.2781 -0.5415  1.9695
 5030SOL    HW215790   0.644   5.405   1.990  0.2089 -1.4951  1.5615
 5031SOL     OW15791   4.890   3.892   6.948 -0.1066 -0.1314 -0.5521
 5031SOL    HW115792   4.820   3.838   6.911  0.8013 -0.6489 -1.5464
 5031SOL    HW215793   4.967   3.872   6.896  0.2663  2.1609 -1.0136
 5032SOL     OW15794   5.781   5.293   3.237  0.5148  0.1865  0.1608
 5032SOL    HW115795   5.697   5.306   3.280 -0.5254 -2.0408 -0.9830
 5032SOL    HW215796   5.841   5.265   3.306  0.6454  2.7347  1.1557
 5033SOL     OW15797   0.239   3.451   4.586 -0.7031 -0.2397  0.0062
 5033SOL    HW115798   0.266   3.414   4.501 -0.1073  0.7797 -0.2716
 5033SOL    HW215799   0.293   3.530   4.596  0.8757 -1.5088  2.3911
 5034SOL     OW15800   7.616   6.051   7.467  0.0515 -0.3538  0.1262
 5034SOL    HW115801   7.533   6.096   7.479  0.6714  0.5005  1.4713
 5034SOL    HW215802   7.612   5.977   7.528  1.3483  1.3304  2.4499
 5035SOL     OW15803   4.171   4.082   0.665  0.0515 -0.0117 -0.0507
 5035SOL    HW115804   4.242   4.062   0.725  0.0311 -1.3221 -0.4318
 5035SOL    HW215805   4.180   4.176   0.647  0.4308  0.2747  1.4865
 5036SOL     OW15806   6.762   2.296   4.535 -0.0994 -0.0638  0.1015
 5036SOL    HW115807   6.830   2.230   4.525 -1.9699 -1.9465 -1.0095
 5036SOL    HW215808   6.703   2.260   4.602 -1.9847 -0.3646 -1.6085
 5037SOL     OW15809   7.885   7.780   7.827  0.0081  0.3994  0.2301
 5037SOL    HW115810   7.880   7.719   7.900  0.0504  1.2105  0.9266
 5037SOL    HW215811   7.939   7.736   7.762  0.3447 -0.1516  0.8709
 5038SOL     OW15812   5.176   6.404   5.079  0.7670 -0.0547  0.5579
 5038SOL    HW115813   5.254   6.352   5.100  0.5404 -0.4385  0.4568
 5038SOL    HW215814   5.116   6.388   5.152  0.2892 -0.7621  0.0200
 5039SOL     OW15815   4.590   3.764   4.771  0.8512 -0.4338  0.1860
 5039SOL    HW115816   4.580   3.860   4.768  0.1866 -0.4558  1.1678
 5039SOL    HW215817   4.591   3.744   4.864 -1.6650 -1.6358  0.0286
 5040SOL     OW15818   5.616   2.285   0.478 -0.7986  0.4927 -1.0529
 5040SOL    HW115819   5.675   2.271   0.552 -1.4761  1.0653 -0.3888
 5040SOL    HW215820   5.583   2.197   0.457  0.7145  0.0766 -1.8237
 5041SOL     OW15821   3.410   2.513   2.977 -0.2622  0.1193 -0.4811
 5041SOL    HW115822   3.408   2.533   3.071  0.4004  1.4104 -0.7296
 5041SOL    HW215823   3.322   2.480   2.958 -1.0217  1.6343  0.2269
 5042SOL     OW15824   0.769   2.319   6.561  0.1383  0.9247 -0.2362
 5042SOL    HW115825   0.824   2.241   6.571 -1.1588 -0.0169 -0.1956
 5042SOL    HW215826   0.696   2.291   6.505 -1.1520  1.6589  1.0018
 5043SOL     OW15827   2.175   7.061   6.881  0.1141  0.1287  0.1572
 5043SOL    HW115828   2.118   7.111   6.821 -0.0654 -0.2223  0.0326
 5043SOL    HW215829   2.202   6.985   6.830 -1.9918 -1.4824  1.2651
 5044SOL     OW15830   6.981   1.921   2.282  0.1672 -0.5815  0.1535
 5044SOL    HW115831   6.994   1.987   2.214 -1.2714 -1.2944 -0.8961
 5044SOL    HW215832   7.044   1.852   2.261  0.5733 -0.2566  0.2953
 5045SOL     OW15833   2.224   7.590   7.455  0.1002  0.2396  0.0931
 5045SOL    HW115834   2.180   7.644   7.390  0.6107 -0.9249 -1.2590
 5045SOL    HW215835   2.301   7.557   7.411  0.0836 -1.1653  1.0555
 5046SOL     OW15836   2.772   4.098   6.146  0.6198  0.0603 -0.3102
 5046SOL    HW115837   2.752   4.011   6.179 -0.9814  0.9957  1.4047
 5046SOL    HW215838   2.860   4.091   6.109  1.0631 -1.9432  0.9898
 5047SOL     OW15839   2.231   5.656   4.556 -0.1762  0.1682  0.2332
 5047SOL    HW115840   2.304   5.632   4.613  1.6485  0.5602 -1.7942
 5047SOL    HW215841   2.166   5.587   4.569  0.2825  0.0851  2.5006
 5048SOL     OW15842   1.725   0.792   0.173 -0.5811  0.3136 -0.4080
 5048SOL    HW115843   1.667   0.716   0.169  0.4115 -0.6273  1.6976
 5048SOL    HW215844   1.681   0.859   0.120 -3.7510 -0.2566  1.2758
 5049SOL     OW15845   2.685   0.590   3.388 -0.2708 -0.0599  0.2969
 5049SOL    HW115846   2.707   0.592   3.294 -3.8500  3.1367 -0.7158
 5049SOL    HW215847   2.639   0.507   3.400  0.9974 -0.9161 -0.4971
 5050SOL     OW15848   1.144   6.320   2.307  0.2001  0.2235 -0.2297
 5050SOL    HW115849   1.225   6.270   2.292  0.1170 -0.0827  0.3068
 5050SOL    HW215850   1.170   6.391   2.366 -0.4318 -1.4801  2.2493
 5051SOL     OW15851   1.910   2.605   0.943 -0.4971 -0.3875 -0.1898
 5051SOL    HW115852   2.002   2.580   0.932 -0.5425 -1.1746  1.0747
 5051SOL    HW215853   1.872   2.594   0.856  0.3004 -1.4061 -0.4332
 5052SOL     OW15854   5.188   6.140   6.944  0.4146 -0.2515 -0.3951
 5052SOL    HW115855   5.114   6.084   6.969  1.3135 -1.5000 -0.4517
 5052SOL    HW215856   5.265   6.089   6.965  1.3137  1.3770  0.4729
 5053SOL     OW15857   6.428   3.223   6.674 -0.1624 -0.1752 -0.2419
 5053SOL    HW115858   6.376   3.256   6.601 -2.4615 -0.7466  1.0139
 5053SOL    HW215859   6.513   3.265   6.664 -1.0259  1.3017 -2.1046
 5054SOL     OW15860   0.045   2.050   3.516  0.1897 -0.1099 -0.4704
 5054SOL    HW115861   0.025   2.043   3.422 -1.2373 -1.2469 -0.1281
 5054SOL    HW215862   0.102   2.127   3.523  0.6911 -0.2637 -2.3117
 5055SOL     OW15863   2.764   3.075   2.388 -0.4981 -0.5555  0.0197
 5055SOL    HW115864   2.817   3.120   2.322  0.1214 -1.5913 -0.2180
 5055SOL    HW215865   2.736   3.144   2.448 -0.5057  0.3054 -0.9403
 5056SOL     OW15866   0.592   0.102   3.728  0.0908 -0.3091  0.1580
 5056SOL    HW115867   0.578   0.073   3.819 -1.4859 -2.5695 -0.7271
 5056SOL    HW215868   0.517   0.158   3.709  0.2919 -0.0384  0.1545
 5057SOL     OW15869   6.280   2.407   3.714 -0.7452 -0.0403 -0.2530
 5057SOL    HW115870   6.288   2.312   3.700 -0.8540  0.2017 -2.3064
 5057SOL    HW215871   6.368   2.441   3.701 -0.8013  0.1980 -0.0109
 5058SOL     OW15872   0.714   2.810   6.778  0.2798 -0.5581  0.3289
 5058SOL    HW115873   0.674   2.894   6.802  0.3684 -0.6249  0.7228
 5058SOL    HW215874   0.639   2.752   6.762  0.2039 -0.0593 -1.2409
 5059SOL     OW15875   2.093   2.870   5.263 -0.1422  0.3247  0.6158
 5059SOL    HW115876   2.183   2.895   5.243  0.0961 -0.2882  0.8958
 5059SOL    HW215877   2.072   2.803   5.198 -0.4242  0.5194  0.5048
 5060SOL     OW15878   1.854   1.640   3.508 -0.0142 -0.1527 -0.1634
 5060SOL    HW115879   1.779   1.633   3.567 -1.0251  0.4747 -1.3084
 5060SOL    HW215880   1.831   1.582   3.435 -0.1208  1.1837 -1.2364
 5061SOL     OW15881   5.616   5.233   4.460 -0.4703 -1.0091 -0.1490
 5061SOL    HW115882   5.702   5.222   4.420  0.1298  0.8068  0.5183
 5061SOL    HW215883   5.629   5.300   4.527 -2.7379  0.6172 -1.2032
 5062SOL     OW15884   1.665   1.402   4.852  0.2663  0.2817 -0.0107
 5062SOL    HW115885   1.593   1.368   4.798  0.9610  0.1164 -0.8633
 5062SOL    HW215886   1.689   1.329   4.909 -1.0262  0.7221  1.1387
 5063SOL     OW15887   2.181   7.707   2.727  0.1886  0.1082 -0.5135
 5063SOL    HW115888   2.260   7.756   2.749  0.2920 -0.9610  1.8372
 5063SOL    HW215889   2.151   7.670   2.811 -1.4107 -1.5501 -1.7206
 5064SOL     OW15890   2.263   5.707   2.120 -0.0907  0.7464 -0.0884
 5064SOL    HW115891   2.181   5.757   2.119 -0.2736  0.4591  0.5534
 5064SOL    HW215892   2.289   5.704   2.212 -0.5035 -1.0300 -0.0020
 5065SOL     OW15893   1.936   0.863   3.580  0.3120  0.1866  0.5213
 5065SOL    HW115894   1.870   0.818   3.528  1.3617  0.2291 -0.9193
 5065SOL    HW215895   1.888   0.932   3.626 -1.1267 -1.5938  1.8736
 5066SOL     OW15896   3.367   2.473   2.488  0.2774 -0.5186 -0.2226
 5066SOL    HW115897   3.345   2.499   2.577  0.9096  2.6587 -0.8815
 5066SOL    HW215898   3.306   2.402   2.468 -3.1242  1.7718  1.1646
 5067SOL     OW15899   2.813   6.429   7.236  0.0371 -0.9613 -0.4064
 5067SOL    HW115900   2.900   6.426   7.277  0.1900  1.0422 -0.4970
 5067SOL    HW215901   2.764   6.492   7.287 -0.5431 -0.1941 -1.8499
 5068SOL     OW15902   2.805   5.509   0.712  0.2588 -0.0187 -0.3619
 5068SOL    HW115903   2.830   5.553   0.631  1.2902 -0.1396 -0.1351
 5068SOL    HW215904   2.757   5.576   0.762 -0.3281  0.0732 -1.0359
 5069SOL     OW15905   2.818   2.544   4.795 -0.0935 -0.3625  0.0656
 5069SOL    HW115906   2.853   2.569   4.881 -1.5082 -0.8424  0.8187
 5069SOL    HW215907   2.733   2.505   4.815 -0.0787 -1.2519 -1.5021
 5070SOL     OW15908   7.897   3.458   5.063  0.1617  0.2147  0.6431
 5070SOL    HW115909   7.836   3.531   5.053 -0.4433 -0.0346  2.2654
 5070SOL    HW215910   7.931   3.443   4.975 -0.7084  1.5802  0.0483
 5071SOL     OW15911   1.862   2.609   6.559  0.5517 -0.3425 -0.0807
 5071SOL    HW115912   1.802   2.653   6.499  0.7352  0.3263  0.2194
 5071SOL    HW215913   1.915   2.680   6.597  2.1624 -0.9805 -1.0094
 5072SOL     OW15914   2.069   2.101   0.505  0.0119 -0.1370  0.3894
 5072SOL    HW115915   1.988   2.128   0.549 -0.1413 -0.4960  0.3317
 5072SOL    HW215916   2.125   2.069   0.575  0.3563  0.7061  0.5133
 5073SOL     OW15917   2.100   6.157   3.891  1.0536  0.4162  0.2233
 5073SOL    HW115918   2.051   6.182   3.969  0.7583  0.0074  0.1734
 5073SOL    HW215919   2.129   6.068   3.909  1.0443  0.3466 -0.1045
 5074SOL     OW15920   1.074   4.583   4.354 -0.3134  0.0536  0.1586
 5074SOL    HW115921   1.056   4.555   4.444  1.9508  0.2152  0.7297
 5074SOL    HW215922   1.134   4.657   4.364  0.7287 -0.5235 -1.4955
 5075SOL     OW15923   3.790   6.203   1.079 -0.5973 -0.0702  0.3968
 5075SOL    HW115924   3.861   6.259   1.111  0.7839 -1.0374 -0.7860
 5075SOL    HW215925   3.800   6.122   1.130  0.6421 -1.0406 -1.2578
 5076SOL     OW15926   5.513   1.959   1.057  0.0161 -0.6706  0.2939
 5076SOL    HW115927   5.526   1.875   1.013  1.0366 -0.0217 -0.6817
 5076SOL    HW215928   5.584   1.964   1.120  2.9961  1.4573 -2.8577
 5077SOL     OW15929   6.032   7.000   7.304 -0.3840  0.2393  0.5093
 5077SOL    HW115930   5.961   7.052   7.266  0.5561  0.4949 -1.0020
 5077SOL    HW215931   6.058   6.941   7.234  0.6645 -0.0869  1.1562
 5078SOL     OW15932   5.381   2.298   6.159 -0.0950  0.2681  0.3380
 5078SOL    HW115933   5.406   2.221   6.211  0.1050 -0.5288 -0.8939
 5078SOL    HW215934   5.375   2.265   6.069  0.1691  1.7389 -0.2431
 5079SOL     OW15935   0.543   6.932   5.124  0.1599  0.0606  0.2750
 5079SOL    HW115936   0.486   6.910   5.050  0.6009 -0.2636  0.0225
 5079SOL    HW215937   0.525   6.863   5.188 -0.3243  0.4209  0.5277
 5080SOL     OW15938   0.325   4.599   4.492  0.2924 -0.6939 -0.3836
 5080SOL    HW115939   0.388   4.672   4.489  1.7700 -1.9386 -0.6980
 5080SOL    HW215940   0.268   4.614   4.417 -0.0750  0.6794  0.1287
 5081SOL     OW15941   5.447   0.874   2.753 -0.4479 -0.2287 -0.1687
 5081SOL    HW115942   5.426   0.811   2.684 -2.4141 -1.9522  1.8463
 5081SOL    HW215943   5.504   0.827   2.813  1.5688  1.3770 -0.7062
 5082SOL     OW15944   2.461   6.464   1.387 -0.3875  0.0694  0.2480
 5082SOL    HW115945   2.482   6.372   1.401  0.5024  0.0915 -0.7772
 5082SOL    HW215946   2.546   6.505   1.369 -1.0988  0.3990 -2.9847
 5083SOL     OW15947   0.251   1.017   1.000 -0.2741 -0.4054 -0.7400
 5083SOL    HW115948   0.236   0.940   0.945  2.4449 -0.9389 -0.9138
 5083SOL    HW215949   0.242   0.986   1.089 -1.7197 -0.2724 -0.8246
 5084SOL     OW15950   4.657   2.451   5.257 -0.1607  0.0833 -0.2760
 5084SOL    HW115951   4.614   2.406   5.329 -0.2393 -0.7590 -0.8324
 5084SOL    HW215952   4.586   2.494   5.210 -0.4590 -1.4290 -1.2808
 5085SOL     OW15953   6.665   6.371   7.233 -0.5441 -0.0883 -0.0023
 5085SOL    HW115954   6.597   6.394   7.295 -0.3797  0.7212 -0.1059
 5085SOL    HW215955   6.747   6.387   7.280 -0.2715  4.2263 -1.5008
 5086SOL     OW15956   2.381   2.708   3.062 -0.1000 -0.4460 -0.8486
 5086SOL    HW115957   2.304   2.757   3.093 -0.0427 -0.0535 -1.3348
 5086SOL    HW215958   2.456   2.760   3.092  0.0622 -1.7444  1.2466
 5087SOL     OW15959   1.357   2.272   4.293  0.6606 -0.8462  0.1164
 5087SOL    HW115960   1.337   2.241   4.205 -0.9598 -0.3961  0.2914
 5087SOL    HW215961   1.436   2.326   4.282  0.5049 -0.8267 -1.0565
 5088SOL     OW15962   4.940   7.081   3.311 -0.7214 -0.5487  0.3002
 5088SOL    HW115963   4.893   7.025   3.250 -0.6820 -0.8090  0.5095
 5088SOL    HW215964   5.033   7.062   3.296 -0.7282 -1.1703  0.9581
 5089SOL     OW15965   7.296   0.532   1.506  0.2955  0.7426  0.3428
 5089SOL    HW115966   7.236   0.476   1.456 -0.0397  0.1731  1.3579
 5089SOL    HW215967   7.239   0.579   1.567  0.5161  2.4918 -0.7106
 5090SOL     OW15968   6.407   3.027   0.553 -0.3417  0.3987  0.0270
 5090SOL    HW115969   6.350   3.062   0.622  0.3176  1.3595  0.1165
 5090SOL    HW215970   6.477   2.982   0.601  0.0693  0.9918  0.0032
 5091SOL     OW15971   4.543   4.850   7.563 -0.5121  0.3503 -0.3403
 5091SOL    HW115972   4.537   4.945   7.559 -0.9913  0.3622  0.4943
 5091SOL    HW215973   4.486   4.818   7.493 -1.3528  0.6534  0.2054
 5092SOL     OW15974   5.997   3.244   1.516  0.3035  0.1428 -0.3080
 5092SOL    HW115975   5.918   3.227   1.464  0.0329  0.8769 -0.1585
 5092SOL    HW215976   6.026   3.158   1.545  0.0809 -0.2146 -1.1242
 5093SOL     OW15977   0.776   3.704   6.342  0.0601 -0.7789 -0.2313
 5093SOL    HW115978   0.793   3.618   6.303  0.8291 -0.7132 -0.0508
 5093SOL    HW215979   0.788   3.765   6.269 -0.5756 -0.8264 -0.3806
 5094SOL     OW15980   5.828   5.054   2.895  0.0710 -0.1254  0.1834
 5094SOL    HW115981   5.833   5.125   2.832  0.7449  0.1188  0.4983
 5094SOL    HW215982   5.908   5.004   2.881  0.1121 -0.2045  0.6843
 5095SOL     OW15983   7.130   1.055   7.824  0.1142 -0.6413 -0.5562
 5095SOL    HW115984   7.113   1.148   7.813 -0.9228 -0.8056 -0.4072
 5095SOL    HW215985   7.207   1.051   7.881  0.8793  0.1226 -1.4961
 5096SOL     OW15986   6.100   3.680   7.397 -0.4097  0.0049 -0.5907
 5096SOL    HW115987   6.148   3.742   7.452 -1.5674  1.5807 -1.2714
 5096SOL    HW215988   6.040   3.636   7.456 -0.5722  0.5782 -0.3203
 5097SOL     OW15989   5.028   2.816   6.494 -0.3438 -0.5172 -0.1488
 5097SOL    HW115990   4.985   2.876   6.556 -0.0318 -0.6260  0.1774
 5097SOL    HW215991   4.955   2.777   6.444 -0.7518 -1.5647  1.1792
 5098SOL     OW15992   7.636   7.616   7.945  0.1925  0.2818 -0.5004
 5098SOL    HW115993   7.555   7.646   7.905 -0.2804 -0.2381  0.0568
 5098SOL    HW215994   7.642   7.664   8.028 -0.0112 -0.3531 -0.1162
 5099SOL     OW15995   1.150   7.655   3.894 -0.3047 -0.2196 -0.5846
 5099SOL    HW115996   1.185   7.566   3.887  2.6766  0.7467  0.6344
 5099SOL    HW215997   1.188   7.702   3.820 -2.3564 -0.0137 -1.5895
 5100SOL     OW15998   2.900   5.466   5.627 -0.3753  0.3461 -0.2615
 5100SOL    HW115999   2.849   5.476   5.546  0.7862  0.2240 -1.0196
 5100SOL    HW216000   2.834   5.442   5.692 -1.3678  0.6356 -1.1126
 5101SOL     OW16001   2.406   0.766   5.547 -0.9881 -0.1690  0.3344
 5101SOL    HW116002   2.389   0.673   5.562 -0.3088 -0.0278  2.1890
 5101SOL    HW216003   2.334   0.811   5.591 -1.2075  0.1898 -0.3864
 5102SOL     OW16004   6.357   6.906   5.788  0.4699 -0.2778  0.0133
 5102SOL    HW116005   6.266   6.889   5.809  0.6642  0.8084  1.9928
 5102SOL    HW216006   6.374   6.856   5.708 -2.1072  0.2868 -0.9637
 5103SOL     OW16007   5.380   4.874   6.681  0.0092 -0.3620  0.2861
 5103SOL    HW116008   5.464   4.856   6.639  0.7568 -1.1326  2.0008
 5103SOL    HW216009   5.374   4.970   6.680  0.3704 -0.3319 -0.8208
 5104SOL     OW16010   5.755   2.698   0.892  0.0531  0.4319  0.3331
 5104SOL    HW116011   5.771   2.716   0.800 -2.1929 -1.2616 -0.4697
 5104SOL    HW216012   5.796   2.613   0.907 -0.2150  0.3670  0.7085
 5105SOL     OW16013   6.152   5.241   1.278 -0.4094 -0.0637 -0.1985
 5105SOL    HW116014   6.152   5.235   1.182  0.0907 -0.8221 -0.1619
 5105SOL    HW216015   6.079   5.298   1.298 -0.5993  0.0054 -1.0332
 5106SOL     OW16016   3.105   5.248   7.918  0.5208 -0.1488 -0.4402
 5106SOL    HW116017   3.032   5.191   7.893  1.8090 -1.8945 -0.4182
 5106SOL    HW216018   3.069   5.336   7.912 -1.8013 -0.9582  0.2565
 5107SOL     OW16019   1.161   2.857   7.935 -0.0134  0.2347 -0.2284
 5107SOL    HW116020   1.235   2.912   7.908 -0.3583  0.6761 -0.2722
 5107SOL    HW216021   1.169   2.779   7.880  0.4703  0.2393 -0.1745
 5108SOL     OW16022   1.991   6.277   4.502  0.2994 -0.0948  0.7582
 5108SOL    HW116023   2.060   6.286   4.436  0.1624 -1.4370  0.4038
 5108SOL    HW216024   2.037   6.251   4.581  0.4235  1.1664  1.1184
 5109SOL     OW16025   5.015   1.409   0.291  0.6019 -0.5417  0.5043
 5109SOL    HW116026   4.986   1.438   0.204  1.2842  0.2971  0.5382
 5109SOL    HW216027   5.049   1.489   0.332 -0.5609 -0.7176  1.9027
 5110SOL     OW16028   0.643   2.345   4.718 -0.1761  0.1274 -0.2524
 5110SOL    HW116029   0.592   2.347   4.799 -0.4997 -0.8329 -0.4243
 5110SOL    HW216030   0.730   2.314   4.744 -0.6754 -1.4970 -0.4686
 5111SOL     OW16031   0.491   2.585   7.575  0.2500  0.1690  0.0726
 5111SOL    HW116032   0.467   2.512   7.517  0.7512  0.0228  0.0508
 5111SOL    HW216033   0.440   2.659   7.542  0.7261  0.1515 -0.7263
 5112SOL     OW16034   6.355   5.440   5.824 -0.0890  0.6065 -0.5795
 5112SOL    HW116035   6.435   5.444   5.876 -0.6768 -0.8652  0.5142
 5112SOL    HW216036   6.284   5.432   5.888 -1.0821  1.3031 -1.5389
 5113SOL     OW16037   6.465   0.788   0.602  0.6846  0.4268 -0.3613
 5113SOL    HW116038   6.508   0.719   0.551 -0.7656 -1.1195  0.4290
 5113SOL    HW216039   6.382   0.804   0.556  0.5123  0.8489  0.0836
 5114SOL     OW16040   0.297   2.887   4.129  0.0990 -0.0994 -0.3421
 5114SOL    HW116041   0.293   2.872   4.224  1.0256 -1.4703 -0.4784
 5114SOL    HW216042   0.340   2.972   4.120  0.9925 -0.4450  0.4662
 5115SOL     OW16043   5.966   3.048   0.478  0.3063 -0.0682  0.4402
 5115SOL    HW116044   6.049   3.042   0.431  1.0993 -0.5150  1.8384
 5115SOL    HW216045   5.959   3.140   0.503  0.8499 -0.1959  1.1004
 5116SOL     OW16046   6.901   1.813   4.963  0.3012  0.1018  0.9849
 5116SOL    HW116047   6.850   1.776   4.891  1.5507  0.4594 -0.1183
 5116SOL    HW216048   6.859   1.898   4.980  0.6273  0.4806 -0.0446
 5117SOL     OW16049   2.106   4.234   2.036  0.1743 -0.2945 -0.8421
 5117SOL    HW116050   2.115   4.317   2.082  0.6444 -1.3770  1.1208
 5117SOL    HW216051   2.023   4.242   1.989  0.1189  1.1903 -0.5486
 5118SOL     OW16052   3.022   5.579   2.524 -0.5428  0.2342  0.2517
 5118SOL    HW116053   2.937   5.625   2.523  0.1902  1.6955 -1.9915
 5118SOL    HW216054   3.000   5.487   2.511 -1.7615  0.7304 -1.4575
 5119SOL     OW16055   1.820   5.707   6.237  0.6477  0.1143  0.4112
 5119SOL    HW116056   1.912   5.699   6.212  0.8436 -0.9871  1.3893
 5119SOL    HW216057   1.811   5.794   6.274  1.3463  0.1551  0.4858
 5120SOL     OW16058   5.350   5.329   1.208  0.4396 -0.0960 -0.5009
 5120SOL    HW116059   5.431   5.349   1.256  0.1000 -1.0849  0.5249
 5120SOL    HW216060   5.280   5.361   1.264 -0.0232 -2.2964  0.2926
 5121SOL     OW16061   6.302   3.872   0.065  0.0454 -0.2356  0.3582
 5121SOL    HW116062   6.296   3.870   0.160 -0.3243  0.0441  0.3453
 5121SOL    HW216063   6.318   3.964   0.044 -1.5039  0.0061  0.0768
 5122SOL     OW16064   1.242   3.077   3.936  0.4169 -0.4904 -0.1988
 5122SOL    HW116065   1.329   3.056   3.971  0.1094 -1.4287  0.0369
 5122SOL    HW216066   1.187   3.086   4.014  0.3705  0.4308 -0.3377
 5123SOL     OW16067   3.089   3.103   0.044  0.0031  0.1942 -0.2444
 5123SOL    HW116068   3.074   3.138  -0.043 -0.0299 -1.0356 -0.7576
 5123SOL    HW216069   3.014   3.046   0.061  0.6143 -0.5478  0.0643
 5124SOL     OW16070   7.612   4.083   0.922  0.4163  0.0065 -0.1725
 5124SOL    HW116071   7.566   4.086   1.006  0.3490  1.4955 -0.2370
 5124SOL    HW216072   7.704   4.071   0.946  0.3000 -0.4365  0.0680
 5125SOL     OW16073   1.313   6.536   7.414 -0.4678  0.1345  0.1672
 5125SOL    HW116074   1.280   6.557   7.327 -1.0991 -0.5610  0.2288
 5125SOL    HW216075   1.341   6.620   7.450  1.9231  0.1739 -1.5348
 5126SOL     OW16076   3.451   5.973   3.942 -0.3106 -0.0949 -0.0242
 5126SOL    HW116077   3.425   5.881   3.932  0.7482 -0.3747 -0.3391
 5126SOL    HW216078   3.528   5.969   3.999 -0.1251  0.5719 -0.2246
 5127SOL     OW16079   7.564   0.305   5.997  0.0435 -0.1236 -0.1282
 5127SOL    HW116080   7.555   0.212   6.016 -1.6111  0.2296  1.0570
 5127SOL    HW216081   7.532   0.314   5.907 -3.2482 -0.2865  0.8900
 5128SOL     OW16082   3.270   6.333   0.080  0.4033 -0.1431  0.2251
 5128SOL    HW116083   3.290   6.242   0.058 -1.3365 -0.6367  0.5322
 5128SOL    HW216084   3.321   6.384   0.018 -1.6352 -1.4237 -2.7648
 5129SOL     OW16085   4.160   4.109   6.586 -0.4291 -0.0760 -0.2153
 5129SOL    HW116086   4.159   4.160   6.668  1.2963 -1.7752  0.9673
 5129SOL    HW216087   4.236   4.142   6.538 -0.5699 -0.0858 -0.4462
 5130SOL     OW16088   4.219   6.434   7.348 -0.5625 -0.0206  0.0175
 5130SOL    HW116089   4.209   6.520   7.308  0.6812  1.4694  2.6640
 5130SOL    HW216090   4.129   6.401   7.357 -1.0520  0.9660 -1.0417
 5131SOL     OW16091   0.763   3.829   4.976 -0.0633 -0.3006  0.0128
 5131SOL    HW116092   0.742   3.759   4.913 -0.1807  0.2272 -0.5397
 5131SOL    HW216093   0.689   3.889   4.971  0.2989  0.1563  0.0724
 5132SOL     OW16094   5.243   4.581   7.026  0.1377 -0.2816  0.2024
 5132SOL    HW116095   5.334   4.561   7.050 -0.4412 -0.2450  2.6615
 5132SOL    HW216096   5.229   4.669   7.060 -0.6922 -0.0635 -0.6615
 5133SOL     OW16097   4.854   3.297   3.335 -0.3355 -0.3658 -0.6348
 5133SOL    HW116098   4.844   3.357   3.261 -0.4363  0.1047 -0.2448
 5133SOL    HW216099   4.934   3.326   3.378 -1.4522  0.8136  0.7485
 5134SOL     OW16100   7.022   5.343   0.068  0.3290  0.5799  0.1175
 5134SOL    HW116101   7.000   5.326  -0.024 -1.1369 -0.2933  0.6051
 5134SOL    HW216102   6.986   5.269   0.116  0.1474  1.5330  1.5178
 5135SOL     OW16103   1.859   6.707   3.571  0.8550 -0.2907  0.1321
 5135SOL    HW116104   1.783   6.753   3.609  0.5014  0.9671 -1.9476
 5135SOL    HW216105   1.869   6.629   3.626 -2.1159 -0.6528  0.3694
 5136SOL     OW16106   1.870   2.615   4.697 -0.4694 -0.1863  0.5516
 5136SOL    HW116107   1.901   2.604   4.787  1.2517  0.9225  0.1450
 5136SOL    HW216108   1.871   2.710   4.683  2.1898 -0.3973 -1.5167
 5137SOL     OW16109   2.649   3.593   5.295 -0.0404  0.4684 -0.4561
 5137SOL    HW116110   2.669   3.591   5.201 -0.5032  0.5226 -0.5585
 5137SOL    HW216111   2.570   3.646   5.301 -0.2435  0.1220 -0.0723
 5138SOL     OW16112   1.491   3.011   1.299  0.4788 -0.7427  0.3905
 5138SOL    HW116113   1.401   3.018   1.328  0.4944 -0.3618  0.3603
 5138SOL    HW216114   1.530   3.097   1.319  0.2944 -0.1872 -1.3760
 5139SOL     OW16115   1.358   3.737   7.971 -0.2916  0.3311 -0.0498
 5139SOL    HW116116   1.453   3.744   7.959 -0.1143 -0.1084  0.9795
 5139SOL    HW216117   1.345   3.649   8.005 -1.0754  0.3939 -0.1821
 5140SOL     OW16118   5.910   3.782   5.891 -0.1522 -0.0942 -0.2053
 5140SOL    HW116119   5.985   3.828   5.854 -1.6520  1.4573 -1.4820
 5140SOL    HW216120   5.940   3.751   5.976  1.8536  0.6663 -0.5952
 5141SOL     OW16121   7.821   2.370   5.561 -0.4566  0.2982 -0.0097
 5141SOL    HW116122   7.867   2.294   5.595  1.0497  0.7400 -0.9298
 5141SOL    HW216123   7.779   2.410   5.637  0.1409 -0.5109  0.7553
 5142SOL     OW16124   4.429   6.960   1.815 -0.3894  0.2418  0.3863
 5142SOL    HW116125   4.413   6.874   1.774  0.1224  1.3847 -2.4489
 5142SOL    HW216126   4.508   6.992   1.772 -0.7505  2.2864  1.1591
 5143SOL     OW16127   1.427   2.960   1.908  0.1937  0.1177  0.0558
 5143SOL    HW116128   1.463   3.036   1.953 -0.2563  0.8212 -0.7299
 5143SOL    HW216129   1.461   2.966   1.819  0.2766 -0.6967  0.0229
 5144SOL     OW16130   3.705   2.953   4.963 -0.0127  0.0198  0.3877
 5144SOL    HW116131   3.706   2.867   5.005 -1.0101 -1.1381 -1.7921
 5144SOL    HW216132   3.614   2.968   4.940 -0.1564  2.4694  2.1424
 5145SOL     OW16133   6.906   1.807   6.892 -0.3285  0.5084 -0.2874
 5145SOL    HW116134   6.932   1.721   6.925 -0.2044  1.1615  1.3796
 5145SOL    HW216135   6.883   1.791   6.800 -0.4743 -1.3334  0.0309
 5146SOL     OW16136   1.976   1.836   0.754  0.1156  0.3823 -0.2224
 5146SOL    HW116137   1.997   1.751   0.793  0.4795  0.7340  0.3709
 5146SOL    HW216138   2.052   1.891   0.774 -0.8224  1.3305  0.8799
 5147SOL     OW16139   4.843   7.464   5.780  0.6047  0.1093  0.5862
 5147SOL    HW116140   4.757   7.478   5.819  0.7857  1.1391  0.6358
 5147SOL    HW216141   4.904   7.505   5.842  1.3188 -2.1062  1.4502
 5148SOL     OW16142   4.988   4.404   1.849  0.2955 -0.1871  0.1013
 5148SOL    HW116143   4.961   4.392   1.940  1.7785  1.7692  0.8590
 5148SOL    HW216144   4.950   4.488   1.824  1.2518  0.0676 -0.5399
 5149SOL     OW16145   7.955   6.666   6.281  0.3458 -0.6233  0.4136
 5149SOL    HW116146   8.020   6.597   6.300  1.7619  0.5323 -0.0111
 5149SOL    HW216147   7.965   6.729   6.352  1.0067  0.4594 -0.5862
 5150SOL     OW16148   5.751   2.817   3.380  0.1099 -0.0240  0.3922
 5150SOL    HW116149   5.704   2.735   3.368 -1.7495  1.2840 -1.9348
 5150SOL    HW216150   5.683   2.883   3.389  1.5278  1.5436  0.1500
 5151SOL     OW16151   0.960   1.727   1.802 -0.6997  0.0035  0.1487
 5151SOL    HW116152   1.054   1.725   1.822 -0.9271  1.2742  1.5677
 5151SOL    HW216153   0.924   1.651   1.848 -0.2735 -0.9651 -1.0820
 5152SOL     OW16154   6.450   3.746   6.562 -0.1619 -0.4377  0.1340
 5152SOL    HW116155   6.422   3.713   6.647  0.0074 -0.1510  0.3008
 5152SOL    HW216156   6.482   3.834   6.579 -1.7337  0.2834 -0.4988
 5153SOL     OW16157   6.672   6.308   3.033  0.0590  0.4714  1.0738
 5153SOL    HW116158   6.762   6.278   3.050 -0.2881 -0.3973  1.4485
 5153SOL    HW216159   6.664   6.307   2.937 -0.1824 -1.4768  1.0667
 5154SOL     OW16160   7.943   0.471   5.992 -0.4613 -0.5018  0.5570
 5154SOL    HW116161   7.868   0.525   5.966 -0.2362 -0.4702 -0.0408
 5154SOL    HW216162   7.988   0.452   5.910 -0.4941 -1.5361  0.7684
 5155SOL     OW16163   1.719   5.134   4.883 -0.0728  0.3920 -0.0974
 5155SOL    HW116164   1.766   5.212   4.913  1.6589 -1.0624  1.2456
 5155SOL    HW216165   1.712   5.145   4.788 -0.2292  2.3197  0.0875
 5156SOL     OW16166   4.681   0.174   7.421  0.2339 -0.7373 -0.7934
 5156SOL    HW116167   4.652   0.107   7.482 -0.4627  1.2990  1.2590
 5156SOL    HW216168   4.600   0.213   7.387  0.4761  1.3312  0.7771
 5157SOL     OW16169   5.545   4.551   6.477  0.1741 -0.1128 -0.3661
 5157SOL    HW116170   5.632   4.511   6.482  0.1162 -0.1047  1.0405
 5157SOL    HW216171   5.496   4.494   6.418  0.3432 -1.6725  0.9468
 5158SOL     OW16172   4.180   7.635   5.433  0.1716 -0.1153 -0.2655
 5158SOL    HW116173   4.250   7.583   5.394  1.0630 -0.5989  1.8341
 5158SOL    HW216174   4.220   7.720   5.450 -0.3049  0.2018 -0.7056
 5159SOL     OW16175   1.474   4.757   2.243 -0.0203 -0.6646  0.5034
 5159SOL    HW116176   1.411   4.817   2.284  1.2042 -0.2631  1.8665
 5159SOL    HW216177   1.421   4.682   2.215 -1.2168  0.0123  0.8926
 5160SOL     OW16178   1.498   1.156   1.198 -0.3172 -0.1404  0.3532
 5160SOL    HW116179   1.537   1.170   1.284  1.4957 -2.4722 -0.0027
 5160SOL    HW216180   1.436   1.085   1.211  2.4172 -2.9556 -0.7424
 5161SOL     OW16181   3.949   4.292   1.320  0.0430 -0.4222 -0.5190
 5161SOL    HW116182   4.016   4.247   1.269  0.8154  0.5835 -0.4191
 5161SOL    HW216183   3.881   4.316   1.256 -0.1626 -1.3166 -0.6430
 5162SOL     OW16184   0.619   3.958   6.845 -0.1886  0.0317  0.2816
 5162SOL    HW116185   0.597   3.905   6.921 -2.8223  0.4826 -0.0635
 5162SOL    HW216186   0.685   3.907   6.799 -0.6049 -1.6153  1.4099
 5163SOL     OW16187   7.896   5.016   0.235 -1.0758  0.0490 -0.0617
 5163SOL    HW116188   7.935   4.929   0.235 -1.4051 -0.0982 -0.4951
 5163SOL    HW216189   7.842   5.019   0.156  0.0251  1.1333 -0.8049
 5164SOL     OW16190   4.581   6.216   0.034 -0.1265  0.0282  0.2052
 5164SOL    HW116191   4.672   6.195   0.014 -0.1964  0.1942 -0.2910
 5164SOL    HW216192   4.544   6.133   0.066 -0.0920 -0.3283 -0.6424
 5165SOL     OW16193   5.474   3.611   5.516 -0.4590 -0.0834  0.0157
 5165SOL    HW116194   5.513   3.691   5.480 -0.5231  0.0338  0.2088
 5165SOL    HW216195   5.491   3.545   5.449  1.3457 -0.3733  0.7071
 5166SOL     OW16196   2.575   0.752   1.310  0.2635  0.2492 -0.1526
 5166SOL    HW116197   2.531   0.673   1.279 -0.5489  0.5944  0.1141
 5166SOL    HW216198   2.645   0.720   1.367  2.5337 -0.4921 -3.1073
 5167SOL     OW16199   7.357   2.516   0.901  0.4518 -0.8772 -0.4292
 5167SOL    HW116200   7.292   2.586   0.905 -0.6617 -1.8668 -0.6092
 5167SOL    HW216201   7.434   2.552   0.945 -0.4290  0.0940  0.3689
 5168SOL     OW16202   7.024   1.440   1.382 -0.1672 -0.1156  0.0930
 5168SOL    HW116203   6.953   1.391   1.342  1.4640 -0.5255 -2.5053
 5168SOL    HW216204   7.073   1.374   1.432 -1.2521  0.0868  1.5120
 5169SOL     OW16205   4.179   2.028   2.695  0.6291 -0.0087  0.0970
 5169SOL    HW116206   4.190   2.093   2.764  1.3919 -0.2805  0.2321
 5169SOL    HW216207   4.187   2.078   2.614  2.0932 -0.0617  0.1934
 5170SOL     OW16208   0.759   1.998   3.170  0.2442  0.2505 -0.5112
 5170SOL    HW116209   0.686   1.946   3.203  1.1561 -0.1831  0.9390
 5170SOL    HW216210   0.776   1.964   3.083  0.2365 -1.2885  0.0636
 5171SOL     OW16211   5.141   0.172   6.468  0.1759 -0.7225 -0.3185
 5171SOL    HW116212   5.194   0.250   6.483  1.0159 -1.5297  1.2348
 5171SOL    HW216213   5.057   0.206   6.437  0.4587  0.8135  0.4647
 5172SOL     OW16214   7.924   1.110   3.697 -0.4189  0.4955  0.1969
 5172SOL    HW116215   7.853   1.170   3.722 -0.8139  0.3480 -0.5327
 5172SOL    HW216216   7.893   1.024   3.724 -1.3865  0.1606 -1.7684
 5173SOL     OW16217   3.583   7.417   6.674  0.0381  0.2626 -0.6183
 5173SOL    HW116218   3.647   7.418   6.603  0.5306 -0.2559 -0.1923
 5173SOL    HW216219   3.618   7.478   6.738 -0.1208  0.3087 -0.5752
 5174SOL     OW16220   1.948   0.811   7.954 -0.5055 -0.2876 -0.3401
 5174SOL    HW116221   1.858   0.812   7.986 -1.0012  0.5859 -1.6726
 5174SOL    HW216222   2.000   0.841   8.028 -1.5429  1.1683 -0.1466
 5175SOL     OW16223   1.695   1.188   6.890 -0.0173  0.2435 -0.0194
 5175SOL    HW116224   1.658   1.207   6.804  0.5537  1.3255 -0.0430
 5175SOL    HW216225   1.785   1.220   6.886  0.8551 -2.0369  0.1663
 5176SOL     OW16226   4.170   3.260   4.684  0.6860 -0.1199 -0.1490
 5176SOL    HW116227   4.105   3.320   4.646  1.6266  0.6167 -0.6278
 5176SOL    HW216228   4.133   3.173   4.669 -0.2724  0.2846 -0.2555
 5177SOL     OW16229   5.254   7.621   3.292  0.2064 -0.4795 -0.2781
 5177SOL    HW116230   5.317   7.587   3.229 -1.0916  1.4827 -2.8720
 5177SOL    HW216231   5.174   7.633   3.241 -1.0727  0.8563  1.8769
 5178SOL     OW16232   7.272   6.031   2.564 -0.1928  0.3218  0.0484
 5178SOL    HW116233   7.279   6.126   2.562  0.5131  0.2801 -1.4041
 5178SOL    HW216234   7.197   6.012   2.506 -0.0242 -0.0153 -0.0603
 5179SOL     OW16235   3.333   7.185   7.625  0.6100 -0.6959 -0.7159
 5179SOL    HW116236   3.374   7.191   7.711 -2.5203  1.7481  0.8379
 5179SOL    HW216237   3.340   7.273   7.589 -2.8032 -0.1702 -0.4151
 5180SOL     OW16238   3.896   3.676   4.077  0.1812  0.4338 -0.1674
 5180SOL    HW116239   3.948   3.645   4.151 -0.8309  0.4302  0.5550
 5180SOL    HW216240   3.889   3.600   4.019 -1.0163 -0.2764  0.8704
 5181SOL     OW16241   2.323   3.975   7.117 -0.1050 -0.0895 -0.1467
 5181SOL    HW116242   2.408   3.932   7.117  1.1644  2.2424  0.3511
 5181SOL    HW216243   2.341   4.065   7.147 -2.9658  0.0348  1.6441
 5182SOL     OW16244   4.272   2.421   6.437  0.4278 -0.1141 -0.3511
 5182SOL    HW116245   4.232   2.344   6.397  0.0172 -0.2571  0.3242
 5182SOL    HW216246   4.208   2.451   6.501  0.9755  0.2418  0.0398
 5183SOL     OW16247   5.174   4.749   3.656 -0.1935  0.1479 -0.0460
 5183SOL    HW116248   5.202   4.662   3.685  0.1714  0.0820 -0.5967
 5183SOL    HW216249   5.131   4.787   3.733  0.5023 -0.1419  0.4952
 5184SOL     OW16250   6.141   0.483   7.790 -0.0222 -0.0200  0.2003
 5184SOL    HW116251   6.147   0.437   7.873 -1.6071 -1.2465 -0.3119
 5184SOL    HW216252   6.150   0.576   7.813 -1.0209 -0.2924  1.8175
 5185SOL     OW16253   4.983   1.932   2.599 -0.0078 -0.8368 -0.3001
 5185SOL    HW116254   4.901   1.902   2.561 -0.6987  0.5719  0.0093
 5185SOL    HW216255   4.987   1.891   2.685 -0.2553 -1.1150 -0.4213
 5186SOL     OW16256   2.798   2.633   5.706 -0.1215  0.5310  0.1085
 5186SOL    HW116257   2.863   2.582   5.754  0.0003  0.5937  0.0100
 5186SOL    HW216258   2.831   2.723   5.709 -1.0647  0.8565  1.5268
 5187SOL     OW16259   5.575   0.526   2.110  0.1100  0.3588  0.1496
 5187SOL    HW116260   5.590   0.445   2.061 -1.3330 -1.0852  1.9521
 5187SOL    HW216261   5.662   0.563   2.123  0.8298 -1.0298 -0.5019
 5188SOL     OW16262   4.655   4.235   5.194  0.1100 -0.6319 -0.4718
 5188SOL    HW116263   4.571   4.238   5.149  0.4429 -0.8458 -1.1288
 5188SOL    HW216264   4.633   4.217   5.285 -0.4256 -4.7164 -1.2009
 5189SOL     OW16265   2.608   2.557   0.868  0.0552  0.1589  0.2011
 5189SOL    HW116266   2.529   2.505   0.853  0.1385  0.0170  0.2542
 5189SOL    HW216267   2.617   2.558   0.963  1.4153 -1.7750  0.1338
 5190SOL     OW16268   1.751   7.686   6.253 -0.7621 -0.3156 -0.1129
 5190SOL    HW116269   1.689   7.680   6.326 -0.0241  1.6621  0.7254
 5190SOL    HW216270   1.834   7.710   6.293 -0.8259  3.1973 -1.7150
 5191SOL     OW16271   1.940   6.902   4.385  0.1830 -0.3161  0.0524
 5191SOL    HW116272   1.867   6.941   4.433  0.9265  1.0409  0.1432
 5191SOL    HW216273   1.914   6.811   4.370 -0.8938 -0.2438  1.3233
 5192SOL     OW16274   6.391   5.455   1.921  0.1528 -0.0427  0.5606
 5192SOL    HW116275   6.422   5.545   1.919  0.4999 -0.1661 -0.8524
 5192SOL    HW216276   6.472   5.403   1.926  0.0536 -0.2980 -0.2994
 5193SOL     OW16277   1.388   5.601   1.667  0.4110 -0.3612 -0.4545
 5193SOL    HW116278   1.371   5.681   1.716  0.7647 -0.5951  0.0687
 5193SOL    HW216279   1.327   5.537   1.704  0.7201 -0.5552 -0.2739
 5194SOL     OW16280   2.859   5.131   7.850  0.1325 -0.3620  0.5700
 5194SOL    HW116281   2.890   5.105   7.763 -1.5710 -0.6945  0.0189
 5194SOL    HW216282   2.896   5.065   7.909  0.1471 -0.9855 -0.1154
 5195SOL     OW16283   0.831   7.561   7.133 -0.0851  0.6813 -0.1518
 5195SOL    HW116284   0.872   7.499   7.193 -1.2738 -0.3410 -0.3348
 5195SOL    HW216285   0.900   7.585   7.071  0.3839 -0.5776 -0.1459
 5196SOL     OW16286   5.343   7.347   1.746 -0.3943 -0.2995  0.4770
 5196SOL    HW116287   5.398   7.275   1.776 -0.7232 -0.3237  1.0129
 5196SOL    HW216288   5.391   7.384   1.671  0.6658  0.0684  1.3140
 5197SOL     OW16289   2.922   0.188   0.634  0.0530 -0.7045  0.3127
 5197SOL    HW116290   2.849   0.150   0.683 -1.9042  0.8915 -1.2105
 5197SOL    HW216291   2.932   0.130   0.558 -0.4012 -0.3166 -0.0506
 5198SOL     OW16292   6.973   7.287   7.331 -0.5092  0.1151  0.2904
 5198SOL    HW116293   6.901   7.296   7.267  0.2033 -0.2058 -0.5759
 5198SOL    HW216294   6.964   7.198   7.364 -1.2691  0.4859  1.1477
 5199SOL     OW16295   1.524   1.802   6.985  0.0678 -0.2921 -0.3312
 5199SOL    HW116296   1.593   1.859   6.951 -1.1689  0.6369 -1.4277
 5199SOL    HW216297   1.505   1.836   7.072 -0.7296  1.1045 -1.0138
 5200SOL     OW16298   5.588   6.877   6.508 -0.2243  0.0515 -0.4095
 5200SOL    HW116299   5.559   6.866   6.417 -0.2867  2.3497 -0.7074
 5200SOL    HW216300   5.506   6.884   6.558 -0.1891 -1.1983 -0.1338
 5201SOL     OW16301   6.267   4.321   7.753 -0.0472  0.0039  0.3384
 5201SOL    HW116302   6.299   4.371   7.828 -1.0733  1.5307 -0.1948
 5201SOL    HW216303   6.341   4.266   7.728  1.3463  1.6739  0.6081
 5202SOL     OW16304   3.901   2.047   2.023  0.0984 -0.4127 -0.3302
 5202SOL    HW116305   3.995   2.036   2.040  0.0426 -0.8298 -0.2883
 5202SOL    HW216306   3.880   1.979   1.959  0.1648  0.7280 -1.5969
 5203SOL     OW16307   5.081   5.091   3.628  0.1278 -0.8683  0.3205
 5203SOL    HW116308   5.078   5.036   3.706  1.1583  0.0792  1.0723
 5203SOL    HW216309   5.171   5.082   3.596 -0.4289 -1.6935 -1.1274
 5204SOL     OW16310   4.999   3.582   0.527 -0.7731  0.2491  0.0946
 5204SOL    HW116311   5.035   3.661   0.568  0.2569  1.4982 -2.9171
 5204SOL    HW216312   5.036   3.582   0.439 -0.8523 -3.5903 -0.0944
 5205SOL     OW16313   3.708   6.541   4.626 -0.2151  0.5389 -0.3493
 5205SOL    HW116314   3.700   6.539   4.722 -4.3769  0.4193 -0.5456
 5205SOL    HW216315   3.787   6.593   4.610  0.2623  1.1132  3.1153
 5206SOL     OW16316   4.971   6.508   2.437 -0.2487 -0.4290  0.3282
 5206SOL    HW116317   4.878   6.527   2.451 -0.4257 -1.7472  1.0792
 5206SOL    HW216318   4.987   6.533   2.346 -1.0484  0.8678  0.5066
 5207SOL     OW16319   7.958   4.298   6.643 -0.0366  0.3065  0.5548
 5207SOL    HW116320   7.965   4.267   6.733  0.4933  1.0605  0.7797
 5207SOL    HW216321   7.990   4.225   6.590  0.7599  0.2855  1.0516
 5208SOL     OW16322   6.351   0.364   4.424 -1.1111  0.0554 -0.5359
 5208SOL    HW116323   6.422   0.386   4.364 -0.5820 -0.8412 -0.2617
 5208SOL    HW216324   6.283   0.328   4.368  0.2710 -2.9914 -0.4703
 5209SOL     OW16325   0.088   2.245   2.948 -0.4213  0.0040  0.2632
 5209SOL    HW116326   0.087   2.310   2.879 -1.4505 -0.0069  0.2627
 5209SOL    HW216327   0.024   2.179   2.921 -0.5994 -0.1636  1.0717
 5210SOL     OW16328   7.626   5.312   3.971  0.6744 -0.0118 -0.0793
 5210SOL    HW116329   7.556   5.346   3.914  0.1270 -1.8931 -0.5934
 5210SOL    HW216330   7.584   5.303   4.057  0.3004 -0.9612 -0.3440
 5211SOL     OW16331   3.892   5.587   7.386  0.4494 -0.3427  0.1138
 5211SOL    HW116332   3.797   5.600   7.392  0.5147 -0.2996  1.3521
 5211SOL    HW216333   3.905   5.495   7.409  0.7265 -0.2887  0.1743
 5212SOL     OW16334   1.984   1.793   7.390 -0.1286  0.1522 -0.6194
 5212SOL    HW116335   1.919   1.817   7.325 -1.5357  0.5548  0.8800
 5212SOL    HW216336   2.019   1.709   7.359 -1.2538  0.0004 -1.5358
 5213SOL     OW16337   6.149   4.247   5.597 -0.3087 -0.6833 -0.8362
 5213SOL    HW116338   6.140   4.212   5.509 -2.1823  0.0210 -0.9798
 5213SOL    HW216339   6.066   4.223   5.640  1.5039 -3.2801  1.6058
 5214SOL     OW16340   3.472   0.039   0.193  0.5162  0.2284 -0.2258
 5214SOL    HW116341   3.467   0.133   0.210 -0.8661  0.0830  0.3656
 5214SOL    HW216342   3.562   0.015   0.213  1.4587  1.7464 -2.2672
 5215SOL     OW16343   5.162   6.873   2.710  0.5078 -0.1372  0.5537
 5215SOL    HW116344   5.175   6.931   2.635 -2.0837 -1.3042 -0.9361
 5215SOL    HW216345   5.184   6.786   2.678 -1.8311 -0.8405  0.6419
 5216SOL     OW16346   7.742   3.622   7.017  0.4112  0.8238  0.2975
 5216SOL    HW116347   7.736   3.609   6.922 -0.0446 -4.5063  0.7681
 5216SOL    HW216348   7.835   3.627   7.035  0.5909  0.0869 -0.3523
 5217SOL     OW16349   1.362   0.508   5.401 -0.1062  0.2086 -0.1283
 5217SOL    HW116350   1.379   0.503   5.495 -1.7336  0.6315  0.2266
 5217SOL    HW216351   1.273   0.473   5.391 -0.5512  1.5456 -1.2914
 5218SOL     OW16352   1.497   7.159   3.352  0.4701  0.0804  0.4277
 5218SOL    HW116353   1.517   7.232   3.292 -0.1726  0.0787  0.2000
 5218SOL    HW216354   1.565   7.094   3.334  0.7543  0.4171  0.2701
 5219SOL     OW16355   6.073   1.248   1.979 -0.1697  0.0067 -0.0616
 5219SOL    HW116356   6.071   1.182   2.049  1.0587 -1.4167 -1.2929
 5219SOL    HW216357   6.152   1.299   1.996 -0.4887  0.4003  0.2349
 5220SOL     OW16358   5.454   6.505   5.334 -0.5683 -0.7204 -0.1732
 5220SOL    HW116359   5.549   6.515   5.334 -0.4773 -1.3929 -1.2458
 5220SOL    HW216360   5.440   6.410   5.328 -1.3236 -0.7240  1.2941
 5221SOL     OW16361   0.428   7.673   4.648  0.1427 -0.0952  0.5620
 5221SOL    HW116362   0.404   7.746   4.591 -1.3223  0.1191  1.3979
 5221SOL    HW216363   0.522   7.683   4.662  0.1679  0.9565 -0.2667
 5222SOL     OW16364   4.332   1.412   5.795  0.1546 -0.1133 -0.0519
 5222SOL    HW116365   4.296   1.330   5.761  0.8828 -0.3090 -0.3711
 5222SOL    HW216366   4.328   1.473   5.721 -0.6076  0.2146  0.2542
 5223SOL     OW16367   7.490   2.614   2.419 -0.5965  0.4192  0.1068
 5223SOL    HW116368   7.528   2.539   2.373 -0.1741 -0.5356  1.9127
 5223SOL    HW216369   7.400   2.619   2.388 -0.5326 -0.6418 -0.2716
 5224SOL     OW16370   4.953   5.706   5.736  0.2084 -0.1252  0.1858
 5224SOL    HW116371   5.006   5.739   5.809 -0.9132  2.5040 -0.0564
 5224SOL    HW216372   4.871   5.679   5.778  0.7116 -1.6460  0.2367
 5225SOL     OW16373   3.704   7.852   1.427  0.1579 -0.4833  0.7782
 5225SOL    HW116374   3.650   7.811   1.359  0.4568  0.2559  0.0808
 5225SOL    HW216375   3.765   7.908   1.379  1.4406 -1.1542  1.5577
 5226SOL     OW16376   1.324   3.441   0.018  0.4210  0.5534 -0.5888
 5226SOL    HW116377   1.351   3.388  -0.057  1.7458 -1.0442  0.9226
 5226SOL    HW216378   1.289   3.378   0.081  1.3867  1.5141  0.9862
 5227SOL     OW16379   6.632   6.035   2.254 -0.0959 -0.1653 -0.1110
 5227SOL    HW116380   6.650   6.122   2.290  0.2080  0.0514 -0.7621
 5227SOL    HW216381   6.543   6.015   2.282 -0.1330  0.3155  0.1213
 5228SOL     OW16382   1.988   2.537   2.511  0.2732 -0.1164  0.1233
 5228SOL    HW116383   2.005   2.541   2.605  0.8786  1.8949 -0.0200
 5228SOL    HW216384   2.070   2.506   2.473 -0.0522 -1.1714  0.2614
 5229SOL     OW16385   2.569   7.905   6.558  0.2239 -0.0654 -0.1534
 5229SOL    HW116386   2.592   7.940   6.644  0.9149 -1.0693  0.0761
 5229SOL    HW216387   2.477   7.929   6.546 -0.1123 -0.6202  1.2209
 5230SOL     OW16388   6.042   0.207   1.431  0.1161 -0.3078 -0.3214
 5230SOL    HW116389   6.062   0.260   1.354  1.5802  0.7665  0.7384
 5230SOL    HW216390   6.124   0.205   1.480 -0.7127 -1.1832  1.0836
 5231SOL     OW16391   1.607   4.758   3.284 -0.7771  0.8974 -0.0199
 5231SOL    HW116392   1.686   4.765   3.230 -1.0248 -1.0902 -0.7351
 5231SOL    HW216393   1.566   4.844   3.279  0.5156  1.4799 -0.9671
 5232SOL     OW16394   4.719   4.736   5.144 -0.7020  0.0711 -0.7558
 5232SOL    HW116395   4.764   4.699   5.068  0.1428 -1.5085  0.4652
 5232SOL    HW216396   4.784   4.736   5.213 -1.7375  0.5796  0.2555
 5233SOL     OW16397   1.362   1.143   7.376 -0.1156  0.0217 -0.1847
 5233SOL    HW116398   1.367   1.215   7.439 -1.0765 -0.5953  0.6352
 5233SOL    HW216399   1.303   1.175   7.307  0.1604  0.3388 -0.2727
 5234SOL     OW16400   7.446   3.258   2.923  0.5747  0.3971  0.7994
 5234SOL    HW116401   7.494   3.221   2.848 -1.5187 -0.7828 -0.0370
 5234SOL    HW216402   7.497   3.336   2.947  0.5163  1.7972 -2.9005
 5235SOL     OW16403   1.547   7.833   0.846  0.2819 -0.3725  0.3794
 5235SOL    HW116404   1.487   7.759   0.849 -1.0763  0.3923 -3.0713
 5235SOL    HW216405   1.634   7.793   0.842 -0.1660 -1.6177  2.1399
 5236SOL     OW16406   3.635   1.038   2.443 -0.1640 -0.5338 -0.3862
 5236SOL    HW116407   3.616   1.066   2.532  2.0629 -1.7241  0.5455
 5236SOL    HW216408   3.710   0.980   2.451  1.9239  1.4552 -3.3175
 5237SOL     OW16409   2.374   3.103   4.243  0.0489  0.4078 -0.1156
 5237SOL    HW116410   2.293   3.151   4.226  0.5853  1.4834  0.3012
 5237SOL    HW216411   2.390   3.114   4.336 -0.7852 -2.1716  0.4160
 5238SOL     OW16412   0.808   0.056   1.948  0.1908  0.4036 -0.1204
 5238SOL    HW116413   0.808  -0.027   1.997 -1.3324 -1.0878 -2.4370
 5238SOL    HW216414   0.768   0.119   2.008  1.0132 -0.5814  1.5551
 5239SOL     OW16415   3.013   4.103   4.728 -0.2204 -0.3697 -0.1981
 5239SOL    HW116416   3.058   4.097   4.813 -0.5315 -2.5735 -0.1312
 5239SOL    HW216417   2.921   4.086   4.749 -0.3621 -0.5070 -0.9114
 5240SOL     OW16418   7.188   4.333   3.929 -0.3384  0.2028  0.4193
 5240SOL    HW116419   7.130   4.266   3.965  0.1594 -0.3378  0.2298
 5240SOL    HW216420   7.143   4.363   3.849 -0.0195 -0.7484 -0.1345
 5241SOL     OW16421   3.862   1.044   0.209  0.4714  0.4575 -0.4805
 5241SOL    HW116422   3.938   1.077   0.257  0.8990  1.1767 -1.6048
 5241SOL    HW216423   3.821   0.982   0.269  0.9640  1.3351  0.8068
 5242SOL     OW16424   7.744   0.514   7.078 -0.1085  0.1799  0.2077
 5242SOL    HW116425   7.687   0.571   7.025 -1.4954 -0.8367  0.5466
 5242SOL    HW216426   7.755   0.562   7.160 -0.8836  0.1746  0.3220
 5243SOL     OW16427   6.872   3.388   7.530  0.0771 -0.4036  0.2397
 5243SOL    HW116428   6.836   3.389   7.618 -2.6177 -3.2366 -0.6592
 5243SOL    HW216429   6.841   3.469   7.490  0.8914  0.6464  1.6420
 5244SOL     OW16430   4.536   7.677   4.362 -0.1142  0.5875  0.1680
 5244SOL    HW116431   4.474   7.624   4.412 -1.5345  1.3730 -0.7064
 5244SOL    HW216432   4.515   7.658   4.270 -0.3783  2.3065 -0.1643
 5245SOL     OW16433   5.277   1.507   1.787 -0.2787  0.0219  0.5650
 5245SOL    HW116434   5.231   1.584   1.755  0.2053 -0.7164 -2.0972
 5245SOL    HW216435   5.273   1.516   1.883 -2.5814  1.9020  0.3977
 5246SOL     OW16436   2.848   1.773   4.064 -0.1973 -0.2437 -0.2016
 5246SOL    HW116437   2.882   1.818   3.987  1.1405  0.3271  0.6846
 5246SOL    HW216438   2.803   1.841   4.114 -2.1870 -0.8584 -1.0330
 5247SOL     OW16439   0.149   5.948   1.731  0.6451  0.1412  0.5265
 5247SOL    HW116440   0.128   5.943   1.825 -0.5908  1.0363  0.3271
 5247SOL    HW216441   0.189   5.864   1.711  0.0468 -0.4443  1.6615
 5248SOL     OW16442   2.938   7.589   2.434 -0.2526 -0.4815  0.0993
 5248SOL    HW116443   2.986   7.638   2.501  0.5198 -2.5750  1.1819
 5248SOL    HW216444   2.847   7.591   2.463  0.0056 -0.9630  0.9796
 5249SOL     OW16445   2.836   3.191   6.489  0.3865  0.1219  0.4150
 5249SOL    HW116446   2.864   3.268   6.539  0.5394  0.5439 -0.3017
 5249SOL    HW216447   2.917   3.156   6.452  0.4178 -0.8564  1.3777
 5250SOL     OW16448   6.200   7.021   6.406 -0.0343  0.0254 -0.0198
 5250SOL    HW116449   6.185   6.968   6.328 -1.3518 -0.8717  0.8014
 5250SOL    HW216450   6.202   7.111   6.375  0.0151 -0.3550 -1.1422
 5251SOL     OW16451   6.131   2.909   6.084 -0.4368 -0.3759 -0.1367
 5251SOL    HW116452   6.103   2.866   6.003 -0.6749 -1.8844  0.7164
 5251SOL    HW216453   6.066   2.884   6.149 -0.2090  0.7642  0.5671
 5252SOL     OW16454   5.287   4.617   6.130  0.2021 -0.7760 -0.0425
 5252SOL    HW116455   5.247   4.636   6.046  0.3822  0.4557  0.1250
 5252SOL    HW216456   5.218   4.635   6.194 -0.0904 -2.1838  0.0630
 5253SOL     OW16457   1.004   2.654   2.536 -0.3689 -0.0776 -0.3736
 5253SOL    HW116458   0.997   2.560   2.553  1.2610 -0.1338  0.1781
 5253SOL    HW216459   1.012   2.693   2.623  2.1474  0.2307 -0.6800
 5254SOL     OW16460   4.745   5.040   4.824  0.3119 -0.2348 -0.8002
 5254SOL    HW116461   4.720   4.951   4.800  1.7599 -0.4513 -1.6682
 5254SOL    HW216462   4.668   5.077   4.866 -1.4011 -0.8556 -3.1946
 5255SOL     OW16463   7.889   2.656   6.130 -0.3339 -0.3929 -0.7480
 5255SOL    HW116464   7.984   2.642   6.126 -0.2727 -0.7923  1.3631
 5255SOL    HW216465   7.874   2.733   6.075  1.4262  0.5857  0.0564
 5256SOL     OW16466   3.620   5.258   4.590  0.0550  0.7262  0.5530
 5256SOL    HW116467   3.606   5.348   4.561  0.8316  0.9592  0.8995
 5256SOL    HW216468   3.531   5.222   4.599 -0.2349  1.1765 -0.4316
 5257SOL     OW16469   0.869   5.326   2.222  0.0422  0.3657  0.4242
 5257SOL    HW116470   0.904   5.387   2.287 -0.2176 -1.2431  2.1593
 5257SOL    HW216471   0.946   5.293   2.176  0.4724 -0.2242  1.5338
 5258SOL     OW16472   2.345   1.150   5.474  0.5761  0.2107  0.0330
 5258SOL    HW116473   2.314   1.209   5.405  0.8149 -1.2089 -1.3312
 5258SOL    HW216474   2.391   1.208   5.535 -2.8134  2.0920  1.0515
 5259SOL     OW16475   4.595   6.371   7.094  0.1678 -0.5663 -0.7777
 5259SOL    HW116476   4.604   6.408   7.182  0.5628 -1.7538 -0.2902
 5259SOL    HW216477   4.681   6.333   7.075 -0.0786 -0.8114 -1.4464
 5260SOL     OW16478   5.425   2.422   6.395  0.3170 -0.3768  0.6369
 5260SOL    HW116479   5.469   2.381   6.320 -0.5084  2.8942 -1.8892
 5260SOL    HW216480   5.334   2.432   6.367  0.2361  2.0164  1.5620
 5261SOL     OW16481   3.015   6.673   6.928  0.2512 -0.1644  0.0254
 5261SOL    HW116482   3.055   6.646   7.011  0.7662  0.3876 -0.0356
 5261SOL    HW216483   2.924   6.643   6.933  0.4815 -0.7903  0.4754
 5262SOL     OW16484   5.117   7.118   5.338  0.0040  0.0204 -0.2986
 5262SOL    HW116485   5.147   7.153   5.254 -1.6494  0.1875 -0.8701
 5262SOL    HW216486   5.163   7.034   5.346 -1.4046 -1.0880 -2.5055
 5263SOL     OW16487   0.632   5.918   3.956  0.2193  0.0341  0.3682
 5263SOL    HW116488   0.542   5.890   3.945 -0.2886  1.5837  0.3082
 5263SOL    HW216489   0.668   5.922   3.867 -0.3973  1.6648  0.1656
 5264SOL     OW16490   6.519   1.035   7.277 -0.1637  0.5476  0.4453
 5264SOL    HW116491   6.534   0.985   7.197 -0.5946  0.6706  0.2847
 5264SOL    HW216492   6.432   1.071   7.267  0.3909  1.8788  0.2750
 5265SOL     OW16493   7.245   1.941   6.443  0.1691  0.7498  0.0775
 5265SOL    HW116494   7.254   1.931   6.348  1.9213  0.1148  0.2696
 5265SOL    HW216495   7.151   1.937   6.459 -0.2089  1.6310 -1.7081
 5266SOL     OW16496   6.373   0.664   3.831  0.0377 -0.2704  1.1913
 5266SOL    HW116497   6.434   0.636   3.899  0.1153 -2.2979  0.3374
 5266SOL    HW216498   6.336   0.583   3.796 -3.2010  0.8577  1.6716
 5267SOL     OW16499   4.451   3.649   1.606  0.2048  0.2662 -0.0170
 5267SOL    HW116500   4.460   3.571   1.660  2.0366  0.2071 -0.3340
 5267SOL    HW216501   4.380   3.629   1.546  0.9444 -1.3773 -0.4017
 5268SOL     OW16502   2.296   7.008   3.472 -0.0921 -0.6739  0.0248
 5268SOL    HW116503   2.320   6.952   3.399 -1.4998 -2.0422  0.5493
 5268SOL    HW216504   2.360   6.989   3.541  2.9972  2.6335 -1.6025
 5269SOL     OW16505   0.746   3.683   1.311 -0.6490  0.8708 -0.4678
 5269SOL    HW116506   0.711   3.601   1.277 -1.2260  1.2154 -0.7219
 5269SOL    HW216507   0.812   3.656   1.375 -1.6403  0.2008  0.3110
 5270SOL     OW16508   3.355   1.131   5.023  0.7250  0.2057 -0.9596
 5270SOL    HW116509   3.416   1.168   4.960  2.0574  0.2723  0.3247
 5270SOL    HW216510   3.391   1.154   5.109 -1.8029  1.4320 -0.1075
 5271SOL     OW16511   3.200   3.496   3.889  0.5564  0.5018 -0.2050
 5271SOL    HW116512   3.262   3.527   3.954 -0.5725 -0.5330  1.4621
 5271SOL    HW216513   3.207   3.558   3.816  1.0424  2.4042  1.3798
 5272SOL     OW16514   1.459   3.202   2.009 -0.1370 -0.0263 -0.8339
 5272SOL    HW116515   1.453   3.265   1.937  0.3889  2.6532  1.2919
 5272SOL    HW216516   1.408   3.241   2.080  0.8152 -1.6479  0.8378
 5273SOL     OW16517   7.642   5.873   6.291  0.4584  0.2886  0.4488
 5273SOL    HW116518   7.566   5.853   6.346  0.0447 -0.8349 -0.4772
 5273SOL    HW216519   7.606   5.923   6.218  0.8861  1.1382  0.8057
 5274SOL     OW16520   6.218   5.457   7.509  0.1391  0.1324  0.4920
 5274SOL    HW116521   6.293   5.421   7.461 -0.2640 -0.0602  0.0005
 5274SOL    HW216522   6.149   5.466   7.443  0.0807  1.3781  0.7045
 5275SOL     OW16523   5.868   7.325   5.098 -0.4967 -0.3292  0.0279
 5275SOL    HW116524   5.884   7.417   5.120  0.7841 -0.4297 -0.3876
 5275SOL    HW216525   5.955   7.286   5.094 -0.9328 -1.2626 -1.0894
 5276SOL     OW16526   1.009   0.646   5.825  0.0328  0.2845 -0.1758
 5276SOL    HW116527   0.949   0.595   5.880 -0.8913  0.0541 -1.3640
 5276SOL    HW216528   0.960   0.724   5.800  1.1538  1.4061  0.9452
 5277SOL     OW16529   2.060   7.262   3.330 -0.3604 -0.0078  0.3961
 5277SOL    HW116530   2.155   7.271   3.321 -0.2679 -0.0122  1.3575
 5277SOL    HW216531   2.044   7.168   3.315 -0.2704  0.0574 -0.1571
 5278SOL     OW16532   0.004   2.804   7.322 -0.0957  0.3117  0.2516
 5278SOL    HW116533   0.003   2.793   7.227  0.7129  1.6129  0.0694
 5278SOL    HW216534  -0.060   2.740   7.354  0.8089 -1.3139 -1.0182
 5279SOL     OW16535   1.502   5.361   3.406 -0.0237 -0.2826  0.5928
 5279SOL    HW116536   1.574   5.323   3.457  0.7833  0.7924  0.2890
 5279SOL    HW216537   1.433   5.377   3.470  0.0793 -1.1427  0.9244
 5280SOL     OW16538   2.042   2.775   6.674 -0.6154  0.6773  0.3824
 5280SOL    HW116539   2.054   2.735   6.760  1.8802  0.4378  0.0007
 5280SOL    HW216540   2.071   2.866   6.686 -0.5802  0.7371 -0.1417
 5281SOL     OW16541   5.203   3.294   5.855  0.0327 -0.5113  0.1483
 5281SOL    HW116542   5.112   3.316   5.833  0.0042 -1.4509 -0.7239
 5281SOL    HW216543   5.245   3.379   5.870 -0.7211 -0.0022 -0.5137
 5282SOL     OW16544   7.952   7.586   7.618  0.2434 -0.0585  0.3793
 5282SOL    HW116545   7.962   7.546   7.532  2.1683  1.1392 -0.0106
 5282SOL    HW216546   7.859   7.608   7.624  0.0558 -0.2448 -1.3539
 5283SOL     OW16547   4.429   3.216   2.850 -0.3537 -0.2780  0.1368
 5283SOL    HW116548   4.470   3.131   2.864 -0.5200 -0.3770  0.0204
 5283SOL    HW216549   4.406   3.246   2.937 -0.5753 -0.4919  0.1531
 5284SOL     OW16550   5.919   7.774   6.929  0.7199  0.3937  0.2478
 5284SOL    HW116551   5.925   7.860   6.887  0.4600  0.1596 -0.2663
 5284SOL    HW216552   6.010   7.748   6.943  0.9490 -0.6455 -2.4786
 5285SOL     OW16553   1.712   5.451   7.877 -0.3695  0.2716 -0.4055
 5285SOL    HW116554   1.801   5.431   7.904 -0.1998  0.8642 -0.5308
 5285SOL    HW216555   1.690   5.382   7.815 -0.2837 -0.3287  0.2172
 5286SOL     OW16556   2.604   5.104   5.996 -0.4950 -0.6095  0.4999
 5286SOL    HW116557   2.695   5.075   6.000 -0.4042 -0.2664  1.3310
 5286SOL    HW216558   2.567   5.062   5.919 -0.0926 -2.0879  1.0883
 5287SOL     OW16559   0.191   4.216   3.927 -0.0856  0.3735 -0.0758
 5287SOL    HW116560   0.148   4.282   3.982 -0.6477  2.0937 -2.4106
 5287SOL    HW216561   0.121   4.155   3.904 -0.0509  0.1505  0.4047
 5288SOL     OW16562   2.811   6.789   6.053 -0.1922 -0.0883  0.0378
 5288SOL    HW116563   2.720   6.785   6.023  0.0086 -2.0246 -0.4383
 5288SOL    HW216564   2.862   6.751   5.981  0.8862  0.1084  0.6763
 5289SOL     OW16565   5.550   2.430   1.550  0.1255 -0.3911 -1.0769
 5289SOL    HW116566   5.585   2.487   1.481 -0.0789  0.3367 -0.5929
 5289SOL    HW216567   5.472   2.391   1.511  0.1329 -0.1593 -1.3317
 5290SOL     OW16568   7.392   1.134   4.991 -0.1560 -0.5585  0.3385
 5290SOL    HW116569   7.458   1.122   5.059 -0.7419 -0.5770  0.9099
 5290SOL    HW216570   7.425   1.083   4.917  0.2525 -0.9351  0.7717
 5291SOL     OW16571   3.953   4.669   0.685  0.1897  0.2604 -0.3582
 5291SOL    HW116572   4.011   4.705   0.752  0.0636 -0.6445  0.2500
 5291SOL    HW216573   3.874   4.724   0.690  0.5739  0.8407 -0.4825
 5292SOL     OW16574   0.031   4.773   0.215  0.6452 -0.0101  0.2187
 5292SOL    HW116575   0.013   4.679   0.214 -1.5019  0.3394 -0.6333
 5292SOL    HW216576   0.116   4.782   0.171 -0.2544 -1.3972 -1.9901
 5293SOL     OW16577   3.338   3.826   4.922 -0.8947 -0.2820  0.0745
 5293SOL    HW116578   3.246   3.852   4.922 -1.3234 -1.2520 -3.6800
 5293SOL    HW216579   3.338   3.739   4.961 -1.6167 -0.3818 -0.1261
 5294SOL     OW16580   2.336   3.938   2.631  0.3705 -1.0152  0.1274
 5294SOL    HW116581   2.288   4.019   2.650 -0.0507 -1.3440  0.4963
 5294SOL    HW216582   2.374   3.953   2.545  1.4229  0.0938  0.7593
 5295SOL     OW16583   6.838   0.927   2.792  0.0141  0.1083  0.2798
 5295SOL    HW116584   6.848   0.905   2.884  0.6182  0.6320  0.3497
 5295SOL    HW216585   6.924   0.908   2.753 -0.3330 -0.4197 -0.2460
 5296SOL     OW16586   5.625   6.706   5.085 -0.3270 -0.3949  0.4964
 5296SOL    HW116587   5.702   6.651   5.098  0.1731 -0.1594 -1.1863
 5296SOL    HW216588   5.659   6.795   5.090 -0.5909 -0.2841  0.2867
 5297SOL     OW16589   1.749   1.175   5.062  0.1819 -0.6789  0.1635
 5297SOL    HW116590   1.751   1.212   5.150 -0.2707 -0.5026  0.0989
 5297SOL    HW216591   1.840   1.150   5.045  0.2863 -0.6374  0.6461
 5298SOL     OW16592   2.480   7.133   7.308  0.7273  0.4145  0.2073
 5298SOL    HW116593   2.561   7.083   7.317 -0.3681 -1.4691  0.1514
 5298SOL    HW216594   2.447   7.109   7.221  1.5838  3.5567 -1.1408
 5299SOL     OW16595   5.945   2.640   5.164 -0.0742 -0.4231 -0.3118
 5299SOL    HW116596   6.002   2.700   5.116  1.0674 -0.4138  0.9974
 5299SOL    HW216597   5.866   2.692   5.182 -0.3699 -0.3107 -1.7768
 5300SOL     OW16598   0.762   0.076   4.047 -0.1380  0.3994 -0.5687
 5300SOL    HW116599   0.794   0.134   3.977 -0.3486  1.1446 -0.0667
 5300SOL    HW216600   0.753  -0.009   4.005  2.1589  0.2152 -0.8311
 5301SOL     OW16601   6.309   1.312   6.001  0.2380 -0.1468 -0.4515
 5301SOL    HW116602   6.373   1.273   5.942  1.6218 -1.4111  1.7623
 5301SOL    HW216603   6.335   1.282   6.089 -2.5394  0.4921  0.6926
 5302SOL     OW16604   4.665   2.725   6.645 -0.3149  0.6711  0.4763
 5302SOL    HW116605   4.700   2.749   6.559  0.2000  2.1712  1.0726
 5302SOL    HW216606   4.732   2.669   6.684 -0.1599  0.6995  0.2514
 5303SOL     OW16607   6.936   5.736   6.426  0.4842  0.0918 -0.0872
 5303SOL    HW116608   6.907   5.823   6.454  0.1851  0.2161 -0.7690
 5303SOL    HW216609   6.928   5.737   6.331  0.3764 -0.7175 -0.0943
 5304SOL     OW16610   5.100   3.841   7.407  0.1023 -0.2433  0.2882
 5304SOL    HW116611   5.019   3.829   7.456 -0.9599  0.7992 -1.1408
 5304SOL    HW216612   5.169   3.823   7.471 -1.1083  3.3973  2.9606
 5305SOL     OW16613   3.070   6.327   6.565  0.5607 -0.2217 -0.2252
 5305SOL    HW116614   2.976   6.308   6.569  0.1499  1.7414  2.7641
 5305SOL    HW216615   3.113   6.243   6.581 -0.6607 -1.0356 -1.0256
 5306SOL     OW16616   5.426   3.026   7.807 -0.3653 -0.8308 -0.2048
 5306SOL    HW116617   5.437   3.099   7.868  0.3660  1.4629 -2.8542
 5306SOL    HW216618   5.504   2.972   7.821  0.7327  0.6446 -0.3102
 5307SOL     OW16619   6.189   4.255   1.695  0.1250  0.0874  0.6809
 5307SOL    HW116620   6.105   4.278   1.735 -0.3034  0.3594 -0.3585
 5307SOL    HW216621   6.244   4.231   1.770 -0.6752  0.5112  1.4371
 5308SOL     OW16622   4.590   4.835   4.725 -0.1112  0.1510  1.0636
 5308SOL    HW116623   4.518   4.896   4.710 -1.5368 -2.0218 -2.0280
 5308SOL    HW216624   4.552   4.749   4.709  2.4878 -1.3653  2.4237
 5309SOL     OW16625   3.466   0.744   0.752 -0.3434 -0.3709 -0.5320
 5309SOL    HW116626   3.445   0.655   0.724 -2.7152  0.0258 -0.2941
 5309SOL    HW216627   3.408   0.800   0.700  0.9663  1.0478 -0.5579
 5310SOL     OW16628   7.266   4.079   6.283  0.5096 -0.2434 -0.1177
 5310SOL    HW116629   7.206   4.102   6.212 -0.0304  0.1133  0.4417
 5310SOL    HW216630   7.218   4.102   6.363  0.8685 -1.2073  0.3862
 5311SOL     OW16631   3.616   4.807   3.393  0.1603  0.6732  0.2736
 5311SOL    HW116632   3.603   4.902   3.396 -0.2768  0.6566 -0.6413
 5311SOL    HW216633   3.625   4.788   3.299  2.0770  0.0466  0.5374
 5312SOL     OW16634   4.992   1.983   0.925 -0.6806 -0.5206  0.3868
 5312SOL    HW116635   5.003   2.078   0.919 -0.3160 -0.5165  1.0902
 5312SOL    HW216636   5.054   1.948   0.861 -1.1729 -0.2796 -0.2420
 5313SOL     OW16637   7.337   0.465   4.416  0.0489 -0.2767 -0.0046
 5313SOL    HW116638   7.409   0.503   4.466 -0.7594  1.5091 -0.1198
 5313SOL    HW216639   7.379   0.424   4.340  0.8774  2.7691 -1.3512
 5314SOL     OW16640   1.969   5.160   7.478  0.0096  0.7207 -0.8257
 5314SOL    HW116641   1.979   5.182   7.386 -0.9035  0.4941 -0.9809
 5314SOL    HW216642   2.057   5.173   7.515  0.2623  1.2973 -1.6116
 5315SOL     OW16643   0.957   0.911   6.095 -0.6085 -0.0529 -0.2569
 5315SOL    HW116644   0.875   0.861   6.094 -0.1784 -0.8566  1.3877
 5315SOL    HW216645   1.024   0.846   6.117 -0.0784  1.2311  2.3120
 5316SOL     OW16646   6.403   6.258   6.597 -0.3765  0.5242 -0.1794
 5316SOL    HW116647   6.355   6.214   6.667 -0.3250 -1.0201 -1.0635
 5316SOL    HW216648   6.483   6.289   6.638 -0.8286  0.5814  0.6817
 5317SOL     OW16649   3.228   2.541   6.884  0.5099 -0.4869 -0.2855
 5317SOL    HW116650   3.210   2.542   6.790  1.2523 -0.2792 -0.4298
 5317SOL    HW216651   3.174   2.612   6.919  0.2866 -0.5170 -0.5662
 5318SOL     OW16652   1.057   5.418   1.063 -0.0541 -0.6274  0.3181
 5318SOL    HW116653   1.053   5.362   0.985 -0.4989  0.6893 -0.6438
 5318SOL    HW216654   1.021   5.363   1.133 -1.8738 -1.0900 -0.8833
 5319SOL     OW16655   7.724   4.919   4.588 -0.4512 -0.0129 -0.5172
 5319SOL    HW116656   7.737   4.904   4.682  0.0094 -0.9187 -0.7238
 5319SOL    HW216657   7.689   5.008   4.584  1.9103  1.0683  0.3575
 5320SOL     OW16658   5.799   7.533   5.982 -0.0640 -0.1999  0.3072
 5320SOL    HW116659   5.861   7.592   5.939  0.8863 -0.4446  1.2931
 5320SOL    HW216660   5.752   7.589   6.044  0.6963 -0.4108  1.0971
 5321SOL     OW16661   4.688   6.292   0.665 -0.3268 -0.2947  0.5644
 5321SOL    HW116662   4.691   6.313   0.758  0.0220  0.8865  0.3173
 5321SOL    HW216663   4.774   6.255   0.646 -1.2740 -3.0151  1.2004
 5322SOL     OW16664   0.402   7.360   1.767 -0.2097 -0.0663  0.1966
 5322SOL    HW116665   0.385   7.301   1.841  1.3376 -0.9053 -0.0768
 5322SOL    HW216666   0.468   7.421   1.800 -0.0464  0.0136 -0.2696
 5323SOL     OW16667   3.502   2.811   7.530 -0.5265 -0.0644  0.4385
 5323SOL    HW116668   3.472   2.720   7.533 -0.4288 -0.0739  1.1121
 5323SOL    HW216669   3.533   2.830   7.618  1.5077 -0.0499 -0.2447
 5324SOL     OW16670   6.121   0.171   0.394 -0.2282 -0.4726 -0.5182
 5324SOL    HW116671   6.205   0.147   0.357  0.1467 -0.2874  0.1829
 5324SOL    HW216672   6.103   0.258   0.358  0.6385  0.1638  0.5164
 5325SOL     OW16673   5.232   3.098   0.178 -0.3570  0.4505  0.3918
 5325SOL    HW116674   5.322   3.115   0.153  0.1374  0.4712  2.0828
 5325SOL    HW216675   5.213   3.010   0.145  0.8275 -0.2128  1.4181
 5326SOL     OW16676   1.904   0.516   3.762  0.4790  0.4883 -0.1546
 5326SOL    HW116677   1.907   0.595   3.816  2.9210  0.1877  0.2856
 5326SOL    HW216678   1.875   0.546   3.676 -1.2216  1.3635  0.6747
 5327SOL     OW16679   3.612   3.216   0.764 -0.1840  0.6784 -0.3486
 5327SOL    HW116680   3.696   3.206   0.809  0.4814  0.4429 -1.6163
 5327SOL    HW216681   3.551   3.165   0.817  0.8135 -0.5070 -0.2945
 5328SOL     OW16682   2.677   5.687   3.920  0.3934 -0.7152  0.2894
 5328SOL    HW116683   2.696   5.780   3.927  0.8153 -0.8830  1.5912
 5328SOL    HW216684   2.720   5.660   3.839 -0.7760  0.4453 -0.7762
 5329SOL     OW16685   7.463   7.915   3.227  0.6854  0.2410 -0.6929
 5329SOL    HW116686   7.511   7.997   3.240  1.9650 -0.4483 -0.9108
 5329SOL    HW216687   7.522   7.847   3.259 -0.1490 -0.6444 -0.9862
 5330SOL     OW16688   1.000   7.351   3.767  0.2159  0.0034  0.7237
 5330SOL    HW116689   1.092   7.377   3.766  0.8402 -1.9737 -0.6201
 5330SOL    HW216690   0.963   7.391   3.688  0.4496 -0.7758  0.2055
 5331SOL     OW16691   6.080   3.136   4.972 -0.1373  0.2782  0.1107
 5331SOL    HW116692   6.011   3.148   5.038 -1.3207  2.3588 -1.3455
 5331SOL    HW216693   6.139   3.210   4.986  2.3651 -1.8655  1.8057
 5332SOL     OW16694   2.242   3.104   7.860  0.2947  0.4839  0.3129
 5332SOL    HW116695   2.263   3.193   7.888  0.0529  0.4033  0.7647
 5332SOL    HW216696   2.242   3.053   7.941  2.3623 -0.3287 -0.1270
 5333SOL     OW16697   3.584   1.603   3.555  0.3085  0.1225 -0.3278
 5333SOL    HW116698   3.548   1.525   3.597 -1.8606  0.4115 -1.4964
 5333SOL    HW216699   3.673   1.578   3.530  0.0014 -1.6276  0.2061
 5334SOL     OW16700   0.559   4.760   3.824  0.1780  0.0815 -0.1724
 5334SOL    HW116701   0.640   4.721   3.858 -0.6036 -1.9165 -0.4942
 5334SOL    HW216702   0.516   4.795   3.902 -0.4906 -2.3899  0.6530
 5335SOL     OW16703   4.867   2.315   3.837 -0.0564  0.1679 -0.2396
 5335SOL    HW116704   4.922   2.368   3.894 -0.1521  0.0208 -0.0104
 5335SOL    HW216705   4.921   2.300   3.759 -0.3894  1.4316 -0.7337
 5336SOL     OW16706   5.085   7.034   1.010 -0.0929 -0.2059 -0.0806
 5336SOL    HW116707   5.075   7.039   1.105 -1.4852  0.2950 -0.2334
 5336SOL    HW216708   5.122   6.947   0.995  2.0668  0.4476  1.0290
 5337SOL     OW16709   7.564   5.564   4.261  0.2961 -0.2667  0.1454
 5337SOL    HW116710   7.639   5.569   4.201 -1.2464  1.0056 -1.8238
 5337SOL    HW216711   7.597   5.598   4.344  2.0025 -0.1012 -0.5640
 5338SOL     OW16712   4.624   4.741   3.352  0.1005 -1.0965 -0.1367
 5338SOL    HW116713   4.591   4.748   3.262 -0.0741 -1.8851 -0.1412
 5338SOL    HW216714   4.719   4.734   3.342  0.5968  2.9815 -0.0496
 5339SOL     OW16715   3.725   7.047   5.961 -0.1346  0.1109 -0.4238
 5339SOL    HW116716   3.666   7.004   6.023  2.5539 -1.6852  1.0982
 5339SOL    HW216717   3.779   7.104   6.016  2.1051 -1.2741 -1.0847
 5340SOL     OW16718   5.437   5.203   5.563  0.2383 -0.2861 -0.2935
 5340SOL    HW116719   5.398   5.267   5.622 -0.4979 -1.9573  1.1434
 5340SOL    HW216720   5.380   5.203   5.487 -0.1197  0.2967 -0.0310
 5341SOL     OW16721   2.132   2.978   0.105  0.2036  0.3547  0.1145
 5341SOL    HW116722   2.135   2.890   0.142 -1.9405  0.1494 -0.1012
 5341SOL    HW216723   2.122   3.036   0.180  2.1401  0.5231  0.3061
 5342SOL     OW16724   3.257   3.119   4.734 -0.0071  0.3187 -0.3140
 5342SOL    HW116725   3.257   3.190   4.799 -0.7846  1.3750 -1.4274
 5342SOL    HW216726   3.219   3.158   4.656 -0.8379 -1.4531 -0.8450
 5343SOL     OW16727   5.386   7.109   5.698 -0.2663  0.5432  0.0430
 5343SOL    HW116728   5.463   7.164   5.686  0.1699  0.1994  1.1287
 5343SOL    HW216729   5.402   7.033   5.643 -0.2045  0.8285 -0.3408
 5344SOL     OW16730   1.377   5.262   4.883  0.1948 -0.8952  0.2302
 5344SOL    HW116731   1.442   5.333   4.878  0.2757 -1.0105 -0.6043
 5344SOL    HW216732   1.422   5.193   4.930  1.0220 -1.2918 -1.0698
 5345SOL     OW16733   2.105   6.338   0.029  0.2686  0.0081 -0.0475
 5345SOL    HW116734   2.117   6.407   0.094 -0.2302 -0.4541  0.5502
 5345SOL    HW216735   2.193   6.321  -0.006  0.2234  1.8574 -1.1713
 5346SOL     OW16736   1.209   2.688   5.398 -0.4216 -0.0080  0.0704
 5346SOL    HW116737   1.145   2.667   5.466 -1.0009 -1.0103 -0.7563
 5346SOL    HW216738   1.294   2.665   5.438 -0.5373  1.4298  1.2039
 5347SOL     OW16739   2.484   0.371   3.903 -0.4487 -0.2415  0.4706
 5347SOL    HW116740   2.509   0.440   3.842 -1.0950  0.5410  1.0638
 5347SOL    HW216741   2.565   0.347   3.947 -0.0635 -0.4813 -0.3597
 5348SOL     OW16742   4.172   3.111   6.193  0.1051  1.0061 -0.2013
 5348SOL    HW116743   4.148   3.036   6.139 -1.5700  0.9918  0.4876
 5348SOL    HW216744   4.243   3.080   6.248 -1.0586 -0.3444  0.5941
 5349SOL     OW16745   5.525   3.205   2.627  0.2228  0.1426  0.5536
 5349SOL    HW116746   5.574   3.127   2.601 -0.4199  0.1422 -0.7378
 5349SOL    HW216747   5.523   3.259   2.548 -2.4723 -0.1884  0.3069
 5350SOL     OW16748   2.146   0.557   4.156 -0.7567 -0.0093 -0.0347
 5350SOL    HW116749   2.161   0.617   4.228  0.7854 -0.2710 -0.1148
 5350SOL    HW216750   2.072   0.594   4.108 -0.1172  1.5841  0.1671
 5351SOL     OW16751   2.366   5.898   0.310  0.3473  0.3850  0.1626
 5351SOL    HW116752   2.300   5.940   0.366  1.2292 -0.7639  2.1725
 5351SOL    HW216753   2.448   5.940   0.336  1.0468 -1.5012  1.2199
 5352SOL     OW16754   7.176   6.914   1.123 -0.3123 -0.5652 -0.6294
 5352SOL    HW116755   7.146   6.838   1.173 -1.5663  0.0190 -0.4567
 5352SOL    HW216756   7.261   6.888   1.089  0.1214 -1.3513  0.9768
 5353SOL     OW16757   0.584   4.380   3.135 -0.1533  0.5863  0.1893
 5353SOL    HW116758   0.544   4.336   3.059 -1.1440  0.6977  0.6352
 5353SOL    HW216759   0.631   4.310   3.181 -0.1055  0.3841 -0.1624
 5354SOL     OW16760   2.697   4.254   3.002  0.8876 -0.4601  0.1182
 5354SOL    HW116761   2.765   4.187   2.999  0.6056 -0.7234 -1.9017
 5354SOL    HW216762   2.643   4.238   2.925 -0.6468  0.6163  0.8951
 5355SOL     OW16763   4.320   4.431   5.801  0.2873  0.1946  0.1946
 5355SOL    HW116764   4.242   4.448   5.854 -0.0189 -0.2662 -0.0963
 5355SOL    HW216765   4.345   4.341   5.823 -0.7181 -0.5579 -1.4920
 5356SOL     OW16766   7.185   5.637   3.809 -0.6712  0.3847  0.3735
 5356SOL    HW116767   7.131   5.578   3.863  2.1049 -1.9014  0.9057
 5356SOL    HW216768   7.216   5.704   3.870  1.3496 -1.4199  1.5003
 5357SOL     OW16769   0.114   3.121   2.343  0.2685 -0.5509 -0.0339
 5357SOL    HW116770   0.067   3.194   2.303 -0.6481 -0.8460  0.4927
 5357SOL    HW216771   0.200   3.157   2.365  0.1455  0.1123 -0.5993
 5358SOL     OW16772   4.622   2.563   7.409 -0.1090  0.1359 -0.3445
 5358SOL    HW116773   4.609   2.596   7.498 -1.0207 -0.0617 -0.4002
 5358SOL    HW216774   4.699   2.506   7.416 -0.9156 -0.8760  0.5905
 5359SOL     OW16775   0.852   0.225   7.111  0.4477 -0.0707 -0.0078
 5359SOL    HW116776   0.939   0.185   7.112  1.2291  1.2749 -2.9150
 5359SOL    HW216777   0.799   0.168   7.167  2.4734 -2.6502 -0.4943
 5360SOL     OW16778   0.293   2.343   3.999 -0.3909 -0.3614 -0.0262
 5360SOL    HW116779   0.258   2.263   4.037 -0.1956  0.0841  1.1389
 5360SOL    HW216780   0.229   2.368   3.932 -0.0497 -1.9017 -0.9797
 5361SOL     OW16781   5.225   1.488   2.476  0.2093  0.2465  0.5737
 5361SOL    HW116782   5.160   1.420   2.493  1.1383 -0.8038  0.1577
 5361SOL    HW216783   5.308   1.439   2.468  1.0089  1.5044  0.8773
 5362SOL     OW16784   1.728   6.945   5.821 -0.6675  0.2814  0.1355
 5362SOL    HW116785   1.741   6.991   5.739 -0.8019  0.9124  0.4597
 5362SOL    HW216786   1.795   6.877   5.823 -0.1202  0.8196 -0.0998
 5363SOL     OW16787   7.953   1.816   6.004  0.2873  0.1139 -0.0877
 5363SOL    HW116788   7.939   1.786   5.914  1.5620  1.4169 -0.7600
 5363SOL    HW216789   8.012   1.751   6.042  0.0763 -0.2149 -0.3138
 5364SOL     OW16790   6.037   2.092   3.710 -0.6641 -0.4414  0.1305
 5364SOL    HW116791   6.052   2.032   3.784 -1.2111 -0.5835  0.1277
 5364SOL    HW216792   6.125   2.123   3.687 -0.3395 -1.4278 -0.0196
 5365SOL     OW16793   1.871   2.203   6.508 -0.0181  0.1075  0.2394
 5365SOL    HW116794   1.889   2.277   6.451  0.1831  0.4416  0.7335
 5365SOL    HW216795   1.873   2.127   6.450 -2.0549  0.6476 -0.6253
 5366SOL     OW16796   1.156   4.527   7.451 -0.4083 -0.2285 -0.1511
 5366SOL    HW116797   1.234   4.541   7.398  0.5869 -0.2254  1.2595
 5366SOL    HW216798   1.143   4.610   7.497 -0.7433 -0.5127  0.2695
 5367SOL     OW16799   1.452   1.879   5.087 -0.0228 -0.1426 -0.3566
 5367SOL    HW116800   1.380   1.919   5.137  0.8220  0.1537  0.6497
 5367SOL    HW216801   1.456   1.789   5.119 -1.0179 -0.6670 -1.6255
 5368SOL     OW16802   7.065   3.129   1.100 -0.0310 -0.2415 -0.3721
 5368SOL    HW116803   7.003   3.192   1.065 -1.6576 -1.0916  0.8598
 5368SOL    HW216804   7.012   3.068   1.151  1.8926 -0.6003  1.3486
 5369SOL     OW16805   7.956   1.941   3.949 -0.5312 -0.3555  0.1157
 5369SOL    HW116806   7.959   1.907   3.860 -0.0866 -1.4235  0.5289
 5369SOL    HW216807   7.926   1.867   4.002 -0.0947  0.0567  0.9519
 5370SOL     OW16808   0.191   1.953   6.440  0.8098 -0.1391  0.2486
 5370SOL    HW116809   0.122   1.889   6.420  1.5177 -0.6783 -0.5141
 5370SOL    HW216810   0.144   2.027   6.480  0.0061 -1.2063  1.3419
 5371SOL     OW16811   6.527   3.815   0.767 -0.3937  0.5040 -0.1219
 5371SOL    HW116812   6.442   3.840   0.802 -0.9341 -1.0371 -0.2581
 5371SOL    HW216813   6.550   3.886   0.707 -1.2606  1.2662  0.4255
 5372SOL     OW16814   3.307   2.707   1.482  0.2625 -0.6792  0.3444
 5372SOL    HW116815   3.380   2.735   1.537  0.9912  0.9317 -1.3684
 5372SOL    HW216816   3.341   2.633   1.433  0.3309 -0.6966  0.4179
 5373SOL     OW16817   1.121   7.246   3.203 -0.2625 -0.2095  0.1365
 5373SOL    HW116818   1.149   7.284   3.120 -2.3131  1.0414 -0.0534
 5373SOL    HW216819   1.091   7.158   3.180 -1.0658  0.2233 -0.5195
 5374SOL     OW16820   1.469   0.345   3.580  0.7098 -0.4943  0.6285
 5374SOL    HW116821   1.445   0.327   3.490  2.2151 -1.9073  0.4720
 5374SOL    HW216822   1.395   0.396   3.615  0.5089  0.9033 -1.6309
 5375SOL     OW16823   4.902   7.251   3.943 -0.1143 -0.7410 -0.2637
 5375SOL    HW116824   4.888   7.208   4.027  0.7754 -1.0924 -0.2819
 5375SOL    HW216825   4.913   7.344   3.965  0.2624 -0.8533  0.0247
 5376SOL     OW16826   5.699   5.706   4.486  0.0344 -0.8490 -0.0533
 5376SOL    HW116827   5.738   5.765   4.422 -0.6130 -1.6705 -1.2593
 5376SOL    HW216828   5.654   5.763   4.547 -0.5692 -0.0694 -1.1809
 5377SOL     OW16829   6.270   3.617   1.367 -0.6021  0.2429  0.8551
 5377SOL    HW116830   6.188   3.608   1.415 -0.6189 -1.8739  0.5242
 5377SOL    HW216831   6.246   3.603   1.275 -0.0056  0.4933  0.6536
 5378SOL     OW16832   5.237   7.519   2.302  0.1762 -0.0349 -0.1464
 5378SOL    HW116833   5.281   7.437   2.280  0.8842  0.2283  0.2562
 5378SOL    HW216834   5.197   7.502   2.388 -0.8007 -0.3743 -0.6458
 5379SOL     OW16835   2.241   5.883   5.640 -0.7419  0.2538 -0.5061
 5379SOL    HW116836   2.241   5.909   5.548 -0.8047  0.5545 -0.4218
 5379SOL    HW216837   2.166   5.929   5.678 -1.1918 -0.4830 -0.4732
 5380SOL     OW16838   5.283   4.600   4.077 -0.7366 -0.4528  0.4681
 5380SOL    HW116839   5.340   4.569   4.147 -0.2924 -0.5518  0.0761
 5380SOL    HW216840   5.264   4.691   4.100  0.0704 -0.2295  0.3144
 5381SOL     OW16841   4.188   7.608   2.362 -0.4407 -0.3738  0.2422
 5381SOL    HW116842   4.129   7.562   2.302 -0.5164  1.0323 -0.7958
 5381SOL    HW216843   4.174   7.564   2.446 -0.2996 -2.4268 -0.7348
 5382SOL     OW16844   1.159   1.121   7.654  0.1667 -0.7022  0.0902
 5382SOL    HW116845   1.091   1.110   7.720  0.7105 -1.6240  0.5117
 5382SOL    HW216846   1.111   1.122   7.571 -0.5254  0.5023  0.4725
 5383SOL     OW16847   6.056   4.196   3.849 -0.6192 -0.1654  0.4764
 5383SOL    HW116848   6.083   4.147   3.926  0.0596 -1.8661 -0.7705
 5383SOL    HW216849   6.091   4.146   3.775  1.7963  3.1866 -0.8999
 5384SOL     OW16850   7.189   0.762   3.301  0.7486 -0.2625 -0.6528
 5384SOL    HW116851   7.275   0.792   3.329  0.7164 -0.9501  0.2525
 5384SOL    HW216852   7.128   0.829   3.332  0.8824 -0.1878 -0.5521
 5385SOL     OW16853   5.405   0.623   3.768  0.3601 -0.0612  0.6791
 5385SOL    HW116854   5.444   0.546   3.728  0.8636  0.3630  0.3428
 5385SOL    HW216855   5.384   0.681   3.694  0.3234  0.2748  0.9484
 5386SOL     OW16856   0.452   5.196   6.426  0.6562  0.6153 -0.0351
 5386SOL    HW116857   0.518   5.130   6.410 -0.1053 -0.1887  0.0784
 5386SOL    HW216858   0.407   5.206   6.342  0.3023  0.4555  0.1313
 5387SOL     OW16859   7.189   0.245   2.957  0.4918  0.1228  0.2977
 5387SOL    HW116860   7.245   0.288   2.892  1.4019 -0.6528  0.5493
 5387SOL    HW216861   7.210   0.289   3.040 -0.0499  0.5384  0.2218
 5388SOL     OW16862   6.575   7.530   7.009  0.2540 -0.2020  0.1884
 5388SOL    HW116863   6.577   7.470   6.934  1.0955  1.5784 -1.2849
 5388SOL    HW216864   6.651   7.587   6.997 -0.3372  0.9772  1.6930
 5389SOL     OW16865   4.411   2.625   1.739  0.9907 -0.0209 -0.0198
 5389SOL    HW116866   4.452   2.619   1.653  2.2423  0.7528  0.4920
 5389SOL    HW216867   4.464   2.690   1.786 -0.0732  0.0675  1.1056
 5390SOL     OW16868   1.270   1.468   3.334 -0.1893  0.2006  0.6333
 5390SOL    HW116869   1.273   1.464   3.239 -0.6967  1.7310  0.5182
 5390SOL    HW216870   1.259   1.561   3.353  0.8817  0.0401  2.2204
 5391SOL     OW16871   0.647   4.878   7.779 -0.3054  0.3381  0.2404
 5391SOL    HW116872   0.711   4.810   7.802 -0.1552 -0.9980 -3.4043
 5391SOL    HW216873   0.680   4.957   7.821  1.4752 -1.1224  1.7883
 5392SOL     OW16874   0.265   1.069   3.129 -0.1829 -0.1954 -0.4612
 5392SOL    HW116875   0.222   1.155   3.128 -0.9764 -0.5858 -0.1845
 5392SOL    HW216876   0.358   1.090   3.120 -0.4532  0.6239 -1.5741
 5393SOL     OW16877   3.538   1.744   2.112 -0.2055  0.1285 -0.1727
 5393SOL    HW116878   3.622   1.726   2.153  0.9116  2.1500 -1.4267
 5393SOL    HW216879   3.484   1.667   2.132  2.2345 -1.6793 -0.1553
 5394SOL     OW16880   5.951   6.372   2.017  0.0855 -0.3648 -0.1560
 5394SOL    HW116881   6.006   6.340   2.088  1.5255  0.4407 -0.8734
 5394SOL    HW216882   5.874   6.409   2.062  0.7191 -0.3551  0.9549
 5395SOL     OW16883   4.912   4.702   4.359  0.2160 -0.0356 -0.2715
 5395SOL    HW116884   4.890   4.792   4.385  1.6214 -0.4126  2.4930
 5395SOL    HW216885   4.859   4.647   4.417  2.4605 -0.9236  1.0620
 5396SOL     OW16886   7.652   3.307   5.003  0.0141  0.4728  0.0429
 5396SOL    HW116887   7.685   3.344   5.085 -1.2927  1.1731  0.2802
 5396SOL    HW216888   7.691   3.220   4.999  3.0760  1.7630 -0.4671
 5397SOL     OW16889   6.001   2.948   1.576 -0.2503  0.7318  0.1114
 5397SOL    HW116890   6.023   2.947   1.483 -0.5447  0.1140  0.0453
 5397SOL    HW216891   5.926   2.889   1.584 -0.0229  0.5196  0.7829
 5398SOL     OW16892   6.824   7.841   2.201 -0.2889  0.2488 -0.4504
 5398SOL    HW116893   6.824   7.937   2.201  1.5254  0.3153  1.1095
 5398SOL    HW216894   6.816   7.817   2.109  0.8396  1.9556 -1.0459
 5399SOL     OW16895   2.533   6.850   0.838  0.7757 -0.9142  0.0171
 5399SOL    HW116896   2.575   6.819   0.918 -1.3473  0.3049  1.6741
 5399SOL    HW216897   2.499   6.771   0.796  0.4796 -1.4171  1.1833
 5400SOL     OW16898   1.302   2.616   6.657  0.4973  0.0415  0.2919
 5400SOL    HW116899   1.223   2.629   6.709 -0.1205  0.7329 -0.7792
 5400SOL    HW216900   1.340   2.704   6.649  0.2739  0.0508 -0.8681
 5401SOL     OW16901   0.414   6.079   0.323  0.4863  0.3197 -0.0353
 5401SOL    HW116902   0.381   6.076   0.413 -0.0592 -0.0445 -0.2387
 5401SOL    HW216903   0.414   6.172   0.301 -0.6453  0.3122 -0.1058
 5402SOL     OW16904   7.763   5.328   4.890 -0.0505 -0.2256  0.0103
 5402SOL    HW116905   7.792   5.400   4.834 -0.8479  1.0748  1.2257
 5402SOL    HW216906   7.808   5.342   4.973 -0.0675 -1.2463  0.2027
 5403SOL     OW16907   7.677   5.324   1.682  0.0315 -0.7037 -0.0088
 5403SOL    HW116908   7.742   5.378   1.638 -1.2912  1.8891  1.0245
 5403SOL    HW216909   7.727   5.278   1.750  1.0372  0.0569 -0.2035
 5404SOL     OW16910   2.858   5.041   1.568 -0.8070 -0.2885 -0.2549
 5404SOL    HW116911   2.950   5.062   1.555 -1.0832  0.9451 -0.4039
 5404SOL    HW216912   2.833   5.090   1.646 -1.5869  0.2775 -0.8418
 5405SOL     OW16913   5.504   7.801   1.718  0.2804  0.1425  0.4601
 5405SOL    HW116914   5.520   7.731   1.782  2.5905 -0.0341 -0.2323
 5405SOL    HW216915   5.500   7.756   1.634 -0.2556  0.6498  0.2060
 5406SOL     OW16916   5.378   0.742   2.150 -0.1170 -0.2386  0.3828
 5406SOL    HW116917   5.450   0.683   2.123 -0.2301  0.2986 -1.2366
 5406SOL    HW216918   5.322   0.688   2.205  1.0729 -0.9294  0.9509
 5407SOL     OW16919   5.745   6.624   6.450 -0.2618  0.3110 -0.2783
 5407SOL    HW116920   5.811   6.579   6.502 -0.8674  0.8444  0.9946
 5407SOL    HW216921   5.758   6.717   6.469 -2.5549  0.3647  1.5704
 5408SOL     OW16922   0.947   6.543   0.147  0.1211  0.7603  0.0986
 5408SOL    HW116923   0.967   6.509   0.060  1.8708 -0.7036  0.9973
 5408SOL    HW216924   1.024   6.595   0.171  0.2880 -0.0029  1.3002
 5409SOL     OW16925   1.174   0.444   7.286  0.1140 -0.2143  0.3369
 5409SOL    HW116926   1.090   0.426   7.329  0.7765 -1.5923  1.1285
 5409SOL    HW216927   1.229   0.480   7.356 -0.1614  1.8693 -0.4643
 5410SOL     OW16928   0.259   1.097   7.850  0.2460 -0.2558  0.1257
 5410SOL    HW116929   0.238   1.031   7.784 -0.4647 -1.5881  1.5950
 5410SOL    HW216930   0.182   1.152   7.856 -0.6577 -1.5804  1.4332
 5411SOL     OW16931   5.567   0.443   1.085  0.4618 -0.2852 -0.0779
 5411SOL    HW116932   5.475   0.439   1.059  0.2110  2.9132 -0.0606
 5411SOL    HW216933   5.564   0.458   1.179  0.8598  1.7119 -0.3399
 5412SOL     OW16934   2.095   7.479   7.065  0.5904  0.0102  0.0614
 5412SOL    HW116935   2.088   7.574   7.060  0.3215 -0.0204 -0.1262
 5412SOL    HW216936   2.095   7.460   7.159 -1.5931  0.0299  0.0970
 5413SOL     OW16937   2.940   1.018   4.231 -0.6234  0.2931  0.2173
 5413SOL    HW116938   2.867   1.078   4.247  0.3031  1.3108  0.7394
 5413SOL    HW216939   2.980   1.051   4.150 -0.5072 -0.0248  0.1461
 5414SOL     OW16940   6.184   0.860   3.201  0.0621 -0.1157 -0.5441
 5414SOL    HW116941   6.243   0.818   3.139  1.8810  0.9714  0.3708
 5414SOL    HW216942   6.135   0.924   3.148  0.7983  0.0282 -1.0569
 5415SOL     OW16943   2.698   3.919   5.034  0.6898  0.0359 -0.0839
 5415SOL    HW116944   2.697   3.825   5.048  0.9579  0.0853  0.2697
 5415SOL    HW216945   2.689   3.929   4.939  0.5418 -0.3404 -0.1112
 5416SOL     OW16946   1.576   5.493   4.921 -0.1961 -0.0121  0.5798
 5416SOL    HW116947   1.649   5.437   4.946  0.5328  0.6969  0.0916
 5416SOL    HW216948   1.515   5.487   4.995  0.1035 -1.0235  0.7614
 5417SOL     OW16949   1.950   3.656   1.251  0.1454  0.1501  0.5601
 5417SOL    HW116950   1.888   3.718   1.290 -0.5266 -0.6653  0.8304
 5417SOL    HW216951   1.927   3.654   1.158 -0.9825 -0.9679  0.8440
 5418SOL     OW16952   6.100   6.222   5.856  0.4647  0.1059 -0.2309
 5418SOL    HW116953   6.145   6.204   5.938  0.6457  1.5088  0.0080
 5418SOL    HW216954   6.121   6.314   5.836  0.5108 -0.2305 -1.8966
 5419SOL     OW16955   5.909   3.264   2.303 -0.0913  0.5360 -0.4127
 5419SOL    HW116956   5.975   3.273   2.372 -0.8956  0.1020  0.4464
 5419SOL    HW216957   5.926   3.178   2.264  0.9593  1.1801 -1.4221
 5420SOL     OW16958   1.357   4.246   5.112  0.1311  0.0923  0.0270
 5420SOL    HW116959   1.400   4.263   5.028 -0.0779  2.0152  0.2581
 5420SOL    HW216960   1.336   4.153   5.110  2.5420 -0.5109 -0.9131
 5421SOL     OW16961   5.452   7.048   0.111 -0.0303  0.5298 -0.3253
 5421SOL    HW116962   5.462   6.979   0.046  1.1153 -0.4536  0.8102
 5421SOL    HW216963   5.518   7.027   0.178  0.0607  2.4946  0.2708
 5422SOL     OW16964   6.446   0.227   0.274 -0.4713  0.0465  0.3149
 5422SOL    HW116965   6.514   0.171   0.237  1.0180  0.8891  1.6377
 5422SOL    HW216966   6.424   0.288   0.203 -0.2282 -0.5615 -0.2961
 5423SOL     OW16967   3.332   2.096   2.297 -0.2295 -0.9319 -0.0751
 5423SOL    HW116968   3.246   2.067   2.329 -0.0056  0.6484  2.2317
 5423SOL    HW216969   3.313   2.140   2.215 -1.8772  0.5863  1.0512
 5424SOL     OW16970   7.341   0.457   2.904 -0.2697 -0.1124  0.6023
 5424SOL    HW116971   7.323   0.470   2.997 -0.9550 -0.1420  0.4817
 5424SOL    HW216972   7.288   0.523   2.859 -0.1140 -0.2417  0.2189
 5425SOL     OW16973   7.130   7.172   3.549 -0.3741  0.0003 -0.1870
 5425SOL    HW116974   7.044   7.171   3.507 -0.4473  0.6147 -0.0607
 5425SOL    HW216975   7.136   7.259   3.589  0.0141 -0.2973  0.4111
 5426SOL     OW16976   2.760   7.597   6.324 -0.1983  0.5152  0.0299
 5426SOL    HW116977   2.846   7.605   6.367 -0.0734  0.1552 -0.1517
 5426SOL    HW216978   2.772   7.641   6.240  0.3837 -1.1613 -0.8165
 5427SOL     OW16979   7.178   5.964   3.579  0.5988  0.4804  0.1620
 5427SOL    HW116980   7.153   6.002   3.664 -0.3874  0.4436 -0.1059
 5427SOL    HW216981   7.218   6.037   3.531  1.8045  0.3381  0.8992
 5428SOL     OW16982   2.898   5.353   4.099  0.0395  0.5412  0.2607
 5428SOL    HW116983   2.856   5.282   4.050  0.5627  0.7446 -0.4928
 5428SOL    HW216984   2.853   5.353   4.184  0.7219 -1.3582  0.6580
 5429SOL     OW16985   4.267   7.343   6.324  0.0810 -0.4035 -0.0189
 5429SOL    HW116986   4.201   7.274   6.333  0.7105 -0.9319  0.8088
 5429SOL    HW216987   4.333   7.320   6.390  1.0256  0.1749 -0.7446
 5430SOL     OW16988   6.755   6.731   7.542  0.3764  0.3647  0.4394
 5430SOL    HW116989   6.749   6.734   7.637 -1.4911  1.4995  0.3266
 5430SOL    HW216990   6.845   6.702   7.525  0.6195 -0.2728  2.5239
 5431SOL     OW16991   4.195   0.328   2.813 -0.4055  0.7266 -0.3282
 5431SOL    HW116992   4.115   0.375   2.788 -1.6042 -2.1111 -2.4124
 5431SOL    HW216993   4.210   0.267   2.740  1.9622 -0.9252  1.4014
 5432SOL     OW16994   0.521   4.890   2.188  0.5230  0.3195 -0.6847
 5432SOL    HW116995   0.482   4.976   2.200  1.6623  0.5500  2.1666
 5432SOL    HW216996   0.615   4.905   2.190  0.8253 -1.1191  2.5869
 5433SOL     OW16997   1.609   3.433   0.831  0.2031 -0.1563  0.4797
 5433SOL    HW116998   1.704   3.431   0.844  0.4302 -4.4985 -0.2644
 5433SOL    HW216999   1.577   3.359   0.883 -2.6262  0.4241 -0.2940
 5434SOL     OW17000   0.332   4.461   0.622  0.1983 -0.1663  0.8166
 5434SOL    HW117001   0.348   4.549   0.658 -0.4497 -0.1369  1.0347
 5434SOL    HW217002   0.371   4.402   0.687 -0.2639 -0.0787  1.1841
 5435SOL     OW17003   6.523   5.135   2.780 -0.4749 -0.0924 -0.5311
 5435SOL    HW117004   6.456   5.203   2.788  0.1487  0.5354 -0.5956
 5435SOL    HW217005   6.503   5.074   2.852 -2.5821 -1.2413 -1.9643
 5436SOL     OW17006   7.960   0.935   7.947  0.0351  0.3730 -0.0185
 5436SOL    HW117007   8.007   0.910   7.867  1.8421  1.0216  0.7804
 5436SOL    HW217008   7.868   0.937   7.921  0.4081 -1.0001 -1.6597
 5437SOL     OW17009   5.772   4.737   2.750 -0.7576  0.1318 -0.0222
 5437SOL    HW117010   5.694   4.780   2.717 -0.2412  0.8778 -0.2817
 5437SOL    HW217011   5.739   4.656   2.790 -1.8093  1.0526  1.0459
 5438SOL     OW17012   2.560   6.690   0.310 -0.1834 -0.2432  0.4907
 5438SOL    HW117013   2.466   6.699   0.299 -0.0004  0.2204 -0.7677
 5438SOL    HW217014   2.582   6.753   0.380 -0.6786  0.2838  0.1777
 5439SOL     OW17015   1.894   0.173   4.373  0.2077  0.5472 -0.2637
 5439SOL    HW117016   1.923   0.096   4.325 -1.4728  0.0405 -0.5350
 5439SOL    HW217017   1.959   0.240   4.352  1.4468 -0.6529 -0.3790
 5440SOL     OW17018   0.430   4.549   6.596 -0.3441  0.1668  0.2490
 5440SOL    HW117019   0.337   4.529   6.604  0.3568 -3.9701  0.3764
 5440SOL    HW217020   0.468   4.520   6.679  1.2863 -0.2180 -0.5888
 5441SOL     OW17021   2.778   3.267   0.836  0.2470  0.1514 -0.4623
 5441SOL    HW117022   2.716   3.301   0.772 -0.8264 -0.5833  0.1529
 5441SOL    HW217023   2.847   3.334   0.841 -1.0191  1.4869 -0.3917
 5442SOL     OW17024   4.226   6.735   6.879 -0.0080 -0.5137 -0.2895
 5442SOL    HW117025   4.205   6.730   6.786  0.0731 -3.3109 -0.2260
 5442SOL    HW217026   4.196   6.652   6.915  3.5568 -1.2376  1.4047
 5443SOL     OW17027   1.758   1.685   1.062  0.1488  0.1443 -0.5195
 5443SOL    HW117028   1.794   1.767   1.029  0.7114 -0.2857 -0.9744
 5443SOL    HW217029   1.775   1.688   1.156 -0.0503  0.6563 -0.4972
 5444SOL     OW17030   2.135   1.275   4.465  0.3661  0.0899 -0.6110
 5444SOL    HW117031   2.190   1.341   4.424  0.0528 -0.0783 -1.3269
 5444SOL    HW217032   2.194   1.224   4.520  0.6994  0.6468 -0.4509
 5445SOL     OW17033   5.961   7.688   7.198 -0.1668  0.6566  0.0879
 5445SOL    HW117034   6.024   7.633   7.152 -0.2639  1.4026 -0.9557
 5445SOL    HW217035   5.918   7.740   7.130 -0.9510  1.1443  0.9175
 5446SOL     OW17036   1.354   0.049   0.564  0.0084 -0.3618 -0.2449
 5446SOL    HW117037   1.439   0.007   0.572  0.0612 -0.2888 -0.4183
 5446SOL    HW217038   1.356   0.091   0.479 -1.0192 -2.1744 -1.2224
 5447SOL     OW17039   5.982   7.765   7.457  0.1543  0.2428  0.1370
 5447SOL    HW117040   5.971   7.731   7.368 -0.6798  0.0091  0.3205
 5447SOL    HW217041   6.070   7.804   7.457  0.2211  0.1183 -0.7439
 5448SOL     OW17042   3.726   5.476   6.633  0.6508  0.0893 -0.5282
 5448SOL    HW117043   3.766   5.560   6.656 -0.5148  0.5515 -0.0839
 5448SOL    HW217044   3.766   5.413   6.693  0.0772  0.6961  0.5262
 5449SOL     OW17045   5.887   2.187   0.285  0.5696 -0.1662 -0.5008
 5449SOL    HW117046   5.827   2.112   0.288  0.8542 -0.3574  1.2870
 5449SOL    HW217047   5.883   2.225   0.372  3.4595 -0.5192 -0.1113
 5450SOL     OW17048   0.024   0.867   1.741 -0.1211  0.4139  0.4081
 5450SOL    HW117049  -0.068   0.845   1.727 -0.3750  1.2273  0.7283
 5450SOL    HW217050   0.068   0.783   1.752 -0.4775 -0.0937 -1.7531
 5451SOL     OW17051   7.247   5.020   4.505 -0.6717  0.2067 -0.2199
 5451SOL    HW117052   7.251   5.090   4.570 -1.1763  0.8262 -0.8462
 5451SOL    HW217053   7.155   5.018   4.478 -1.0137 -1.7099  0.8675
 5452SOL     OW17054   4.044   3.351   6.684 -0.5666  0.0688 -0.3496
 5452SOL    HW117055   4.096   3.272   6.702  0.1711  1.0200  2.1319
 5452SOL    HW217056   3.961   3.317   6.649 -0.6155 -1.9241  1.4965
 5453SOL     OW17057   0.259   0.166   6.186 -0.1994  0.1664  0.1049
 5453SOL    HW117058   0.219   0.253   6.187  1.1816  0.8426 -0.4837
 5453SOL    HW217059   0.344   0.179   6.143  1.5183 -0.8251  2.9271
 5454SOL     OW17060   4.234   2.654   1.382 -0.0018  0.2318  0.3287
 5454SOL    HW117061   4.216   2.612   1.466 -1.5483 -2.3664 -1.1703
 5454SOL    HW217062   4.160   2.714   1.368  0.2325  0.6295  0.7769
 5455SOL     OW17063   7.476   2.796   0.075 -0.4707 -0.3742  0.0438
 5455SOL    HW117064   7.386   2.809   0.107 -0.9297 -1.9087 -0.5372
 5455SOL    HW217065   7.519   2.746   0.145 -0.3080 -0.3436 -0.0339
 5456SOL     OW17066   4.212   4.523   6.786  0.7693  0.2157 -0.0341
 5456SOL    HW117067   4.123   4.511   6.819  0.5008 -3.7215 -1.6220
 5456SOL    HW217068   4.203   4.588   6.716 -1.1168 -0.7848 -0.8010
 5457SOL     OW17069   6.751   5.853   0.439  0.1823  0.4254 -0.0224
 5457SOL    HW117070   6.771   5.935   0.394 -2.9843  1.1962 -0.2805
 5457SOL    HW217071   6.781   5.867   0.528 -0.4106  1.9824 -0.0256
 5458SOL     OW17072   3.616   2.436   7.320  0.0285  0.0865 -0.0075
 5458SOL    HW117073   3.642   2.433   7.412  0.1003  0.6052 -0.0077
 5458SOL    HW217074   3.560   2.513   7.313  0.9309  0.7100 -0.6185
 5459SOL     OW17075   0.733   2.250   1.666 -0.2862 -0.0447 -0.0923
 5459SOL    HW117076   0.736   2.238   1.761  1.5292  0.0317 -0.1149
 5459SOL    HW217077   0.792   2.184   1.631 -1.0860 -0.1986 -1.2097
 5460SOL     OW17078   4.689   4.104   5.718  0.1796 -0.2242  0.0172
 5460SOL    HW117079   4.633   4.127   5.792 -1.7852 -0.3713 -1.3473
 5460SOL    HW217080   4.653   4.021   5.686  0.8865 -0.0804 -1.1993
 5461SOL     OW17081   7.312   2.301   5.482  0.1727  0.4579  0.0121
 5461SOL    HW117082   7.333   2.381   5.531 -1.4470  1.0600 -0.2333
 5461SOL    HW217083   7.218   2.289   5.493  0.1966 -0.8073 -0.8840
 5462SOL     OW17084   4.068   4.751   1.701  0.2637  0.1759  0.2698
 5462SOL    HW117085   4.145   4.771   1.753 -0.2120  0.8409  0.7298
 5462SOL    HW217086   4.080   4.660   1.674  1.2087  0.2827  0.3238
 5463SOL     OW17087   4.351   4.012   7.654  0.1050  0.3743 -0.1323
 5463SOL    HW117088   4.389   3.926   7.637 -1.3587 -0.5283  0.9277
 5463SOL    HW217089   4.403   4.048   7.726  0.1708 -0.0114  0.0142
 5464SOL     OW17090   7.764   6.176   0.502  0.0533  0.4393 -0.0603
 5464SOL    HW117091   7.780   6.171   0.596 -0.1024 -1.2117 -0.1026
 5464SOL    HW217092   7.724   6.093   0.479  2.5745 -0.3692 -2.0356
 5465SOL     OW17093   2.916   4.418   2.989 -0.0239 -0.3204  0.3795
 5465SOL    HW117094   2.850   4.349   2.982  0.7477 -1.0611  0.1776
 5465SOL    HW217095   2.896   4.478   2.917  0.7505 -1.6397 -0.9733
 5466SOL     OW17096   5.159   7.203   1.627 -0.3593  0.3848  0.2451
 5466SOL    HW117097   5.232   7.252   1.664  1.1453 -1.4690 -0.1273
 5466SOL    HW217098   5.102   7.184   1.702  0.0754  0.9265  0.7226
 5467SOL     OW17099   6.000   5.902   2.689 -0.7823  0.1511  0.2867
 5467SOL    HW117100   5.986   5.899   2.783 -0.3700  1.7162  0.4178
 5467SOL    HW217101   6.028   5.813   2.666  2.0874  0.4249  2.1557
 5468SOL     OW17102   1.096   3.276   7.206  0.0080  0.3930 -0.1772
 5468SOL    HW117103   1.097   3.356   7.153  2.4711 -0.0251 -0.9066
 5468SOL    HW217104   1.081   3.206   7.143  2.8979 -0.1010 -0.4574
 5469SOL     OW17105   5.211   4.038   1.517  0.3290  0.3132  0.4021
 5469SOL    HW117106   5.171   4.118   1.552  0.7127  0.1797  1.1664
 5469SOL    HW217107   5.161   3.967   1.558 -0.9661  0.1280 -1.3733
 5470SOL     OW17108   3.741   6.635   0.214 -0.7449  0.2110  0.6593
 5470SOL    HW117109   3.756   6.730   0.211 -1.1890  0.2667 -1.4796
 5470SOL    HW217110   3.828   6.598   0.230 -0.1523  0.9377 -0.6551
 5471SOL     OW17111   5.880   0.931   1.913 -0.3960 -0.1144  0.0223
 5471SOL    HW117112   5.921   0.939   1.827 -0.2802 -0.3684  0.0546
 5471SOL    HW217113   5.826   0.852   1.907 -0.2856 -0.2050  0.2254
 5472SOL     OW17114   0.127   5.998   0.943 -0.1143  0.6837  0.1082
 5472SOL    HW117115   0.102   5.953   0.862 -0.4221  0.2037  0.4693
 5472SOL    HW217116   0.050   6.051   0.965  0.6250  2.2651 -0.9038
 5473SOL     OW17117   4.097   7.110   6.284 -0.0874 -0.4961  0.1092
 5473SOL    HW117118   4.074   7.094   6.376  0.0990 -1.2812  0.0284
 5473SOL    HW217119   4.170   7.050   6.267 -0.1546 -0.3920 -0.5705
 5474SOL     OW17120   6.921   0.977   3.330  0.0124 -0.1900  0.2026
 5474SOL    HW117121   6.860   0.920   3.377  0.1885 -1.7607 -1.3337
 5474SOL    HW217122   6.873   1.057   3.314 -0.9712 -0.6716  0.6844
 5475SOL     OW17123   2.630   4.341   4.525  0.1071 -0.3453  0.2263
 5475SOL    HW117124   2.700   4.335   4.460  0.1824 -0.1202  0.2882
 5475SOL    HW217125   2.610   4.250   4.546 -0.7023 -0.4607 -0.9632
 5476SOL     OW17126   6.131   2.379   0.693  0.6513 -0.5377 -0.4610
 5476SOL    HW117127   6.122   2.443   0.623  0.7847 -0.1783 -0.1537
 5476SOL    HW217128   6.215   2.400   0.735  0.3903 -0.4996  0.0559
 5477SOL     OW17129   3.478   2.668   3.498 -0.5761 -0.1648 -0.1545
 5477SOL    HW117130   3.408   2.633   3.553 -0.6065  0.7105  0.3789
 5477SOL    HW217131   3.469   2.763   3.504  0.3861 -0.0414 -0.4346
 5478SOL     OW17132   4.523   4.056   4.691 -0.0233 -0.7581  0.0883
 5478SOL    HW117133   4.602   4.083   4.645 -0.3233 -0.4990 -0.2771
 5478SOL    HW217134   4.456   4.119   4.665 -0.3856 -1.0456  0.2982
 5479SOL     OW17135   5.585   5.167   2.091  0.3786  0.1679 -0.1654
 5479SOL    HW117136   5.569   5.182   2.184  1.6806  1.3408 -0.1021
 5479SOL    HW217137   5.652   5.098   2.089  0.6449  0.4282 -0.2236
 5480SOL     OW17138   2.199   5.621   6.510  0.2270 -0.0936  0.2107
 5480SOL    HW117139   2.208   5.664   6.424 -0.4664  1.0755  0.7019
 5480SOL    HW217140   2.195   5.693   6.572 -2.2671 -0.7759  0.9645
 5481SOL     OW17141   3.890   6.483   1.983 -0.1203  0.1364  0.9221
 5481SOL    HW117142   3.845   6.478   2.067  0.1809  0.4287  1.1054
 5481SOL    HW217143   3.948   6.407   1.983  0.5244  0.6101  1.3696
 5482SOL     OW17144   4.710   6.535   2.474  0.2805 -0.2132 -0.2170
 5482SOL    HW117145   4.679   6.485   2.399  0.1205 -2.0154  0.9578
 5482SOL    HW217146   4.664   6.618   2.470  0.4719 -0.1621 -2.2186
 5483SOL     OW17147   5.102   1.022   4.331 -0.1189 -0.4815  0.2690
 5483SOL    HW117148   5.154   1.098   4.357  1.8181 -2.0655  1.3488
 5483SOL    HW217149   5.011   1.052   4.337  0.5548  1.6706  0.8329
 5484SOL     OW17150   2.833   5.410   1.751  0.1364 -0.6072  0.2020
 5484SOL    HW117151   2.845   5.477   1.819  0.4966 -0.5652  0.1030
 5484SOL    HW217152   2.834   5.459   1.669 -1.0008 -0.5776  0.1962
 5485SOL     OW17153   0.243   0.525   4.386 -0.1105  0.3800  0.6123
 5485SOL    HW117154   0.180   0.509   4.315  0.8957  0.2804 -0.2897
 5485SOL    HW217155   0.322   0.478   4.359  0.9763  2.0015  0.7978
 5486SOL     OW17156   5.090   2.538   7.273  0.2524 -0.2498 -0.3235
 5486SOL    HW117157   5.128   2.541   7.361 -0.3219 -0.1661 -0.0737
 5486SOL    HW217158   5.147   2.594   7.221 -0.0964  0.6886  0.2764
 5487SOL     OW17159   7.964   3.946   5.059 -0.1074 -0.0749 -0.3072
 5487SOL    HW117160   8.030   3.892   5.014 -0.3068  0.0391 -0.7458
 5487SOL    HW217161   7.886   3.939   5.004 -0.2035  0.4771 -0.2483
 5488SOL     OW17162   1.380   5.734   5.939 -0.4507  0.3394  0.2707
 5488SOL    HW117163   1.428   5.762   5.861 -1.1800  3.2347  0.7784
 5488SOL    HW217164   1.449   5.705   6.000  0.7032  3.4325  0.6008
 5489SOL     OW17165   0.912   5.888   2.635 -0.2038  0.0884 -0.0300
 5489SOL    HW117166   0.933   5.839   2.715 -0.1116 -0.2865 -0.2779
 5489SOL    HW217167   0.996   5.899   2.591 -0.3283 -0.2107 -0.3518
 5490SOL     OW17168   5.464   2.498   2.344  0.1441  0.2701  0.7884
 5490SOL    HW117169   5.488   2.445   2.268 -0.7213  0.3583  0.4446
 5490SOL    HW217170   5.378   2.465   2.371  0.3055  0.4427  1.5403
 5491SOL     OW17171   2.460   4.455   1.320  0.6353  0.0484  0.2022
 5491SOL    HW117172   2.410   4.533   1.294 -1.6957 -1.7929 -1.2829
 5491SOL    HW217173   2.515   4.436   1.244  0.4031 -0.3264  0.1242
 5492SOL     OW17174   0.317   4.905   0.459 -0.8740 -0.5059 -0.0712
 5492SOL    HW117175   0.383   4.972   0.480 -0.6179 -1.2594  1.7182
 5492SOL    HW217176   0.326   4.892   0.365  0.1819  0.8204 -0.1895
 5493SOL     OW17177   4.806   2.109   5.434 -0.6382 -0.0782  0.1586
 5493SOL    HW117178   4.834   2.173   5.369  1.4360 -1.0259  0.0213
 5493SOL    HW217179   4.837   2.025   5.399  0.4805 -0.6252  2.2953
 5494SOL     OW17180   2.899   2.758   4.337  0.0354 -0.1567 -0.0862
 5494SOL    HW117181   2.854   2.800   4.263  2.3106 -0.2001 -1.6069
 5494SOL    HW217182   2.830   2.743   4.402 -2.2673 -0.8584 -2.5097
 5495SOL     OW17183   0.334   5.440   1.852  0.4473 -0.1320  0.2246
 5495SOL    HW117184   0.289   5.443   1.937  0.6455 -0.0714  0.3271
 5495SOL    HW217185   0.344   5.532   1.827 -0.2363 -0.1695 -0.1945
 5496SOL     OW17186   0.220   7.808   5.917 -0.0684 -0.2402  0.2583
 5496SOL    HW117187   0.147   7.854   5.960  0.0436  0.5194 -0.3404
 5496SOL    HW217188   0.234   7.857   5.836  1.3014 -0.2020  0.5020
 5497SOL     OW17189   7.630   3.003   0.144 -0.1106  0.3403 -0.3217
 5497SOL    HW117190   7.726   2.999   0.143 -0.1528 -0.9823 -1.3209
 5497SOL    HW217191   7.602   2.914   0.123 -1.5382  1.3048 -2.8541
 5498SOL     OW17192   2.585   1.904   6.352  0.1834 -0.1688 -0.6350
 5498SOL    HW117193   2.519   1.846   6.312  0.1270  0.4816 -1.5187
 5498SOL    HW217194   2.570   1.896   6.446 -1.5769  0.4084 -0.8289
 5499SOL     OW17195   5.697   3.485   0.099 -0.0472 -0.2171  0.2290
 5499SOL    HW117196   5.699   3.571   0.141  1.1858  0.7195 -1.6009
 5499SOL    HW217197   5.608   3.454   0.114 -0.7506  1.6975  0.3562
 5500SOL     OW17198   4.060   1.989   1.072 -0.6569  0.3981  0.3727
 5500SOL    HW117199   3.980   1.940   1.091 -0.0202 -1.4596 -1.2892
 5500SOL    HW217200   4.094   1.948   0.992  1.2945  1.9608  0.3250
 5501SOL     OW17201   5.790   4.179   3.388 -0.1169 -0.1567 -0.3418
 5501SOL    HW117202   5.713   4.220   3.425 -1.1586 -2.0899 -0.2555
 5501SOL    HW217203   5.848   4.165   3.463 -0.3843 -0.1932 -0.1413
 5502SOL     OW17204   6.526   4.709   2.793 -0.4489  0.1272  1.0034
 5502SOL    HW117205   6.599   4.659   2.758 -1.0414 -0.2850  0.3218
 5502SOL    HW217206   6.471   4.644   2.837 -1.0643  0.2129  0.3804
 5503SOL     OW17207   2.536   1.389   0.786  0.3556 -0.6198  0.2532
 5503SOL    HW117208   2.507   1.310   0.740 -1.2736 -0.3280  0.7349
 5503SOL    HW217209   2.481   1.393   0.864 -0.0020  1.2936 -0.0509
 5504SOL     OW17210   1.122   3.074   2.775  0.1342 -0.0472 -0.3539
 5504SOL    HW117211   1.157   3.123   2.700  0.9623 -0.0083  0.0469
 5504SOL    HW217212   1.036   3.113   2.790  0.2977  0.4993 -0.7712
 5505SOL     OW17213   1.373   7.528   7.663 -0.4128  0.4668 -0.1407
 5505SOL    HW117214   1.368   7.434   7.643  0.6544  0.2525  0.5139
 5505SOL    HW217215   1.450   7.558   7.613 -0.9067  1.0611 -0.5596
 5506SOL     OW17216   7.579   6.315   2.596 -0.5371  0.5397  0.4938
 5506SOL    HW117217   7.557   6.241   2.651 -0.1083  0.3236  0.3846
 5506SOL    HW217218   7.632   6.372   2.652 -0.3305  0.4513  0.3921
 5507SOL     OW17219   4.018   0.683   3.153  0.3075 -0.3584  0.2461
 5507SOL    HW117220   4.060   0.767   3.170  0.2155 -0.4838  1.1642
 5507SOL    HW217221   3.961   0.669   3.229  1.6394 -2.0547  0.9928
 5508SOL     OW17222   1.430   4.425   2.856 -0.2753  0.1089  0.4840
 5508SOL    HW117223   1.523   4.410   2.837 -0.2551 -0.9664  1.3416
 5508SOL    HW217224   1.428   4.512   2.895  0.2015  0.6543 -0.6641
 5509SOL     OW17225   2.897   6.601   2.772  0.0514 -0.4811  0.0026
 5509SOL    HW117226   2.967   6.629   2.832  1.1407 -0.0611 -1.4212
 5509SOL    HW217227   2.892   6.671   2.707 -0.6984 -1.1979 -0.7282
 5510SOL     OW17228   2.041   5.932   6.398 -0.1209 -0.5400 -0.0362
 5510SOL    HW117229   2.123   5.882   6.389 -0.5354 -0.8835 -2.6159
 5510SOL    HW217230   2.048   6.002   6.333 -1.8377 -0.5344 -0.2602
 5511SOL     OW17231   3.765   0.322   2.441 -0.3791  0.1655  0.1220
 5511SOL    HW117232   3.692   0.260   2.437  0.5570 -1.0100  0.8355
 5511SOL    HW217233   3.819   0.302   2.365  0.3221 -0.4247  0.7591
 5512SOL     OW17234   2.617   3.057   7.251  0.2919 -0.3458 -0.2330
 5512SOL    HW117235   2.702   3.012   7.250  0.1917 -0.5355 -0.9696
 5512SOL    HW217236   2.554   2.990   7.226 -0.0945 -0.2224  0.3777
 5513SOL     OW17237   2.348   3.796   4.882  0.2398  0.2966  0.4657
 5513SOL    HW117238   2.366   3.838   4.797 -2.8615 -0.5178 -0.7112
 5513SOL    HW217239   2.430   3.752   4.904  1.0275  0.0965 -2.3909
 5514SOL     OW17240   4.231   1.346   1.996  0.5024 -0.2751 -0.0846
 5514SOL    HW117241   4.158   1.403   2.019  1.1475  0.6650 -0.3143
 5514SOL    HW217242   4.268   1.319   2.079  1.6035  1.5130  0.0559
 5515SOL     OW17243   4.548   6.876   4.367  0.2673  0.2621 -0.1699
 5515SOL    HW117244   4.499   6.832   4.437  1.5537 -0.3554  0.3763
 5515SOL    HW217245   4.516   6.836   4.287  1.0109 -1.3252  0.2796
 5516SOL     OW17246   4.632   4.038   6.516 -0.4340  0.1935 -0.5786
 5516SOL    HW117247   4.718   4.062   6.483  1.0813 -1.1746  2.0150
 5516SOL    HW217248   4.604   3.965   6.460  0.3905  0.2342 -1.0531
 5517SOL     OW17249   3.730   3.250   7.577  0.0686 -0.2214  0.3672
 5517SOL    HW117250   3.737   3.264   7.672  0.5815 -1.2546  0.5000
 5517SOL    HW217251   3.660   3.309   7.549 -0.5461 -0.3836  1.4919
 5518SOL     OW17252   5.415   0.458   2.859 -0.9421  0.0880  0.6889
 5518SOL    HW117253   5.399   0.441   2.952 -0.6294  1.4204  1.0086
 5518SOL    HW217254   5.329   0.480   2.823 -1.2150 -1.2716  0.4439
 5519SOL     OW17255   1.021   7.019   1.144 -0.4572 -0.0627  0.3963
 5519SOL    HW117256   1.089   7.015   1.212 -0.6586 -0.8294  0.5627
 5519SOL    HW217257   0.946   6.976   1.183 -0.5257 -0.6549 -0.3757
 5520SOL     OW17258   0.898   4.486   4.066 -0.0578  0.0743  0.1066
 5520SOL    HW117259   0.931   4.558   4.013 -0.0754 -0.8000 -1.1369
 5520SOL    HW217260   0.831   4.526   4.122 -0.0776  1.0218 -0.5768
 5521SOL     OW17261   6.089   4.006   7.314 -0.0529 -0.1929  0.2666
 5521SOL    HW117262   6.121   4.071   7.252  0.0255  0.9365  1.4576
 5521SOL    HW217263   6.120   4.036   7.400 -1.4081 -0.9058  1.0504
 5522SOL     OW17264   5.637   3.271   7.826 -0.0568 -0.9109 -0.2351
 5522SOL    HW117265   5.711   3.332   7.830 -1.7155  1.1986  0.2077
 5522SOL    HW217266   5.677   3.184   7.830  2.3220  0.1505  1.0212
 5523SOL     OW17267   3.728   2.043   2.659 -0.1319  0.4304  0.4271
 5523SOL    HW117268   3.795   2.111   2.670 -0.0269  0.1784  1.4484
 5523SOL    HW217269   3.666   2.059   2.731 -0.9726  0.4265 -0.2809
 5524SOL     OW17270   5.350   2.601   6.729 -0.3969  0.4850 -0.2797
 5524SOL    HW117271   5.378   2.510   6.717 -0.6803  0.4534 -0.7047
 5524SOL    HW217272   5.339   2.635   6.640 -1.4962  0.5703 -0.1250
 5525SOL     OW17273   3.474   6.246   7.230 -0.2537  0.7734 -0.3275
 5525SOL    HW117274   3.388   6.283   7.212 -0.4983  0.2279 -0.3075
 5525SOL    HW217275   3.461   6.151   7.224 -0.5312  0.4528  3.3545
 5526SOL     OW17276   5.732   4.193   5.539 -0.1565  0.4112  0.9012
 5526SOL    HW117277   5.639   4.202   5.517  0.2748 -0.5939 -1.5985
 5526SOL    HW217278   5.774   4.268   5.499  0.3844 -0.3694 -0.0358
 5527SOL     OW17279   2.919   4.516   4.066  0.0518  0.2652  0.5688
 5527SOL    HW117280   2.881   4.476   4.144  0.8843  0.2036  0.9567
 5527SOL    HW217281   2.882   4.604   4.063 -1.6573 -0.4291 -0.1821
 5528SOL     OW17282   3.449   4.184   5.389  0.1698 -0.3752 -0.9317
 5528SOL    HW117283   3.540   4.168   5.415 -0.0921 -0.9019 -0.3143
 5528SOL    HW217284   3.430   4.272   5.424 -0.0549 -0.9150  0.3578
 5529SOL     OW17285   7.145   2.461   6.431  0.0649 -0.0778  0.0711
 5529SOL    HW117286   7.213   2.412   6.385 -0.4254 -0.7670  0.0756
 5529SOL    HW217287   7.161   2.552   6.406  0.5228 -0.3165 -0.5280
 5530SOL     OW17288   0.599   3.062   1.285 -0.3492 -0.4210  0.5515
 5530SOL    HW117289   0.534   3.132   1.278 -0.3333 -0.3675  0.9021
 5530SOL    HW217290   0.604   3.043   1.379  0.3559 -0.2230  0.5582
 5531SOL     OW17291   3.661   2.571   5.428  0.1230 -0.0957 -0.7115
 5531SOL    HW117292   3.623   2.652   5.393 -1.1392 -1.5142 -2.9100
 5531SOL    HW217293   3.670   2.587   5.522 -0.5708  2.3769 -0.9906
 5532SOL     OW17294   4.031   3.881   7.403  0.9657  0.0542 -0.2430
 5532SOL    HW117295   3.960   3.922   7.354  2.0204  2.6300  0.2501
 5532SOL    HW217296   4.109   3.895   7.349  1.3495 -1.5867 -0.1618
 5533SOL     OW17297   4.950   0.553   6.057  0.5547 -0.0263  0.2234
 5533SOL    HW117298   4.953   0.623   6.121 -1.3347 -1.5142  2.0769
 5533SOL    HW217299   4.899   0.589   5.984  0.6199  0.9035  0.6256
 5534SOL     OW17300   2.618   0.540   0.755 -0.2793  0.6193  0.1992
 5534SOL    HW117301   2.687   0.514   0.816 -0.7844 -0.0185  0.5061
 5534SOL    HW217302   2.638   0.631   0.733  0.4996  0.5264  0.4979
 5535SOL     OW17303   6.051   2.774   4.958  0.0802 -0.1290 -0.1548
 5535SOL    HW117304   6.043   2.782   4.863 -1.1353  1.1289  0.0095
 5535SOL    HW217305   6.070   2.863   4.988 -0.7290 -0.2790  0.8638
 5536SOL     OW17306   2.922   7.940   0.454 -0.0568  0.3291  0.0790
 5536SOL    HW117307   2.922   7.886   0.533 -2.2744 -1.0335 -0.7685
 5536SOL    HW217308   2.883   7.884   0.387  1.6108  1.4984 -1.9840
 5537SOL     OW17309   3.331   5.056   6.242 -0.2111  0.6928 -0.3519
 5537SOL    HW117310   3.301   4.974   6.202 -1.8322  1.0655  0.0483
 5537SOL    HW217311   3.287   5.058   6.327 -1.0641  2.4855 -0.7968
 5538SOL     OW17312   3.058   3.269   3.998  0.2805  0.4061 -0.0198
 5538SOL    HW117313   3.121   3.334   3.967 -0.3509  1.3864  0.6862
 5538SOL    HW217314   2.989   3.270   3.932  1.1621 -0.9921 -1.0306
 5539SOL     OW17315   5.722   1.279   2.287 -0.2438  0.1107 -0.0168
 5539SOL    HW117316   5.700   1.203   2.232 -0.3905 -0.1268  0.3625
 5539SOL    HW217317   5.809   1.259   2.320  0.7250  1.1950 -1.7673
 5540SOL     OW17318   1.914   3.558   7.747  0.5500  0.0105 -0.0441
 5540SOL    HW117319   1.923   3.544   7.841 -1.3107 -1.1625 -0.0104
 5540SOL    HW217320   1.840   3.618   7.738 -1.2182 -2.1576 -0.8263
 5541SOL     OW17321   3.688   0.241   4.249  0.0755 -0.6669  0.3284
 5541SOL    HW117322   3.759   0.177   4.252  0.2845 -0.7067 -2.5995
 5541SOL    HW217323   3.628   0.214   4.318  2.3995 -1.1928  2.2593
 5542SOL     OW17324   1.360   6.827   7.786  0.4887  0.7924  0.4476
 5542SOL    HW117325   1.292   6.888   7.813 -0.5126 -0.4913  0.9072
 5542SOL    HW217326   1.358   6.758   7.852  0.0390 -0.9006 -1.2732
 5543SOL     OW17327   6.404   4.494   4.138  0.1353 -0.3962 -0.1097
 5543SOL    HW117328   6.392   4.581   4.177 -0.6136 -0.1325 -0.9131
 5543SOL    HW217329   6.403   4.434   4.213  0.8445  0.2959  0.4694
 5544SOL     OW17330   7.952   6.603   0.170 -0.1054 -0.3280 -0.2225
 5544SOL    HW117331   7.906   6.588   0.087  0.1175 -0.3140 -0.3474
 5544SOL    HW217332   7.917   6.687   0.201  0.8747  0.4136 -1.0267
 5545SOL     OW17333   0.930   5.361   5.728  0.0232  0.8978 -0.2149
 5545SOL    HW117334   1.000   5.295   5.733 -0.6964  0.1349  0.0681
 5545SOL    HW217335   0.853   5.311   5.698 -0.8799  1.3284  1.3063
 5546SOL     OW17336   1.503   6.755   3.855  0.0912  0.1560  0.1643
 5546SOL    HW117337   1.532   6.774   3.765 -2.2034 -1.1097 -0.9307
 5546SOL    HW217338   1.510   6.660   3.863 -2.4114 -0.0792  0.2532
 5547SOL     OW17339   0.033   4.692   7.873  0.1570 -0.1274  0.0030
 5547SOL    HW117340   0.104   4.746   7.838 -2.4229  1.0034 -4.2832
 5547SOL    HW217341  -0.024   4.754   7.918  0.3259 -0.4750  0.7031
 5548SOL     OW17342   2.290   7.329   6.248 -0.3414 -0.1481  0.6168
 5548SOL    HW117343   2.248   7.339   6.163 -0.2178 -1.5974  0.3674
 5548SOL    HW217344   2.382   7.353   6.233  0.1770 -2.4031 -0.2052
 5549SOL     OW17345   4.125   5.529   1.896 -0.3295  0.0645  0.3251
 5549SOL    HW117346   4.173   5.540   1.814  0.8083 -0.6718  0.8662
 5549SOL    HW217347   4.115   5.618   1.931  0.6436  0.2391  0.1892
 5550SOL     OW17348   2.963   4.717   5.196  0.0219  0.4164 -0.3986
 5550SOL    HW117349   2.925   4.782   5.138 -0.7046  0.8254  0.5058
 5550SOL    HW217350   3.055   4.745   5.206 -0.3176  1.4247  0.1076
 5551SOL     OW17351   2.274   5.797   6.280 -0.3734  0.8010  0.3130
 5551SOL    HW117352   2.362   5.834   6.277  0.1920 -0.5567 -0.7909
 5551SOL    HW217353   2.279   5.717   6.228 -2.4053  0.9777 -0.2656
 5552SOL     OW17354   7.559   5.934   7.727  0.2821 -0.2286  0.3297
 5552SOL    HW117355   7.593   5.906   7.812 -0.8785 -2.6812  0.0540
 5552SOL    HW217356   7.491   5.998   7.749  1.3301  0.6618  1.1061
 5553SOL     OW17357   5.396   3.480   2.581  0.4300  0.6317 -0.2860
 5553SOL    HW117358   5.330   3.549   2.590 -0.1356 -0.0336  0.9988
 5553SOL    HW217359   5.371   3.433   2.501 -1.1837 -0.1180  0.6108
 5554SOL     OW17360   7.970   6.251   0.308  0.5880 -0.1395  0.3842
 5554SOL    HW117361   7.978   6.342   0.335  0.7365  0.1508 -0.6054
 5554SOL    HW217362   7.889   6.220   0.350 -0.3771  0.9424 -0.6011
 5555SOL     OW17363   3.998   5.791   4.376  0.4204 -0.1516  0.7363
 5555SOL    HW117364   3.937   5.781   4.302 -1.2151 -1.0017  2.1341
 5555SOL    HW217365   4.022   5.701   4.399  1.1932  0.1249  1.0181
 5556SOL     OW17366   1.985   0.679   0.253 -0.1448  0.1006 -0.1275
 5556SOL    HW117367   1.944   0.593   0.255 -2.3140  1.0497 -1.1700
 5556SOL    HW217368   1.912   0.740   0.246  1.3503  2.0365  0.3764
 5557SOL     OW17369   5.622   2.835   7.831 -0.6262 -0.3794 -0.6083
 5557SOL    HW117370   5.673   2.756   7.852  0.9143  0.9496  0.9251
 5557SOL    HW217371   5.595   2.822   7.740 -0.4253 -2.6688 -0.4059
 5558SOL     OW17372   0.064   1.667   5.355 -0.1401 -0.5041 -0.7587
 5558SOL    HW117373   0.004   1.599   5.385  0.2195 -0.7005 -0.4716
 5558SOL    HW217374   0.042   1.680   5.263  0.5023 -1.7873 -1.1154
 5559SOL     OW17375   5.682   5.725   0.105  0.4801 -0.5922  0.2985
 5559SOL    HW117376   5.594   5.722   0.144  1.3157  0.1590  2.3288
 5559SOL    HW217377   5.705   5.818   0.105  1.1826 -0.7562 -0.5083
 5560SOL     OW17378   6.454   7.785   4.559 -0.1534  0.2754  0.5551
 5560SOL    HW117379   6.517   7.857   4.558  0.3350 -0.0670 -2.1396
 5560SOL    HW217380   6.404   7.796   4.478  0.6505 -2.8915 -0.5493
 5561SOL     OW17381   4.733   4.837   2.609 -0.0451 -0.3807 -0.4232
 5561SOL    HW117382   4.720   4.923   2.648  1.5948 -0.8187  1.2690
 5561SOL    HW217383   4.670   4.781   2.654 -0.3410 -0.2841 -0.7145
 5562SOL     OW17384   2.316   5.217   7.216  0.2335 -0.0306 -0.7675
 5562SOL    HW117385   2.329   5.251   7.128  1.3695 -0.2003 -0.6866
 5562SOL    HW217386   2.368   5.137   7.218 -0.0498 -0.2028 -0.0448
 5563SOL     OW17387   2.998   6.854   4.324 -0.1875 -0.4666 -0.0139
 5563SOL    HW117388   3.016   6.767   4.290 -0.2350 -0.7855  0.7458
 5563SOL    HW217389   3.084   6.897   4.328 -0.2178 -0.3194 -0.7888
 5564SOL     OW17390   2.999   4.421   0.245  0.3107 -0.3446 -0.1365
 5564SOL    HW117391   3.058   4.348   0.264 -0.5432 -0.7162  1.2788
 5564SOL    HW217392   2.914   4.379   0.231 -0.0067  0.3250 -0.2294
 5565SOL     OW17393   7.323   5.592   1.331  0.5817  0.3508  0.4387
 5565SOL    HW117394   7.355   5.521   1.388  0.2765 -0.5608 -0.4876
 5565SOL    HW217395   7.380   5.666   1.351 -0.4031  0.5164  2.9398
 5566SOL     OW17396   4.764   7.847   1.690 -0.4230 -0.2643  0.0696
 5566SOL    HW117397   4.687   7.811   1.735  0.1746 -1.1459  0.4031
 5566SOL    HW217398   4.788   7.924   1.742 -0.5206 -0.5288  0.5113
 5567SOL     OW17399   2.301   1.630   3.456 -0.0465 -0.7523  0.3957
 5567SOL    HW117400   2.374   1.581   3.418  0.6189  0.1752  0.4465
 5567SOL    HW217401   2.272   1.688   3.386 -0.0886 -0.4167  0.6880
 5568SOL     OW17402   4.627   5.543   5.158 -0.0638 -0.2623  0.0486
 5568SOL    HW117403   4.585   5.629   5.151 -0.3750 -0.4316 -0.1513
 5568SOL    HW217404   4.714   5.563   5.194 -0.1570  0.1291  0.0695
 5569SOL     OW17405   3.157   1.080   0.779 -0.0209  0.1576 -0.0905
 5569SOL    HW117406   3.190   1.161   0.818 -0.6464 -0.6624  2.3309
 5569SOL    HW217407   3.063   1.096   0.768 -0.0804 -0.0969  0.0473
 5570SOL     OW17408   3.019   3.881   2.373  0.2865  0.3333 -0.4170
 5570SOL    HW117409   3.011   3.909   2.464 -0.2389 -0.5439 -0.1819
 5570SOL    HW217410   3.012   3.961   2.322  0.2113  0.7875  0.2986
 5571SOL     OW17411   0.948   4.847   3.260 -0.3678  0.2842  0.4943
 5571SOL    HW117412   1.006   4.891   3.322  1.8402  0.1380 -1.3280
 5571SOL    HW217413   0.902   4.918   3.216  1.4226  0.7318 -0.7720
 5572SOL     OW17414   6.660   0.017   0.146  0.0380 -0.0396 -0.2677
 5572SOL    HW117415   6.748  -0.019   0.156  0.1054  0.1058 -0.3487
 5572SOL    HW217416   6.667   0.079   0.073 -0.5072 -1.3142 -1.4625
 5573SOL     OW17417   0.853   7.211   4.439 -0.2022  0.7032  0.0283
 5573SOL    HW117418   0.891   7.246   4.358  1.3823 -1.4056 -0.2253
 5573SOL    HW217419   0.907   7.248   4.508 -1.0819  1.9041  0.1006
 5574SOL     OW17420   3.880   0.936   1.064 -0.2595 -0.6200 -0.1972
 5574SOL    HW117421   3.878   0.983   1.147 -0.0756  0.2811 -0.6894
 5574SOL    HW217422   3.793   0.952   1.026 -0.3344 -1.0087 -0.1975
 5575SOL     OW17423   4.053   2.929   0.456  0.3003 -0.1487  0.4348
 5575SOL    HW117424   4.033   3.022   0.472  1.6511  0.6203 -1.9030
 5575SOL    HW217425   4.138   2.915   0.498  0.4827 -0.0922  0.0880
 5576SOL     OW17426   0.264   2.943   4.401  0.5344 -0.1395  0.1192
 5576SOL    HW117427   0.280   3.024   4.449 -0.6985 -0.4649  1.1617
 5576SOL    HW217428   0.239   2.880   4.469 -2.6388 -0.2754 -0.9747
 5577SOL     OW17429   1.363   3.349   1.492 -0.2052  1.1158  0.5420
 5577SOL    HW117430   1.331   3.308   1.411  2.4423 -0.2220  0.0657
 5577SOL    HW217431   1.311   3.308   1.561 -1.1654  0.8129 -0.3229
 5578SOL     OW17432   6.132   0.969   4.260 -0.1739  0.3101 -0.1681
 5578SOL    HW117433   6.184   0.981   4.339  0.3250  1.4922 -0.6484
 5578SOL    HW217434   6.194   0.985   4.188 -0.5484 -1.0220 -0.8112
 5579SOL     OW17435   1.678   3.890   2.389 -0.3929  0.3313 -0.3787
 5579SOL    HW117436   1.677   3.984   2.409  2.5538  0.8142 -1.8958
 5579SOL    HW217437   1.609   3.878   2.324 -1.2673  1.2764  0.3471
 5580SOL     OW17438   7.820   5.984   4.616 -0.4019 -0.1237 -0.1601
 5580SOL    HW117439   7.726   5.967   4.610 -0.6185  1.0956 -0.6208
 5580SOL    HW217440   7.826   6.073   4.650  0.5711  0.0774 -0.8105
 5581SOL     OW17441   7.846   0.597   3.877  0.1163 -0.3238 -0.8440
 5581SOL    HW117442   7.754   0.574   3.883 -0.2917  0.9944 -1.6811
 5581SOL    HW217443   7.892   0.514   3.888 -1.1872 -1.0880 -0.9758
 5582SOL     OW17444   4.743   0.962   5.074  0.1239 -0.0612 -0.3465
 5582SOL    HW117445   4.747   1.042   5.022 -1.6621  0.0115 -0.4237
 5582SOL    HW217446   4.742   0.891   5.010 -2.7902  0.0467 -0.5717
 5583SOL     OW17447   2.218   7.946   3.398 -0.1193 -0.2140  0.5854
 5583SOL    HW117448   2.291   7.988   3.353 -0.4109  0.6877  0.9474
 5583SOL    HW217449   2.249   7.857   3.415 -0.0530 -0.6713 -1.5624
 5584SOL     OW17450   2.953   0.254   1.041 -0.6001  0.0358  0.0512
 5584SOL    HW117451   2.914   0.166   1.044 -0.2508 -0.1773 -1.2341
 5584SOL    HW217452   2.977   0.272   1.132 -1.1540 -0.9784  0.4186
 5585SOL     OW17453   7.137   7.906   1.486 -0.0124 -0.2733  1.0940
 5585SOL    HW117454   7.164   7.997   1.480 -0.3411 -0.0576  2.5553
 5585SOL    HW217455   7.211   7.856   1.451  0.2556  0.5272  0.4991
 5586SOL     OW17456   3.208   1.234   3.192 -0.2143  0.4502 -0.6486
 5586SOL    HW117457   3.117   1.253   3.169 -0.1820 -0.3415 -1.4990
 5586SOL    HW217458   3.233   1.305   3.251 -1.9935 -0.3679  1.2295
 5587SOL     OW17459   3.594   2.272   4.615 -0.0398 -0.3666 -0.2348
 5587SOL    HW117460   3.659   2.204   4.596 -0.1002 -0.1728 -1.1836
 5587SOL    HW217461   3.532   2.267   4.543  0.3124  1.1189 -0.6670
 5588SOL     OW17462   1.917   1.687   5.901 -0.4981  0.1650  0.8275
 5588SOL    HW117463   1.845   1.671   5.962  0.8810 -2.4808  1.9375
 5588SOL    HW217464   1.971   1.754   5.945 -1.2271  0.6992  0.9245
 5589SOL     OW17465   0.218   7.825   4.825  0.3772  0.8196 -0.5571
 5589SOL    HW117466   0.243   7.746   4.776 -2.0167  0.2451 -0.9608
 5589SOL    HW217467   0.150   7.865   4.771 -0.1679  1.8384  0.8611
 5590SOL     OW17468   3.141   0.223   7.009  0.5756 -0.0094 -0.3122
 5590SOL    HW117469   3.119   0.239   6.917 -2.1764 -1.4308 -0.0070
 5590SOL    HW217470   3.146   0.128   7.016 -0.5894  0.0175  1.2519
 5591SOL     OW17471   7.451   4.390   0.884 -0.3596  0.4347  0.0585
 5591SOL    HW117472   7.531   4.438   0.906  0.8477 -0.9534 -1.1062
 5591SOL    HW217473   7.383   4.457   0.880  1.1281  1.9477 -0.8489
 5592SOL     OW17474   0.198   6.031   6.385  0.0240 -0.2021  0.0705
 5592SOL    HW117475   0.143   6.095   6.339  2.4357  1.6009 -0.5311
 5592SOL    HW217476   0.192   5.952   6.332  0.0370  0.7719 -1.4617
 5593SOL     OW17477   5.118   6.091   7.696 -0.4493  0.2118  0.2551
 5593SOL    HW117478   5.100   6.093   7.790  0.0601 -1.6674  0.4266
 5593SOL    HW217479   5.213   6.078   7.690 -0.4253  0.6728 -0.5386
 5594SOL     OW17480   1.286   3.270   0.837 -0.1187  0.3929  0.2510
 5594SOL    HW117481   1.250   3.339   0.780 -1.2848 -0.4863 -0.1166
 5594SOL    HW217482   1.211   3.241   0.889  0.8480  0.9304  2.0330
 5595SOL     OW17483   3.315   6.148   0.370 -0.5848 -0.5806  0.3187
 5595SOL    HW117484   3.328   6.053   0.371  1.4160 -0.3470  1.0055
 5595SOL    HW217485   3.394   6.183   0.329 -2.5154  0.6986 -2.6089
 5596SOL     OW17486   2.031   7.453   6.539  0.3180  0.2582 -0.4007
 5596SOL    HW117487   1.946   7.436   6.580 -0.1374  0.6056 -1.1803
 5596SOL    HW217488   2.055   7.369   6.500 -0.1668  0.4252 -1.0698
 5597SOL     OW17489   0.132   2.353   7.577  0.0770  0.7704 -0.3797
 5597SOL    HW117490   0.080   2.284   7.619  1.6326  0.1346  0.5766
 5597SOL    HW217491   0.089   2.367   7.493 -0.7975 -0.7487 -0.2310
 5598SOL     OW17492   6.224   0.108   6.673 -0.0954  0.1790 -0.3775
 5598SOL    HW117493   6.264   0.054   6.741  2.4128  2.7173  0.3559
 5598SOL    HW217494   6.169   0.170   6.720 -0.3710  0.3451 -0.9090
 5599SOL     OW17495   0.243   2.945   5.417 -0.3886  0.1577 -0.4809
 5599SOL    HW117496   0.316   2.884   5.420 -0.0997  0.5127 -0.1409
 5599SOL    HW217497   0.219   2.958   5.509  1.3476  2.6759 -0.2778
 5600SOL     OW17498   7.599   3.272   5.789 -0.3637  0.4032  0.5475
 5600SOL    HW117499   7.576   3.306   5.875  0.5518 -1.1900  1.4884
 5600SOL    HW217500   7.680   3.223   5.804  0.0073  0.3645 -1.3013
 5601SOL     OW17501   1.161   2.655   0.547  0.1028 -0.5457 -0.3821
 5601SOL    HW117502   1.085   2.600   0.564 -0.0890 -0.2426 -0.2623
 5601SOL    HW217503   1.222   2.598   0.499 -0.1231 -0.8394 -0.3178
 5602SOL     OW17504   2.071   5.382   0.155 -0.0098  0.4211  0.4930
 5602SOL    HW117505   2.083   5.448   0.088 -1.1426  1.4771  1.2832
 5602SOL    HW217506   2.116   5.305   0.121  0.9485  1.4472 -0.6582
 5603SOL     OW17507   6.069   3.633   4.087  0.4951 -0.1280  0.1689
 5603SOL    HW117508   6.149   3.646   4.036  0.3657  1.4427  0.3359
 5603SOL    HW217509   6.003   3.612   4.021  0.8931 -0.7877 -0.0312
 5604SOL     OW17510   7.401   6.407   5.624  0.1752  0.8441 -0.4010
 5604SOL    HW117511   7.334   6.404   5.556  1.4017  0.0422 -1.6214
 5604SOL    HW217512   7.484   6.394   5.578  1.0618  0.3724  1.2190
 5605SOL     OW17513   4.167   7.938   7.266  0.1938  0.1946 -0.1601
 5605SOL    HW117514   4.080   7.978   7.273 -0.1112 -0.5883  0.5369
 5605SOL    HW217515   4.150   7.846   7.248  0.8916  0.1485 -0.6049
 5606SOL     OW17516   5.117   5.538   2.432 -0.0461  0.5469 -0.0476
 5606SOL    HW117517   5.162   5.605   2.485 -0.1036  0.4109  0.1725
 5606SOL    HW217518   5.164   5.457   2.452 -1.9543 -0.1192  2.1770
 5607SOL     OW17519   7.436   3.552   4.916 -0.0329  0.1772  0.0482
 5607SOL    HW117520   7.527   3.562   4.887  0.1599  2.6919  1.2476
 5607SOL    HW217521   7.411   3.639   4.946 -3.0920 -0.2759 -0.8636
 5608SOL     OW17522   4.165   1.153   4.543 -0.0436 -0.1122 -0.3642
 5608SOL    HW117523   4.237   1.166   4.480  1.7141  0.7452  1.6989
 5608SOL    HW217524   4.191   1.203   4.620 -2.9241  0.2486  0.4839
 5609SOL     OW17525   6.420   0.294   3.087  0.0301 -0.4683 -0.3464
 5609SOL    HW117526   6.510   0.267   3.071 -0.1350 -0.7881 -0.7800
 5609SOL    HW217527   6.426   0.364   3.152  0.4150 -2.0074  1.3322
 5610SOL     OW17528   4.084   5.956   5.966 -0.5512 -0.0006  0.2951
 5610SOL    HW117529   4.096   6.007   5.886 -0.9473 -0.8161 -0.2922
 5610SOL    HW217530   4.002   5.989   6.003  0.1998  1.1768  0.9958
 5611SOL     OW17531   0.751   5.688   3.090  0.7391  0.3774 -0.0565
 5611SOL    HW117532   0.733   5.703   3.183 -0.0908  2.8987 -0.5530
 5611SOL    HW217533   0.684   5.625   3.063  1.6585 -1.2476  1.2300
 5612SOL     OW17534   4.468   5.156   3.647 -0.4773  0.7154  0.3309
 5612SOL    HW117535   4.560   5.181   3.642 -1.0858  3.5947  1.5982
 5612SOL    HW217536   4.450   5.148   3.741 -1.0575 -2.0246  0.0694
 5613SOL     OW17537   2.394   7.025   7.079  0.1567  0.1830  0.2929
 5613SOL    HW117538   2.451   6.972   7.023 -0.2155 -0.3416  0.4008
 5613SOL    HW217539   2.336   7.070   7.017  0.0327 -0.0625  0.2257
 5614SOL     OW17540   2.829   6.497   3.465 -0.3140 -0.1336  0.4963
 5614SOL    HW117541   2.837   6.451   3.382 -0.4387 -0.5070  0.6881
 5614SOL    HW217542   2.734   6.507   3.478 -0.3121 -0.4837  0.8092
 5615SOL     OW17543   4.717   1.196   7.071  0.1397 -0.5054 -0.0244
 5615SOL    HW117544   4.786   1.236   7.019 -0.3782  1.7228  0.8655
 5615SOL    HW217545   4.754   1.188   7.159  0.2340 -2.0601 -0.1913
 5616SOL     OW17546   3.926   1.257   6.250  0.3694 -0.0847 -0.5019
 5616SOL    HW117547   3.935   1.240   6.344 -0.4856 -0.3354 -0.4617
 5616SOL    HW217548   3.838   1.292   6.240  0.7466  0.7269 -1.1042
 5617SOL     OW17549   6.960   4.114   1.835 -0.3163 -0.4040 -0.4444
 5617SOL    HW117550   7.005   4.174   1.775  0.7584 -0.9046 -0.1652
 5617SOL    HW217551   6.933   4.040   1.780 -0.2913 -0.3627 -0.5119
 5618SOL     OW17552   2.335   0.957   2.461  0.0736 -0.3395 -0.1999
 5618SOL    HW117553   2.287   0.935   2.541  0.7878  2.0707  0.9767
 5618SOL    HW217554   2.427   0.963   2.488  0.0497  3.4219 -0.3644
 5619SOL     OW17555   6.134   4.794   2.845 -0.2100 -0.3036 -0.1837
 5619SOL    HW117556   6.084   4.840   2.778  0.9942 -0.1112 -0.9723
 5619SOL    HW217557   6.186   4.730   2.797 -0.0388 -0.8121  0.6618
 5620SOL     OW17558   0.623   0.111   4.740 -0.0492 -0.0853 -0.1638
 5620SOL    HW117559   0.658   0.100   4.652 -1.7431 -2.5213 -0.6639
 5620SOL    HW217560   0.528   0.109   4.728 -0.3256 -1.0451  1.7446
 5621SOL     OW17561   0.606   3.048   7.542  0.3511 -0.2008 -0.3625
 5621SOL    HW117562   0.617   2.962   7.583 -0.4440 -0.5594 -0.8812
 5621SOL    HW217563   0.680   3.099   7.575 -0.0337 -0.5911  1.1916
 5622SOL     OW17564   3.300   3.237   1.813 -0.8704 -0.3751  0.0246
 5622SOL    HW117565   3.322   3.163   1.869 -1.8775 -0.1406  0.7425
 5622SOL    HW217566   3.340   3.313   1.856 -4.7887  0.4689  2.6765
 5623SOL     OW17567   5.745   5.696   2.910 -0.2941  0.4198  0.2218
 5623SOL    HW117568   5.772   5.622   2.965  0.2232  0.7487  0.4147
 5623SOL    HW217569   5.823   5.752   2.905 -0.8781  1.2801  0.6101
 5624SOL     OW17570   6.604   2.004   6.965 -0.0956 -0.1470  0.3036
 5624SOL    HW117571   6.595   1.950   6.886 -2.2735 -0.4628  0.6906
 5624SOL    HW217572   6.669   2.070   6.942 -2.5392  1.4628 -2.8239
 5625SOL     OW17573   1.038   0.970   3.006 -0.3315 -0.1495 -0.0638
 5625SOL    HW117574   1.082   0.886   2.993 -1.3856 -0.5115 -1.4949
 5625SOL    HW217575   0.975   0.976   2.934 -0.4372  1.7691  0.1315
 5626SOL     OW17576   6.590   3.768   4.730 -0.6075  0.0388 -0.0819
 5626SOL    HW117577   6.592   3.679   4.765  0.7070 -0.8943 -2.3195
 5626SOL    HW217578   6.679   3.801   4.743 -1.1897  1.2442  1.1138
 5627SOL     OW17579   3.602   5.293   2.955 -0.2381 -0.1650  0.3831
 5627SOL    HW117580   3.535   5.252   3.010 -0.8103  0.2896  0.0434
 5627SOL    HW217581   3.584   5.387   2.961  0.3291 -0.0440  0.2316
 5628SOL     OW17582   0.164   1.790   6.713  0.8737  0.4204 -0.1183
 5628SOL    HW117583   0.090   1.839   6.677  1.1732  1.0763  0.1359
 5628SOL    HW217584   0.124   1.711   6.750  0.3314  0.6316 -0.2352
 5629SOL     OW17585   2.958   4.577   4.360  0.1845 -0.2095  0.3915
 5629SOL    HW117586   3.038   4.617   4.326 -0.4666 -0.2636 -1.3060
 5629SOL    HW217587   2.973   4.569   4.454  2.2086 -0.3123  0.0958
 5630SOL     OW17588   6.099   0.183   4.623 -0.8154  0.0606 -0.3816
 5630SOL    HW117589   6.103   0.179   4.527  0.5172  1.4421 -0.4219
 5630SOL    HW217590   6.156   0.111   4.652  0.1878  0.7132 -0.6705
 5631SOL     OW17591   2.882   7.505   0.551  0.3793  0.1333 -0.2629
 5631SOL    HW117592   2.820   7.454   0.604  0.4953 -0.0073 -0.2640
 5631SOL    HW217593   2.869   7.472   0.461  0.7943 -0.2293 -0.1915
 5632SOL     OW17594   3.605   2.290   0.357  0.3703 -0.2454 -0.1914
 5632SOL    HW117595   3.662   2.360   0.389 -0.7819  0.3308  0.6639
 5632SOL    HW217596   3.521   2.333   0.338 -0.5482 -1.4721  0.8885
 5633SOL     OW17597   1.328   4.983   1.146  0.4204  0.0754  0.1127
 5633SOL    HW117598   1.414   4.966   1.185 -0.0156  0.7818  1.4516
 5633SOL    HW217599   1.268   4.925   1.194  0.1426 -0.4276 -0.8244
 5634SOL     OW17600   3.760   4.088   0.209 -0.3380  0.1130  0.0518
 5634SOL    HW117601   3.850   4.121   0.215 -0.9341  2.0604 -0.8135
 5634SOL    HW217602   3.720   4.113   0.292 -0.4730  0.5383 -0.1407
 5635SOL     OW17603   6.595   0.644   4.060 -0.0208 -0.0244  0.1915
 5635SOL    HW117604   6.576   0.561   4.016  2.5282 -1.2968  1.3322
 5635SOL    HW217605   6.528   0.651   4.128  0.0680 -1.4262  0.4433
 5636SOL     OW17606   2.353   4.918   6.098  0.0517 -0.5730 -0.6391
 5636SOL    HW117607   2.307   4.846   6.142  0.3692 -1.2891 -1.4452
 5636SOL    HW217608   2.376   4.882   6.012 -1.3207  1.0639 -1.7437
 5637SOL     OW17609   5.795   1.703   5.779  0.2155 -0.0558  0.6792
 5637SOL    HW117610   5.734   1.637   5.747  0.6080  0.9582 -2.4911
 5637SOL    HW217611   5.875   1.653   5.800  0.8209 -0.6790 -2.5081
 5638SOL     OW17612   0.381   4.740   6.012 -0.0269 -0.2425 -0.3382
 5638SOL    HW117613   0.412   4.748   5.921  0.8429 -1.1395 -0.1335
 5638SOL    HW217614   0.298   4.788   6.013 -0.0186 -0.1685 -1.5939
 5639SOL     OW17615   1.855   0.240   1.009 -0.1652  0.4283  0.2532
 5639SOL    HW117616   1.934   0.188   1.025 -1.3408 -1.2147  1.0500
 5639SOL    HW217617   1.841   0.234   0.914  0.2043  0.0067  0.2213
 5640SOL     OW17618   5.838   5.198   0.653 -0.1419 -0.3304  0.0173
 5640SOL    HW117619   5.755   5.159   0.627  0.2248 -0.8800 -0.3491
 5640SOL    HW217620   5.902   5.127   0.643  0.1897 -0.2532  1.3686
 5641SOL     OW17621   7.500   7.517   0.944 -0.5672  0.0332  0.2037
 5641SOL    HW117622   7.589   7.502   0.973 -0.3980 -0.8117 -0.6786
 5641SOL    HW217623   7.466   7.584   1.003  0.6584  0.4069  0.5151
 5642SOL     OW17624   2.068   7.148   4.665  0.5175  0.6010 -0.1556
 5642SOL    HW117625   2.001   7.119   4.727 -0.9747  1.9523 -1.0679
 5642SOL    HW217626   2.111   7.067   4.637 -1.1657 -0.3890 -0.0208
 5643SOL     OW17627   6.105   6.630   4.145  0.7228  0.1023 -0.4937
 5643SOL    HW117628   6.016   6.663   4.129  0.8218 -0.1295 -1.5746
 5643SOL    HW217629   6.110   6.548   4.095  0.6596 -1.3335  1.7083
 5644SOL     OW17630   5.884   6.043   5.476 -0.0990 -0.0459  0.0283
 5644SOL    HW117631   5.902   6.068   5.567 -0.9285  1.3968 -0.1810
 5644SOL    HW217632   5.846   5.955   5.482  1.3313 -0.6453  0.9250
 5645SOL     OW17633   3.757   7.769   3.053  0.4285  0.3257 -0.5253
 5645SOL    HW117634   3.806   7.845   3.082  1.8512 -0.7856  0.1123
 5645SOL    HW217635   3.819   7.718   3.001  0.3231 -1.5911  1.0750
 5646SOL     OW17636   1.981   0.338   7.768 -0.1970 -0.0126  0.0541
 5646SOL    HW117637   1.897   0.359   7.726  0.2819 -0.1903 -1.0197
 5646SOL    HW217638   2.021   0.423   7.784  0.5153  0.0467 -1.7631
 5647SOL     OW17639   7.067   1.814   0.081  0.2297  0.2084 -0.3582
 5647SOL    HW117640   7.134   1.856   0.135  0.7967 -1.1599  0.0651
 5647SOL    HW217641   7.083   1.848  -0.007  1.2619  0.1822 -0.1971
 5648SOL     OW17642   1.916   1.081   6.679  0.1014 -0.3964  0.2336
 5648SOL    HW117643   1.853   1.148   6.650 -0.0107 -1.2230 -1.5929
 5648SOL    HW217644   1.981   1.077   6.609  1.1306 -0.9293  1.1853
 5649SOL     OW17645   6.535   6.405   2.201 -0.0873  0.4456  0.9563
 5649SOL    HW117646   6.584   6.485   2.181 -0.0329  0.5295  1.4238
 5649SOL    HW217647   6.573   6.339   2.143 -2.3211  1.4639 -1.8926
 5650SOL     OW17648   2.412   1.765   1.890 -0.4277 -0.3054  0.5176
 5650SOL    HW117649   2.370   1.694   1.842 -1.6369  0.1777  0.8161
 5650SOL    HW217650   2.503   1.764   1.861 -1.0112 -0.3358 -1.4244
 5651SOL     OW17651   0.231   0.041   4.204  0.0228  0.2028  0.0645
 5651SOL    HW117652   0.163   0.025   4.139 -0.9720 -1.1832  1.3597
 5651SOL    HW217653   0.300  -0.021   4.183  0.6211  1.1368 -0.8343
 5652SOL     OW17654   0.613   2.159   6.027 -0.0818  0.7897 -0.2291
 5652SOL    HW117655   0.705   2.155   6.001  0.0226  0.5950  0.1554
 5652SOL    HW217656   0.592   2.253   6.027  0.3253  0.8914  0.3753
 5653SOL     OW17657   5.849   4.743   7.507  0.6061 -0.3951 -0.5977
 5653SOL    HW117658   5.772   4.725   7.561  1.9431 -1.3018  1.0993
 5653SOL    HW217659   5.815   4.795   7.434 -1.6067 -0.7935  0.0689
 5654SOL     OW17660   1.406   5.357   6.172  0.0096  0.6179 -0.2405
 5654SOL    HW117661   1.445   5.299   6.236 -1.8579 -1.1329 -0.5876
 5654SOL    HW217662   1.434   5.445   6.199  0.7103 -0.2009  1.9196
 5655SOL     OW17663   6.964   2.206   1.811  0.4009 -0.4651 -0.0828
 5655SOL    HW117664   6.993   2.116   1.795  1.0583 -0.4018  0.6658
 5655SOL    HW217665   7.037   2.260   1.780 -0.5567 -0.1076 -1.8153
 5656SOL     OW17666   0.641   7.147   4.263 -0.6889 -0.0088  0.3335
 5656SOL    HW117667   0.697   7.187   4.329  1.3805 -0.9224 -0.7614
 5656SOL    HW217668   0.664   7.054   4.265 -1.4555 -0.2456 -0.8520
 5657SOL     OW17669   0.998   7.618   2.813 -0.1253  0.4112 -0.0080
 5657SOL    HW117670   1.084   7.626   2.853 -0.2576  0.8797  0.1891
 5657SOL    HW217671   0.985   7.700   2.765 -0.6925  0.5821  0.4266
 5658SOL     OW17672   2.864   3.027   3.544  0.3190 -0.0489  0.3530
 5658SOL    HW117673   2.774   2.995   3.551  0.5592 -0.6802  0.5927
 5658SOL    HW217674   2.910   2.958   3.496  0.9145 -0.2118  1.1414
 5659SOL     OW17675   4.737   7.544   1.527  0.0573 -0.4878  0.4170
 5659SOL    HW117676   4.804   7.611   1.544 -0.4562 -0.4342  2.3615
 5659SOL    HW217677   4.658   7.577   1.569 -1.3204 -0.4799 -1.9534
 5660SOL     OW17678   7.522   5.170   7.431  0.0444 -0.4358 -0.5020
 5660SOL    HW117679   7.611   5.135   7.442 -0.0724 -0.7019 -0.3999
 5660SOL    HW217680   7.535   5.259   7.399  0.3824  0.0198  0.8236
 5661SOL     OW17681   6.598   6.963   7.869 -0.3358  0.0010 -0.0320
 5661SOL    HW117682   6.630   6.901   7.935 -1.3348 -0.6561 -0.1381
 5661SOL    HW217683   6.550   6.908   7.807  0.1929  0.6776 -1.0559
 5662SOL     OW17684   2.298   6.641   4.193 -0.1549 -0.5001  0.1341
 5662SOL    HW117685   2.348   6.699   4.135 -0.9065 -0.6265 -0.6728
 5662SOL    HW217686   2.231   6.697   4.230 -0.0709 -0.5639  0.3803
 5663SOL     OW17687   1.324   7.704   1.045 -0.1291 -0.2903 -0.1950
 5663SOL    HW117688   1.275   7.747   0.975  0.7922  0.7390 -0.2323
 5663SOL    HW217689   1.342   7.616   1.012 -1.2736 -0.4247 -0.4885
 5664SOL     OW17690   2.291   6.364   5.276  0.0561 -0.7802 -0.0175
 5664SOL    HW117691   2.230   6.434   5.253  0.4110 -0.7955 -1.0956
 5664SOL    HW217692   2.293   6.308   5.197  1.7540 -0.5591 -0.1671
 5665SOL     OW17693   6.419   4.852   1.663 -0.5516 -0.3263 -0.0491
 5665SOL    HW117694   6.335   4.882   1.698 -0.0982  0.4188  0.4384
 5665SOL    HW217695   6.484   4.893   1.720  0.1767  0.0194 -1.0994
 5666SOL     OW17696   6.687   4.564   1.786 -0.1807 -0.0059  0.1036
 5666SOL    HW117697   6.681   4.474   1.819 -0.1969  0.2656  0.8693
 5666SOL    HW217698   6.648   4.560   1.699 -1.2565 -0.5155  0.5817
 5667SOL     OW17699   3.476   7.939   3.872 -0.3674 -0.2041  0.3919
 5667SOL    HW117700   3.381   7.933   3.858 -0.8486  1.5503  2.3094
 5667SOL    HW217701   3.484   7.992   3.952  2.2019 -1.9857  1.4121
 5668SOL     OW17702   5.045   0.703   7.049 -0.4767 -0.1024  0.2987
 5668SOL    HW117703   5.123   0.755   7.064  0.4702 -1.2327 -0.4745
 5668SOL    HW217704   4.973   0.765   7.053  0.5197  1.0758  0.3950
 5669SOL     OW17705   2.276   2.158   0.349  0.2183 -0.8056 -0.3976
 5669SOL    HW117706   2.292   2.065   0.333 -0.8059 -0.6584 -2.8480
 5669SOL    HW217707   2.204   2.160   0.412  0.1184 -1.6790 -0.4733
 5670SOL     OW17708   3.266   2.950   7.409  0.1437 -0.4435 -0.3663
 5670SOL    HW117709   3.310   2.873   7.446 -0.0368 -0.9511 -1.1750
 5670SOL    HW217710   3.249   2.925   7.318 -0.5785  0.2804 -0.4311
 5671SOL     OW17711   3.489   5.839   4.194  0.2026  0.3119  0.0560
 5671SOL    HW117712   3.446   5.923   4.209  1.6236  0.7303  2.1700
 5671SOL    HW217713   3.419   5.781   4.166 -1.5305  1.2710  2.1266
 5672SOL     OW17714   6.953   3.068   3.120 -0.3635 -0.1808  0.7403
 5672SOL    HW117715   7.045   3.083   3.140 -0.6368  0.5847  1.4544
 5672SOL    HW217716   6.948   2.974   3.102  0.3765 -0.4243  1.7051
 5673SOL     OW17717   5.086   2.495   5.251 -0.6410 -0.1965  0.4152
 5673SOL    HW117718   5.087   2.544   5.169  2.5926  0.3802  0.6804
 5673SOL    HW217719   5.043   2.553   5.313 -1.1644  0.2602 -0.3565
 5674SOL     OW17720   4.035   6.475   4.965 -0.2288 -0.0853  0.1366
 5674SOL    HW117721   4.123   6.513   4.957 -0.6582  0.6983 -1.2928
 5674SOL    HW217722   4.043   6.388   4.924 -0.1296  0.0068 -0.0412
 5675SOL     OW17723   1.894   7.832   7.770 -0.8359  0.6589 -0.3579
 5675SOL    HW117724   1.944   7.913   7.782 -2.4182  1.6944 -0.4674
 5675SOL    HW217725   1.838   7.849   7.694 -1.5907 -0.3248 -0.0465
 5676SOL     OW17726   0.880   1.514   1.183  0.6613  0.0643 -0.4897
 5676SOL    HW117727   0.950   1.579   1.184  0.5797  0.1747 -1.4489
 5676SOL    HW217728   0.813   1.551   1.126 -0.0719 -0.1682  0.1867
 5677SOL     OW17729   1.449   7.015   5.583 -0.5294 -0.4835 -0.3526
 5677SOL    HW117730   1.393   7.078   5.538 -0.5531 -1.4540 -1.7421
 5677SOL    HW217731   1.538   7.040   5.559 -0.2583  1.1811  2.0138
 5678SOL     OW17732   2.108   2.395   3.474  0.5885 -0.1821 -0.3722
 5678SOL    HW117733   2.051   2.336   3.425  0.0384 -2.0646  2.3348
 5678SOL    HW217734   2.197   2.370   3.448  0.3033 -0.4724 -1.0881
 5679SOL     OW17735   3.212   1.704   3.602  0.0173  0.0056  0.2060
 5679SOL    HW117736   3.196   1.745   3.688 -0.6966 -0.6865  0.4135
 5679SOL    HW217737   3.272   1.764   3.558  1.1448 -0.0807  1.5480
 5680SOL     OW17738   4.389   7.614   3.667  0.2267 -0.5874  0.4351
 5680SOL    HW117739   4.407   7.654   3.581  0.0068  0.6228  0.9280
 5680SOL    HW217740   4.467   7.563   3.687  0.2863 -0.8789 -0.4762
 5681SOL     OW17741   1.731   3.993   0.431 -0.2173 -0.8972  0.2080
 5681SOL    HW117742   1.699   4.082   0.414  0.0300 -1.1702 -2.0436
 5681SOL    HW217743   1.692   3.970   0.515  1.4066  2.0657  1.9707
 5682SOL     OW17744   3.491   5.166   5.767  0.3472  0.3415 -0.0240
 5682SOL    HW117745   3.402   5.163   5.804 -0.4437 -2.0500 -1.8483
 5682SOL    HW217746   3.548   5.178   5.843 -1.4815  1.6553  1.2471
 5683SOL     OW17747   0.644   4.764   7.429  0.3077 -0.3410  0.4297
 5683SOL    HW117748   0.694   4.685   7.410  1.9994  0.9126 -0.6464
 5683SOL    HW217749   0.630   4.804   7.343 -3.1805 -0.9319  0.5906
 5684SOL     OW17750   7.904   7.019   3.484  0.0583 -0.2090 -0.3878
 5684SOL    HW117751   7.890   6.986   3.572 -1.0113 -0.6972 -0.7258
 5684SOL    HW217752   7.992   6.989   3.461  0.4077  0.0544  0.5507
 5685SOL     OW17753   7.287   1.861   0.527 -0.3391 -0.5310 -1.3336
 5685SOL    HW117754   7.348   1.924   0.566 -0.4190 -0.0039 -2.0390
 5685SOL    HW217755   7.343   1.803   0.475 -0.1354 -1.7422  0.1882
 5686SOL     OW17756   0.134   4.635   6.361 -1.1380  0.5294  0.0270
 5686SOL    HW117757   0.134   4.634   6.456  0.6725  1.8331  0.0789
 5686SOL    HW217758   0.079   4.710   6.338  1.4176  2.5754  0.1997
 5687SOL     OW17759   1.335   0.894   1.571  0.9078 -0.5100  0.4357
 5687SOL    HW117760   1.284   0.844   1.507  1.3194 -1.5253  0.8778
 5687SOL    HW217761   1.426   0.874   1.551  1.0323 -1.2352  1.6308
 5688SOL     OW17762   7.403   2.992   1.014 -0.0488 -0.2642  0.0255
 5688SOL    HW117763   7.389   2.910   0.967  0.5683 -0.2756 -0.1441
 5688SOL    HW217764   7.328   3.000   1.073 -0.1555 -0.9003 -0.0266
 5689SOL     OW17765   6.677   6.461   5.398 -0.0863 -0.3795  0.4530
 5689SOL    HW117766   6.702   6.370   5.414 -0.9763 -0.7885 -0.4159
 5689SOL    HW217767   6.758   6.503   5.367  0.2911 -0.9062  0.7134
 5690SOL     OW17768   5.526   1.552   4.751  0.5777 -0.3847 -0.3209
 5690SOL    HW117769   5.474   1.472   4.747 -1.5879  0.9379 -0.0584
 5690SOL    HW217770   5.531   1.573   4.844 -0.4194  0.6949 -0.4818
 5691SOL     OW17771   1.548   2.401   2.072  0.2773  0.2981 -0.1019
 5691SOL    HW117772   1.545   2.483   2.121 -0.1676  1.2607 -1.6901
 5691SOL    HW217773   1.497   2.418   1.993  1.0612 -1.1797 -0.9635
 5692SOL     OW17774   5.039   2.911   5.004  0.5610 -0.0198  0.0612
 5692SOL    HW117775   5.037   2.815   5.001  0.8263 -0.0057 -1.0201
 5692SOL    HW217776   4.975   2.937   4.938 -0.0066  0.5574  0.8311
 5693SOL     OW17777   5.262   4.610   0.896 -0.1777 -0.1034 -0.1347
 5693SOL    HW117778   5.271   4.639   0.805 -0.7965 -2.2808 -0.9560
 5693SOL    HW217779   5.167   4.604   0.909 -0.0759 -0.9417  0.2495
 5694SOL     OW17780   3.877   3.614   6.519 -0.0762  0.0242  0.1526
 5694SOL    HW117781   3.912   3.670   6.588 -0.5707  1.4985 -0.7461
 5694SOL    HW217782   3.954   3.581   6.473  0.2200  1.3887 -0.3795
 5695SOL     OW17783   7.354   3.067   3.572 -0.2399  0.3544  0.0950
 5695SOL    HW117784   7.364   3.141   3.631  0.2787 -1.1496  1.9632
 5695SOL    HW217785   7.272   3.025   3.599 -1.0235  0.7382 -1.5511
 5696SOL     OW17786   2.095   5.374   5.571 -0.1290 -0.3154  0.0774
 5696SOL    HW117787   2.122   5.386   5.662  0.8779 -0.6939 -0.1620
 5696SOL    HW217788   2.102   5.461   5.532  0.7069 -0.3921  0.0377
 5697SOL     OW17789   3.911   0.714   4.468  0.0437 -0.4218 -0.0581
 5697SOL    HW117790   3.889   0.714   4.562 -1.6184  2.5214 -0.3455
 5697SOL    HW217791   3.831   0.742   4.424  1.2742 -0.0770 -2.2282
 5698SOL     OW17792   2.021   2.511   5.627  0.5206 -0.0710 -0.1411
 5698SOL    HW117793   1.978   2.509   5.713 -0.6272 -2.5864 -0.6806
 5698SOL    HW217794   2.082   2.437   5.629  1.5454  0.7143 -1.0172
 5699SOL     OW17795   2.501   7.873   3.100 -0.4743  0.2963  0.1438
 5699SOL    HW117796   2.472   7.943   3.159 -1.3192 -0.7349  1.0013
 5699SOL    HW217797   2.546   7.811   3.157 -0.6401 -0.3580 -0.4215
 5700SOL     OW17798   5.667   0.073   5.753  0.1003 -0.4788  0.1384
 5700SOL    HW117799   5.730   0.064   5.825  1.2503  1.8056 -0.4800
 5700SOL    HW217800   5.716   0.047   5.675 -0.7251 -1.6528 -0.0128
 5701SOL     OW17801   2.563   6.473   0.542  0.5526 -0.3784 -0.6950
 5701SOL    HW117802   2.627   6.402   0.544  1.5791  0.4229 -2.6438
 5701SOL    HW217803   2.613   6.551   0.564 -0.4058 -0.1016  0.6418
 5702SOL     OW17804   0.441   4.392   3.501 -0.1939  0.2129 -0.8161
 5702SOL    HW117805   0.421   4.473   3.548 -1.2601 -1.6675  2.2666
 5702SOL    HW217806   0.533   4.399   3.478 -0.0921  2.0106 -0.0275
 5703SOL     OW17807   2.542   0.605   5.988 -0.1042 -0.3364  0.0987
 5703SOL    HW117808   2.497   0.538   5.935 -0.6526 -0.9241  1.2770
 5703SOL    HW217809   2.509   0.688   5.954 -1.3923 -0.7378  0.3235
 5704SOL     OW17810   2.065   6.240   1.118  0.0179 -0.2622 -0.0964
 5704SOL    HW117811   2.071   6.222   1.212  1.4150 -0.6539 -0.2473
 5704SOL    HW217812   2.094   6.330   1.108 -0.1689 -0.2071 -0.1541
 5705SOL     OW17813   5.847   6.260   7.942 -0.1834  0.5050  0.3970
 5705SOL    HW117814   5.889   6.175   7.953  0.2140  0.5895 -0.3725
 5705SOL    HW217815   5.878   6.291   7.857 -3.1296 -0.1851 -1.0492
 5706SOL     OW17816   7.359   0.802   4.998 -0.3393  0.5274 -0.1274
 5706SOL    HW117817   7.276   0.844   5.022 -0.7545  0.8532 -1.9448
 5706SOL    HW217818   7.333   0.716   4.964 -0.1438  1.1879 -2.0925
 5707SOL     OW17819   5.580   7.358   6.106 -0.3711 -0.8945 -0.2306
 5707SOL    HW117820   5.531   7.425   6.154 -2.5991 -2.4182 -0.2031
 5707SOL    HW217821   5.608   7.402   6.026  0.1295  0.6284  0.7291
 5708SOL     OW17822   5.490   5.639   2.403 -0.0852  0.4498  0.0275
 5708SOL    HW117823   5.553   5.640   2.474 -0.4894 -1.2560  0.4567
 5708SOL    HW217824   5.443   5.722   2.411  1.0214  1.0369  0.6697
 5709SOL     OW17825   4.959   7.683   1.579  0.0030 -0.0066 -0.2002
 5709SOL    HW117826   5.050   7.702   1.599  0.2728 -1.1042 -0.3195
 5709SOL    HW217827   4.910   7.756   1.617  0.8844  0.3449  0.2844
 5710SOL     OW17828   2.183   5.451   1.966  0.3192  0.2582  0.5392
 5710SOL    HW117829   2.179   5.526   2.026 -2.3944  0.0921  0.6728
 5710SOL    HW217830   2.096   5.412   1.969  0.7144 -1.0551 -1.9056
 5711SOL     OW17831   7.193   3.131   2.791  0.2378  0.4103  0.3404
 5711SOL    HW117832   7.123   3.159   2.848  0.3527  0.7861  0.3003
 5711SOL    HW217833   7.266   3.191   2.810 -0.1707  1.4615 -1.1807
 5712SOL     OW17834   3.482   3.346   7.025 -0.5494 -0.1814 -0.0729
 5712SOL    HW117835   3.449   3.273   7.076  0.6590 -1.2923 -0.8062
 5712SOL    HW217836   3.530   3.401   7.087 -2.4432  0.6685  0.7073
 5713SOL     OW17837   6.184   6.080   7.069 -0.4314  0.0683 -0.1472
 5713SOL    HW117838   6.095   6.047   7.079 -0.1886 -0.6422 -0.2700
 5713SOL    HW217839   6.175   6.175   7.072 -1.5046  0.1305 -2.6904
 5714SOL     OW17840   4.036   2.551   4.721 -0.0255  0.0537 -0.1364
 5714SOL    HW117841   3.942   2.531   4.716  0.0086 -0.4665  0.8997
 5714SOL    HW217842   4.057   2.540   4.814  1.2219 -0.6119 -0.4805
 5715SOL     OW17843   5.560   4.050   0.629  0.1081 -0.3003  0.2196
 5715SOL    HW117844   5.589   4.135   0.660 -1.6138  0.5750 -0.4277
 5715SOL    HW217845   5.579   3.990   0.701 -0.7394  1.0584  1.6403
 5716SOL     OW17846   1.023   6.989   3.147 -0.1352 -0.6034  0.1201
 5716SOL    HW117847   0.999   6.980   3.055  0.9838 -1.1595 -0.1372
 5716SOL    HW217848   1.013   6.901   3.183 -1.1321 -0.2691  0.6819
 5717SOL     OW17849   1.592   6.845   6.624  0.1537 -0.1997  0.0517
 5717SOL    HW117850   1.618   6.937   6.630 -1.6361  0.2652  1.4446
 5717SOL    HW217851   1.620   6.818   6.536 -0.5312  2.0856 -0.9282
 5718SOL     OW17852   7.040   3.778   2.074  0.2383 -0.2261 -0.1035
 5718SOL    HW117853   7.124   3.823   2.087 -0.0177  0.5861 -1.1600
 5718SOL    HW217854   6.976   3.849   2.071 -0.4404 -0.8142  0.2469
 5719SOL     OW17855   5.001   7.551   0.989 -0.5891  0.3708  0.2391
 5719SOL    HW117856   5.052   7.471   0.979  0.0423  0.9232 -1.4123
 5719SOL    HW217857   4.915   7.529   0.955 -0.1212  0.6208 -1.2121
 5720SOL     OW17858   3.617   4.980   5.572  0.8050  0.7675  0.0788
 5720SOL    HW117859   3.541   4.998   5.626  0.1184  0.3995 -0.7413
 5720SOL    HW217860   3.659   5.065   5.561  0.4618  0.9893  0.4565
 5721SOL     OW17861   4.278   5.419   7.715 -0.3894  0.4715 -0.3050
 5721SOL    HW117862   4.290   5.404   7.809 -1.6105  1.1793 -0.0236
 5721SOL    HW217863   4.333   5.494   7.695 -0.5670  0.6759 -0.0326
 5722SOL     OW17864   6.860   5.524   0.594 -0.4573  0.3621 -0.2950
 5722SOL    HW117865   6.831   5.613   0.614  1.4157  0.7994  0.7924
 5722SOL    HW217866   6.956   5.528   0.601 -0.3238 -1.7440 -0.1857
 5723SOL     OW17867   3.442   2.703   1.867  0.1043 -0.5512  0.0980
 5723SOL    HW117868   3.420   2.743   1.951 -2.0606 -1.9190  0.2482
 5723SOL    HW217869   3.457   2.611   1.888  0.1012 -0.8016 -0.9554
 5724SOL     OW17870   0.863   7.366   2.526 -0.0431 -0.2007 -0.2430
 5724SOL    HW117871   0.870   7.327   2.613  0.2823 -1.4245 -0.7840
 5724SOL    HW217872   0.828   7.454   2.541 -0.3201 -0.5148  1.0869
 5725SOL     OW17873   0.907   3.199   0.768  0.2668  0.2632 -0.4764
 5725SOL    HW117874   0.985   3.146   0.750 -2.0550 -5.1945  2.8938
 5725SOL    HW217875   0.861   3.204   0.684  1.9312 -0.6764 -1.5021
 5726SOL     OW17876   3.728   1.431   1.528 -0.4088  0.3056 -0.5970
 5726SOL    HW117877   3.716   1.514   1.482 -1.7999  0.4725  0.0306
 5726SOL    HW217878   3.799   1.449   1.591 -0.4682  0.9116 -0.6957
 5727SOL     OW17879   5.218   6.657   2.486  0.1029  0.1238  0.2107
 5727SOL    HW117880   5.129   6.622   2.488  0.1529 -0.2762 -2.0481
 5727SOL    HW217881   5.240   6.663   2.393  2.6340 -0.3241  0.6834
 5728SOL     OW17882   1.202   4.092   5.799 -0.1693 -0.4288  0.6497
 5728SOL    HW117883   1.245   4.007   5.800 -0.9915 -0.8604  0.6936
 5728SOL    HW217884   1.214   4.126   5.888  0.5326 -0.2990  0.5104
 5729SOL     OW17885   5.417   5.565   7.165 -0.5073  0.0435 -0.3533
 5729SOL    HW117886   5.342   5.589   7.111 -1.2130 -2.6270 -0.7437
 5729SOL    HW217887   5.378   5.535   7.247  0.1439 -0.8329 -0.3519
 5730SOL     OW17888   4.817   1.139   7.301 -0.1321  0.4767 -0.2451
 5730SOL    HW117889   4.857   1.067   7.350 -0.2618 -0.4710 -1.4825
 5730SOL    HW217890   4.852   1.218   7.342  2.1218 -0.3016 -0.5384
 5731SOL     OW17891   1.809   1.671   1.324  0.0321  0.1211 -0.6073
 5731SOL    HW117892   1.818   1.762   1.352 -2.1176  0.4777 -0.9174
 5731SOL    HW217893   1.898   1.645   1.297  0.9625  1.6366  0.8236
 5732SOL     OW17894   2.508   4.359   3.468 -0.1871  0.1558  0.2817
 5732SOL    HW117895   2.564   4.321   3.400  0.7174  0.7975  0.6503
 5732SOL    HW217896   2.439   4.405   3.419  0.9641  1.3850 -0.2595
 5733SOL     OW17897   3.897   0.314   7.057 -0.2735 -0.4883 -0.3406
 5733SOL    HW117898   3.920   0.396   7.013  0.5022 -0.5553 -0.0729
 5733SOL    HW217899   3.975   0.291   7.108 -1.5619  0.2281  2.0739
 5734SOL     OW17900   6.486   5.594   6.884  0.4089 -0.9156 -0.1948
 5734SOL    HW117901   6.506   5.673   6.834 -0.1275  0.3092  1.4459
 5734SOL    HW217902   6.555   5.532   6.859  0.8197  0.0388 -1.5505
 5735SOL     OW17903   2.810   1.739   4.695 -0.5366  0.6111 -0.2898
 5735SOL    HW117904   2.845   1.797   4.627  0.7784 -2.2995 -2.2949
 5735SOL    HW217905   2.883   1.724   4.754 -0.3617 -0.2770 -0.7227
 5736SOL     OW17906   0.367   3.731   5.149 -0.4095  0.0177  0.1117
 5736SOL    HW117907   0.375   3.665   5.079  0.0744  1.8083 -1.6204
 5736SOL    HW217908   0.453   3.731   5.191 -0.7388 -1.1533  0.8467
 5737SOL     OW17909   3.311   2.262   5.800 -0.1711  0.6037 -0.2200
 5737SOL    HW117910   3.218   2.281   5.783  0.1552  1.5802 -1.0212
 5737SOL    HW217911   3.348   2.346   5.826  0.6524  0.3721 -0.6298
 5738SOL     OW17912   0.838   3.541   2.041 -0.8058  0.4642  0.1168
 5738SOL    HW117913   0.885   3.524   1.959 -0.6965 -0.0103  0.2739
 5738SOL    HW217914   0.850   3.635   2.057 -0.3896  0.4579 -0.1426
 5739SOL     OW17915   2.535   4.308   7.033  0.5121  0.5651 -0.5066
 5739SOL    HW117916   2.612   4.255   7.053  1.4158  2.1501  0.5133
 5739SOL    HW217917   2.535   4.316   6.938  1.9950  1.0321 -0.4901
 5740SOL     OW17918   1.610   0.121   7.531  0.8833  0.5404 -0.3990
 5740SOL    HW117919   1.658   0.132   7.448  0.2793 -1.2536 -1.0443
 5740SOL    HW217920   1.520   0.143   7.509  0.7432  0.1793 -0.1866
 5741SOL     OW17921   1.905   4.903   2.960 -0.0044  0.0778  0.5048
 5741SOL    HW117922   2.000   4.900   2.969  0.0434  0.0157  0.0301
 5741SOL    HW217923   1.873   4.833   3.016  0.2337  0.0775  0.6411
 5742SOL     OW17924   7.895   0.132   1.774 -0.1814  0.0183 -0.1651
 5742SOL    HW117925   7.946   0.178   1.841 -0.9722 -0.9925  1.1926
 5742SOL    HW217926   7.805   0.157   1.790 -0.5216 -1.2250 -0.0082
 5743SOL     OW17927   7.197   7.512   3.417  0.4620 -0.4022  0.0489
 5743SOL    HW117928   7.268   7.500   3.354 -0.2015 -0.6583 -0.6721
 5743SOL    HW217929   7.138   7.574   3.374 -1.5908 -2.9028 -1.0195
 5744SOL     OW17930   6.835   7.888   1.434 -0.1247 -0.0314  0.3846
 5744SOL    HW117931   6.865   7.808   1.392 -2.0704 -1.3609  1.3530
 5744SOL    HW217932   6.912   7.923   1.479  0.7108 -1.4475  0.0906
 5745SOL     OW17933   3.601   3.406   3.755  0.0822  0.0236 -0.4547
 5745SOL    HW117934   3.608   3.408   3.660 -0.5714 -0.5198 -0.5287
 5745SOL    HW217935   3.526   3.349   3.772  0.2974 -0.0269  0.3905
 5746SOL     OW17936   4.987   2.751   5.665  0.2254  0.5506  0.0659
 5746SOL    HW117937   5.033   2.741   5.748 -1.5655 -2.0202  0.8704
 5746SOL    HW217938   4.898   2.722   5.683 -0.7327  1.6993 -2.3411
 5747SOL     OW17939   3.923   1.868   6.043  0.0786 -0.2282  0.1441
 5747SOL    HW117940   3.850   1.911   6.087  1.7043  1.8326  1.0053
 5747SOL    HW217941   3.884   1.829   5.964 -2.6233 -2.6288  2.4186
 5748SOL     OW17942   1.298   5.958   6.100 -0.2601 -0.1619  0.5131
 5748SOL    HW117943   1.373   6.016   6.086 -1.1819  0.9244 -0.0990
 5748SOL    HW217944   1.323   5.876   6.058  0.3251  0.4092 -0.2844
 5749SOL     OW17945   2.691   7.214   0.397 -0.0002 -0.2514 -0.0591
 5749SOL    HW117946   2.627   7.276   0.431  0.0472 -0.3198  0.1512
 5749SOL    HW217947   2.649   7.178   0.318  0.5868  1.1482 -1.0545
 5750SOL     OW17948   1.995   4.750   4.044  0.2801 -0.7993  0.1978
 5750SOL    HW117949   2.053   4.822   4.017 -0.7344 -0.4184 -1.0855
 5750SOL    HW217950   2.005   4.746   4.139  1.2498  0.2575  0.1742
 5751SOL     OW17951   1.085   5.112   0.003 -0.3861 -0.0363  0.1281
 5751SOL    HW117952   1.159   5.089   0.060 -0.2724 -0.4714 -0.1868
 5751SOL    HW217953   1.121   5.108  -0.086 -1.0851 -1.5331 -0.1238
 5752SOL     OW17954   1.611   4.097   6.101 -0.5000 -0.2027 -0.2236
 5752SOL    HW117955   1.691   4.084   6.150 -0.0158 -0.0022 -0.9410
 5752SOL    HW217956   1.547   4.040   6.143  0.3076 -1.2060 -0.3127
 5753SOL     OW17957   4.349   3.724   6.250  0.4223  0.0156  0.4367
 5753SOL    HW117958   4.273   3.774   6.279  0.4076  1.0485 -1.2047
 5753SOL    HW217959   4.373   3.670   6.325 -0.9505  0.8427  1.5220
 5754SOL     OW17960   3.261   5.087   0.154 -0.0984 -0.3035  0.4860
 5754SOL    HW117961   3.196   5.125   0.096 -0.0661 -0.0102  0.6431
 5754SOL    HW217962   3.228   4.999   0.172 -0.5005 -0.1214  0.6443
 5755SOL     OW17963   0.240   0.933   2.802 -0.1302 -0.0052 -0.2350
 5755SOL    HW117964   0.256   0.940   2.896  0.7614  1.1549 -0.4533
 5755SOL    HW217965   0.233   1.024   2.772 -2.0430 -0.3558 -1.0381
 5756SOL     OW17966   0.759   6.843   0.707 -0.1330 -0.2585 -0.2395
 5756SOL    HW117967   0.721   6.838   0.619 -1.7436 -1.4418  0.4736
 5756SOL    HW217968   0.701   6.903   0.754  0.3896 -0.0789  0.1758
 5757SOL     OW17969   2.856   7.547   7.170 -0.0083 -0.0284  0.7307
 5757SOL    HW117970   2.817   7.564   7.256  0.0576  0.1421  0.7271
 5757SOL    HW217971   2.796   7.486   7.128 -0.6424  0.7822  0.4501
 5758SOL     OW17972   3.374   6.232   2.626  0.6108  0.3486 -0.2341
 5758SOL    HW117973   3.459   6.191   2.609  0.8244  0.5279  0.3740
 5758SOL    HW217974   3.311   6.161   2.616  1.0047 -0.2346  1.1107
 5759SOL     OW17975   1.119   6.738   1.241  0.0040 -0.3316 -0.2632
 5759SOL    HW117976   1.172   6.757   1.318  0.2357 -1.2243 -0.1920
 5759SOL    HW217977   1.034   6.779   1.259  0.3818  0.3522  0.0018
 5760SOL     OW17978   3.598   4.389   2.386 -0.4277 -0.3818  0.1192
 5760SOL    HW117979   3.685   4.357   2.362 -0.4449 -1.1466  1.0098
 5760SOL    HW217980   3.541   4.357   2.317  0.4391  3.0357 -2.4168
 5761SOL     OW17981   4.228   0.800   2.986 -0.3621  0.0381 -0.4681
 5761SOL    HW117982   4.285   0.877   2.979  0.0211 -0.1860  0.1286
 5761SOL    HW217983   4.168   0.808   2.912 -0.1463  0.7658 -0.5720
 5762SOL     OW17984   4.092   7.917   5.931 -0.2308  0.2190  0.2303
 5762SOL    HW117985   4.109   7.938   5.839 -1.2799  1.9617  0.3920
 5762SOL    HW217986   4.176   7.934   5.974 -0.3478  1.6769 -0.0691
 5763SOL     OW17987   6.691   6.871   2.795  0.0300 -0.0616  0.0430
 5763SOL    HW117988   6.753   6.941   2.775  2.1670 -1.0535  2.6180
 5763SOL    HW217989   6.610   6.918   2.818  0.5294  1.3899 -0.9938
 5764SOL     OW17990   3.915   2.879   4.080 -0.2536  0.2881  0.0428
 5764SOL    HW117991   3.867   2.861   4.161 -0.6354 -0.5387 -0.3674
 5764SOL    HW217992   4.005   2.895   4.110 -0.4461  0.2695  0.6557
 5765SOL     OW17993   6.038   1.051   7.351 -0.6523  0.3415  0.2638
 5765SOL    HW117994   6.110   1.008   7.306 -0.4956 -0.2986  1.1066
 5765SOL    HW217995   6.025   1.000   7.431 -2.1371  0.3544  0.0643
 5766SOL     OW17996   7.462   7.413   6.706 -0.1490  0.1465 -0.0963
 5766SOL    HW117997   7.414   7.358   6.644  0.0410 -0.0687 -0.0563
 5766SOL    HW217998   7.468   7.360   6.786 -0.3055  0.3826  0.0722
 5767SOL     OW17999   3.886   1.713   1.784  0.2862  0.2243  0.0856
 5767SOL    HW118000   3.903   1.625   1.752 -0.0915  0.2883 -0.3015
 5767SOL    HW218001   3.954   1.728   1.850  1.1618  0.1418 -0.7749
 5768SOL     OW18002   5.812   7.110   5.972 -0.1889  0.3294 -0.6184
 5768SOL    HW118003   5.857   7.180   6.020 -0.7869 -0.3287  0.9934
 5768SOL    HW218004   5.873   7.036   5.978 -0.8348 -0.1504  0.3494
 5769SOL     OW18005   6.163   4.609   4.359  0.0038 -0.0665 -0.2473
 5769SOL    HW118006   6.121   4.621   4.274  0.8755 -0.1438 -0.7068
 5769SOL    HW218007   6.185   4.698   4.387  0.2424 -0.0823 -0.3823
 5770SOL     OW18008   6.776   1.579   7.913  0.3303  0.1841  0.1794
 5770SOL    HW118009   6.753   1.664   7.875 -0.0739 -0.6892 -1.6223
 5770SOL    HW218010   6.826   1.535   7.844  0.8034 -0.9324  1.2015
 5771SOL     OW18011   1.053   3.522   7.762 -0.0181  0.3353  0.0040
 5771SOL    HW118012   1.075   3.443   7.812 -0.8430  1.0497  1.5841
 5771SOL    HW218013   1.080   3.594   7.819  0.4179  1.2214 -1.2724
 5772SOL     OW18014   5.779   0.911   2.741 -0.4926  0.2925 -0.2290
 5772SOL    HW118015   5.737   0.962   2.672 -3.1085 -0.5733  0.6332
 5772SOL    HW218016   5.788   0.973   2.814 -0.5364  0.3957 -0.3100
 5773SOL     OW18017   4.057   2.448   0.647 -0.5974 -0.2177 -0.5375
 5773SOL    HW118018   4.005   2.447   0.728  0.1546  1.7701  0.0410
 5773SOL    HW218019   4.075   2.541   0.632  0.6579 -0.6783 -2.1081
 5774SOL     OW18020   2.599   2.382   3.983 -0.1838  0.2454  0.0128
 5774SOL    HW118021   2.638   2.429   4.056  0.7677 -0.7659  0.1957
 5774SOL    HW218022   2.508   2.369   4.008 -0.1582  0.9463  0.4792
 5775SOL     OW18023   1.624   2.620   5.721  0.4619  0.1270  0.1471
 5775SOL    HW118024   1.533   2.642   5.741  0.3383  1.0674 -1.2870
 5775SOL    HW218025   1.632   2.528   5.746 -0.4981  0.3712  1.4817
 5776SOL     OW18026   6.787   6.207   1.394  0.3255 -0.2771 -0.1841
 5776SOL    HW118027   6.803   6.178   1.484  1.8353  0.3427 -0.2354
 5776SOL    HW218028   6.778   6.302   1.400 -0.2236 -0.2921 -0.6145
 5777SOL     OW18029   0.631   3.942   4.346  0.5734  0.3192  0.3703
 5777SOL    HW118030   0.689   3.975   4.277 -1.1585  2.0169 -0.3484
 5777SOL    HW218031   0.577   3.876   4.302 -1.3853  2.2829 -0.3094
 5778SOL     OW18032   5.976   1.021   2.136  0.4576  0.4251 -0.1028
 5778SOL    HW118033   6.012   0.938   2.167  1.1022  0.3812 -0.9504
 5778SOL    HW218034   5.950   1.004   2.045 -0.8120  0.7286  0.1794
 5779SOL     OW18035   3.043   7.190   1.015  0.1213  0.8429 -0.0629
 5779SOL    HW118036   2.962   7.170   1.062  0.8123 -2.0850  0.0953
 5779SOL    HW218037   3.107   7.210   1.083  0.4780 -0.8204  0.1235
 5780SOL     OW18038   4.420   2.228   7.346  0.6050  0.0774  0.0428
 5780SOL    HW118039   4.461   2.222   7.432 -0.3559  2.0418  0.7033
 5780SOL    HW218040   4.381   2.316   7.343 -1.7716 -0.8947 -1.2965
 5781SOL     OW18041   3.193   6.050   6.020 -0.5215  0.7249 -0.3118
 5781SOL    HW118042   3.165   6.025   5.932 -0.5302 -1.7616  0.3238
 5781SOL    HW218043   3.282   6.083   6.008 -0.5963  0.6179 -1.2809
 5782SOL     OW18044   3.911   1.595   4.261 -0.1719 -0.3587 -0.3678
 5782SOL    HW118045   3.851   1.664   4.289 -0.6883 -0.4724 -1.1707
 5782SOL    HW218046   3.966   1.637   4.195  0.3027 -0.3991 -0.0073
 5783SOL     OW18047   3.331   7.588   6.891  1.2106 -0.3137 -0.2090
 5783SOL    HW118048   3.377   7.604   6.808 -0.5330  1.9642 -0.8346
 5783SOL    HW218049   3.356   7.661   6.947  0.8462 -0.7724  0.5624
 5784SOL     OW18050   0.962   5.508   7.139 -0.3665  0.1480 -0.7425
 5784SOL    HW118051   0.880   5.514   7.189  1.0266 -2.5439  2.2873
 5784SOL    HW218052   0.969   5.415   7.116  1.4634  0.4595 -1.6165
 5785SOL     OW18053   5.476   0.841   5.468 -0.2121  0.4879  0.1844
 5785SOL    HW118054   5.457   0.765   5.414 -0.8816  0.5091  0.3857
 5785SOL    HW218055   5.391   0.883   5.483  0.0595  0.9027  0.6247
 5786SOL     OW18056   2.261   1.400   2.674  0.3408  0.4306  0.3320
 5786SOL    HW118057   2.218   1.318   2.700  0.3914  0.1508 -0.4169
 5786SOL    HW218058   2.196   1.444   2.619  0.5197  0.6251  0.2776
 5787SOL     OW18059   7.420   2.819   5.105 -0.1093 -0.1853 -0.9931
 5787SOL    HW118060   7.343   2.823   5.162  0.2292  2.1311 -0.5760
 5787SOL    HW218061   7.387   2.839   5.018 -0.4510 -2.6439 -1.5116
 5788SOL     OW18062   2.597   6.461   2.679  0.2760  0.6210 -0.0810
 5788SOL    HW118063   2.599   6.475   2.585  0.4446 -1.2966 -0.4064
 5788SOL    HW218064   2.653   6.384   2.693 -1.9578 -0.8731  1.2293
 5789SOL     OW18065   6.911   4.451   3.156 -0.4071  0.1490 -0.5671
 5789SOL    HW118066   6.969   4.527   3.160 -0.0048 -0.2050  1.6465
 5789SOL    HW218067   6.829   4.485   3.122 -0.3650  1.7040  0.7561
 5790SOL     OW18068   2.985   4.629   2.380  0.0296 -0.0798  0.3603
 5790SOL    HW118069   2.942   4.715   2.385 -1.3518 -0.6713 -0.7872
 5790SOL    HW218070   2.926   4.570   2.426  0.5485 -0.5828  0.3864
 5791SOL     OW18071   2.727   0.996   3.177 -0.5217  0.1448 -0.2771
 5791SOL    HW118072   2.639   1.003   3.138 -0.7703 -2.3006 -0.3377
 5791SOL    HW218073   2.711   0.992   3.271 -0.7684 -2.3846 -0.3455
 5792SOL     OW18074   4.363   2.937   6.310 -0.4031 -0.1694 -0.3674
 5792SOL    HW118075   4.291   2.882   6.340  0.5579  0.0750  2.7295
 5792SOL    HW218076   4.424   2.877   6.267 -0.2401 -1.2538  1.3134
 5793SOL     OW18077   1.241   0.461   4.994  0.5644  0.5024  0.1132
 5793SOL    HW118078   1.326   0.468   5.037 -0.1450  0.1596  1.6285
 5793SOL    HW218079   1.247   0.520   4.919  2.3950 -0.1194 -0.2709
 5794SOL     OW18080   3.453   2.965   6.994 -0.5745  0.0039  0.2349
 5794SOL    HW118081   3.444   2.931   6.905 -2.8801 -0.5991  0.6100
 5794SOL    HW218082   3.547   2.978   7.006 -0.2561  0.9025 -2.5473
 5795SOL     OW18083   0.741   5.553   7.662  0.4834  0.2605 -0.1562
 5795SOL    HW118084   0.655   5.570   7.699  0.8128 -1.5028  1.6012
 5795SOL    HW218085   0.803   5.576   7.731  1.3431 -0.0124 -0.8063
 5796SOL     OW18086   4.318   2.582   5.639  0.3065 -0.3263  0.5215
 5796SOL    HW118087   4.349   2.516   5.577 -1.0922 -0.7134  0.2110
 5796SOL    HW218088   4.256   2.536   5.695 -0.3476  0.6064  0.5912
 5797SOL     OW18089   3.533   7.334   1.776 -0.2462 -0.0893 -0.0130
 5797SOL    HW118090   3.523   7.429   1.785  1.4647  0.0022  1.5521
 5797SOL    HW218091   3.464   7.297   1.831  0.1869  0.3090  0.8254
 5798SOL     OW18092   3.913   3.649   7.074 -0.2605  0.3146 -0.0467
 5798SOL    HW118093   3.922   3.736   7.035  0.2513  0.5759  0.6353
 5798SOL    HW218094   3.834   3.612   7.034 -0.3441  0.9977 -0.5154
 5799SOL     OW18095   0.469   6.573   2.818  0.0992 -0.2549  0.1786
 5799SOL    HW118096   0.485   6.497   2.763 -1.9512 -0.4200 -0.2945
 5799SOL    HW218097   0.470   6.539   2.907  0.8441 -0.4965  0.0840
 5800SOL     OW18098   6.320   1.899   5.013 -0.5328 -0.3837  0.3347
 5800SOL    HW118099   6.253   1.961   4.985 -0.1284 -0.0099  0.1857
 5800SOL    HW218100   6.399   1.924   4.964  0.0623 -0.0019  1.4557
 5801SOL     OW18101   4.598   6.468   1.140 -0.7769  0.4833  0.0741
 5801SOL    HW118102   4.691   6.484   1.157 -0.3580 -0.9771 -0.6773
 5801SOL    HW218103   4.554   6.548   1.169  0.6931  1.1412  0.5775
 5802SOL     OW18104   1.146   1.870   6.473  0.1294  0.5514  0.3459
 5802SOL    HW118105   1.229   1.862   6.426  0.3933 -0.9850  1.0224
 5802SOL    HW218106   1.171   1.879   6.564 -0.3799 -3.3499  1.0406
 5803SOL     OW18107   2.638   6.801   7.635 -0.3587 -0.2535  0.2130
 5803SOL    HW118108   2.723   6.817   7.675 -0.0147 -0.1312 -0.5689
 5803SOL    HW218109   2.605   6.888   7.612 -0.2112 -0.3719 -0.4720
 5804SOL     OW18110   7.700   7.171   6.164  0.3074  0.1318 -0.0226
 5804SOL    HW118111   7.670   7.087   6.130 -0.3673 -0.0908  1.0970
 5804SOL    HW218112   7.631   7.199   6.224  1.4716  0.5055  1.1890
 5805SOL     OW18113   1.141   1.401   1.377 -0.5259  0.1971 -0.2949
 5805SOL    HW118114   1.108   1.312   1.363  1.7394 -0.8715  0.6195
 5805SOL    HW218115   1.128   1.416   1.471 -0.0715  0.4734 -0.2753
 5806SOL     OW18116   6.527   6.741   2.300 -0.1624  0.1158 -0.2073
 5806SOL    HW118117   6.469   6.665   2.310 -0.3925  0.3697  0.4633
 5806SOL    HW218118   6.501   6.799   2.371  2.9189 -1.0622  2.1015
 5807SOL     OW18119   7.902   0.674   1.017  0.1272 -0.4525  0.0112
 5807SOL    HW118120   7.854   0.591   1.017  0.7328 -0.8481  1.6757
 5807SOL    HW218121   7.994   0.648   1.019  0.3448  0.2695 -0.5159
 5808SOL     OW18122   4.040   3.710   6.736 -0.0520  0.4654 -0.2384
 5808SOL    HW118123   4.004   3.789   6.695  0.3932  0.6026 -0.3723
 5808SOL    HW218124   4.109   3.743   6.794 -1.3901  0.3747  1.4764
 5809SOL     OW18125   2.509   5.161   1.836  0.2045  0.3955  0.1428
 5809SOL    HW118126   2.488   5.079   1.880 -0.4495  0.7770  0.5627
 5809SOL    HW218127   2.605   5.166   1.839  0.2930 -0.6046 -0.3791
 5810SOL     OW18128   5.109   4.806   0.394 -0.7112 -0.0988  0.2928
 5810SOL    HW118129   5.140   4.882   0.443 -0.1236 -0.1655  0.0325
 5810SOL    HW218130   5.029   4.836   0.352 -0.7701  0.2145  0.6229
 5811SOL     OW18131   5.979   0.676   3.933  0.3730 -0.0520 -0.5298
 5811SOL    HW118132   6.044   0.625   3.981 -0.6696 -1.2543 -0.3322
 5811SOL    HW218133   5.980   0.762   3.975 -1.6264 -1.4850  2.8273
 5812SOL     OW18134   7.890   7.126   5.942  0.0150 -0.2445  0.2327
 5812SOL    HW118135   7.840   7.157   6.018  1.1854  1.6781  0.2920
 5812SOL    HW218136   7.840   7.156   5.866  0.8085  1.3276  0.2921
 5813SOL     OW18137   6.743   0.534   2.705 -0.4562 -0.0037  0.1186
 5813SOL    HW118138   6.751   0.439   2.707 -0.1644 -0.0335 -1.3218
 5813SOL    HW218139   6.710   0.554   2.617 -2.9820  1.0788  1.2034
 5814SOL     OW18140   1.104   5.830   4.490  0.0022 -0.0152  0.2161
 5814SOL    HW118141   1.163   5.886   4.439  0.7265 -1.0875 -0.1647
 5814SOL    HW218142   1.034   5.808   4.429  1.1086 -1.6837 -0.5591
 5815SOL     OW18143   2.794   0.677   7.966 -0.0600  0.5491 -0.1886
 5815SOL    HW118144   2.777   0.700   7.874  0.6082  0.1507 -0.4129
 5815SOL    HW218145   2.713   0.636   7.995 -1.1069  2.6297  0.0649
 5816SOL     OW18146   7.213   6.888   7.253 -0.6319  0.5708 -0.0623
 5816SOL    HW118147   7.283   6.823   7.251 -0.4314  0.7522  0.7315
 5816SOL    HW218148   7.156   6.861   7.324  0.8025  2.5860  2.0130
 5817SOL     OW18149   7.370   2.014   7.595  0.0999 -0.7001 -0.9532
 5817SOL    HW118150   7.320   1.963   7.532 -1.9288 -0.8158  0.6367
 5817SOL    HW218151   7.369   2.103   7.559 -0.2531 -0.9275 -1.5276
 5818SOL     OW18152   4.757   3.251   1.920  0.2675  0.2975 -0.1044
 5818SOL    HW118153   4.743   3.239   2.014 -0.8986 -0.0207 -0.3066
 5818SOL    HW218154   4.734   3.342   1.904  1.7740  0.7488  0.1279
 5819SOL     OW18155   3.106   5.472   1.777  0.1346 -0.1197 -0.4445
 5819SOL    HW118156   3.027   5.422   1.758  1.4531 -2.1659 -0.9088
 5819SOL    HW218157   3.129   5.449   1.867 -0.0695  0.9049 -0.1131
 5820SOL     OW18158   5.035   5.637   0.181 -0.4336 -0.3757 -0.1008
 5820SOL    HW118159   4.983   5.655   0.259 -2.5620 -0.1042 -1.4888
 5820SOL    HW218160   5.125   5.653   0.208 -0.8994 -2.0017  2.7504
 5821SOL     OW18161   7.600   7.921   2.038  0.0104 -0.4565 -0.1684
 5821SOL    HW118162   7.658   7.885   1.972  1.1639 -0.8144  1.0004
 5821SOL    HW218163   7.654   7.984   2.086 -0.7588 -0.2779  0.4894
 5822SOL     OW18164   4.924   2.052   1.754  0.4034  0.1767  0.0683
 5822SOL    HW118165   4.850   2.112   1.748  0.7999  0.6539 -0.0966
 5822SOL    HW218166   4.985   2.082   1.687 -0.0743 -1.3763 -1.1237
 5823SOL     OW18167   1.783   2.960   6.443  0.9117 -0.1986  0.5632
 5823SOL    HW118168   1.710   2.898   6.448  0.6792 -0.0215 -0.4208
 5823SOL    HW218169   1.757   3.022   6.375  1.0637  1.1095  1.6548
 5824SOL     OW18170   6.414   6.044   7.754  0.0438  0.0901 -0.5452
 5824SOL    HW118171   6.461   6.127   7.765 -0.5635  0.6079 -1.6595
 5824SOL    HW218172   6.468   5.994   7.694  1.4248 -1.1851  1.6088
 5825SOL     OW18173   7.709   6.127   0.773  0.5767 -0.3676  0.3462
 5825SOL    HW118174   7.649   6.186   0.818  1.3200 -0.5917  1.6871
 5825SOL    HW218175   7.756   6.082   0.844 -0.8169 -3.5047 -0.5211
 5826SOL     OW18176   1.358   7.686   6.129 -0.1713  0.6699  0.1784
 5826SOL    HW118177   1.423   7.677   6.198 -0.3558  1.2153  0.4301
 5826SOL    HW218178   1.339   7.780   6.126 -0.1265  0.6560 -0.6511
 5827SOL     OW18179   5.698   4.506   0.164  0.2876  0.1427 -0.3594
 5827SOL    HW118180   5.763   4.572   0.186 -0.5477  0.8345  0.1394
 5827SOL    HW218181   5.724   4.429   0.213  1.1706  0.1564 -0.7956
 5828SOL     OW18182   0.832   1.504   6.100 -0.4566  0.1560 -0.1155
 5828SOL    HW118183   0.822   1.456   6.018 -0.7440  1.0009 -0.5926
 5828SOL    HW218184   0.924   1.533   6.099 -0.4872  0.2511 -0.1896
 5829SOL     OW18185   0.132   6.472   1.195  0.2378 -0.5677  0.5151
 5829SOL    HW118186   0.196   6.508   1.256  0.2513 -0.0266  0.1939
 5829SOL    HW218187   0.094   6.396   1.240  2.1157 -1.7751  0.1535
 5830SOL     OW18188   0.554   4.447   2.771 -0.4348  0.1349  0.4726
 5830SOL    HW118189   0.560   4.490   2.686 -2.0691 -0.3658  0.0635
 5830SOL    HW218190   0.615   4.374   2.766 -1.1104 -0.3839 -0.5997
 5831SOL     OW18191   4.957   6.650   5.530 -0.4657  0.0406 -0.0498
 5831SOL    HW118192   5.021   6.707   5.573  1.9471 -1.8460 -0.8321
 5831SOL    HW218193   4.906   6.613   5.601  1.7158 -1.0441  1.0775
 5832SOL     OW18194   2.299   0.341   5.622 -0.2373 -0.0527 -0.5046
 5832SOL    HW118195   2.353   0.374   5.694 -1.6885  0.2825  0.4634
 5832SOL    HW218196   2.264   0.419   5.581  0.2645 -0.2588 -1.3458
 5833SOL     OW18197   0.084   0.322   5.061 -0.5097 -0.0473 -0.0059
 5833SOL    HW118198   0.100   0.383   4.990 -2.8225  1.5659  0.7379
 5833SOL    HW218199   0.067   0.238   5.017  0.4004  0.3650 -1.1873
 5834SOL     OW18200   0.244   5.842   6.868  0.0761 -0.3008 -0.0265
 5834SOL    HW118201   0.238   5.936   6.852 -2.2857 -0.3805  0.0582
 5834SOL    HW218202   0.204   5.802   6.791 -0.6654 -1.1534  0.7787
 5835SOL     OW18203   3.488   3.016   2.742 -0.0406 -0.0289  0.5256
 5835SOL    HW118204   3.402   3.017   2.701  0.2066 -1.2363 -0.0811
 5835SOL    HW218205   3.486   3.088   2.805 -0.6852  1.4620 -1.0989
 5836SOL     OW18206   6.522   1.943   5.780 -0.2425  0.3853  0.5101
 5836SOL    HW118207   6.601   1.979   5.819  0.7663 -1.0409 -0.1498
 5836SOL    HW218208   6.468   1.916   5.855 -0.2660  1.6414  0.9662
 5837SOL     OW18209   6.634   6.235   1.993 -0.3153  0.1387  0.5652
 5837SOL    HW118210   6.612   6.304   1.931  2.3343  0.7946  0.2020
 5837SOL    HW218211   6.633   6.155   1.941  1.7539  0.6669 -0.3897
 5838SOL     OW18212   4.292   2.245   5.955 -0.0672 -0.0887  0.3229
 5838SOL    HW118213   4.370   2.192   5.938 -0.4413 -0.1755 -1.3000
 5838SOL    HW218214   4.234   2.186   6.003  0.5434 -0.2740  0.8634
 5839SOL     OW18215   0.529   0.330   3.522  0.0659 -0.1273 -0.2993
 5839SOL    HW118216   0.498   0.410   3.563 -1.1614 -1.4048  1.3936
 5839SOL    HW218217   0.472   0.318   3.446  0.5240  0.7803 -0.8079
 5840SOL     OW18218   0.003   6.867   2.631  0.0685  0.4150  0.3218
 5840SOL    HW118219   0.002   6.818   2.714 -2.1615 -1.1319 -0.5170
 5840SOL    HW218220  -0.019   6.956   2.656  2.9636  0.8509  1.7496
 5841SOL     OW18221   0.529   0.555   0.428  0.3607  0.3637 -0.2752
 5841SOL    HW118222   0.485   0.634   0.398  1.0512  1.2655  0.9734
 5841SOL    HW218223   0.501   0.544   0.519 -1.1124 -1.8760 -0.9048
 5842SOL     OW18224   1.598   2.165   5.256  0.3519 -0.0662  0.0341
 5842SOL    HW118225   1.546   2.144   5.178  1.4378 -0.2305 -0.6622
 5842SOL    HW218226   1.534   2.197   5.319 -0.5508  0.0968 -0.9356
 5843SOL     OW18227   0.013   1.201   6.814 -0.1002 -0.5744 -0.0552
 5843SOL    HW118228   0.060   1.276   6.851 -1.1816  0.7937 -1.3201
 5843SOL    HW218229   0.077   1.157   6.758  0.2258  0.1188 -0.2413
 5844SOL     OW18230   5.048   1.243   4.116  0.1307 -0.2644  0.2757
 5844SOL    HW118231   4.998   1.324   4.129  0.3540 -0.3228  1.6387
 5844SOL    HW218232   5.113   1.244   4.187 -1.1880 -2.6213  1.6494
 5845SOL     OW18233   6.292   0.962   0.045 -0.3614  0.5722  0.0581
 5845SOL    HW118234   6.275   0.989   0.135  0.6441  0.0933  0.4079
 5845SOL    HW218235   6.221   0.900   0.025 -0.0238 -0.0819  0.8695
 5846SOL     OW18236   6.207   7.677   3.347 -0.0529  0.1468  0.3406
 5846SOL    HW118237   6.176   7.659   3.258 -0.2269  0.1631  0.3981
 5846SOL    HW218238   6.267   7.751   3.337 -0.0474  0.1273  0.2309
 5847SOL     OW18239   3.453   3.975   1.576 -0.2176  0.3628 -0.0718
 5847SOL    HW118240   3.520   3.951   1.512 -1.2904 -0.2284 -1.0134
 5847SOL    HW218241   3.393   3.901   1.577 -1.5150  1.3736 -0.1805
 5848SOL     OW18242   0.373   2.196   6.147 -0.1308 -0.6086  0.3346
 5848SOL    HW118243   0.335   2.113   6.174 -0.5418 -0.0339  1.6432
 5848SOL    HW218244   0.463   2.175   6.121  0.2080 -1.2811  1.9573
 5849SOL     OW18245   1.063   1.472   7.596 -0.6513 -0.4316 -0.3198
 5849SOL    HW118246   1.147   1.488   7.553 -0.3374 -0.4232  0.2835
 5849SOL    HW218247   1.010   1.427   7.530 -0.2192 -0.3177 -0.7492
 5850SOL     OW18248   7.069   2.097   5.188  0.0164 -0.0323 -0.4495
 5850SOL    HW118249   7.104   2.153   5.118 -2.9276  2.2639 -0.2850
 5850SOL    HW218250   6.986   2.065   5.153  0.2689 -1.9622  0.6200
 5851SOL     OW18251   1.245   0.529   1.000 -0.1010 -0.0738 -0.0787
 5851SOL    HW118252   1.245   0.488   1.086  0.7770 -0.1287 -0.1029
 5851SOL    HW218253   1.330   0.508   0.963  0.3864  1.8000 -0.0861
 5852SOL     OW18254   0.093   6.764   3.149  0.3433  0.3766 -0.6322
 5852SOL    HW118255   0.116   6.707   3.222  0.0031  1.2321  0.1629
 5852SOL    HW218256   0.095   6.853   3.186  0.3432  0.8411 -1.7033
 5853SOL     OW18257   4.948   6.189   0.515  0.0759  0.5669  0.1065
 5853SOL    HW118258   4.916   6.178   0.425 -0.2289  0.7975  0.1866
 5853SOL    HW218259   4.932   6.105   0.557  1.9549 -0.2096 -0.5845
 5854SOL     OW18260   3.179   3.878   4.032  0.0783  0.2891  0.1125
 5854SOL    HW118261   3.168   3.787   4.059 -0.9347  0.0685 -0.9438
 5854SOL    HW218262   3.238   3.916   4.097  0.4021 -1.0804  0.6475
 5855SOL     OW18263   0.727   7.487   1.862 -0.1147 -0.5755  0.5533
 5855SOL    HW118264   0.662   7.542   1.907 -0.2243  1.4491 -1.8593
 5855SOL    HW218265   0.687   7.400   1.859 -0.3294 -0.7083  3.7340
 5856SOL     OW18266   2.945   7.556   5.913  0.2869  0.1779  0.7180
 5856SOL    HW118267   3.013   7.539   5.846 -0.9548 -0.1542 -0.5083
 5856SOL    HW218268   2.903   7.471   5.925  0.7234  0.1580  2.2250
 5857SOL     OW18269   5.857   1.521   5.539 -0.3644  0.5809  0.6479
 5857SOL    HW118270   5.842   1.460   5.611  0.2489 -0.1646  0.1775
 5857SOL    HW218271   5.770   1.546   5.509 -0.6332 -0.0605  0.8696
 5858SOL     OW18272   4.165   5.245   3.237  0.5030  0.1453  0.0128
 5858SOL    HW118273   4.260   5.252   3.229  0.5708 -0.1313  0.5336
 5858SOL    HW218274   4.138   5.206   3.154  0.9525 -0.6407  0.2233
 5859SOL     OW18275   1.416   2.555   1.825  0.2759  0.4642 -0.7646
 5859SOL    HW118276   1.387   2.483   1.769  0.4500 -1.6738  1.7013
 5859SOL    HW218277   1.337   2.608   1.838 -0.4583 -0.5785 -0.8205
 5860SOL     OW18278   0.558   4.262   4.866 -0.0233 -0.1352  0.3731
 5860SOL    HW118279   0.528   4.353   4.869  1.0250  0.2646 -0.5185
 5860SOL    HW218280   0.485   4.214   4.828  0.9435  1.0880 -3.4254
 5861SOL     OW18281   7.861   6.587   7.390 -0.0132  0.2041  0.1879
 5861SOL    HW118282   7.813   6.531   7.451 -2.2153  1.7202 -0.0021
 5861SOL    HW218283   7.913   6.644   7.446 -0.0812 -0.0569  0.5219
 5862SOL     OW18284   1.572   1.787   3.949 -0.5986  0.5023  0.1210
 5862SOL    HW118285   1.633   1.796   4.023 -1.4526  3.4224  0.5746
 5862SOL    HW218286   1.628   1.791   3.871  0.1429 -1.0216  0.5200
 5863SOL     OW18287   4.959   7.567   5.560 -0.3886  0.3429  0.4971
 5863SOL    HW118288   4.962   7.495   5.497 -1.4063  0.8857 -0.1874
 5863SOL    HW218289   4.906   7.533   5.632 -2.2019  0.9088 -0.5166
 5864SOL     OW18290   0.227   2.126   0.996  0.5804  0.0322 -0.5845
 5864SOL    HW118291   0.301   2.146   0.938 -0.4028  2.2926 -1.1418
 5864SOL    HW218292   0.155   2.106   0.936  0.4409 -1.1488 -0.0493
 5865SOL     OW18293   4.300   7.471   0.542 -0.5071  0.1423  0.1300
 5865SOL    HW118294   4.215   7.458   0.585 -0.5770 -0.4332 -0.1604
 5865SOL    HW218295   4.303   7.564   0.522 -1.1613  0.1375 -0.0302
 5866SOL     OW18296   0.076   0.802   6.999 -0.4927  0.0491 -0.0974
 5866SOL    HW118297   0.014   0.863   7.041  0.2459  0.5219  0.3235
 5866SOL    HW218298   0.160   0.847   7.003 -0.1971 -0.4032 -1.0693
 5867SOL     OW18299   4.829   6.855   4.357 -0.2693 -0.0465  0.4424
 5867SOL    HW118300   4.736   6.832   4.358 -0.2544 -0.4330 -1.7003
 5867SOL    HW218301   4.842   6.908   4.435 -1.3059 -3.5316  3.2213
 5868SOL     OW18302   7.615   1.827   1.934  0.0370  1.0757 -0.7155
 5868SOL    HW118303   7.661   1.911   1.931  1.0380  0.5356 -1.0192
 5868SOL    HW218304   7.589   1.811   1.843 -0.2559  1.1080 -0.6385
 5869SOL     OW18305   5.761   0.753   6.697 -0.4792 -0.2676  0.2764
 5869SOL    HW118306   5.787   0.815   6.764  0.2218  0.6843 -0.8414
 5869SOL    HW218307   5.760   0.804   6.616 -2.0987 -1.1875 -0.3367
 5870SOL     OW18308   0.642   2.005   2.334 -0.0757 -0.1189  0.1647
 5870SOL    HW118309   0.663   2.074   2.397 -0.8615  0.1565  0.1375
 5870SOL    HW218310   0.554   1.977   2.359 -0.8606  0.7554 -1.4655
 5871SOL     OW18311   5.180   5.306   4.697 -0.1414  0.0334 -0.5278
 5871SOL    HW118312   5.204   5.364   4.770 -1.1785  1.0733 -0.9754
 5871SOL    HW218313   5.127   5.238   4.737 -1.4727  1.0969 -0.3900
 5872SOL     OW18314   0.859   2.829   4.717  0.3970  0.1312  0.0178
 5872SOL    HW118315   0.775   2.783   4.720 -0.0142  0.9032  0.6766
 5872SOL    HW218316   0.920   2.765   4.680  0.0573 -1.2955  1.7695
 5873SOL     OW18317   4.689   6.424   5.961  0.3598  0.1900  0.1346
 5873SOL    HW118318   4.607   6.385   5.929  0.3169  1.5378 -1.5342
 5873SOL    HW218319   4.664   6.512   5.988  0.6705 -0.4648  2.8209
 5874SOL     OW18320   1.516   5.823   6.419  0.0257 -0.5680  0.2523
 5874SOL    HW118321   1.610   5.840   6.428 -0.0323  0.0294 -0.2319
 5874SOL    HW218322   1.479   5.907   6.392 -0.6035 -0.8786  0.1369
 5875SOL     OW18323   2.429   2.794   4.244 -0.2670 -0.1740  0.3704
 5875SOL    HW118324   2.354   2.766   4.191 -0.2322 -1.0095  0.7547
 5875SOL    HW218325   2.419   2.889   4.250 -0.3432 -0.0688 -1.0191
 5876SOL     OW18326   6.640   4.988   0.206 -0.2853  0.4629  0.8238
 5876SOL    HW118327   6.618   4.903   0.245 -0.1511  0.0944  0.1110
 5876SOL    HW218328   6.597   4.987   0.121  0.1675  0.8894  0.5878
 5877SOL     OW18329   5.202   1.745   1.645 -0.0675  0.1669  0.2251
 5877SOL    HW118330   5.217   1.820   1.587 -0.7570 -1.0856 -1.6383
 5877SOL    HW218331   5.108   1.747   1.663 -0.3524 -0.9892 -0.9683
 5878SOL     OW18332   7.822   3.445   6.315 -0.0407 -0.6045 -0.0950
 5878SOL    HW118333   7.912   3.478   6.317 -0.4508  0.6412 -0.7548
 5878SOL    HW218334   7.808   3.419   6.223 -0.8913  0.8995 -0.4363
 5879SOL     OW18335   5.772   3.283   2.814  0.5886 -0.4450 -0.0394
 5879SOL    HW118336   5.746   3.319   2.899  0.0643  1.2497 -0.8817
 5879SOL    HW218337   5.720   3.332   2.750  0.0488 -2.5058 -1.3045
 5880SOL     OW18338   0.021   7.470   5.408 -0.2453 -0.2971 -0.3364
 5880SOL    HW118339   0.059   7.544   5.360 -0.0966  0.7865  1.3433
 5880SOL    HW218340   0.086   7.400   5.400  0.6119  0.4693 -0.1896
 5881SOL     OW18341   1.973   6.128   1.758  0.2707 -0.1432 -0.4089
 5881SOL    HW118342   1.880   6.118   1.736  0.3232 -1.2478 -0.1848
 5881SOL    HW218343   2.002   6.205   1.709 -1.0473  0.9408  0.4317
 5882SOL     OW18344   3.355   3.821   2.309 -0.3355 -0.4596 -0.1460
 5882SOL    HW118345   3.311   3.874   2.376 -0.4397 -0.5529 -0.1409
 5882SOL    HW218346   3.296   3.824   2.233 -0.3583 -0.5948 -0.1346
 5883SOL     OW18347   7.507   1.103   0.382 -0.1918 -0.2890 -0.2350
 5883SOL    HW118348   7.434   1.164   0.371  0.1756  0.3648  0.8384
 5883SOL    HW218349   7.469   1.017   0.363 -0.6997  0.2599 -1.7946
 5884SOL     OW18350   3.785   5.806   4.170 -0.7156 -0.3496  0.1358
 5884SOL    HW118351   3.747   5.893   4.159 -0.4472 -0.2515 -0.0082
 5884SOL    HW218352   3.713   5.753   4.205 -0.4082  0.3392  1.9046
 5885SOL     OW18353   7.702   2.010   5.629 -0.5694  0.0997  0.0493
 5885SOL    HW118354   7.725   1.997   5.721 -0.6853 -2.4212 -0.1953
 5885SOL    HW218355   7.611   2.041   5.632 -0.3407  0.7511  0.7734
 5886SOL     OW18356   4.459   4.760   5.260 -0.7575  0.1224  0.2724
 5886SOL    HW118357   4.436   4.668   5.273 -0.7597 -0.2843 -2.2080
 5886SOL    HW218358   4.538   4.757   5.205  0.0872  1.6148  1.3233
 5887SOL     OW18359   5.188   3.068   3.933  0.0058 -0.3431  0.2241
 5887SOL    HW118360   5.243   3.095   4.007 -0.0675 -0.2018  0.2272
 5887SOL    HW218361   5.250   3.030   3.870  0.0667 -0.4745  0.3626
 5888SOL     OW18362   0.035   2.907   0.932 -0.0775 -0.5110 -0.1184
 5888SOL    HW118363   0.069   2.962   0.861 -0.6527 -0.6230 -0.4894
 5888SOL    HW218364  -0.001   2.969   0.995  0.9949 -0.3774  0.3920
 5889SOL     OW18365   6.453   5.095   2.513  0.0048 -0.4748 -0.1723
 5889SOL    HW118366   6.445   5.068   2.604 -0.9080 -2.1717 -0.7043
 5889SOL    HW218367   6.546   5.116   2.503  0.6973 -2.8185  0.5410
 5890SOL     OW18368   6.189   5.816   7.509 -0.5158 -0.1942  0.1420
 5890SOL    HW118369   6.266   5.759   7.508 -0.6502 -0.5429  2.6889
 5890SOL    HW218370   6.114   5.756   7.512 -0.7182  0.0932  1.2708
 5891SOL     OW18371   1.817   5.229   2.671  0.3071  0.0636 -0.1922
 5891SOL    HW118372   1.879   5.160   2.648  0.5126 -0.7947  2.5804
 5891SOL    HW218373   1.732   5.186   2.669  0.4549 -0.3913  1.7339
 5892SOL     OW18374   1.135   1.140   0.382 -0.0334  0.5175 -0.2287
 5892SOL    HW118375   1.141   1.117   0.290  2.0497  0.7231 -0.1995
 5892SOL    HW218376   1.091   1.225   0.384  2.0076  1.6650 -1.2787
 5893SOL     OW18377   5.546   7.466   7.633 -0.9889  0.3128  0.7317
 5893SOL    HW118378   5.565   7.381   7.594 -1.7795  0.8835 -0.9717
 5893SOL    HW218379   5.632   7.503   7.652 -0.6310 -0.8831  1.6259
 5894SOL     OW18380   1.967   7.384   7.665 -0.2628 -0.1220 -0.6808
 5894SOL    HW118381   1.995   7.321   7.599 -0.0010 -0.6850 -0.0455
 5894SOL    HW218382   1.996   7.346   7.748  0.9903  1.3923 -0.3605
 5895SOL     OW18383   7.050   6.997   0.046 -0.2150  0.0777  0.2018
 5895SOL    HW118384   7.129   6.992   0.100 -0.7107 -0.0763  0.9312
 5895SOL    HW218385   7.013   7.084   0.066 -0.8150 -0.2879  0.7157
 5896SOL     OW18386   1.422   2.307   1.700  0.1833  0.3545 -0.3784
 5896SOL    HW118387   1.432   2.257   1.782 -0.6007 -0.5437 -0.8061
 5896SOL    HW218388   1.511   2.334   1.677  0.3376  1.2173  1.1251
 5897SOL     OW18389   6.376   3.294   0.295 -0.3667 -0.0989  0.3457
 5897SOL    HW118390   6.320   3.371   0.299 -0.7962 -0.4146  0.5037
 5897SOL    HW218391   6.447   3.312   0.357  1.2287  1.4646 -1.7874
 5898SOL     OW18392   2.454   2.852   7.145 -0.2250 -0.7921 -0.3045
 5898SOL    HW118393   2.419   2.763   7.138  0.3385 -1.0604  0.2424
 5898SOL    HW218394   2.400   2.903   7.084 -2.3087 -0.9637  1.2719
 5899SOL     OW18395   2.966   3.448   2.593 -0.2998 -0.2878  0.1702
 5899SOL    HW118396   2.928   3.361   2.608 -0.7681  0.0837  1.2460
 5899SOL    HW218397   2.921   3.504   2.656  0.1666  0.6891 -0.3607
 5900SOL     OW18398   2.334   6.194   1.764 -0.1059  0.0856 -0.6702
 5900SOL    HW118399   2.411   6.139   1.750 -1.0182 -1.4933  0.1573
 5900SOL    HW218400   2.358   6.252   1.836  0.7018  0.4455 -1.2154
 5901SOL     OW18401   6.505   5.178   7.008 -0.2895 -0.1731  0.1652
 5901SOL    HW118402   6.481   5.085   7.001  1.4692 -0.6166 -0.5619
 5901SOL    HW218403   6.486   5.201   7.099 -0.2712 -1.4095  0.5026
 5902SOL     OW18404   0.795   4.251   5.485  0.2970 -0.5343  0.0444
 5902SOL    HW118405   0.829   4.250   5.574  2.2087  0.9936 -0.5934
 5902SOL    HW218406   0.751   4.335   5.477 -0.4835 -0.9608 -0.2602
 5903SOL     OW18407   7.183   7.785   3.767 -0.1743  0.1731 -0.8133
 5903SOL    HW118408   7.123   7.838   3.713  0.6099 -0.5204 -2.4235
 5903SOL    HW218409   7.135   7.704   3.784 -0.0898  0.0376 -1.2196
 5904SOL     OW18410   4.801   6.024   2.916 -0.0354 -0.3461 -0.0220
 5904SOL    HW118411   4.741   6.000   2.986 -1.8288  1.4709 -0.8180
 5904SOL    HW218412   4.858   6.090   2.955 -1.1868  0.8411 -0.2621
 5905SOL     OW18413   1.814   7.675   0.008  0.3112 -0.3394  0.4611
 5905SOL    HW118414   1.842   7.713  -0.075  0.1650  1.4045  1.1718
 5905SOL    HW218415   1.753   7.739   0.045 -1.9468 -2.4352  0.5869
 5906SOL     OW18416   5.757   7.629   2.839 -0.2188 -0.4968  0.3854
 5906SOL    HW118417   5.767   7.662   2.750  1.4409  0.6679  0.9526
 5906SOL    HW218418   5.663   7.611   2.847 -0.9020  2.0771 -0.7148
 5907SOL     OW18419   2.265   6.056   6.874 -1.0461 -0.6685  0.2565
 5907SOL    HW118420   2.352   6.095   6.880 -1.1357 -0.4098 -0.1176
 5907SOL    HW218421   2.204   6.127   6.894 -1.2543 -0.3472 -1.4075
 5908SOL     OW18422   4.611   6.977   5.671  0.2615  0.3405 -0.6496
 5908SOL    HW118423   4.660   6.950   5.749 -0.2570  2.0808  0.3167
 5908SOL    HW218424   4.644   7.063   5.650 -0.7535  0.5746 -1.3767
 5909SOL     OW18425   0.627   7.512   3.931 -0.6844  0.2087  0.8458
 5909SOL    HW118426   0.567   7.462   3.986 -0.5393 -2.0033 -0.8687
 5909SOL    HW218427   0.573   7.546   3.860 -0.4313  0.7615  0.9154
 5910SOL     OW18428   4.805   4.626   4.111  0.3326  0.0573 -0.3380
 5910SOL    HW118429   4.723   4.577   4.121 -0.4986  1.4757 -0.0048
 5910SOL    HW218430   4.853   4.609   4.192  0.5722 -1.1107 -0.7058
 5911SOL     OW18431   6.647   0.908   1.168  0.3134 -0.2875 -0.3818
 5911SOL    HW118432   6.606   0.835   1.214 -2.4058  1.2750 -0.1506
 5911SOL    HW218433   6.597   0.917   1.087  1.4532  0.5167 -1.0282
 5912SOL     OW18434   1.208   1.349   7.829 -0.1578 -0.0643  0.2427
 5912SOL    HW118435   1.203   1.253   7.826 -0.0429 -0.0582 -0.5594
 5912SOL    HW218436   1.118   1.377   7.813 -0.3592 -0.0369  1.3712
 5913SOL     OW18437   7.696   6.863   0.492  0.0330  0.0070  0.3144
 5913SOL    HW118438   7.768   6.800   0.491  1.1285  1.2332  0.4817
 5913SOL    HW218439   7.671   6.869   0.584  0.3373  0.2835  0.3774
 5914SOL     OW18440   1.078   3.219   7.824  0.2018  0.0961 -0.1758
 5914SOL    HW118441   1.083   3.147   7.761  1.1015  0.0793 -0.0912
 5914SOL    HW218442   1.162   3.263   7.817 -0.7046  1.7892 -0.9885
 5915SOL     OW18443   0.800   3.061   4.607  0.1252  0.2138  0.5783
 5915SOL    HW118444   0.839   2.987   4.653 -0.3236  0.4782  1.3832
 5915SOL    HW218445   0.735   3.096   4.667  2.5185  3.2757  1.6448
 5916SOL     OW18446   0.039   0.252   6.774  0.0712 -0.1168  0.1661
 5916SOL    HW118447   0.061   0.175   6.825  2.1853 -0.9155 -1.7407
 5916SOL    HW218448   0.065   0.326   6.829 -0.6845 -0.7931  1.4635
 5917SOL     OW18449   3.856   6.155   6.644 -0.1798  0.5513  0.0193
 5917SOL    HW118450   3.907   6.235   6.633 -0.7986  0.7679 -1.5363
 5917SOL    HW218451   3.915   6.096   6.691  0.5583  1.6615  0.5192
 5918SOL     OW18452   7.969   2.774   5.036 -0.2841 -0.2473  0.5421
 5918SOL    HW118453   8.011   2.733   4.961 -0.9843  0.3516 -0.1964
 5918SOL    HW218454   8.033   2.838   5.068 -0.6393  0.7429 -0.6444
 5919SOL     OW18455   3.928   4.888   1.142  0.1995 -0.1319  0.0133
 5919SOL    HW118456   3.883   4.933   1.214  0.7910 -1.3261  1.1657
 5919SOL    HW218457   3.984   4.824   1.185  1.1813 -0.3339 -1.4983
 5920SOL     OW18458   2.045   5.405   7.037  0.3100  0.2381 -0.0094
 5920SOL    HW118459   2.013   5.381   6.951 -1.0671 -0.8515  0.7701
 5920SOL    HW218460   2.133   5.368   7.042  0.0023 -0.5698 -0.5678
 5921SOL     OW18461   6.198   7.219   6.213 -0.4344 -0.3565  0.3584
 5921SOL    HW118462   6.220   7.295   6.266 -0.5771 -0.7051  0.9357
 5921SOL    HW218463   6.113   7.240   6.174 -0.5939 -0.3208  0.7218
 5922SOL     OW18464   1.710   4.818   4.703 -0.0032 -0.6314  0.2013
 5922SOL    HW118465   1.626   4.811   4.747 -0.6352 -0.2662 -0.9177
 5922SOL    HW218466   1.694   4.790   4.613  0.4912  1.6243 -0.6704
 5923SOL     OW18467   3.786   0.159   1.788 -0.3939 -0.0380 -0.7079
 5923SOL    HW118468   3.835   0.082   1.761  0.0147 -0.0933  0.1596
 5923SOL    HW218469   3.714   0.125   1.841  0.3480  0.2268  0.4900
 5924SOL     OW18470   3.550   4.115   7.816  0.4012 -0.5190  0.0101
 5924SOL    HW118471   3.641   4.093   7.833  0.2443 -1.6903 -0.6016
 5924SOL    HW218472   3.500   4.044   7.855 -0.1711 -0.6473 -0.9281
 5925SOL     OW18473   0.904   3.338   3.650  0.0734  0.3403 -0.0594
 5925SOL    HW118474   0.898   3.398   3.724 -1.3864 -0.9654  0.9547
 5925SOL    HW218475   0.917   3.394   3.574 -0.8380  1.9067  0.8967
 5926SOL     OW18476   7.556   0.973   0.901  0.3785 -0.3889  0.0666
 5926SOL    HW118477   7.626   1.011   0.953  0.4822  0.8920 -0.9531
 5926SOL    HW218478   7.537   1.039   0.834 -1.2371 -1.0485 -0.1831
 5927SOL     OW18479   5.967   2.057   1.649 -0.2519  0.0193  0.9269
 5927SOL    HW118480   6.013   2.021   1.725  0.2213 -1.4122  0.0070
 5927SOL    HW218481   5.933   1.980   1.604  1.0860  0.6761 -1.3344
 5928SOL     OW18482   0.954   4.286   7.135 -0.4391  0.1325 -0.8152
 5928SOL    HW118483   0.987   4.204   7.171  1.2885  0.5095 -1.4535
 5928SOL    HW218484   0.860   4.286   7.157 -0.2447 -1.4696  0.1591
 5929SOL     OW18485   0.970   5.962   3.761  0.1384  0.2153 -0.5060
 5929SOL    HW118486   1.043   5.998   3.711  0.9185  0.1981  0.5893
 5929SOL    HW218487   1.011   5.915   3.834 -0.8935 -1.5053 -0.9705
 5930SOL     OW18488   3.314   6.929   4.684  0.2249  0.4382  0.3536
 5930SOL    HW118489   3.265   6.972   4.755 -0.6485  1.7010 -0.9578
 5930SOL    HW218490   3.262   6.851   4.664  0.0828  0.4659  0.6037
 5931SOL     OW18491   7.576   4.782   5.663  0.4315 -0.6695  0.0761
 5931SOL    HW118492   7.562   4.877   5.669  1.0354 -0.6214  1.0683
 5931SOL    HW218493   7.537   4.747   5.743  0.4406 -1.2301 -0.1634
 5932SOL     OW18494   6.093   3.843   4.288  0.0882 -0.1110 -0.1834
 5932SOL    HW118495   5.999   3.827   4.277  0.1604 -1.2065  0.5880
 5932SOL    HW218496   6.134   3.757   4.280  1.0898  0.4053 -0.9193
 5933SOL     OW18497   1.812   7.394   6.670  0.2945 -0.4492 -0.1814
 5933SOL    HW118498   1.790   7.435   6.754  1.4485  0.6019 -0.3606
 5933SOL    HW218499   1.727   7.382   6.627 -0.1805  0.8278  0.3354
 5934SOL     OW18500   5.256   6.242   0.887  0.3173 -0.2640 -0.1423
 5934SOL    HW118501   5.273   6.188   0.964  1.0615  0.3756  0.1474
 5934SOL    HW218502   5.233   6.328   0.921 -0.5092 -0.2871 -0.6135
 5935SOL     OW18503   4.353   0.545   0.839  0.2279  0.3102 -0.0172
 5935SOL    HW118504   4.341   0.638   0.822  0.8857  0.1115 -1.8411
 5935SOL    HW218505   4.335   0.503   0.755 -0.1859 -1.2286  0.8096
 5936SOL     OW18506   6.837   2.780   1.949 -0.1854  0.3720 -0.0262
 5936SOL    HW118507   6.797   2.865   1.929  1.1820  1.1006  0.2116
 5936SOL    HW218508   6.764   2.727   1.981 -1.7157  0.3793 -3.1396
 5937SOL     OW18509   4.488   3.083   6.531 -0.3881  0.6255  0.3532
 5937SOL    HW118510   4.467   3.019   6.599  0.3879  0.6606  0.6431
 5937SOL    HW218511   4.446   3.049   6.452 -1.0002  0.3996  0.7671
 5938SOL     OW18512   0.156   2.520   7.113 -0.1680 -0.9152 -0.8250
 5938SOL    HW118513   0.107   2.472   7.047 -0.0601  0.6676 -2.1190
 5938SOL    HW218514   0.152   2.611   7.085  2.9882 -0.5993 -0.6696
 5939SOL     OW18515   7.034   2.659   0.353 -0.7681  0.5092 -0.1076
 5939SOL    HW118516   7.093   2.692   0.421 -1.9321  1.0001  0.7063
 5939SOL    HW218517   6.955   2.712   0.362 -1.6962 -0.7362 -0.5396
 5940SOL     OW18518   6.877   2.824   3.021 -0.4535  0.0495 -0.3450
 5940SOL    HW118519   6.782   2.814   3.017 -0.4487 -0.0104 -0.3186
 5940SOL    HW218520   6.907   2.750   3.074 -0.4029  0.1347 -0.2543
 5941SOL     OW18521   1.573   0.544   1.616  0.2141 -0.0843 -0.2880
 5941SOL    HW118522   1.579   0.635   1.587 -2.0054  0.8517  1.8322
 5941SOL    HW218523   1.544   0.495   1.539  2.9333  0.6249 -1.8892
 5942SOL     OW18524   7.919   3.513   2.418 -0.3204 -0.1023  0.1527
 5942SOL    HW118525   8.005   3.541   2.447  0.3949 -2.2437  0.2614
 5942SOL    HW218526   7.896   3.440   2.476 -0.7896 -1.6089 -1.8224
 5943SOL     OW18527   1.538   1.183   1.518 -0.3223 -0.2698  0.4752
 5943SOL    HW118528   1.616   1.138   1.485 -0.5388 -1.3972  1.4362
 5943SOL    HW218529   1.572   1.252   1.574  0.0030 -0.3931  0.4343
 5944SOL     OW18530   5.793   6.912   2.235  0.0480 -0.3151 -0.2491
 5944SOL    HW118531   5.792   7.008   2.228 -1.1365 -0.4089 -1.6329
 5944SOL    HW218532   5.848   6.895   2.312  0.4606  1.4587 -0.1033
 5945SOL     OW18533   0.603   3.797   7.065 -0.6807  0.1393  0.1419
 5945SOL    HW118534   0.649   3.725   7.022  2.7190  3.2483 -2.0387
 5945SOL    HW218535   0.636   3.796   7.155 -0.8327 -1.1124  0.1992
 5946SOL     OW18536   0.507   5.810   0.822 -0.8614  0.3927 -0.6896
 5946SOL    HW118537   0.445   5.825   0.894  0.8262  1.3749  0.6239
 5946SOL    HW218538   0.592   5.805   0.865 -0.0392 -1.2301 -2.4246
 5947SOL     OW18539   1.327   0.231   1.547  0.4784  0.0679 -0.0244
 5947SOL    HW118540   1.409   0.223   1.597  1.3731  0.7041 -1.3212
 5947SOL    HW218541   1.351   0.282   1.470 -1.0627 -0.0985 -0.6555
 5948SOL     OW18542   6.856   5.702   7.276 -0.2707 -0.0172  0.6146
 5948SOL    HW118543   6.863   5.659   7.191  2.1663  1.7397 -0.2011
 5948SOL    HW218544   6.781   5.762   7.267 -0.7966 -0.7335  0.1627
 5949SOL     OW18545   3.273   4.369   3.023 -0.0044  0.4168  0.3181
 5949SOL    HW118546   3.266   4.274   3.025  1.4473  0.2905  2.7630
 5949SOL    HW218547   3.229   4.395   2.942  3.1718 -2.6368 -2.7058
 5950SOL     OW18548   3.544   6.952   4.235  0.0613 -0.3704 -0.0233
 5950SOL    HW118549   3.485   6.975   4.307  0.6971  0.0871  0.3609
 5950SOL    HW218550   3.601   7.029   4.225 -0.5920 -0.0583 -1.6219
 5951SOL     OW18551   5.521   0.191   6.252  0.1512 -0.0307  0.1729
 5951SOL    HW118552   5.522   0.179   6.157 -0.2281 -0.2524  0.1964
 5951SOL    HW218553   5.520   0.286   6.264  0.3917  0.0006 -0.0411
 5952SOL     OW18554   4.413   5.642   7.687 -0.5301 -0.0468  0.2084
 5952SOL    HW118555   4.502   5.662   7.716 -0.5809 -1.2908  1.3356
 5952SOL    HW218556   4.365   5.724   7.696  0.1862  0.3066  0.8877
 5953SOL     OW18557   2.910   2.620   7.812 -0.1404 -0.5301 -0.0736
 5953SOL    HW118558   2.876   2.533   7.829 -0.4338 -0.4897 -0.4402
 5953SOL    HW218559   2.833   2.676   7.806 -0.0855 -0.5927 -1.7717
 5954SOL     OW18560   4.042   6.487   4.112  0.1811  0.3033 -0.2471
 5954SOL    HW118561   4.085   6.523   4.189  0.1232 -1.6672  0.7439
 5954SOL    HW218562   3.949   6.501   4.128  0.1089 -0.9234  0.5056
 5955SOL     OW18563   4.395   0.355   7.908 -0.1066  0.4370  0.0969
 5955SOL    HW118564   4.359   0.300   7.978  0.5857 -0.7127 -0.4136
 5955SOL    HW218565   4.487   0.365   7.932 -0.3688  1.9904  0.5483
 5956SOL     OW18566   0.158   6.632   3.398 -0.3407  0.7172 -0.4915
 5956SOL    HW118567   0.237   6.578   3.408  0.1387  1.3542 -0.7375
 5956SOL    HW218568   0.086   6.573   3.418  0.1699 -0.0146 -0.7504
 5957SOL     OW18569   6.961   5.998   1.095 -0.5337  0.1636 -0.1197
 5957SOL    HW118570   6.872   6.015   1.125 -0.0041  1.0226  0.9930
 5957SOL    HW218571   6.988   5.920   1.143 -0.5576  0.0926 -0.2194
 5958SOL     OW18572   3.176   3.649   6.120  0.1857 -0.7902  0.5998
 5958SOL    HW118573   3.082   3.642   6.107 -0.1625  2.4161  0.6337
 5958SOL    HW218574   3.212   3.654   6.031  0.1148 -0.3342  0.5924
 5959SOL     OW18575   2.588   4.659   0.623 -0.4122 -0.0240 -0.6420
 5959SOL    HW118576   2.545   4.723   0.566 -2.2240 -1.1235 -0.5989
 5959SOL    HW218577   2.611   4.587   0.564  0.1477 -0.0126 -0.4334
 5960SOL     OW18578   0.425   4.130   6.243 -0.4684  0.4555  0.0998
 5960SOL    HW118579   0.381   4.208   6.210 -0.5965  0.3278 -0.0326
 5960SOL    HW218580   0.518   4.153   6.241 -0.4329  0.2752 -0.8419
 5961SOL     OW18581   1.705   6.009   7.361 -0.3602  0.1299  0.5207
 5961SOL    HW118582   1.690   6.102   7.341 -0.4265  0.1782  0.8008
 5961SOL    HW218583   1.703   5.966   7.275  0.8328  0.5513  0.2477
 5962SOL     OW18584   4.956   2.642   5.055  0.0246 -0.7570 -0.3792
 5962SOL    HW118585   4.887   2.673   5.113  1.0466  1.0931 -0.0977
 5962SOL    HW218586   4.928   2.554   5.029 -0.5603 -1.5871  2.7271
 5963SOL     OW18587   5.953   7.707   3.479  0.3937  0.1410 -0.8530
 5963SOL    HW118588   5.934   7.784   3.425  1.3764  0.7747 -0.3434
 5963SOL    HW218589   6.006   7.651   3.422  0.8629  0.5019 -0.7860
 5964SOL     OW18590   5.146   1.549   7.512  0.0092  0.0090 -0.5482
 5964SOL    HW118591   5.134   1.524   7.603 -1.4294 -1.0949 -0.9937
 5964SOL    HW218592   5.192   1.475   7.473 -1.8840 -0.8277 -1.2975
 5965SOL     OW18593   2.689   7.368   6.531  0.1007 -0.5973  0.3179
 5965SOL    HW118594   2.664   7.358   6.439  2.2192  2.5490 -0.7771
 5965SOL    HW218595   2.640   7.444   6.561  0.5628 -0.6845  1.3398
 5966SOL     OW18596   0.994   6.751   3.608  0.0543 -0.0941 -0.0291
 5966SOL    HW118597   1.038   6.667   3.594 -1.0397 -0.4592 -1.4579
 5966SOL    HW218598   0.911   6.727   3.649 -0.1336  0.3319 -0.1644
 5967SOL     OW18599   0.830   1.853   2.166  0.0241  0.2015 -0.2539
 5967SOL    HW118600   0.778   1.919   2.210  0.8780  0.8087 -0.1210
 5967SOL    HW218601   0.902   1.834   2.227  1.2032  1.0233 -1.3348
 5968SOL     OW18602   5.892   6.705   0.704 -0.0660 -0.1749  0.4478
 5968SOL    HW118603   5.904   6.709   0.610  1.7417 -1.7536  0.5543
 5968SOL    HW218604   5.845   6.624   0.720  1.1996 -0.8424  0.9746
 5969SOL     OW18605   4.780   4.138   4.912  0.3848 -0.2111  0.0819
 5969SOL    HW118606   4.852   4.177   4.862  0.9332 -1.8198 -0.4372
 5969SOL    HW218607   4.780   4.187   4.995  0.5983  1.3131 -0.7654
 5970SOL     OW18608   6.422   6.008   6.479 -0.2557 -0.6189  0.1752
 5970SOL    HW118609   6.395   6.062   6.554 -0.5525  1.0262 -1.0650
 5970SOL    HW218610   6.515   5.992   6.494 -0.2649 -0.1524  0.8089
 5971SOL     OW18611   3.807   2.180   5.393  0.1998 -0.1405 -0.3752
 5971SOL    HW118612   3.783   2.265   5.354  0.0258  0.5186  1.0874
 5971SOL    HW218613   3.733   2.123   5.372 -0.2898  0.4439 -0.2701
 5972SOL     OW18614   6.656   3.485   1.336  0.0308  0.2218  0.2165
 5972SOL    HW118615   6.597   3.517   1.269 -0.9521  1.3752  1.5716
 5972SOL    HW218616   6.694   3.405   1.299 -1.3875  0.1614 -1.1947
 5973SOL     OW18617   7.286   7.690   4.618 -0.4132  0.3614 -0.2888
 5973SOL    HW118618   7.338   7.769   4.628  1.5496 -1.0191  1.1690
 5973SOL    HW218619   7.330   7.640   4.550 -1.0954  0.0809 -0.5375
 5974SOL     OW18620   3.453   3.067   6.559  0.2822 -0.5316 -0.0485
 5974SOL    HW118621   3.375   3.032   6.517 -1.1053  1.8234  0.3401
 5974SOL    HW218622   3.488   3.131   6.496 -0.0387  0.7945  1.0637
 5975SOL     OW18623   7.492   7.539   0.662 -0.7071 -0.6530 -0.1845
 5975SOL    HW118624   7.520   7.530   0.754 -1.3271 -1.1346 -0.0360
 5975SOL    HW218625   7.553   7.483   0.613 -1.1436 -1.3944  0.0934
 5976SOL     OW18626   3.047   5.275   6.565 -0.3514 -0.0772  0.0693
 5976SOL    HW118627   3.055   5.337   6.637 -0.2648 -0.1295  0.1052
 5976SOL    HW218628   3.012   5.327   6.492  0.2515  0.1452 -0.0662
 5977SOL     OW18629   6.943   3.056   6.566 -0.1963 -0.1840  0.4187
 5977SOL    HW118630   6.849   3.040   6.553  0.0620 -0.7702 -0.8284
 5977SOL    HW218631   6.979   2.970   6.586  0.4119 -0.3926 -1.3860
 5978SOL     OW18632   6.186   0.531   4.873  0.7298  0.3817  0.1676
 5978SOL    HW118633   6.237   0.537   4.792  1.7282 -0.8562  0.6683
 5978SOL    HW218634   6.180   0.437   4.891 -0.9039  0.5548  0.6624
 5979SOL     OW18635   0.362   4.897   3.109  0.6219  0.3892 -0.1141
 5979SOL    HW118636   0.318   4.907   3.024  0.1209  1.0776  0.2171
 5979SOL    HW218637   0.364   4.803   3.124  1.5037  0.1895 -1.2951
 5980SOL     OW18638   2.558   0.169   7.535  0.0531 -0.1339 -0.4099
 5980SOL    HW118639   2.525   0.097   7.481 -1.3915  0.8025 -0.8469
 5980SOL    HW218640   2.520   0.153   7.621  0.3368 -0.2880 -0.3122
 5981SOL     OW18641   0.817   0.519   7.139 -0.7088 -0.0786  0.0642
 5981SOL    HW118642   0.853   0.433   7.122 -0.6968 -0.0263 -0.1733
 5981SOL    HW218643   0.813   0.525   7.235 -0.2619 -0.1553  0.0902
 5982SOL     OW18644   3.766   2.791   4.289  0.2318  0.5382 -0.1893
 5982SOL    HW118645   3.760   2.871   4.341 -1.5451 -0.3086  1.0228
 5982SOL    HW218646   3.812   2.729   4.346 -0.6191 -0.0161 -0.0779
 5983SOL     OW18647   3.299   2.228   3.142 -0.3215 -0.4739  0.1732
 5983SOL    HW118648   3.391   2.253   3.135 -0.5776  0.1162 -1.5572
 5983SOL    HW218649   3.255   2.281   3.075 -2.0916  0.0692  1.6867
 5984SOL     OW18650   4.613   6.821   0.404 -0.0421 -0.1999  0.1235
 5984SOL    HW118651   4.631   6.915   0.412 -1.2239  0.1279 -0.7804
 5984SOL    HW218652   4.520   6.813   0.424 -0.1206 -1.0690 -0.5302
 5985SOL     OW18653   0.896   1.241   1.194  0.6581  0.0158 -0.5698
 5985SOL    HW118654   0.906   1.336   1.188  0.0195  0.2158  0.9914
 5985SOL    HW218655   0.968   1.206   1.141  1.4768  1.3675 -0.4048
 5986SOL     OW18656   3.815   6.028   6.318 -0.4406 -0.0810  0.1908
 5986SOL    HW118657   3.758   5.952   6.311 -2.5846  1.5438 -1.0315
 5986SOL    HW218658   3.792   6.068   6.402  0.7771 -0.7858  0.8950
 5987SOL     OW18659   7.955   4.287   7.837  0.1119  0.1781  0.0557
 5987SOL    HW118660   7.984   4.241   7.916  0.0460 -0.0623 -0.0597
 5987SOL    HW218661   7.886   4.232   7.802 -1.4732  1.3928  1.0797
 5988SOL     OW18662   7.348   6.870   0.143 -0.0562 -0.3384 -0.5581
 5988SOL    HW118663   7.361   6.876   0.048 -0.8575  1.4269 -0.6111
 5988SOL    HW218664   7.435   6.856   0.179  0.6267  1.2572 -1.4550
 5989SOL     OW18665   7.429   3.947   2.986 -0.2521 -0.0098  0.0933
 5989SOL    HW118666   7.470   3.968   2.902  0.2007 -1.6984 -0.1543
 5989SOL    HW218667   7.447   4.023   3.041  1.2950  0.2509 -0.7118
 5990SOL     OW18668   6.518   0.544   7.347 -0.0060 -0.0313 -0.2553
 5990SOL    HW118669   6.486   0.455   7.363  0.1513  0.1730  1.4383
 5990SOL    HW218670   6.533   0.580   7.435 -1.3423  2.1430 -0.8467
 5991SOL     OW18671   5.423   5.643   1.887 -0.0877 -0.6139 -0.0613
 5991SOL    HW118672   5.471   5.606   1.961 -0.2236 -1.9284 -0.6074
 5991SOL    HW218673   5.464   5.605   1.810 -0.2879  0.3328 -0.6581
 5992SOL     OW18674   2.103   4.575   1.687 -0.7372 -0.3191 -0.2261
 5992SOL    HW118675   2.122   4.483   1.704  1.1510  0.0422 -0.2073
 5992SOL    HW218676   2.182   4.609   1.645 -1.2344  1.3985  0.1438
 5993SOL     OW18677   3.162   4.282   7.905 -0.2469  0.1796 -0.4970
 5993SOL    HW118678   3.097   4.306   7.839 -1.6141 -1.4296  0.1876
 5993SOL    HW218679   3.114   4.229   7.968  1.4510  0.0696  0.7872
 5994SOL     OW18680   7.121   3.481   0.900  0.0662 -0.0422  0.4135
 5994SOL    HW118681   7.107   3.497   0.807  0.2881 -0.8597  0.2267
 5994SOL    HW218682   7.095   3.562   0.943  4.6348  2.2641 -0.6664
 5995SOL     OW18683   5.838   3.793   4.212  0.8818  0.6950  1.0534
 5995SOL    HW118684   5.872   3.748   4.135  0.7731  1.1589  0.7284
 5995SOL    HW218685   5.771   3.853   4.178 -1.7798 -1.5917  1.8690
 5996SOL     OW18686   1.050   2.968   7.214  0.2119  0.0926 -0.0579
 5996SOL    HW118687   1.020   2.891   7.262 -0.9791  0.6879  0.1833
 5996SOL    HW218688   1.137   2.944   7.182  0.5115 -0.7670  1.3356
 5997SOL     OW18689   5.563   6.458   4.295  0.0024  0.2102 -0.0506
 5997SOL    HW118690   5.633   6.423   4.239 -0.2956  0.1435 -0.3861
 5997SOL    HW218691   5.514   6.380   4.322  1.2253  0.0291  1.8179
 5998SOL     OW18692   5.296   1.559   3.929 -0.6545  0.3165  0.4096
 5998SOL    HW118693   5.348   1.480   3.945  0.7670  1.7158  3.7173
 5998SOL    HW218694   5.362   1.627   3.915 -1.8312  1.1854 -1.2449
 5999SOL     OW18695   5.732   2.290   2.542 -0.0694  0.4132  1.0596
 5999SOL    HW118696   5.646   2.247   2.545  0.3340 -0.4114  1.0761
 5999SOL    HW218697   5.795   2.218   2.536  0.5987  1.0258  0.5019
 6000SOL     OW18698   5.910   4.370   5.407  0.0246 -0.2670 -0.4798
 6000SOL    HW118699   5.849   4.437   5.377 -1.0365 -0.7675  0.4612
 6000SOL    HW218700   5.937   4.399   5.494  0.4862 -0.4671 -0.5535
 6001SOL     OW18701   7.039   2.749   0.094 -0.4814  0.1730 -0.0275
 6001SOL    HW118702   7.077   2.836   0.094 -0.9269  0.3702  0.0643
 6001SOL    HW218703   7.052   2.716   0.183  1.6089 -0.7165 -0.6050
 6002SOL     OW18704   3.166   1.972   7.913  0.4867 -0.5825  0.3258
 6002SOL    HW118705   3.259   1.959   7.932  0.2399 -2.1741  0.5881
 6002SOL    HW218706   3.160   1.964   7.818  0.6604 -0.2280  0.2863
 6003SOL     OW18707   6.603   0.293   6.610 -0.0412 -1.0702 -0.6061
 6003SOL    HW118708   6.687   0.336   6.594 -0.5896  0.2213 -0.1712
 6003SOL    HW218709   6.603   0.216   6.553  0.4816  0.1691 -2.3579
 6004SOL     OW18710   5.192   5.344   7.203 -0.3877  0.6048 -0.4304
 6004SOL    HW118711   5.184   5.359   7.297 -0.6072 -0.1416 -0.3265
 6004SOL    HW218712   5.119   5.393   7.165 -1.1952 -0.3143 -0.0837
 6005SOL     OW18713   0.388   2.072   1.548 -0.0750  0.5223 -0.0403
 6005SOL    HW118714   0.319   2.028   1.499  0.0946  0.8202 -0.5567
 6005SOL    HW218715   0.360   2.163   1.553  0.0632  0.5562  0.1405
 6006SOL     OW18716   4.012   4.782   3.246 -0.2834  0.1103  0.1161
 6006SOL    HW118717   3.940   4.718   3.240  0.1968 -0.4095 -0.2142
 6006SOL    HW218718   4.090   4.728   3.261  0.1653  0.6020 -0.4329
 6007SOL     OW18719   0.679   0.641   6.954 -0.5170  0.0237 -0.0437
 6007SOL    HW118720   0.735   0.584   7.007  0.0427 -1.0929 -1.7566
 6007SOL    HW218721   0.734   0.717   6.934  0.7445 -1.3960 -2.3287
 6008SOL     OW18722   5.705   0.587   0.532 -0.1978 -0.2022 -0.4630
 6008SOL    HW118723   5.720   0.493   0.546 -0.1741  0.1194  2.2216
 6008SOL    HW218724   5.614   0.593   0.505  0.0328 -1.0377 -1.5003
 6009SOL     OW18725   1.485   0.606   3.988 -0.2673  0.2664 -0.5032
 6009SOL    HW118726   1.455   0.613   4.078 -0.5447 -1.1156 -0.4720
 6009SOL    HW218727   1.562   0.549   3.992  2.5916  3.7500 -0.5591
 6010SOL     OW18728   1.108   2.982   0.894  0.5039 -0.2925 -0.8278
 6010SOL    HW118729   1.089   2.999   0.986 -2.0167 -2.0449 -0.9257
 6010SOL    HW218730   1.167   2.907   0.895 -1.3243 -1.8014 -0.5850
 6011SOL     OW18731   7.486   6.631   0.386  0.4133 -0.4351  0.3331
 6011SOL    HW118732   7.556   6.696   0.391  0.7334 -0.7824  0.4648
 6011SOL    HW218733   7.482   6.593   0.474  0.2235 -0.5848  0.2620
 6012SOL     OW18734   2.927   7.090   6.356  0.0219 -0.4300 -0.0783
 6012SOL    HW118735   2.891   7.149   6.290  0.2590 -0.9188 -0.6625
 6012SOL    HW218736   2.969   7.147   6.420  0.7748  0.0167 -0.9532
 6013SOL     OW18737   5.092   7.196   7.720 -0.1745  0.1231 -0.0460
 6013SOL    HW118738   5.105   7.250   7.798  0.4900  0.1214 -0.1500
 6013SOL    HW218739   5.118   7.108   7.747  1.4974  0.3950 -0.6772
 6014SOL     OW18740   7.468   5.770   5.368  0.1228 -0.5097 -0.4234
 6014SOL    HW118741   7.536   5.836   5.350 -0.3651  0.1769  0.1723
 6014SOL    HW218742   7.489   5.697   5.310  1.4601 -0.3706 -0.1401
 6015SOL     OW18743   3.620   2.697   4.088 -0.4064  0.1384 -0.1015
 6015SOL    HW118744   3.672   2.739   4.156  2.4572 -2.7392 -0.2495
 6015SOL    HW218745   3.641   2.744   4.008 -0.5016  0.9208  0.3293
 6016SOL     OW18746   6.975   2.144   4.484 -0.6266  0.2688 -0.3943
 6016SOL    HW118747   6.995   2.140   4.391  1.5818  1.7090 -0.0471
 6016SOL    HW218748   7.038   2.084   4.525 -0.0891  1.3005  0.3401
 6017SOL     OW18749   4.351   4.863   2.063  0.0490 -0.5308  0.2189
 6017SOL    HW118750   4.325   4.774   2.086  1.8516 -1.1859 -0.0985
 6017SOL    HW218751   4.427   4.880   2.118  0.5657  0.2744 -0.7108
 6018SOL     OW18752   0.176   2.915   2.076 -0.2622  0.2682  0.0698
 6018SOL    HW118753   0.251   2.969   2.101 -1.2314  1.4164  0.5835
 6018SOL    HW218754   0.100   2.964   2.108 -1.3514  0.0341 -2.0099
 6019SOL     OW18755   6.344   2.366   1.761 -0.3727 -0.3230  0.2109
 6019SOL    HW118756   6.389   2.394   1.682 -1.2611  0.2155 -0.1273
 6019SOL    HW218757   6.251   2.384   1.743 -0.5479  0.1897  1.5324
 6020SOL     OW18758   7.317   1.502   3.096 -0.1584 -0.1749 -0.2607
 6020SOL    HW118759   7.253   1.462   3.155 -0.9990  0.5144 -0.6814
 6020SOL    HW218760   7.361   1.568   3.150 -1.6833  1.2239 -0.6396
 6021SOL     OW18761   6.321   2.839   2.361  0.3756  0.9071  0.3362
 6021SOL    HW118762   6.315   2.933   2.344  0.0164  1.0177  1.0656
 6021SOL    HW218763   6.415   2.820   2.362  0.4474  1.2493  0.1787
 6022SOL     OW18764   7.668   4.534   4.981  0.0902  0.5308 -0.0492
 6022SOL    HW118765   7.655   4.588   4.903 -1.5224  0.7186  0.3055
 6022SOL    HW218766   7.709   4.593   5.044 -2.6102  1.7907  0.6991
 6023SOL     OW18767   4.081   2.817   2.993  0.2876 -0.5488 -0.2753
 6023SOL    HW118768   4.003   2.808   3.047  0.1300  1.6500 -0.0243
 6023SOL    HW218769   4.150   2.774   3.043 -0.2973 -0.4615  0.6359
 6024SOL     OW18770   4.358   2.392   7.825  0.1707 -0.0198  0.2928
 6024SOL    HW118771   4.426   2.458   7.815  1.2583 -1.2910 -1.0860
 6024SOL    HW218772   4.327   2.374   7.737  0.5083 -1.9389  0.5091
 6025SOL     OW18773   5.848   5.452   3.025  0.6909  0.8546  0.2079
 6025SOL    HW118774   5.941   5.474   3.030  0.5815  1.4699 -0.2777
 6025SOL    HW218775   5.832   5.397   3.101  1.7586 -0.4107 -0.4264
 6026SOL     OW18776   6.466   6.298   4.561  0.5876  0.2907  0.2533
 6026SOL    HW118777   6.434   6.233   4.498 -0.4214  1.0879 -0.1052
 6026SOL    HW218778   6.543   6.336   4.519 -1.0913  2.1037 -1.4629
 6027SOL     OW18779   1.309   5.693   5.510  0.8052 -0.0627 -0.4090
 6027SOL    HW118780   1.355   5.692   5.593 -1.5328 -0.0761  0.9890
 6027SOL    HW218781   1.250   5.617   5.515 -0.9710  1.2119 -1.0759
 6028SOL     OW18782   6.111   1.232   3.562  0.6610  0.1229 -0.0662
 6028SOL    HW118783   6.072   1.317   3.543 -1.4865 -0.7392  0.2381
 6028SOL    HW218784   6.122   1.232   3.657 -1.8939 -0.9020  0.2963
 6029SOL     OW18785   5.629   4.787   6.617  0.2399 -0.0737  0.2394
 6029SOL    HW118786   5.691   4.829   6.558  1.5725 -1.0776  0.8642
 6029SOL    HW218787   5.612   4.702   6.578  1.4157 -0.8959  1.4279
 6030SOL     OW18788   2.584   1.843   0.748  0.2888 -0.4617 -0.5086
 6030SOL    HW118789   2.676   1.862   0.764 -0.0770  0.4914  0.6085
 6030SOL    HW218790   2.558   1.789   0.822 -0.2138 -0.1559 -0.4570
 6031SOL     OW18791   3.622   3.865   1.372 -0.1111 -0.0504  0.2993
 6031SOL    HW118792   3.708   3.900   1.399 -0.3538 -0.5260  1.7646
 6031SOL    HW218793   3.642   3.780   1.334  0.0613 -0.2977  0.9198
 6032SOL     OW18794   3.793   2.811   3.804 -0.3100 -0.5211 -0.2428
 6032SOL    HW118795   3.830   2.826   3.891  0.0466 -0.4589 -0.4050
 6032SOL    HW218796   3.798   2.896   3.761 -0.4992 -0.5485 -0.3197
 6033SOL     OW18797   5.721   0.689   2.466  0.2284 -0.0583 -0.3468
 6033SOL    HW118798   5.670   0.770   2.457 -0.2850 -0.5407 -2.1086
 6033SOL    HW218799   5.812   0.717   2.463  0.0759  0.3740 -2.3792
 6034SOL     OW18800   3.192   6.738   1.735  1.1388  0.0127 -0.4458
 6034SOL    HW118801   3.136   6.795   1.788  1.3610  1.4932 -1.7379
 6034SOL    HW218802   3.141   6.720   1.657  2.4929  1.6556 -1.7975
 6035SOL     OW18803   2.175   2.921   1.692 -0.1834 -0.3429 -0.1049
 6035SOL    HW118804   2.208   2.994   1.640  1.6943 -1.5785 -0.7289
 6035SOL    HW218805   2.144   2.962   1.773 -0.3871  1.2710 -0.9569
 6036SOL     OW18806   0.306   3.390   6.876 -0.5038 -0.0756 -0.2462
 6036SOL    HW118807   0.360   3.469   6.869 -1.0871  0.2076 -1.6884
 6036SOL    HW218808   0.353   3.324   6.825 -0.7448 -0.2583 -0.2349
 6037SOL     OW18809   7.950   1.522   0.442 -0.2425 -0.3762  0.3543
 6037SOL    HW118810   7.906   1.448   0.485 -0.6794  0.7337  1.9161
 6037SOL    HW218811   7.881   1.564   0.391  0.3129 -1.7894 -1.6717
 6038SOL     OW18812   1.841   4.310   4.885  0.1038  0.0179 -0.2929
 6038SOL    HW118813   1.802   4.302   4.972 -0.6489 -1.7094 -0.7424
 6038SOL    HW218814   1.932   4.337   4.901 -0.1467  0.1502  0.9890
 6039SOL     OW18815   3.421   4.522   3.177 -0.1182 -0.1993  0.3514
 6039SOL    HW118816   3.360   4.461   3.136 -0.5717 -0.0056  0.7254
 6039SOL    HW218817   3.370   4.602   3.189  0.4273  0.2175 -0.0114
 6040SOL     OW18818   1.022   2.304   2.810 -0.1187 -0.1552  0.0617
 6040SOL    HW118819   1.079   2.374   2.777  0.0789 -0.7363 -0.8693
 6040SOL    HW218820   1.029   2.311   2.905  0.3103  0.7558 -0.0215
 6041SOL     OW18821   2.731   0.319   4.034 -0.1610 -0.0723 -0.1666
 6041SOL    HW118822   2.743   0.386   4.102 -0.6564 -0.0184 -0.1328
 6041SOL    HW218823   2.751   0.237   4.079 -0.9190 -0.0798  0.1667
 6042SOL     OW18824   4.728   2.948   5.564 -0.0473 -0.1231 -0.1472
 6042SOL    HW118825   4.735   2.853   5.566 -0.1132 -0.1232  1.3022
 6042SOL    HW218826   4.696   2.972   5.651 -0.8894  1.1678 -0.7710
 6043SOL     OW18827   6.897   5.171   6.704 -0.8668 -0.1282 -0.1152
 6043SOL    HW118828   6.966   5.106   6.692 -0.7145  0.2030 -1.2138
 6043SOL    HW218829   6.916   5.238   6.639 -1.8968  0.2567 -0.0465
 6044SOL     OW18830   6.155   2.880   4.523  0.0474 -0.0093  0.3134
 6044SOL    HW118831   6.140   2.794   4.563  0.7642 -0.3992 -0.2332
 6044SOL    HW218832   6.189   2.860   4.436  1.6148  0.8133  0.7084
 6045SOL     OW18833   5.741   5.637   6.180  0.1490 -0.3638 -0.8125
 6045SOL    HW118834   5.786   5.556   6.157 -0.1606 -1.1924  1.2375
 6045SOL    HW218835   5.649   5.621   6.157  0.2539 -0.1866 -1.3623
 6046SOL     OW18836   2.592   3.461   1.534 -0.0966 -0.1630 -0.3443
 6046SOL    HW118837   2.650   3.479   1.608 -1.0751 -0.9622  0.6501
 6046SOL    HW218838   2.520   3.523   1.545 -0.6039 -0.7668 -0.1946
 6047SOL     OW18839   3.544   0.800   5.672 -0.5619  0.0998  0.2435
 6047SOL    HW118840   3.499   0.755   5.744 -0.2173 -1.5832 -0.5465
 6047SOL    HW218841   3.474   0.827   5.613 -0.6906 -0.7899 -0.0270
 6048SOL     OW18842   4.495   3.526   3.483 -0.2913  0.1247  0.2633
 6048SOL    HW118843   4.557   3.509   3.554  1.2920  1.8050 -0.6156
 6048SOL    HW218844   4.419   3.564   3.526 -2.1007 -4.5337  1.7220
 6049SOL     OW18845   7.659   3.114   0.875 -0.7043 -0.7073  0.0365
 6049SOL    HW118846   7.580   3.093   0.824 -0.3830 -1.0969 -0.3043
 6049SOL    HW218847   7.648   3.207   0.897 -1.1430 -0.6913 -0.2150
 6050SOL     OW18848   3.481   7.580   2.416  0.3714  0.1580  0.3055
 6050SOL    HW118849   3.523   7.538   2.340 -0.6898  1.6497 -1.1880
 6050SOL    HW218850   3.530   7.661   2.428 -0.0816  0.3865  0.5998
 6051SOL     OW18851   4.552   2.596   0.453 -0.4904 -0.2556  0.3105
 6051SOL    HW118852   4.512   2.529   0.509 -1.2679 -0.1550 -0.1044
 6051SOL    HW218853   4.480   2.626   0.397  0.3967 -0.7271 -1.1142
 6052SOL     OW18854   3.354   5.567   5.619  0.1233 -0.4644 -0.1535
 6052SOL    HW118855   3.412   5.595   5.549 -1.1535 -0.4674 -1.2628
 6052SOL    HW218856   3.352   5.640   5.680  3.5739 -1.5546  1.5234
 6053SOL     OW18857   0.735   5.586   5.541  0.0278 -0.3017  0.1748
 6053SOL    HW118858   0.771   5.552   5.622 -0.6468 -1.1386  0.1322
 6053SOL    HW218859   0.739   5.681   5.551  0.9343 -0.3911  0.7383
 6054SOL     OW18860   2.387   6.919   1.332  0.0788 -0.4885  0.0153
 6054SOL    HW118861   2.301   6.912   1.374  0.0485 -1.5663 -0.1897
 6054SOL    HW218862   2.383   6.855   1.260  0.3841  0.7946 -1.1931
 6055SOL     OW18863   2.738   6.796   4.587  0.2320  0.1903 -0.4139
 6055SOL    HW118864   2.686   6.716   4.575  0.4160  0.2961 -2.3356
 6055SOL    HW218865   2.828   6.768   4.572  0.2088  0.8905 -2.0645
 6056SOL     OW18866   5.762   6.656   3.059 -0.5787  0.3442  0.4725
 6056SOL    HW118867   5.720   6.712   3.124 -0.7372  1.2991 -0.4230
 6056SOL    HW218868   5.718   6.571   3.068 -1.3955  0.7927  0.8229
 6057SOL     OW18869   5.343   5.089   7.976  0.0281  0.0651  0.3281
 6057SOL    HW118870   5.256   5.058   7.952 -0.7251  1.6038  0.9194
 6057SOL    HW218871   5.342   5.093   8.072 -1.2698  5.1002  0.3829
 6058SOL     OW18872   6.390   0.525   3.238 -0.0981 -0.0200 -0.4266
 6058SOL    HW118873   6.361   0.565   3.320  1.6248  0.4805 -0.0194
 6058SOL    HW218874   6.484   0.542   3.235  0.4603 -2.7175 -0.9977
 6059SOL     OW18875   3.047   5.824   4.094 -0.2634 -0.3308 -0.1319
 6059SOL    HW118876   2.969   5.771   4.078  0.1699 -0.0120 -4.4201
 6059SOL    HW218877   3.019   5.914   4.079  0.3763  0.0740  0.9809
 6060SOL     OW18878   3.432   0.136   7.172  0.5828 -0.4626  0.1634
 6060SOL    HW118879   3.501   0.192   7.136  0.7207  1.6320  3.2817
 6060SOL    HW218880   3.352   0.163   7.125  1.2237 -0.1698 -0.7911
 6061SOL     OW18881   4.771   3.334   5.538  0.2222  0.0275  0.8809
 6061SOL    HW118882   4.822   3.362   5.614 -2.1799  0.5423  2.4203
 6061SOL    HW218883   4.812   3.253   5.509  2.6231  1.0586  1.2139
 6062SOL     OW18884   7.282   3.742   5.393 -0.7233  0.1157  0.1881
 6062SOL    HW118885   7.298   3.800   5.467 -0.5415 -1.3042  1.3174
 6062SOL    HW218886   7.369   3.712   5.367 -0.7962  0.5220 -0.5315
 6063SOL     OW18887   3.864   3.723   5.978  0.0651  0.0563  0.6647
 6063SOL    HW118888   3.890   3.662   5.910  0.9314  0.6895  0.4096
 6063SOL    HW218889   3.841   3.668   6.053  1.3849 -0.5766  0.6264
 6064SOL     OW18890   0.631   3.279   0.912  0.0523  0.4570 -0.3466
 6064SOL    HW118891   0.720   3.270   0.877  0.5626 -0.6777  1.0943
 6064SOL    HW218892   0.574   3.245   0.844  0.8486 -0.0333 -0.7827
 6065SOL     OW18893   4.469   5.044   2.908 -0.1902 -0.1324  0.1123
 6065SOL    HW118894   4.375   5.054   2.898 -0.0070  0.9963 -0.7397
 6065SOL    HW218895   4.480   4.985   2.982 -1.5631 -0.5423  0.0038
 6066SOL     OW18896   5.689   2.746   5.935  0.0060  0.0937  0.6401
 6066SOL    HW118897   5.608   2.733   5.885 -0.5746  1.8427  1.0467
 6066SOL    HW218898   5.732   2.819   5.892  0.1698  0.7392  1.8633
 6067SOL     OW18899   7.076   1.378   5.851 -0.4598 -0.2496  0.5652
 6067SOL    HW118900   7.075   1.421   5.936 -0.2836  0.4562  0.2183
 6067SOL    HW218901   6.988   1.341   5.842 -0.7562  0.4025  0.6978
 6068SOL     OW18902   5.265   3.220   7.466  0.4267 -0.3295  0.5328
 6068SOL    HW118903   5.268   3.227   7.562 -0.4913  1.2053  0.5010
 6068SOL    HW218904   5.175   3.246   7.444  0.3573 -1.5300 -0.7035
 6069SOL     OW18905   2.494   7.534   5.488 -0.5828 -0.3535 -0.1759
 6069SOL    HW118906   2.504   7.607   5.427  0.2583  0.8807  1.3539
 6069SOL    HW218907   2.526   7.458   5.440  0.5385  0.6669 -1.1025
 6070SOL     OW18908   6.294   0.011   7.151  0.4124 -0.2531  0.0908
 6070SOL    HW118909   6.246   0.093   7.159  1.5985  0.4357  0.4405
 6070SOL    HW218910   6.290  -0.029   7.238  0.8059  0.0143  0.2380
 6071SOL     OW18911   6.289   4.364   6.826 -0.1435  0.0527 -0.7508
 6071SOL    HW118912   6.254   4.417   6.898  0.9424 -0.7159  0.3836
 6071SOL    HW218913   6.214   4.312   6.796 -0.7103  0.7024 -0.4917
 6072SOL     OW18914   6.341   4.338   2.616  0.3346  0.2020  0.0016
 6072SOL    HW118915   6.356   4.283   2.693 -0.3446  0.3024  0.2106
 6072SOL    HW218916   6.269   4.295   2.570 -0.0912  0.8254  0.0814
 6073SOL     OW18917   3.534   6.407   5.834 -0.0266 -0.3156 -0.6868
 6073SOL    HW118918   3.576   6.491   5.856 -1.4307  0.3355 -0.3867
 6073SOL    HW218919   3.502   6.420   5.744  0.5410 -0.8766 -0.9800
 6074SOL     OW18920   6.338   2.646   5.836 -0.0171  0.2062 -0.0852
 6074SOL    HW118921   6.249   2.682   5.835 -0.9009 -1.8326 -1.4628
 6074SOL    HW218922   6.377   2.677   5.754  0.1476  0.1584 -0.0260
 6075SOL     OW18923   0.014   4.015   3.435  0.8483  0.6741 -0.2889
 6075SOL    HW118924   0.033   4.060   3.353 -0.7384  0.4945 -0.7864
 6075SOL    HW218925  -0.025   4.083   3.491 -2.7981 -0.2161 -1.5025
 6076SOL     OW18926   0.549   6.456   0.093  0.2721 -0.0740  0.3165
 6076SOL    HW118927   0.602   6.390   0.047  0.4247  0.9092 -0.9735
 6076SOL    HW218928   0.460   6.440   0.063  0.4197  0.7913 -0.6397
 6077SOL     OW18929   7.909   7.602   0.473 -0.0967  0.6549  0.5261
 6077SOL    HW118930   7.841   7.633   0.414  1.5115  1.2007 -1.1130
 6077SOL    HW218931   7.864   7.594   0.558 -2.3237  0.3961 -0.5860
 6078SOL     OW18932   1.519   4.951   4.084 -0.0855  0.3623 -0.7120
 6078SOL    HW118933   1.573   4.872   4.080 -0.9592 -0.2542 -0.5780
 6078SOL    HW218934   1.581   5.023   4.075  0.7945 -0.3234 -0.2245
 6079SOL     OW18935   7.601   0.356   2.954  0.3965  0.0696 -0.3330
 6079SOL    HW118936   7.511   0.370   2.924 -0.1110 -0.8141  0.6794
 6079SOL    HW218937   7.624   0.436   3.002 -0.8485 -0.6731  1.6437
 6080SOL     OW18938   2.058   5.437   3.033 -0.1212  0.4783  0.4916
 6080SOL    HW118939   2.031   5.345   3.040  0.9915  0.1407  0.5052
 6080SOL    HW218940   2.014   5.469   2.954  0.5164 -0.4440 -0.2576
 6081SOL     OW18941   7.519   7.938   1.633 -0.3501  0.0644 -0.2693
 6081SOL    HW118942   7.580   7.938   1.706 -1.0102  0.8698  0.2914
 6081SOL    HW218943   7.556   8.002   1.571 -1.0833  1.2339  0.4752
 6082SOL     OW18944   1.236   3.111   1.348  0.1407  0.5647  0.1683
 6082SOL    HW118945   1.163   3.085   1.292  1.2181 -2.0339 -0.1643
 6082SOL    HW218946   1.202   3.103   1.437  0.1010 -0.9854  0.0271
 6083SOL     OW18947   0.794   0.587   5.994 -0.2215 -0.1705  0.0942
 6083SOL    HW118948   0.771   0.526   6.064  0.5685 -0.1572  0.3759
 6083SOL    HW218949   0.718   0.587   5.936 -1.4798  0.8344  1.6442
 6084SOL     OW18950   3.825   7.658   3.902 -0.2195 -0.2284  0.6464
 6084SOL    HW118951   3.831   7.747   3.865  0.9961  0.4915  2.4312
 6084SOL    HW218952   3.826   7.601   3.825  0.7008  1.2471 -0.5210
 6085SOL     OW18953   5.821   2.164   4.397 -0.3130 -0.1040 -0.1431
 6085SOL    HW118954   5.764   2.089   4.377 -0.5887  0.1867 -0.4617
 6085SOL    HW218955   5.909   2.134   4.375 -0.4409 -0.2864 -0.4115
 6086SOL     OW18956   1.176   6.013   3.443  0.5854  0.5818 -0.6467
 6086SOL    HW118957   1.207   5.923   3.443  1.7390  0.9648 -0.5205
 6086SOL    HW218958   1.202   6.048   3.529 -1.2852  0.5819 -0.0254
 6087SOL     OW18959   1.687   6.740   0.559 -0.0527  0.2564  0.2236
 6087SOL    HW118960   1.773   6.782   0.555 -0.0835  0.3887  0.9098
 6087SOL    HW218961   1.656   6.756   0.648 -0.6948  0.0193  0.0487
 6088SOL     OW18962   1.379   5.685   7.076  0.1530 -0.1623  0.6440
 6088SOL    HW118963   1.400   5.599   7.039 -2.0346 -0.9171  1.0106
 6088SOL    HW218964   1.296   5.710   7.034  0.8587  1.8916  0.3729
 6089SOL     OW18965   3.705   7.850   4.804 -0.2225  0.4626 -0.0130
 6089SOL    HW118966   3.786   7.848   4.854  0.8410  1.9206 -1.5585
 6089SOL    HW218967   3.704   7.767   4.756  1.6063  1.3261 -1.7230
 6090SOL     OW18968   5.993   2.985   2.255  0.0142 -0.1309 -0.2526
 6090SOL    HW118969   5.913   2.940   2.228  0.6410 -0.6044 -1.3871
 6090SOL    HW218970   6.007   2.956   2.346 -1.7796  0.9750  0.4346
 6091SOL     OW18971   2.410   7.884   0.938  0.5330 -0.3606  0.4356
 6091SOL    HW118972   2.445   7.819   0.878 -0.5927  0.4804 -1.2399
 6091SOL    HW218973   2.486   7.936   0.965  1.0354 -0.5849 -0.5058
 6092SOL     OW18974   2.608   2.491   6.947  0.3661 -0.3938  0.4804
 6092SOL    HW118975   2.528   2.507   6.897  0.2276 -3.6489 -0.5296
 6092SOL    HW218976   2.633   2.401   6.926  1.7336 -1.1032  4.3008
 6093SOL     OW18977   6.163   7.673   3.050  0.1632 -0.1601 -0.4855
 6093SOL    HW118978   6.213   7.605   3.003 -0.7204 -0.6007 -0.8211
 6093SOL    HW218979   6.173   7.751   2.996  1.7565  0.2054  0.2506
 6094SOL     OW18980   3.350   2.736   2.637 -0.1234 -0.1993  0.1402
 6094SOL    HW118981   3.342   2.831   2.630 -0.3046 -0.2278 -0.0696
 6094SOL    HW218982   3.371   2.707   2.548  1.8089 -0.1888  0.5528
 6095SOL     OW18983   4.847   5.670   6.582 -0.5227 -0.1976  0.1619
 6095SOL    HW118984   4.849   5.754   6.627  1.3001 -0.3610  0.4845
 6095SOL    HW218985   4.805   5.688   6.498 -2.2543  0.5097  1.1423
 6096SOL     OW18986   4.049   0.290   7.300  0.2490  0.1990  0.3140
 6096SOL    HW118987   4.059   0.385   7.307 -2.0710  0.4576  0.6627
 6096SOL    HW218988   4.085   0.256   7.383  0.7711  0.7814  0.3353
 6097SOL     OW18989   2.925   4.081   3.005  0.5614  0.2005 -0.0200
 6097SOL    HW118990   2.914   4.028   2.927 -1.1341 -0.7095  0.7835
 6097SOL    HW218991   2.924   4.018   3.077  3.9342  0.7873  0.7295
 6098SOL     OW18992   1.653   7.822   5.552 -0.4453  0.3079 -0.1364
 6098SOL    HW118993   1.708   7.871   5.613 -0.2457 -1.2950  1.0502
 6098SOL    HW218994   1.650   7.876   5.474  1.3126  1.3119  0.4258
 6099SOL     OW18995   6.990   6.821   0.865  0.1301 -0.3329 -0.6984
 6099SOL    HW118996   6.977   6.888   0.932 -0.3952 -0.9639 -0.1511
 6099SOL    HW218997   7.083   6.799   0.870  0.0780 -0.4387 -0.1071
 6100SOL     OW18998   4.361   4.088   6.197  0.1907  0.1445  0.0292
 6100SOL    HW118999   4.434   4.050   6.147  0.5181  1.5744 -0.6659
 6100SOL    HW219000   4.314   4.142   6.133 -1.1621 -0.3126  0.6073
 6101SOL     OW19001   4.932   6.566   0.868  0.6358  0.5283  0.3800
 6101SOL    HW119002   4.900   6.591   0.782 -1.0876 -0.4222  0.7028
 6101SOL    HW219003   4.925   6.645   0.921  0.6983  0.8377 -0.0757
 6102SOL     OW19004   7.450   1.573   3.537 -0.2051 -0.1401 -0.1065
 6102SOL    HW119005   7.370   1.529   3.567  0.7834 -0.9326  1.4936
 6102SOL    HW219006   7.464   1.643   3.602 -0.1763  0.7018 -0.9945
 6103SOL     OW19007   4.357   7.351   1.535 -0.3380 -0.0094 -1.1373
 6103SOL    HW119008   4.275   7.400   1.527  0.5240  1.7687  0.1466
 6103SOL    HW219009   4.340   7.285   1.602 -1.0274 -0.3763 -1.6648
 6104SOL     OW19010   3.441   6.586   5.077  0.1366  0.7901 -0.0314
 6104SOL    HW119011   3.402   6.606   4.992 -0.8175  0.0731  0.2209
 6104SOL    HW219012   3.403   6.651   5.137  0.8102  1.2970 -0.1453
 6105SOL     OW19013   7.105   4.893   5.862  0.2408  0.5059  0.1558
 6105SOL    HW119014   7.087   4.920   5.952 -2.2244  1.0876 -0.4428
 6105SOL    HW219015   7.019   4.872   5.825  1.1632  0.3923 -2.1013
 6106SOL     OW19016   2.352   3.589   7.875 -0.1311 -0.1734  0.4898
 6106SOL    HW119017   2.285   3.642   7.920 -0.8297  0.1469 -0.8924
 6106SOL    HW219018   2.370   3.637   7.795  0.8980 -0.8844  0.2843
 6107SOL     OW19019   1.822   3.084   5.214  0.1493 -0.3538  0.4029
 6107SOL    HW119020   1.818   3.110   5.121  3.1059  0.0677  0.3109
 6107SOL    HW219021   1.754   3.018   5.223 -1.7952  1.2351 -1.4748
 6108SOL     OW19022   3.510   2.794   5.743 -0.0327  0.8336  0.2794
 6108SOL    HW119023   3.489   2.881   5.777  0.0090  0.9871 -0.0843
 6108SOL    HW219024   3.606   2.792   5.739 -0.0653  1.5010 -1.5672
 6109SOL     OW19025   0.780   2.749   7.253  0.5511 -0.2920  0.0762
 6109SOL    HW119026   0.723   2.672   7.253  0.9659 -0.6112 -0.4804
 6109SOL    HW219027   0.818   2.750   7.165 -0.7374  1.5310 -0.5302
 6110SOL     OW19028   0.443   5.750   6.601 -0.6475  0.1715  0.0715
 6110SOL    HW119029   0.410   5.663   6.578 -0.9574  0.5130 -0.8029
 6110SOL    HW219030   0.511   5.768   6.537  1.1719 -0.4365  1.7322
 6111SOL     OW19031   1.522   2.076   3.161  0.7487 -0.2650  0.0791
 6111SOL    HW119032   1.472   2.122   3.094 -1.1844 -0.6957  1.1371
 6111SOL    HW219033   1.613   2.093   3.140  0.1458  2.6247 -0.5441
 6112SOL     OW19034   1.420   4.617   4.292  0.5614 -0.0387 -0.1115
 6112SOL    HW119035   1.354   4.657   4.350  1.7645  3.2022 -0.8019
 6112SOL    HW219036   1.387   4.632   4.204  0.4839 -1.7681 -0.4180
 6113SOL     OW19037   1.615   6.132   3.912 -0.3229 -0.2741  0.1199
 6113SOL    HW119038   1.675   6.171   3.975 -0.5461  0.3298 -0.0358
 6113SOL    HW219039   1.619   6.038   3.930  1.0059 -0.3040 -0.1895
 6114SOL     OW19040   7.568   4.655   7.885  0.1469  0.4836  0.0447
 6114SOL    HW119041   7.597   4.590   7.950 -1.4258 -1.5403 -1.1448
 6114SOL    HW219042   7.479   4.677   7.913 -0.1417  0.4148 -0.8057
 6115SOL     OW19043   3.648   2.095   5.135 -0.3477 -0.2514  0.0851
 6115SOL    HW119044   3.701   2.175   5.137 -0.5872 -0.0980  0.3833
 6115SOL    HW219045   3.701   2.033   5.086 -0.0960  0.0476 -0.0282
 6116SOL     OW19046   6.118   3.874   7.614 -0.9160  0.0899 -0.1608
 6116SOL    HW119047   6.028   3.906   7.603 -0.2923  1.2364 -2.6273
 6116SOL    HW219048   6.171   3.954   7.615  0.4096 -0.5901 -3.3645
 6117SOL     OW19049   5.825   3.165   5.625 -0.5166 -0.1480 -0.0321
 6117SOL    HW119050   5.906   3.203   5.591 -0.9269 -0.4770 -1.4498
 6117SOL    HW219051   5.784   3.235   5.676 -0.2504  0.6339 -0.8758
 6118SOL     OW19052   2.513   6.476   4.140  0.4958  0.2456  0.8969
 6118SOL    HW119053   2.450   6.530   4.189 -0.7200  0.0634 -0.4076
 6118SOL    HW219054   2.540   6.531   4.067  2.3575  0.5398  1.7437
 6119SOL     OW19055   6.853   4.314   6.141 -0.5724  0.1929 -0.3562
 6119SOL    HW119056   6.906   4.356   6.209 -1.0481  0.0295  0.1311
 6119SOL    HW219057   6.766   4.353   6.152 -1.0424 -0.9576  0.1466
 6120SOL     OW19058   6.639   6.765   1.589 -0.6709  0.3660 -0.1965
 6120SOL    HW119059   6.714   6.715   1.622 -0.5134  0.6237 -0.1631
 6120SOL    HW219060   6.585   6.780   1.667 -0.9589 -0.1584 -0.2871
 6121SOL     OW19061   3.486   0.810   1.022 -0.2139  0.3710  0.3320
 6121SOL    HW119062   3.476   0.822   0.927  1.4070 -0.6784  0.0025
 6121SOL    HW219063   3.554   0.873   1.047 -0.3489  0.3626  0.7295
 6122SOL     OW19064   0.439   6.899   2.095  0.1310 -0.5021 -0.1793
 6122SOL    HW119065   0.515   6.901   2.036 -0.4945 -1.1779 -1.0317
 6122SOL    HW219066   0.461   6.832   2.160  0.5482 -0.2096 -0.0135
 6123SOL     OW19067   0.935   4.130   7.794  0.5421 -0.3555 -0.0027
 6123SOL    HW119068   0.895   4.212   7.824 -0.9505 -0.8010 -0.7089
 6123SOL    HW219069   0.863   4.068   7.791  1.3287 -1.2570 -1.1059
 6124SOL     OW19070   2.971   0.521   3.579  0.3065  0.1714 -0.1513
 6124SOL    HW119071   2.884   0.486   3.564  0.1276 -0.3439  1.8115
 6124SOL    HW219072   2.981   0.522   3.674  1.5348  2.4845 -0.2172
 6125SOL     OW19073   4.925   5.412   7.155 -0.4519 -0.4963 -0.2828
 6125SOL    HW119074   4.906   5.407   7.249  0.1106  0.2693 -0.1149
 6125SOL    HW219075   4.840   5.429   7.115 -0.5281  0.4096  0.2219
 6126SOL     OW19076   6.593   4.404   4.564 -0.1323 -0.1672 -0.5813
 6126SOL    HW119077   6.591   4.309   4.567  0.5143 -0.1596  0.2592
 6126SOL    HW219078   6.513   4.428   4.517 -0.3794 -1.1154 -0.6555
 6127SOL     OW19079   6.480   5.996   1.212 -0.6927  0.2919  0.5352
 6127SOL    HW119080   6.400   6.020   1.166 -0.2724  0.4826 -0.1061
 6127SOL    HW219081   6.484   5.901   1.208 -0.4596  0.3272 -0.1733
 6128SOL     OW19082   5.141   6.432   7.494  0.0271  0.3575 -0.0982
 6128SOL    HW119083   5.183   6.514   7.469  2.0094 -0.6667 -0.3118
 6128SOL    HW219084   5.154   6.374   7.418  2.0164 -1.3132  1.4181
 6129SOL     OW19085   4.202   4.561   6.404  0.0490  0.1967 -0.1304
 6129SOL    HW119086   4.280   4.515   6.375  0.2649  0.4932 -0.0229
 6129SOL    HW219087   4.139   4.550   6.332  0.2008 -0.0107 -0.2303
 6130SOL     OW19088   3.151   7.444   2.358 -0.2593 -0.2496  0.2917
 6130SOL    HW119089   3.190   7.470   2.274 -1.0567 -1.6943 -0.5858
 6130SOL    HW219090   3.074   7.499   2.367 -1.7836 -1.9842 -1.4041
 6131SOL     OW19091   1.719   3.768   3.089  0.0002  0.2208 -0.0089
 6131SOL    HW119092   1.773   3.846   3.079  1.7513 -1.0652 -0.9921
 6131SOL    HW219093   1.763   3.716   3.155  0.7270 -1.4064 -1.6835
 6132SOL     OW19094   7.074   5.912   7.584  0.2752  0.0647  0.3384
 6132SOL    HW119095   7.047   5.997   7.618  0.2675  0.2925 -0.2246
 6132SOL    HW219096   7.075   5.855   7.661 -0.1204  0.4707  0.6539
 6133SOL     OW19097   4.026   1.955   4.751 -0.2986  0.3973  0.5344
 6133SOL    HW119098   4.089   1.899   4.796  1.8026  0.2509 -2.2496
 6133SOL    HW219099   3.979   1.896   4.692 -2.0730  0.7532  1.5417
 6134SOL     OW19100   5.555   6.509   2.395 -0.4187  0.1338  0.1770
 6134SOL    HW119101   5.470   6.479   2.426  0.2437 -2.4107 -0.2789
 6134SOL    HW219102   5.565   6.597   2.433 -2.3265 -0.3470  1.9424
 6135SOL     OW19103   7.592   6.249   2.946  0.1151 -0.7217 -0.0672
 6135SOL    HW119104   7.664   6.295   2.902 -0.1706 -0.7008 -0.5169
 6135SOL    HW219105   7.559   6.311   3.010 -0.4117 -0.2075 -0.8208
 6136SOL     OW19106   6.204   2.710   5.444 -0.1842  0.0575 -0.0420
 6136SOL    HW119107   6.265   2.642   5.413  0.5352  0.1566  1.0929
 6136SOL    HW219108   6.221   2.785   5.388  0.8445  0.1245  0.3468
 6137SOL     OW19109   0.626   1.399   6.222 -0.2162  0.1637  0.2453
 6137SOL    HW119110   0.569   1.370   6.151 -0.7198 -0.0523  0.7267
 6137SOL    HW219111   0.700   1.440   6.178 -0.4711 -0.0532 -0.4050
 6138SOL     OW19112   1.978   4.462   0.438 -0.5687  0.0331  0.0139
 6138SOL    HW119113   2.044   4.437   0.502  0.4285 -2.2988 -1.7799
 6138SOL    HW219114   2.021   4.525   0.381 -0.0323 -1.0636 -0.8205
 6139SOL     OW19115   1.047   6.160   3.948  0.0244  0.1645  0.2208
 6139SOL    HW119116   1.063   6.099   3.876 -1.5941 -0.0515 -0.0108
 6139SOL    HW219117   1.001   6.108   4.013  2.6745 -0.0047  2.1045
 6140SOL     OW19118   1.118   1.847   7.013  0.2889  0.0682 -0.1025
 6140SOL    HW119119   1.155   1.836   6.926 -1.2373  0.3170 -0.8174
 6140SOL    HW219120   1.194   1.856   7.070  1.3182  1.1850 -1.5693
 6141SOL     OW19121   0.556   5.384   1.185  0.2749 -0.7450  0.4885
 6141SOL    HW119122   0.607   5.353   1.260  0.8715 -1.7329 -0.3030
 6141SOL    HW219123   0.619   5.389   1.113 -0.4109 -0.3970 -0.1054
 6142SOL     OW19124   5.494   7.255   5.424  0.2824  0.5006  0.2020
 6142SOL    HW119125   5.524   7.340   5.456  0.1265  0.6775 -0.1241
 6142SOL    HW219126   5.414   7.239   5.474  0.5173  0.3645  0.5426
 6143SOL     OW19127   3.869   3.624   4.758  0.1626  0.6012 -0.2150
 6143SOL    HW119128   3.843   3.713   4.782 -0.2936  0.4314 -0.0617
 6143SOL    HW219129   3.854   3.618   4.664 -0.6319  0.4220 -0.0874
 6144SOL     OW19130   5.535   2.207   2.887  0.0689  0.3665  0.4422
 6144SOL    HW119131   5.480   2.279   2.855  2.0604  1.5200 -0.5551
 6144SOL    HW219132   5.563   2.161   2.809 -0.4778 -1.0264  1.0273
 6145SOL     OW19133   7.968   7.091   0.004 -0.0303 -0.5984  0.5387
 6145SOL    HW119134   7.942   7.125   0.090 -0.9410 -1.0716  0.4605
 6145SOL    HW219135   8.006   7.167  -0.041  0.5392 -0.3638  1.3783
 6146SOL     OW19136   5.536   5.960   1.719  0.2097 -0.2595  0.0959
 6146SOL    HW119137   5.446   5.992   1.732  0.5930  0.6721  0.5639
 6146SOL    HW219138   5.564   5.999   1.637  0.6487  0.5575  0.6247
 6147SOL     OW19139   4.772   1.975   7.642 -0.2877 -0.4046  0.0262
 6147SOL    HW119140   4.769   1.913   7.715  3.6053 -0.4666  0.3356
 6147SOL    HW219141   4.731   1.928   7.569 -4.2597 -0.3430  1.9563
 6148SOL     OW19142   5.066   1.670   2.213 -0.2659  0.5253  0.1804
 6148SOL    HW119143   5.160   1.659   2.199 -0.1761 -0.2026  1.2523
 6148SOL    HW219144   5.027   1.593   2.171 -0.6478  2.0668 -2.5278
 6149SOL     OW19145   6.118   0.238   7.224 -0.5504 -0.5384 -0.1252
 6149SOL    HW119146   6.153   0.309   7.170  0.8583 -1.8520 -1.0104
 6149SOL    HW219147   6.026   0.231   7.197 -0.1455 -0.4772 -1.6543
 6150SOL     OW19148   2.928   7.123   1.866  0.2185 -0.2439  0.4353
 6150SOL    HW119149   2.841   7.131   1.827  0.9196  1.1981 -0.9349
 6150SOL    HW219150   2.930   7.189   1.936 -0.3325 -1.4397  1.6296
 6151SOL     OW19151   5.206   2.999   6.731 -0.1558  0.0363 -0.3918
 6151SOL    HW119152   5.125   3.040   6.701 -1.2008 -2.0519 -0.5925
 6151SOL    HW219153   5.262   2.998   6.653 -0.6542 -0.1706 -0.7540
 6152SOL     OW19154   0.850   5.566   4.726 -0.5554  0.3063 -0.0862
 6152SOL    HW119155   0.835   5.472   4.736 -1.1241  0.3221 -0.7138
 6152SOL    HW219156   0.917   5.573   4.659 -0.4905  0.3486 -0.0172
 6153SOL     OW19157   0.414   6.321   1.160  0.2318 -0.4641  0.1918
 6153SOL    HW119158   0.386   6.411   1.178  0.7795 -0.5506  1.6316
 6153SOL    HW219159   0.353   6.289   1.093  0.3332  1.1294 -0.7066
 6154SOL     OW19160   1.737   7.510   1.409  0.3719  0.5009  0.2179
 6154SOL    HW119161   1.794   7.583   1.433 -0.4358  1.1999  0.0864
 6154SOL    HW219162   1.783   7.463   1.340  1.2292  0.4447  0.8127
 6155SOL     OW19163   3.911   4.576   3.962 -0.6612  0.0188 -0.4048
 6155SOL    HW119164   3.863   4.527   3.895 -0.1697 -0.3969 -0.4604
 6155SOL    HW219165   3.984   4.519   3.986 -0.6002  0.3355  0.1964
 6156SOL     OW19166   4.051   7.457   7.520  0.4964 -0.3744  0.1949
 6156SOL    HW119167   4.073   7.508   7.598 -1.1415  0.6175  0.0733
 6156SOL    HW219168   4.016   7.374   7.554 -1.6739  0.6487  0.6595
 6157SOL     OW19169   2.553   7.590   1.399  0.4268  0.1931 -0.1180
 6157SOL    HW119170   2.492   7.621   1.466  0.1166  0.0754 -0.3407
 6157SOL    HW219171   2.585   7.506   1.432  1.6903  0.9843  0.7470
 6158SOL     OW19172   6.731   4.545   2.665 -0.4635 -0.9263  0.4463
 6158SOL    HW119173   6.770   4.463   2.694  0.4558 -1.3571 -1.7593
 6158SOL    HW219174   6.793   4.612   2.693 -0.7977 -1.0595  1.5246
 6159SOL     OW19175   1.206   7.876   2.953  0.5303  0.0033  0.1956
 6159SOL    HW119176   1.260   7.943   2.911 -0.0502 -0.9868 -2.3036
 6159SOL    HW219177   1.253   7.794   2.935 -1.1515 -0.7510 -1.0567
 6160SOL     OW19178   0.701   6.669   3.683  0.4507  0.0822 -0.3601
 6160SOL    HW119179   0.662   6.631   3.761  0.1576 -0.4205 -0.7446
 6160SOL    HW219180   0.662   6.620   3.610  0.5674  0.6759 -0.8315
 6161SOL     OW19181   4.975   5.187   1.166 -0.0576  0.2449  0.0779
 6161SOL    HW119182   5.034   5.142   1.226  0.0537  0.2376 -0.0381
 6161SOL    HW219183   4.895   5.134   1.168  0.5931 -0.8491 -1.2338
 6162SOL     OW19184   5.014   5.390   2.074 -0.1238 -0.0264 -0.2542
 6162SOL    HW119185   5.102   5.407   2.041 -0.1296  0.0475 -0.2308
 6162SOL    HW219186   5.017   5.299   2.103 -0.5550 -0.6148 -1.9181
 6163SOL     OW19187   1.091   1.000   5.864  0.0744  0.2260 -0.2139
 6163SOL    HW119188   1.060   0.999   5.955  1.1437  0.4872  0.1696
 6163SOL    HW219189   1.052   1.078   5.826 -1.3039 -0.4953 -0.3262
 6164SOL     OW19190   0.999   0.151   4.362 -0.1920 -1.1749 -0.2390
 6164SOL    HW119191   1.064   0.206   4.319 -0.2084 -1.8374 -1.1260
 6164SOL    HW219192   0.935   0.213   4.396  0.8884 -0.5022  0.6737
 6165SOL     OW19193   3.801   1.115   7.190 -0.6134  0.0061  0.3409
 6165SOL    HW119194   3.811   1.024   7.165  0.8676  0.7414 -2.1048
 6165SOL    HW219195   3.854   1.124   7.269  0.7287 -0.8800 -0.4241
 6166SOL     OW19196   3.112   1.910   1.961  0.4566 -0.1961 -0.7980
 6166SOL    HW119197   3.073   1.997   1.958  2.2928  0.6740 -0.9361
 6166SOL    HW219198   3.206   1.925   1.952  0.9280 -2.1158  0.2267
 6167SOL     OW19199   4.408   3.744   2.642  0.3514 -0.1824 -0.0297
 6167SOL    HW119200   4.380   3.746   2.550 -2.3021  1.5350  0.7218
 6167SOL    HW219201   4.440   3.833   2.659 -0.3603 -0.1122  1.0138
 6168SOL     OW19202   4.671   2.920   7.790 -0.3731 -0.5604  0.4080
 6168SOL    HW119203   4.657   2.903   7.697  0.2690  0.9394 -0.0030
 6168SOL    HW219204   4.752   2.874   7.812 -0.4170 -0.7498  0.1663
 6169SOL     OW19205   4.261   6.088   2.258  0.0865 -0.2052 -0.0654
 6169SOL    HW119206   4.221   6.009   2.222 -0.2124  0.5336 -1.4147
 6169SOL    HW219207   4.198   6.158   2.241  1.0987  0.6384 -0.5016
 6170SOL     OW19208   1.000   0.674   1.326  0.1040 -0.0120  0.5822
 6170SOL    HW119209   1.011   0.615   1.400 -0.0814  0.3239  0.8791
 6170SOL    HW219210   0.967   0.756   1.364  0.6341  0.3814  0.2125
 6171SOL     OW19211   2.854   1.440   1.214 -0.0475 -0.3969  0.3040
 6171SOL    HW119212   2.822   1.373   1.155 -1.1800  0.5874 -0.2432
 6171SOL    HW219213   2.775   1.486   1.244  0.7379  1.3594 -0.1638
 6172SOL     OW19214   4.827   6.968   7.339 -0.2783  0.0089  0.3451
 6172SOL    HW119215   4.884   6.930   7.406 -1.0158  0.4802  1.2629
 6172SOL    HW219216   4.740   6.931   7.357 -0.6013  0.5783  0.0046
 6173SOL     OW19217   2.180   5.741   5.938 -0.0034 -0.0201 -0.2928
 6173SOL    HW119218   2.266   5.701   5.930  0.1047  0.2249 -0.3383
 6173SOL    HW219219   2.180   5.814   5.877 -1.3311 -1.8483 -2.6724
 6174SOL     OW19220   4.076   7.203   3.962  0.0538 -0.1569 -0.3213
 6174SOL    HW119221   4.089   7.158   4.045 -0.7820 -2.5354 -1.3897
 6174SOL    HW219222   4.164   7.225   3.931  0.4482 -0.6108  0.4687
 6175SOL     OW19223   3.111   0.317   4.041 -0.1369 -0.1367 -0.6098
 6175SOL    HW119224   3.101   0.234   4.087 -0.5521 -0.7280 -1.7141
 6175SOL    HW219225   3.201   0.316   4.008 -0.1320 -0.1398 -0.5966
 6176SOL     OW19226   5.792   2.626   7.874 -0.1801  0.0712 -0.5403
 6176SOL    HW119227   5.886   2.645   7.877  0.0876 -0.5307 -3.2648
 6176SOL    HW219228   5.786   2.534   7.851 -1.4321  0.3175 -1.3173
 6177SOL     OW19229   6.396   1.514   0.755  0.4154  0.6707  0.5023
 6177SOL    HW119230   6.313   1.552   0.725  1.0629  2.1649  0.4908
 6177SOL    HW219231   6.420   1.568   0.831  1.6914  0.6863  0.0992
 6178SOL     OW19232   0.314   1.556   4.122 -0.1654  0.3981 -0.0097
 6178SOL    HW119233   0.239   1.579   4.177 -1.0754  1.9533 -1.7721
 6178SOL    HW219234   0.318   1.626   4.057  1.2042 -1.0357 -1.5625
 6179SOL     OW19235   3.268   2.251   5.306  0.2113  0.5998  0.3041
 6179SOL    HW119236   3.250   2.207   5.223 -1.5243  0.1664  0.8600
 6179SOL    HW219237   3.216   2.203   5.370  3.3063 -0.6194  2.1577
 6180SOL     OW19238   1.580   2.931   3.449  0.1012  0.3990  0.7259
 6180SOL    HW119239   1.646   2.979   3.498  1.2198 -0.0971 -0.2573
 6180SOL    HW219240   1.597   2.953   3.358  0.1416 -1.2398  0.3175
 6181SOL     OW19241   7.871   4.627   3.503  0.4548 -0.3674  0.6460
 6181SOL    HW119242   7.860   4.585   3.588  0.7935 -0.5561  0.5956
 6181SOL    HW219243   7.929   4.569   3.454 -0.2920 -0.6205  0.0341
 6182SOL     OW19244   7.903   5.678   1.526 -0.0951 -0.1522  0.4572
 6182SOL    HW119245   7.969   5.618   1.561  0.5125  0.4575  0.3730
 6182SOL    HW219246   7.887   5.740   1.597  1.7536  1.5963 -0.5453
 6183SOL     OW19247   3.549   1.434   1.827  0.0141  0.2941 -0.1270
 6183SOL    HW119248   3.512   1.375   1.761  1.7184 -1.3046  0.2427
 6183SOL    HW219249   3.474   1.480   1.864 -1.2445 -0.6641 -1.3984
 6184SOL     OW19250   3.759   0.870   3.906 -0.5931 -0.2270  0.1016
 6184SOL    HW119251   3.796   0.785   3.930  0.7583  0.9586  2.7680
 6184SOL    HW219252   3.777   0.880   3.813  3.5616 -0.9429  0.6355
 6185SOL     OW19253   5.068   3.624   6.538 -0.0172  0.4219 -0.2628
 6185SOL    HW119254   4.978   3.641   6.508 -0.4365  1.3443  1.3881
 6185SOL    HW219255   5.105   3.711   6.553  0.2454  0.0321  1.5693
 6186SOL     OW19256   0.118   4.795   1.043 -0.3555 -0.7664 -0.3420
 6186SOL    HW119257   0.150   4.794   0.953 -0.8732 -1.6653 -0.5275
 6186SOL    HW219258   0.145   4.881   1.077  1.0701 -0.9613 -0.8982
 6187SOL     OW19259   6.865   1.992   7.107 -0.1681 -0.1184 -0.1198
 6187SOL    HW119260   6.938   2.052   7.093  0.1629 -0.2120  1.0661
 6187SOL    HW219261   6.854   1.948   7.023  1.2274 -0.1963 -0.2939
 6188SOL     OW19262   7.907   3.712   3.774 -0.5246  0.0668 -0.2770
 6188SOL    HW119263   7.858   3.641   3.815 -0.6418  1.4569  2.1366
 6188SOL    HW219264   7.840   3.769   3.737 -0.7872  1.4906  2.2242
 6189SOL     OW19265   3.765   1.351   6.696  0.0225  0.3298  0.3517
 6189SOL    HW119266   3.851   1.370   6.733 -0.7051  0.9770  1.8014
 6189SOL    HW219267   3.704   1.406   6.746 -0.9596  2.0729 -2.4793
 6190SOL     OW19268   5.224   1.602   3.155 -0.3462 -0.1450  0.0848
 6190SOL    HW119269   5.195   1.593   3.245 -0.2530  0.5645  0.1911
 6190SOL    HW219270   5.319   1.606   3.161 -0.3105 -0.6760 -0.0998
 6191SOL     OW19271   2.911   1.351   4.738  0.2628  0.1054  0.2364
 6191SOL    HW119272   2.933   1.327   4.828  0.7741  0.4487  0.2069
 6191SOL    HW219273   2.989   1.327   4.687  0.9764  2.1341  0.2668
 6192SOL     OW19274   4.330   7.074   7.464  0.0881 -0.1451  0.3586
 6192SOL    HW119275   4.383   7.075   7.385 -0.6747  0.3860 -0.1607
 6192SOL    HW219276   4.392   7.059   7.535  0.7441 -0.9328 -0.3630
 6193SOL     OW19277   4.984   4.841   3.444 -0.0212 -0.1361  0.1583
 6193SOL    HW119278   5.048   4.793   3.496  0.7916 -0.7432 -1.3553
 6193SOL    HW219279   4.993   4.806   3.355 -1.2755  0.9589 -0.4430
 6194SOL     OW19280   0.226   6.478   0.804  0.0793 -0.0631 -0.2294
 6194SOL    HW119281   0.221   6.400   0.860  2.1807 -0.6015 -0.6717
 6194SOL    HW219282   0.319   6.500   0.804 -0.4917  2.7523  0.2178
 6195SOL     OW19283   3.337   4.115   6.896  0.4929  0.5896  0.5257
 6195SOL    HW119284   3.364   4.026   6.873 -0.5678 -0.1352  1.9598
 6195SOL    HW219285   3.337   4.161   6.812  2.2903 -0.3972 -0.0694
 6196SOL     OW19286   3.360   2.674   4.567 -0.1557 -0.0712 -0.2048
 6196SOL    HW119287   3.267   2.692   4.555 -0.8865 -3.0276  0.4471
 6196SOL    HW219288   3.364   2.615   4.642  2.2127 -0.4713 -0.5696
 6197SOL     OW19289   7.322   5.683   2.018 -0.0019  0.1400  0.2079
 6197SOL    HW119290   7.292   5.773   2.025 -0.2629  0.0458  0.3123
 6197SOL    HW219291   7.395   5.677   2.079 -0.5543  0.0449  0.8776
 6198SOL     OW19292   1.896   3.045   1.721  0.2921  0.1281 -0.0710
 6198SOL    HW119293   1.866   3.031   1.632 -0.9531 -0.9977  0.4859
 6198SOL    HW219294   1.948   3.125   1.717 -1.3841  1.2175 -1.4265
 6199SOL     OW19295   3.053   4.523   1.859  0.1130  0.1116  0.5867
 6199SOL    HW119296   3.036   4.517   1.953 -0.5015  0.7057  0.5283
 6199SOL    HW219297   3.044   4.434   1.827  2.2073 -0.4278  1.3714
 6200SOL     OW19298   2.564   4.197   5.694 -0.1199  0.3250 -0.0306
 6200SOL    HW119299   2.602   4.126   5.642 -1.0358 -0.0499 -0.2052
 6200SOL    HW219300   2.581   4.173   5.785  1.7832  1.1462 -0.1237
 6201SOL     OW19301   1.924   1.066   6.098  0.3318 -0.1572 -0.2555
 6201SOL    HW119302   1.921   0.974   6.070  0.9407 -0.7117  1.4139
 6201SOL    HW219303   1.889   1.114   6.023 -0.7933 -1.8087 -0.8621
 6202SOL     OW19304   0.151   3.382   0.303 -0.4927 -0.3024  0.3004
 6202SOL    HW119305   0.163   3.476   0.314  1.2214 -0.6738  2.0681
 6202SOL    HW219306   0.067   3.363   0.346 -0.9320  0.4045 -0.2205
 6203SOL     OW19307   5.551   6.551   1.156 -0.0722  0.1804 -0.4260
 6203SOL    HW119308   5.558   6.582   1.246 -0.5490 -0.3321 -0.2047
 6203SOL    HW219309   5.482   6.605   1.117 -0.0425  0.2292 -0.4117
 6204SOL     OW19310   2.324   6.789   3.045  0.2164  0.2775 -0.7663
 6204SOL    HW119311   2.357   6.783   2.955  1.1823 -1.0959 -0.3476
 6204SOL    HW219312   2.244   6.737   3.045  0.6155 -0.3518 -0.6759
 6205SOL     OW19313   6.677   7.717   3.149  0.2751 -0.4227  0.2436
 6205SOL    HW119314   6.758   7.745   3.107 -0.6881 -0.6330 -1.8557
 6205SOL    HW219315   6.658   7.785   3.213  1.2798  0.4378 -0.3447
 6206SOL     OW19316   0.851   7.838   5.972  0.0188 -0.0071  0.3629
 6206SOL    HW119317   0.789   7.898   5.929  2.4388  2.7623  0.4146
 6206SOL    HW219318   0.906   7.805   5.901  0.1914 -0.2732  0.6201
 6207SOL     OW19319   5.844   7.304   4.048 -0.4558  0.0809  0.0582
 6207SOL    HW119320   5.764   7.261   4.018  0.1941 -1.8006  0.8441
 6207SOL    HW219321   5.826   7.329   4.139 -0.3967  0.3122  0.0077
 6208SOL     OW19322   3.718   0.426   0.136  0.1149  0.4474  0.1595
 6208SOL    HW119323   3.715   0.512   0.093  2.2465  1.0884  1.1301
 6208SOL    HW219324   3.760   0.444   0.221  0.8905 -1.5902  0.2508
 6209SOL     OW19325   7.620   2.134   5.222  0.6031 -0.0454 -0.1242
 6209SOL    HW119326   7.532   2.172   5.218  0.9944  0.7623 -1.7501
 6209SOL    HW219327   7.675   2.205   5.255  0.8781 -0.0812 -0.5037
 6210SOL     OW19328   3.304   5.802   5.821 -0.0956  0.3281 -0.0193
 6210SOL    HW119329   3.342   5.856   5.752 -2.4991  2.1640 -0.0152
 6210SOL    HW219330   3.215   5.782   5.791 -0.5797 -0.3625  1.7315
 6211SOL     OW19331   0.313   0.317   2.126  0.1275  0.0898 -0.5158
 6211SOL    HW119332   0.389   0.374   2.137 -0.2426  0.2855  1.3940
 6211SOL    HW219333   0.334   0.239   2.178 -0.9619  0.1605  0.0616
 6212SOL     OW19334   7.282   5.584   2.366 -0.3044  0.2206 -0.6809
 6212SOL    HW119335   7.207   5.644   2.362 -0.6635 -0.0939  0.6915
 6212SOL    HW219336   7.273   5.529   2.288 -1.5038  0.2060 -0.5508
 6213SOL     OW19337   1.696   4.696   4.125 -0.4718 -0.5326 -0.0241
 6213SOL    HW119338   1.689   4.606   4.158  0.4566 -1.1443 -1.4128
 6213SOL    HW219339   1.785   4.723   4.146  0.1103 -0.9015 -1.8436
 6214SOL     OW19340   7.606   2.583   1.412 -0.2669 -1.0444 -0.6017
 6214SOL    HW119341   7.677   2.519   1.421  0.8258 -0.3461 -3.1016
 6214SOL    HW219342   7.645   2.666   1.442  1.0292 -0.1373 -4.2078
 6215SOL     OW19343   2.292   3.512   4.651 -0.6081  0.2285  0.7348
 6215SOL    HW119344   2.222   3.577   4.662 -0.0450  1.0551 -0.3412
 6215SOL    HW219345   2.339   3.512   4.734 -1.4726  0.1431  1.2380
 6216SOL     OW19346   1.662   5.830   5.808  0.2834 -0.4545 -0.0426
 6216SOL    HW119347   1.709   5.877   5.877  0.7808 -0.6231 -0.2571
 6216SOL    HW219348   1.644   5.896   5.741  2.1270 -0.7742 -0.9407
 6217SOL     OW19349   0.053   3.774   0.888 -0.1490 -0.0777  0.0082
 6217SOL    HW119350   0.098   3.851   0.853  1.1571 -0.7717  0.0728
 6217SOL    HW219351   0.054   3.710   0.817 -1.7448  0.1389 -0.2440
 6218SOL     OW19352   0.097   1.082   5.878  0.0149 -0.1087 -0.4299
 6218SOL    HW119353   0.079   1.017   5.810 -1.1350  0.0166 -0.2652
 6218SOL    HW219354   0.083   1.166   5.835 -2.5493 -0.0379  0.3817
 6219SOL     OW19355   2.925   2.391   2.510 -0.2472  0.1199  0.6105
 6219SOL    HW119356   2.919   2.447   2.432 -0.8750 -1.0963 -0.2599
 6219SOL    HW219357   2.835   2.361   2.523  0.0748 -0.6439  1.0769
 6220SOL     OW19358   2.561   0.802   4.817 -0.2668 -0.5078  0.0127
 6220SOL    HW119359   2.527   0.730   4.871 -1.4987 -1.2960 -1.7091
 6220SOL    HW219360   2.646   0.823   4.856  0.4092 -3.2882  0.2745
 6221SOL     OW19361   4.130   1.429   2.338  0.0275 -0.3845  0.0508
 6221SOL    HW119362   4.113   1.449   2.430  1.8975  1.1709  0.1231
 6221SOL    HW219363   4.212   1.379   2.339 -0.1301 -0.6659 -0.7312
 6222SOL     OW19364   0.375   3.549   7.360  0.1252  0.4367 -0.6330
 6222SOL    HW119365   0.396   3.482   7.424 -1.5186 -1.7447 -2.2348
 6222SOL    HW219366   0.382   3.506   7.275  0.4308  2.7127 -1.8513
 6223SOL     OW19367   6.382   2.604   2.755 -0.6722 -0.5945  0.0260
 6223SOL    HW119368   6.414   2.546   2.686  0.1726 -1.0281  0.7738
 6223SOL    HW219369   6.361   2.546   2.828  1.4634  0.1132  1.2748
 6224SOL     OW19370   2.768   6.317   4.714  0.2618  0.0043 -0.0742
 6224SOL    HW119371   2.709   6.251   4.677 -0.5472  0.6941 -0.0658
 6224SOL    HW219372   2.843   6.319   4.655 -0.6264  0.4923 -1.2265
 6225SOL     OW19373   1.584   6.584   7.956 -0.3089  0.4212 -0.2419
 6225SOL    HW119374   1.610   6.624   8.038 -0.5747  0.6570 -0.2695
 6225SOL    HW219375   1.489   6.577   7.962 -0.5147  1.8727 -1.1468
 6226SOL     OW19376   2.836   0.591   2.611  0.0966  0.1765 -0.3933
 6226SOL    HW119377   2.821   0.684   2.628  0.1342  0.2457 -0.7185
 6226SOL    HW219378   2.790   0.545   2.681 -0.3102  0.4316 -0.4908
 6227SOL     OW19379   6.020   2.130   1.136  0.0411 -0.1577  0.1113
 6227SOL    HW119380   6.050   2.108   1.224  1.5333  0.3831 -0.2313
 6227SOL    HW219381   5.926   2.107   1.136  0.4119 -1.8927  1.2426
 6228SOL     OW19382   7.397   5.068   5.417 -0.6165  0.2089  0.5454
 6228SOL    HW119383   7.376   5.056   5.510  0.5443  1.5539  1.0248
 6228SOL    HW219384   7.330   5.019   5.370 -1.1572 -0.5958  2.0963
 6229SOL     OW19385   4.440   7.278   6.507  0.3916 -0.0122  0.7409
 6229SOL    HW119386   4.490   7.199   6.523  0.7009  0.4076  1.9800
 6229SOL    HW219387   4.378   7.283   6.580  0.1268  0.6961  0.4808
 6230SOL     OW19388   6.138   3.040   3.003 -0.0064  0.2291  0.0882
 6230SOL    HW119389   6.042   3.039   3.008 -0.1640 -1.6847 -1.6866
 6230SOL    HW219390   6.156   3.060   2.912  1.3897  2.3355  0.7755
 6231SOL     OW19391   7.944   1.824   0.341  0.6868  0.2756  0.2920
 6231SOL    HW119392   7.869   1.768   0.324  0.4680  0.9037 -0.9389
 6231SOL    HW219393   7.980   1.792   0.423 -0.9333 -0.0247  0.9168
 6232SOL     OW19394   7.311   2.950   6.061 -0.2051 -0.1561 -0.3578
 6232SOL    HW119395   7.240   2.956   5.997  0.7125  2.6314 -1.2758
 6232SOL    HW219396   7.375   2.892   6.021 -0.9037 -0.7639 -0.6125
 6233SOL     OW19397   6.682   0.280   3.098 -0.2160  0.5348  0.3072
 6233SOL    HW119398   6.720   0.250   3.181 -0.5601 -0.4415  0.1216
 6233SOL    HW219399   6.755   0.282   3.037 -0.0157  0.9790  0.5622
 6234SOL     OW19400   5.204   5.104   6.209 -0.4144  0.3918  0.4041
 6234SOL    HW119401   5.296   5.124   6.222 -0.6052  0.4792  1.6933
 6234SOL    HW219402   5.202   5.056   6.126  0.6952  0.9785  0.0178
 6235SOL     OW19403   2.555   3.086   7.887  0.3192  0.2745 -0.2562
 6235SOL    HW119404   2.524   3.092   7.796 -0.2128  0.5253 -0.0658
 6235SOL    HW219405   2.609   3.008   7.889  1.3445  0.9232 -1.0846
 6236SOL     OW19406   7.748   0.930   6.648  0.1254 -0.1923  0.3671
 6236SOL    HW119407   7.654   0.929   6.628  0.3096  0.1903 -0.5410
 6236SOL    HW219408   7.767   1.021   6.670  0.4199 -0.1334 -0.1209
 6237SOL     OW19409   4.974   2.185   2.091  0.1071  0.8184 -0.2713
 6237SOL    HW119410   5.032   2.112   2.108 -0.4800  0.6690  1.2270
 6237SOL    HW219411   5.028   2.248   2.042  1.5584  0.7151  1.1158
 6238SOL     OW19412   6.814   6.579   6.549  0.5298  0.0938 -0.1063
 6238SOL    HW119413   6.828   6.669   6.576  1.2008  0.0823 -0.4014
 6238SOL    HW219414   6.805   6.530   6.631 -2.9699  0.8462  0.1189
 6239SOL     OW19415   3.943   1.441   1.743  0.3415  0.4898  0.0161
 6239SOL    HW119416   3.894   1.419   1.822 -0.2751 -0.1484 -0.5228
 6239SOL    HW219417   4.032   1.410   1.760  0.0587 -0.2425  0.2202
 6240SOL     OW19418   7.029   1.038   5.182 -0.1580 -0.2614  0.0216
 6240SOL    HW119419   6.962   0.996   5.127  0.3784  0.6140 -1.3578
 6240SOL    HW219420   6.980   1.074   5.256 -1.3905  1.0485 -1.3587
 6241SOL     OW19421   6.467   3.316   4.034 -0.1341  0.0613 -0.1874
 6241SOL    HW119422   6.516   3.379   4.086  1.3437 -0.2905 -1.0850
 6241SOL    HW219423   6.450   3.243   4.093 -2.1794  1.3843  0.9732
 6242SOL     OW19424   6.350   7.876   3.327 -0.2398 -0.3226  0.1178
 6242SOL    HW119425   6.378   7.917   3.246  0.3722 -1.3607 -0.2156
 6242SOL    HW219426   6.412   7.907   3.393 -0.7107  0.4847  0.1871
 6243SOL     OW19427   2.784   6.218   7.502 -0.4226 -0.3476  0.1836
 6243SOL    HW119428   2.877   6.232   7.518 -0.1178 -0.4145 -1.3685
 6243SOL    HW219429   2.740   6.276   7.565  0.6818  0.7917 -0.0552
 6244SOL     OW19430   0.986   2.668   2.274  0.6012  0.6929 -0.5895
 6244SOL    HW119431   0.981   2.660   2.369 -0.7775  1.8647 -0.5283
 6244SOL    HW219432   0.981   2.762   2.258  2.3904  0.6492 -1.7794
 6245SOL     OW19433   4.210   6.982   7.833 -0.1416 -0.0762  0.5269
 6245SOL    HW119434   4.179   6.900   7.795 -0.2984  0.4171 -0.4558
 6245SOL    HW219435   4.295   6.961   7.871  0.9331 -0.1869 -1.8203
 6246SOL     OW19436   4.568   6.817   7.379 -0.0751  0.1229 -0.0551
 6246SOL    HW119437   4.552   6.730   7.343  2.0482  0.1722 -1.2316
 6246SOL    HW219438   4.530   6.877   7.314 -0.2921  0.1136  0.0619
 6247SOL     OW19439   3.308   7.130   3.009  0.5908 -0.4499  0.4073
 6247SOL    HW119440   3.224   7.166   2.978  1.2691  1.5647  0.7530
 6247SOL    HW219441   3.350   7.203   3.054  2.0266 -1.7692  1.2992
 6248SOL     OW19442   1.942   6.481   7.091  0.4827 -0.1697  0.4860
 6248SOL    HW119443   1.989   6.564   7.099 -0.8482  0.7638 -0.8951
 6248SOL    HW219444   1.938   6.447   7.180  0.5984  1.4978  1.1640
 6249SOL     OW19445   1.315   7.740   6.794 -0.2062  0.2938 -0.3471
 6249SOL    HW119446   1.262   7.817   6.772  1.4332  1.4307 -0.5555
 6249SOL    HW219447   1.296   7.723   6.886  2.1912  3.4664  0.9609
 6250SOL     OW19448   5.106   1.142   3.519  0.3446 -0.7730  0.9538
 6250SOL    HW119449   5.199   1.132   3.498  0.1042 -0.6704 -0.2431
 6250SOL    HW219450   5.105   1.161   3.613  1.6390  0.7579  0.7177
 6251SOL     OW19451   0.284   2.449   3.224  0.4871 -0.2775 -0.0153
 6251SOL    HW119452   0.288   2.481   3.134 -0.1173 -0.6568 -0.1898
 6251SOL    HW219453   0.312   2.522   3.278 -2.0623  1.0218 -0.3049
 6252SOL     OW19454   7.224   0.399   3.721 -0.3409  0.5840  0.5357
 6252SOL    HW119455   7.279   0.388   3.799 -0.2281 -1.1904  0.2446
 6252SOL    HW219456   7.257   0.477   3.678 -0.5509  1.7448  2.3767
 6253SOL     OW19457   0.311   2.956   7.871 -0.2288 -0.4017 -0.0936
 6253SOL    HW119458   0.301   2.863   7.849 -1.2688  0.1631 -2.2222
 6253SOL    HW219459   0.237   2.999   7.829  1.8307  1.7895 -1.7687
 6254SOL     OW19460   2.325   0.576   3.103 -0.0126  0.0974 -0.2787
 6254SOL    HW119461   2.381   0.649   3.129  0.4899 -0.4732  0.2853
 6254SOL    HW219462   2.261   0.569   3.174  0.7844 -0.8686  0.3702
 6255SOL     OW19463   5.273   2.500   4.048 -0.2181 -0.1928 -0.2514
 6255SOL    HW119464   5.286   2.474   3.957 -2.5035  0.7848 -0.9246
 6255SOL    HW219465   5.243   2.591   4.043  0.4071  0.1498  1.5484
 6256SOL     OW19466   0.714   2.184   5.421  0.1548  0.0171 -0.0431
 6256SOL    HW119467   0.740   2.256   5.363  0.8906 -0.8733 -0.8447
 6256SOL    HW219468   0.640   2.144   5.376  0.3000 -0.2625 -0.0303
 6257SOL     OW19469   3.113   0.767   6.636  0.5903 -0.0223  0.6037
 6257SOL    HW119470   3.205   0.743   6.643  1.2745  1.6642 -1.4809
 6257SOL    HW219471   3.067   0.702   6.689  2.7691 -2.2706 -0.0716
 6258SOL     OW19472   6.550   0.096   7.400 -0.1330 -0.3002 -0.5970
 6258SOL    HW119473   6.639   0.127   7.381 -0.4909  0.8537 -0.4541
 6258SOL    HW219474   6.557   0.001   7.398  0.7866 -0.2234 -2.0774
 6259SOL     OW19475   6.642   3.297   2.602 -0.1002 -0.1258  0.2121
 6259SOL    HW119476   6.708   3.229   2.595  0.8015  0.8348 -1.2103
 6259SOL    HW219477   6.610   3.291   2.692  1.5870 -0.9041  0.7956
 6260SOL     OW19478   3.275   2.552   5.536 -0.1043  0.0387  0.0874
 6260SOL    HW119479   3.238   2.597   5.459  0.0199 -0.2969 -0.1709
 6260SOL    HW219480   3.345   2.498   5.500  0.3581  0.3469  0.5237
 6261SOL     OW19481   4.077   5.680   6.318 -0.2176 -0.2042 -0.3097
 6261SOL    HW119482   4.101   5.687   6.226 -2.1466  0.6060 -0.7886
 6261SOL    HW219483   4.078   5.586   6.335  1.5492 -0.2986 -0.7255
 6262SOL     OW19484   0.027   6.810   6.907  0.1063  0.0335 -0.0674
 6262SOL    HW119485   0.036   6.743   6.839 -2.4709 -0.7803  0.2920
 6262SOL    HW219486   0.053   6.766   6.988  4.0137  1.2463 -0.4677
 6263SOL     OW19487   4.769   0.584   6.552  0.1852 -0.2402 -0.1445
 6263SOL    HW119488   4.710   0.610   6.623 -2.9195 -0.0038 -2.5947
 6263SOL    HW219489   4.717   0.526   6.497  2.3498 -0.2582 -2.3579
 6264SOL     OW19490   1.262   5.459   3.853 -0.4234  0.0502 -0.1776
 6264SOL    HW119491   1.220   5.441   3.769  1.4007  0.5254 -1.2361
 6264SOL    HW219492   1.353   5.433   3.841  0.4404  2.3176  0.8757
 6265SOL     OW19493   7.766   5.034   7.609 -0.0413  0.2086  0.0694
 6265SOL    HW119494   7.746   4.945   7.636  0.7060  0.3869  1.3110
 6265SOL    HW219495   7.838   5.025   7.547 -0.0043 -0.0630  0.1519
 6266SOL     OW19496   1.741   5.754   5.458  0.1906  0.1666 -1.2223
 6266SOL    HW119497   1.712   5.731   5.546 -0.0757  1.5736 -0.9148
 6266SOL    HW219498   1.763   5.670   5.417  0.2147 -0.5178  0.1376
 6267SOL     OW19499   6.661   3.638   1.714  0.4081  1.0676 -0.1537
 6267SOL    HW119500   6.621   3.714   1.757 -0.1407  0.2076  0.8976
 6267SOL    HW219501   6.601   3.616   1.644 -0.6829  0.1760  1.0202
 6268SOL     OW19502   4.040   7.278   3.551  0.6101 -0.2467  0.6726
 6268SOL    HW119503   4.079   7.303   3.467  0.3462  1.1567  0.9575
 6268SOL    HW219504   4.039   7.358   3.603 -0.6247 -0.7522  1.4815
 6269SOL     OW19505   5.653   7.469   2.299 -0.5046 -0.0337 -1.0953
 6269SOL    HW119506   5.598   7.540   2.267  0.6033  1.3501 -0.0606
 6269SOL    HW219507   5.743   7.499   2.282 -0.0164 -1.6086 -1.4758
 6270SOL     OW19508   7.380   2.641   2.758  0.3202  0.2221 -0.1484
 6270SOL    HW119509   7.331   2.563   2.732 -1.2478  1.2425 -0.4147
 6270SOL    HW219510   7.427   2.668   2.679 -1.0821  0.9063 -0.7866
 6271SOL     OW19511   2.110   3.123   5.711  0.5725  0.1793 -0.1963
 6271SOL    HW119512   2.102   3.149   5.803 -0.3352  1.2311 -0.5398
 6271SOL    HW219513   2.040   3.058   5.699  0.0268  0.7801 -0.3651
 6272SOL     OW19514   7.156   1.311   6.984 -0.5064  0.0667  0.0506
 6272SOL    HW119515   7.204   1.361   6.917 -1.6224 -1.0995 -1.6842
 6272SOL    HW219516   7.133   1.377   7.050  1.6224  1.0415 -0.0822
 6273SOL     OW19517   1.265   6.059   6.871  0.1072 -0.5781  0.4888
 6273SOL    HW119518   1.312   6.041   6.953 -2.2113 -1.6168  1.6902
 6273SOL    HW219519   1.312   6.010   6.805  1.9737  0.1888  1.1736
 6274SOL     OW19520   3.529   2.049   4.382  0.2622 -0.3214 -0.0811
 6274SOL    HW119521   3.612   2.032   4.427  0.3976 -0.8065 -0.5140
 6274SOL    HW219522   3.520   1.978   4.320 -0.6870 -0.5027  0.2513
 6275SOL     OW19523   3.574   2.055   3.528  0.3845  0.0368  0.0746
 6275SOL    HW119524   3.545   2.147   3.532  2.5802  0.8979 -1.6650
 6275SOL    HW219525   3.610   2.046   3.440  0.3370 -2.5077  0.2616
 6276SOL     OW19526   0.118   3.927   7.775 -0.3884  0.1921 -0.2721
 6276SOL    HW119527   0.031   3.888   7.771  0.6542 -2.2304 -0.7467
 6276SOL    HW219528   0.178   3.853   7.769  1.7227  1.8422 -0.6009
 6277SOL     OW19529   6.656   6.109   6.272  0.1353 -0.0748 -0.3327
 6277SOL    HW119530   6.723   6.082   6.209 -0.6498 -1.9394 -0.4327
 6277SOL    HW219531   6.681   6.064   6.353 -2.2259 -2.8741 -0.9713
 6278SOL     OW19532   3.898   4.343   7.621  0.3322 -0.0310  0.0192
 6278SOL    HW119533   3.827   4.387   7.576  0.9428  0.4731 -0.4798
 6278SOL    HW219534   3.977   4.369   7.573  0.6027 -2.9051 -1.3175
 6279SOL     OW19535   3.385   6.797   1.086  0.1587 -0.1267 -0.0031
 6279SOL    HW119536   3.370   6.833   0.999  2.0197 -0.3719 -0.4872
 6279SOL    HW219537   3.340   6.856   1.146  2.0928  2.3684 -0.8462
 6280SOL     OW19538   6.880   5.051   7.766  0.0392  0.1257 -0.2607
 6280SOL    HW119539   6.938   4.983   7.731 -0.8649 -0.2156 -1.1115
 6280SOL    HW219540   6.863   5.023   7.856  0.4499 -0.2551 -0.2949
 6281SOL     OW19541   4.117   1.106   3.214  0.0521  0.2323 -0.1021
 6281SOL    HW119542   4.060   1.151   3.277  1.7181  0.5682  1.2477
 6281SOL    HW219543   4.076   1.020   3.203 -1.4211  0.9077 -0.2151
 6282SOL     OW19544   5.615   3.107   0.910 -0.3113 -0.4928 -0.2414
 6282SOL    HW119545   5.690   3.085   0.855 -0.4153 -1.3475 -0.0476
 6282SOL    HW219546   5.653   3.128   0.995 -0.3003 -1.1144 -0.0890
 6283SOL     OW19547   7.329   6.597   0.138 -0.2550  0.1840 -0.3319
 6283SOL    HW119548   7.372   6.600   0.223 -0.1418  1.2186 -0.4179
 6283SOL    HW219549   7.323   6.688   0.110 -2.9819  0.1650 -0.1031
 6284SOL     OW19550   1.629   6.043   5.633 -0.0866  0.7040 -0.0467
 6284SOL    HW119551   1.616   6.069   5.542 -0.1385 -0.1040 -0.2801
 6284SOL    HW219552   1.596   6.116   5.684  0.7090  1.5382 -0.6769
 6285SOL     OW19553   4.189   1.947   7.767  0.1216 -0.1902 -0.5892
 6285SOL    HW119554   4.254   1.950   7.697 -0.4609 -1.7176 -1.2438
 6285SOL    HW219555   4.107   1.971   7.725 -0.1308 -0.5238 -0.2947
 6286SOL     OW19556   6.572   3.726   7.075 -0.1127 -0.4423  0.3980
 6286SOL    HW119557   6.659   3.689   7.083  0.9623  0.9525 -2.9461
 6286SOL    HW219558   6.516   3.652   7.051  0.6143 -0.9675  0.2999
 6287SOL     OW19559   2.808   4.453   2.535  0.4569 -0.0731 -0.2802
 6287SOL    HW119560   2.808   4.357   2.525  1.1578 -0.1901  0.6742
 6287SOL    HW219561   2.727   4.481   2.493 -0.5406 -1.2487  0.7668
 6288SOL     OW19562   0.667   1.967   1.198 -0.7003 -0.4838  0.1102
 6288SOL    HW119563   0.750   1.920   1.192 -0.4934 -0.3005  1.2741
 6288SOL    HW219564   0.611   1.925   1.132 -0.1667 -1.6252  0.3511
 6289SOL     OW19565   3.984   1.514   0.691  0.5502  0.4832  0.1918
 6289SOL    HW119566   3.898   1.484   0.720  0.6962  0.0906  0.2142
 6289SOL    HW219567   3.982   1.609   0.705 -0.7842  0.8576 -2.0754
 6290SOL     OW19568   0.654   7.325   2.241  0.3286  0.0112  0.2120
 6290SOL    HW119569   0.746   7.336   2.220 -0.1800  2.1568 -1.2540
 6290SOL    HW219570   0.646   7.234   2.271  2.7475 -0.4611 -0.4032
 6291SOL     OW19571   6.898   6.409   6.359  0.2220  0.2477  0.0551
 6291SOL    HW119572   6.863   6.466   6.427  1.2053  1.3340 -0.3170
 6291SOL    HW219573   6.860   6.443   6.277  0.7420  0.3195 -0.1607
 6292SOL     OW19574   3.636   5.833   6.303  0.0230 -0.3832  0.4943
 6292SOL    HW119575   3.561   5.831   6.244  0.7098  1.1185 -0.4957
 6292SOL    HW219576   3.599   5.855   6.389 -0.5342  2.3581 -0.3550
 6293SOL     OW19577   0.812   5.098   5.632 -0.4951 -0.9033  0.1363
 6293SOL    HW119578   0.904   5.105   5.655 -0.4440  0.3297 -0.3884
 6293SOL    HW219579   0.782   5.019   5.678  0.0225  0.3818  2.8877
 6294SOL     OW19580   0.448   4.498   7.858 -0.4095  0.2461 -0.2004
 6294SOL    HW119581   0.418   4.521   7.946 -0.3850 -0.0175 -0.1222
 6294SOL    HW219582   0.369   4.501   7.804 -0.6494 -0.7358  0.0627
 6295SOL     OW19583   2.426   0.370   5.177 -0.1187  0.3477 -0.1069
 6295SOL    HW119584   2.333   0.378   5.200 -0.4908  0.1006 -1.4368
 6295SOL    HW219585   2.455   0.291   5.223  0.0057  1.5418  1.9983
 6296SOL     OW19586   1.938   6.868   2.535  0.2372 -0.5022 -0.2142
 6296SOL    HW119587   1.945   6.924   2.457 -1.3293  0.6126  0.3994
 6296SOL    HW219588   1.993   6.911   2.600 -1.1116  0.4788  0.3149
 6297SOL     OW19589   5.911   3.737   7.817  0.2887  0.1866 -0.3474
 6297SOL    HW119590   5.869   3.801   7.760 -2.5964  0.4928  1.8702
 6297SOL    HW219591   5.963   3.790   7.877  0.0479  0.2528 -0.1917
 6298SOL     OW19592   5.999   4.406   7.186  0.1526  0.2610 -0.7300
 6298SOL    HW119593   5.926   4.468   7.193  0.7124  0.8006  1.0965
 6298SOL    HW219594   5.957   4.320   7.179 -0.6592  0.6032 -0.2313
 6299SOL     OW19595   0.127   6.903   1.656  0.1371  0.3659 -0.1308
 6299SOL    HW119596   0.195   6.962   1.687  1.7014 -1.2627 -0.3300
 6299SOL    HW219597   0.174   6.829   1.620 -1.7251 -0.0023 -1.9714
 6300SOL     OW19598   4.631   2.525   4.520 -0.3859 -0.0563  0.3911
 6300SOL    HW119599   4.610   2.614   4.549  0.4553  0.2223  0.1713
 6300SOL    HW219600   4.723   2.529   4.496 -0.5134 -0.8275 -0.2598
 6301SOL     OW19601   3.029   5.021   6.894  0.0717  0.0773  0.1257
 6301SOL    HW119602   3.112   4.981   6.867 -0.5146 -0.9854 -0.1567
 6301SOL    HW219603   2.992   4.959   6.957 -1.9079 -1.0262 -1.9757
 6302SOL     OW19604   4.027   7.581   6.988  0.3618  0.0857  0.0450
 6302SOL    HW119605   4.108   7.553   6.946  0.2112  0.8305 -0.7783
 6302SOL    HW219606   4.055   7.615   7.073  0.6867 -1.3150  0.5236
 6303SOL     OW19607   6.281   5.349   6.359  0.1903  0.1542 -0.0663
 6303SOL    HW119608   6.265   5.442   6.369 -1.5155 -0.1607  0.4998
 6303SOL    HW219609   6.359   5.332   6.412  1.2365  1.4359 -1.1430
 6304SOL     OW19610   2.486   1.861   6.635  0.4850 -1.1499  0.5656
 6304SOL    HW119611   2.446   1.918   6.701  0.4949  0.2090 -0.5539
 6304SOL    HW219612   2.468   1.772   6.666 -1.1694 -0.5693  1.4026
 6305SOL     OW19613   3.827   0.397   1.137 -0.4196  0.3929 -0.2020
 6305SOL    HW119614   3.750   0.406   1.194 -0.3826 -2.4314  0.4329
 6305SOL    HW219615   3.894   0.451   1.180 -0.9387 -0.1814  1.4264
 6306SOL     OW19616   0.293   0.384   7.432  0.9803  0.0502 -0.3830
 6306SOL    HW119617   0.305   0.354   7.522  0.0347 -1.1100 -0.6163
 6306SOL    HW219618   0.205   0.423   7.431  0.4665 -1.0710 -1.0675
 6307SOL     OW19619   6.311   3.022   1.518 -0.0554 -0.4542  0.1713
 6307SOL    HW119620   6.298   3.053   1.608  1.7609  1.2859 -0.1050
 6307SOL    HW219621   6.230   2.975   1.497 -2.4405  2.8490  1.2025
 6308SOL     OW19622   5.475   0.861   4.532  0.3595  0.1347  0.2970
 6308SOL    HW119623   5.531   0.868   4.456  0.1585 -0.3308  0.1021
 6308SOL    HW219624   5.386   0.877   4.499  0.1337 -1.1663  0.2122
 6309SOL     OW19625   1.733   6.886   4.581 -0.2008 -0.1674  0.2216
 6309SOL    HW119626   1.714   6.926   4.666  1.5470 -0.6864  0.8930
 6309SOL    HW219627   1.740   6.793   4.599 -0.9180 -0.4308 -0.7287
 6310SOL     OW19628   5.855   4.864   7.250 -0.5096 -0.1493 -0.2980
 6310SOL    HW119629   5.905   4.820   7.181 -1.2304 -1.2525 -0.1392
 6310SOL    HW219630   5.859   4.957   7.227  1.9954 -0.1329 -0.0228
 6311SOL     OW19631   4.357   6.432   6.970  0.0420  0.3647  0.1973
 6311SOL    HW119632   4.425   6.402   7.030  0.3665 -0.5398 -0.5960
 6311SOL    HW219633   4.278   6.387   6.999  0.1502  0.1076  0.1043
 6312SOL     OW19634   7.825   1.489   5.143 -0.4266 -0.0285  0.0346
 6312SOL    HW119635   7.815   1.439   5.224 -0.3594 -2.0225 -1.1163
 6312SOL    HW219636   7.784   1.573   5.161 -1.0664 -0.6896  1.8926
 6313SOL     OW19637   0.962   2.064   7.602  0.8619 -0.5093  0.0489
 6313SOL    HW119638   0.934   1.978   7.634  0.8182 -0.6190 -0.2876
 6313SOL    HW219639   0.917   2.126   7.660  0.1186 -0.6882 -0.3217
 6314SOL     OW19640   7.180   5.161   1.243 -0.2398 -0.2021  0.3578
 6314SOL    HW119641   7.156   5.161   1.151  0.7485  0.5666  0.0772
 6314SOL    HW219642   7.103   5.128   1.289 -1.7942  1.9941 -0.4882
 6315SOL     OW19643   2.173   7.162   2.453 -0.1393  0.2275  0.1616
 6315SOL    HW119644   2.223   7.100   2.401 -1.5805 -0.9413  0.1125
 6315SOL    HW219645   2.194   7.248   2.416  1.1456 -0.2930 -0.3788
 6316SOL     OW19646   1.025   2.777   1.358  0.5880 -0.3060 -0.0596
 6316SOL    HW119647   0.996   2.778   1.450 -0.3783 -1.3895 -0.3372
 6316SOL    HW219648   1.049   2.686   1.341 -0.6393 -0.4297 -1.2877
 6317SOL     OW19649   6.048   1.716   2.789  0.3518 -0.6874 -0.5033
 6317SOL    HW119650   6.108   1.696   2.862 -0.4112 -0.7013  0.1273
 6317SOL    HW219651   6.087   1.672   2.714  0.5987 -1.5566  0.1211
 6318SOL     OW19652   1.509   3.283   5.612 -0.3016  0.3460  0.1523
 6318SOL    HW119653   1.568   3.210   5.596 -0.1395 -0.0060  2.0745
 6318SOL    HW219654   1.564   3.361   5.605 -0.1892  0.2087 -0.5936
 6319SOL     OW19655   6.107   7.773   0.516 -0.1426 -0.3453  0.1208
 6319SOL    HW119656   6.032   7.750   0.461 -1.2531  0.4268  1.2576
 6319SOL    HW219657   6.110   7.704   0.582 -1.0133  0.5634  1.1546
 6320SOL     OW19658   4.323   4.217   3.258  0.0431 -0.3613  0.1232
 6320SOL    HW119659   4.394   4.272   3.226 -1.1957  0.6068 -1.1096
 6320SOL    HW219660   4.294   4.259   3.339 -0.1756  0.1671 -0.2280
 6321SOL     OW19661   1.668   1.103   1.932  0.7412 -0.3292  0.3295
 6321SOL    HW119662   1.706   1.023   1.895  0.2637 -1.2277  1.6999
 6321SOL    HW219663   1.742   1.148   1.973  0.8121 -0.7034  0.6240
 6322SOL     OW19664   1.941   4.579   2.909 -0.5965 -0.0831 -0.6927
 6322SOL    HW119665   1.910   4.489   2.900 -0.2905 -0.4172  1.2585
 6322SOL    HW219666   1.935   4.615   2.820  1.6518 -2.7928 -2.1021
 6323SOL     OW19667   0.161   5.217   7.670  0.8933 -0.1028 -0.6890
 6323SOL    HW119668   0.243   5.243   7.710  0.3948  0.2039  0.1418
 6323SOL    HW219669   0.121   5.157   7.733  0.1450  0.3131 -0.7596
 6324SOL     OW19670   6.343   4.815   6.464 -0.0571 -0.2137  0.0719
 6324SOL    HW119671   6.401   4.828   6.538 -0.0621 -2.0324  0.4369
 6324SOL    HW219672   6.260   4.787   6.502 -0.0737 -1.1286 -0.5849
 6325SOL     OW19673   5.966   5.781   4.980  0.0026 -0.3742 -0.1171
 6325SOL    HW119674   5.985   5.793   4.886 -0.0572  0.1945 -0.0577
 6325SOL    HW219675   5.988   5.690   4.997  2.5059  0.1604 -0.1077
 6326SOL     OW19676   6.212   0.946   2.812 -0.1552  0.0883 -0.3577
 6326SOL    HW119677   6.265   0.891   2.754 -0.2892 -0.1074 -0.2958
 6326SOL    HW219678   6.145   0.887   2.846  1.3440 -0.4190  1.8948
 6327SOL     OW19679   0.440   4.738   1.219  0.6143  0.1932  0.5385
 6327SOL    HW119680   0.385   4.667   1.251  1.4638  0.1626  2.0449
 6327SOL    HW219681   0.379   4.806   1.193 -0.1837 -0.7405 -0.0771
 6328SOL     OW19682   7.855   3.235   0.425 -0.2241  0.6398  0.0159
 6328SOL    HW119683   7.847   3.189   0.509  3.0634 -0.2729 -0.0073
 6328SOL    HW219684   7.847   3.327   0.447 -1.0484  0.3384  1.0535
 6329SOL     OW19685   7.795   7.358   1.627  0.3582  0.0260 -0.6699
 6329SOL    HW119686   7.716   7.411   1.635  1.1591  1.0008  1.9935
 6329SOL    HW219687   7.866   7.417   1.653  1.4856 -1.8268  0.7345
 6330SOL     OW19688   2.197   4.772   5.872  0.3083  0.5072  0.0445
 6330SOL    HW119689   2.212   4.689   5.918  0.1896 -0.1742 -1.1190
 6330SOL    HW219690   2.238   4.760   5.787 -0.5999  1.2752 -0.5152
 6331SOL     OW19691   4.222   0.510   2.068 -0.3790 -0.3701  0.6287
 6331SOL    HW119692   4.192   0.439   2.011  0.8866  0.4654 -1.1636
 6331SOL    HW219693   4.317   0.501   2.070  0.0419  2.4475 -1.3686
 6332SOL     OW19694   4.688   3.522   1.927 -0.8262 -0.2295  0.0551
 6332SOL    HW119695   4.732   3.560   2.004  1.4623 -0.5293 -1.0042
 6332SOL    HW219696   4.747   3.543   1.854 -0.7498 -3.5375 -0.9820
 6333SOL     OW19697   3.214   5.507   0.397 -0.0208  0.4841  0.2399
 6333SOL    HW119698   3.231   5.547   0.311  1.2547 -2.1783 -0.8855
 6333SOL    HW219699   3.173   5.423   0.376 -0.4590  0.1329  2.3086
 6334SOL     OW19700   1.710   2.119   5.623  0.3348 -0.0668  0.0969
 6334SOL    HW119701   1.737   2.068   5.546  0.7486 -1.0833  0.9017
 6334SOL    HW219702   1.783   2.111   5.684 -0.1221  0.4674  0.7218
 6335SOL     OW19703   6.297   0.551   2.783 -0.5778  0.4290  0.7176
 6335SOL    HW119704   6.352   0.617   2.741  0.3665  0.4330  1.8861
 6335SOL    HW219705   6.345   0.469   2.770  0.7806  0.6905  3.3686
 6336SOL     OW19706   6.942   6.454   7.655  0.2077 -0.7219 -0.2509
 6336SOL    HW119707   6.892   6.532   7.677 -1.0359 -2.2231  2.8902
 6336SOL    HW219708   7.026   6.466   7.701 -0.2920 -1.4980  0.9198
 6337SOL     OW19709   5.767   2.946   5.805 -0.3670 -0.2087  0.0560
 6337SOL    HW119710   5.750   3.014   5.869  0.9775 -0.4510  0.7223
 6337SOL    HW219711   5.776   2.993   5.722 -2.6598  0.0514 -0.1105
 6338SOL     OW19712   5.034   6.103   4.736  0.5377 -0.5774 -0.4474
 6338SOL    HW119713   4.979   6.158   4.681  1.0356  0.6859  0.2913
 6338SOL    HW219714   5.035   6.146   4.821  4.5560  0.8828 -1.0066
 6339SOL     OW19715   3.204   7.907   4.502  0.4026  0.1189  0.4295
 6339SOL    HW119716   3.148   7.894   4.578  0.2232 -0.7421  0.1531
 6339SOL    HW219717   3.292   7.919   4.538  0.5995 -1.9197  0.7190
 6340SOL     OW19718   6.594   0.987   3.542  0.4475  0.3744  0.0296
 6340SOL    HW119719   6.556   1.059   3.591 -1.3305 -0.1022 -0.5838
 6340SOL    HW219720   6.529   0.966   3.475  2.0265 -0.1670 -1.3982
 6341SOL     OW19721   5.372   2.216   5.227 -0.5740  0.0239  0.0377
 6341SOL    HW119722   5.443   2.267   5.191  0.6398 -1.7237 -0.1625
 6341SOL    HW219723   5.319   2.279   5.276  0.8814  1.4295 -0.1355
 6342SOL     OW19724   1.366   7.022   4.292 -0.2627  0.0634  0.2449
 6342SOL    HW119725   1.373   7.010   4.198  0.2137  0.5317  0.2156
 6342SOL    HW219726   1.413   7.104   4.310 -0.1018 -0.1651  0.9212
 6343SOL     OW19727   3.651   4.439   4.553 -0.5723  0.3143  0.0414
 6343SOL    HW119728   3.733   4.425   4.599  2.0632  2.4714 -3.4931
 6343SOL    HW219729   3.669   4.412   4.463 -3.8705  0.6887 -0.8809
 6344SOL     OW19730   3.364   3.482   1.944  0.3828 -0.3882 -0.3949
 6344SOL    HW119731   3.451   3.463   1.910  0.8580  2.6554 -1.2293
 6344SOL    HW219732   3.379   3.512   2.034  0.2160  0.0249 -0.4997
 6345SOL     OW19733   6.503   6.839   5.311 -0.0489  0.0263  0.2821
 6345SOL    HW119734   6.482   6.830   5.404 -0.4321 -0.1033  0.1868
 6345SOL    HW219735   6.486   6.753   5.274 -0.5788  0.2629 -0.0347
 6346SOL     OW19736   6.970   0.121   0.663 -0.3907  0.0124 -0.5616
 6346SOL    HW119737   6.877   0.103   0.654 -0.4320  0.7821 -1.8555
 6346SOL    HW219738   6.974   0.203   0.712 -0.4122  0.3190 -1.0730
 6347SOL     OW19739   5.894   5.766   7.541 -0.0524 -0.1755  0.5611
 6347SOL    HW119740   5.890   5.681   7.587 -0.7953  0.1054  1.0494
 6347SOL    HW219741   5.919   5.828   7.609 -0.2661  0.1072  0.3835
 6348SOL     OW19742   5.481   1.240   1.452  0.1423 -0.3946 -0.4067
 6348SOL    HW119743   5.420   1.267   1.520 -0.3776 -1.2250 -0.5299
 6348SOL    HW219744   5.503   1.149   1.473  2.4500  0.2751  0.4331
 6349SOL     OW19745   6.216   4.057   2.073  0.5013 -0.1339 -0.4610
 6349SOL    HW119746   6.222   4.132   2.132  0.2809 -1.4141  1.2606
 6349SOL    HW219747   6.250   4.089   1.989 -2.7120  2.8829 -0.8283
 6350SOL     OW19748   6.316   3.386   6.859 -0.0554 -0.4506  0.5000
 6350SOL    HW119749   6.354   3.313   6.809 -1.2429 -0.1820 -0.8539
 6350SOL    HW219750   6.391   3.441   6.881  0.6720 -1.3065  0.2584
 6351SOL     OW19751   3.754   2.393   1.377  0.4157 -0.3660 -0.3805
 6351SOL    HW119752   3.795   2.410   1.292  1.1538 -1.4152 -0.2625
 6351SOL    HW219753   3.796   2.312   1.408  0.0516 -0.0867  0.9129
 6352SOL     OW19754   6.762   1.601   5.443 -0.6771 -0.0032  0.3989
 6352SOL    HW119755   6.789   1.645   5.363 -1.2013 -0.9085 -0.3003
 6352SOL    HW219756   6.720   1.669   5.496  1.4383  1.0438  0.7992
 6353SOL     OW19757   3.168   2.570   1.266 -0.6289 -1.1267 -0.6381
 6353SOL    HW119758   3.182   2.608   1.353 -1.8583  0.6276 -1.1753
 6353SOL    HW219759   3.235   2.610   1.211  0.0168 -2.0830 -0.5749
 6354SOL     OW19760   6.785   3.977   1.661  0.0854 -0.3428 -0.3962
 6354SOL    HW119761   6.765   3.976   1.567 -1.4400  0.1495 -0.0919
 6354SOL    HW219762   6.704   3.951   1.704  0.1552  1.4260  0.8859
 6355SOL     OW19763   1.920   3.204   4.491 -0.5283  0.1488  0.0379
 6355SOL    HW119764   1.926   3.288   4.536  1.7490  0.3445 -0.5045
 6355SOL    HW219765   1.999   3.157   4.518 -1.3969 -1.5371 -0.2506
 6356SOL     OW19766   5.368   1.887   1.832 -0.3437  0.0584 -0.3106
 6356SOL    HW119767   5.333   1.976   1.829 -0.8874 -0.0587  1.3866
 6356SOL    HW219768   5.305   1.834   1.783 -1.2766  0.2469  0.6498
 6357SOL     OW19769   6.020   5.221   6.778 -0.4415 -0.0200 -0.1468
 6357SOL    HW119770   5.978   5.140   6.750  0.4869 -1.1970  1.6237
 6357SOL    HW219771   5.955   5.289   6.762 -2.1272 -1.4360  0.3428
 6358SOL     OW19772   4.157   7.582   6.334  0.2021  0.5148 -0.0785
 6358SOL    HW119773   4.179   7.634   6.411  0.6177 -0.4222  0.4648
 6358SOL    HW219774   4.194   7.495   6.353 -0.6366 -0.0330 -0.8495
 6359SOL     OW19775   3.272   6.449   3.465  0.0848 -0.4071 -0.5377
 6359SOL    HW119776   3.199   6.469   3.407  1.4667  0.1720 -2.1718
 6359SOL    HW219777   3.248   6.367   3.508 -1.8636  0.2036 -0.3853
 6360SOL     OW19778   4.308   4.642   7.690 -0.5813  0.0668  0.3412
 6360SOL    HW119779   4.390   4.658   7.736 -0.7025  1.2218  0.2042
 6360SOL    HW219780   4.311   4.701   7.614 -0.5244 -1.5434 -0.9704
 6361SOL     OW19781   4.977   1.297   4.686 -0.3398 -0.0609  0.1421
 6361SOL    HW119782   4.894   1.344   4.695 -0.4781 -0.7259  3.1151
 6361SOL    HW219783   5.044   1.364   4.700 -0.3926  0.1267 -0.4586
 6362SOL     OW19784   3.545   7.289   5.965 -0.1207  0.3364  0.8192
 6362SOL    HW119785   3.637   7.289   5.993  0.7027 -1.8092 -1.4425
 6362SOL    HW219786   3.495   7.281   6.046  1.8551 -1.1953  1.9959
 6363SOL     OW19787   2.801   3.465   4.334 -0.2748  0.2459  0.2581
 6363SOL    HW119788   2.752   3.488   4.413 -0.2865  0.3313  0.2264
 6363SOL    HW219789   2.817   3.371   4.341  0.1844  0.3472  0.6206
 6364SOL     OW19790   3.663   3.288   7.877 -0.1617  0.0907 -0.0706
 6364SOL    HW119791   3.592   3.347   7.852  1.4984  2.4281  0.4437
 6364SOL    HW219792   3.681   3.309   7.968  0.6071 -1.1206  0.0871
 6365SOL     OW19793   6.507   2.184   7.818 -0.4199  0.0883 -0.2442
 6365SOL    HW119794   6.532   2.101   7.776  0.5654 -0.3506  1.1390
 6365SOL    HW219795   6.557   2.251   7.771 -0.8106 -0.1508 -1.0188
 6366SOL     OW19796   1.531   7.405   6.372  0.2714  0.0987 -0.3728
 6366SOL    HW119797   1.605   7.374   6.320  0.5871  0.2884 -0.0426
 6366SOL    HW219798   1.542   7.501   6.374 -0.0281  0.1356 -0.3879
 6367SOL     OW19799   4.821   4.744   1.555 -0.5903  0.0523  0.5248
 6367SOL    HW119800   4.851   4.670   1.501  1.3643  0.3378  1.1259
 6367SOL    HW219801   4.860   4.728   1.641  0.7804  2.2697  0.3944
 6368SOL     OW19802   7.216   3.955   4.442  0.2531 -0.7982 -0.5940
 6368SOL    HW119803   7.233   3.864   4.421 -0.4253 -0.9814 -0.3596
 6368SOL    HW219804   7.181   3.993   4.361 -2.1394 -1.4473  0.0743
 6369SOL     OW19805   7.433   1.271   0.070  0.0984  0.3297 -0.0051
 6369SOL    HW119806   7.521   1.249   0.038 -0.1137 -0.0912 -0.3013
 6369SOL    HW219807   7.434   1.366   0.079  0.2413  0.4363 -1.0477
 6370SOL     OW19808   7.275   6.712   2.390 -0.1822 -0.2283  0.5138
 6370SOL    HW119809   7.281   6.696   2.296  1.4397 -0.8527  0.6972
 6370SOL    HW219810   7.351   6.667   2.427 -0.0024  1.1677  1.9647
 6371SOL     OW19811   7.465   4.137   2.426  0.5744  0.0454  0.6663
 6371SOL    HW119812   7.551   4.125   2.386 -0.4069  1.0746 -2.0014
 6371SOL    HW219813   7.452   4.060   2.480  2.9061 -0.4252  0.6539
 6372SOL     OW19814   4.849   7.082   5.965  0.1471  0.0089  0.3878
 6372SOL    HW119815   4.783   7.086   6.034 -0.5033  1.9917 -0.2626
 6372SOL    HW219816   4.911   7.151   5.987  0.0264  0.5451 -0.8652
 6373SOL     OW19817   6.472   3.592   5.275  0.6918  0.2290 -0.6247
 6373SOL    HW119818   6.549   3.541   5.301  0.3959 -0.2937 -0.7612
 6373SOL    HW219819   6.503   3.683   5.274  0.5874  0.4034  2.1662
 6374SOL     OW19820   4.389   7.755   0.226 -0.4205 -0.3816 -0.1980
 6374SOL    HW119821   4.452   7.812   0.183 -1.6490 -0.1876 -1.8497
 6374SOL    HW219822   4.433   7.670   0.231  0.2006 -0.1022 -0.7320
 6375SOL     OW19823   0.408   1.980   7.028 -0.1992 -0.0717  0.1732
 6375SOL    HW119824   0.395   1.886   7.016  0.0574 -0.0467 -0.3391
 6375SOL    HW219825   0.501   1.989   7.049 -0.3871  0.0013  1.0067
 6376SOL     OW19826   3.882   1.766   0.753  0.1460 -0.0340 -0.0984
 6376SOL    HW119827   3.905   1.858   0.736  0.2656  0.2040  1.2637
 6376SOL    HW219828   3.810   1.748   0.693 -1.6308  1.7428  1.3774
 6377SOL     OW19829   2.859   4.054   0.878 -0.1633 -0.1289  0.4489
 6377SOL    HW119830   2.842   4.146   0.862 -0.6425 -0.4785 -1.2812
 6377SOL    HW219831   2.945   4.038   0.840 -0.8302 -0.7496 -0.8485
 6378SOL     OW19832   7.398   3.030   6.910  0.1615  0.5093  0.1304
 6378SOL    HW119833   7.331   3.092   6.882  0.0740  0.5295  0.3851
 6378SOL    HW219834   7.368   2.998   6.994 -0.0361 -0.2454 -0.2199
 6379SOL     OW19835   0.258   3.365   0.966  0.3701 -0.1693 -0.1953
 6379SOL    HW119836   0.164   3.352   0.961  0.4943 -1.5039  0.4676
 6379SOL    HW219837   0.284   3.391   0.877 -1.1383  4.5865  0.4874
 6380SOL     OW19838   0.391   0.650   1.609  0.6379 -0.3175  0.6620
 6380SOL    HW119839   0.434   0.727   1.571 -1.3329  0.2492 -0.6138
 6380SOL    HW219840   0.396   0.584   1.540  3.7467 -2.0271  2.3225
 6381SOL     OW19841   0.795   2.307   3.869  0.6059  0.4525  0.5677
 6381SOL    HW119842   0.792   2.337   3.960  1.4414  1.6588  0.2036
 6381SOL    HW219843   0.880   2.264   3.860  1.6035  2.4919 -0.2776
 6382SOL     OW19844   4.745   5.877   4.402  1.0263  0.0365 -0.1529
 6382SOL    HW119845   4.651   5.856   4.405  1.2143 -0.8110  0.2118
 6382SOL    HW219846   4.753   5.941   4.332  0.1998 -0.0565 -0.3447
 6383SOL     OW19847   0.328   7.599   6.890 -0.3943  0.2129 -0.0249
 6383SOL    HW119848   0.370   7.635   6.812  0.0626  0.3647  0.2911
 6383SOL    HW219849   0.250   7.653   6.903 -0.5679  0.0797 -0.4699
 6384SOL     OW19850   3.049   2.014   6.637 -1.1683 -0.5903 -0.2955
 6384SOL    HW119851   2.961   1.979   6.648 -1.1123 -1.1664 -1.5033
 6384SOL    HW219852   3.069   2.000   6.544  0.4904 -1.1527  0.1168
 6385SOL     OW19853   4.001   1.522   5.657  0.2666 -0.4984  0.1054
 6385SOL    HW119854   3.981   1.609   5.690 -0.2901 -0.6575  0.1992
 6385SOL    HW219855   4.042   1.538   5.572 -0.9844 -0.1615 -0.4734
 6386SOL     OW19856   3.401   2.399   4.443  0.1429 -0.5948 -0.1558
 6386SOL    HW119857   3.383   2.476   4.497  1.0683 -1.3446  1.2882
 6386SOL    HW219858   3.316   2.378   4.403 -0.3148  0.6501  0.1213
 6387SOL     OW19859   4.450   0.249   2.463  0.2609  0.2365  0.5616
 6387SOL    HW119860   4.359   0.218   2.458  0.7072 -0.8707 -1.7563
 6387SOL    HW219861   4.493   0.185   2.520  0.2700 -1.2064 -0.9872
 6388SOL     OW19862   0.723   0.910   0.167  0.1224 -0.2077  0.3166
 6388SOL    HW119863   0.785   0.861   0.222  0.8527 -1.0035 -1.1471
 6388SOL    HW219864   0.672   0.842   0.123  0.4588  0.3514 -0.9900
 6389SOL     OW19865   1.390   6.810   3.299  0.1034  0.4038 -0.3662
 6389SOL    HW119866   1.337   6.851   3.231  0.1746 -1.4863 -1.6704
 6389SOL    HW219867   1.481   6.823   3.270  0.2293  1.2916  0.4188
 6390SOL     OW19868   6.926   1.428   1.679 -0.2555 -0.4043  0.3848
 6390SOL    HW119869   6.845   1.378   1.683 -0.2660 -0.4647 -0.5276
 6390SOL    HW219870   6.907   1.501   1.621  0.3024 -0.3381  0.2755
 6391SOL     OW19871   5.566   5.174   3.925  0.4685  0.5030  0.2789
 6391SOL    HW119872   5.602   5.106   3.868  0.1486  0.4936  0.0806
 6391SOL    HW219873   5.484   5.137   3.957  0.5324  0.6037  0.5608
 6392SOL     OW19874   2.271   7.790   4.404  0.4722 -0.5358  0.3038
 6392SOL    HW119875   2.295   7.697   4.395  0.7086 -0.3739 -0.7963
 6392SOL    HW219876   2.333   7.836   4.348 -1.1313  0.0894 -1.0051
 6393SOL     OW19877   0.967   7.365   0.759  0.2034 -0.2059 -0.2423
 6393SOL    HW119878   1.017   7.336   0.835  0.8354  0.6110 -0.3309
 6393SOL    HW219879   1.031   7.409   0.703 -0.5259  0.4663 -0.5713
 6394SOL     OW19880   5.531   3.702   1.481  0.2402  0.7663 -0.0773
 6394SOL    HW119881   5.583   3.782   1.475 -1.0464  1.6786  0.3623
 6394SOL    HW219882   5.486   3.710   1.566 -0.8816  0.2106 -0.6040
 6395SOL     OW19883   3.770   5.225   1.649 -0.2427 -0.4270 -0.2754
 6395SOL    HW119884   3.703   5.292   1.640  1.2541  1.1435 -0.3173
 6395SOL    HW219885   3.824   5.254   1.723  0.6304 -1.4050 -0.4971
 6396SOL     OW19886   3.611   5.439   1.637  0.1040 -0.0635  0.0663
 6396SOL    HW119887   3.591   5.433   1.544  1.4391  0.3170 -0.2715
 6396SOL    HW219888   3.529   5.468   1.678 -0.7491 -1.1276 -0.8487
 6397SOL     OW19889   6.096   2.760   1.971 -0.1527  0.6754  0.0502
 6397SOL    HW119890   6.094   2.735   2.063 -1.1649  0.6897  0.0446
 6397SOL    HW219891   6.163   2.704   1.932 -0.9011 -0.5408  0.4637
 6398SOL     OW19892   5.286   4.446   3.528 -0.4543  0.6330  0.3128
 6398SOL    HW119893   5.261   4.375   3.468  0.7349  1.1512 -0.8223
 6398SOL    HW219894   5.286   4.404   3.614  0.6275 -0.8975 -0.3705
 6399SOL     OW19895   2.956   6.613   3.182 -0.2213  0.4621 -0.7518
 6399SOL    HW119896   2.978   6.520   3.169 -0.9427  0.1443  0.1902
 6399SOL    HW219897   2.862   6.618   3.164 -0.2776  0.9127 -0.3466
 6400SOL     OW19898   3.877   2.823   3.173 -0.1836 -0.2266 -0.0204
 6400SOL    HW119899   3.891   2.826   3.268  0.8392  0.0191 -0.1671
 6400SOL    HW219900   3.801   2.765   3.162 -1.8615  1.6573  1.0843
 6401SOL     OW19901   1.482   0.422   0.758  0.2998 -0.1008 -0.0828
 6401SOL    HW119902   1.549   0.388   0.698  0.4200  2.5710 -1.6034
 6401SOL    HW219903   1.399   0.400   0.716  0.3666  0.9226 -0.7874
 6402SOL     OW19904   0.430   6.247   5.403  0.2714 -0.1902  0.1456
 6402SOL    HW119905   0.363   6.302   5.362  0.8469  0.2471 -0.2294
 6402SOL    HW219906   0.508   6.303   5.405  0.7713 -0.8807  0.0774
 6403SOL     OW19907   0.159   5.745   1.359  0.1692  0.6923 -0.6943
 6403SOL    HW119908   0.088   5.773   1.417 -0.6988 -0.3781 -1.2023
 6403SOL    HW219909   0.202   5.826   1.333  0.5116  1.2239  1.3248
 6404SOL     OW19910   1.994   2.757   0.605  0.0939 -0.1523 -0.1804
 6404SOL    HW119911   2.080   2.790   0.632  0.4076 -2.1307  1.5527
 6404SOL    HW219912   1.932   2.822   0.638  0.8192  0.1140  0.6969
 6405SOL     OW19913   5.877   2.618   2.752 -0.1861  0.4416 -0.0065
 6405SOL    HW119914   5.955   2.661   2.717  1.0167  0.5951  2.6235
 6405SOL    HW219915   5.808   2.636   2.688  1.3345  2.4662 -1.1752
 6406SOL     OW19916   0.390   6.871   4.890 -0.0119 -0.4163  0.0222
 6406SOL    HW119917   0.420   6.795   4.840  1.2061  0.4108 -0.5620
 6406SOL    HW219918   0.360   6.933   4.824  1.0117  0.4345  0.3207
 6407SOL     OW19919   4.292   7.222   1.774  0.5051  0.3901  0.0822
 6407SOL    HW119920   4.225   7.156   1.756 -0.6317  1.5514 -0.1360
 6407SOL    HW219921   4.359   7.176   1.823  1.4165 -1.7658 -2.8865
 6408SOL     OW19922   4.931   1.861   0.189 -0.0463 -0.2846 -0.2135
 6408SOL    HW119923   4.898   1.947   0.213  0.4980  0.0349 -0.5841
 6408SOL    HW219924   5.025   1.864   0.210  0.9042  0.6432 -3.8576
 6409SOL     OW19925   2.646   3.856   7.606 -0.2675  0.7702  0.0885
 6409SOL    HW119926   2.716   3.851   7.672 -0.7208  0.7338  0.5699
 6409SOL    HW219927   2.643   3.768   7.568  0.3124  0.9211 -0.3112
 6410SOL     OW19928   1.967   3.220   3.918  0.3246 -0.4905 -0.3055
 6410SOL    HW119929   2.027   3.214   3.844 -0.2017 -2.4184 -0.6392
 6410SOL    HW219930   1.903   3.150   3.903 -1.3745  0.7860  0.5941
 6411SOL     OW19931   7.916   5.210   3.220 -0.0091 -0.0837  0.9003
 6411SOL    HW119932   7.971   5.175   3.290  2.3654 -0.3664 -0.9687
 6411SOL    HW219933   7.962   5.185   3.139 -2.8691 -0.2403 -0.8168
 6412SOL     OW19934   7.065   2.346   4.680 -0.7741  0.2038  0.1893
 6412SOL    HW119935   6.979   2.334   4.720 -1.1211 -2.2024 -1.0887
 6412SOL    HW219936   7.090   2.258   4.651  1.8148  0.9618 -0.1007
 6413SOL     OW19937   0.691   4.829   0.159  0.0182  0.2914  0.4627
 6413SOL    HW119938   0.671   4.739   0.184  1.1001 -0.1839 -0.3481
 6413SOL    HW219939   0.763   4.822   0.097  0.5399  1.7583  0.8594
 6414SOL     OW19940   5.263   4.054   3.183 -0.5154 -0.3752 -0.0895
 6414SOL    HW119941   5.224   4.124   3.234 -2.1404 -1.7784  0.7114
 6414SOL    HW219942   5.337   4.023   3.236 -0.7519 -0.2959  0.2832
 6415SOL     OW19943   0.911   4.408   0.430  0.2975  0.0503  0.3501
 6415SOL    HW119944   0.900   4.360   0.512 -0.5169  0.7132  0.6449
 6415SOL    HW219945   0.829   4.458   0.421  1.9951  3.3091  1.3255
 6416SOL     OW19946   1.634   5.571   7.276  0.6818  0.2576  0.1123
 6416SOL    HW119947   1.705   5.582   7.213  1.3080  0.6128  0.8568
 6416SOL    HW219948   1.576   5.506   7.237  1.8984 -0.7230 -0.1136
 6417SOL     OW19949   4.138   4.097   3.949 -0.5170  0.1341 -0.5881
 6417SOL    HW119950   4.091   4.057   4.022 -1.2165  1.8586 -0.0504
 6417SOL    HW219951   4.084   4.079   3.872 -0.9320  0.2341 -0.3223
 6418SOL     OW19952   5.404   2.978   5.705  0.1487 -0.4783  0.5909
 6418SOL    HW119953   5.484   2.926   5.695  0.4699 -0.2179  1.7186
 6418SOL    HW219954   5.401   3.032   5.626  1.3047 -0.2017  0.7165
 6419SOL     OW19955   0.497   4.879   1.791 -0.2528  0.0683 -0.4181
 6419SOL    HW119956   0.513   4.962   1.836 -1.7600  0.0768  0.1627
 6419SOL    HW219957   0.584   4.843   1.775  0.3784  0.0392  2.5894
 6420SOL     OW19958   3.366   2.073   5.991 -0.3666  0.2171 -0.2073
 6420SOL    HW119959   3.403   2.007   5.933  0.9140  2.1731 -1.7669
 6420SOL    HW219960   3.311   2.127   5.934  2.0440  3.0529 -0.1099
 6421SOL     OW19961   1.492   1.526   7.082  1.2597 -0.1943 -0.0006
 6421SOL    HW119962   1.419   1.558   7.029  2.8280 -1.7727 -3.4311
 6421SOL    HW219963   1.547   1.603   7.096 -0.1198  0.6362  1.0437
 6422SOL     OW19964   5.744   5.681   3.290  0.3414 -0.0308 -0.9372
 6422SOL    HW119965   5.684   5.663   3.218 -1.6766 -0.6432  0.7630
 6422SOL    HW219966   5.708   5.760   3.331  0.2833 -0.7458  0.4700
 6423SOL     OW19967   7.013   4.694   3.070 -0.4922  0.0270  0.1119
 6423SOL    HW119968   7.020   4.684   2.975 -0.0320  0.2764  0.1190
 6423SOL    HW219969   6.953   4.767   3.082 -0.4183  0.1047  0.0120
 6424SOL     OW19970   1.517   6.765   2.478 -0.3878  0.0242  0.2113
 6424SOL    HW119971   1.577   6.828   2.518 -1.1611  0.9842 -0.1018
 6424SOL    HW219972   1.555   6.679   2.499  1.7471  0.5930 -1.0182
 6425SOL     OW19973   7.534   7.023   1.720  0.2947  0.1828 -0.3845
 6425SOL    HW119974   7.491   6.938   1.732 -0.1096  0.2135 -1.5178
 6425SOL    HW219975   7.464   7.080   1.686  0.7626  0.7607 -0.3873
 6426SOL     OW19976   3.514   6.546   0.350 -0.3941 -0.2905  0.3388
 6426SOL    HW119977   3.566   6.567   0.273  1.1286 -1.3975  1.0110
 6426SOL    HW219978   3.568   6.483   0.399 -2.3006 -1.3524  1.1709
 6427SOL     OW19979   2.805   4.337   0.795 -0.3927  0.3250  0.2446
 6427SOL    HW119980   2.709   4.334   0.793 -0.5210  2.6951  0.1558
 6427SOL    HW219981   2.828   4.354   0.886 -0.2138  1.9104 -0.0615
 6428SOL     OW19982   6.722   2.933   7.080 -0.1371  0.2134  0.2923
 6428SOL    HW119983   6.810   2.965   7.097  0.4227 -0.0586 -1.8066
 6428SOL    HW219984   6.730   2.838   7.077 -0.0679  0.2291 -1.6889
 6429SOL     OW19985   6.876   2.312   7.382  0.1032 -0.3594  0.0382
 6429SOL    HW119986   6.787   2.348   7.390 -0.2062 -1.0469 -0.2416
 6429SOL    HW219987   6.926   2.358   7.450 -0.3983  0.2229  0.0299
 6430SOL     OW19988   7.297   0.952   6.144 -0.3695 -0.0480  0.1502
 6430SOL    HW119989   7.333   0.930   6.058  0.6007 -0.0213  0.5413
 6430SOL    HW219990   7.260   0.870   6.177 -0.3380 -0.1595 -0.0938
 6431SOL     OW19991   6.529   2.062   2.046  0.2522 -0.0494 -0.1424
 6431SOL    HW119992   6.494   2.144   2.080 -0.2525 -0.3407  0.0415
 6431SOL    HW219993   6.521   2.000   2.119 -2.6473 -1.2119 -1.3373
 6432SOL     OW19994   5.425   6.412   1.373  0.3080 -0.4162  0.0959
 6432SOL    HW119995   5.492   6.479   1.374  0.1418 -0.2288 -0.5269
 6432SOL    HW219996   5.468   6.335   1.336  0.2482 -0.3631 -0.0889
 6433SOL     OW19997   2.330   0.738   2.280 -0.1516  0.7020  0.3241
 6433SOL    HW119998   2.367   0.818   2.318 -0.5713  0.5935  0.9723
 6433SOL    HW219999   2.395   0.670   2.298 -0.8617  0.4049  1.9129
 6434SOL     OW20000   2.748   0.071   6.414 -0.2067 -0.0077  0.2998
 6434SOL    HW120001   2.692   0.021   6.472 -2.7229  0.8332 -1.2451
 6434SOL    HW220002   2.738   0.029   6.328 -0.4270  1.5959 -0.5064
 6435SOL     OW20003   6.206   4.530   7.037  0.7525 -0.0144 -0.0310
 6435SOL    HW120004   6.145   4.512   7.108 -0.1900 -0.1442 -0.8477
 6435SOL    HW220005   6.291   4.503   7.070  0.7588  2.0579  1.9253
 6436SOL     OW20006   2.164   1.433   0.545  0.1791 -0.1806 -0.3058
 6436SOL    HW120007   2.197   1.351   0.507  0.2814 -0.7647  0.9874
 6436SOL    HW220008   2.173   1.420   0.639  1.6251  1.9151 -0.0915
 6437SOL     OW20009   1.707   3.050   0.337  0.2967  0.3144 -0.4068
 6437SOL    HW120010   1.796   3.078   0.315  1.2132 -0.7219  1.7285
 6437SOL    HW220011   1.665   3.129   0.372  1.5515  0.0853  1.8003
 6438SOL     OW20012   4.010   3.048   4.584 -0.1825  0.2675  0.3248
 6438SOL    HW120013   4.053   2.999   4.513 -0.0382 -0.4555  0.8921
 6438SOL    HW220014   3.957   2.982   4.629 -1.1852  0.9580  0.1926
 6439SOL     OW20015   2.808   5.480   7.080  0.2080 -0.1749 -0.1333
 6439SOL    HW120016   2.753   5.546   7.038  0.6983  0.3203 -0.0086
 6439SOL    HW220017   2.893   5.523   7.090  0.6609 -0.9826 -0.4591
 6440SOL     OW20018   3.354   1.644   0.582 -0.0751 -0.8099 -0.1819
 6440SOL    HW120019   3.406   1.589   0.524  0.5759 -1.0789  0.6363
 6440SOL    HW220020   3.266   1.643   0.544  0.1393 -1.6933 -0.6746
 6441SOL     OW20021   6.047   1.291   0.891  0.2570  0.2056  0.2981
 6441SOL    HW120022   5.971   1.293   0.833  0.4320  0.5258  0.0791
 6441SOL    HW220023   6.122   1.305   0.834  0.5636 -1.0045  0.3899
 6442SOL     OW20024   6.279   2.563   7.605  0.0051  0.1720 -0.2781
 6442SOL    HW120025   6.309   2.620   7.534 -0.3419 -0.9207 -1.3480
 6442SOL    HW220026   6.187   2.547   7.585  0.2354 -1.1959 -0.3234
 6443SOL     OW20027   6.328   5.095   2.206  0.3325 -0.0999 -0.7912
 6443SOL    HW120028   6.355   5.074   2.296 -0.1213  1.2206 -0.3312
 6443SOL    HW220029   6.287   5.180   2.213  1.7619  0.7928 -2.5160
 6444SOL     OW20030   7.555   6.611   2.417  0.7183 -0.2718  0.5124
 6444SOL    HW120031   7.538   6.701   2.445  1.3879 -0.2405  0.8356
 6444SOL    HW220032   7.620   6.579   2.479 -0.7275 -1.5326  1.4253
 6445SOL     OW20033   6.995   0.874   4.165 -0.0307  0.1667 -0.1349
 6445SOL    HW120034   6.998   0.958   4.209  2.1416  0.7610 -1.2753
 6445SOL    HW220035   7.049   0.816   4.219  1.5778  0.5532 -1.2796
 6446SOL     OW20036   4.289   6.259   6.180  0.2371  0.2873  0.4554
 6446SOL    HW120037   4.221   6.305   6.131  0.5371  0.9206  0.6137
 6446SOL    HW220038   4.300   6.311   6.260 -1.5169 -1.7000  2.0993
 6447SOL     OW20039   2.760   1.244   0.584  0.1264 -0.0959  0.2476
 6447SOL    HW120040   2.665   1.232   0.587 -0.0159  0.9042  0.0689
 6447SOL    HW220041   2.781   1.247   0.490  0.1983  0.6437  0.2833
 6448SOL     OW20042   5.247   2.107   6.851  0.3256  0.0721 -0.0111
 6448SOL    HW120043   5.187   2.181   6.840 -1.2779 -1.0018  1.0868
 6448SOL    HW220044   5.219   2.043   6.785 -0.0343 -0.6003  0.7789
 6449SOL     OW20045   5.971   0.391   2.210 -0.0986  0.0052 -0.3275
 6449SOL    HW120046   5.957   0.312   2.158 -0.7347  0.4054 -0.7779
 6449SOL    HW220047   5.897   0.447   2.189  0.1441  0.5690  0.2835
 6450SOL     OW20048   2.074   2.136   0.028 -0.5461 -0.5487 -0.0081
 6450SOL    HW120049   2.053   2.166   0.116 -1.5172 -1.9867  0.2794
 6450SOL    HW220050   2.144   2.072   0.040 -0.0263 -0.0692 -0.3959
 6451SOL     OW20051   6.318   4.022   6.644 -0.0937 -0.3980  0.3027
 6451SOL    HW120052   6.310   4.028   6.549  0.9202 -1.3613  0.1364
 6451SOL    HW220053   6.236   3.980   6.672 -1.7166  2.4507  0.2114
 6452SOL     OW20054   6.857   6.798   1.968 -0.3850  0.7335 -0.3478
 6452SOL    HW120055   6.810   6.756   1.896  0.4414  1.5198 -1.3739
 6452SOL    HW220056   6.933   6.742   1.984 -1.0572  0.0575  0.5639
 6453SOL     OW20057   3.031   0.997   5.752  0.4641  0.2862  0.1678
 6453SOL    HW120058   3.088   0.966   5.822 -0.7325 -1.6838  0.3413
 6453SOL    HW220059   3.071   1.079   5.723  2.7516 -0.4495  1.0053
 6454SOL     OW20060   3.647   4.550   6.294 -0.4288 -0.2214 -0.3185
 6454SOL    HW120061   3.704   4.611   6.340  0.0095 -0.6710 -0.2546
 6454SOL    HW220062   3.558   4.580   6.315 -0.2207  0.3510 -0.2411
 6455SOL     OW20063   0.675   5.335   0.116 -0.3750 -0.4358  0.7205
 6455SOL    HW120064   0.757   5.331   0.164 -0.3829 -1.9750  0.6608
 6455SOL    HW220065   0.652   5.243   0.100 -0.4515 -0.0386 -2.0729
 6456SOL     OW20066   1.513   1.633   0.199 -0.0064  0.1644  0.2829
 6456SOL    HW120067   1.496   1.727   0.189  1.0093  0.1687 -2.1784
 6456SOL    HW220068   1.439   1.590   0.157  0.9119 -0.0166 -1.2419
 6457SOL     OW20069   3.064   0.235   0.361 -0.0979 -0.2690 -0.4574
 6457SOL    HW120070   3.047   0.149   0.321  0.8601  0.0004 -1.5104
 6457SOL    HW220071   2.977   0.271   0.377 -0.5285 -0.8121 -1.4088
 6458SOL     OW20072   5.997   1.012   1.668 -0.1254 -0.1791  0.3370
 6458SOL    HW120073   5.930   1.036   1.605  0.1557 -0.0716  0.0748
 6458SOL    HW220074   6.040   0.936   1.629 -0.3130 -0.4558  0.6621
 6459SOL     OW20075   5.366   3.064   7.152 -0.3673 -0.0584  0.4879
 6459SOL    HW120076   5.304   3.085   7.081  0.0216 -0.1411  0.1209
 6459SOL    HW220077   5.384   3.149   7.193  1.5086  0.4739 -1.2465
 6460SOL     OW20078   6.266   2.128   6.441  0.2428 -0.0400 -0.0344
 6460SOL    HW120079   6.344   2.154   6.391  0.4013  0.7752  0.6207
 6460SOL    HW220080   6.195   2.135   6.378  0.4359  1.0238 -0.1563
 6461SOL     OW20081   0.414   2.782   3.861 -0.3018 -0.6907 -0.5602
 6461SOL    HW120082   0.500   2.747   3.883 -0.9099 -1.8805  0.0401
 6461SOL    HW220083   0.380   2.816   3.944 -0.0700  0.5956 -0.9704
 6462SOL     OW20084   0.106   3.285   0.631  0.2658  0.1898 -0.0454
 6462SOL    HW120085   0.049   3.226   0.680 -0.5307  1.1313  0.2002
 6462SOL    HW220086   0.140   3.232   0.559 -0.4349 -0.5698  0.1671
 6463SOL     OW20087   5.155   1.112   7.931 -0.2365  0.5139  0.0107
 6463SOL    HW120088   5.184   1.021   7.921  1.9277  1.2204 -0.7698
 6463SOL    HW220089   5.158   1.127   8.025  3.5345  0.9087 -0.0219
 6464SOL     OW20090   5.733   0.842   1.603 -0.2154  0.1766 -0.5345
 6464SOL    HW120091   5.822   0.805   1.601  0.0073  0.6545  0.1636
 6464SOL    HW220092   5.676   0.765   1.596  0.2484 -0.2366  0.0516
 6465SOL     OW20093   1.934   7.847   5.351 -0.5160  0.2446  0.2794
 6465SOL    HW120094   1.864   7.784   5.332 -1.5078  0.9116  1.6001
 6465SOL    HW220095   1.925   7.914   5.283  0.5965 -1.0147 -1.1844
 6466SOL     OW20096   3.049   4.346   0.659 -0.5142  0.2654 -0.3867
 6466SOL    HW120097   3.045   4.442   0.662 -0.7095  0.2261  1.4096
 6466SOL    HW220098   2.959   4.317   0.670 -0.2724 -0.1223  0.7185
 6467SOL     OW20099   2.980   2.057   4.695 -0.1835  0.4278  0.1294
 6467SOL    HW120100   2.945   2.135   4.653  1.8492  0.9940 -0.5844
 6467SOL    HW220101   2.966   1.987   4.632 -0.8186  0.4521  0.2331
 6468SOL     OW20102   2.771   6.852   1.802  0.0916  0.2818 -0.0604
 6468SOL    HW120103   2.732   6.928   1.759  2.0395  0.4184 -1.7295
 6468SOL    HW220104   2.752   6.864   1.895  1.4957  3.5803 -0.0850
 6469SOL     OW20105   1.861   3.191   7.846 -0.6731 -0.2433 -0.7121
 6469SOL    HW120106   1.864   3.245   7.767  2.4538  1.1774  0.2137
 6469SOL    HW220107   1.900   3.108   7.820 -0.5657 -0.1379 -0.8890
 6470SOL     OW20108   7.375   7.976   2.402 -0.1876 -0.1849  0.0324
 6470SOL    HW120109   7.352   7.922   2.327  0.3568 -1.0755  0.4911
 6470SOL    HW220110   7.398   8.061   2.364 -2.2874  0.1714 -0.5939
 6471SOL     OW20111   1.695   7.325   0.495  0.6104 -0.6039  0.4334
 6471SOL    HW120112   1.784   7.356   0.480  0.5804 -0.5938  0.2762
 6471SOL    HW220113   1.691   7.309   0.589  0.5500  0.0923  0.5545
 6472SOL     OW20114   2.106   3.348   2.460 -0.2942 -0.3621  0.1283
 6472SOL    HW120115   2.185   3.297   2.439 -0.3518 -0.1376 -0.6827
 6472SOL    HW220116   2.054   3.289   2.515 -0.1249 -0.9957 -0.3661
 6473SOL     OW20117   2.067   2.267   2.840  0.4187 -0.0031 -0.1639
 6473SOL    HW120118   2.007   2.317   2.895  2.5232  0.7177  1.6458
 6473SOL    HW220119   2.022   2.257   2.756 -1.6954  1.4730  0.7340
 6474SOL     OW20120   1.296   1.424   3.059  0.5401 -0.2572 -0.3776
 6474SOL    HW120121   1.215   1.474   3.048 -0.2512 -0.3897  3.5108
 6474SOL    HW220122   1.284   1.346   3.005 -0.4951  1.1517 -2.3177
 6475SOL     OW20123   5.864   5.465   1.774  0.1590 -0.0063  0.4991
 6475SOL    HW120124   5.826   5.469   1.862 -0.0083 -0.5414  0.4513
 6475SOL    HW220125   5.958   5.469   1.789  0.1333 -0.1439  0.7068
 6476SOL     OW20126   0.062   5.687   7.965  0.2070  0.2324 -0.3160
 6476SOL    HW120127   0.127   5.751   7.939  1.3998 -0.8520 -0.1104
 6476SOL    HW220128   0.081   5.610   7.911 -1.0327 -0.0571 -0.3864
 6477SOL     OW20129   0.273   6.053   4.817 -0.0173  0.6431 -0.2641
 6477SOL    HW120130   0.334   6.020   4.751 -0.4763 -0.1496 -0.3107
 6477SOL    HW220131   0.324   6.059   4.897  0.0726 -0.2055 -0.2557
 6478SOL     OW20132   5.802   4.175   5.141  0.0223 -0.5275 -0.1600
 6478SOL    HW120133   5.845   4.127   5.212 -0.9920 -0.9036  0.2275
 6478SOL    HW220134   5.864   4.244   5.118  0.3982 -0.4056  1.0929
 6479SOL     OW20135   3.389   6.471   5.563 -0.2494  0.0154 -0.2096
 6479SOL    HW120136   3.367   6.565   5.565  1.4380  0.4845 -1.4893
 6479SOL    HW220137   3.308   6.429   5.533 -0.8428  1.1349 -0.2622
 6480SOL     OW20138   3.595   3.913   6.883 -0.4581  0.3221 -0.0077
 6480SOL    HW120139   3.508   3.881   6.904 -0.3618 -0.0474 -0.1589
 6480SOL    HW220140   3.619   3.867   6.802 -0.0666  0.3077  0.1119
 6481SOL     OW20141   4.381   1.889   2.904  0.0346 -0.6291 -0.7745
 6481SOL    HW120142   4.293   1.917   2.880 -0.2568 -0.2449  0.6299
 6481SOL    HW220143   4.427   1.971   2.924  1.0118 -0.7521 -2.3749
 6482SOL     OW20144   4.464   1.496   5.124 -0.1084  0.4556  0.2691
 6482SOL    HW120145   4.399   1.565   5.140  0.1028  0.5060  0.9603
 6482SOL    HW220146   4.413   1.419   5.099 -0.4328  0.4995  0.7870
 6483SOL     OW20147   5.795   5.458   0.688  0.4860 -0.2613  0.1528
 6483SOL    HW120148   5.827   5.368   0.692 -0.8621 -0.7122  1.4522
 6483SOL    HW220149   5.758   5.475   0.774 -1.1872  0.8263 -0.7106
 6484SOL     OW20150   7.417   5.838   6.482  0.4094 -0.5196  0.4418
 6484SOL    HW120151   7.473   5.861   6.556  1.1471 -1.8078  0.3153
 6484SOL    HW220152   7.348   5.784   6.520  0.7955 -1.1933  0.2043
 6485SOL     OW20153   7.746   2.023   0.149  0.3497  0.5197  0.0546
 6485SOL    HW120154   7.803   2.007   0.224  1.4632  0.0061 -0.8665
 6485SOL    HW220155   7.800   2.001   0.073 -0.6193  1.4086 -0.9205
 6486SOL     OW20156   1.745   7.377   5.414 -0.1321 -0.1971  0.4753
 6486SOL    HW120157   1.738   7.299   5.469 -1.4902  1.0899  2.2523
 6486SOL    HW220158   1.654   7.398   5.391 -0.2639  2.7415  2.9730
 6487SOL     OW20159   4.080   2.136   5.303  0.2126 -0.2080  0.0546
 6487SOL    HW120160   3.992   2.172   5.296 -0.3996 -1.7914 -0.9740
 6487SOL    HW220161   4.124   2.192   5.367 -2.2510 -0.7325  2.4064
 6488SOL     OW20162   1.525   2.125   2.188  0.0147 -0.7501  0.2872
 6488SOL    HW120163   1.512   2.219   2.178  0.4858 -0.6144  0.8904
 6488SOL    HW220164   1.499   2.106   2.278 -0.3085 -1.2429  0.0985
 6489SOL     OW20165   0.580   1.354   3.128  0.5670 -0.1604 -0.6784
 6489SOL    HW120166   0.599   1.345   3.221  0.4182  3.4807 -0.1504
 6489SOL    HW220167   0.540   1.271   3.103 -0.3409 -0.8865  2.7427
 6490SOL     OW20168   6.900   5.674   3.187  0.0597 -0.3464  0.4906
 6490SOL    HW120169   6.845   5.741   3.227 -0.4742 -0.4522 -0.0612
 6490SOL    HW220170   6.839   5.616   3.143  0.6457 -0.0641 -0.7377
 6491SOL     OW20171   2.248   2.601   6.608  0.5031  0.3547 -0.1393
 6491SOL    HW120172   2.291   2.642   6.533 -0.8259  0.8472 -0.6630
 6491SOL    HW220173   2.181   2.665   6.635  1.0968  0.2898  1.6117
 6492SOL     OW20174   6.692   6.575   3.112  0.5747 -0.4356 -0.1637
 6492SOL    HW120175   6.616   6.550   3.166  1.7316 -1.2296  1.1901
 6492SOL    HW220176   6.719   6.493   3.071  0.8479 -0.2080 -0.4325
 6493SOL     OW20177   5.725   6.189   1.036  0.0684  0.2155 -0.2329
 6493SOL    HW120178   5.680   6.268   1.008  0.2937  0.4592  0.0835
 6493SOL    HW220179   5.790   6.173   0.967  0.8432  0.9975  0.2815
 6494SOL     OW20180   3.425   6.945   3.694 -0.1397  0.3753  0.3013
 6494SOL    HW120181   3.417   6.868   3.750 -3.9712 -2.8718 -3.9964
 6494SOL    HW220182   3.507   6.930   3.646  0.0638  0.0073  0.7464
 6495SOL     OW20183   1.012   6.790   0.865 -0.0894  0.4910  0.2466
 6495SOL    HW120184   1.003   6.849   0.939  1.6737  2.6027 -1.1074
 6495SOL    HW220185   0.958   6.828   0.796  0.3445  0.0344 -0.3668
 6496SOL     OW20186   3.007   7.586   3.493 -0.5061 -0.5803  0.3226
 6496SOL    HW120187   2.962   7.621   3.416  1.3052 -0.5846 -0.8177
 6496SOL    HW220188   2.955   7.616   3.567 -0.5527  2.2336 -0.7179
 6497SOL     OW20189   6.793   3.722   1.318  0.8671 -0.2763 -0.0918
 6497SOL    HW120190   6.878   3.677   1.316  0.3120 -1.5537  2.0253
 6497SOL    HW220191   6.729   3.652   1.332 -0.6628  0.5848 -2.2639
 6498SOL     OW20192   0.120   5.799   4.014 -0.0388  0.1889 -0.5243
 6498SOL    HW120193   0.161   5.820   3.930  0.9827  1.3651  0.2365
 6498SOL    HW220194   0.193   5.792   4.075 -0.5711 -2.8352 -0.1095
 6499SOL     OW20195   1.702   1.815   5.412 -0.1573 -0.1269 -0.3403
 6499SOL    HW120196   1.703   1.907   5.384  4.6646 -0.2144 -1.2678
 6499SOL    HW220197   1.726   1.818   5.504 -1.3958 -0.4988  0.0212
 6500SOL     OW20198   0.436   7.241   0.355  0.2699  0.2356  1.0906
 6500SOL    HW120199   0.341   7.232   0.353  0.3976 -2.6213  2.6491
 6500SOL    HW220200   0.451   7.335   0.365 -2.4441  0.6263  2.3834
 6501SOL     OW20201   7.656   3.654   5.138 -0.0374  0.4600  0.1528
 6501SOL    HW120202   7.598   3.591   5.095  1.4321 -1.2588  0.5489
 6501SOL    HW220203   7.641   3.736   5.091 -0.5094 -0.6727 -1.7927
 6502SOL     OW20204   5.997   2.576   3.796 -0.0100 -0.1550  0.1422
 6502SOL    HW120205   5.930   2.581   3.864 -0.1091 -0.1722  0.0446
 6502SOL    HW220206   5.952   2.540   3.720 -0.5047  2.1288 -0.7192
 6503SOL     OW20207   3.830   0.863   2.494 -0.5948  0.2992  0.5812
 6503SOL    HW120208   3.791   0.776   2.487 -0.5590  0.1893  1.5893
 6503SOL    HW220209   3.873   0.863   2.579 -1.6078  1.7196  1.1258
 6504SOL     OW20210   3.392   4.121   3.560 -0.5031  0.6212 -0.6600
 6504SOL    HW120211   3.343   4.173   3.496 -1.4192  0.8994  0.2469
 6504SOL    HW220212   3.325   4.083   3.617  0.3181  0.8073  0.4631
 6505SOL     OW20213   6.794   7.742   7.198 -0.0193 -0.3805  0.5685
 6505SOL    HW120214   6.843   7.819   7.169 -0.0140 -0.1372  1.2251
 6505SOL    HW220215   6.812   7.676   7.131 -1.0641  0.5752 -0.7209
 6506SOL     OW20216   0.190   7.306   6.227  0.3632 -0.0488  0.0707
 6506SOL    HW120217   0.239   7.357   6.292  0.2970  0.3785 -0.2072
 6506SOL    HW220218   0.170   7.369   6.157  1.9597 -0.8849 -1.2220
 6507SOL     OW20219   5.174   1.361   6.630 -0.2885  0.4565 -0.0077
 6507SOL    HW120220   5.105   1.295   6.640 -0.1747  0.4164  0.4980
 6507SOL    HW220221   5.224   1.331   6.554 -0.5737  0.2616 -0.1217
 6508SOL     OW20222   3.410   6.470   2.811 -0.1852  0.3624 -0.2907
 6508SOL    HW120223   3.447   6.424   2.886 -2.0017  0.3800  0.6671
 6508SOL    HW220224   3.412   6.406   2.740 -1.5173 -0.8337  0.6934
 6509SOL     OW20225   5.291   2.144   2.333  0.5147 -0.0748  0.0975
 6509SOL    HW120226   5.222   2.194   2.375  1.7845  1.7082  0.1763
 6509SOL    HW220227   5.338   2.102   2.405  0.9483  0.6661  0.2590
 6510SOL     OW20228   3.015   4.916   3.212  0.6569 -0.0272  0.2160
 6510SOL    HW120229   3.000   4.842   3.153 -1.6840 -0.0432  0.7274
 6510SOL    HW220230   3.008   4.993   3.155  0.8295 -0.1195  0.0682
 6511SOL     OW20231   0.087   3.333   1.789 -0.1153  0.3473 -0.4870
 6511SOL    HW120232   0.170   3.321   1.742  1.1987  2.2256  1.1593
 6511SOL    HW220233   0.059   3.421   1.766 -2.2856 -0.6303 -1.8361
 6512SOL     OW20234   5.654   7.082   5.272 -0.0800 -0.1303 -0.0098
 6512SOL    HW120235   5.622   7.153   5.328  0.5741  0.6097 -0.5424
 6512SOL    HW220236   5.626   7.002   5.315  1.8185  0.3469  2.3123
 6513SOL     OW20237   6.510   2.163   7.423 -0.2058 -0.3331  0.2575
 6513SOL    HW120238   6.433   2.214   7.448 -0.8964 -1.4952  0.5673
 6513SOL    HW220239   6.483   2.117   7.343  0.1793 -0.7252  0.3501
 6514SOL     OW20240   5.426   6.513   7.863  0.1108 -0.4510  0.4417
 6514SOL    HW120241   5.341   6.482   7.834 -0.8550  1.7311  0.7611
 6514SOL    HW220242   5.455   6.448   7.927 -1.3629 -1.1554  0.4184
 6515SOL     OW20243   4.169   4.303   0.349 -0.8542  0.5988 -0.1836
 6515SOL    HW120244   4.115   4.332   0.276 -1.9161 -1.2766 -0.1948
 6515SOL    HW220245   4.192   4.213   0.328 -0.5307  0.2720  1.4193
 6516SOL     OW20246   4.593   3.441   2.744 -0.3000 -0.1461 -0.4806
 6516SOL    HW120247   4.674   3.391   2.755 -0.8955 -1.0410 -0.0212
 6516SOL    HW220248   4.523   3.376   2.755 -1.0830  0.5860 -0.9843
 6517SOL     OW20249   6.105   6.252   4.674  0.4264  0.3526 -0.4978
 6517SOL    HW120250   6.058   6.226   4.595 -0.6183  0.7854 -0.0423
 6517SOL    HW220251   6.135   6.341   4.656 -0.1102  0.5784 -0.2796
 6518SOL     OW20252   2.824   5.571   1.971  0.0755 -0.5295 -0.4457
 6518SOL    HW120253   2.747   5.570   2.027  0.0383  0.7967 -0.4315
 6518SOL    HW220254   2.890   5.620   2.020  1.5042 -2.9412  0.2085
 6519SOL     OW20255   6.990   6.692   0.351 -0.1436 -0.0203 -0.4690
 6519SOL    HW120256   7.067   6.695   0.407 -0.1442  1.3186 -0.5070
 6519SOL    HW220257   6.976   6.783   0.323 -0.7401 -0.4851 -1.8194
 6520SOL     OW20258   3.960   4.010   5.643  0.1270  0.3106 -0.1866
 6520SOL    HW120259   3.952   4.014   5.739  0.0137 -0.4021 -0.1670
 6520SOL    HW220260   4.044   4.053   5.625  1.1964 -1.4537  0.4161
 6521SOL     OW20261   3.647   1.079   7.770  0.1122 -0.3221 -0.3573
 6521SOL    HW120262   3.680   1.044   7.687 -0.3074 -1.5420 -0.0265
 6521SOL    HW220263   3.627   1.001   7.822  1.2341  0.4251  1.2475
 6522SOL     OW20264   4.892   5.120   7.341 -0.0169  0.2578  0.1137
 6522SOL    HW120265   4.829   5.055   7.310 -0.3449 -0.0223  1.3140
 6522SOL    HW220266   4.854   5.204   7.314 -0.2122  0.0155 -0.3702
 6523SOL     OW20267   6.381   3.267   0.723  0.0690 -0.6118 -0.0780
 6523SOL    HW120268   6.376   3.262   0.819  1.7010  0.5849  0.1120
 6523SOL    HW220269   6.471   3.292   0.705 -0.7031  1.1856 -1.8350
 6524SOL     OW20270   4.041   1.793   7.451  0.1844  0.8265  0.2479
 6524SOL    HW120271   4.024   1.701   7.431 -0.6090  1.0833 -0.3090
 6524SOL    HW220272   4.132   1.807   7.427  0.4291  0.0833  0.7253
 6525SOL     OW20273   7.479   0.720   2.112  0.3972 -0.0374 -0.2633
 6525SOL    HW120274   7.574   0.720   2.121  0.7539  3.3523 -2.4096
 6525SOL    HW220275   7.447   0.761   2.192  0.9094  0.3496 -0.2513
 6526SOL     OW20276   3.708   5.456   3.248  0.1686 -0.5522  0.4186
 6526SOL    HW120277   3.615   5.471   3.231  0.4286  1.3769  0.4179
 6526SOL    HW220278   3.751   5.476   3.165  0.7968  1.5711  1.1857
 6527SOL     OW20279   2.326   7.564   4.835 -0.4139  0.3807  0.1781
 6527SOL    HW120280   2.367   7.592   4.754  0.8304 -0.1080  0.6102
 6527SOL    HW220281   2.290   7.477   4.815  0.1391  0.1404  0.2312
 6528SOL     OW20282   2.720   0.759   0.611  0.5873  0.3198  0.0522
 6528SOL    HW120283   2.806   0.724   0.634  2.3688  4.4055  0.5345
 6528SOL    HW220284   2.735   0.810   0.532 -2.2243 -1.3243 -1.7339
 6529SOL     OW20285   3.635   6.964   1.694 -0.7348 -0.1281  0.2812
 6529SOL    HW120286   3.593   7.019   1.628 -2.3413 -0.1829  1.1782
 6529SOL    HW220287   3.562   6.916   1.734  0.5589 -2.5679 -0.1442
 6530SOL     OW20288   0.004   6.601   0.972  0.4073  0.1219  0.3729
 6530SOL    HW120289  -0.018   6.686   1.009 -0.1706 -0.6721  1.9276
 6530SOL    HW220290   0.057   6.558   1.038  0.3995 -0.8709 -0.2415
 6531SOL     OW20291   4.389   5.819   1.179 -0.5731 -0.0614 -0.0557
 6531SOL    HW120292   4.447   5.768   1.123 -0.7484  0.7405 -0.9937
 6531SOL    HW220293   4.314   5.761   1.194 -0.4738 -0.3252 -0.5473
 6532SOL     OW20294   3.523   2.573   6.880 -0.0699  0.4575 -0.3505
 6532SOL    HW120295   3.562   2.493   6.915 -0.8571 -0.5743 -1.7424
 6532SOL    HW220296   3.430   2.565   6.898 -0.2593  0.6845 -1.1886
 6533SOL     OW20297   7.925   0.433   0.857  0.4059 -0.2611 -1.0435
 6533SOL    HW120298   7.910   0.348   0.898 -0.3784  0.6623  0.6788
 6533SOL    HW220299   7.931   0.413   0.763 -0.0854 -2.1649 -0.7235
 6534SOL     OW20300   2.288   0.481   6.336 -0.6146  0.1650  0.6544
 6534SOL    HW120301   2.315   0.440   6.253 -1.7177  0.3988  0.1659
 6534SOL    HW220302   2.310   0.416   6.403  2.9102  1.0689  0.5506
 6535SOL     OW20303   7.018   4.481   3.758  0.2634 -0.2027  0.0934
 6535SOL    HW120304   6.961   4.441   3.692 -1.4109  1.1218  0.6625
 6535SOL    HW220305   6.959   4.505   3.829  1.7414  0.1742  1.2450
 6536SOL     OW20306   5.846   1.127   2.563  0.9351  0.0770  0.0552
 6536SOL    HW120307   5.896   1.132   2.645  0.3699 -0.2833  0.4254
 6536SOL    HW220308   5.911   1.145   2.495  1.4556  0.1720  0.5676
 6537SOL     OW20309   4.381   3.046   3.587 -0.1782  0.1409  0.8322
 6537SOL    HW120310   4.458   3.102   3.584 -1.2589  1.6202 -0.6650
 6537SOL    HW220311   4.377   3.015   3.678  2.0862  0.0875  0.9606
 6538SOL     OW20312   4.551   3.148   2.622  0.1457 -0.7254  0.1079
 6538SOL    HW120313   4.500   3.071   2.600 -0.3900 -0.1024 -0.9046
 6538SOL    HW220314   4.519   3.173   2.709  1.0825 -2.2312  0.9241
 6539SOL     OW20315   3.007   2.246   1.260  0.2948 -0.1326 -0.1480
 6539SOL    HW120316   3.050   2.300   1.326  0.3009 -0.0938 -0.1835
 6539SOL    HW220317   3.024   2.156   1.288 -1.3126 -0.1351  0.9594
 6540SOL     OW20318   5.543   3.373   7.571  0.1415 -0.1059  0.2733
 6540SOL    HW120319   5.449   3.353   7.571 -0.0335  0.6618  0.2333
 6540SOL    HW220320   5.572   3.356   7.660 -0.5869  1.9969  0.9864
 6541SOL     OW20321   4.128   3.598   3.363  0.5647  0.0735  0.1726
 6541SOL    HW120322   4.184   3.668   3.398  0.4175  0.1847  0.1833
 6541SOL    HW220323   4.119   3.620   3.270 -0.4722  0.7293  0.4222
 6542SOL     OW20324   3.315   3.514   3.160 -0.1673  0.5547 -0.3131
 6542SOL    HW120325   3.305   3.457   3.236 -0.3879 -0.3123 -0.9704
 6542SOL    HW220326   3.266   3.593   3.183 -0.9044 -0.0140  0.1329
 6543SOL     OW20327   6.259   7.778   6.361  0.1528  0.0290  0.2395
 6543SOL    HW120328   6.240   7.694   6.402 -0.8371 -0.4560 -1.1311
 6543SOL    HW220329   6.266   7.758   6.268 -1.3528  1.6362 -0.2704
 6544SOL     OW20330   2.077   3.134   1.295 -0.0702  0.4599  0.2793
 6544SOL    HW120331   2.051   3.226   1.300  0.5938  0.7502 -1.2506
 6544SOL    HW220332   2.173   3.137   1.287 -0.0757 -0.3457 -0.1527
 6545SOL     OW20333   2.879   1.224   6.787 -0.1136 -0.1303 -0.7014
 6545SOL    HW120334   2.875   1.287   6.860 -1.7177 -1.1212  0.1276
 6545SOL    HW220335   2.898   1.278   6.711  0.5674  1.0849  0.2831
 6546SOL     OW20336   3.946   2.082   2.324  0.8801 -0.0063  0.3127
 6546SOL    HW120337   3.856   2.089   2.356  0.9783  3.1581  0.3004
 6546SOL    HW220338   3.938   2.088   2.229  1.0098 -2.5277  0.0832
 6547SOL     OW20339   4.849   7.602   0.634  0.0669  0.4229 -0.3988
 6547SOL    HW120340   4.838   7.532   0.569  1.1776  0.2431 -0.4227
 6547SOL    HW220341   4.818   7.564   0.716  0.8991 -0.2007 -0.3620
 6548SOL     OW20342   4.211   4.043   2.591 -0.7993 -0.0339 -0.3162
 6548SOL    HW120343   4.159   4.091   2.655 -1.2440  0.6503 -1.1703
 6548SOL    HW220344   4.302   4.057   2.619 -0.9720  0.4858 -0.0033
 6549SOL     OW20345   5.633   3.390   3.976  0.0910  0.4289 -0.0971
 6549SOL    HW120346   5.638   3.484   3.963  0.5673  0.2985 -0.8925
 6549SOL    HW220347   5.689   3.352   3.908  4.3617 -0.2429  3.3228
 6550SOL     OW20348   5.705   4.363   4.178 -0.3032 -0.1407 -0.1632
 6550SOL    HW120349   5.653   4.354   4.098  0.6863 -1.2336 -0.7295
 6550SOL    HW220350   5.776   4.300   4.166  0.4194  0.4002  1.1478
 6551SOL     OW20351   1.091   3.071   2.483  0.3139 -0.2103  0.3109
 6551SOL    HW120352   1.072   3.161   2.510 -0.4345  0.1509 -1.3015
 6551SOL    HW220353   1.007   3.025   2.489  1.1842 -1.6793  3.9397
 6552SOL     OW20354   1.813   2.221   3.796  0.1691  0.2827  0.1561
 6552SOL    HW120355   1.842   2.169   3.871 -1.2759 -0.0551  0.5127
 6552SOL    HW220356   1.881   2.287   3.785  1.1090 -0.5319  0.8657
 6553SOL     OW20357   5.128   6.038   3.971 -0.2252  0.0104 -0.2135
 6553SOL    HW120358   5.037   6.020   3.995  0.0102 -2.3703 -0.8170
 6553SOL    HW220359   5.161   6.092   4.043 -2.1597  1.1985 -0.1301
 6554SOL     OW20360   4.006   7.632   4.299 -0.1437 -0.1282 -0.3229
 6554SOL    HW120361   4.017   7.594   4.212 -0.7367  0.1910 -0.5436
 6554SOL    HW220362   3.949   7.570   4.346 -0.8436  0.3056 -0.5772
 6555SOL     OW20363   1.356   1.334   6.355  0.5112 -0.4389  0.5291
 6555SOL    HW120364   1.377   1.241   6.353 -2.0959 -1.1690  1.9665
 6555SOL    HW220365   1.267   1.339   6.319  0.7266  1.5595  0.1510
 6556SOL     OW20366   3.444   6.798   6.536 -0.4699  0.1625 -0.3400
 6556SOL    HW120367   3.438   6.730   6.468  0.6410  0.0016 -0.2896
 6556SOL    HW220368   3.525   6.778   6.583 -1.0097  0.5266  0.7753
 6557SOL     OW20369   4.568   7.066   0.537 -0.5223 -0.1770 -0.3203
 6557SOL    HW120370   4.598   7.155   0.517  0.3630 -0.3632  0.1898
 6557SOL    HW220371   4.472   7.075   0.541 -0.4395  0.7807 -0.1258
 6558SOL     OW20372   7.715   3.815   0.347  0.2756 -0.1943  0.0612
 6558SOL    HW120373   7.636   3.762   0.338  1.6219 -2.0142 -1.7051
 6558SOL    HW220374   7.750   3.822   0.259  0.3023  3.6002  0.1854
 6559SOL     OW20375   0.763   2.533   2.902 -0.0105  0.6488 -0.2290
 6559SOL    HW120376   0.669   2.514   2.895  0.3319 -0.7375 -1.6133
 6559SOL    HW220377   0.800   2.456   2.944  0.9230 -0.3392 -2.6702
 6560SOL     OW20378   0.823   5.121   6.851  0.1046 -0.6493 -0.1354
 6560SOL    HW120379   0.761   5.075   6.793  0.7998  0.5349 -1.8882
 6560SOL    HW220380   0.898   5.140   6.795  1.7795 -1.4021  1.7674
 6561SOL     OW20381   1.391   3.652   1.981  0.1613 -0.1028  0.6560
 6561SOL    HW120382   1.314   3.705   1.959  1.0417  0.6168 -0.8324
 6561SOL    HW220383   1.376   3.624   2.071 -1.5487  0.5279  0.6008
 6562SOL     OW20384   7.025   4.573   1.962 -0.2913  0.4971  0.4402
 6562SOL    HW120385   7.079   4.501   1.994  1.0489  1.9675  1.6669
 6562SOL    HW220386   6.950   4.576   2.022 -1.6346 -1.2913 -1.0263
 6563SOL     OW20387   3.561   5.583   5.193  0.1112  0.0524 -0.2926
 6563SOL    HW120388   3.483   5.638   5.193  0.7274  1.0152 -2.0781
 6563SOL    HW220389   3.571   5.555   5.284 -2.7907 -0.8572 -0.1460
 6564SOL     OW20390   2.268   7.816   6.276 -0.2153  0.2306  0.1983
 6564SOL    HW120391   2.271   7.868   6.356 -2.7292  2.3071 -0.9219
 6564SOL    HW220392   2.190   7.760   6.287 -1.1514  1.2129 -1.0938
 6565SOL     OW20393   7.748   1.182   0.269  0.1707  0.1938  0.4760
 6565SOL    HW120394   7.677   1.125   0.297  1.6889 -1.0278  2.0835
 6565SOL    HW220395   7.774   1.229   0.349  0.2050  1.7726 -0.4133
 6566SOL     OW20396   6.036   7.362   6.581  0.6587 -0.1765 -0.4547
 6566SOL    HW120397   6.089   7.295   6.626 -1.4408 -1.9276 -0.4458
 6566SOL    HW220398   6.023   7.327   6.493  0.6944  0.9278 -0.9080
 6567SOL     OW20399   2.241   0.173   5.378  0.4215  0.9171  0.1663
 6567SOL    HW120400   2.186   0.210   5.309  0.6343  1.2635  0.1820
 6567SOL    HW220401   2.232   0.233   5.451  0.3677  0.6650  0.3671
 6568SOL     OW20402   6.831   4.359   0.434 -0.1519 -0.1164 -0.5172
 6568SOL    HW120403   6.789   4.366   0.520 -0.2472 -1.4456 -0.4409
 6568SOL    HW220404   6.915   4.316   0.451 -1.1222 -2.4925 -1.3185
 6569SOL     OW20405   7.403   3.632   7.591  0.2704 -0.0124 -0.6237
 6569SOL    HW120406   7.346   3.707   7.609  1.7025  0.9476  0.0802
 6569SOL    HW220407   7.456   3.660   7.516 -0.3864 -1.0296 -1.4939
 6570SOL     OW20408   6.556   6.145   3.632  0.0367 -0.4466  0.6889
 6570SOL    HW120409   6.647   6.125   3.610  0.4471  0.8389  1.1318
 6570SOL    HW220410   6.514   6.163   3.548  1.4615  3.9160  0.6458
 6571SOL     OW20411   5.870   6.091   1.272  0.2292  0.2184 -0.1230
 6571SOL    HW120412   5.839   6.014   1.224 -1.6758  0.5304  0.5184
 6571SOL    HW220413   5.865   6.163   1.209  1.3855 -0.0378 -0.5305
 6572SOL     OW20414   0.273   4.019   0.029 -0.1262  0.0792  0.3296
 6572SOL    HW120415   0.234   4.006  -0.057  1.2423  1.3124 -0.5237
 6572SOL    HW220416   0.240   3.947   0.082 -1.9120 -0.0565 -0.8970
 6573SOL     OW20417   4.667   5.749   7.031 -0.0166  0.1573 -0.4119
 6573SOL    HW120418   4.607   5.710   6.966  0.4317 -0.3234 -0.5482
 6573SOL    HW220419   4.632   5.720   7.115 -1.2739  1.7272 -0.3465
 6574SOL     OW20420   6.084   6.797   5.423 -0.2182 -0.2151 -0.4818
 6574SOL    HW120421   6.085   6.775   5.330 -0.8518 -0.6614 -0.3892
 6574SOL    HW220422   5.999   6.839   5.437 -0.6939 -1.3325  0.1497
 6575SOL     OW20423   6.376   2.620   6.888  0.0930 -0.5047  0.5181
 6575SOL    HW120424   6.289   2.659   6.885  1.2316  2.1941 -0.3698
 6575SOL    HW220425   6.361   2.529   6.916 -2.9917 -0.2474  0.0056
 6576SOL     OW20426   7.735   2.551   7.831  0.0629  0.2506  0.1221
 6576SOL    HW120427   7.643   2.544   7.855 -0.2304 -0.7097 -1.1546
 6576SOL    HW220428   7.735   2.548   7.735  1.5732 -2.5726  0.0888
 6577SOL     OW20429   0.759   6.549   7.537 -0.1650 -0.0868 -0.1851
 6577SOL    HW120430   0.847   6.566   7.571 -0.8167 -0.5280  1.8387
 6577SOL    HW220431   0.771   6.479   7.473  1.2058  1.2681 -1.4735
 6578SOL     OW20432   3.408   5.814   7.631 -0.3644  0.3055  0.3020
 6578SOL    HW120433   3.472   5.754   7.593 -0.7115 -0.7719  1.3523
 6578SOL    HW220434   3.355   5.843   7.557  0.6358  0.3593 -0.4115
 6579SOL     OW20435   2.945   1.201   7.380 -0.1450  0.2067 -0.5473
 6579SOL    HW120436   2.996   1.125   7.352  0.5788  0.4062  0.1970
 6579SOL    HW220437   2.903   1.172   7.462 -1.4632 -0.0501 -1.2888
 6580SOL     OW20438   5.051   0.854   6.083  0.2671 -0.0157 -0.4526
 6580SOL    HW120439   4.959   0.865   6.056  0.3517  1.3680 -0.2409
 6580SOL    HW220440   5.101   0.892   6.011  0.7242 -1.3076 -0.8456
 6581SOL     OW20441   3.740   2.696   5.056  0.3438  0.2069  0.5488
 6581SOL    HW120442   3.674   2.658   4.998  0.5963  1.4519 -0.6053
 6581SOL    HW220443   3.691   2.725   5.133 -0.0492 -1.1337  0.8416
 6582SOL     OW20444   5.217   2.813   1.963 -0.0202 -0.0917  0.0523
 6582SOL    HW120445   5.214   2.719   1.946  0.2299 -1.0473  4.2623
 6582SOL    HW220446   5.146   2.829   2.025 -0.3759  2.6875 -0.8993
 6583SOL     OW20447   4.919   6.055   1.935  0.2890  0.4113  0.0864
 6583SOL    HW120448   4.920   6.119   2.005  1.5400  1.5534 -0.9177
 6583SOL    HW220449   4.974   6.093   1.866  0.5231 -1.4254 -0.8221
 6584SOL     OW20450   3.496   1.740   6.132 -0.2865 -0.4488  0.4150
 6584SOL    HW120451   3.570   1.736   6.192  0.2040 -0.6456 -0.1962
 6584SOL    HW220452   3.527   1.697   6.052 -1.0294 -0.4586  0.1253
 6585SOL     OW20453   0.402   6.578   4.018 -0.4606 -0.1119 -0.3003
 6585SOL    HW120454   0.387   6.625   4.099  0.3682 -1.5000  0.7070
 6585SOL    HW220455   0.318   6.582   3.972 -2.0055 -2.0168  2.1101
 6586SOL     OW20456   5.812   7.825   4.465  0.9211 -0.2177  0.2569
 6586SOL    HW120457   5.798   7.899   4.523  0.4324 -1.5064  1.8794
 6586SOL    HW220458   5.757   7.842   4.389  0.3779  0.7927  0.8636
 6587SOL     OW20459   6.016   5.793   1.089  0.2671 -0.0824  0.2328
 6587SOL    HW120460   5.962   5.790   1.168 -0.0887 -0.7117 -0.0224
 6587SOL    HW220461   5.953   5.799   1.017  0.5213 -0.9596 -0.0773
 6588SOL     OW20462   0.832   3.165   2.809 -0.0646  0.0005  0.4307
 6588SOL    HW120463   0.845   3.189   2.900 -0.4365  2.0459 -0.0092
 6588SOL    HW220464   0.741   3.188   2.791  0.2766  0.5453 -0.6993
 6589SOL     OW20465   0.109   5.204   7.417 -0.5132 -0.4258 -0.1399
 6589SOL    HW120466   0.119   5.219   7.511 -0.4741 -0.0730 -0.1973
 6589SOL    HW220467   0.053   5.127   7.410 -1.1899  0.0246  0.1691
 6590SOL     OW20468   7.484   2.865   7.770 -0.1357  0.2581  0.2157
 6590SOL    HW120469   7.572   2.861   7.733 -0.2476  1.3790 -0.2038
 6590SOL    HW220470   7.498   2.854   7.864  0.3970 -0.1037  0.1012
 6591SOL     OW20471   4.352   0.511   5.076  0.1594 -0.3345 -0.0386
 6591SOL    HW120472   4.392   0.499   4.990  0.7482  1.3306 -0.0336
 6591SOL    HW220473   4.409   0.462   5.136  0.6107 -0.2649 -0.4052
 6592SOL     OW20474   2.483   5.051   5.747  0.1055 -0.0267  0.0503
 6592SOL    HW120475   2.518   5.113   5.683 -0.0463 -0.2534 -0.2545
 6592SOL    HW220476   2.483   4.967   5.702  0.8888 -0.3780  0.6604
 6593SOL     OW20477   7.552   7.637   2.103 -0.0774 -0.7713 -0.4975
 6593SOL    HW120478   7.540   7.732   2.102 -2.0543 -0.9634  0.0999
 6593SOL    HW220479   7.617   7.620   2.035  0.2533  0.9963 -0.6728
 6594SOL     OW20480   0.329   5.604   5.990 -0.4757  0.6836 -1.1364
 6594SOL    HW120481   0.389   5.544   6.034 -0.8415  0.7840 -0.4792
 6594SOL    HW220482   0.349   5.595   5.897 -1.1749 -1.1658 -1.1368
 6595SOL     OW20483   3.530   7.590   7.766  0.0184  0.4777 -0.2990
 6595SOL    HW120484   3.486   7.537   7.833  1.6734 -1.9947 -0.9960
 6595SOL    HW220485   3.597   7.638   7.813  1.9992 -2.1860 -0.1789
 6596SOL     OW20486   5.919   7.796   5.854 -0.5174  0.1703  0.5995
 6596SOL    HW120487   5.887   7.886   5.848  1.6837  0.9396 -0.8443
 6596SOL    HW220488   5.977   7.797   5.930  2.4390  1.1096 -1.4722
 6597SOL     OW20489   6.432   0.107   2.270 -0.6249  0.1314  0.1708
 6597SOL    HW120490   6.386   0.051   2.332  1.3344 -0.4825  1.1482
 6597SOL    HW220491   6.488   0.162   2.324  0.0789  0.5855 -0.9819
 6598SOL     OW20492   1.876   3.485   7.116  0.4643 -0.5081 -0.0499
 6598SOL    HW120493   1.813   3.474   7.187  0.0658  0.4430 -0.2326
 6598SOL    HW220494   1.952   3.526   7.157 -0.1683  1.0156 -0.3283
 6599SOL     OW20495   4.057   7.910   1.977  0.1857 -0.3163  0.2272
 6599SOL    HW120496   4.041   7.830   2.027 -1.5664  0.4953  1.0799
 6599SOL    HW220497   4.151   7.926   1.986  0.0888 -0.6710  2.6055
 6600SOL     OW20498   7.069   6.691   4.773 -0.0207  0.4839  0.1383
 6600SOL    HW120499   6.978   6.679   4.744 -0.5284 -0.1655  1.8457
 6600SOL    HW220500   7.061   6.710   4.867  1.5927  1.0220  0.1917
 6601SOL     OW20501   6.302   6.005   4.981 -0.1301 -0.1496 -0.2339
 6601SOL    HW120502   6.381   6.053   4.955  0.3684 -0.9736 -0.2890
 6601SOL    HW220503   6.298   5.931   4.921  0.5713 -1.6230  1.4443
 6602SOL     OW20504   0.646   4.888   5.202  0.2146 -0.1312  0.0465
 6602SOL    HW120505   0.628   4.872   5.109  0.5151  0.7906 -0.1801
 6602SOL    HW220506   0.574   4.944   5.231  1.2319  1.3637 -0.1934
 6603SOL     OW20507   1.161   0.335   2.943 -0.2427  0.3333 -0.0210
 6603SOL    HW120508   1.247   0.308   2.975 -0.5536 -0.0885  0.4837
 6603SOL    HW220509   1.164   0.319   2.849  0.3861  0.7571 -0.0813
 6604SOL     OW20510   5.557   7.222   6.519  0.0819 -0.1791  0.0916
 6604SOL    HW120511   5.608   7.172   6.583  0.1712 -1.3621 -0.8659
 6604SOL    HW220512   5.503   7.156   6.475 -1.2174  0.8482  0.0926
 6605SOL     OW20513   5.510   0.969   6.978 -0.0243 -0.0455  0.2627
 6605SOL    HW120514   5.541   1.059   6.991 -2.0170  0.5395  1.4214
 6605SOL    HW220515   5.561   0.917   7.041 -2.3949  1.1693  3.4222
 6606SOL     OW20516   0.703   7.800   3.881  0.3612  0.7815 -0.0218
 6606SOL    HW120517   0.762   7.775   3.810  0.3806  0.4653  0.1034
 6606SOL    HW220518   0.631   7.736   3.875  0.0232  1.1670 -0.1822
 6607SOL     OW20519   4.243   7.768   1.629 -0.1586 -0.1823 -0.8743
 6607SOL    HW120520   4.324   7.812   1.603  0.9531 -0.4627  1.7864
 6607SOL    HW220521   4.271   7.680   1.655 -1.4245 -0.5104 -0.5539
 6608SOL     OW20522   6.850   2.359   7.752 -0.8548  0.4127 -0.7950
 6608SOL    HW120523   6.845   2.421   7.825 -1.7624 -0.2927 -0.2370
 6608SOL    HW220524   6.896   2.283   7.788 -0.7870  0.2921 -1.1328
 6609SOL     OW20525   7.242   2.592   3.928  0.4786  0.6229  0.3886
 6609SOL    HW120526   7.335   2.571   3.938  0.0803 -1.5746 -0.1640
 6609SOL    HW220527   7.205   2.518   3.880 -0.5903  3.6812 -4.2240
 6610SOL     OW20528   6.796   1.878   4.276 -0.2973  0.5144  0.3933
 6610SOL    HW120529   6.815   1.899   4.367  0.1240 -0.0501  0.4340
 6610SOL    HW220530   6.719   1.932   4.255 -0.1766  0.9137  0.9689
 6611SOL     OW20531   6.294   6.387   0.603  0.4195  0.0470  0.4293
 6611SOL    HW120532   6.294   6.344   0.518  2.3698 -0.8833  0.8361
 6611SOL    HW220533   6.202   6.395   0.626 -0.1535  0.2094 -1.6862
 6612SOL     OW20534   3.953   6.617   5.569 -0.0072  0.1588 -0.2341
 6612SOL    HW120535   3.905   6.620   5.486  0.0976  2.2333 -0.2560
 6612SOL    HW220536   3.907   6.678   5.626  0.4911 -0.5284  0.9429
 6613SOL     OW20537   7.963   0.013   0.124  0.0539 -0.3679  0.2048
 6613SOL    HW120538   8.032  -0.041   0.162 -0.0108 -0.6498 -0.0793
 6613SOL    HW220539   7.947   0.081   0.190  0.7881 -0.1408  0.1566
 6614SOL     OW20540   5.429   6.242   4.395  0.0838  0.6570 -0.2841
 6614SOL    HW120541   5.379   6.251   4.476  0.6545 -0.5960  0.2335
 6614SOL    HW220542   5.476   6.160   4.405  0.9208  0.9632 -1.4886
 6615SOL     OW20543   4.123   0.036   4.831 -0.4103  0.1225  0.3954
 6615SOL    HW120544   4.063   0.026   4.758  2.4277 -1.0450 -2.0285
 6615SOL    HW220545   4.121  -0.049   4.875 -1.6160  0.6001  1.3008
 6616SOL     OW20546   1.026   4.263   2.314  0.2099 -0.0646 -0.0075
 6616SOL    HW120547   1.108   4.228   2.278  0.7251  0.8262  0.2724
 6616SOL    HW220548   1.050   4.348   2.350 -1.0547  0.6467 -0.7846
 6617SOL     OW20549   4.365   4.192   5.885  0.4852 -0.3611 -0.3657
 6617SOL    HW120550   4.415   4.114   5.907  1.0105  0.4000  1.3009
 6617SOL    HW220551   4.285   4.184   5.938 -0.0298 -0.3583 -1.1287
 6618SOL     OW20552   4.108   7.043   1.712  0.6677 -1.2328 -0.0109
 6618SOL    HW120553   4.041   7.014   1.774  0.2099 -1.4716 -0.6135
 6618SOL    HW220554   4.126   6.967   1.658  0.8829 -0.9500 -0.3411
 6619SOL     OW20555   6.825   4.295   2.689  0.2348 -0.0263  0.0509
 6619SOL    HW120556   6.918   4.290   2.711  0.0676  0.1815  0.8279
 6619SOL    HW220557   6.796   4.204   2.686 -0.1414 -0.0363  2.5212
 6620SOL     OW20558   6.235   5.829   4.804 -0.0028  0.3134  1.2115
 6620SOL    HW120559   6.254   5.740   4.833 -0.5829  0.1895  1.2123
 6620SOL    HW220560   6.158   5.821   4.748  2.0897  0.2824 -1.8822
 6621SOL     OW20561   6.292   0.701   7.622 -0.3574 -0.1357  0.3589
 6621SOL    HW120562   6.357   0.760   7.660  0.4514  0.7292 -2.1403
 6621SOL    HW220563   6.208   0.744   7.639  0.2220  1.9370 -1.5199
 6622SOL     OW20564   3.904   7.336   3.116 -0.1169  0.0001  0.4414
 6622SOL    HW120565   3.899   7.429   3.135 -1.2005 -0.0393  0.4331
 6622SOL    HW220566   3.864   7.294   3.192  0.0866 -0.4363  0.3112
 6623SOL     OW20567   4.940   1.828   3.428 -0.5898 -0.0702  0.1204
 6623SOL    HW120568   4.950   1.835   3.333 -1.1398 -0.1828  0.0499
 6623SOL    HW220569   4.853   1.788   3.440 -0.8063  0.5585  0.6839
 6624SOL     OW20570   4.542   6.064   5.924  0.0441 -0.4486  0.3631
 6624SOL    HW120571   4.536   5.995   5.990  2.1600 -0.0674  1.0405
 6624SOL    HW220572   4.513   6.023   5.843 -2.2217 -1.0571  1.4157
 6625SOL     OW20573   4.857   2.822   2.371  0.5862  0.0588  0.2482
 6625SOL    HW120574   4.814   2.875   2.304  0.6213 -0.1984  0.0224
 6625SOL    HW220575   4.885   2.885   2.438  2.0394  0.5378 -0.7582
 6626SOL     OW20576   0.617   7.910   6.548 -0.5375  0.3016  0.1307
 6626SOL    HW120577   0.641   7.853   6.474  1.7198  0.7257  0.4597
 6626SOL    HW220578   0.540   7.958   6.517 -1.3527 -1.5185 -0.8649
 6627SOL     OW20579   6.657   1.654   3.440  0.1935 -0.1306  0.4437
 6627SOL    HW120580   6.697   1.567   3.448 -0.5030 -0.5799 -0.6914
 6627SOL    HW220581   6.656   1.688   3.530 -0.5063 -1.7584  1.0991
 6628SOL     OW20582   5.637   7.877   4.247  0.1297  0.0896  0.8594
 6628SOL    HW120583   5.595   7.808   4.299 -1.4875 -0.6753 -1.3114
 6628SOL    HW220584   5.572   7.948   4.245  0.2326  0.1697  0.0418
 6629SOL     OW20585   5.973   5.520   6.717  0.2727  0.0709 -0.2137
 6629SOL    HW120586   6.038   5.532   6.648  0.2092 -1.0193 -0.4826
 6629SOL    HW220587   6.022   5.528   6.798  0.7824 -0.8942 -0.4165
 6630SOL     OW20588   4.390   3.736   1.904 -0.0775 -0.2233  0.0921
 6630SOL    HW120589   4.456   3.671   1.880 -0.2086 -1.6172  3.0429
 6630SOL    HW220590   4.349   3.699   1.982 -0.9210  2.9622  1.2666
 6631SOL     OW20591   0.003   3.781   6.567  0.0362  0.6008  0.1594
 6631SOL    HW120592   0.087   3.821   6.586  0.2693  0.0333  0.3401
 6631SOL    HW220593  -0.021   3.815   6.481  0.3133  0.9763  0.2279
 6632SOL     OW20594   0.364   1.254   3.767 -0.2906  0.1225 -0.4395
 6632SOL    HW120595   0.443   1.238   3.716 -1.3312 -1.8389 -1.5400
 6632SOL    HW220596   0.301   1.290   3.704 -1.0451 -0.6898 -0.1720
 6633SOL     OW20597   5.793   5.746   3.662  0.5028 -0.0005 -0.0385
 6633SOL    HW120598   5.853   5.672   3.651 -0.4837 -0.7404 -0.6162
 6633SOL    HW220599   5.813   5.780   3.749  0.7592 -1.1564  0.3731
 6634SOL     OW20600   4.471   3.459   1.771  0.6229  0.5252  0.3070
 6634SOL    HW120601   4.545   3.458   1.831  1.3416 -1.9139 -0.4756
 6634SOL    HW220602   4.395   3.436   1.825  0.6088  1.8442  0.8845
 6635SOL     OW20603   6.771   0.346   4.721 -0.1546  0.3050 -0.4475
 6635SOL    HW120604   6.861   0.342   4.754 -0.0690  0.2874 -0.6798
 6635SOL    HW220605   6.781   0.366   4.628 -0.4513  2.6485 -0.0351
 6636SOL     OW20606   2.781   5.152   5.763 -0.0249  0.6276  0.4290
 6636SOL    HW120607   2.821   5.117   5.842  1.5614 -0.1506 -0.6627
 6636SOL    HW220608   2.821   5.101   5.691 -1.1808  1.5002 -0.8866
 6637SOL     OW20609   5.322   4.380   2.209 -0.0584 -0.0661 -0.2207
 6637SOL    HW120610   5.356   4.332   2.285 -0.2908 -0.9936 -0.6936
 6637SOL    HW220611   5.399   4.415   2.166  0.0695  0.5787  0.5060
 6638SOL     OW20612   4.224   5.234   3.512  0.0798  0.2504 -0.2580
 6638SOL    HW120613   4.287   5.303   3.493 -0.6420  0.5638 -1.6539
 6638SOL    HW220614   4.242   5.209   3.603  2.2675  0.2263 -0.6559
 6639SOL     OW20615   0.533   4.812   2.718  0.1545  0.8800  0.1234
 6639SOL    HW120616   0.597   4.789   2.651  0.3961  0.6620  0.4266
 6639SOL    HW220617   0.529   4.908   2.715 -2.0309  0.8366 -2.2361
 6640SOL     OW20618   4.535   7.714   5.671  0.7797 -0.3065 -0.9013
 6640SOL    HW120619   4.550   7.627   5.710 -2.0003 -0.8199 -0.7670
 6640SOL    HW220620   4.443   7.713   5.646  0.7832  2.4966 -1.2945
 6641SOL     OW20621   0.664   4.012   2.230 -0.5987 -0.0598 -0.0607
 6641SOL    HW120622   0.574   4.022   2.198  0.1610  0.4822 -2.1647
 6641SOL    HW220623   0.706   3.953   2.168  0.8667  0.7475  0.1140
 6642SOL     OW20624   5.598   5.392   7.002  0.2074 -0.3912 -0.0692
 6642SOL    HW120625   5.542   5.428   7.070  0.2768 -1.1942  0.4270
 6642SOL    HW220626   5.678   5.445   7.005  0.6210 -1.0298  1.1652
 6643SOL     OW20627   5.048   4.916   2.657  0.3711  0.1612 -0.4331
 6643SOL    HW120628   4.962   4.886   2.686 -0.3125 -0.3159 -2.7235
 6643SOL    HW220629   5.048   5.010   2.675  0.0382 -0.1152  1.1000
 6644SOL     OW20630   4.157   6.966   1.418  0.0794  0.5567  0.0602
 6644SOL    HW120631   4.077   6.939   1.465  0.2847  2.0295  1.3308
 6644SOL    HW220632   4.145   6.932   1.329 -1.1814 -0.7134  0.6773
 6645SOL     OW20633   0.272   1.230   7.541 -0.0204  0.1308  0.4627
 6645SOL    HW120634   0.299   1.293   7.475  1.9351 -1.5006 -0.4177
 6645SOL    HW220635   0.336   1.241   7.612 -1.0348  0.6474  1.3320
 6646SOL     OW20636   2.015   4.228   7.008  0.1464 -0.7205 -0.0311
 6646SOL    HW120637   1.970   4.148   6.982 -0.5080 -0.3611 -0.0175
 6646SOL    HW220638   2.015   4.225   7.104  1.4442 -1.4244 -0.0258
 6647SOL     OW20639   7.892   4.720   4.800 -0.4428  0.0337 -0.4231
 6647SOL    HW120640   7.837   4.751   4.872  1.1931  0.6223  0.6251
 6647SOL    HW220641   7.830   4.686   4.736 -2.0765  1.6272  0.2305
 6648SOL     OW20642   1.310   2.620   0.248  0.0900  0.4337 -0.1499
 6648SOL    HW120643   1.315   2.565   0.326  0.9136 -1.4764 -1.4549
 6648SOL    HW220644   1.252   2.571   0.189 -1.5540  2.4586 -0.3072
 6649SOL     OW20645   1.160   3.505   5.056  0.0306 -0.2905 -0.3365
 6649SOL    HW120646   1.115   3.526   4.974  0.1324 -0.2677 -0.3864
 6649SOL    HW220647   1.090   3.473   5.113 -0.6030  2.3483  0.5512
 6650SOL     OW20648   4.866   3.168   5.344 -0.4207 -0.2528  0.4602
 6650SOL    HW120649   4.877   3.262   5.331 -2.4150 -0.2151 -1.6906
 6650SOL    HW220650   4.951   3.131   5.321  0.5999  1.0302  1.9914
 6651SOL     OW20651   0.409   0.950   5.408  0.1909  0.0208 -0.2169
 6651SOL    HW120652   0.383   0.916   5.493 -1.2024  0.4194 -0.4431
 6651SOL    HW220653   0.491   0.906   5.387 -0.1121 -1.0392  0.7567
 6652SOL     OW20654   4.660   0.134   0.790 -0.1757  0.4370  0.2701
 6652SOL    HW120655   4.741   0.167   0.751  0.8588 -2.6691 -0.5175
 6652SOL    HW220656   4.632   0.203   0.850  3.2363  1.5406  0.8138
 6653SOL     OW20657   3.406   5.575   1.166 -0.2948 -0.3177  0.0838
 6653SOL    HW120658   3.426   5.496   1.116  0.4452  0.0926 -0.2784
 6653SOL    HW220659   3.490   5.621   1.174  0.0792 -1.2901  3.3559
 6654SOL     OW20660   0.135   2.943   0.659  0.5675 -0.3325  0.1174
 6654SOL    HW120661   0.230   2.950   0.667  0.5001  0.0167  0.6102
 6654SOL    HW220662   0.117   2.972   0.569  0.9239 -0.3805  0.0279
 6655SOL     OW20663   7.102   1.942   4.688 -0.1842 -0.1001 -0.6514
 6655SOL    HW120664   7.176   1.992   4.654 -1.0424  0.9915 -0.9502
 6655SOL    HW220665   7.133   1.908   4.772  0.5560  0.5970 -0.6292
 6656SOL     OW20666   1.897   3.856   4.667 -0.3236 -0.1178 -0.0104
 6656SOL    HW120667   1.849   3.840   4.586 -1.4009  1.3052  0.2955
 6656SOL    HW220668   1.901   3.951   4.674  1.7893 -0.2004  0.4621
 6657SOL     OW20669   3.620   4.776   3.978  0.7966  0.6014 -0.5575
 6657SOL    HW120670   3.628   4.710   4.047  0.7030 -0.5284 -1.5916
 6657SOL    HW220671   3.691   4.838   3.995  2.1116 -0.8234 -0.6693
 6658SOL     OW20672   6.895   6.815   6.664  0.2012  0.1130  0.4563
 6658SOL    HW120673   6.926   6.789   6.751  1.3240  0.7580  0.2639
 6658SOL    HW220674   6.883   6.910   6.671  4.4982  0.9929 -1.2429
 6659SOL     OW20675   6.888   1.847   0.890 -0.1405 -0.2910 -0.6650
 6659SOL    HW120676   6.830   1.875   0.819  0.2505 -2.4761 -1.9551
 6659SOL    HW220677   6.849   1.883   0.969 -0.6668  2.1546 -1.9348
 6660SOL     OW20678   6.627   1.573   2.034  0.1486  0.2318 -0.0007
 6660SOL    HW120679   6.670   1.497   2.071  0.9202  1.4523  1.7693
 6660SOL    HW220680   6.608   1.549   1.943  2.5462 -1.1626 -0.2082
 6661SOL     OW20681   5.267   0.511   5.869  0.9308  0.0868 -0.2563
 6661SOL    HW120682   5.267   0.451   5.795  1.3548  0.5804 -0.6582
 6661SOL    HW220683   5.281   0.598   5.831  3.4062  0.1349  0.5732
 6662SOL     OW20684   3.316   3.960   2.567 -0.3489 -0.7068  0.2776
 6662SOL    HW120685   3.385   3.968   2.633 -0.9836 -0.3349  0.9137
 6662SOL    HW220686   3.250   3.904   2.607 -1.7899  1.3091  0.9088
 6663SOL     OW20687   5.817   0.416   5.587  0.2377  0.1499  0.1419
 6663SOL    HW120688   5.731   0.420   5.545  0.4512 -0.5304 -0.3742
 6663SOL    HW220689   5.800   0.444   5.677 -0.4150  0.6135 -0.1131
 6664SOL     OW20690   2.969   3.568   6.601  0.1785  0.5079  0.0992
 6664SOL    HW120691   2.942   3.497   6.659  0.6300 -0.0166 -0.3336
 6664SOL    HW220692   3.062   3.580   6.619 -0.4599  3.0154  2.3491
 6665SOL     OW20693   7.677   0.011   7.610  0.3022  0.5535 -0.4233
 6665SOL    HW120694   7.726   0.075   7.660 -0.6745  0.2731  0.9518
 6665SOL    HW220695   7.638  -0.047   7.675 -1.7940  0.7315 -1.4068
 6666SOL     OW20696   2.082   1.963   2.889 -0.1492 -0.6551  0.3457
 6666SOL    HW120697   2.038   1.945   2.973 -1.1787 -0.4912 -0.1353
 6666SOL    HW220698   2.111   2.054   2.897  2.2445 -1.4331  1.5612
 6667SOL     OW20699   6.132   0.565   4.127 -0.3566  0.6854  0.3431
 6667SOL    HW120700   6.063   0.591   4.188 -0.8207  0.6873 -0.1793
 6667SOL    HW220701   6.156   0.477   4.156 -1.7380  0.0102 -0.4649
 6668SOL     OW20702   2.519   5.406   6.021 -0.4559  0.3376 -0.1559
 6668SOL    HW120703   2.519   5.315   5.993  1.2612  0.4243 -0.5107
 6668SOL    HW220704   2.548   5.403   6.112  0.6028  0.5974 -0.4749
 6669SOL     OW20705   3.373   1.236   0.654 -0.6082 -0.2641 -0.0531
 6669SOL    HW120706   3.307   1.296   0.688 -0.9065 -0.5801 -0.0714
 6669SOL    HW220707   3.432   1.221   0.728  0.2990  1.1793 -0.4515
 6670SOL     OW20708   2.464   4.393   5.971  0.3163  0.4126  0.0801
 6670SOL    HW120709   2.559   4.395   5.971  0.3044  1.3625 -0.0078
 6670SOL    HW220710   2.441   4.309   5.932  1.1124  0.6292 -0.8832
 6671SOL     OW20711   6.715   1.481   0.557  0.6113 -0.3138 -0.0349
 6671SOL    HW120712   6.635   1.534   0.557  1.2397  0.6548  0.3531
 6671SOL    HW220713   6.770   1.520   0.489  0.0503 -2.1230 -1.6297
 6672SOL     OW20714   4.429   2.411   0.621 -0.0455  0.1075  0.0070
 6672SOL    HW120715   4.443   2.435   0.712  0.0922  0.3737 -0.0826
 6672SOL    HW220716   4.424   2.316   0.621  0.3575  0.0885  0.2369
 6673SOL     OW20717   4.802   4.819   5.605  0.0578 -0.0032  0.0205
 6673SOL    HW120718   4.761   4.901   5.580  0.1434  0.6676  1.9231
 6673SOL    HW220719   4.742   4.751   5.572 -0.7881  0.8574 -0.2503
 6674SOL     OW20720   0.510   0.697   7.190 -0.1288 -0.1497  0.1645
 6674SOL    HW120721   0.494   0.661   7.102 -1.0344  1.4775 -0.3649
 6674SOL    HW220722   0.543   0.622   7.240  2.2519 -0.7296 -2.0379
 6675SOL     OW20723   4.003   1.538   7.301  0.3933  0.0770 -0.6786
 6675SOL    HW120724   3.969   1.537   7.211  2.2670 -1.0534 -1.4240
 6675SOL    HW220725   3.925   1.529   7.356 -0.5870 -2.2347 -2.2812
 6676SOL     OW20726   7.646   5.050   4.920  0.1873  0.2928 -0.1880
 6676SOL    HW120727   7.605   5.096   4.993  0.3219  0.1470 -0.0218
 6676SOL    HW220728   7.730   5.093   4.908 -0.5745  1.5345 -1.4401
 6677SOL     OW20729   3.705   0.807   6.871  0.1742 -0.9319  0.3038
 6677SOL    HW120730   3.669   0.833   6.956 -2.0230  0.5075 -0.9515
 6677SOL    HW220731   3.665   0.722   6.854 -0.5751 -0.5506  0.0973
 6678SOL     OW20732   6.951   7.247   0.977 -0.6247 -0.1860 -0.8395
 6678SOL    HW120733   6.902   7.329   0.968 -0.2494  0.0168 -1.0218
 6678SOL    HW220734   7.043   7.273   0.977 -0.5172 -0.3692  1.2892
 6679SOL     OW20735   1.146   6.745   2.709 -0.0656 -0.5082 -0.9366
 6679SOL    HW120736   1.229   6.781   2.739 -1.1144  1.9280 -0.7336
 6679SOL    HW220737   1.140   6.659   2.751  1.0089  0.5207  1.4893
 6680SOL     OW20738   4.634   3.718   5.088 -0.4800  0.0408  0.1498
 6680SOL    HW120739   4.596   3.748   5.171 -0.7442  1.3437 -0.4159
 6680SOL    HW220740   4.708   3.777   5.073 -0.1537 -0.4789 -0.3189
 6681SOL     OW20741   5.913   6.685   6.026 -0.4102  0.0933  0.1579
 6681SOL    HW120742   5.959   6.766   6.000  0.1084 -0.5142 -0.8681
 6681SOL    HW220743   5.849   6.671   5.957 -1.2908  0.2258  0.9266
 6682SOL     OW20744   7.960   7.505   7.369  0.5345  0.1135 -0.2562
 6682SOL    HW120745   8.030   7.444   7.348  0.2784  0.4238 -2.1313
 6682SOL    HW220746   7.883   7.472   7.322  0.0042  1.0167 -0.0518
 6683SOL     OW20747   2.566   3.858   7.075 -0.3671 -1.0374 -0.0001
 6683SOL    HW120748   2.621   3.786   7.045  0.1779 -0.8813  0.6040
 6683SOL    HW220749   2.618   3.901   7.143 -0.9470 -0.4574  0.0836
 6684SOL     OW20750   3.613   5.859   0.226 -0.2174  0.2175  0.0292
 6684SOL    HW120751   3.670   5.783   0.238 -1.3027 -0.5265  0.6225
 6684SOL    HW220752   3.588   5.855   0.133 -3.0095 -2.2082  0.7496
 6685SOL     OW20753   1.580   4.231   0.608  0.0615  0.3329  0.6772
 6685SOL    HW120754   1.639   4.175   0.658  0.5181  0.2486  0.0574
 6685SOL    HW220755   1.629   4.313   0.597 -0.1414  0.4439  0.6002
 6686SOL     OW20756   5.193   4.605   7.840 -0.5322  0.1461  0.3020
 6686SOL    HW120757   5.162   4.689   7.804  3.1258  0.3644 -3.0909
 6686SOL    HW220758   5.145   4.539   7.791 -1.1720  0.3275  0.6841
 6687SOL     OW20759   5.252   5.824   7.487  0.1864  0.0345 -0.0078
 6687SOL    HW120760   5.338   5.793   7.457 -0.2040  1.3146 -2.7879
 6687SOL    HW220761   5.272   5.897   7.545  1.0034  1.0219 -1.4805
 6688SOL     OW20762   3.204   6.238   3.620  0.8838 -0.4220  0.0712
 6688SOL    HW120763   3.249   6.201   3.696 -0.0959 -0.5412  0.6143
 6688SOL    HW220764   3.112   6.245   3.647  1.1453  3.7230  0.5304
 6689SOL     OW20765   5.110   2.035   6.172  0.6410  0.0749  0.1597
 6689SOL    HW120766   5.033   2.077   6.133 -0.2978  1.5775  3.2530
 6689SOL    HW220767   5.097   2.045   6.266  3.5678 -1.6719  0.8802
 6690SOL     OW20768   7.492   1.150   5.548 -0.2637  0.3691 -0.0002
 6690SOL    HW120769   7.422   1.190   5.497 -0.2936  1.1857  0.6636
 6690SOL    HW220770   7.508   1.066   5.505 -2.0775 -0.1266  0.2174
 6691SOL     OW20771   2.902   3.856   0.551  0.1826 -0.0416 -0.3351
 6691SOL    HW120772   2.843   3.786   0.580  0.2561  0.0953  0.1522
 6691SOL    HW220773   2.953   3.878   0.629  0.2788  0.4357 -0.5316
 6692SOL     OW20774   7.195   4.603   4.054  0.1526 -0.2647 -0.4844
 6692SOL    HW120775   7.239   4.636   3.976 -0.5640  0.7220 -0.4940
 6692SOL    HW220776   7.178   4.511   4.035  2.4846 -0.7975 -0.3369
 6693SOL     OW20777   1.422   2.672   2.962  0.1512 -0.3540 -0.0832
 6693SOL    HW120778   1.369   2.720   2.898 -0.3943  1.8848  1.9187
 6693SOL    HW220779   1.359   2.621   3.013  0.3665 -0.6348 -0.0922
 6694SOL     OW20780   3.091   1.583   7.695 -0.5168 -0.6797 -0.4695
 6694SOL    HW120781   3.113   1.513   7.633  0.3187 -1.7311  0.9753
 6694SOL    HW220782   3.159   1.649   7.682 -0.0231 -1.1492 -0.2863
 6695SOL     OW20783   2.608   5.213   4.112 -0.3305  0.2379  0.3515
 6695SOL    HW120784   2.595   5.201   4.206 -0.3876  0.9902  0.4485
 6695SOL    HW220785   2.680   5.153   4.090 -0.4437 -0.0822  0.8338
 6696SOL     OW20786   6.583   2.577   1.315 -0.7541  0.4425 -0.2483
 6696SOL    HW120787   6.500   2.551   1.355 -2.0533  1.1769 -2.2983
 6696SOL    HW220788   6.560   2.653   1.261  1.2032  0.4445 -1.1435
 6697SOL     OW20789   1.664   5.424   2.917 -0.1638 -0.2139  0.9325
 6697SOL    HW120790   1.651   5.397   3.008  0.3542  3.1061  2.1530
 6697SOL    HW220791   1.593   5.381   2.869 -2.2450  0.1196  3.4570
 6698SOL     OW20792   7.255   2.916   0.192 -0.3997 -0.2727 -0.2791
 6698SOL    HW120793   7.301   2.947   0.270 -0.9367 -1.7182  0.6518
 6698SOL    HW220794   7.240   2.995   0.140 -1.5093  1.0439  1.8765
 6699SOL     OW20795   6.693   1.632   7.570  0.2544  0.6640 -0.0332
 6699SOL    HW120796   6.634   1.692   7.525  0.4452 -0.3673 -1.7565
 6699SOL    HW220797   6.769   1.685   7.594  0.3848  1.1308 -1.4407
 6700SOL     OW20798   6.888   2.362   3.866 -0.3154 -0.4207 -0.1556
 6700SOL    HW120799   6.981   2.345   3.879  0.1021 -0.1800 -2.4167
 6700SOL    HW220800   6.870   2.441   3.917  0.5932 -0.6990  0.6302
 6701SOL     OW20801   4.312   6.090   1.058  0.5526  0.2380  0.1750
 6701SOL    HW120802   4.374   6.060   0.993  0.0792 -2.1868  0.7672
 6701SOL    HW220803   4.309   6.021   1.124  0.0281  1.9835  2.1232
 6702SOL     OW20804   5.558   4.902   6.963 -0.2318  0.2524  0.3152
 6702SOL    HW120805   5.621   4.830   6.956 -0.0533  0.5731 -2.7933
 6702SOL    HW220806   5.500   4.890   6.888 -3.0114  0.8652  2.2200
 6703SOL     OW20807   1.570   7.164   2.074 -0.5133  1.0634 -0.5022
 6703SOL    HW120808   1.526   7.201   2.150 -2.0310 -1.3107 -0.1280
 6703SOL    HW220809   1.499   7.133   2.017  0.5746 -1.0390 -0.8415
 6704SOL     OW20810   7.309   2.699   7.369 -0.1703  0.2944  0.3705
 6704SOL    HW120811   7.355   2.782   7.362  3.7346 -1.6394 -0.1099
 6704SOL    HW220812   7.309   2.679   7.462  1.9787 -0.5385  0.2641
 6705SOL     OW20813   5.932   0.588   4.896 -0.1051  0.0366 -0.4056
 6705SOL    HW120814   6.021   0.586   4.863  0.2120 -1.6589  0.4754
 6705SOL    HW220815   5.877   0.598   4.817  0.7355 -1.6895 -1.2703
 6706SOL     OW20816   5.401   2.655   0.364  0.0417  0.0260 -0.3335
 6706SOL    HW120817   5.475   2.601   0.335 -0.9531 -0.9408 -1.2087
 6706SOL    HW220818   5.437   2.712   0.431  1.7418  0.0857 -1.2438
 6707SOL     OW20819   2.372   2.046   1.912  0.0944 -0.4990 -0.3457
 6707SOL    HW120820   2.378   1.955   1.881 -0.6361 -0.3858 -0.8343
 6707SOL    HW220821   2.449   2.056   1.968  0.8236 -1.0716 -1.1922
 6708SOL     OW20822   6.326   3.574   3.998  0.1057 -0.0786  0.4959
 6708SOL    HW120823   6.388   3.535   4.060 -0.8578 -0.7172  1.0636
 6708SOL    HW220824   6.382   3.621   3.936  1.0934  0.5252  1.7946
 6709SOL     OW20825   0.559   7.849   3.574  0.2310  0.1962 -0.0610
 6709SOL    HW120826   0.619   7.904   3.625 -0.0434  0.2413  0.2126
 6709SOL    HW220827   0.570   7.762   3.611 -0.5907  0.3836  0.6460
 6710SOL     OW20828   3.330   2.141   7.251 -0.1406  0.0994  0.5168
 6710SOL    HW120829   3.288   2.070   7.203  0.8644 -0.3062  0.1934
 6710SOL    HW220830   3.313   2.219   7.198  0.9863 -0.3480 -0.5597
 6711SOL     OW20831   1.040   3.438   6.997 -0.7474  0.0573  0.0685
 6711SOL    HW120832   1.017   3.347   6.980 -0.6682  0.4098 -2.2901
 6711SOL    HW220833   1.100   3.461   6.926 -1.3714  2.1718  0.1641
 6712SOL     OW20834   4.084   0.274   5.184 -0.5465  0.1277 -0.0001
 6712SOL    HW120835   4.151   0.330   5.146  1.3353 -1.7747  0.3402
 6712SOL    HW220836   4.022   0.258   5.113  0.4427  0.3319 -0.9220
 6713SOL     OW20837   5.958   5.708   7.275 -0.5321 -0.1797  0.7699
 6713SOL    HW120838   5.938   5.765   7.350 -2.1497  0.4220 -0.0663
 6713SOL    HW220839   5.872   5.688   7.237  0.0556 -2.5369  0.5418
 6714SOL     OW20840   5.095   3.501   3.864  0.3312  0.1950 -0.3909
 6714SOL    HW120841   5.080   3.561   3.937  0.0851  0.0495 -0.3187
 6714SOL    HW220842   5.181   3.463   3.880 -0.9335 -2.1459  1.4967
 6715SOL     OW20843   2.864   6.485   4.974  0.5182  0.8632  0.1217
 6715SOL    HW120844   2.789   6.484   4.914  1.6653  0.7164 -1.3725
 6715SOL    HW220845   2.841   6.423   5.042 -0.6885  0.7531 -0.3602
 6716SOL     OW20846   2.214   2.247   1.430 -0.0808 -0.1395  0.0033
 6716SOL    HW120847   2.172   2.332   1.433 -1.9311 -1.0406  0.8910
 6716SOL    HW220848   2.171   2.195   1.498  0.7809 -1.8843 -0.6993
 6717SOL     OW20849   7.602   3.750   2.310  0.4014 -0.4666  0.1021
 6717SOL    HW120850   7.617   3.716   2.399 -0.3556 -0.4204  0.2575
 6717SOL    HW220851   7.528   3.699   2.277  0.4894 -0.2771 -0.3947
 6718SOL     OW20852   3.980   1.776   1.289  0.2594 -0.0625  0.0928
 6718SOL    HW120853   3.940   1.689   1.290  1.0509 -0.4929 -1.8523
 6718SOL    HW220854   3.963   1.811   1.376  2.0097 -3.1355  1.8478
 6719SOL     OW20855   2.923   3.169   3.764  0.1727 -0.2505  0.4113
 6719SOL    HW120856   2.931   3.105   3.692  0.1489 -0.0741  0.2527
 6719SOL    HW220857   2.843   3.143   3.810  1.8006 -2.3317  2.2968
 6720SOL     OW20858   5.019   5.095   4.763 -0.3727  0.1895 -0.3028
 6720SOL    HW120859   5.039   5.004   4.743  0.4143  0.1141  0.7616
 6720SOL    HW220860   4.946   5.091   4.825  1.1031  0.1541  1.5156
 6721SOL     OW20861   4.643   2.640   4.835 -0.8587 -0.0155  0.3553
 6721SOL    HW120862   4.675   2.711   4.890  1.3982 -0.6436 -0.0336
 6721SOL    HW220863   4.637   2.678   4.747  3.2049 -0.8720 -0.4772
 6722SOL     OW20864   1.934   5.186   5.633  0.0573  0.2352 -0.0571
 6722SOL    HW120865   1.990   5.251   5.591  0.2627  0.5267  0.6420
 6722SOL    HW220866   1.873   5.238   5.685 -1.4531 -0.0378 -1.4815
 6723SOL     OW20867   3.617   4.627   0.558 -0.4708 -0.3200 -0.0291
 6723SOL    HW120868   3.582   4.668   0.479  0.5222 -0.1851 -0.3993
 6723SOL    HW220869   3.638   4.538   0.532  0.0135 -0.2261  0.0334
 6724SOL     OW20870   6.005   1.415   7.686 -0.2709  0.0086  0.1511
 6724SOL    HW120871   5.982   1.419   7.779  2.4803 -1.7170  1.0224
 6724SOL    HW220872   6.063   1.489   7.672 -0.0592 -0.1786  0.0235
 6725SOL     OW20873   7.675   0.457   5.410 -0.0608 -0.1766 -0.2957
 6725SOL    HW120874   7.730   0.418   5.477 -2.5301 -2.0359  0.8067
 6725SOL    HW220875   7.732   0.464   5.333  1.8678 -1.3692  0.9424
 6726SOL     OW20876   7.256   0.269   4.044  0.3487 -0.5606  0.1188
 6726SOL    HW120877   7.249   0.218   3.963  0.0993 -1.0391  0.4372
 6726SOL    HW220878   7.167   0.300   4.061  0.8695  2.0355 -1.3562
 6727SOL     OW20879   4.785   3.496   6.183 -0.0233  0.5255 -0.3853
 6727SOL    HW120880   4.832   3.568   6.139  1.1136 -0.0210 -0.0978
 6727SOL    HW220881   4.701   3.491   6.137  0.4068  1.1792 -1.2818
 6728SOL     OW20882   3.901   3.117   3.064  0.6480 -0.4348  0.3500
 6728SOL    HW120883   3.927   3.190   3.120  2.5092  0.3177 -1.3528
 6728SOL    HW220884   3.940   3.040   3.105  0.9632 -0.0708  0.7424
 6729SOL     OW20885   4.690   5.322   0.629  0.7075  0.1829  0.1289
 6729SOL    HW120886   4.714   5.291   0.716  1.7911  0.3292 -0.0993
 6729SOL    HW220887   4.767   5.369   0.598 -0.4030  1.9226 -0.0978
 6730SOL     OW20888   2.509   5.005   0.684 -0.1449  0.2716  0.7819
 6730SOL    HW120889   2.454   5.035   0.756 -0.1708  1.8865  0.1206
 6730SOL    HW220890   2.577   5.071   0.675  1.2980 -1.1340  0.8562
 6731SOL     OW20891   2.900   5.352   2.869  0.1560  0.1040 -0.3273
 6731SOL    HW120892   2.885   5.265   2.832 -0.0879  0.3901 -0.9137
 6731SOL    HW220893   2.918   5.336   2.962 -1.3766 -0.4522 -0.1067
 6732SOL     OW20894   6.399   3.557   4.429  0.7558  0.0757 -0.0958
 6732SOL    HW120895   6.407   3.652   4.429  0.9182  0.0812  1.1189
 6732SOL    HW220896   6.305   3.541   4.426  0.7153  0.2861  0.0272
 6733SOL     OW20897   7.640   0.250   2.387 -0.5599 -0.3042  0.3475
 6733SOL    HW120898   7.576   0.276   2.321  0.5824  1.4480 -0.1535
 6733SOL    HW220899   7.701   0.324   2.391  1.4332 -1.8797  0.7831
 6734SOL     OW20900   5.124   3.807   1.622 -0.0128 -0.0469  0.1553
 6734SOL    HW120901   5.067   3.798   1.698 -1.8249  1.3462 -0.9454
 6734SOL    HW220902   5.065   3.797   1.547  1.4818 -0.0943 -1.0526
 6735SOL     OW20903   3.308   2.545   3.663 -0.0198  0.4455 -0.4647
 6735SOL    HW120904   3.366   2.523   3.736 -0.5475 -0.3837 -0.2723
 6735SOL    HW220905   3.241   2.601   3.702  0.7880  1.6419 -0.7479
 6736SOL     OW20906   5.828   4.587   6.436  0.2674 -0.5090 -0.2978
 6736SOL    HW120907   5.787   4.667   6.404  0.6685 -0.1655  0.0232
 6736SOL    HW220908   5.871   4.550   6.360  1.3919  0.4115 -0.1452
 6737SOL     OW20909   1.963   4.441   6.088 -0.0340 -0.4129 -0.0285
 6737SOL    HW120910   1.931   4.528   6.066 -1.4785 -1.1836 -1.1093
 6737SOL    HW220911   1.896   4.404   6.145  1.7569  0.0490  2.5479
 6738SOL     OW20912   4.479   3.397   5.825  0.0724 -0.0152 -0.3768
 6738SOL    HW120913   4.425   3.373   5.900 -0.0751  0.8354 -0.2054
 6738SOL    HW220914   4.563   3.423   5.863  0.1844 -0.1165 -0.5521
 6739SOL     OW20915   4.698   0.025   4.285 -0.3440  0.1133  0.3117
 6739SOL    HW120916   4.734   0.108   4.315  0.1129  0.3532 -0.8396
 6739SOL    HW220917   4.639   0.049   4.213 -0.1140 -0.5600 -0.1106
 6740SOL     OW20918   3.100   0.401   0.028  0.6130  0.5725 -0.1146
 6740SOL    HW120919   3.166   0.358  -0.026  1.4712  2.4209 -0.6546
 6740SOL    HW220920   3.145   0.420   0.110 -0.1839 -0.7633  0.6591
 6741SOL     OW20921   2.731   0.984   5.191 -0.2246 -0.4357  0.4324
 6741SOL    HW120922   2.645   0.960   5.224 -0.0911  0.8349  1.8494
 6741SOL    HW220923   2.790   0.970   5.266  0.9348 -1.8481 -0.6811
 6742SOL     OW20924   2.392   4.595   7.374 -0.2919 -0.5279  0.1218
 6742SOL    HW120925   2.369   4.528   7.310  1.4055 -0.1521 -0.9455
 6742SOL    HW220926   2.419   4.545   7.452  0.3915 -1.0870 -0.4598
 6743SOL     OW20927   0.648   7.793   4.913 -0.2920  0.6861  0.0871
 6743SOL    HW120928   0.645   7.815   4.819  0.0593  0.4439  0.0175
 6743SOL    HW220929   0.683   7.704   4.915 -0.2414  0.7164  0.4532
 6744SOL     OW20930   6.925   5.201   0.318  0.1011 -0.1608  1.0311
 6744SOL    HW120931   6.856   5.267   0.321 -0.3227 -0.5741  0.4953
 6744SOL    HW220932   6.930   5.167   0.407 -0.8470 -0.6076  0.9131
 6745SOL     OW20933   4.638   3.338   7.930 -0.2326  0.5436  0.6216
 6745SOL    HW120934   4.688   3.406   7.885 -0.7831  1.3832  1.2291
 6745SOL    HW220935   4.704   3.279   7.965  0.3109  1.2058  0.7473
 6746SOL     OW20936   6.709   3.417   5.061 -0.2574 -0.3268 -0.0846
 6746SOL    HW120937   6.768   3.488   5.085  1.8344 -1.9278 -0.2127
 6746SOL    HW220938   6.630   3.432   5.113  1.1104  0.6709  1.8059
 6747SOL     OW20939   4.724   6.915   0.153  0.5797  0.4909 -0.1084
 6747SOL    HW120940   4.700   6.854   0.083  1.3697  0.5671 -0.4458
 6747SOL    HW220941   4.699   6.869   0.234 -2.0102  1.1269 -0.4592
 6748SOL     OW20942   4.061   4.064   4.575  0.3416  0.0406  0.2426
 6748SOL    HW120943   4.009   4.094   4.649  0.9984  0.0429  0.7093
 6748SOL    HW220944   4.129   4.130   4.564  0.1046  0.1693 -0.5238
 6749SOL     OW20945   2.467   4.379   6.751  0.0257 -0.0836 -0.0946
 6749SOL    HW120946   2.454   4.379   6.656  0.7257 -0.1166 -0.1989
 6749SOL    HW220947   2.556   4.411   6.762  0.3126 -1.0452  0.4910
 6750SOL     OW20948   7.853   1.006   7.047 -0.8279  0.3619 -0.6795
 6750SOL    HW120949   7.887   1.066   7.113  1.2755 -1.6952  0.2430
 6750SOL    HW220950   7.864   1.052   6.964 -1.1505  2.0023  0.1522
 6751SOL     OW20951   5.806   1.253   5.891  0.3788  0.1463 -0.0843
 6751SOL    HW120952   5.819   1.336   5.937 -0.3322  0.5998 -0.6757
 6751SOL    HW220953   5.894   1.218   5.879  0.6654  0.6618  0.4425
 6752SOL     OW20954   7.917   1.615   4.533  0.1008 -0.1533 -0.1087
 6752SOL    HW120955   7.984   1.596   4.599 -0.0087  3.4282  1.2655
 6752SOL    HW220956   7.960   1.600   4.449  1.7920 -0.3236  0.7428
 6753SOL     OW20957   0.521   6.866   4.525 -0.2197 -0.4667 -0.7552
 6753SOL    HW120958   0.578   6.799   4.561  2.7351  1.5700 -1.2894
 6753SOL    HW220959   0.508   6.840   4.434  0.2859 -0.7220 -0.7603
 6754SOL     OW20960   2.706   0.487   6.160 -0.0511 -0.9840  0.5433
 6754SOL    HW120961   2.676   0.397   6.173 -1.3901 -0.9146 -1.5302
 6754SOL    HW220962   2.639   0.526   6.104  2.2753  0.1864 -1.6298
 6755SOL     OW20963   2.841   3.653   2.787 -0.2388 -0.1732  1.0476
 6755SOL    HW120964   2.907   3.719   2.803 -0.6867  0.3160  0.9113
 6755SOL    HW220965   2.779   3.695   2.727  1.2076 -1.7955 -1.7953
 6756SOL     OW20966   2.438   2.544   2.584  0.2759 -0.0630 -0.0481
 6756SOL    HW120967   2.393   2.584   2.658 -2.0962 -1.6633 -0.5230
 6756SOL    HW220968   2.405   2.590   2.507  0.3891 -0.4475 -0.3317
 6757SOL     OW20969   4.601   5.826   1.579  0.1276  0.6189 -0.1128
 6757SOL    HW120970   4.612   5.828   1.484  2.1192 -0.3169  0.0584
 6757SOL    HW220971   4.583   5.918   1.602 -2.0966  0.6205 -1.5025
 6758SOL     OW20972   3.821   2.320   4.946  0.3082 -0.1919  0.3970
 6758SOL    HW120973   3.765   2.388   4.911  0.3946 -0.3244  0.0029
 6758SOL    HW220974   3.891   2.309   4.881 -0.3984 -1.5502 -0.1837
 6759SOL     OW20975   3.846   4.998   0.511  0.2351  0.8186 -0.5338
 6759SOL    HW120976   3.941   4.987   0.514  0.3881  1.3085 -2.2948
 6759SOL    HW220977   3.834   5.093   0.502 -0.5451  1.0198  1.9237
 6760SOL     OW20978   2.640   3.344   1.935 -0.2101 -0.1046 -0.3065
 6760SOL    HW120979   2.713   3.337   1.998 -1.0556  1.5744  0.9427
 6760SOL    HW220980   2.621   3.254   1.911  1.4526 -0.6658  0.2993
 6761SOL     OW20981   7.100   2.156   5.840 -0.4745 -0.1607 -0.5549
 6761SOL    HW120982   7.036   2.192   5.901  0.5249  2.9599 -1.1759
 6761SOL    HW220983   7.174   2.216   5.844  1.2543 -2.0347 -1.9972
 6762SOL     OW20984   6.896   1.858   3.380  0.3324 -0.0821  0.2399
 6762SOL    HW120985   6.908   1.767   3.353 -3.0497 -0.0822 -1.8255
 6762SOL    HW220986   6.874   1.853   3.473 -0.4736 -1.4505 -0.0068
 6763SOL     OW20987   5.725   5.172   5.839 -0.1715  0.3167 -0.4330
 6763SOL    HW120988   5.712   5.114   5.764 -1.9636 -0.4195  0.3926
 6763SOL    HW220989   5.648   5.230   5.838  1.5975  2.8150 -1.2813
 6764SOL     OW20990   4.556   7.070   7.622  0.9286 -0.2439  0.1135
 6764SOL    HW120991   4.605   7.147   7.595  2.4545 -1.4257 -0.6471
 6764SOL    HW220992   4.622   7.002   7.637 -0.3321 -1.3312  1.0708
 6765SOL     OW20993   0.440   3.472   4.808  0.4769  0.2002  0.3692
 6765SOL    HW120994   0.393   3.456   4.890  2.3253 -1.4617  1.1835
 6765SOL    HW220995   0.468   3.385   4.779  2.5304  1.0181 -0.3259
 6766SOL     OW20996   1.502   5.478   2.341 -0.0811  0.1253 -0.8248
 6766SOL    HW120997   1.477   5.545   2.277  1.4250  0.5146 -1.0445
 6766SOL    HW220998   1.598   5.481   2.342 -0.0375 -1.0649  0.1999
 6767SOL     OW20999   6.818   0.214   7.383 -0.1455 -0.1565 -0.2733
 6767SOL    HW121000   6.881   0.220   7.454 -0.6768  0.8709  0.1316
 6767SOL    HW221001   6.869   0.230   7.304  0.2367 -0.1443 -0.0273
 6768SOL     OW21002   1.479   7.676   0.478  0.1629  0.7386  0.1565
 6768SOL    HW121003   1.391   7.685   0.443  0.7024  0.6404 -1.2894
 6768SOL    HW221004   1.510   7.765   0.490 -0.4286  0.7941  1.5481
 6769SOL     OW21005   7.435   4.144   4.119  0.2388 -0.4346 -0.1296
 6769SOL    HW121006   7.351   4.147   4.165 -0.9142 -1.1481 -2.0436
 6769SOL    HW221007   7.501   4.140   4.188 -1.2429  1.0319  1.4465
 6770SOL     OW21008   0.781   4.055   4.162  0.6706 -0.2209  0.0329
 6770SOL    HW121009   0.861   4.092   4.123  0.5086 -0.6946 -0.7698
 6770SOL    HW221010   0.717   4.126   4.154  1.2550  0.5348  1.6069
 6771SOL     OW21011   6.188   7.687   0.975  0.6131  0.1115  0.6658
 6771SOL    HW121012   6.126   7.616   0.959  1.3271 -0.6140  1.0561
 6771SOL    HW221013   6.272   7.643   0.988  1.1552  1.0602  0.4556
 6772SOL     OW21014   6.915   2.357   2.747  0.0856 -0.1963 -0.0741
 6772SOL    HW121015   6.922   2.446   2.782  0.2205  0.5158 -1.8013
 6772SOL    HW221016   6.822   2.346   2.728 -0.3064 -1.2769  2.1021
 6773SOL     OW21017   4.677   2.887   3.732 -0.2575  0.5931  0.2592
 6773SOL    HW121018   4.650   2.936   3.810 -0.8190  0.8833 -0.1089
 6773SOL    HW221019   4.729   2.949   3.681 -0.8706  0.7809 -0.1513
 6774SOL     OW21020   3.251   0.878   0.619  0.0444  0.5185 -0.6301
 6774SOL    HW121021   3.230   0.922   0.537 -0.2053  0.3364 -0.6633
 6774SOL    HW221022   3.220   0.939   0.687 -0.3420  0.3734 -0.6765
 6775SOL     OW21023   7.470   3.073   6.639 -0.2042 -0.1368  0.2784
 6775SOL    HW121024   7.385   3.099   6.603 -0.1362  0.1750  0.3418
 6775SOL    HW221025   7.455   3.068   6.734 -0.5769 -1.6593  0.1765
 6776SOL     OW21026   4.326   6.703   6.583 -0.1244 -0.0091  0.1236
 6776SOL    HW121027   4.304   6.616   6.616 -1.4221  0.5515  0.7808
 6776SOL    HW221028   4.421   6.707   6.589 -0.0095 -1.4999 -0.2325
 6777SOL     OW21029   4.131   3.821   3.854  0.6926  0.1118  0.1854
 6777SOL    HW121030   4.137   3.861   3.941 -0.7692  0.5536  0.1027
 6777SOL    HW221031   4.057   3.760   3.861  1.1881 -0.5761 -0.4750
 6778SOL     OW21032   6.090   4.214   4.391 -0.0299  0.3022 -0.1546
 6778SOL    HW121033   6.182   4.191   4.380  0.0332  0.4368  0.0891
 6778SOL    HW221034   6.060   4.161   4.465  0.2462  1.3538  0.7304
 6779SOL     OW21035   7.887   4.095   6.087 -0.2362 -0.8582  0.1073
 6779SOL    HW121036   7.974   4.136   6.080 -0.0223 -1.2873  0.2158
 6779SOL    HW221037   7.891   4.021   6.026 -0.4713 -0.9731  0.2308
 6780SOL     OW21038   7.837   2.888   4.080  0.3037  1.0552  0.5924
 6780SOL    HW121039   7.779   2.813   4.092  1.0986  0.3768  0.2837
 6780SOL    HW221040   7.903   2.878   4.148 -0.7662  2.6818  1.9595
 6781SOL     OW21041   4.139   2.881   7.819  0.4097  0.4103 -0.2648
 6781SOL    HW121042   4.178   2.903   7.904 -1.5738  1.0230  0.5358
 6781SOL    HW221043   4.094   2.798   7.834 -0.0756  0.5974 -0.6816
 6782SOL     OW21044   3.011   1.058   4.765  0.6262  0.2033  0.2928
 6782SOL    HW121045   3.017   1.112   4.844 -0.4973  2.3904 -1.0142
 6782SOL    HW221046   2.937   1.000   4.781  1.3614 -0.4709  1.4115
 6783SOL     OW21047   5.663   4.514   1.379  0.1287  0.5208  0.0274
 6783SOL    HW121048   5.714   4.499   1.300 -0.7489 -1.3361 -0.2432
 6783SOL    HW221049   5.572   4.517   1.349 -0.1254  1.1219  0.8142
 6784SOL     OW21050   1.710   4.724   7.387 -0.1516  0.7756 -0.2156
 6784SOL    HW121051   1.675   4.807   7.355 -1.1603  0.8302  0.9719
 6784SOL    HW221052   1.803   4.742   7.401 -0.0659  1.2800 -1.3078
 6785SOL     OW21053   6.944   3.299   3.934 -0.1619  0.3312  0.0117
 6785SOL    HW121054   6.918   3.228   3.993  0.1988  0.1618 -0.0251
 6785SOL    HW221055   6.943   3.378   3.989  1.1571  0.0195  0.5224
 6786SOL     OW21056   3.456   5.397   2.662  0.2602  0.0181  0.4671
 6786SOL    HW121057   3.549   5.403   2.641 -0.1978  1.2347 -1.4442
 6786SOL    HW221058   3.454   5.374   2.755  2.4586  0.6404  0.7263
 6787SOL     OW21059   1.677   2.971   7.565 -0.0584 -0.1983  0.1959
 6787SOL    HW121060   1.606   2.958   7.502 -0.1135 -0.3433  0.2837
 6787SOL    HW221061   1.731   3.040   7.529  1.5196 -2.1452 -1.4266
 6788SOL     OW21062   0.337   6.895   2.773  0.1148  0.7039  0.1668
 6788SOL    HW121063   0.374   6.925   2.855 -1.6993 -0.6856  1.5735
 6788SOL    HW221064   0.350   6.800   2.773 -3.8144 -0.0213  1.1327
 6789SOL     OW21065   3.415   1.873   5.820 -0.1387  0.3945 -0.3032
 6789SOL    HW121066   3.458   1.819   5.753  2.0573  0.0512  1.2536
 6789SOL    HW221067   3.340   1.821   5.848 -0.1981 -0.1452 -1.4060
 6790SOL     OW21068   7.460   3.021   0.699 -0.1906  0.2788 -0.0695
 6790SOL    HW121069   7.394   3.077   0.739 -0.2446  0.0526  0.1573
 6790SOL    HW221070   7.422   2.994   0.615 -0.4773 -0.0326  0.1613
 6791SOL     OW21071   5.827   1.776   5.347  0.1511  0.4521 -0.9106
 6791SOL    HW121072   5.775   1.810   5.274 -0.6158  0.4107 -0.3985
 6791SOL    HW221073   5.878   1.705   5.309 -0.2306  0.4375 -1.4087
 6792SOL     OW21074   4.360   2.170   1.638  0.5721  0.3522 -0.4443
 6792SOL    HW121075   4.297   2.100   1.621  1.2466 -1.1035  2.4747
 6792SOL    HW221076   4.313   2.232   1.693  1.1101  0.2273  0.1649
 6793SOL     OW21077   5.539   3.916   1.053 -0.5997 -0.2543  0.5337
 6793SOL    HW121078   5.545   3.826   1.085 -0.2639 -0.6447 -0.5727
 6793SOL    HW221079   5.561   3.971   1.129 -2.9916 -0.9758  1.8798
 6794SOL     OW21080   4.175   3.266   3.756  0.0666  0.0514 -0.0410
 6794SOL    HW121081   4.147   3.175   3.761 -1.9545  0.6236 -0.0646
 6794SOL    HW221082   4.226   3.271   3.675 -0.1861 -0.9534 -0.2810
 6795SOL     OW21083   6.975   2.905   1.615 -0.1877  0.6074  0.4881
 6795SOL    HW121084   6.936   2.963   1.680  1.0127  0.2501  1.5935
 6795SOL    HW221085   7.067   2.933   1.610 -0.0564  0.0613 -0.4079
 6796SOL     OW21086   5.084   1.494   3.770  0.1359 -0.2647 -0.0128
 6796SOL    HW121087   5.124   1.534   3.847 -1.7022 -0.5284  1.1574
 6796SOL    HW221088   5.151   1.500   3.701  1.0504  1.9667  0.9724
 6797SOL     OW21089   0.454   7.884   5.617 -0.0276 -0.1530  0.5162
 6797SOL    HW121090   0.378   7.833   5.643  0.2385 -0.2838  1.0414
 6797SOL    HW221091   0.421   7.941   5.547 -0.3835 -0.8502  0.1020
 6798SOL     OW21092   6.704   5.580   4.275  0.3853  0.1096  0.2593
 6798SOL    HW121093   6.659   5.663   4.256  0.8028  0.1549 -0.5904
 6798SOL    HW221094   6.715   5.579   4.370 -0.1842  0.7361  0.3372
 6799SOL     OW21095   3.175   1.058   2.867  0.3805  0.0382  0.4093
 6799SOL    HW121096   3.080   1.069   2.872  0.1573 -0.2795 -1.8869
 6799SOL    HW221097   3.189   0.964   2.880  0.1291 -0.2762 -1.3846
 6800SOL     OW21098   0.583   1.083   4.411  0.5479 -0.2799  0.3616
 6800SOL    HW121099   0.635   1.087   4.330  1.3825 -0.6713  0.8653
 6800SOL    HW221100   0.586   1.172   4.445  0.5298 -0.2037  0.1649
 6801SOL     OW21101   0.268   2.365   6.345  0.0997 -0.5412  0.1968
 6801SOL    HW121102   0.233   2.439   6.296  2.4514 -0.7534 -2.0011
 6801SOL    HW221103   0.299   2.304   6.279 -0.6678 -3.0265  1.9503
 6802SOL     OW21104   0.426   6.961   3.293  0.5920 -0.6554  0.1755
 6802SOL    HW121105   0.385   6.918   3.368  0.5902 -1.0510 -0.0507
 6802SOL    HW221106   0.471   7.037   3.331 -0.7630  0.0881  0.3667
 6803SOL     OW21107   7.198   7.310   5.538 -0.1368 -0.4736  0.0663
 6803SOL    HW121108   7.109   7.276   5.527 -1.0944  1.2705  1.8640
 6803SOL    HW221109   7.250   7.232   5.557 -1.1317 -1.6082 -1.5558
 6804SOL     OW21110   3.625   2.834   1.147  0.3587  0.1147 -0.0224
 6804SOL    HW121111   3.712   2.838   1.107  0.0776 -2.2014 -1.0339
 6804SOL    HW221112   3.589   2.750   1.118 -2.4007  1.1729  0.0314
 6805SOL     OW21113   2.174   4.200   1.168  0.0580  0.3547 -0.2547
 6805SOL    HW121114   2.239   4.232   1.231 -0.1802  0.8680 -0.2612
 6805SOL    HW221115   2.226   4.173   1.092  0.3993 -0.8821  0.4028
 6806SOL     OW21116   7.541   3.229   7.972  0.0419 -0.1875  0.1204
 6806SOL    HW121117   7.605   3.179   8.023  0.1383 -0.7576 -0.5391
 6806SOL    HW221118   7.585   3.311   7.953 -0.7148  0.8880  2.6107
 6807SOL     OW21119   3.851   1.450   1.135  0.2976  0.0052  0.0302
 6807SOL    HW121120   3.885   1.444   1.224  0.8932 -2.8137 -0.3096
 6807SOL    HW221121   3.756   1.455   1.146  0.2946 -1.4788  0.8223
 6808SOL     OW21122   0.873   0.495   3.386  0.2066  0.4845  0.2132
 6808SOL    HW121123   0.864   0.590   3.383  0.4045  0.5140  0.4930
 6808SOL    HW221124   0.962   0.480   3.419  0.7621  0.2038 -1.3444
 6809SOL     OW21125   5.513   0.841   3.952  0.0884 -0.1440 -0.4520
 6809SOL    HW121126   5.497   0.782   3.879  0.1432 -0.0348 -0.5538
 6809SOL    HW221127   5.476   0.797   4.028 -1.1233  0.3182 -0.7530
 6810SOL     OW21128   4.095   1.102   4.207 -0.2521 -0.3526  0.2694
 6810SOL    HW121129   4.049   1.182   4.181 -0.0857  0.2125  1.6269
 6810SOL    HW221130   4.171   1.133   4.255 -0.8097 -1.3152  1.8516
 6811SOL     OW21131   7.457   5.038   4.326 -0.0794 -0.2860 -0.1635
 6811SOL    HW121132   7.376   5.006   4.365 -0.8345  1.7319  0.0450
 6811SOL    HW221133   7.512   4.960   4.316 -1.3403 -1.4216  1.3601
 6812SOL     OW21134   2.619   6.764   5.094 -0.1347  0.1518 -0.6250
 6812SOL    HW121135   2.659   6.725   5.172 -2.0447 -0.0639  0.2893
 6812SOL    HW221136   2.658   6.851   5.088  0.3186  0.0318  0.3540
 6813SOL     OW21137   1.216   4.309   6.566 -0.4117 -0.6474 -0.1135
 6813SOL    HW121138   1.205   4.231   6.620  0.6283 -0.7555 -0.0423
 6813SOL    HW221139   1.157   4.373   6.604 -0.9112 -1.2442  0.1297
 6814SOL     OW21140   3.828   5.749   5.935  0.2393  0.1389  0.0372
 6814SOL    HW121141   3.892   5.813   5.903  0.8220 -0.0806  0.7324
 6814SOL    HW221142   3.746   5.799   5.943  1.1623  1.3914  2.5802
 6815SOL     OW21143   5.151   1.748   4.548  0.6095  0.8129 -0.4378
 6815SOL    HW121144   5.221   1.802   4.514  1.2323  0.0629 -0.3692
 6815SOL    HW221145   5.075   1.806   4.552  1.2089  1.6143 -0.5595
 6816SOL     OW21146   0.642   3.435   7.423  0.2485  0.1286  0.1202
 6816SOL    HW121147   0.716   3.430   7.485  0.0477 -2.6353  0.2709
 6816SOL    HW221148   0.682   3.457   7.339  0.9148  1.0719  0.6738
 6817SOL     OW21149   3.835   4.347   2.764  0.0477  0.1586  0.0259
 6817SOL    HW121150   3.760   4.291   2.745  0.1157 -0.2460  0.8942
 6817SOL    HW221151   3.861   4.383   2.679  0.1708 -1.3289 -0.5925
 6818SOL     OW21152   4.232   5.231   2.566 -0.2064  0.4636  0.2526
 6818SOL    HW121153   4.179   5.300   2.604 -0.9439  1.2113 -1.9508
 6818SOL    HW221154   4.172   5.182   2.510  0.6212 -1.0951  0.6588
 6819SOL     OW21155   7.716   0.578   5.934  0.8139 -0.2863 -0.0795
 6819SOL    HW121156   7.651   0.648   5.939  1.8076  0.7882 -1.4391
 6819SOL    HW221157   7.669   0.500   5.963 -0.9941  0.5187 -0.6645
 6820SOL     OW21158   5.822   1.274   4.471 -0.6571 -0.4028  0.5118
 6820SOL    HW121159   5.758   1.345   4.466  1.5727  1.7002 -0.4021
 6820SOL    HW221160   5.902   1.317   4.503  1.0283 -2.2931 -0.9149
 6821SOL     OW21161   0.149   1.547   4.726  0.0833 -0.6544  0.3126
 6821SOL    HW121162   0.171   1.454   4.724  0.2829 -0.7252  2.8406
 6821SOL    HW221163   0.211   1.586   4.789 -1.1039  0.8527  0.6183
 6822SOL     OW21164   3.219   5.379   7.227  0.1372  0.9277  0.1600
 6822SOL    HW121165   3.228   5.430   7.146 -2.1683 -0.6140 -1.1803
 6822SOL    HW221166   3.135   5.407   7.263 -0.1491 -0.3626  0.5454
 6823SOL     OW21167   6.149   4.042   3.380 -0.2366 -0.4086  0.3506
 6823SOL    HW121168   6.086   4.019   3.312  0.6121  0.1809 -0.6740
 6823SOL    HW221169   6.202   3.964   3.391  2.0369  0.5514 -2.4421
 6824SOL     OW21170   2.877   7.773   0.648  0.3161  0.5473 -0.2782
 6824SOL    HW121171   2.806   7.776   0.713 -0.3595 -0.7185 -0.9170
 6824SOL    HW221172   2.893   7.680   0.635  0.7663  0.7939 -1.5792
 6825SOL     OW21173   7.965   2.796   5.362 -0.6249 -0.2245 -0.5050
 6825SOL    HW121174   8.042   2.854   5.361 -1.5082  1.0247  0.4393
 6825SOL    HW221175   7.999   2.713   5.393  0.5674 -0.0618 -1.2687
 6826SOL     OW21176   5.740   7.725   0.685  0.1074 -0.5092  0.6835
 6826SOL    HW121177   5.771   7.729   0.776 -0.4856  0.1845  0.8623
 6826SOL    HW221178   5.800   7.663   0.642  0.3929 -0.8464  1.5423
 6827SOL     OW21179   4.727   7.706   7.783 -0.1219 -0.4025  0.1063
 6827SOL    HW121180   4.648   7.686   7.834 -2.1629  0.4289 -2.5072
 6827SOL    HW221181   4.763   7.785   7.824 -0.7904 -0.6295  1.1716
 6828SOL     OW21182   5.394   7.742   2.975  0.5952 -0.4463 -0.0442
 6828SOL    HW121183   5.417   7.682   2.904 -0.7613 -2.9358  1.4847
 6828SOL    HW221184   5.309   7.779   2.949  1.7977  1.6119 -1.3714
 6829SOL     OW21185   3.180   3.361   0.342  0.0319 -0.3241 -0.5039
 6829SOL    HW121186   3.270   3.390   0.329  0.2538  0.3226  1.8645
 6829SOL    HW221187   3.189   3.277   0.388 -0.5480 -0.2556 -0.2614
 6830SOL     OW21188   2.075   4.705   4.989 -0.1072  0.2216  0.7971
 6830SOL    HW121189   1.980   4.705   4.982 -0.1135 -1.2600  0.5725
 6830SOL    HW221190   2.105   4.729   4.901 -0.2821 -1.8459  0.1380
 6831SOL     OW21191   0.099   5.068   7.928 -0.7082 -0.5890 -0.0162
 6831SOL    HW121192   0.074   5.153   7.964 -1.2478 -1.3445  1.4979
 6831SOL    HW221193   0.019   5.014   7.935 -0.2291 -1.3782 -0.4365
 6832SOL     OW21194   3.086   4.801   7.079 -1.0222  0.8648 -0.0258
 6832SOL    HW121195   3.084   4.850   7.161  0.4110 -0.1525  0.6391
 6832SOL    HW221196   3.084   4.709   7.105  4.1894  0.2594 -0.7169
 6833SOL     OW21197   2.450   7.372   0.699  0.1916  0.1796  0.4764
 6833SOL    HW121198   2.374   7.412   0.740 -0.5556 -0.0136 -0.6805
 6833SOL    HW221199   2.449   7.281   0.729 -4.3149 -2.0864 -4.8371
 6834SOL     OW21200   7.260   7.962   7.667 -0.2432 -0.4283 -0.4244
 6834SOL    HW121201   7.254   8.045   7.714  0.4827 -1.0386  0.7806
 6834SOL    HW221202   7.173   7.922   7.678 -0.4769 -0.0071 -0.7000
 6835SOL     OW21203   7.283   1.286   0.340 -0.4387 -0.7948 -0.3152
 6835SOL    HW121204   7.292   1.265   0.247 -0.2497  0.3446 -0.5652
 6835SOL    HW221205   7.262   1.379   0.342  0.2880 -0.6337  0.8077
 6836SOL     OW21206   7.258   5.808   1.048 -0.9170  0.2540  0.2635
 6836SOL    HW121207   7.277   5.886   0.996  0.8337 -0.2488  0.1172
 6836SOL    HW221208   7.321   5.812   1.120 -1.3160 -0.6431  0.6678
 6837SOL     OW21209   3.037   1.701   4.251  0.1267 -0.3608  0.0101
 6837SOL    HW121210   3.021   1.610   4.276 -1.1492 -0.0625  0.3126
 6837SOL    HW221211   2.969   1.721   4.187  1.0723  0.0555 -0.9059
 6838SOL     OW21212   4.841   7.624   6.335  0.4654 -0.6849  0.0212
 6838SOL    HW121213   4.919   7.654   6.289  1.1100 -1.6339  0.4655
 6838SOL    HW221214   4.793   7.705   6.356  1.8528  0.0071  0.6784
 6839SOL     OW21215   1.831   5.367   4.266 -0.2115  0.1499 -0.2085
 6839SOL    HW121216   1.916   5.324   4.260 -0.0655  0.1337  1.3710
 6839SOL    HW221217   1.848   5.459   4.243  0.7875  0.7068  2.4067
 6840SOL     OW21218   4.350   0.629   7.851  0.1404 -0.0868  0.1087
 6840SOL    HW121219   4.366   0.535   7.858 -0.7877 -0.2286  0.5138
 6840SOL    HW221220   4.298   0.650   7.929  0.0062  0.6854 -0.1776
 6841SOL     OW21221   1.465   0.066   1.193 -0.0170 -0.2250  0.1650
 6841SOL    HW121222   1.468   0.083   1.099  0.7601  1.2708  0.4319
 6841SOL    HW221223   1.519  -0.011   1.206 -0.2099 -0.4994 -0.6176
 6842SOL     OW21224   0.768   4.251   6.826 -0.1223  0.0735 -0.0030
 6842SOL    HW121225   0.715   4.171   6.824  1.5176 -1.0823  0.3928
 6842SOL    HW221226   0.791   4.261   6.919  0.0797  0.7417 -0.1238
 6843SOL     OW21227   4.362   5.888   2.872 -0.0216  0.4448  0.4269
 6843SOL    HW121228   4.353   5.881   2.967  0.6208 -1.3614  0.3905
 6843SOL    HW221229   4.430   5.955   2.860  1.2166 -0.5941  1.3322
 6844SOL     OW21230   5.250   3.438   6.460 -0.1150 -0.3963  0.3015
 6844SOL    HW121231   5.215   3.353   6.487 -0.2251  0.1472  1.9685
 6844SOL    HW221232   5.197   3.502   6.507  1.3691  0.5182  0.8094
 6845SOL     OW21233   6.390   3.324   5.038  0.3916 -0.6769 -0.2423
 6845SOL    HW121234   6.379   3.350   4.946 -0.7545 -0.6997 -0.1305
 6845SOL    HW221235   6.322   3.373   5.085  1.1999 -0.3811  0.6558
 6846SOL     OW21236   4.095   7.845   3.864  0.1711  0.4604 -0.4022
 6846SOL    HW121237   4.053   7.884   3.787 -0.6672  0.8780  0.2443
 6846SOL    HW221238   4.189   7.857   3.849  0.0489 -0.0307 -1.6477
 6847SOL     OW21239   4.661   4.267   0.031  0.3554  0.1571  0.6412
 6847SOL    HW121240   4.669   4.194  -0.031 -0.9000 -1.7794  2.5919
 6847SOL    HW221241   4.576   4.307   0.010 -0.3204 -0.8332  1.3565
 6848SOL     OW21242   1.516   7.043   1.813 -0.2621 -0.0363  0.0731
 6848SOL    HW121243   1.454   7.090   1.757 -0.8258 -1.1746 -0.2968
 6848SOL    HW221244   1.461   6.992   1.872  0.3348  0.3546  0.9794
 6849SOL     OW21245   6.740   3.992   5.319  0.0270 -0.2122  0.2311
 6849SOL    HW121246   6.677   3.937   5.273  0.1365  0.6305 -0.9787
 6849SOL    HW221247   6.695   4.019   5.398 -1.2200  0.5160 -0.6923
 6850SOL     OW21248   1.280   2.002   2.960 -1.0290  0.6708 -0.2780
 6850SOL    HW121249   1.320   1.927   3.004  2.1046  1.1317 -2.0355
 6850SOL    HW221250   1.261   1.971   2.871 -3.0431  1.0053 -0.0046
 6851SOL     OW21251   3.442   7.700   6.680 -0.0380 -0.0780  0.0386
 6851SOL    HW121252   3.461   7.711   6.586 -0.1270 -0.5888 -0.0448
 6851SOL    HW221253   3.375   7.765   6.699 -0.1811 -0.1250 -0.3052
 6852SOL     OW21254   3.177   0.285   5.473 -0.6010  0.3423  0.0333
 6852SOL    HW121255   3.242   0.303   5.541 -0.6645 -0.1132  0.2118
 6852SOL    HW221256   3.167   0.190   5.473  0.3204  0.2110 -1.4436
 6853SOL     OW21257   2.556   0.209   1.964  0.1620 -0.0853 -0.0480
 6853SOL    HW121258   2.526   0.137   2.019 -0.2918  0.7163  0.7756
 6853SOL    HW221259   2.608   0.265   2.021 -2.0509  1.8915  0.2229
 6854SOL     OW21260   2.194   5.435   5.827 -0.1816 -0.0502 -0.2467
 6854SOL    HW121261   2.249   5.513   5.839 -1.5881  0.9387 -0.0112
 6854SOL    HW221262   2.239   5.367   5.878  0.9236  0.6600 -0.2213
 6855SOL     OW21263   5.923   1.024   0.777  0.1061  0.2429 -0.2054
 6855SOL    HW121264   5.879   0.944   0.748  1.8599 -1.1061  0.6326
 6855SOL    HW221265   5.889   1.092   0.719  1.0742 -1.6986 -3.3333
 6856SOL     OW21266   3.703   1.142   3.999  0.2344 -0.6099 -0.0572
 6856SOL    HW121267   3.664   1.056   3.985  1.6719 -1.1806 -0.7113
 6856SOL    HW221268   3.628   1.202   4.006 -0.7463 -1.7151 -0.8568
 6857SOL     OW21269   1.914   1.179   2.479 -0.0165  0.0679 -0.1759
 6857SOL    HW121270   1.913   1.096   2.527  0.4723  0.1172 -0.0690
 6857SOL    HW221271   1.999   1.179   2.434 -0.0285  0.4911 -0.2020
 6858SOL     OW21272   6.412   4.372   3.593  0.7586 -0.1241  0.2508
 6858SOL    HW121273   6.383   4.398   3.681 -1.7764 -2.4166  0.2061
 6858SOL    HW221274   6.484   4.311   3.608  1.4353  0.7364  0.6201
 6859SOL     OW21275   5.932   3.392   6.183  0.0715 -0.3518 -0.1264
 6859SOL    HW121276   5.950   3.301   6.159 -1.7627 -0.9110  0.4124
 6859SOL    HW221277   5.855   3.386   6.240  0.0070  1.5288  0.0253
 6860SOL     OW21278   5.828   6.749   7.233  0.0358  0.1022  0.5494
 6860SOL    HW121279   5.912   6.769   7.191  1.2870  0.8515  3.1588
 6860SOL    HW221280   5.783   6.692   7.171  1.6948  1.1046 -1.7336
 6861SOL     OW21281   0.665   2.811   1.154  0.0274 -0.0080 -0.2213
 6861SOL    HW121282   0.592   2.799   1.093  0.6141  0.1551 -0.9654
 6861SOL    HW221283   0.638   2.885   1.210 -0.7833 -0.5646  0.1457
 6862SOL     OW21284   1.774   1.951   4.940  0.0528 -0.2782 -0.0976
 6862SOL    HW121285   1.775   2.038   4.899 -0.8820 -0.4439 -0.4967
 6862SOL    HW221286   1.681   1.928   4.944  0.2322 -0.8629  0.8716
 6863SOL     OW21287   4.424   4.089   5.506 -0.1743 -0.0325 -0.2863
 6863SOL    HW121288   4.400   4.110   5.415 -0.1258 -1.4970 -0.6591
 6863SOL    HW221289   4.371   4.012   5.527  1.2215 -0.8784  0.2548
 6864SOL     OW21290   7.827   0.711   7.263 -0.6703 -0.1413  0.2252
 6864SOL    HW121291   7.810   0.660   7.342  0.0174  1.1451  1.2381
 6864SOL    HW221292   7.842   0.800   7.294  0.2748  0.2736 -1.3005
 6865SOL     OW21293   1.077   7.295   0.008 -0.0022 -0.2378  0.0256
 6865SOL    HW121294   1.099   7.384  -0.020 -0.5893  0.1363  0.7064
 6865SOL    HW221295   1.087   7.298   0.104  0.3218 -1.0038  0.0156
 6866SOL     OW21296   0.534   6.727   4.292  0.2472  0.3005 -0.3513
 6866SOL    HW121297   0.622   6.689   4.287 -0.1447 -1.3816  2.7831
 6866SOL    HW221298   0.475   6.653   4.281 -0.7416  1.1401 -0.8178
 6867SOL     OW21299   5.791   3.817   6.167 -0.3003  0.5328  0.5016
 6867SOL    HW121300   5.877   3.776   6.161 -0.8663 -0.6338 -0.0110
 6867SOL    HW221301   5.740   3.774   6.098 -2.3388 -1.3934  3.0282
 6868SOL     OW21302   7.700   1.782   2.367 -0.2418  0.3480  0.4577
 6868SOL    HW121303   7.780   1.745   2.330  0.1716 -0.1193  1.7632
 6868SOL    HW221304   7.685   1.862   2.318 -0.7754 -1.1347 -2.0053
 6869SOL     OW21305   7.048   4.567   6.025  0.4659 -0.7012 -0.1313
 6869SOL    HW121306   7.050   4.516   5.944  0.8067  0.4922 -0.9009
 6869SOL    HW221307   6.959   4.601   6.030  0.6096 -0.2786 -0.3418
 6870SOL     OW21308   1.794   6.482   4.898  0.0654  0.3751  0.3189
 6870SOL    HW121309   1.809   6.417   4.967  2.5684  0.0317 -0.4605
 6870SOL    HW221310   1.721   6.447   4.847 -2.3755  0.9824  3.0944
 6871SOL     OW21311   5.184   7.255   5.563 -0.1000 -0.0992  0.0025
 6871SOL    HW121312   5.194   7.191   5.634  0.3808  0.7296  0.7037
 6871SOL    HW221313   5.174   7.202   5.484  1.5899 -1.0574  0.3887
 6872SOL     OW21314   7.717   6.385   3.373 -0.0101  1.0963  0.0013
 6872SOL    HW121315   7.654   6.456   3.382  1.2722  2.1358  1.4459
 6872SOL    HW221316   7.797   6.419   3.415  1.1190 -0.6191 -0.6526
 6873SOL     OW21317   6.219   3.072   0.364  0.0119  0.3966  0.2310
 6873SOL    HW121318   6.294   3.057   0.422 -1.4855 -1.6547  1.7870
 6873SOL    HW221319   6.247   3.143   0.306  3.9585 -1.6618 -0.7110
 6874SOL     OW21320   0.378   1.411   3.461 -0.3310 -0.4474 -0.7775
 6874SOL    HW121321   0.470   1.432   3.448 -0.0517  0.2404  1.8224
 6874SOL    HW221322   0.378   1.327   3.505 -0.7649  0.5656  1.2888
 6875SOL     OW21323   6.607   2.744   2.304  0.2225 -0.3716  0.1436
 6875SOL    HW121324   6.599   2.731   2.210 -0.9517 -1.8027  0.4108
 6875SOL    HW221325   6.601   2.656   2.342 -1.6269  0.3576  1.6944
 6876SOL     OW21326   6.506   3.690   2.557  0.4969 -0.5370  0.3250
 6876SOL    HW121327   6.480   3.778   2.529 -0.7598 -0.3887  1.8200
 6876SOL    HW221328   6.523   3.643   2.475 -0.7914  0.5105 -0.5952
 6877SOL     OW21329   2.953   5.924   2.492 -0.4977 -0.8016 -0.0555
 6877SOL    HW121330   2.860   5.905   2.478 -1.0897  1.9393 -0.3084
 6877SOL    HW221331   2.979   5.975   2.415  0.9909 -0.8026  0.4240
 6878SOL     OW21332   0.449   6.006   1.733 -0.2457  0.6372  0.0404
 6878SOL    HW121333   0.358   5.992   1.707 -0.0325 -1.7683  0.3511
 6878SOL    HW221334   0.446   6.015   1.828 -0.0057 -1.8410  0.3454
 6879SOL     OW21335   6.881   5.436   2.351  0.1781 -0.0955  0.2872
 6879SOL    HW121336   6.801   5.384   2.346  0.1881 -0.0192 -0.7269
 6879SOL    HW221337   6.942   5.383   2.402 -0.9332  0.4037  2.2361
 6880SOL     OW21338   3.516   0.359   7.025 -0.5096 -0.1136  0.2922
 6880SOL    HW121339   3.585   0.423   7.012 -1.0409  0.5436  0.6534
 6880SOL    HW221340   3.483   0.378   7.113 -0.5334 -1.0196  0.4874
 6881SOL     OW21341   0.179   4.885   7.355  0.1338  0.8270 -0.1586
 6881SOL    HW121342   0.197   4.829   7.430  1.2046 -0.5758 -1.4009
 6881SOL    HW221343   0.190   4.828   7.279 -1.4215  2.0635 -1.3861
 6882SOL     OW21344   6.261   4.508   6.338 -0.3239  0.3487 -0.3231
 6882SOL    HW121345   6.199   4.493   6.408  0.3998 -2.9887 -0.2577
 6882SOL    HW221346   6.330   4.561   6.378  0.0748 -1.4740  1.5630
 6883SOL     OW21347   3.212   7.815   0.203 -0.0680  0.6313 -0.1013
 6883SOL    HW121348   3.199   7.744   0.140 -2.4974 -0.6535  1.6498
 6883SOL    HW221349   3.190   7.894   0.155  0.3731 -0.0467 -1.4740
 6884SOL     OW21350   3.168   0.212   1.529  0.1488 -0.1361 -0.1893
 6884SOL    HW121351   3.133   0.138   1.578 -2.5406  1.4006  0.3563
 6884SOL    HW221352   3.236   0.249   1.586 -0.7738 -0.2421  1.0072
 6885SOL     OW21353   0.004   3.354   0.931  0.0505  0.0939  0.0036
 6885SOL    HW121354  -0.032   3.420   0.872 -1.5270 -0.1437  0.6452
 6885SOL    HW221355  -0.015   3.271   0.888 -0.1382 -0.0307  0.3220
 6886SOL     OW21356   6.597   2.462   7.930 -0.3838 -0.1811 -0.1115
 6886SOL    HW121357   6.578   2.439   7.839 -2.8129  2.9522 -0.5469
 6886SOL    HW221358   6.678   2.513   7.925 -1.4811  1.5949 -0.8955
 6887SOL     OW21359   6.318   5.507   7.752  0.6475 -0.2442  0.0877
 6887SOL    HW121360   6.283   5.476   7.668  1.8923 -1.8940  0.1231
 6887SOL    HW221361   6.393   5.562   7.728  0.6966 -0.3059  0.0980
 6888SOL     OW21362   2.880   2.329   5.739  0.0497  0.3922 -0.2701
 6888SOL    HW121363   2.958   2.303   5.690 -0.3208 -2.3561  0.4447
 6888SOL    HW221364   2.810   2.330   5.673  0.1066 -0.3229 -0.3473
 6889SOL     OW21365   0.793   3.020   5.822 -0.5766  0.4359 -0.2469
 6889SOL    HW121366   0.872   3.001   5.873 -0.3705  1.5045 -0.1261
 6889SOL    HW221367   0.799   2.964   5.745 -0.8714 -1.1770  0.8745
 6890SOL     OW21368   4.334   5.592   2.854 -0.7280 -0.3317  0.1302
 6890SOL    HW121369   4.349   5.647   2.777 -1.4560  0.1675  0.3327
 6890SOL    HW221370   4.384   5.512   2.836  1.8762  1.0908  0.6615
 6891SOL     OW21371   0.383   2.652   6.504  1.0180  0.0815 -0.0378
 6891SOL    HW121372   0.463   2.611   6.471  1.3225  0.7843 -0.1878
 6891SOL    HW221373   0.328   2.579   6.530  1.4856 -0.4272 -0.4576
 6892SOL     OW21374   3.281   1.706   7.232  0.1011  0.2346 -0.2804
 6892SOL    HW121375   3.307   1.785   7.280 -1.7301 -0.0082  1.1857
 6892SOL    HW221376   3.360   1.651   7.233  1.4767  2.0660 -1.4940
 6893SOL     OW21377   5.545   6.811   7.265  0.3209 -0.2273  0.1698
 6893SOL    HW121378   5.558   6.756   7.188  0.9506  1.1119 -0.6939
 6893SOL    HW221379   5.633   6.831   7.296  0.0767 -0.6690  1.2001
 6894SOL     OW21380   6.973   5.074   6.424 -0.0319  0.0696  0.3917
 6894SOL    HW121381   6.950   4.997   6.477  0.8321 -0.9388 -0.6489
 6894SOL    HW221382   6.929   5.060   6.340 -0.3612  1.0339  0.3859
 6895SOL     OW21383   7.350   4.955   1.899 -0.2133  0.1682 -0.6032
 6895SOL    HW121384   7.335   4.888   1.833 -1.5873  0.8753 -1.0438
 6895SOL    HW221385   7.428   5.002   1.868 -1.1336  0.8181 -2.0205
 6896SOL     OW21386   4.803   3.519   3.130 -0.0606  0.3561 -0.9248
 6896SOL    HW121387   4.861   3.594   3.114 -0.4537  1.3918  1.8809
 6896SOL    HW221388   4.716   3.558   3.140 -0.4636 -0.6055 -0.5838
 6897SOL     OW21389   3.189   4.411   5.915 -0.1806 -0.0829  0.7223
 6897SOL    HW121390   3.265   4.354   5.908 -0.1076  0.1334 -0.3261
 6897SOL    HW221391   3.223   4.494   5.948  0.3893  0.6363 -1.4869
 6898SOL     OW21392   5.026   3.219   4.916  0.3853  0.3885 -0.1378
 6898SOL    HW121393   5.018   3.216   5.011 -0.2950  0.2530 -0.1912
 6898SOL    HW221394   5.059   3.306   4.897  1.2188  0.1697  0.2628
 6899SOL     OW21395   5.605   4.178   2.654 -0.2937 -0.1384 -0.1074
 6899SOL    HW121396   5.648   4.214   2.576 -2.2279 -0.6425 -1.4689
 6899SOL    HW221397   5.512   4.195   2.640 -0.7223 -0.5252  1.9758
 6900SOL     OW21398   4.976   7.272   4.826 -0.3381 -0.2414  0.0368
 6900SOL    HW121399   4.937   7.245   4.743  0.7344 -0.2319 -0.4837
 6900SOL    HW221400   4.960   7.367   4.830 -0.1137 -0.1871 -0.3141
 6901SOL     OW21401   5.855   4.806   5.921 -0.6066 -0.2332  0.3031
 6901SOL    HW121402   5.778   4.761   5.887  0.7037 -0.8995 -1.9947
 6901SOL    HW221403   5.929   4.758   5.885  0.8680  1.7718  0.4708
 6902SOL     OW21404   7.137   4.610   2.782  0.1618 -0.1655 -0.4511
 6902SOL    HW121405   7.204   4.677   2.777  0.4061 -0.2997  0.8692
 6902SOL    HW221406   7.166   4.550   2.850 -1.9712  0.5700  1.2198
 6903SOL     OW21407   5.598   6.879   3.542  0.0234 -0.0851  0.0638
 6903SOL    HW121408   5.565   6.792   3.564 -0.0339 -0.5495 -1.7247
 6903SOL    HW221409   5.606   6.924   3.627  0.7024 -2.0336  1.0802
 6904SOL     OW21410   5.267   6.207   5.521 -0.0387  0.5714 -0.2533
 6904SOL    HW121411   5.195   6.161   5.565 -0.9032  1.9617 -0.1492
 6904SOL    HW221412   5.227   6.245   5.443  1.1669 -0.6770 -1.5503
 6905SOL     OW21413   0.997   2.268   7.317  0.2212  0.4859  0.4449
 6905SOL    HW121414   0.986   2.185   7.364  0.2412  0.4090  0.3137
 6905SOL    HW221415   0.943   2.330   7.366 -0.2096  0.2768  0.2446
 6906SOL     OW21416   0.974   7.437   3.516  0.4223  0.6196  0.0560
 6906SOL    HW121417   1.004   7.365   3.461 -0.4498  0.0333  0.3270
 6906SOL    HW221418   0.989   7.515   3.462  1.1007  0.2172 -0.3566
 6907SOL     OW21419   5.640   1.424   2.520 -0.1073  0.3084  0.0256
 6907SOL    HW121420   5.706   1.379   2.467  0.3755  0.7237  0.2632
 6907SOL    HW221421   5.561   1.372   2.509  0.3665 -0.4364  0.0662
 6908SOL     OW21422   6.386   2.930   3.667 -0.2449  0.1150  0.0060
 6908SOL    HW121423   6.357   3.018   3.643 -1.0074 -0.5589 -1.7370
 6908SOL    HW221424   6.309   2.874   3.650  0.6102 -1.0557 -0.1534
 6909SOL     OW21425   7.078   5.809   5.123 -0.1884  0.6607  0.1772
 6909SOL    HW121426   7.139   5.736   5.111 -1.5105 -0.3700 -0.6007
 6909SOL    HW221427   7.031   5.788   5.203 -1.1727  0.1773 -0.5047
 6910SOL     OW21428   7.521   4.334   4.422 -0.1582 -0.3711 -0.1357
 6910SOL    HW121429   7.521   4.243   4.450 -0.6530 -0.1956  0.4556
 6910SOL    HW221430   7.429   4.356   4.409 -0.1839  0.5117  1.3303
 6911SOL     OW21431   5.541   5.010   5.279 -0.1206  0.2222 -0.4507
 6911SOL    HW121432   5.538   4.984   5.371 -0.4378 -2.3451 -1.0891
 6911SOL    HW221433   5.625   4.975   5.247 -1.2287 -1.4611 -1.7192
 6912SOL     OW21434   3.424   1.816   3.485 -0.1019  0.1022  0.6610
 6912SOL    HW121435   3.478   1.886   3.520  0.2833 -0.6425  1.5863
 6912SOL    HW221436   3.483   1.742   3.474 -0.5816 -0.2064  0.0658
 6913SOL     OW21437   3.512   1.578   3.228  0.9064 -0.2484 -0.3879
 6913SOL    HW121438   3.432   1.630   3.224 -0.6164 -2.4998 -0.7037
 6913SOL    HW221439   3.536   1.562   3.137  1.4170 -0.0405 -0.2943
 6914SOL     OW21440   5.352   6.666   0.747  0.0347  0.3382  0.1289
 6914SOL    HW121441   5.384   6.597   0.689  1.7068  1.3307 -0.1969
 6914SOL    HW221442   5.350   6.626   0.834  0.8498 -0.1674 -0.0831
 6915SOL     OW21443   1.038   3.481   4.506 -0.3767 -0.4092  0.8327
 6915SOL    HW121444   0.954   3.447   4.474  0.2280 -0.9583 -0.2468
 6915SOL    HW221445   1.083   3.510   4.426  0.3559  0.1003  1.4240
 6916SOL     OW21446   5.582   7.946   3.731  0.7073 -0.1468  0.4768
 6916SOL    HW121447   5.594   7.959   3.825 -0.7512 -0.3969  0.7171
 6916SOL    HW221448   5.644   7.877   3.709 -0.4445 -1.6532  1.7087
 6917SOL     OW21449   0.513   4.553   4.832 -0.2080 -0.0720  0.0752
 6917SOL    HW121450   0.521   4.567   4.737  0.4384  0.3396  0.1822
 6917SOL    HW221451   0.452   4.620   4.861 -1.4355 -1.0151 -0.2298
 6918SOL     OW21452   5.627   2.009   0.796 -0.7117  0.1337 -0.1235
 6918SOL    HW121453   5.588   2.029   0.881 -0.6178 -0.0918 -0.0261
 6918SOL    HW221454   5.623   1.913   0.789 -0.5911  0.1403 -0.3100
 6919SOL     OW21455   2.161   0.946   2.972  0.5088  0.1187 -0.0265
 6919SOL    HW121456   2.068   0.967   2.967 -0.3288 -3.0271  0.1619
 6919SOL    HW221457   2.186   0.972   3.061 -0.2487  0.7283  0.0221
 6920SOL     OW21458   5.524   3.425   6.683 -0.3267  0.0065  0.0616
 6920SOL    HW121459   5.560   3.456   6.765  2.3060 -2.8276  0.1818
 6920SOL    HW221460   5.592   3.444   6.618 -1.8078  1.0319 -1.2800
 6921SOL     OW21461   0.159   5.423   1.414  0.1655  0.3551  0.0739
 6921SOL    HW121462   0.198   5.501   1.376 -1.6825  1.1390 -0.3141
 6921SOL    HW221463   0.233   5.365   1.431  1.5331  1.9987 -0.0371
 6922SOL     OW21464   7.346   5.156   0.084 -0.2417  0.4683 -0.5259
 6922SOL    HW121465   7.280   5.114   0.028  0.4567  1.1519 -1.9076
 6922SOL    HW221466   7.298   5.222   0.133 -0.6333  0.8352 -1.3840
 6923SOL     OW21467   3.380   0.895   2.684  0.0701 -0.2347  0.4638
 6923SOL    HW121468   3.321   0.861   2.751 -1.3086  0.0161 -0.5965
 6923SOL    HW221469   3.387   0.824   2.620 -2.1248  1.0311 -1.3120
 6924SOL     OW21470   1.175   2.696   7.275  0.4889  0.1026  0.4179
 6924SOL    HW121471   1.191   2.653   7.359  0.0046 -1.5382 -0.2845
 6924SOL    HW221472   1.113   2.638   7.230 -3.4005  3.4087  0.8886
 6925SOL     OW21473   5.126   3.833   7.143 -0.1138  0.0279  0.1369
 6925SOL    HW121474   5.071   3.756   7.131  0.6444 -0.4427 -0.3893
 6925SOL    HW221475   5.127   3.846   7.238 -0.3841 -0.5126  0.2193
 6926SOL     OW21476   3.583   5.504   4.937 -0.1127  0.2551  0.0663
 6926SOL    HW121477   3.582   5.513   5.033 -2.8932  0.3732  0.1218
 6926SOL    HW221478   3.601   5.411   4.922 -2.1618 -0.3331  0.8859
 6927SOL     OW21479   0.709   6.586   0.291 -0.1875 -0.7418 -0.2799
 6927SOL    HW121480   0.653   6.527   0.241 -0.1472 -1.2029  0.2079
 6927SOL    HW221481   0.797   6.574   0.254 -0.3814 -0.1187 -0.9541
 6928SOL     OW21482   6.124   7.046   1.534  0.3021 -0.1984  0.1392
 6928SOL    HW121483   6.205   6.997   1.546  0.9810  0.8507  0.0428
 6928SOL    HW221484   6.150   7.138   1.546 -0.3513  0.3846 -2.3106
 6929SOL     OW21485   3.806   7.744   5.392 -0.0831 -0.5109  0.3095
 6929SOL    HW121486   3.796   7.839   5.396  0.5428 -0.3949 -0.6299
 6929SOL    HW221487   3.729   7.714   5.343  0.3335 -0.3654 -0.4395
 6930SOL     OW21488   1.123   2.154   4.808 -0.7485  0.8117  0.0279
 6930SOL    HW121489   1.163   2.073   4.775 -1.1857  0.3679  0.5838
 6930SOL    HW221490   1.172   2.174   4.888  0.9920  2.4359 -1.3385
 6931SOL     OW21491   4.283   5.058   7.302 -0.3286  0.0882 -0.4231
 6931SOL    HW121492   4.230   5.076   7.224 -1.4012  0.4083  0.3585
 6931SOL    HW221493   4.290   5.142   7.347  1.0218  0.0912 -0.5990
 6932SOL     OW21494   5.040   1.201   2.744  0.0253  0.8588 -0.6956
 6932SOL    HW121495   5.009   1.138   2.809 -0.3811  2.3975  0.6665
 6932SOL    HW221496   5.136   1.199   2.753  0.0197  0.3526 -0.7398
 6933SOL     OW21497   5.689   4.649   6.955 -0.0470  0.2925 -0.5417
 6933SOL    HW121498   5.655   4.560   6.949  0.6554  0.0954 -1.7966
 6933SOL    HW221499   5.725   4.655   7.044 -0.9250 -0.3476 -0.1255
 6934SOL     OW21500   5.575   2.974   2.510  0.6603  0.2235  0.0786
 6934SOL    HW121501   5.613   2.983   2.423  1.7073  1.6233  0.6198
 6934SOL    HW221502   5.481   2.975   2.496  0.8130  0.2277 -1.0481
 6935SOL     OW21503   1.823   4.795   7.848  0.7939  0.6251  0.4416
 6935SOL    HW121504   1.810   4.708   7.811  0.3074  1.2613 -0.9279
 6935SOL    HW221505   1.757   4.802   7.917  2.0052 -0.7388  1.8131
 6936SOL     OW21506   1.854   7.655   1.815 -0.0191  0.0621  0.1403
 6936SOL    HW121507   1.879   7.720   1.749 -2.1210  0.3179 -0.4860
 6936SOL    HW221508   1.933   7.602   1.828  0.6924  0.4918 -2.0219
 6937SOL     OW21509   0.842   7.167   7.931  0.3926 -0.0451 -0.5808
 6937SOL    HW121510   0.792   7.227   7.876 -0.6146 -0.5797 -0.2588
 6937SOL    HW221511   0.921   7.217   7.954  0.6886  0.2932 -2.2328
 6938SOL     OW21512   1.146   5.719   1.412  0.0873  0.1307  0.1763
 6938SOL    HW121513   1.115   5.700   1.501 -0.5936  3.8022  0.8629
 6938SOL    HW221514   1.235   5.752   1.425 -0.0147  0.6778 -0.4972
 6939SOL     OW21515   5.808   7.534   1.993 -0.0017  0.6213  0.4473
 6939SOL    HW121516   5.764   7.618   1.978 -0.4607  0.2807 -0.1394
 6939SOL    HW221517   5.843   7.542   2.082  0.1727  1.5251  0.3103
 6940SOL     OW21518   2.236   1.199   4.133 -0.2219 -0.0264 -0.3420
 6940SOL    HW121519   2.191   1.174   4.053  0.4535 -3.2027  0.1531
 6940SOL    HW221520   2.220   1.126   4.193  1.2390  1.1800  1.6206
 6941SOL     OW21521   6.985   7.433   5.861 -0.3305 -0.7729 -0.4290
 6941SOL    HW121522   7.070   7.478   5.856 -1.2905  1.1989  0.2631
 6941SOL    HW221523   6.956   7.447   5.951 -1.0117 -2.2224 -0.3925
 6942SOL     OW21524   5.274   4.825   7.151 -0.1119  0.1389  0.5200
 6942SOL    HW121525   5.338   4.831   7.223  1.3566 -0.0823 -0.7243
 6942SOL    HW221526   5.304   4.889   7.087  0.1908 -1.5092 -1.0743
 6943SOL     OW21527   5.375   7.944   0.677 -0.2190 -0.6872 -0.3566
 6943SOL    HW121528   5.454   7.997   0.686 -0.9236  0.4454 -0.7518
 6943SOL    HW221529   5.345   7.960   0.588 -1.0325 -0.9245 -0.1308
 6944SOL     OW21530   3.328   1.705   5.378  0.3648  0.6773  0.4239
 6944SOL    HW121531   3.356   1.616   5.398 -2.9221 -0.3635  0.9005
 6944SOL    HW221532   3.396   1.739   5.319  1.4254 -2.3069 -0.2337
 6945SOL     OW21533   0.047   6.838   3.718 -0.3041 -0.6635  0.5869
 6945SOL    HW121534   0.076   6.922   3.753  1.2416 -1.0834  0.3651
 6945SOL    HW221535   0.124   6.781   3.724 -0.4106 -1.2099 -1.9991
 6946SOL     OW21536   2.288   4.748   2.336 -0.7815  0.5072  0.0472
 6946SOL    HW121537   2.374   4.771   2.300 -0.3515  0.0727  0.7743
 6946SOL    HW221538   2.228   4.809   2.294  0.3312  3.1384  2.0085
 6947SOL     OW21539   4.508   3.887   7.152  0.4158 -0.1244  0.1072
 6947SOL    HW121540   4.593   3.868   7.191 -0.2717 -1.6636  0.9437
 6947SOL    HW221541   4.499   3.823   7.081 -0.9005 -1.4103  1.3762
 6948SOL     OW21542   3.264   0.877   4.814  0.5289  0.4698  0.3168
 6948SOL    HW121543   3.298   0.919   4.892 -0.4518  2.7719 -0.3878
 6948SOL    HW221544   3.205   0.942   4.776 -0.6246 -1.3665 -1.2291
 6949SOL     OW21545   0.914   0.912   1.466 -0.2400 -0.4776  0.0010
 6949SOL    HW121546   0.871   0.869   1.540 -1.9597 -0.5124 -0.9703
 6949SOL    HW221547   0.861   0.989   1.449  1.1543  0.4831 -0.1112
 6950SOL     OW21548   0.403   1.616   0.421 -0.2711 -0.1764 -0.0774
 6950SOL    HW121549   0.377   1.531   0.385  0.4254 -0.0606 -0.8747
 6950SOL    HW221550   0.372   1.680   0.358  0.4573  0.0686 -0.1965
 6951SOL     OW21551   2.608   4.227   3.260  0.5009  0.1805  0.2939
 6951SOL    HW121552   2.668   4.179   3.316 -1.0104 -3.3478 -0.8010
 6951SOL    HW221553   2.654   4.236   3.176 -0.3232 -2.5510 -0.5572
 6952SOL     OW21554   7.657   4.066   0.388 -0.6903  0.1952 -0.4312
 6952SOL    HW121555   7.658   4.075   0.483  0.9550  1.0307 -0.4881
 6952SOL    HW221556   7.665   3.972   0.373 -1.2858  0.0293  0.2386
 6953SOL     OW21557   6.471   5.714   1.195  0.0662 -0.0919  0.5120
 6953SOL    HW121558   6.513   5.729   1.110 -2.0330  0.0557 -0.5617
 6953SOL    HW221559   6.490   5.622   1.214 -0.6673 -0.5539 -0.8691
 6954SOL     OW21560   1.635   4.124   7.765  0.1870 -0.0848  0.1605
 6954SOL    HW121561   1.598   4.072   7.836 -0.2660 -0.4141 -0.3121
 6954SOL    HW221562   1.588   4.207   7.768 -0.2512 -0.3203 -0.1285
 6955SOL     OW21563   3.273   4.947   1.121  0.0209  0.2092 -0.3073
 6955SOL    HW121564   3.248   4.908   1.038 -1.6549 -0.2411  0.3829
 6955SOL    HW221565   3.241   4.886   1.188  0.7913  0.8622  0.6950
 6956SOL     OW21566   2.583   1.144   3.806 -0.4313  0.1590  0.3597
 6956SOL    HW121567   2.537   1.209   3.860 -1.0683  0.9673 -1.0915
 6956SOL    HW221568   2.675   1.154   3.830 -0.4770  1.8344 -0.0193
 6957SOL     OW21569   0.329   1.423   7.334 -0.5196 -0.8034 -0.7133
 6957SOL    HW121570   0.378   1.356   7.287 -0.9903 -0.1874 -2.1155
 6957SOL    HW221571   0.378   1.504   7.319 -0.9109 -0.5240 -0.5030
 6958SOL     OW21572   5.540   1.579   7.594 -0.4232  0.2113 -0.3751
 6958SOL    HW121573   5.624   1.626   7.595  0.1127 -0.6604  1.6902
 6958SOL    HW221574   5.505   1.594   7.682 -0.8392 -2.1644 -0.0819
 6959SOL     OW21575   2.601   7.819   3.544  0.1860 -0.0972  0.0010
 6959SOL    HW121576   2.629   7.729   3.557  2.4537  0.6585  0.8182
 6959SOL    HW221577   2.507   7.818   3.564  0.3537 -2.0788  0.9243
 6960SOL     OW21578   7.492   1.771   6.234  0.4323 -0.1809  0.1635
 6960SOL    HW121579   7.400   1.748   6.222 -0.2815  2.0399  0.8533
 6960SOL    HW221580   7.514   1.741   6.322  0.1232  0.0149  0.3065
 6961SOL     OW21581   5.880   7.362   2.847  0.4048  0.0301 -0.3236
 6961SOL    HW121582   5.858   7.452   2.822  1.3535  0.3347 -0.0910
 6961SOL    HW221583   5.909   7.321   2.765  1.2603  0.3394 -0.1851
 6962SOL     OW21584   1.612   1.063   7.458 -0.0499  0.3089 -0.0838
 6962SOL    HW121585   1.532   1.091   7.415 -0.4977  0.7947  1.0289
 6962SOL    HW221586   1.589   1.056   7.550  1.0365 -0.1319  0.1774
 6963SOL     OW21587   0.223   2.447   0.352 -0.6278 -0.1633 -0.1820
 6963SOL    HW121588   0.156   2.419   0.414 -2.0954 -1.0198 -2.0461
 6963SOL    HW221589   0.249   2.366   0.308  0.8093  0.3345 -0.2876
 6964SOL     OW21590   1.902   0.406   6.163  0.2552 -0.1350 -0.0234
 6964SOL    HW121591   1.975   0.344   6.165  0.3700 -0.0443 -0.8550
 6964SOL    HW221592   1.824   0.351   6.172  0.2960 -0.5501 -1.7379
 6965SOL     OW21593   5.461   7.408   6.700 -0.0297 -0.2606 -0.0418
 6965SOL    HW121594   5.469   7.335   6.639  1.8941 -0.0284 -0.1441
 6965SOL    HW221595   5.548   7.415   6.740 -0.7977  0.5973  1.5729
 6966SOL     OW21596   2.197   2.041   0.756  0.5763 -0.4258 -0.1072
 6966SOL    HW121597   2.272   2.013   0.704  0.0077 -0.0375 -1.1831
 6966SOL    HW221598   2.229   2.043   0.846  1.3875 -1.8461 -0.3334
 6967SOL     OW21599   1.710   4.341   5.220  0.0989 -0.1657  0.2866
 6967SOL    HW121600   1.753   4.369   5.301  0.7645 -0.3611  0.0015
 6967SOL    HW221601   1.707   4.246   5.225 -2.7542 -0.1283  1.5618
 6968SOL     OW21602   3.548   7.817   1.176  0.2465  0.0768 -0.1678
 6968SOL    HW121603   3.616   7.863   1.126  2.5562 -1.6136  1.1641
 6968SOL    HW221604   3.534   7.735   1.128  0.4925 -0.3652  0.4983
 6969SOL     OW21605   0.371   4.814   4.017  0.6072  0.0560 -0.1680
 6969SOL    HW121606   0.387   4.725   4.046  2.1170  0.2260 -0.4161
 6969SOL    HW221607   0.284   4.811   3.976  0.5313 -1.2185  0.0616
 6970SOL     OW21608   0.275   3.163   5.615 -0.4234  0.6890  0.2639
 6970SOL    HW121609   0.194   3.211   5.631 -1.3033 -0.5792 -0.1531
 6970SOL    HW221610   0.269   3.086   5.671  0.6219  0.6901  0.4008
 6971SOL     OW21611   6.676   1.253   7.067 -0.2683 -0.5096  0.0231
 6971SOL    HW121612   6.586   1.220   7.066 -1.0255  1.4108 -0.0330
 6971SOL    HW221613   6.666   1.348   7.061  1.8052 -0.3041 -0.7561
 6972SOL     OW21614   6.872   2.553   1.607 -0.0822  0.4908 -0.1461
 6972SOL    HW121615   6.908   2.612   1.672  1.4894  0.8496 -1.2856
 6972SOL    HW221616   6.947   2.500   1.578 -1.2787 -1.5501  0.2837
 6973SOL     OW21617   7.383   5.129   0.590  0.0040  0.3601 -0.9112
 6973SOL    HW121618   7.342   5.125   0.677 -0.0873  0.6643 -0.9375
 6973SOL    HW221619   7.443   5.203   0.596 -1.4919  1.6929 -1.7305
 6974SOL     OW21620   1.141   6.133   2.986 -0.0997 -0.5833 -0.2748
 6974SOL    HW121621   1.063   6.184   2.963  0.8598  0.6509 -0.8773
 6974SOL    HW221622   1.160   6.158   3.077 -1.1242 -1.8746  0.3362
 6975SOL     OW21623   5.401   3.021   0.776 -0.4616  0.3241  0.5926
 6975SOL    HW121624   5.487   3.051   0.806 -0.2122  0.7550 -0.5051
 6975SOL    HW221625   5.415   2.930   0.750 -0.4706  0.2217  0.9435
 6976SOL     OW21626   5.858   5.531   3.990  0.4198  0.1768  0.1823
 6976SOL    HW121627   5.916   5.474   3.939  0.6859 -0.6047  1.3251
 6976SOL    HW221628   5.772   5.492   3.981  0.8561 -1.4249  2.2912
 6977SOL     OW21629   7.927   7.961   6.334  0.7610 -0.1081  0.3477
 6977SOL    HW121630   7.884   7.976   6.419  2.0360  0.4405  0.9270
 6977SOL    HW221631   7.889   8.027   6.276 -1.0087 -1.2668  0.1322
 6978SOL     OW21632   5.359   2.415   2.837 -0.0697 -0.2096  0.3545
 6978SOL    HW121633   5.298   2.460   2.895 -0.7003  0.3093 -0.6803
 6978SOL    HW221634   5.309   2.399   2.757  1.2548  0.5700 -0.6690
 6979SOL     OW21635   1.976   3.385   5.043 -0.3432 -0.0018 -0.1745
 6979SOL    HW121636   2.006   3.375   4.953  0.6607  0.5959  0.0836
 6979SOL    HW221637   1.882   3.365   5.039 -0.2273 -0.4004 -1.2666
 6980SOL     OW21638   4.060   4.678   4.846  0.4544 -0.5906  0.1449
 6980SOL    HW121639   4.124   4.663   4.777  1.7441 -0.5686  1.3001
 6980SOL    HW221640   4.070   4.604   4.905 -0.2475 -0.3297  0.6086
 6981SOL     OW21641   2.418   6.634   0.749 -0.0627  0.0373 -1.0343
 6981SOL    HW121642   2.342   6.578   0.759 -0.2414  0.4966  0.4793
 6981SOL    HW221643   2.478   6.584   0.694  0.3344 -2.2639  1.2566
 6982SOL     OW21644   5.966   6.069   5.028  0.4415  0.8101  0.6425
 6982SOL    HW121645   6.052   6.109   5.020  0.4293  1.4208  2.8906
 6982SOL    HW221646   5.978   5.998   5.091 -0.4976  0.1444  0.1141
 6983SOL     OW21647   6.510   3.890   6.222 -0.3801  0.4081  0.3359
 6983SOL    HW121648   6.582   3.834   6.250 -0.0014  0.3691 -0.6568
 6983SOL    HW221649   6.552   3.974   6.202 -0.4904  0.2090 -0.8216
 6984SOL     OW21650   2.890   2.965   6.197  0.0942  0.2634 -0.3878
 6984SOL    HW121651   2.837   2.906   6.250  1.6016 -0.2308  0.6352
 6984SOL    HW221652   2.891   2.925   6.110 -2.1978  0.9535 -0.7973
 6985SOL     OW21653   4.258   4.326   5.396 -0.2556 -0.4040 -0.1026
 6985SOL    HW121654   4.212   4.241   5.392 -1.5297  0.2527  0.0476
 6985SOL    HW221655   4.188   4.391   5.399  0.6881  0.6023  1.4761
 6986SOL     OW21656   2.770   2.166   1.128  0.0940 -0.4078 -0.2172
 6986SOL    HW121657   2.858   2.198   1.148  1.8855 -3.3972 -2.4383
 6986SOL    HW221658   2.732   2.147   1.214  1.0048  2.1866  0.8633
 6987SOL     OW21659   1.893   4.311   2.949  0.3496 -0.0878  0.2747
 6987SOL    HW121660   1.835   4.329   3.024  1.2692 -0.4548  1.0898
 6987SOL    HW221661   1.964   4.259   2.985  1.6383  1.0452 -0.5319
 6988SOL     OW21662   7.528   2.906   5.336 -0.0167  0.2941 -0.1992
 6988SOL    HW121663   7.602   2.846   5.351 -0.8595 -0.3236  1.7978
 6988SOL    HW221664   7.499   2.886   5.247  0.9437 -0.9005 -0.2791
 6989SOL     OW21665   4.791   0.291   6.590 -0.2269  0.1739 -0.4840
 6989SOL    HW121666   4.704   0.326   6.610 -0.6145 -0.1402 -1.5716
 6989SOL    HW221667   4.847   0.326   6.660 -1.3058 -0.0121  0.5074
 6990SOL     OW21668   3.226   4.246   6.588 -0.2140 -0.0376 -0.3596
 6990SOL    HW121669   3.159   4.254   6.520 -0.7905 -2.1463 -0.1026
 6990SOL    HW221670   3.184   4.281   6.666  0.2868  1.9538 -0.9145
 6991SOL     OW21671   3.787   2.178   7.490  0.4590  0.1469  0.2146
 6991SOL    HW121672   3.719   2.171   7.423  1.6509  1.6129 -1.2105
 6991SOL    HW221673   3.767   2.260   7.536  0.7482  0.1305  0.3738
 6992SOL     OW21674   3.294   6.928   1.298  0.4388  0.4130  0.6063
 6992SOL    HW121675   3.288   7.013   1.341 -0.7478  0.1897  0.9124
 6992SOL    HW221676   3.349   6.875   1.356 -0.0762  0.5125  1.1922
 6993SOL     OW21677   7.130   5.431   6.361 -0.0574 -0.0329 -0.3429
 6993SOL    HW121678   7.136   5.336   6.357 -0.6164 -0.2083  1.7424
 6993SOL    HW221679   7.196   5.462   6.299  1.3471 -1.7886  0.1842
 6994SOL     OW21680   5.612   7.090   6.189  0.1475  0.0612 -0.3564
 6994SOL    HW121681   5.606   7.185   6.182  2.1737  0.2526 -0.2338
 6994SOL    HW221682   5.692   7.067   6.141  0.4178 -1.4282  0.7230
 6995SOL     OW21683   6.021   5.318   5.286  0.6484  0.0856  0.3732
 6995SOL    HW121684   6.042   5.379   5.357 -0.3921  1.4325 -0.4406
 6995SOL    HW221685   6.067   5.238   5.310  0.1886  0.4315  2.6757
 6996SOL     OW21686   6.938   7.779   2.983 -0.1231  0.6246 -0.0622
 6996SOL    HW121687   6.947   7.692   2.943  0.5163  1.0287 -0.8431
 6996SOL    HW221688   6.886   7.829   2.919  0.6839  1.2063 -0.2766
 6997SOL     OW21689   2.101   7.739   0.069  0.5169 -0.5279  0.8199
 6997SOL    HW121690   2.154   7.673   0.024 -0.5225 -1.0479  0.3356
 6997SOL    HW221691   2.024   7.750   0.014  1.0805  1.8143  0.3673
 6998SOL     OW21692   7.431   2.301   4.006 -0.1820  0.0574  0.4853
 6998SOL    HW121693   7.369   2.252   4.060 -0.2666  0.2741  0.5869
 6998SOL    HW221694   7.457   2.375   4.061 -0.4594  0.4162  0.1429
 6999SOL     OW21695   1.492   1.246   4.730 -0.1576  0.5535 -0.3044
 6999SOL    HW121696   1.518   1.224   4.819  0.5389  1.3922 -0.2834
 6999SOL    HW221697   1.456   1.165   4.694  3.3254 -1.0204 -0.6301
 7000SOL     OW21698   6.469   0.657   6.389 -0.3182  0.2412  0.4129
 7000SOL    HW121699   6.408   0.601   6.436 -0.0105 -0.4999 -0.0642
 7000SOL    HW221700   6.471   0.623   6.300  2.1626 -0.9259  0.8218
 7001SOL     OW21701   3.071   1.380   7.178  0.0445  0.1522  0.1878
 7001SOL    HW121702   3.162   1.408   7.186 -0.3873  1.7761 -0.1413
 7001SOL    HW221703   3.074   1.285   7.186  2.1927 -0.2302 -3.3209
 7002SOL     OW21704   3.038   4.632   0.834  0.4956  0.2230 -0.0865
 7002SOL    HW121705   3.100   4.705   0.823 -0.9661  1.3009 -1.6911
 7002SOL    HW221706   3.035   4.618   0.928  1.2456  1.8714  0.2264
 7003SOL     OW21707   5.359   5.512   1.567 -0.0877  0.3988  0.4521
 7003SOL    HW121708   5.435   5.527   1.623 -0.1683 -0.7816  0.9132
 7003SOL    HW221709   5.284   5.517   1.626 -0.4164  1.8631 -0.0542
 7004SOL     OW21710   4.753   1.306   7.828  0.0487 -0.3915  0.3758
 7004SOL    HW121711   4.684   1.243   7.808  0.1128 -0.5392  0.6139
 7004SOL    HW221712   4.732   1.337   7.917  1.7392 -2.3754  1.5460
 7005SOL     OW21713   6.130   1.710   4.200 -0.7511  0.1619  0.9017
 7005SOL    HW121714   6.093   1.623   4.213 -3.1702  1.2752  2.1184
 7005SOL    HW221715   6.056   1.764   4.169  0.5495  1.8995  0.6295
 7006SOL     OW21716   4.940   3.776   6.090 -0.1653 -0.3319  0.0467
 7006SOL    HW121717   4.969   3.862   6.119 -1.0147 -0.5578  1.7032
 7006SOL    HW221718   5.016   3.719   6.102  0.3548  0.1399 -0.9225
 7007SOL     OW21719   7.354   4.835   7.605 -0.3732  0.2906 -0.0462
 7007SOL    HW121720   7.371   4.821   7.512  0.9583  0.3311  0.1760
 7007SOL    HW221721   7.321   4.750   7.636  0.6350 -0.1926 -0.2455
 7008SOL     OW21722   0.153   1.889   2.684 -0.5679  0.2600 -0.4980
 7008SOL    HW121723   0.144   1.808   2.633  0.4427 -0.0199 -0.2484
 7008SOL    HW221724   0.234   1.929   2.652  0.3730 -0.1793  1.2046
 7009SOL     OW21725   1.463   3.836   0.596  0.1596  0.2077 -0.4959
 7009SOL    HW121726   1.498   3.788   0.521 -0.9119 -0.1208 -0.8020
 7009SOL    HW221727   1.389   3.885   0.560 -0.8993 -0.6155  0.4968
 7010SOL     OW21728   1.253   3.020   6.609  0.1395 -0.1804  0.5232
 7010SOL    HW121729   1.176   2.974   6.574 -0.3510  0.2257  1.0491
 7010SOL    HW221730   1.220   3.107   6.631  0.7281 -0.0442  0.8616
 7011SOL     OW21731   6.191   3.426   5.185 -0.5897  0.9348  0.2605
 7011SOL    HW121732   6.219   3.455   5.272  2.2904  0.7923 -0.5115
 7011SOL    HW221733   6.138   3.499   5.151 -0.6573  1.5399  1.6147
 7012SOL     OW21734   3.873   1.558   2.478  0.0507 -0.6246  0.6017
 7012SOL    HW121735   3.958   1.563   2.522 -0.1750  0.8284  0.9189
 7012SOL    HW221736   3.824   1.632   2.513 -1.5651 -1.7685  0.8485
 7013SOL     OW21737   6.818   4.793   1.769  0.3346  0.4067 -0.5298
 7013SOL    HW121738   6.785   4.705   1.786 -0.9505  1.0218  0.3696
 7013SOL    HW221739   6.879   4.810   1.840 -0.3997  0.7045  0.0438
 7014SOL     OW21740   1.584   1.224   6.658  0.3568 -0.3451  0.0077
 7014SOL    HW121741   1.622   1.305   6.625 -2.9074  0.9517 -0.9351
 7014SOL    HW221742   1.594   1.162   6.586 -0.6219  0.4375 -0.8267
 7015SOL     OW21743   3.173   5.480   1.014  0.5920  0.3588 -0.6779
 7015SOL    HW121744   3.237   5.410   1.003  2.5450  1.5741  1.7038
 7015SOL    HW221745   3.158   5.483   1.109  0.4328  2.9613 -0.7133
 7016SOL     OW21746   4.258   3.961   3.661 -0.0885  0.3381 -0.4310
 7016SOL    HW121747   4.339   4.004   3.688  1.0658 -1.4599 -0.8675
 7016SOL    HW221748   4.226   3.916   3.740  0.2921 -0.3672 -0.6689
 7017SOL     OW21749   0.062   0.386   1.319 -0.6832 -0.0093  1.0011
 7017SOL    HW121750   0.017   0.430   1.392 -0.3557 -0.2516  1.3556
 7017SOL    HW221751   0.155   0.391   1.342 -0.4485  1.1553 -0.0866
 7018SOL     OW21752   3.529   7.808   0.419  0.0770 -0.0035  0.2030
 7018SOL    HW121753   3.521   7.824   0.325 -1.3551 -0.2786  0.2625
 7018SOL    HW221754   3.439   7.808   0.451  0.5942  1.5973  1.8374
 7019SOL     OW21755   3.284   3.558   4.567 -0.1216  0.5975 -0.4740
 7019SOL    HW121756   3.342   3.521   4.633  0.5558  2.0345 -0.2257
 7019SOL    HW221757   3.342   3.589   4.498 -0.8529 -1.9650 -2.4407
 7020SOL     OW21758   4.312   5.004   0.742  0.1060  0.7058 -0.1057
 7020SOL    HW121759   4.316   5.059   0.820 -0.3539 -0.2720  0.6389
 7020SOL    HW221760   4.311   4.914   0.777 -0.6769  0.2733 -1.2043
 7021SOL     OW21761   7.947   7.118   3.207  0.4631 -0.5616  0.3438
 7021SOL    HW121762   7.987   7.188   3.259  2.4183 -1.3083 -0.0592
 7021SOL    HW221763   7.954   7.041   3.263 -2.1210 -0.4031  0.9825
 7022SOL     OW21764   5.669   6.927   4.850 -0.6193 -0.2438 -0.8028
 7022SOL    HW121765   5.677   7.000   4.911  0.6725 -1.1901  0.2109
 7022SOL    HW221766   5.576   6.926   4.825 -0.9533  0.8050  0.3361
 7023SOL     OW21767   2.604   2.249   1.633  0.1809 -0.0478 -0.0485
 7023SOL    HW121768   2.560   2.171   1.598 -1.3286  0.4317  0.6786
 7023SOL    HW221769   2.677   2.214   1.685 -0.7968 -1.0358  0.7181
 7024SOL     OW21770   4.744   2.864   7.520  0.3121 -0.0035 -0.5781
 7024SOL    HW121771   4.715   2.955   7.531  0.0475 -0.1505 -0.0247
 7024SOL    HW221772   4.691   2.831   7.447 -1.6555 -0.5559  1.0133
 7025SOL     OW21773   2.606   3.940   0.803 -0.3049 -0.0796  0.0934
 7025SOL    HW121774   2.689   3.975   0.835 -0.5934  0.3711  0.3534
 7025SOL    HW221775   2.568   3.896   0.878  0.6127 -2.0636 -0.5236
 7026SOL     OW21776   5.682   7.691   7.035  0.1030  0.3250 -0.3615
 7026SOL    HW121777   5.706   7.723   7.122 -0.1103  0.6049 -0.4044
 7026SOL    HW221778   5.750   7.725   6.977  1.2108 -1.2779 -0.0623
 7027SOL     OW21779   5.457   7.205   7.327 -0.0929 -0.0925  0.0626
 7027SOL    HW121780   5.442   7.144   7.399 -2.0278 -0.4727 -0.6141
 7027SOL    HW221781   5.381   7.195   7.270  0.0707  2.1717 -0.6569
 7028SOL     OW21782   2.396   0.026   2.103 -0.6081  0.0733 -0.1822
 7028SOL    HW121783   2.438  -0.035   2.042  1.2369 -0.0146  1.0861
 7028SOL    HW221784   2.410  -0.013   2.189 -1.2248  1.2645  0.4747
 7029SOL     OW21785   1.655   1.803   2.610  0.5077 -1.1693 -0.2609
 7029SOL    HW121786   1.684   1.731   2.553  0.3050 -0.2994 -1.5265
 7029SOL    HW221787   1.728   1.864   2.609 -0.0902 -0.4328 -0.8833
 7030SOL     OW21788   1.318   7.854   7.738 -0.6931  0.0162 -0.1374
 7030SOL    HW121789   1.392   7.795   7.752  1.1507  2.5744  1.9047
 7030SOL    HW221790   1.256   7.832   7.807 -0.4381 -0.1393  0.0432
 7031SOL     OW21791   0.003   0.100   4.909 -0.7841  0.3546  0.2100
 7031SOL    HW121792  -0.092   0.095   4.908 -0.7597 -0.3355  0.4821
 7031SOL    HW221793   0.032   0.012   4.884 -0.2360  0.1446  1.4816
 7032SOL     OW21794   5.677   4.267   2.413  0.2130  0.2486 -0.5967
 7032SOL    HW121795   5.657   4.354   2.379  0.6544  0.5111 -0.2004
 7032SOL    HW221796   5.738   4.229   2.350  1.4362  0.9320  0.1350
 7033SOL     OW21797   1.536   1.071   4.938 -0.1215  0.3193 -0.6175
 7033SOL    HW121798   1.573   0.995   4.894  0.2272  0.7600 -1.1039
 7033SOL    HW221799   1.603   1.098   5.001  0.5595  1.3053 -1.7155
 7034SOL     OW21800   3.096   4.400   6.790 -0.0772 -0.0333  0.0117
 7034SOL    HW121801   3.032   4.334   6.819  0.3787 -0.0712  0.9824
 7034SOL    HW221802   3.090   4.469   6.856  0.1071  0.4813 -0.5011
 7035SOL     OW21803   7.015   6.760   2.499  0.0487  0.1423 -0.3161
 7035SOL    HW121804   7.098   6.751   2.453  0.2767 -0.3277  0.1845
 7035SOL    HW221805   6.948   6.744   2.432  0.3839 -2.5351 -0.1068
 7036SOL     OW21806   4.266   3.167   2.273 -0.3165  0.3148  0.0703
 7036SOL    HW121807   4.307   3.232   2.216  3.2027 -2.0686 -0.4250
 7036SOL    HW221808   4.298   3.190   2.361 -1.9755  1.2659  0.4577
 7037SOL     OW21809   3.903   6.436   5.206  0.4839  0.0909 -0.5603
 7037SOL    HW121810   3.832   6.499   5.214  0.7005  0.1488  1.6203
 7037SOL    HW221811   3.951   6.462   5.127  0.4113  2.5127  0.1325
 7038SOL     OW21812   1.213   4.313   3.901  0.1011  0.2610 -0.3642
 7038SOL    HW121813   1.275   4.339   3.969 -0.5057 -0.4277  0.4830
 7038SOL    HW221814   1.221   4.218   3.896 -1.1092  0.1202 -0.0033
 7039SOL     OW21815   6.449   3.868   3.786 -0.3328  0.1009  0.3194
 7039SOL    HW121816   6.489   3.934   3.729  2.5502 -0.6062  1.3661
 7039SOL    HW221817   6.440   3.790   3.730  1.2875 -0.2056  0.4572
 7040SOL     OW21818   1.006   0.743   2.314 -0.4191 -0.2744  0.7596
 7040SOL    HW121819   0.962   0.770   2.394 -1.4205  0.1731  0.0756
 7040SOL    HW221820   1.014   0.823   2.262  2.3840 -0.0612  1.3605
 7041SOL     OW21821   4.614   2.634   7.113 -0.1604  0.0088 -0.1088
 7041SOL    HW121822   4.527   2.598   7.101 -1.2100  2.2349  0.2676
 7041SOL    HW221823   4.624   2.644   7.207 -0.2018  1.2553 -0.2121
 7042SOL     OW21824   5.967   3.084   6.485  0.1361 -0.1808  0.4382
 7042SOL    HW121825   6.007   3.062   6.569 -1.4096  0.7123  1.4558
 7042SOL    HW221826   5.943   3.176   6.493 -1.1384 -0.4066 -0.5304
 7043SOL     OW21827   1.608   1.461   3.096 -0.3848  0.3771 -0.2054
 7043SOL    HW121828   1.632   1.458   3.004 -1.2673 -0.3179 -0.4351
 7043SOL    HW221829   1.526   1.411   3.101 -0.2225  0.1853  0.9908
 7044SOL     OW21830   5.133   1.568   5.540 -0.0632 -0.0104 -0.5150
 7044SOL    HW121831   5.050   1.531   5.571  0.0821 -0.1198 -0.2498
 7044SOL    HW221832   5.108   1.641   5.485 -0.3223  1.0286  0.9172
 7045SOL     OW21833   2.309   0.390   6.812  0.1772  0.2427 -0.1486
 7045SOL    HW121834   2.227   0.423   6.774 -0.0218 -0.5518 -0.4284
 7045SOL    HW221835   2.376   0.450   6.779 -0.2687  0.8370 -0.0048
 7046SOL     OW21836   1.989   6.990   6.560  0.5205  0.0848  0.3889
 7046SOL    HW121837   2.012   6.934   6.634  0.2023 -0.7870 -0.1597
 7046SOL    HW221838   1.943   6.932   6.499  0.9054  0.7486 -0.5645
 7047SOL     OW21839   3.504   3.893   0.865 -0.1942  0.1378 -0.2532
 7047SOL    HW121840   3.412   3.921   0.862 -0.3296 -0.3422 -0.8823
 7047SOL    HW221841   3.532   3.911   0.954 -0.6614  1.0506 -0.2803
 7048SOL     OW21842   2.696   3.773   4.687  0.3179 -0.2539 -0.0772
 7048SOL    HW121843   2.686   3.708   4.757 -2.2924 -1.5815 -1.5124
 7048SOL    HW221844   2.632   3.746   4.621  0.8809  2.4130 -1.8501
 7049SOL     OW21845   3.022   6.348   3.197 -0.4324 -0.0131 -0.4386
 7049SOL    HW121846   3.003   6.281   3.264  0.1518  0.3506  0.1051
 7049SOL    HW221847   3.095   6.312   3.147  0.1370  0.3776  0.1005
 7050SOL     OW21848   3.970   3.406   5.680  0.1226 -0.2989 -0.0537
 7050SOL    HW121849   4.051   3.380   5.637 -1.2222 -1.3409 -2.0853
 7050SOL    HW221850   3.964   3.500   5.667  0.1746 -0.4754 -1.4317
 7051SOL     OW21851   6.391   7.354   3.005  0.2640  0.1045 -0.6474
 7051SOL    HW121852   6.333   7.397   2.942 -2.0605 -0.7487  0.7615
 7051SOL    HW221853   6.469   7.332   2.955  0.4192  3.3785 -2.0943
 7052SOL     OW21854   1.235   7.686   7.368 -0.8598  0.6199  0.7835
 7052SOL    HW121855   1.163   7.696   7.430 -1.0209  0.6878  0.5868
 7052SOL    HW221856   1.229   7.595   7.339  0.3680  0.0201  2.2789
 7053SOL     OW21857   0.503   7.450   2.488 -0.0239 -0.4447 -0.0204
 7053SOL    HW121858   0.543   7.408   2.564  0.7920 -0.5202 -0.4698
 7053SOL    HW221859   0.546   7.407   2.413 -0.4557 -0.0305 -0.5055
 7054SOL     OW21860   2.075   7.349   4.241  0.1854 -0.7538 -0.1038
 7054SOL    HW121861   2.127   7.429   4.242 -1.7986  0.6137 -0.5376
 7054SOL    HW221862   2.060   7.331   4.148  0.2221 -1.3655  0.0042
 7055SOL     OW21863   3.623   0.379   0.845  0.2943  0.5124  0.3225
 7055SOL    HW121864   3.606   0.450   0.782  0.0353  1.7267  1.6972
 7055SOL    HW221865   3.577   0.303   0.809  1.5249  0.6954 -1.7719
 7056SOL     OW21866   5.750   2.161   1.061 -0.0754  0.2139  0.3535
 7056SOL    HW121867   5.723   2.120   1.143  1.2225  1.6917  1.5970
 7056SOL    HW221868   5.744   2.255   1.078  2.3215  0.5888 -0.4340
 7057SOL     OW21869   5.038   3.613   3.386  0.3260 -0.2836  0.2324
 7057SOL    HW121870   5.102   3.585   3.320  1.0477 -0.7742  1.1164
 7057SOL    HW221871   4.977   3.669   3.338  1.4047  0.1753 -0.6456
 7058SOL     OW21872   5.388   0.354   3.401 -0.3964  0.2780  0.4381
 7058SOL    HW121873   5.428   0.421   3.455  0.1243  0.4861 -0.1924
 7058SOL    HW221874   5.422   0.271   3.435 -1.3191  0.2964  1.4479
 7059SOL     OW21875   2.677   5.389   2.690  0.2050  0.0078 -0.4016
 7059SOL    HW121876   2.686   5.299   2.659  0.4826 -0.3373  0.6659
 7059SOL    HW221877   2.740   5.397   2.761  0.0267  0.9875 -0.3390
 7060SOL     OW21878   3.498   5.726   7.135  0.0601  0.2097  0.5762
 7060SOL    HW121879   3.564   5.672   7.176  0.7795 -0.0088 -0.8030
 7060SOL    HW221880   3.435   5.664   7.098  0.7822  0.2562 -0.8350
 7061SOL     OW21881   0.335   6.166   1.414  0.8765  0.1740  0.0867
 7061SOL    HW121882   0.316   6.077   1.383  1.3670 -0.4067  1.3627
 7061SOL    HW221883   0.379   6.208   1.340  1.5502 -0.9913 -0.2127
 7062SOL     OW21884   2.829   4.493   3.407  0.6099  0.1442  0.2912
 7062SOL    HW121885   2.784   4.568   3.447 -1.7121 -1.6131  1.1984
 7062SOL    HW221886   2.845   4.434   3.480  0.6244 -1.0648 -0.6767
 7063SOL     OW21887   6.097   2.812   5.817 -0.1132 -0.2285 -0.4176
 7063SOL    HW121888   6.024   2.803   5.756  0.4737 -0.3826 -1.1049
 7063SOL    HW221889   6.144   2.890   5.786  2.2670 -2.2856 -2.4217
 7064SOL     OW21890   3.613   3.030   6.298  0.4093  0.6426  0.2745
 7064SOL    HW121891   3.521   3.048   6.280  0.5480 -0.4991 -1.8083
 7064SOL    HW221892   3.661   3.100   6.253  0.6568 -0.8705 -1.9647
 7065SOL     OW21893   1.369   0.252   5.977 -0.2696 -0.3169 -0.7168
 7065SOL    HW121894   1.277   0.266   6.000 -0.1914 -1.9862  0.8200
 7065SOL    HW221895   1.381   0.157   5.978  2.0940 -0.1321  1.9417
 7066SOL     OW21896   1.999   5.444   1.519  0.0893  0.3349 -0.1862
 7066SOL    HW121897   1.956   5.412   1.440 -0.0107 -0.6516  0.2508
 7066SOL    HW221898   1.996   5.370   1.580  0.7712  0.8525  0.5021
 7067SOL     OW21899   5.859   6.394   7.694  0.1597  0.2164  0.3837
 7067SOL    HW121900   5.788   6.430   7.748  0.9679  1.7536  0.4749
 7067SOL    HW221901   5.838   6.423   7.605  1.0271  1.3055  0.5155
 7068SOL     OW21902   6.989   7.116   5.586  0.5229  0.0786 -0.3512
 7068SOL    HW121903   6.966   7.034   5.541 -0.7628  0.8655 -1.1910
 7068SOL    HW221904   6.906   7.162   5.595  1.0388  0.7357  1.2993
 7069SOL     OW21905   3.673   4.082   0.477 -0.4053  0.0470 -0.1498
 7069SOL    HW121906   3.744   4.059   0.537 -0.7419  0.0551  0.2629
 7069SOL    HW221907   3.638   3.998   0.447  0.4885  0.0415 -1.2272
 7070SOL     OW21908   5.581   1.788   5.557 -0.5333  0.4470  0.5746
 7070SOL    HW121909   5.649   1.854   5.546 -0.7548  0.7044  0.7229
 7070SOL    HW221910   5.618   1.725   5.619  0.2593 -0.3754 -0.6985
 7071SOL     OW21911   5.151   5.958   4.523 -0.3487 -0.0163 -0.4324
 7071SOL    HW121912   5.189   6.029   4.473 -0.5865  0.2084 -0.2971
 7071SOL    HW221913   5.129   5.997   4.608 -2.7164  0.3974 -1.1590
 7072SOL     OW21914   6.686   3.301   7.157 -0.4672  0.0155  0.5438
 7072SOL    HW121915   6.728   3.290   7.242  1.2219 -1.2064 -0.3906
 7072SOL    HW221916   6.607   3.248   7.162  0.4640 -1.3844  0.8225
 7073SOL     OW21917   1.670   6.724   7.230 -0.3818  0.0168  0.1230
 7073SOL    HW121918   1.587   6.684   7.204  0.2651 -0.5054 -1.2112
 7073SOL    HW221919   1.649   6.816   7.242 -1.4518 -0.3366  1.2109
 7074SOL     OW21920   7.374   2.022   7.885 -0.2811 -0.0677 -0.5521
 7074SOL    HW121921   7.390   1.989   7.797 -1.0333 -1.4163 -0.2162
 7074SOL    HW221922   7.279   2.014   7.897 -0.0709 -0.9086  0.7431
 7075SOL     OW21923   5.446   2.119   3.122  0.2791  0.7255  0.3975
 7075SOL    HW121924   5.470   2.144   3.033 -0.0549 -1.0997 -0.2394
 7075SOL    HW221925   5.511   2.163   3.178  2.4873 -0.6161 -0.9749
 7076SOL     OW21926   2.563   4.109   5.960 -0.9349 -0.2843  0.3585
 7076SOL    HW121927   2.528   4.021   5.978 -1.5811  0.2976  2.1854
 7076SOL    HW221928   2.639   4.116   6.018 -1.1746  0.5253  0.5893
 7077SOL     OW21929   5.493   5.694   6.628  0.2914 -0.1541  0.3804
 7077SOL    HW121930   5.486   5.616   6.684 -0.6465 -0.4221 -0.0941
 7077SOL    HW221931   5.529   5.661   6.546 -1.4073 -0.3632 -0.3161
 7078SOL     OW21932   0.550   5.845   1.506 -0.0249 -0.7521  0.6834
 7078SOL    HW121933   0.494   5.868   1.580  0.1066  0.7157  0.3585
 7078SOL    HW221934   0.639   5.846   1.541  0.0558  0.1668  0.4618
 7079SOL     OW21935   6.777   5.332   4.241  0.2431  0.2136 -0.3770
 7079SOL    HW121936   6.749   5.420   4.215  1.6544  0.7436 -0.2336
 7079SOL    HW221937   6.816   5.344   4.328  0.9484 -0.4369 -0.5937
 7080SOL     OW21938   5.904   1.575   6.903 -0.6375  0.1190  0.6056
 7080SOL    HW121939   5.992   1.587   6.938 -0.6821  0.7317  0.5175
 7080SOL    HW221940   5.909   1.608   6.813 -0.2670 -2.3438 -0.3592
 7081SOL     OW21941   0.428   0.098   7.375 -0.6947 -0.4656 -0.4876
 7081SOL    HW121942   0.522   0.114   7.370 -1.1179  3.1989  0.0338
 7081SOL    HW221943   0.411   0.080   7.467 -0.7681  2.1102  0.0744
 7082SOL     OW21944   1.833   5.571   3.747  0.4642  0.1215  0.3620
 7082SOL    HW121945   1.824   5.646   3.805 -0.7273  0.2168  0.0728
 7082SOL    HW221946   1.863   5.608   3.664 -1.8594  0.5564 -0.3421
 7083SOL     OW21947   7.403   7.690   6.383 -0.0708 -0.6075  0.0576
 7083SOL    HW121948   7.477   7.702   6.442 -1.1097 -0.0124  1.2694
 7083SOL    HW221949   7.327   7.684   6.440 -1.0000 -0.9266 -1.1797
 7084SOL     OW21950   6.256   1.649   5.222  0.0110  0.1228 -0.5188
 7084SOL    HW121951   6.237   1.571   5.170 -0.3910  0.2125 -0.5078
 7084SOL    HW221952   6.237   1.622   5.312 -1.5508  0.6649 -0.6579
 7085SOL     OW21953   4.965   2.214   7.299 -0.4314 -0.8500 -0.2150
 7085SOL    HW121954   4.955   2.119   7.306 -0.5147 -0.8108  0.2266
 7085SOL    HW221955   4.906   2.239   7.227 -1.5479 -0.9489  0.6379
 7086SOL     OW21956   6.240   6.125   5.597 -0.9187  0.5009 -0.2325
 7086SOL    HW121957   6.200   6.038   5.591  0.2915 -0.0426 -0.8471
 7086SOL    HW221958   6.261   6.136   5.689  0.1453 -0.4535 -0.3421
 7087SOL     OW21959   4.284   2.846   3.848 -0.2624  0.1099 -0.1206
 7087SOL    HW121960   4.243   2.764   3.877 -2.2520  1.0554 -0.0474
 7087SOL    HW221961   4.319   2.885   3.928  0.9689 -0.7774 -0.2009
 7088SOL     OW21962   2.308   6.985   1.685  0.5925  0.2331  0.3755
 7088SOL    HW121963   2.374   7.029   1.632  1.0142 -1.5352 -0.6478
 7088SOL    HW221964   2.236   6.967   1.625  0.1325  0.1432  0.9423
 7089SOL     OW21965   5.465   1.106   0.221  0.3119 -0.7154  0.0220
 7089SOL    HW121966   5.435   1.190   0.186  1.2392 -0.4337 -0.1087
 7089SOL    HW221967   5.391   1.075   0.273 -0.8481 -0.8467 -1.6359
 7090SOL     OW21968   6.188   6.264   4.936 -0.0582 -0.0866  0.5347
 7090SOL    HW121969   6.214   6.176   4.964 -0.5042 -0.2970  0.3048
 7090SOL    HW221970   6.169   6.255   4.842 -1.2941 -0.0289  0.7636
 7091SOL     OW21971   4.333   0.937   2.501 -0.3068  0.2595  0.2632
 7091SOL    HW121972   4.282   1.016   2.520  0.8334  1.2519 -0.6084
 7091SOL    HW221973   4.320   0.922   2.407  1.3832  0.8588 -0.0981
 7092SOL     OW21974   6.676   1.264   1.742  0.0101 -0.4192  0.0909
 7092SOL    HW121975   6.586   1.288   1.764 -0.5295 -3.0998  1.2876
 7092SOL    HW221976   6.689   1.180   1.787  1.8350 -2.0139 -3.0563
 7093SOL     OW21977   1.121   3.511   1.437  0.2515  0.3794  0.3912
 7093SOL    HW121978   1.147   3.518   1.345 -1.5018  0.2435 -0.1508
 7093SOL    HW221979   1.203   3.495   1.484  1.0922 -0.3456 -1.2410
 7094SOL     OW21980   5.823   6.275   5.340  0.0583 -0.4883 -0.0736
 7094SOL    HW121981   5.791   6.250   5.254  1.9879 -1.0331 -0.6835
 7094SOL    HW221982   5.844   6.191   5.383  1.8472 -0.1624 -0.2238
 7095SOL     OW21983   3.621   5.528   5.437  0.5950 -0.0264  0.3155
 7095SOL    HW121984   3.688   5.558   5.500 -0.6075 -1.9630  2.6847
 7095SOL    HW221985   3.636   5.434   5.430 -1.0403 -0.2684 -0.1848
 7096SOL     OW21986   4.385   5.761   3.851  0.1182  0.1925 -0.2985
 7096SOL    HW121987   4.400   5.729   3.762 -3.3093 -0.1190 -0.9210
 7096SOL    HW221988   4.315   5.825   3.841 -0.8899 -0.4128  2.2500
 7097SOL     OW21989   6.952   3.479   6.880 -0.1418  0.1372 -0.3216
 7097SOL    HW121990   6.896   3.521   6.814  0.0552  0.8024 -0.0734
 7097SOL    HW221991   6.955   3.387   6.853 -0.1905  0.3657 -1.1495
 7098SOL     OW21992   1.336   4.867   3.345 -0.1799 -0.0041 -0.7123
 7098SOL    HW121993   1.365   4.823   3.425  0.5561 -0.0418 -0.9951
 7098SOL    HW221994   1.262   4.815   3.315  0.6725 -1.0694 -1.0412
 7099SOL     OW21995   1.293   6.549   7.948  0.6317  0.1562 -0.1295
 7099SOL    HW121996   1.227   6.544   8.017 -1.0952  1.6806 -1.5903
 7099SOL    HW221997   1.284   6.467   7.900  1.4681 -0.6689  1.0289
 7100SOL     OW21998   3.005   7.621   1.329 -0.0790 -0.1616 -0.5023
 7100SOL    HW121999   2.986   7.713   1.310 -0.3526 -0.6646 -3.0408
 7100SOL    HW222000   3.076   7.623   1.393 -0.1561  1.7968 -0.4379
 7101SOL     OW22001   5.230   1.718   5.803  0.1452  0.2108 -0.1847
 7101SOL    HW122002   5.186   1.713   5.718  0.5011  1.3640 -0.4541
 7101SOL    HW222003   5.200   1.800   5.840  0.0738 -0.2379  0.7783
 7102SOL     OW22004   5.005   1.236   7.714  0.4983  0.8440  0.2128
 7102SOL    HW122005   4.937   1.272   7.772  0.0643 -0.3840  0.5001
 7102SOL    HW222006   5.073   1.205   7.774 -0.8007 -2.2005  0.2810
 7103SOL     OW22007   4.390   0.308   4.302 -0.3748  0.9061  0.0278
 7103SOL    HW122008   4.359   0.286   4.390 -1.2241  1.7255 -0.0501
 7103SOL    HW222009   4.470   0.359   4.317 -1.1862  2.1110  0.3890
 7104SOL     OW22010   6.938   2.199   3.293  0.5239  0.2901 -0.0608
 7104SOL    HW122011   6.922   2.272   3.234 -2.4138 -1.0814 -1.1474
 7104SOL    HW222012   6.905   2.229   3.378  2.2300  1.2827  0.2913
 7105SOL     OW22013   1.492   0.485   7.718 -0.1320  0.4048  0.8848
 7105SOL    HW122014   1.427   0.481   7.787 -0.8275  0.6643  0.2632
 7105SOL    HW222015   1.542   0.565   7.736 -1.0172  1.0651  0.4869
 7106SOL     OW22016   2.225   3.466   4.027 -0.1422  0.5993  0.0475
 7106SOL    HW122017   2.141   3.508   4.048 -0.4668  0.9486 -1.7988
 7106SOL    HW222018   2.221   3.381   4.070 -2.2197 -0.1221 -1.4047
 7107SOL     OW22019   7.710   5.265   6.144 -0.3327  0.5124 -0.2931
 7107SOL    HW122020   7.673   5.352   6.129 -2.5229 -0.5525 -1.5226
 7107SOL    HW222021   7.734   5.233   6.057 -2.1475 -1.1400 -0.2543
 7108SOL     OW22022   4.779   2.037   5.855 -0.4394  0.1645 -0.1412
 7108SOL    HW122023   4.836   2.046   5.779 -3.3785 -1.2929 -2.7786
 7108SOL    HW222024   4.799   1.951   5.890  0.1364  0.3672  0.0396
 7109SOL     OW22025   3.858   6.833   4.146 -0.0562  0.2586 -0.7405
 7109SOL    HW122026   3.787   6.771   4.129  0.8850 -1.0826  0.0080
 7109SOL    HW222027   3.905   6.839   4.062 -0.6313  0.6120 -1.0440
 7110SOL     OW22028   7.828   4.696   3.991  0.0431 -0.0086 -0.2841
 7110SOL    HW122029   7.747   4.728   3.954 -1.7468 -3.1160  0.5235
 7110SOL    HW222030   7.836   4.742   4.075 -1.8778 -0.8476  0.4171
 7111SOL     OW22031   5.639   4.231   4.693  0.6547 -0.2955  0.1508
 7111SOL    HW122032   5.706   4.199   4.632  1.1343  1.2522 -0.1840
 7111SOL    HW222033   5.685   4.294   4.748 -0.5723  1.0304 -0.2801
 7112SOL     OW22034   5.381   4.098   6.570  0.4799  0.2046 -0.5297
 7112SOL    HW122035   5.367   4.186   6.605 -1.2275  0.4643 -1.7423
 7112SOL    HW222036   5.436   4.054   6.635  1.1680  2.0727  0.2192
 7113SOL     OW22037   5.390   3.890   3.933  0.2473  0.4231  0.1055
 7113SOL    HW122038   5.333   3.882   4.010  0.1190 -1.9914 -0.1687
 7113SOL    HW222039   5.346   3.955   3.877 -0.7950  0.5947  1.0962
 7114SOL     OW22040   0.548   5.409   4.983  0.3270 -1.3841 -0.5175
 7114SOL    HW122041   0.599   5.490   4.983  0.8884 -1.7272 -0.6490
 7114SOL    HW222042   0.599   5.349   4.928 -1.0028 -1.2690 -1.9371
 7115SOL     OW22043   7.895   1.418   5.438  0.0463 -0.4303 -0.4365
 7115SOL    HW122044   7.987   1.394   5.444 -0.0871 -1.0895 -0.9320
 7115SOL    HW222045   7.856   1.385   5.518  0.1088 -0.7574 -0.5409
 7116SOL     OW22046   7.903   6.685   0.484 -0.4147  0.1664 -0.3496
 7116SOL    HW122047   7.948   6.683   0.568  1.3588  1.7115 -1.2100
 7116SOL    HW222048   7.852   6.603   0.483  0.9526 -0.7830  1.4250
 7117SOL     OW22049   2.941   3.639   7.379  0.0460 -0.5637 -0.0064
 7117SOL    HW122050   2.979   3.682   7.302  0.1398  0.6940  0.7170
 7117SOL    HW222051   2.957   3.700   7.451  1.0961 -2.2767  1.2847
 7118SOL     OW22052   6.085   5.386   2.793  1.0602 -0.1811  0.4310
 7118SOL    HW122053   6.167   5.366   2.839  2.0559 -0.5396 -1.4005
 7118SOL    HW222054   6.063   5.305   2.748  1.9503  1.0021 -2.3536
 7119SOL     OW22055   4.624   4.170   7.644  0.4825  0.1702 -0.0234
 7119SOL    HW122056   4.697   4.137   7.695 -0.2858 -0.9706  0.3774
 7119SOL    HW222057   4.626   4.118   7.563  1.3516  1.5741 -0.9561
 7120SOL     OW22058   3.798   1.951   6.982  0.0088 -0.0918 -0.0307
 7120SOL    HW122059   3.709   1.930   6.953 -0.9643  1.9295  1.2660
 7120SOL    HW222060   3.804   1.913   7.069  0.9528 -1.4477 -0.6716
 7121SOL     OW22061   1.885   2.718   3.021  0.3254  0.6979 -0.4848
 7121SOL    HW122062   1.797   2.719   2.983  0.2615  2.9509 -0.4395
 7121SOL    HW222063   1.881   2.783   3.091  1.6508 -0.2500  0.5193
 7122SOL     OW22064   3.984   0.759   7.685 -0.2297  0.0330 -0.1719
 7122SOL    HW122065   4.006   0.672   7.652 -0.3573 -0.6956  1.5585
 7122SOL    HW222066   3.958   0.744   7.775 -0.9100  1.7991 -0.0417
 7123SOL     OW22067   2.814   5.275   4.367  0.0752 -0.2824  0.1913
 7123SOL    HW122068   2.870   5.348   4.394 -1.4115  0.7151  0.7178
 7123SOL    HW222069   2.773   5.245   4.449  0.6467 -1.7200 -0.0209
 7124SOL     OW22070   0.791   6.200   3.479  0.3261 -0.3357 -0.1842
 7124SOL    HW122071   0.832   6.234   3.400  1.2689  1.4753  0.9910
 7124SOL    HW222072   0.795   6.274   3.541 -0.9752 -1.4635  1.3205
 7125SOL     OW22073   3.451   1.420   5.442  0.2566  0.6792  0.0032
 7125SOL    HW122074   3.358   1.408   5.424  0.2747  1.1839 -0.4363
 7125SOL    HW222075   3.495   1.362   5.380  0.1951 -1.3635  1.7543
 7126SOL     OW22076   1.364   3.582   7.040  0.1372 -0.4699 -0.5190
 7126SOL    HW122077   1.299   3.553   7.105  0.9455 -0.0179  0.5241
 7126SOL    HW222078   1.439   3.610   7.093  1.2828 -1.1994 -1.7021
 7127SOL     OW22079   7.862   2.106   7.439  0.4196  0.4819 -0.6289
 7127SOL    HW122080   7.919   2.037   7.406 -0.5757 -2.4049  2.9613
 7127SOL    HW222081   7.906   2.137   7.519 -0.7259  1.6786 -0.4245
 7128SOL     OW22082   4.018   6.951   0.459 -0.2954 -0.4644 -0.4329
 7128SOL    HW122083   4.035   6.938   0.366  0.2414 -0.1808 -0.3791
 7128SOL    HW222084   4.074   7.025   0.484 -0.3601 -0.5989  0.1356
 7129SOL     OW22085   5.113   6.496   4.561  0.5321 -0.0534 -0.2403
 7129SOL    HW122086   5.199   6.513   4.523  0.1430  0.5420 -0.8779
 7129SOL    HW222087   5.130   6.486   4.655  1.4143 -0.8820 -0.4797
 7130SOL     OW22088   5.983   1.809   5.582 -0.0885  0.0111 -0.8189
 7130SOL    HW122089   5.910   1.830   5.524  0.0567 -1.7413 -1.7046
 7130SOL    HW222090   5.991   1.714   5.577  1.5699  0.0660  0.1025
 7131SOL     OW22091   2.735   5.781   5.810 -0.1948  0.7292 -0.0597
 7131SOL    HW122092   2.809   5.806   5.755 -1.1951  0.8842 -1.3833
 7131SOL    HW222093   2.663   5.768   5.748 -1.7956  2.4701  1.3167
 7132SOL     OW22094   2.788   0.756   2.119  0.0983  0.4367 -0.4715
 7132SOL    HW122095   2.737   0.687   2.160  1.4956 -0.6885 -0.5565
 7132SOL    HW222096   2.822   0.717   2.039 -0.7231  1.8882 -1.5929
 7133SOL     OW22097   5.466   5.355   3.113 -0.6552  0.4264 -0.1535
 7133SOL    HW122098   5.504   5.346   3.200  1.2061 -3.8588 -1.1603
 7133SOL    HW222099   5.488   5.444   3.086  1.7278  0.7363  2.4278
 7134SOL     OW22100   2.763   4.388   6.036  1.0845  0.0747  0.7093
 7134SOL    HW122101   2.736   4.317   6.094  1.1064 -0.8746 -0.4070
 7134SOL    HW222102   2.765   4.466   6.092 -0.0433 -0.5848  1.7009
 7135SOL     OW22103   3.889   7.724   7.306  0.6270 -0.2613 -0.1250
 7135SOL    HW122104   3.831   7.722   7.382  0.4144  0.4958 -0.2524
 7135SOL    HW222105   3.888   7.816   7.279  1.0083 -0.4555 -0.8052
 7136SOL     OW22106   3.001   6.209   7.768 -0.9503 -0.4152 -0.0146
 7136SOL    HW122107   2.931   6.273   7.784  0.2601  1.5251 -2.0117
 7136SOL    HW222108   3.023   6.177   7.856 -2.7089  0.6808  0.9069
 7137SOL     OW22109   3.138   2.712   3.764 -0.1869  0.3837 -0.3990
 7137SOL    HW122110   3.170   2.785   3.711 -0.3765  1.5864  1.0876
 7137SOL    HW222111   3.048   2.735   3.785 -0.1706 -0.1532  0.2986
 7138SOL     OW22112   3.313   6.384   4.696 -0.5692 -0.1602 -0.0598
 7138SOL    HW122113   3.393   6.381   4.749  0.6154  0.9825 -1.6729
 7138SOL    HW222114   3.245   6.414   4.756  0.5757  0.4537  0.9720
 7139SOL     OW22115   7.136   5.321   3.219 -0.3194 -0.0929  0.4758
 7139SOL    HW122116   7.186   5.279   3.288  1.9608  1.7990  0.1045
 7139SOL    HW222117   7.117   5.409   3.253  0.0853  0.5671 -0.9212
 7140SOL     OW22118   6.594   7.797   0.328  0.2111 -0.4684 -0.0112
 7140SOL    HW122119   6.608   7.871   0.269  0.0176 -0.9493 -0.6710
 7140SOL    HW222120   6.603   7.719   0.273  3.3089 -1.1261  1.1560
 7141SOL     OW22121   0.965   5.072   6.438 -0.2803  0.4280  0.5894
 7141SOL    HW122122   0.992   5.001   6.497 -0.9942 -1.1301 -0.8977
 7141SOL    HW222123   1.009   5.150   6.473  1.6747 -0.9835  1.4562
 7142SOL     OW22124   4.150   6.103   7.764 -0.5961  0.2495  0.0091
 7142SOL    HW122125   4.145   6.189   7.721 -0.7369 -0.7660 -2.1761
 7142SOL    HW222126   4.062   6.088   7.796 -1.1198  0.0986 -1.4102
 7143SOL     OW22127   7.814   1.259   0.776  0.3967  0.0025 -0.5303
 7143SOL    HW122128   7.785   1.197   0.842 -1.1276  1.1108 -0.1112
 7143SOL    HW222129   7.885   1.307   0.819  0.3209 -0.1886 -0.1877
 7144SOL     OW22130   6.040   7.119   2.144 -0.2004 -0.3346 -0.1744
 7144SOL    HW122131   6.004   7.158   2.224 -0.2573  0.2038 -0.4527
 7144SOL    HW222132   6.115   7.068   2.173  0.2458  0.4721  0.1423
 7145SOL     OW22133   1.327   3.395   1.832 -0.3621  1.0680 -0.0565
 7145SOL    HW122134   1.340   3.439   1.748 -0.4555 -0.0894 -0.7018
 7145SOL    HW222135   1.234   3.409   1.852 -0.5317  0.6727 -0.5501
 7146SOL     OW22136   3.859   1.289   5.123 -0.0780  0.1308  0.0879
 7146SOL    HW122137   3.821   1.344   5.055  2.3723  1.6405 -0.1766
 7146SOL    HW222138   3.843   1.337   5.205  1.5070  0.9859 -0.0712
 7147SOL     OW22139   3.872   7.559   6.338 -0.2020  0.0339 -0.2950
 7147SOL    HW122140   3.948   7.570   6.282  0.1012  0.4766  0.1961
 7147SOL    HW222141   3.809   7.510   6.285  0.2808 -0.0066 -0.8293
 7148SOL     OW22142   5.671   7.474   0.781  0.0364 -0.1463 -0.7364
 7148SOL    HW122143   5.621   7.554   0.767 -0.3800 -0.6203 -2.1721
 7148SOL    HW222144   5.681   7.437   0.693  1.4119 -0.9596 -0.2657
 7149SOL     OW22145   6.669   3.841   6.773  0.4312  0.4285  0.0074
 7149SOL    HW122146   6.610   3.916   6.758  0.3444  0.4610  0.4943
 7149SOL    HW222147   6.687   3.843   6.867  3.3197  1.9979 -0.4603
 7150SOL     OW22148   0.146   3.049   3.631  0.1456  0.4100  0.3613
 7150SOL    HW122149   0.130   3.067   3.724 -0.8799  0.4178  0.2017
 7150SOL    HW222150   0.227   2.998   3.629 -0.1463 -0.1142  1.3207
 7151SOL     OW22151   4.590   4.131   4.034  0.0030  0.5654  0.1284
 7151SOL    HW122152   4.499   4.120   4.061  0.5897 -0.9480  1.6282
 7151SOL    HW222153   4.591   4.103   3.942 -0.7324 -1.1358  0.6085
 7152SOL     OW22154   7.248   4.892   2.721 -0.2402  0.2982  0.4181
 7152SOL    HW122155   7.177   4.938   2.766 -2.2781 -2.5856  0.4053
 7152SOL    HW222156   7.239   4.917   2.629 -1.3169 -0.0746  0.4103
 7153SOL     OW22157   1.350   3.279   7.775  0.0633  0.6452  0.6591
 7153SOL    HW122158   1.432   3.229   7.773  0.2180  0.9150 -0.6626
 7153SOL    HW222159   1.339   3.311   7.686 -0.6773  1.9442  1.1833
 7154SOL     OW22160   6.793   3.545   7.122 -0.3197 -0.1653  0.1252
 7154SOL    HW122161   6.867   3.534   7.063  0.6669  0.1795  1.2634
 7154SOL    HW222162   6.753   3.458   7.127  2.1795 -1.3301  2.2397
 7155SOL     OW22163   3.206   3.059   0.405  0.7390  0.0372  0.1337
 7155SOL    HW122164   3.235   3.030   0.319  4.3091 -0.5718  1.4013
 7155SOL    HW222165   3.214   2.981   0.460  1.1378  1.0744  1.5782
 7156SOL     OW22166   6.857   6.049   5.152  0.2510 -0.7565 -0.0194
 7156SOL    HW122167   6.874   5.963   5.190  0.1545 -0.3264  1.0394
 7156SOL    HW222168   6.791   6.033   5.084  0.3211 -1.5318  0.0921
 7157SOL     OW22169   7.829   6.230   4.753 -0.2819 -0.2153  0.2871
 7157SOL    HW122170   7.902   6.214   4.812 -1.2574 -0.4903  1.4638
 7157SOL    HW222171   7.791   6.313   4.784 -1.1107 -0.6199  0.3850
 7158SOL     OW22172   2.128   3.045   2.956  0.1842  0.2578 -0.1850
 7158SOL    HW122173   2.144   2.959   2.994  1.2302  0.6179  0.2311
 7158SOL    HW222174   2.048   3.076   2.999  0.3600 -0.0909  0.4000
 7159SOL     OW22175   1.435   6.295   7.384  0.4776  0.4932  0.4931
 7159SOL    HW122176   1.392   6.266   7.465 -0.9645  0.8775 -0.1027
 7159SOL    HW222177   1.405   6.385   7.372  1.6241  0.8495  0.1425
 7160SOL     OW22178   0.027   2.066   1.724  0.1255 -0.0799  0.3458
 7160SOL    HW122179   0.019   2.070   1.629  0.6697  0.7987  0.3284
 7160SOL    HW222180   0.098   2.003   1.740 -1.0913 -1.5133  0.2395
 7161SOL     OW22181   3.863   2.183   6.430  0.2581  0.3196 -0.1016
 7161SOL    HW122182   3.840   2.115   6.367 -0.6741 -0.1392  0.6856
 7161SOL    HW222183   3.958   2.183   6.433  0.3105 -2.1194  1.0403
 7162SOL     OW22184   4.367   5.536   5.519 -0.0087  0.2150 -0.1416
 7162SOL    HW122185   4.332   5.455   5.556 -0.6750 -0.7864 -2.7820
 7162SOL    HW222186   4.385   5.516   5.428  3.9502  1.7770  0.0566
 7163SOL     OW22187   3.143   2.499   6.622  0.1356  0.3403  0.4183
 7163SOL    HW122188   3.187   2.415   6.606  0.7131  0.8353 -0.6561
 7163SOL    HW222189   3.189   2.562   6.567 -1.3581  1.0480 -0.0841
 7164SOL     OW22190   3.129   7.613   4.375  0.4044  0.0783  0.9314
 7164SOL    HW122191   3.149   7.697   4.417 -0.2624  0.0477  1.3211
 7164SOL    HW222192   3.193   7.607   4.304  1.2832  0.3160  1.6834
 7165SOL     OW22193   5.976   1.041   3.711 -0.4371 -0.2145  0.4419
 7165SOL    HW122194   5.982   0.949   3.685 -1.0830 -0.2165  0.2811
 7165SOL    HW222195   6.001   1.089   3.632 -0.9585 -0.2410  0.2591
 7166SOL     OW22196   2.186   3.550   7.086  0.3505  0.2234  0.4671
 7166SOL    HW122197   2.173   3.497   7.164 -2.4249 -0.5742 -0.4213
 7166SOL    HW222198   2.191   3.486   7.014 -0.6368  1.0333 -0.3550
 7167SOL     OW22199   0.017   5.360   3.504 -0.2256 -0.4412  0.1390
 7167SOL    HW122200  -0.047   5.430   3.518 -0.6473 -1.0808  1.6193
 7167SOL    HW222201  -0.035   5.280   3.499  0.3888 -0.9102  0.8400
 7168SOL     OW22202   1.446   0.476   1.884 -0.1383  0.0273 -0.2670
 7168SOL    HW122203   1.379   0.407   1.889  0.1751 -0.4982 -2.2696
 7168SOL    HW222204   1.469   0.480   1.791  1.2464  1.5305  0.0925
 7169SOL     OW22205   5.727   5.096   1.090 -0.1540 -0.0171 -0.0989
 7169SOL    HW122206   5.733   5.001   1.084 -0.7015  0.0029 -1.3293
 7169SOL    HW222207   5.696   5.113   1.179 -2.0797 -1.1159 -0.5159
 7170SOL     OW22208   3.764   4.590   3.211  0.1191  0.3050 -0.1229
 7170SOL    HW122209   3.776   4.561   3.121 -0.3942  2.3228 -0.9101
 7170SOL    HW222210   3.726   4.515   3.257 -2.0324  0.0133 -2.2225
 7171SOL     OW22211   0.820   5.737   6.833 -0.0907  0.0103  0.1516
 7171SOL    HW122212   0.912   5.757   6.813  0.2875 -1.7375 -0.0476
 7171SOL    HW222213   0.812   5.748   6.927  0.1708  0.7101  0.0957
 7172SOL     OW22214   1.287   5.741   7.350  0.6315 -0.1280  0.6282
 7172SOL    HW122215   1.335   5.728   7.268 -1.1300  0.4464 -0.5245
 7172SOL    HW222216   1.346   5.794   7.404  2.3562 -1.5963  0.2814
 7173SOL     OW22217   6.741   1.767   3.667 -0.2425  0.3686  0.1310
 7173SOL    HW122218   6.831   1.786   3.692 -0.0455 -1.2074  0.7877
 7173SOL    HW222219   6.703   1.728   3.746 -0.5672 -1.7980 -1.0260
 7174SOL     OW22220   3.352   5.400   4.651 -0.0822 -0.3241 -0.2567
 7174SOL    HW122221   3.329   5.385   4.559 -0.8618 -0.2040 -0.0895
 7174SOL    HW222222   3.283   5.356   4.701  1.1603 -1.7142  0.3057
 7175SOL     OW22223   0.024   3.923   2.069  0.1532  0.3695 -0.2554
 7175SOL    HW122224  -0.027   3.845   2.089 -0.8479  0.8676 -0.7953
 7175SOL    HW222225   0.035   3.967   2.153  0.5395 -0.2350  0.0159
 7176SOL     OW22226   6.150   1.173   6.532  0.5442  0.0714 -0.1295
 7176SOL    HW122227   6.192   1.187   6.617 -0.5563 -1.6751  0.7536
 7176SOL    HW222228   6.180   1.087   6.504 -0.5496 -0.1573 -0.6300
 7177SOL     OW22229   3.201   4.558   0.050  0.4313  0.4974 -0.9542
 7177SOL    HW122230   3.263   4.515  -0.009  0.8272  0.0417 -0.2269
 7177SOL    HW222231   3.153   4.487   0.091  1.2729  0.6926  0.4559
 7178SOL     OW22232   2.303   7.422   3.952  0.5495  0.0509  0.3638
 7178SOL    HW122233   2.326   7.415   3.859  0.5129 -0.1696  0.3700
 7178SOL    HW222234   2.238   7.353   3.966 -0.8657  1.2971  0.1307
 7179SOL     OW22235   4.674   1.944   7.389 -0.2593  0.7264  0.1079
 7179SOL    HW122236   4.681   2.007   7.318 -0.9270  0.9309  0.2149
 7179SOL    HW222237   4.616   1.876   7.356 -0.0034  0.4623  0.2003
 7180SOL     OW22238   0.487   5.025   7.600 -0.2954 -0.0518  0.6212
 7180SOL    HW122239   0.541   5.103   7.616 -0.8853  0.2424  1.2031
 7180SOL    HW222240   0.526   4.958   7.656  1.7790 -0.9438 -1.6898
 7181SOL     OW22241   7.341   3.914   0.602 -0.4451  0.1275 -0.2832
 7181SOL    HW122242   7.312   3.941   0.514 -0.2410  0.4247 -0.2583
 7181SOL    HW222243   7.260   3.911   0.653 -0.4740  0.6341 -0.3000
 7182SOL     OW22244   0.132   1.652   2.540 -0.9509 -0.3002 -0.1585
 7182SOL    HW122245   0.163   1.562   2.547 -0.3407 -0.1629 -0.9516
 7182SOL    HW222246   0.037   1.644   2.536 -1.0428 -0.7642  1.7242
 7183SOL     OW22247   6.349   5.221   3.937 -0.1336  0.4279  0.4386
 7183SOL    HW122248   6.420   5.177   3.984  1.2209  1.9057 -0.1250
 7183SOL    HW222249   6.270   5.192   3.981  0.7586 -1.6273  0.8307
 7184SOL     OW22250   6.114   4.777   0.499 -0.0994 -0.3142 -1.0167
 7184SOL    HW122251   6.067   4.843   0.449 -0.8102 -0.6833 -0.8370
 7184SOL    HW222252   6.122   4.814   0.587 -1.5521 -0.9636 -0.5956
 7185SOL     OW22253   0.144   3.185   2.948 -0.6128  0.1301 -0.9051
 7185SOL    HW122254   0.216   3.241   2.918  0.0804  0.1745  0.7463
 7185SOL    HW222255   0.066   3.224   2.909  0.0544  1.2293 -1.1857
 7186SOL     OW22256   5.321   3.580   6.249  0.2350  0.4825  0.0812
 7186SOL    HW122257   5.286   3.538   6.327  2.2804 -0.1546  0.7066
 7186SOL    HW222258   5.254   3.565   6.182  0.6774 -3.6241  0.3140
 7187SOL     OW22259   6.678   5.167   3.609 -0.0395 -0.2840 -0.3250
 7187SOL    HW122260   6.693   5.239   3.669  0.9336 -1.0142  0.3189
 7187SOL    HW222261   6.735   5.185   3.534  1.6126 -1.3026  0.6380
 7188SOL     OW22262   7.957   7.093   4.569 -0.2776 -0.4075  0.1185
 7188SOL    HW122263   8.036   7.112   4.519  1.6858  0.3824  3.2196
 7188SOL    HW222264   7.950   6.997   4.567  1.1730 -0.5402  0.3379
 7189SOL     OW22265   4.096   4.398   7.195 -0.4041  0.6538 -0.4033
 7189SOL    HW122266   4.086   4.306   7.171 -0.3417  0.4389  0.3699
 7189SOL    HW222267   4.012   4.422   7.233  0.2050  0.3317  1.2465
 7190SOL     OW22268   2.715   7.646   7.369  0.4932 -0.0137  0.0582
 7190SOL    HW122269   2.638   7.592   7.387 -0.2042  1.3075  1.2489
 7190SOL    HW222270   2.686   7.735   7.387  2.2157  0.5564  0.2000
 7191SOL     OW22271   3.338   2.573   5.794  0.3157 -0.0629  0.3580
 7191SOL    HW122272   3.308   2.570   5.703 -1.1666  0.4947  0.8031
 7191SOL    HW222273   3.371   2.662   5.805 -0.0195  0.0452  0.5096
 7192SOL     OW22274   4.149   6.951   4.670 -0.4147 -0.1870 -0.5836
 7192SOL    HW122275   4.190   6.901   4.741 -0.4319  0.0484 -0.4067
 7192SOL    HW222276   4.058   6.961   4.698  0.1232  2.1113  0.6164
 7193SOL     OW22277   4.214   6.610   5.683 -0.1571  0.0203 -0.3120
 7193SOL    HW122278   4.121   6.617   5.658 -0.5189 -2.1575  0.2077
 7193SOL    HW222279   4.261   6.650   5.610 -1.4445 -0.6738 -1.5864
 7194SOL     OW22280   4.590   5.954   3.053 -0.2085 -0.1111 -0.4361
 7194SOL    HW122281   4.571   5.889   3.121 -2.0171 -0.6113 -1.3414
 7194SOL    HW222282   4.526   6.024   3.067  0.7633  0.7888 -0.3741
 7195SOL     OW22283   7.479   2.033   1.673  0.2440  0.8952  0.0710
 7195SOL    HW122284   7.550   1.970   1.689 -0.4941 -0.4868 -1.7844
 7195SOL    HW222285   7.403   1.994   1.715  0.3602  1.9976  1.3764
 7196SOL     OW22286   2.420   4.647   2.549 -0.0808 -0.2878 -0.5127
 7196SOL    HW122287   2.349   4.664   2.488 -0.8967 -0.8187  0.2792
 7196SOL    HW222288   2.456   4.734   2.568  0.2745 -0.1230 -1.8305
 7197SOL     OW22289   1.202   6.027   7.862  0.7245 -0.1186 -0.2714
 7197SOL    HW122290   1.191   6.006   7.769 -0.3774 -0.5540 -0.0593
 7197SOL    HW222291   1.197   5.942   7.906 -1.5742  0.2887  0.4099
 7198SOL     OW22292   0.472   5.102   5.284  0.5015  0.2578  0.4236
 7198SOL    HW122293   0.418   5.053   5.223 -0.9197 -1.1244  2.6250
 7198SOL    HW222294   0.439   5.191   5.280 -1.4204 -0.3733  1.0727
 7199SOL     OW22295   2.231   3.357   0.008 -0.4019 -0.2383 -0.1790
 7199SOL    HW122296   2.283   3.437  -0.002 -0.3071 -0.4995 -2.2626
 7199SOL    HW222297   2.287   3.298   0.058  0.7688 -0.0069 -1.1582
 7200SOL     OW22298   1.245   7.098   7.865  0.0043 -0.1104  0.4394
 7200SOL    HW122299   1.303   7.109   7.939  1.5138  3.6477 -1.0508
 7200SOL    HW222300   1.172   7.158   7.883 -1.4986 -1.8393  0.4422
 7201SOL     OW22301   1.302   1.944   7.234  0.3327 -0.0315  0.4001
 7201SOL    HW122302   1.388   1.901   7.237 -0.4667 -2.1374 -2.6325
 7201SOL    HW222303   1.249   1.897   7.298  0.2268 -1.8801 -0.9879
 7202SOL     OW22304   2.585   5.998   1.259  0.7493  0.7296  0.4425
 7202SOL    HW122305   2.607   6.084   1.296  2.5706 -0.0822  1.4153
 7202SOL    HW222306   2.547   5.950   1.332 -0.0279  0.5942 -0.0351
 7203SOL     OW22307   0.693   6.709   7.930  0.3185  0.1076 -0.0535
 7203SOL    HW122308   0.754   6.742   7.996  1.6707 -1.0571 -0.6650
 7203SOL    HW222309   0.639   6.646   7.976  0.8921 -0.2963  0.0663
 7204SOL     OW22310   7.269   7.943   6.172 -0.5832 -0.0529  0.0796
 7204SOL    HW122311   7.291   7.917   6.083 -0.6516 -1.5828  0.4793
 7204SOL    HW222312   7.279   8.039   6.173  2.7364 -0.2587 -0.6861
 7205SOL     OW22313   5.795   0.535   6.539 -0.0973 -0.2658 -0.3587
 7205SOL    HW122314   5.891   0.538   6.545 -0.1905  1.1870  0.8906
 7205SOL    HW222315   5.765   0.595   6.607 -1.8427  1.4625 -2.4907
 7206SOL     OW22316   3.277   3.699   3.697 -0.2330 -0.2352  0.1048
 7206SOL    HW122317   3.270   3.794   3.707  2.2854 -0.0314  0.7150
 7206SOL    HW222318   3.304   3.686   3.606 -2.1479 -0.5368 -0.4642
 7207SOL     OW22319   0.894   7.210   4.994 -0.2723 -0.2817  0.0537
 7207SOL    HW122320   0.889   7.282   5.057  1.1115 -2.0022  2.3376
 7207SOL    HW222321   0.987   7.204   4.973 -0.1174 -2.2387  1.0716
 7208SOL     OW22322   1.111   3.524   2.934  0.5742 -0.4778  0.4441
 7208SOL    HW122323   1.163   3.446   2.915  0.4413 -0.7738  1.2430
 7208SOL    HW222324   1.138   3.550   3.022  0.4813  0.2704  0.2554
 7209SOL     OW22325   4.794   4.965   1.256  0.1770  0.5307  0.2451
 7209SOL    HW122326   4.874   4.912   1.266  0.7585  1.2635 -0.3941
 7209SOL    HW222327   4.747   4.953   1.338  1.1948  0.4872  0.8434
 7210SOL     OW22328   6.704   1.207   7.854  0.1817  0.1722 -0.9176
 7210SOL    HW122329   6.612   1.211   7.828 -0.2890  0.1806  0.6571
 7210SOL    HW222330   6.744   1.147   7.791 -1.1340 -0.6929 -0.9607
 7211SOL     OW22331   6.091   0.710   2.256 -0.9245 -0.4295 -0.4656
 7211SOL    HW122332   6.179   0.744   2.240 -1.7149  1.1129 -1.7870
 7211SOL    HW222333   6.071   0.735   2.347  0.6451 -2.4259  0.5147
 7212SOL     OW22334   7.646   7.243   2.281  0.0876 -0.0598 -0.0699
 7212SOL    HW122335   7.599   7.318   2.247  1.0491  0.6960  0.2220
 7212SOL    HW222336   7.589   7.208   2.350  0.1936  1.2046  0.6988
 7213SOL     OW22337   0.587   4.517   1.504  0.5156  0.3478  0.2410
 7213SOL    HW122338   0.567   4.468   1.424 -0.0290  1.1564 -0.1386
 7213SOL    HW222339   0.681   4.508   1.516  0.5333 -0.1391 -0.2479
 7214SOL     OW22340   0.628   2.869   5.057 -0.6534 -0.6606  0.0754
 7214SOL    HW122341   0.631   2.962   5.033  0.4203 -0.5642  0.5251
 7214SOL    HW222342   0.707   2.855   5.108  0.5117 -2.3890 -2.0359
 7215SOL     OW22343   2.296   4.666   1.516 -0.5865 -0.6936  0.3057
 7215SOL    HW122344   2.377   4.662   1.567 -1.1926  1.5081  1.5610
 7215SOL    HW222345   2.324   4.693   1.429  0.0832 -0.2122  0.6606
 7216SOL     OW22346   0.171   4.727   1.986 -0.5642  0.2941  0.0509
 7216SOL    HW122347   0.188   4.720   2.080  0.0562 -0.6342 -0.1194
 7216SOL    HW222348   0.235   4.669   1.945 -0.1463  1.4432 -1.0261
 7217SOL     OW22349   2.324   2.972   6.917 -0.8038 -0.4384 -0.0436
 7217SOL    HW122350   2.336   3.067   6.922 -1.1048  0.1236 -4.9104
 7217SOL    HW222351   2.231   2.959   6.939 -1.0937  0.6030 -0.5441
 7218SOL     OW22352   1.584   3.506   1.468 -0.1217  0.2727 -0.0698
 7218SOL    HW122353   1.533   3.541   1.395  0.2520  0.5189 -0.2179
 7218SOL    HW222354   1.522   3.454   1.518 -0.1380 -0.8189 -1.1715
 7219SOL     OW22355   1.801   6.731   0.895 -0.3355 -0.3051  0.4797
 7219SOL    HW122356   1.850   6.798   0.847 -1.9446  0.1120 -0.7023
 7219SOL    HW222357   1.809   6.757   0.987  0.7652  0.3248  0.2228
 7220SOL     OW22358   7.350   3.622   1.247 -0.4607 -0.4031 -0.0171
 7220SOL    HW122359   7.396   3.650   1.168 -2.4749  1.1390 -0.7454
 7220SOL    HW222360   7.413   3.566   1.293  1.4643  0.2037 -1.7398
 7221SOL     OW22361   5.818   4.680   7.794  0.3111  0.2046 -0.4470
 7221SOL    HW122362   5.901   4.633   7.789  0.9985  1.3698 -0.4492
 7221SOL    HW222363   5.842   4.772   7.781 -1.1468  0.4269 -1.9512
 7222SOL     OW22364   7.914   6.170   6.902 -0.2554 -0.0901  0.5248
 7222SOL    HW122365   7.879   6.259   6.902 -0.9923 -0.3688 -0.3393
 7222SOL    HW222366   7.837   6.113   6.911  0.0466 -0.6802 -0.4253
 7223SOL     OW22367   3.170   2.776   4.936 -0.2828 -0.2887  0.5059
 7223SOL    HW122368   3.167   2.818   4.849 -0.9625 -0.1779  0.5741
 7223SOL    HW222369   3.081   2.786   4.969 -0.5614 -2.1453  0.3724
 7224SOL     OW22370   6.429   1.715   0.957 -0.8302  0.3232 -0.1817
 7224SOL    HW122371   6.464   1.804   0.952 -2.1765  0.9263  0.4868
 7224SOL    HW222372   6.400   1.705   1.048 -0.3726 -0.9408 -0.1537
 7225SOL     OW22373   0.796   3.479   7.669 -0.3941 -0.7335  0.1118
 7225SOL    HW122374   0.889   3.501   7.669 -0.7028  0.7192 -1.2623
 7225SOL    HW222375   0.784   3.428   7.749  1.4277 -0.3153  0.6989
 7226SOL     OW22376   1.342   2.833   0.665 -0.4164 -0.6203  0.0947
 7226SOL    HW122377   1.369   2.895   0.597  1.6979 -1.1107  0.3951
 7226SOL    HW222378   1.261   2.794   0.631 -1.3027  1.5966 -0.5086
 7227SOL     OW22379   5.363   2.901   3.608 -0.3128  0.4932  0.3487
 7227SOL    HW122380   5.273   2.877   3.633 -0.6046  0.3142 -0.7954
 7227SOL    HW222381   5.418   2.839   3.655 -0.8867 -0.4001 -0.1177
 7228SOL     OW22382   3.404   6.743   3.871 -0.6471  0.0932  0.0742
 7228SOL    HW122383   3.355   6.670   3.834 -1.8800  0.9576 -0.0741
 7228SOL    HW222384   3.369   6.753   3.960 -0.1683  0.2104  0.2514
 7229SOL     OW22385   7.722   2.367   6.851  0.3041  0.0552  0.6569
 7229SOL    HW122386   7.667   2.443   6.830 -0.2452 -0.5182 -0.0286
 7229SOL    HW222387   7.667   2.292   6.831  1.4898 -0.5379 -0.4909
 7230SOL     OW22388   0.238   3.918   1.544 -0.6044  0.0892  0.0965
 7230SOL    HW122389   0.325   3.944   1.577 -1.1063  0.7542  0.9480
 7230SOL    HW222390   0.248   3.915   1.449 -0.5468  3.7467 -0.1609
 7231SOL     OW22391   6.407   2.706   0.385 -0.0276  0.3955  0.5456
 7231SOL    HW122392   6.437   2.617   0.367 -2.6570 -0.5314  0.3604
 7231SOL    HW222393   6.464   2.762   0.333  1.6511 -1.1523  0.6210
 7232SOL     OW22394   5.627   3.257   7.057  0.0298 -0.5471  0.2528
 7232SOL    HW122395   5.556   3.228   7.000  0.3617 -1.4388  0.2826
 7232SOL    HW222396   5.587   3.265   7.143 -0.0633 -0.9569  0.2503
 7233SOL     OW22397   2.918   2.860   4.946  0.8122 -0.0848  0.2492
 7233SOL    HW122398   2.923   2.949   4.979  3.4782  0.1127 -0.4208
 7233SOL    HW222399   2.898   2.870   4.853 -2.1194 -0.4239  0.7499
 7234SOL     OW22400   4.375   7.841   3.852  0.0235 -0.3215 -0.1932
 7234SOL    HW122401   4.466   7.862   3.831  0.1778 -0.3230  0.4739
 7234SOL    HW222402   4.360   7.755   3.814  1.3095 -1.8463  2.4911
 7235SOL     OW22403   2.639   5.349   5.014 -0.2020 -0.0126 -0.0014
 7235SOL    HW122404   2.623   5.440   4.990 -1.4509 -0.3738 -0.6068
 7235SOL    HW222405   2.570   5.299   4.969  1.1105 -1.3851 -0.5952
 7236SOL     OW22406   6.958   0.625   5.116  0.3133 -0.2142 -0.0100
 7236SOL    HW122407   7.024   0.555   5.118 -0.9397 -1.4269  1.3528
 7236SOL    HW222408   6.914   0.615   5.032 -0.0608 -1.3122  0.2929
 7237SOL     OW22409   3.800   3.259   1.496 -0.3289 -0.0243 -0.1041
 7237SOL    HW122410   3.726   3.216   1.454  0.3702 -0.1243 -1.2745
 7237SOL    HW222411   3.807   3.217   1.582 -0.7300 -1.0270 -0.5512
 7238SOL     OW22412   3.132   0.848   6.975  0.0824  0.1768  0.3052
 7238SOL    HW122413   3.176   0.832   7.059  2.2750 -0.4579 -0.8741
 7238SOL    HW222414   3.062   0.910   6.995  0.2771 -0.2902  2.6573
 7239SOL     OW22415   1.826   2.290   2.421 -0.4009 -0.1068  0.2274
 7239SOL    HW122416   1.906   2.334   2.450 -0.5295  0.5676 -0.4329
 7239SOL    HW222417   1.852   2.246   2.339 -0.5485 -0.3920  0.3333
 7240SOL     OW22418   6.607   7.331   6.837  0.5907  0.1092 -0.1418
 7240SOL    HW122419   6.599   7.323   6.742 -1.4601  0.1985 -0.0086
 7240SOL    HW222420   6.557   7.258   6.872  1.8119 -0.2568  0.8857
 7241SOL     OW22421   5.307   3.871   5.664 -0.3516 -0.4185 -0.6328
 7241SOL    HW122422   5.283   3.953   5.621 -1.0575 -0.5867 -0.5743
 7241SOL    HW222423   5.399   3.858   5.642 -0.0353  0.7478 -0.0488
 7242SOL     OW22424   3.469   2.374   1.135 -0.1846  0.3697  0.0657
 7242SOL    HW122425   3.518   2.437   1.082 -0.2994 -0.4444 -1.0389
 7242SOL    HW222426   3.456   2.419   1.219  1.0656  1.2121 -0.1582
 7243SOL     OW22427   5.746   5.641   5.779  0.3126 -0.4826  0.5389
 7243SOL    HW122428   5.653   5.656   5.798  0.0546  0.3720 -1.2304
 7243SOL    HW222429   5.792   5.694   5.844 -0.4750  0.5686  0.2649
 7244SOL     OW22430   7.358   7.060   5.858  0.0598  0.8796 -0.1141
 7244SOL    HW122431   7.341   6.971   5.826  0.4670 -0.1823  2.4146
 7244SOL    HW222432   7.274   7.105   5.852 -0.5840 -0.2465  0.2251
 7245SOL     OW22433   0.081   6.451   0.529 -0.5126 -0.1480 -0.5485
 7245SOL    HW122434   0.111   6.481   0.615 -2.0614 -0.1958  0.0400
 7245SOL    HW222435   0.106   6.521   0.469  0.3255  0.0206 -0.0289
 7246SOL     OW22436   0.559   1.464   5.449  0.9277  0.4830 -0.2181
 7246SOL    HW122437   0.496   1.479   5.379 -0.4742  0.6998  1.0449
 7246SOL    HW222438   0.569   1.369   5.453  0.2676  0.4168 -0.0883
 7247SOL     OW22439   3.722   3.030   4.430  0.3429  0.1467  0.0443
 7247SOL    HW122440   3.685   3.082   4.501 -1.0360 -2.0080  1.0364
 7247SOL    HW222441   3.670   3.054   4.353  0.6507  1.2024  0.1570
 7248SOL     OW22442   5.390   5.223   5.290 -0.3739  0.2069 -0.4817
 7248SOL    HW122443   5.462   5.285   5.304 -0.2353 -0.1865  0.6375
 7248SOL    HW222444   5.432   5.137   5.289 -0.7387  0.0275 -0.5271
 7249SOL     OW22445   1.168   6.578   5.884 -0.3181  0.0340  0.5827
 7249SOL    HW122446   1.149   6.618   5.799  0.6211 -2.8804 -1.1210
 7249SOL    HW222447   1.086   6.536   5.909  0.5010 -2.9035 -1.2069
 7250SOL     OW22448   0.090   5.865   4.936  0.1620  0.3198  0.0429
 7250SOL    HW122449   0.153   5.928   4.899  0.3732 -0.5052 -1.0425
 7250SOL    HW222450   0.090   5.793   4.874 -1.6179  0.1449  0.2177
 7251SOL     OW22451   3.851   0.100   1.286  0.4801  0.2740  0.4409
 7251SOL    HW122452   3.823   0.152   1.362 -0.1502  1.2522 -0.4463
 7251SOL    HW222453   3.823   0.150   1.210 -0.6426 -1.6269 -0.4661
 7252SOL     OW22454   1.815   0.086   7.349  0.3984 -0.2981  0.3973
 7252SOL    HW122455   1.892   0.032   7.333 -0.9936 -2.2569 -0.1233
 7252SOL    HW222456   1.808   0.142   7.272  1.6976  0.5000  0.8132
 7253SOL     OW22457   5.294   2.089   3.663 -0.4398 -0.6201 -0.2666
 7253SOL    HW122458   5.365   2.143   3.628 -1.2607 -0.0539 -1.0850
 7253SOL    HW222459   5.327   2.058   3.747 -0.5494  2.4682  1.0490
 7254SOL     OW22460   4.134   7.704   5.780  0.1187 -0.0884 -0.5514
 7254SOL    HW122461   4.125   7.758   5.701  4.2187  1.9049  0.0902
 7254SOL    HW222462   4.105   7.762   5.851  0.1106 -0.4394 -0.2670
 7255SOL     OW22463   7.402   6.703   7.312  0.4860  0.4903  0.5674
 7255SOL    HW122464   7.363   6.673   7.394 -1.9018 -0.0993 -0.7050
 7255SOL    HW222465   7.457   6.630   7.284 -2.6653 -1.5874 -0.8040
 7256SOL     OW22466   5.522   7.667   4.352  0.0613  0.7596  0.0405
 7256SOL    HW122467   5.465   7.590   4.343  1.6394 -0.6023  1.0966
 7256SOL    HW222468   5.506   7.699   4.440  0.4126  0.7801  0.0998
 7257SOL     OW22469   7.692   7.809   3.404  0.0620 -0.5278 -0.4223
 7257SOL    HW122470   7.712   7.782   3.314 -0.6672  0.6266 -0.9571
 7257SOL    HW222471   7.647   7.734   3.443 -0.7079 -0.5927 -1.4139
 7258SOL     OW22472   0.618   2.243   7.150  0.2443  0.0300  0.8554
 7258SOL    HW122473   0.630   2.189   7.072  4.2373  2.3015 -0.3794
 7258SOL    HW222474   0.653   2.189   7.221  3.7613  0.5368 -0.2850
 7259SOL     OW22475   1.161   7.319   4.988 -0.4181 -0.2729 -0.0202
 7259SOL    HW122476   1.243   7.315   4.939 -0.0323  0.2929  0.5599
 7259SOL    HW222477   1.144   7.413   4.998 -1.7325 -0.3502 -1.0897
 7260SOL     OW22478   7.373   3.117   1.850  0.2474  0.7414  0.5270
 7260SOL    HW122479   7.442   3.058   1.820 -0.4186 -0.0930  0.5770
 7260SOL    HW222480   7.376   3.190   1.788  0.1760 -0.0207 -0.4120
 7261SOL     OW22481   5.431   4.471   0.469  0.2392  0.0757  0.0148
 7261SOL    HW122482   5.466   4.553   0.433  2.8441 -0.4948  1.0583
 7261SOL    HW222483   5.367   4.442   0.403  0.2201  2.2308 -1.0205
 7262SOL     OW22484   2.552   7.128   5.461 -0.1827 -0.3186 -0.8559
 7262SOL    HW122485   2.551   7.181   5.380 -0.4010 -0.2806 -0.8291
 7262SOL    HW222486   2.608   7.178   5.521  0.3141 -0.5536 -1.1216
 7263SOL     OW22487   7.879   0.882   0.838 -0.2179  0.3579 -0.3731
 7263SOL    HW122488   7.888   0.811   0.902  0.6934 -0.8769 -1.7993
 7263SOL    HW222489   7.842   0.954   0.888  1.3699 -0.2106  1.8156
 7264SOL     OW22490   1.403   5.614   6.727  0.3170  0.6772 -0.4628
 7264SOL    HW122491   1.406   5.551   6.800 -1.7926  1.6832  0.5872
 7264SOL    HW222492   1.448   5.569   6.655  1.5968 -0.7665  1.1386
 7265SOL     OW22493   4.338   1.439   2.932  0.7322  0.1247 -0.4048
 7265SOL    HW122494   4.277   1.416   2.861  0.4800  0.4337 -0.2917
 7265SOL    HW222495   4.333   1.534   2.938 -0.0465  0.0333  0.7248
 7266SOL     OW22496   5.360   7.542   7.291 -0.0059  0.2776 -0.3269
 7266SOL    HW122497   5.382   7.451   7.308 -0.1706  0.6324  2.2305
 7266SOL    HW222498   5.359   7.550   7.196 -0.1490 -2.4108 -0.6151
 7267SOL     OW22499   6.018   4.962   5.061 -0.5535  0.0038  0.0933
 7267SOL    HW122500   6.023   4.889   5.123 -2.7494  1.2939  1.9573
 7267SOL    HW222501   6.072   4.934   4.987  0.3598 -2.5975  1.5899
 7268SOL     OW22502   1.652   4.485   5.010 -0.0309  0.2149 -0.0012
 7268SOL    HW122503   1.566   4.528   5.011 -0.2614 -0.2426  0.9946
 7268SOL    HW222504   1.660   4.446   5.097  0.6910 -0.7322 -0.4759
 7269SOL     OW22505   7.737   6.067   5.523 -0.0157  0.1016  0.4510
 7269SOL    HW122506   7.782   6.148   5.546 -1.0178  1.2539 -1.4444
 7269SOL    HW222507   7.655   6.071   5.572  0.3283 -0.2399  1.0704
 7270SOL     OW22508   3.661   0.797   3.426  0.2982 -0.3400 -0.0147
 7270SOL    HW122509   3.704   0.790   3.341  0.8585  1.6452  0.0581
 7270SOL    HW222510   3.569   0.815   3.406  0.1510 -1.2065 -0.1692
 7271SOL     OW22511   0.058   3.210   6.189 -0.2347 -0.4352  0.2738
 7271SOL    HW122512  -0.024   3.177   6.152  0.2314 -0.1605 -1.0757
 7271SOL    HW222513   0.106   3.131   6.215  0.3637 -0.8279 -1.8142
 7272SOL     OW22514   1.988   2.430   6.385  0.4309  0.0536 -0.0435
 7272SOL    HW122515   2.043   2.488   6.332 -0.0262 -0.2219 -0.8496
 7272SOL    HW222516   1.942   2.488   6.445 -1.1484  0.7668 -1.8173
 7273SOL     OW22517   4.397   1.640   7.868 -0.0392 -0.1914  0.3444
 7273SOL    HW122518   4.426   1.565   7.919 -0.4391 -0.8407 -0.3543
 7273SOL    HW222519   4.433   1.625   7.780 -0.9242 -0.0606 -0.0497
 7274SOL     OW22520   6.826   1.861   0.485  0.2847  0.0458  0.2560
 7274SOL    HW122521   6.758   1.923   0.457 -0.1679 -0.6871 -0.3085
 7274SOL    HW222522   6.807   1.845   0.578  0.2505  0.5578  0.3378
 7275SOL     OW22523   6.718   3.756   5.552 -0.0768 -0.2342 -0.1420
 7275SOL    HW122524   6.790   3.751   5.488  1.2679  1.3207  1.1395
 7275SOL    HW222525   6.728   3.677   5.605  0.9000  0.0858  0.1864
 7276SOL     OW22526   2.836   4.910   2.436  0.0838  0.3944  0.0176
 7276SOL    HW122527   2.761   4.962   2.406  1.4629  1.5322 -1.7130
 7276SOL    HW222528   2.854   4.942   2.524 -0.7604  0.9419  0.0023
 7277SOL     OW22529   1.376   5.300   4.207 -0.2534 -0.0366  0.1680
 7277SOL    HW122530   1.357   5.270   4.118  1.4695  0.3022 -0.3572
 7277SOL    HW222531   1.464   5.266   4.225 -0.3514  0.3771  1.5204
 7278SOL     OW22532   1.351   5.874   6.674  0.1504  0.1413  0.2494
 7278SOL    HW122533   1.379   5.785   6.696 -0.2619  0.1091  0.6445
 7278SOL    HW222534   1.417   5.904   6.611  0.2831 -0.4488  0.0940
 7279SOL     OW22535   1.796   6.041   3.125 -0.0218 -0.3456  0.0425
 7279SOL    HW122536   1.817   6.128   3.160 -0.3563  0.0640 -0.7566
 7279SOL    HW222537   1.872   6.018   3.071 -0.5315  0.0562 -0.8547
 7280SOL     OW22538   6.558   3.417   3.372  0.0621  0.0797 -0.0414
 7280SOL    HW122539   6.598   3.438   3.456  0.3575  0.2224 -0.2161
 7280SOL    HW222540   6.632   3.394   3.315 -0.1381 -0.0425 -0.2532
 7281SOL     OW22541   1.460   1.703   2.272 -0.4380  0.0559 -0.3830
 7281SOL    HW122542   1.544   1.741   2.298  0.3334 -1.2728 -0.8046
 7281SOL    HW222543   1.413   1.689   2.354  0.3035 -0.3713 -0.0189
 7282SOL     OW22544   6.412   2.153   3.405  0.0742 -0.6689 -0.0575
 7282SOL    HW122545   6.495   2.196   3.427 -0.1732 -0.0201 -0.3591
 7282SOL    HW222546   6.438   2.066   3.376  1.1234  0.7433 -4.0586
 7283SOL     OW22547   2.209   4.481   5.884 -0.5464  0.0124 -0.2298
 7283SOL    HW122548   2.299   4.454   5.903 -0.8488  0.0325  1.4150
 7283SOL    HW222549   2.209   4.503   5.791  1.1539  0.0343 -0.2536
 7284SOL     OW22550   2.827   7.404   5.241  0.5757  0.0584 -0.6652
 7284SOL    HW122551   2.846   7.339   5.173  1.0517  0.2883 -0.7531
 7284SOL    HW222552   2.745   7.444   5.212 -0.3605 -1.2875 -0.0202
 7285SOL     OW22553   3.927   7.901   4.099  0.2042  0.0466 -0.0983
 7285SOL    HW122554   3.997   7.891   4.034  1.8163 -2.9226  1.8964
 7285SOL    HW222555   3.898   7.812   4.117 -1.3933  0.9205  2.0389
 7286SOL     OW22556   5.965   5.165   3.686 -0.9239  0.0876 -0.4353
 7286SOL    HW122557   6.000   5.244   3.729 -0.7754 -0.2214  0.0238
 7286SOL    HW222558   6.034   5.100   3.697 -0.7219  0.1073 -1.4926
 7287SOL     OW22559   1.621   6.724   5.531  0.1626  0.2111 -0.5432
 7287SOL    HW122560   1.645   6.815   5.513  0.1989 -0.0544 -1.9656
 7287SOL    HW222561   1.675   6.673   5.471 -0.2492 -0.7189 -0.1375
 7288SOL     OW22562   6.711   4.626   3.644 -0.1452  0.2979  0.2546
 7288SOL    HW122563   6.789   4.592   3.602 -0.6660  0.4285 -0.8697
 7288SOL    HW222564   6.702   4.715   3.609 -0.9148  0.2049  0.1966
 7289SOL     OW22565   6.383   5.870   1.466  0.4206  0.1560  0.4589
 7289SOL    HW122566   6.316   5.930   1.433  0.2124 -0.1507  0.3251
 7289SOL    HW222567   6.399   5.809   1.394  0.4004 -0.1435  0.7062
 7290SOL     OW22568   0.055   1.570   0.890 -0.1881 -0.4292  0.0108
 7290SOL    HW122569   0.086   1.480   0.886  0.4785 -0.2029 -0.1505
 7290SOL    HW222570  -0.040   1.563   0.896 -0.1669 -1.1290 -0.3665
 7291SOL     OW22571   5.005   7.499   6.891  0.2188 -0.0742  0.7624
 7291SOL    HW122572   5.091   7.467   6.866 -0.2503 -0.7511 -0.0428
 7291SOL    HW222573   4.964   7.525   6.808  0.5009  2.5082  1.3396
 7292SOL     OW22574   0.318   6.137   0.612  0.2844  0.4340  0.0753
 7292SOL    HW122575   0.362   6.107   0.692  0.6247  1.5000  0.3098
 7292SOL    HW222576   0.225   6.132   0.632  0.2711 -1.4202 -0.2663
 7293SOL     OW22577   3.677   4.708   2.825  0.2386  0.2197  0.0211
 7293SOL    HW122578   3.737   4.682   2.754 -0.4879  0.1638 -0.5847
 7293SOL    HW222579   3.653   4.626   2.867 -0.8323  0.0382 -0.9014
 7294SOL     OW22580   6.732   1.106   3.864  0.5421  0.7994 -0.1590
 7294SOL    HW122581   6.725   1.042   3.935  1.8238 -0.4070 -1.0593
 7294SOL    HW222582   6.642   1.116   3.832 -0.1256  1.6812  1.8484
 7295SOL     OW22583   4.116   1.417   3.924 -0.0767 -0.0849  0.1284
 7295SOL    HW122584   4.081   1.454   3.843  2.5013 -1.3214 -1.6982
 7295SOL    HW222585   4.182   1.481   3.953  1.3186 -1.1170 -0.6423
 7296SOL     OW22586   4.524   4.559   1.531 -0.0476  0.1615 -0.4961
 7296SOL    HW122587   4.506   4.501   1.458  0.5849 -0.8239  0.1060
 7296SOL    HW222588   4.591   4.514   1.582 -0.2724  0.9510  0.5389
 7297SOL     OW22589   2.672   4.575   4.910  0.2314 -0.0851  0.1545
 7297SOL    HW122590   2.762   4.559   4.939 -0.2990 -1.5383  1.1089
 7297SOL    HW222591   2.625   4.494   4.931 -1.7245  1.2679  1.3468
 7298SOL     OW22592   1.049   4.495   1.029 -0.2950 -0.1645 -0.3866
 7298SOL    HW122593   1.078   4.427   0.969 -0.7502 -0.7940  0.0982
 7298SOL    HW222594   1.056   4.456   1.116  0.0697  0.6344 -0.0423
 7299SOL     OW22595   7.514   5.712   3.116  0.3807  0.2580 -0.0078
 7299SOL    HW122596   7.598   5.690   3.158  0.2470 -1.1804 -0.4487
 7299SOL    HW222597   7.483   5.788   3.165  0.3418 -1.1911  2.4031
 7300SOL     OW22598   7.488   0.745   1.432  0.4778  0.0763 -0.8075
 7300SOL    HW122599   7.528   0.672   1.385  1.2542 -0.4181  0.5890
 7300SOL    HW222600   7.417   0.706   1.482  2.8563 -0.4652  2.5343
 7301SOL     OW22601   6.067   2.635   0.851 -0.1142 -0.1683  0.0817
 7301SOL    HW122602   6.094   2.584   0.775  1.1116 -1.3985  1.2867
 7301SOL    HW222603   6.018   2.573   0.905  0.0023  0.3710  0.8166
 7302SOL     OW22604   5.806   4.032   7.383 -0.6692  0.0532  0.3487
 7302SOL    HW122605   5.858   4.089   7.327 -0.9064 -0.5583 -0.5046
 7302SOL    HW222606   5.835   3.943   7.361 -0.4513 -0.1812  1.5093
 7303SOL     OW22607   1.648   5.937   0.171  0.1332  0.2077 -0.0931
 7303SOL    HW122608   1.564   5.895   0.185 -0.3873  1.5858  1.1226
 7303SOL    HW222609   1.707   5.895   0.234 -0.4052  1.2829  1.1781
 7304SOL     OW22610   5.165   6.474   5.887 -0.1498 -0.4223  0.0415
 7304SOL    HW122611   5.108   6.426   5.827  0.9428 -1.4494 -0.1989
 7304SOL    HW222612   5.168   6.420   5.966  0.4267 -0.3334  0.0820
 7305SOL     OW22613   1.754   1.777   3.723  0.1455 -0.3704 -0.6838
 7305SOL    HW122614   1.838   1.784   3.767 -0.4632  0.4428  0.3805
 7305SOL    HW222615   1.738   1.865   3.688 -1.6774  0.3904  1.8243
 7306SOL     OW22616   2.277   3.506   2.189 -0.2263  0.0562 -0.4104
 7306SOL    HW122617   2.237   3.581   2.234 -2.9269  0.6812 -3.4155
 7306SOL    HW222618   2.245   3.430   2.236  1.0346  0.6862  1.5765
 7307SOL     OW22619   4.734   7.323   6.454  0.3251  0.7573  0.1442
 7307SOL    HW122620   4.750   7.244   6.505 -1.8192  0.9231  1.1965
 7307SOL    HW222621   4.642   7.343   6.470  0.3748  2.5153 -1.4607
 7308SOL     OW22622   7.080   4.319   5.276 -0.7099  0.0111  0.1505
 7308SOL    HW122623   7.144   4.322   5.205  0.9047  1.7188  1.5530
 7308SOL    HW222624   7.010   4.263   5.243  1.5297 -2.0885 -1.4427
 7309SOL     OW22625   2.025   1.910   1.153 -0.0689 -0.1899  0.6450
 7309SOL    HW122626   2.032   1.815   1.161  0.6179 -0.0966  1.3187
 7309SOL    HW222627   1.976   1.924   1.072  2.6270 -1.0648 -1.2698
 7310SOL     OW22628   2.137   0.594   7.224 -0.1557 -0.1926 -0.3395
 7310SOL    HW122629   2.082   0.664   7.259 -0.2913 -0.7665  0.6429
 7310SOL    HW222630   2.126   0.599   7.129  1.4872  2.4712 -0.4974
 7311SOL     OW22631   3.192   5.480   7.586 -0.1058 -0.2053  0.6114
 7311SOL    HW122632   3.177   5.551   7.648  0.2660 -0.8762  1.4901
 7311SOL    HW222633   3.233   5.411   7.638  3.3662  0.4078 -0.9778
 7312SOL     OW22634   0.473   6.110   0.000  0.7063 -0.3016  0.3665
 7312SOL    HW122635   0.550   6.053   0.004  0.1855 -1.2182 -1.4367
 7312SOL    HW222636   0.501   6.184  -0.053  0.1239 -1.0796 -1.0715
 7313SOL     OW22637   4.016   0.594   7.901  0.4205  0.2107  0.0043
 7313SOL    HW122638   4.066   0.598   7.982 -0.6025 -2.2887  0.8742
 7313SOL    HW222639   4.009   0.500   7.882 -1.7709  0.5869 -1.4017
 7314SOL     OW22640   2.368   7.864   1.233  0.5966  0.0553 -0.4210
 7314SOL    HW122641   2.405   7.843   1.147  1.0019 -2.6106  0.3135
 7314SOL    HW222642   2.275   7.879   1.216  0.5650 -0.9701 -1.2801
 7315SOL     OW22643   3.942   0.160   6.552 -0.1002  0.2950 -0.2287
 7315SOL    HW122644   3.994   0.080   6.549 -1.7835 -0.8513 -0.1760
 7315SOL    HW222645   3.853   0.130   6.566 -0.6467  2.2528  0.8577
 7316SOL     OW22646   5.832   5.582   7.005  0.4865 -0.4140  0.0779
 7316SOL    HW122647   5.847   5.641   6.931  1.1687 -0.3780  0.2346
 7316SOL    HW222648   5.771   5.630   7.062  1.6750  0.5221  0.6143
 7317SOL     OW22649   3.798   1.976   6.274 -0.1909  0.2889  0.4931
 7317SOL    HW122650   3.718   2.003   6.228  0.1781 -1.5825 -1.3799
 7317SOL    HW222651   3.766   1.931   6.352 -1.0223 -0.7439 -0.4117
 7318SOL     OW22652   4.225   2.946   1.191 -0.5764  0.4750  0.0921
 7318SOL    HW122653   4.278   3.022   1.215 -0.9371  0.4415  1.0370
 7318SOL    HW222654   4.135   2.975   1.203 -0.7825  0.4621 -1.2980
 7319SOL     OW22655   4.279   3.524   7.683  0.1851 -0.2538 -0.2630
 7319SOL    HW122656   4.291   3.603   7.737  0.9616 -0.2710 -0.3939
 7319SOL    HW222657   4.276   3.557   7.593 -1.6472 -0.1712 -0.1956
 7320SOL     OW22658   6.742   1.397   3.169 -0.5084 -0.2305  0.1385
 7320SOL    HW122659   6.756   1.420   3.077 -2.6484 -1.3142 -0.4989
 7320SOL    HW222660   6.696   1.313   3.167 -0.7225 -0.2139  2.2025
 7321SOL     OW22661   5.127   4.180   0.346  0.3910  0.1927  0.1278
 7321SOL    HW122662   5.085   4.187   0.432 -0.5857  1.9175 -0.4465
 7321SOL    HW222663   5.174   4.263   0.335  0.0623  0.2236 -1.2197
 7322SOL     OW22664   3.898   5.296   2.982  0.4655 -0.0825  0.7372
 7322SOL    HW122665   3.812   5.266   2.952  0.4875 -0.5735  1.1554
 7322SOL    HW222666   3.958   5.268   2.913  0.6788 -2.1948  1.6945
 7323SOL     OW22667   3.964   3.790   1.068  0.0722  0.7877  0.1423
 7323SOL    HW122668   3.933   3.880   1.083  1.2255  1.3174 -0.4605
 7323SOL    HW222669   3.975   3.785   0.973 -0.9109 -0.3340  0.0751
 7324SOL     OW22670   0.263   6.307   7.946  0.0562  0.7688 -0.2648
 7324SOL    HW122671   0.272   6.221   7.905  0.9909  0.8103 -0.1642
 7324SOL    HW222672   0.182   6.342   7.910 -1.0614 -0.6993  0.7262
 7325SOL     OW22673   4.153   0.387   6.323  0.0224  0.2142 -0.3867
 7325SOL    HW122674   4.088   0.415   6.259  0.9747 -1.4125 -2.1737
 7325SOL    HW222675   4.139   0.292   6.331  0.2975  0.3051  1.4165
 7326SOL     OW22676   0.635   5.643   5.884 -0.2426 -0.9853 -0.0835
 7326SOL    HW122677   0.703   5.640   5.816  0.1750 -0.7668  0.3211
 7326SOL    HW222678   0.668   5.586   5.953  0.3938  0.5444  0.9047
 7327SOL     OW22679   5.704   4.997   6.047  0.0680 -0.2708 -0.5598
 7327SOL    HW122680   5.746   4.916   6.018 -0.4313 -0.9641  0.6171
 7327SOL    HW222681   5.710   5.055   5.971 -0.0434 -1.5869 -1.6050
 7328SOL     OW22682   3.286   1.899   7.452 -0.0145  0.3838 -0.2192
 7328SOL    HW122683   3.215   1.914   7.514  0.5110  1.5689  0.1292
 7328SOL    HW222684   3.295   1.982   7.405 -0.3633 -0.4732 -1.8586
 7329SOL     OW22685   6.530   3.266   2.844  0.2330  0.7616 -0.1399
 7329SOL    HW122686   6.535   3.212   2.923 -1.2772 -1.0807 -1.2208
 7329SOL    HW222687   6.445   3.311   2.851 -1.1788 -1.3987 -1.7920
 7330SOL     OW22688   5.293   4.337   6.669 -0.3256  0.4909  0.6750
 7330SOL    HW122689   5.240   4.392   6.611  0.2470  0.7519  0.3830
 7330SOL    HW222690   5.249   4.341   6.754 -1.3151 -0.0952  0.2025
 7331SOL     OW22691   4.926   4.319   3.480  0.5153 -0.0867 -0.4269
 7331SOL    HW122692   4.987   4.331   3.552  0.2508 -1.5515  0.0724
 7331SOL    HW222693   4.864   4.254   3.511  0.1566 -0.4587 -1.8245
 7332SOL     OW22694   7.900   1.024   4.005 -0.5474  0.2291  0.0376
 7332SOL    HW122695   7.846   0.963   3.955 -3.2002  0.3332  2.5123
 7332SOL    HW222696   7.962   0.969   4.052 -1.2601 -0.3651  0.3073
 7333SOL     OW22697   7.129   1.200   4.444 -0.4710 -0.3873  0.2566
 7333SOL    HW122698   7.046   1.215   4.399 -0.9486  1.0353  1.5063
 7333SOL    HW222699   7.104   1.174   4.533  0.4444 -1.5899  0.2023
 7334SOL     OW22700   6.097   0.997   6.781 -0.0029 -0.1001  0.7600
 7334SOL    HW122701   6.077   1.090   6.777 -0.1672 -0.1292  0.8556
 7334SOL    HW222702   6.033   0.962   6.844  0.0734 -0.2713  0.7427
 7335SOL     OW22703   7.956   1.879   0.957  0.4764 -0.0722  0.8141
 7335SOL    HW122704   8.007   1.927   0.891  0.3609  0.2216  0.9354
 7335SOL    HW222705   7.972   1.787   0.938  0.5154  0.0136  0.4321
 7336SOL     OW22706   4.612   0.397   2.334 -0.0747 -0.1712 -0.8994
 7336SOL    HW122707   4.613   0.472   2.393  1.6385 -0.1679 -0.8669
 7336SOL    HW222708   4.543   0.340   2.368  0.8079 -0.1341  1.0748
 7337SOL     OW22709   0.101   0.137   7.294 -0.7691  0.2929  0.0063
 7337SOL    HW122710   0.037   0.077   7.332 -1.1769  0.4147 -0.4755
 7337SOL    HW222711   0.065   0.158   7.207 -0.4951  1.0205  0.0652
 7338SOL     OW22712   5.807   6.036   3.791 -0.7182  0.6052  0.4790
 7338SOL    HW122713   5.728   5.997   3.826 -0.7820  1.5507  1.4427
 7338SOL    HW222714   5.877   5.974   3.811 -1.5079 -1.6058 -2.8169
 7339SOL     OW22715   6.173   2.400   0.040 -0.1233  0.5119 -0.1123
 7339SOL    HW122716   6.218   2.375   0.120 -2.3318 -0.5888  0.8907
 7339SOL    HW222717   6.080   2.399   0.064 -0.9196 -0.5713 -2.8399
 7340SOL     OW22718   3.581   4.924   2.404 -0.1583  0.6672  0.2893
 7340SOL    HW122719   3.572   4.829   2.404 -1.3026  0.7690  0.6574
 7340SOL    HW222720   3.609   4.945   2.315 -1.8083  0.1409 -0.3878
 7341SOL     OW22721   5.288   6.896   7.349 -0.1071  0.1813  0.4518
 7341SOL    HW122722   5.232   6.862   7.279  1.2583 -0.7386 -0.2435
 7341SOL    HW222723   5.366   6.840   7.347  0.3526  0.7014  2.1347
 7342SOL     OW22724   7.839   4.220   2.748 -0.0052 -0.2907  0.0297
 7342SOL    HW122725   7.804   4.144   2.700  1.2320  0.0218 -1.4747
 7342SOL    HW222726   7.826   4.294   2.688  0.4214  0.3586  0.7208
 7343SOL     OW22727   2.713   2.853   7.773  0.2291  0.5217  0.1772
 7343SOL    HW122728   2.783   2.885   7.716  0.9477 -2.4596 -0.8145
 7343SOL    HW222729   2.644   2.826   7.712 -0.6063  0.8497  0.9698
 7344SOL     OW22730   0.377   4.368   5.884  0.1025  0.1191 -0.1224
 7344SOL    HW122731   0.419   4.449   5.855  0.1008  0.2780  0.3111
 7344SOL    HW222732   0.440   4.328   5.945 -0.6062  0.6683  1.0132
 7345SOL     OW22733   0.397   4.581   6.223  0.5566  0.3161 -0.5422
 7345SOL    HW122734   0.333   4.610   6.288 -0.6167 -2.3877 -0.3463
 7345SOL    HW222735   0.368   4.621   6.141  1.4507  2.9258  0.3302
 7346SOL     OW22736   6.595   5.833   4.252  0.1964  0.0014 -0.2083
 7346SOL    HW122737   6.669   5.885   4.222 -1.4367  1.9431 -1.1395
 7346SOL    HW222738   6.524   5.896   4.263 -1.1736 -1.6701  1.2575
 7347SOL     OW22739   2.443   0.586   2.861  0.0915  0.4268 -0.3575
 7347SOL    HW122740   2.387   0.576   2.937  0.7958 -2.4654 -0.1002
 7347SOL    HW222741   2.386   0.568   2.786  0.1238 -0.1964 -0.2432
 7348SOL     OW22742   1.561   1.252   6.127 -0.1473  0.5045  0.1890
 7348SOL    HW122743   1.608   1.243   6.210 -0.7852  1.5348  0.6922
 7348SOL    HW222744   1.595   1.182   6.072  1.0422  0.4326  0.9687
 7349SOL     OW22745   1.996   5.693   2.864  0.3016  0.1717 -0.2892
 7349SOL    HW122746   1.911   5.666   2.829  0.8817 -0.4810 -1.2337
 7349SOL    HW222747   1.990   5.789   2.871  0.5114  0.4722 -3.2136
 7350SOL     OW22748   7.583   0.489   3.861  0.5385  0.3714  0.6874
 7350SOL    HW122749   7.600   0.395   3.858 -1.3487 -0.0302  1.4266
 7350SOL    HW222750   7.607   0.514   3.951 -0.8818  0.1621  1.1468
 7351SOL     OW22751   0.099   0.863   5.688  0.3417  0.2025  0.0853
 7351SOL    HW122752   0.166   0.805   5.725  1.3616  1.4549  0.3075
 7351SOL    HW222753   0.017   0.817   5.700  1.3310 -2.4040 -2.1501
 7352SOL     OW22754   4.438   4.346   6.769  0.0463  0.4226  0.1061
 7352SOL    HW122755   4.477   4.356   6.682  0.5582  0.8267  0.3743
 7352SOL    HW222756   4.364   4.407   6.770 -1.6407 -1.4940 -0.9689
 7353SOL     OW22757   1.563   2.800   4.703  0.2573  0.6439  0.7950
 7353SOL    HW122758   1.532   2.715   4.732  0.3704 -0.4914 -2.0915
 7353SOL    HW222759   1.511   2.820   4.625  2.7173  1.3752 -0.8072
 7354SOL     OW22760   5.559   3.044   3.483  0.0146 -0.0216 -0.2755
 7354SOL    HW122761   5.500   2.972   3.505 -0.3098  0.3711  0.1532
 7354SOL    HW222762   5.617   3.052   3.558  1.2754 -1.0413 -1.0892
 7355SOL     OW22763   2.061   5.433   4.709  0.1530 -0.0637 -0.2389
 7355SOL    HW122764   2.149   5.415   4.742 -0.1461 -1.0426  0.0509
 7355SOL    HW222765   2.019   5.482   4.780  0.3632  0.1414 -0.2545
 7356SOL     OW22766   1.390   0.777   7.355 -0.1285 -0.9052 -0.1985
 7356SOL    HW122767   1.360   0.815   7.272  0.4245  0.4482  0.2088
 7356SOL    HW222768   1.473   0.735   7.333  1.2061  1.4295  0.0837
 7357SOL     OW22769   1.597   3.776   3.644  0.1925  0.6384  0.0010
 7357SOL    HW122770   1.660   3.729   3.699 -1.1170  0.5205  1.4577
 7357SOL    HW222771   1.545   3.706   3.603  0.5479  0.7550 -0.6696
 7358SOL     OW22772   2.413   3.978   7.566  0.3774  0.3563  0.0750
 7358SOL    HW122773   2.427   4.072   7.563 -0.0793  0.5740  2.5025
 7358SOL    HW222774   2.501   3.941   7.577  0.3329  0.7881  2.3560
 7359SOL     OW22775   7.770   7.725   2.314  0.0613  0.9395  0.0351
 7359SOL    HW122776   7.703   7.751   2.377 -0.7027  1.7225 -1.0720
 7359SOL    HW222777   7.819   7.806   2.296  0.9092  0.5084  0.3626
 7360SOL     OW22778   1.111   6.477   2.803  0.1466 -0.4547 -0.2225
 7360SOL    HW122779   1.049   6.406   2.785  2.3465 -2.9133  1.1218
 7360SOL    HW222780   1.122   6.475   2.898  0.6041  1.4490 -0.1948
 7361SOL     OW22781   5.418   1.033   0.621 -0.1572  0.5257 -0.2336
 7361SOL    HW122782   5.348   1.064   0.563 -0.8544 -0.9928 -0.2339
 7361SOL    HW222783   5.425   1.101   0.688 -1.5625  0.7608 -0.3005
 7362SOL     OW22784   3.066   7.227   2.897 -0.0062  0.0858 -0.2264
 7362SOL    HW122785   3.004   7.167   2.937  0.8909 -0.8686 -0.2313
 7362SOL    HW222786   3.037   7.234   2.805 -0.7645  0.5579  0.0373
 7363SOL     OW22787   1.215   5.999   7.571 -0.0434 -0.1853  0.5649
 7363SOL    HW122788   1.278   5.927   7.568  0.3341  0.1628 -0.5840
 7363SOL    HW222789   1.221   6.040   7.484 -0.6838  0.8596  0.9888
 7364SOL     OW22790   6.458   7.472   1.408 -0.4810 -0.0621  0.3373
 7364SOL    HW122791   6.519   7.446   1.477 -2.1909 -1.2105  1.5014
 7364SOL    HW222792   6.462   7.400   1.344 -0.4102 -0.0009  0.2726
 7365SOL     OW22793   0.961   1.436   4.098  0.0384  0.4716 -0.2705
 7365SOL    HW122794   0.946   1.529   4.083  0.2305  0.3912 -1.0146
 7365SOL    HW222795   0.903   1.391   4.036 -0.2528  0.0919  0.2726
 7366SOL     OW22796   7.241   2.750   0.948 -0.1447  0.3756  0.6965
 7366SOL    HW122797   7.166   2.767   0.891  0.4022  2.8252  0.6350
 7366SOL    HW222798   7.204   2.750   1.036 -0.5047 -0.5073  0.5674
 7367SOL     OW22799   7.421   4.855   6.168 -0.0035  0.0197  0.1121
 7367SOL    HW122800   7.505   4.812   6.183  1.3043  2.4255  0.2074
 7367SOL    HW222801   7.424   4.881   6.076  1.2762  3.6847  1.0174
 7368SOL     OW22802   4.785   4.171   2.624  0.3363  0.8084  0.0915
 7368SOL    HW122803   4.734   4.241   2.664 -0.3572 -0.6657  1.9509
 7368SOL    HW222804   4.874   4.185   2.656  0.3916  1.3454 -0.2841
 7369SOL     OW22805   4.267   1.660   2.267 -0.4535  0.5160 -0.3937
 7369SOL    HW122806   4.222   1.733   2.311 -1.7965 -0.3300 -0.2967
 7369SOL    HW222807   4.208   1.585   2.280  1.5197 -0.9256  0.6836
 7370SOL     OW22808   0.859   1.676   2.451 -0.4623 -0.1515  0.2768
 7370SOL    HW122809   0.828   1.762   2.481  1.1790  0.7187 -0.3616
 7370SOL    HW222810   0.788   1.643   2.396 -1.8666 -0.0263  1.9172
 7371SOL     OW22811   0.599   2.480   5.501 -0.8807 -0.4849 -0.6053
 7371SOL    HW122812   0.606   2.445   5.590 -1.1703 -1.0234 -0.7894
 7371SOL    HW222813   0.517   2.444   5.468 -0.9158 -0.0532 -0.9920
 7372SOL     OW22814   7.376   0.821   4.474  0.0716 -0.9065  0.8613
 7372SOL    HW122815   7.419   0.745   4.514  1.5913 -0.5761 -0.0377
 7372SOL    HW222816   7.440   0.852   4.410 -0.4407  1.2408  1.3312
 7373SOL     OW22817   1.764   7.716   0.351 -0.0814  0.0194  0.5301
 7373SOL    HW122818   1.826   7.789   0.351 -1.3272  1.1240 -0.1631
 7373SOL    HW222819   1.710   7.730   0.273  0.2354 -2.1859 -0.1482
 7374SOL     OW22820   4.150   0.669   3.942 -0.4068 -0.6524 -0.0993
 7374SOL    HW122821   4.210   0.649   4.014 -0.3724  2.5204  0.8820
 7374SOL    HW222822   4.099   0.589   3.931  0.6890 -1.8042  2.3451
 7375SOL     OW22823   3.738   1.081   3.610  0.2809 -0.0576  0.5253
 7375SOL    HW122824   3.711   1.171   3.628 -0.3552 -0.2323  0.4595
 7375SOL    HW222825   3.680   1.027   3.664  1.5611 -0.3809  1.6343
 7376SOL     OW22826   6.195   7.562   6.509 -0.2898 -0.4692  0.0504
 7376SOL    HW122827   6.131   7.497   6.540 -1.2284  0.4878  0.1736
 7376SOL    HW222828   6.195   7.630   6.577  0.8282 -0.4280  0.0184
 7377SOL     OW22829   5.183   5.839   2.123 -0.0221 -0.0422  0.6678
 7377SOL    HW122830   5.205   5.748   2.104  2.7743  0.7778 -0.6946
 7377SOL    HW222831   5.227   5.858   2.206 -1.5056 -0.1915  1.5091
 7378SOL     OW22832   1.283   5.207   7.331  0.0396 -0.2067  0.2790
 7378SOL    HW122833   1.209   5.167   7.376  1.0649 -1.8396  0.6071
 7378SOL    HW222834   1.303   5.286   7.381 -1.6744  0.4548 -0.0292
 7379SOL     OW22835   4.353   3.164   3.303  0.4270  0.1920 -0.3206
 7379SOL    HW122836   4.306   3.227   3.357 -0.3914 -0.5767 -0.0988
 7379SOL    HW222837   4.286   3.100   3.278  1.2522 -0.6629 -0.4194
 7380SOL     OW22838   7.425   0.849   1.729 -0.1432 -0.0466 -0.3598
 7380SOL    HW122839   7.421   0.935   1.770 -1.8835  0.3063 -1.1606
 7380SOL    HW222840   7.488   0.859   1.658  1.3285 -0.0904  0.8872
 7381SOL     OW22841   1.100   0.652   5.543  0.3008 -0.6256  0.2766
 7381SOL    HW122842   1.180   0.704   5.539 -0.2547  0.4067  1.7425
 7381SOL    HW222843   1.102   0.612   5.630 -0.8259 -0.4702  0.3886
 7382SOL     OW22844   6.931   2.748   5.219  0.5390  0.5273 -0.4776
 7382SOL    HW122845   6.901   2.835   5.193  0.1736  1.7844  3.4549
 7382SOL    HW222846   6.852   2.694   5.219  0.1518  1.0817  0.1181
 7383SOL     OW22847   3.467   1.543   2.350  0.1229 -0.5433 -0.0122
 7383SOL    HW122848   3.435   1.632   2.367  1.0495 -0.5291  1.9669
 7383SOL    HW222849   3.426   1.490   2.418  1.7679 -1.0841  0.6119
 7384SOL     OW22850   5.680   7.229   5.757  0.5016 -0.4307 -0.1474
 7384SOL    HW122851   5.643   7.314   5.782 -3.6241 -1.9827 -0.2007
 7384SOL    HW222852   5.716   7.194   5.838  0.8645  0.7251  0.2158
 7385SOL     OW22853   2.936   5.538   6.088 -0.1929 -0.0937  0.0673
 7385SOL    HW122854   2.889   5.512   6.009 -0.8388  1.1747  0.0125
 7385SOL    HW222855   3.027   5.517   6.070 -0.3254  0.2419 -1.0305
 7386SOL     OW22856   2.983   4.101   4.093  0.2269  0.4276 -0.2047
 7386SOL    HW122857   3.041   4.163   4.138 -0.8069 -0.7484  3.0359
 7386SOL    HW222858   3.042   4.043   4.045  1.4644  1.5264 -0.0734
 7387SOL     OW22859   1.540   1.840   7.287  0.0131  0.4501  0.3622
 7387SOL    HW122860   1.625   1.806   7.260 -0.2991 -0.9270  1.0112
 7387SOL    HW222861   1.560   1.898   7.361  0.4177  0.3439  0.3399
 7388SOL     OW22862   1.026   1.392   3.461  0.2733  0.1162  0.0743
 7388SOL    HW122863   1.065   1.432   3.384  0.4988  2.2465  1.2143
 7388SOL    HW222864   0.945   1.352   3.430  0.8910 -0.0173 -1.4353
 7389SOL     OW22865   4.087   3.459   0.681 -0.1662 -0.1477 -0.0602
 7389SOL    HW122866   4.118   3.488   0.595  1.3256  0.1806  0.5577
 7389SOL    HW222867   3.994   3.441   0.668 -0.1906  0.8348 -1.5035
 7390SOL     OW22868   0.548   3.296   2.267  0.4089 -0.2423 -0.2541
 7390SOL    HW122869   0.576   3.366   2.207  1.0573  0.1287  0.4683
 7390SOL    HW222870   0.471   3.332   2.310  1.0452  0.2489  0.4947
 7391SOL     OW22871   0.579   5.097   0.039 -0.1549 -0.4528  0.5642
 7391SOL    HW122872   0.625   5.019   0.070 -1.2729 -1.5412 -0.4336
 7391SOL    HW222873   0.510   5.064  -0.018 -1.9648  1.1455  1.6976
 7392SOL     OW22874   5.284   5.215   2.297  0.2399  0.0562  0.1612
 7392SOL    HW122875   5.209   5.198   2.355  1.9138 -0.1927  2.4078
 7392SOL    HW222876   5.307   5.129   2.262  1.7911 -0.6639  2.6236
 7393SOL     OW22877   3.011   1.443   4.340  0.1883 -0.0778 -0.8614
 7393SOL    HW122878   2.943   1.459   4.405  0.5367  2.5387 -1.0157
 7393SOL    HW222879   3.062   1.370   4.375 -0.3098  0.5276  1.2562
 7394SOL     OW22880   3.769   6.568   6.382  0.0438  0.0456  0.2572
 7394SOL    HW122881   3.698   6.580   6.318 -0.2339 -0.4406  0.4684
 7394SOL    HW222882   3.822   6.497   6.347  0.4239  0.3998  0.1070
 7395SOL     OW22883   5.898   1.467   6.037  0.7776  0.3147 -0.6617
 7395SOL    HW122884   5.823   1.524   6.053  0.9631  0.1722  0.8531
 7395SOL    HW222885   5.956   1.520   5.983  0.0427  0.8008 -0.9940
 7396SOL     OW22886   0.094   1.964   0.143 -0.4958 -0.6362 -0.3497
 7396SOL    HW122887   0.063   1.912   0.218  1.0636 -2.4624 -0.8804
 7396SOL    HW222888   0.053   1.923   0.067  1.5471 -1.8857 -0.8729
 7397SOL     OW22889   5.909   2.849   0.156  0.3736  0.9375  0.4681
 7397SOL    HW122890   5.943   2.839   0.067  1.6027  1.2523  0.8761
 7397SOL    HW222891   5.984   2.827   0.212 -0.3118  0.9867  1.4183
 7398SOL     OW22892   1.819   4.438   2.231 -0.0239  0.3988  0.5889
 7398SOL    HW122893   1.890   4.408   2.288  1.3498  1.8256 -0.3036
 7398SOL    HW222894   1.803   4.528   2.257 -0.4033  0.5982 -0.2778
 7399SOL     OW22895   4.365   6.358   6.493  0.2423  0.4377  0.5512
 7399SOL    HW122896   4.458   6.339   6.504  0.1673  0.2402  0.8806
 7399SOL    HW222897   4.321   6.280   6.528 -0.1435  1.9300  3.7128
 7400SOL     OW22898   2.518   0.524   1.131  0.3915 -0.1580 -0.3930
 7400SOL    HW122899   2.577   0.452   1.111  1.1783  0.6859 -1.2335
 7400SOL    HW222900   2.447   0.484   1.180  0.7186 -1.5311 -0.9831
 7401SOL     OW22901   2.158   3.393   7.283 -0.4079 -0.0431  0.1699
 7401SOL    HW122902   2.107   3.416   7.361 -0.3527  0.7305 -0.0069
 7401SOL    HW222903   2.220   3.326   7.313 -0.0945  0.5556  0.9007
 7402SOL     OW22904   2.568   2.019   2.096  0.3868  0.1403 -0.2669
 7402SOL    HW122905   2.656   2.055   2.090  0.0438  1.1481  0.4558
 7402SOL    HW222906   2.582   1.926   2.115  1.2803  0.0494 -1.2564
 7403SOL     OW22907   4.133   7.496   1.484 -0.0585 -0.5953 -0.3023
 7403SOL    HW122908   4.100   7.407   1.478  0.0245 -0.6074 -0.5871
 7403SOL    HW222909   4.077   7.538   1.550 -1.2142 -0.3674 -1.3834
 7404SOL     OW22910   2.062   1.869   6.017  0.7721 -0.2171 -0.4180
 7404SOL    HW122911   2.157   1.883   6.019  0.6873  0.2929  0.4526
 7404SOL    HW222912   2.030   1.910   6.097 -0.5408  2.1842 -2.0372
 7405SOL     OW22913   1.453   3.540   6.448 -0.6082 -0.0610  0.0537
 7405SOL    HW122914   1.377   3.482   6.458 -0.3124 -0.2982  1.0007
 7405SOL    HW222915   1.525   3.492   6.488 -0.2740  0.7886  0.4934
 7406SOL     OW22916   6.488   4.987   7.935 -0.1930 -0.2467  0.1487
 7406SOL    HW122917   6.492   5.065   7.879  0.4356 -1.1144 -1.0672
 7406SOL    HW222918   6.502   4.914   7.875  0.6905 -1.2207  1.4763
 7407SOL     OW22919   6.984   7.599   2.002 -0.3555 -0.2599 -0.1422
 7407SOL    HW122920   6.958   7.508   2.017 -1.4808  0.0981  0.1726
 7407SOL    HW222921   7.068   7.593   1.956 -2.5317 -1.5708 -4.4164
 7408SOL     OW22922   3.800   4.911   5.818  0.3970  0.6736  0.4560
 7408SOL    HW122923   3.759   4.934   5.735  2.7011 -0.1948 -1.0174
 7408SOL    HW222924   3.839   4.992   5.850  0.0034  0.8850  0.4023
 7409SOL     OW22925   2.200   5.654   0.078 -0.0196  0.0603  0.0625
 7409SOL    HW122926   2.118   5.705   0.076 -0.4761 -0.6509  0.3187
 7409SOL    HW222927   2.246   5.680  -0.002  0.4618  2.0193  0.9066
 7410SOL     OW22928   6.261   1.421   4.339  0.0175  0.3438 -0.0365
 7410SOL    HW122929   6.245   1.373   4.420  3.6436 -1.0049  0.0980
 7410SOL    HW222930   6.290   1.507   4.368  1.9006 -0.3303  0.2467
 7411SOL     OW22931   2.130   2.333   7.016 -0.1220 -0.4188 -0.4762
 7411SOL    HW122932   2.196   2.329   7.086 -0.0111 -0.7871 -0.6024
 7411SOL    HW222933   2.153   2.261   6.957 -0.4532 -0.3538 -0.6841
 7412SOL     OW22934   2.741   0.536   3.136  0.0577 -0.2803 -0.0741
 7412SOL    HW122935   2.719   0.444   3.124  1.1187 -0.8861  2.1491
 7412SOL    HW222936   2.814   0.551   3.076 -0.4991 -0.6915 -0.8780
 7413SOL     OW22937   0.242   4.822   7.709  0.0038  0.0249  0.0479
 7413SOL    HW122938   0.303   4.769   7.657 -1.0134 -0.3552 -0.7881
 7413SOL    HW222939   0.157   4.812   7.665 -0.4485  1.4546  0.5146
 7414SOL     OW22940   7.939   4.173   3.641  0.0389  0.2983 -0.5243
 7414SOL    HW122941   7.850   4.195   3.669  0.2659 -1.1322  1.4940
 7414SOL    HW222942   7.965   4.101   3.697  2.9589  1.4425 -0.2259
 7415SOL     OW22943   2.812   5.903   7.806 -0.0693  0.3056  0.3194
 7415SOL    HW122944   2.836   5.955   7.882  0.0806  0.4250  0.1909
 7415SOL    HW222945   2.753   5.836   7.840  0.2555  0.1593  0.5944
 7416SOL     OW22946   6.095   5.166   2.624 -0.2666 -0.1255 -0.4023
 7416SOL    HW122947   6.067   5.077   2.648 -2.3698  1.1705  2.6538
 7416SOL    HW222948   6.056   5.181   2.538  0.8489 -2.3869 -1.3812
 7417SOL     OW22949   2.230   2.637   7.910  0.4040 -0.5446 -0.3709
 7417SOL    HW122950   2.190   2.662   7.993  1.7173  0.5861 -0.0366
 7417SOL    HW222951   2.255   2.546   7.922  0.8167 -0.3187  0.5993
 7418SOL     OW22952   6.259   4.775   4.984 -0.5666  0.2727  0.4025
 7418SOL    HW122953   6.295   4.707   4.928  0.9079  1.2382  0.1342
 7418SOL    HW222954   6.249   4.734   5.070  0.8841 -0.1229  0.4001
 7419SOL     OW22955   0.751   2.979   4.055  0.4275 -0.5057 -0.0050
 7419SOL    HW122956   0.771   3.031   3.976  0.6422 -1.9730 -0.9521
 7419SOL    HW222957   0.817   3.005   4.118 -0.3366  1.4398  0.0809
 7420SOL     OW22958   2.504   2.209   7.581 -0.3893  0.7351  0.4769
 7420SOL    HW122959   2.497   2.114   7.584 -0.3986  0.7030 -0.4046
 7420SOL    HW222960   2.495   2.236   7.673 -2.0589  0.0108  0.5685
 7421SOL     OW22961   2.704   1.954   6.092 -0.1833 -0.3262 -0.8234
 7421SOL    HW122962   2.778   1.932   6.149  0.3588  0.6833 -1.1033
 7421SOL    HW222963   2.634   1.978   6.152  0.4858  1.0498 -0.5449
 7422SOL     OW22964   2.546   5.553   6.961  0.2719  0.3291  0.4699
 7422SOL    HW122965   2.510   5.605   7.033  1.2273  1.1622  0.3725
 7422SOL    HW222966   2.522   5.601   6.882  0.2537  0.0490  0.3028
 7423SOL     OW22967   0.059   4.256   2.052 -0.2486 -0.1552 -0.6193
 7423SOL    HW122968   0.137   4.304   2.079 -0.8894  0.9759 -0.7011
 7423SOL    HW222969   0.091   4.187   1.994  0.7765 -0.3432  0.1538
 7424SOL     OW22970   1.531   3.081   7.753 -0.2531 -0.2869  0.2542
 7424SOL    HW122971   1.579   3.052   7.831  0.3109 -1.7691 -0.5944
 7424SOL    HW222972   1.584   3.049   7.680 -1.7261 -0.5643 -0.7234
 7425SOL     OW22973   5.115   3.809   0.605  0.4456  0.3359  0.5174
 7425SOL    HW122974   5.183   3.805   0.539 -0.5485 -3.9762 -0.5967
 7425SOL    HW222975   5.158   3.783   0.686  0.5425 -0.6030  0.1824
 7426SOL     OW22976   2.565   2.547   4.241  0.6821  0.2994 -0.5448
 7426SOL    HW122977   2.528   2.635   4.249  2.4785  1.0577  0.0385
 7426SOL    HW222978   2.493   2.488   4.263  0.0775  1.7163  1.6142
 7427SOL     OW22979   4.436   2.100   6.650  0.1814 -0.3380 -0.1955
 7427SOL    HW122980   4.464   2.040   6.719  0.3463 -0.4156 -0.3296
 7427SOL    HW222981   4.362   2.057   6.608  0.5357 -0.6187 -0.5348
 7428SOL     OW22982   3.066   5.935   7.671  0.6729 -0.3778  0.1518
 7428SOL    HW122983   3.002   5.886   7.723 -0.1627 -1.4016 -1.7196
 7428SOL    HW222984   3.041   6.027   7.682  0.2308 -0.6028  1.1450
 7429SOL     OW22985   3.543   4.481   4.857  0.1960  0.2766  0.4205
 7429SOL    HW122986   3.542   4.405   4.915 -1.0469  0.5165  0.7316
 7429SOL    HW222987   3.531   4.444   4.769 -1.7252  0.1922  0.6929
 7430SOL     OW22988   1.538   5.430   7.495 -0.7476 -0.0139  0.4255
 7430SOL    HW122989   1.448   5.454   7.473 -0.4523  0.9594  0.2139
 7430SOL    HW222990   1.592   5.485   7.438 -0.0205 -0.8790  0.2628
 7431SOL     OW22991   7.658   1.291   1.662 -0.0847  0.3943  0.2773
 7431SOL    HW122992   7.610   1.299   1.580 -0.5531 -0.7976  0.4133
 7431SOL    HW222993   7.699   1.205   1.657 -0.8276 -0.0703  1.6587
 7432SOL     OW22994   7.397   1.732   5.454 -0.2806 -0.3377  0.1009
 7432SOL    HW122995   7.361   1.785   5.383 -0.6935 -2.3253 -1.2594
 7432SOL    HW222996   7.440   1.795   5.512 -1.6060  1.5655 -0.8770
 7433SOL     OW22997   4.731   6.857   2.444  0.7649  0.1643 -0.2922
 7433SOL    HW122998   4.679   6.826   2.518  0.0463  0.5310 -0.6281
 7433SOL    HW222999   4.696   6.944   2.424 -1.4557 -1.1931 -3.1757
 7434SOL     OW23000   6.901   6.185   2.096  0.5390 -0.3297  0.2569
 7434SOL    HW123001   6.815   6.228   2.090  0.9246  0.3503 -0.7229
 7434SOL    HW223002   6.956   6.249   2.142  0.2168 -1.3104  2.1045
 7435SOL     OW23003   1.474   6.390   5.074 -0.2009  0.0330 -0.4490
 7435SOL    HW123004   1.551   6.352   5.116  0.0267  0.4567 -0.4813
 7435SOL    HW223005   1.433   6.443   5.142 -0.3159  0.0252 -0.5113
 7436SOL     OW23006   0.961   5.358   7.875 -0.4249  0.3057  0.1818
 7436SOL    HW123007   0.897   5.287   7.884 -0.5539  0.2793 -0.8583
 7436SOL    HW223008   1.037   5.317   7.835 -0.1913  0.5879  0.3329
 7437SOL     OW23009   3.266   0.315   7.688  0.2945 -0.2562 -0.1688
 7437SOL    HW123010   3.321   0.347   7.760  1.0940 -3.5743  0.8703
 7437SOL    HW223011   3.326   0.265   7.632 -1.1535 -1.7087 -0.4946
 7438SOL     OW23012   6.908   4.323   2.099 -0.2020  0.2964  0.3258
 7438SOL    HW123013   6.874   4.318   2.010 -1.7276  0.1541  0.8975
 7438SOL    HW223014   6.834   4.352   2.152  0.8291  0.9030  1.4749
 7439SOL     OW23015   0.556   1.176   5.462 -0.0571 -0.0752  0.3881
 7439SOL    HW123016   0.606   1.154   5.541 -2.0962  0.0899  1.7886
 7439SOL    HW223017   0.499   1.100   5.447  0.7362 -0.3907 -1.3475
 7440SOL     OW23018   6.542   5.643   7.834  0.6889 -0.3593  0.2173
 7440SOL    HW123019   6.566   5.597   7.915  2.3457  0.8590  0.4888
 7440SOL    HW223020   6.497   5.722   7.865  2.6692  0.8793  0.0919
 7441SOL     OW23021   5.444   6.893   5.559  0.2482  0.1717 -0.1738
 7441SOL    HW123022   5.448   6.827   5.627 -0.6278 -1.0280 -1.2410
 7441SOL    HW223023   5.501   6.861   5.490 -0.3416  0.4046 -0.7890
 7442SOL     OW23024   5.985   2.691   7.211  0.4305  0.4118  0.1077
 7442SOL    HW123025   5.931   2.742   7.272  1.7821 -0.3487  2.0472
 7442SOL    HW223026   5.986   2.603   7.249  0.4853 -0.3635 -1.6205
 7443SOL     OW23027   4.686   3.169   0.926  0.0022 -0.0764 -0.1234
 7443SOL    HW123028   4.714   3.082   0.952 -1.4909 -0.2786  0.9166
 7443SOL    HW223029   4.591   3.166   0.928 -0.0872  1.5516 -0.1331
 7444SOL     OW23030   6.194   2.176   4.134 -0.4950  0.4951 -0.3213
 7444SOL    HW123031   6.189   2.214   4.222  0.4431 -0.7583  0.3108
 7444SOL    HW223032   6.175   2.249   4.076  0.4926  1.7607  0.8656
 7445SOL     OW23033   7.693   2.460   6.204  0.1494 -0.1315 -0.0463
 7445SOL    HW123034   7.771   2.511   6.180 -0.1343  0.0086 -0.6889
 7445SOL    HW223035   7.620   2.518   6.183 -0.1247 -0.1819  0.7530
 7446SOL     OW23036   7.651   2.714   2.651 -0.2547 -0.0892  0.0990
 7446SOL    HW123037   7.660   2.748   2.562 -2.7406 -0.7963 -0.4866
 7446SOL    HW223038   7.701   2.632   2.650 -0.6427 -0.3279 -0.8003
 7447SOL     OW23039   1.575   6.331   6.274 -0.3552 -0.1747  0.3050
 7447SOL    HW123040   1.539   6.390   6.341 -2.6728 -0.2962 -0.7128
 7447SOL    HW223041   1.611   6.258   6.324 -0.8761  0.3204  1.4694
 7448SOL     OW23042   4.963   0.332   7.619 -0.1120 -0.2079  0.3514
 7448SOL    HW123043   4.872   0.360   7.619  0.0304  0.4124  2.3864
 7448SOL    HW223044   5.001   0.374   7.541 -1.2098  0.7421  0.3013
 7449SOL     OW23045   5.532   6.369   0.959 -0.0361  0.5760  0.0335
 7449SOL    HW123046   5.530   6.441   1.021  1.0733  0.8215 -0.1962
 7449SOL    HW223047   5.446   6.326   0.968 -0.5829  1.7236  0.3824
 7450SOL     OW23048   7.619   5.060   4.010 -0.0919  0.4422  0.1598
 7450SOL    HW123049   7.650   5.146   3.982  3.1243  0.1212  2.2551
 7450SOL    HW223050   7.562   5.079   4.085 -0.1111  0.7619  0.0682
 7451SOL     OW23051   1.913   5.725   4.642  0.3771  0.0592 -0.0421
 7451SOL    HW123052   1.839   5.664   4.647  0.7976 -0.7243 -2.2447
 7451SOL    HW223053   1.910   5.758   4.552  1.1758  2.0539  0.6051
 7452SOL     OW23054   2.885   1.084   0.774 -0.3104  0.3057  0.0696
 7452SOL    HW123055   2.837   1.150   0.723 -1.0910 -0.7958 -0.6835
 7452SOL    HW223056   2.823   1.011   0.782  1.2634 -1.2232 -1.0299
 7453SOL     OW23057   3.951   1.132   7.429  0.5212  0.6651 -0.1561
 7453SOL    HW123058   3.964   1.201   7.493  0.2731  2.2399 -1.7145
 7453SOL    HW223059   4.039   1.112   7.397  0.4667  1.3030 -0.7215
 7454SOL     OW23060   7.762   2.292   5.953 -0.6446 -0.1710 -0.0350
 7454SOL    HW123061   7.690   2.348   5.922 -1.6994 -0.9165  0.9515
 7454SOL    HW223062   7.753   2.294   6.049  0.5417 -0.4441  0.0909
 7455SOL     OW23063   5.851   6.346   5.590 -0.3636 -0.6199  0.2928
 7455SOL    HW123064   5.835   6.324   5.498 -0.4557 -1.4566  0.5053
 7455SOL    HW223065   5.943   6.372   5.592 -0.0814 -1.5671  0.1315
 7456SOL     OW23066   4.916   7.012   5.500  0.5281  0.3966  0.0550
 7456SOL    HW123067   4.971   7.068   5.446  0.1909  0.8207  0.1453
 7456SOL    HW223068   4.971   6.990   5.575  0.5761  0.8187  0.1471
 7457SOL     OW23069   0.468   0.428   7.958  0.3137  0.6464  0.2403
 7457SOL    HW123070   0.445   0.391   8.043 -2.4804 -1.7401 -1.3886
 7457SOL    HW223071   0.550   0.385   7.934  1.0457  1.2249  1.5552
 7458SOL     OW23072   4.096   4.562   5.377  0.2229  0.6090 -0.6402
 7458SOL    HW123073   4.085   4.648   5.338  0.6997  0.7900 -0.3846
 7458SOL    HW223074   4.123   4.580   5.467  1.0731  0.2009 -0.8000
 7459SOL     OW23075   6.382   7.732   1.593  0.0801 -0.0288  0.0088
 7459SOL    HW123076   6.429   7.794   1.649  1.6524 -0.7962 -0.4116
 7459SOL    HW223077   6.388   7.649   1.639 -3.1726  0.2758  1.2343
 7460SOL     OW23078   5.967   1.826   7.748  0.8998  0.1711  0.9926
 7460SOL    HW123079   5.990   1.889   7.815  1.0568  1.3286 -0.1103
 7460SOL    HW223080   5.920   1.877   7.682  0.6344 -0.9505  0.2841
 7461SOL     OW23081   6.178   6.330   7.144  0.0621  0.3814  0.6961
 7461SOL    HW123082   6.109   6.315   7.209 -1.2220  2.5980 -0.0229
 7461SOL    HW223083   6.251   6.367   7.195  1.0906 -2.5940  1.5679
 7462SOL     OW23084   7.184   5.703   3.534 -0.6669 -0.1608 -0.2535
 7462SOL    HW123085   7.200   5.797   3.538  0.8821 -0.3962 -0.4984
 7462SOL    HW223086   7.170   5.677   3.625 -2.7264  0.5333 -0.3115
 7463SOL     OW23087   1.118   6.892   4.842  0.1450 -0.1462  0.0895
 7463SOL    HW123088   1.074   6.892   4.758 -0.5706 -0.0216  0.4557
 7463SOL    HW223089   1.047   6.892   4.907  0.6756  0.4206  0.6920
 7464SOL     OW23090   4.071   0.267   0.621  0.1468 -0.3762  0.1898
 7464SOL    HW123091   4.026   0.292   0.702  2.0680 -1.3929  1.6425
 7464SOL    HW223092   4.017   0.305   0.552 -1.2819  0.9961  1.9426
 7465SOL     OW23093   3.974   4.066   3.703 -0.5051  0.0683 -0.1475
 7465SOL    HW123094   4.041   4.004   3.673 -1.0043 -0.3655 -0.3805
 7465SOL    HW223095   3.931   4.096   3.623  0.2444  1.3308 -0.1064
 7466SOL     OW23096   1.320   2.231   0.842 -0.1298 -0.5616 -0.6733
 7466SOL    HW123097   1.262   2.306   0.850  0.8573  0.2234 -0.7314
 7466SOL    HW223098   1.394   2.251   0.899 -0.0721 -1.7154 -0.3074
 7467SOL     OW23099   2.750   1.677   0.241 -0.0009 -0.1645  0.0828
 7467SOL    HW123100   2.820   1.647   0.299  0.8355 -0.4234 -1.0202
 7467SOL    HW223101   2.703   1.743   0.292  0.9055 -0.1536  0.9340
 7468SOL     OW23102   2.704   6.163   2.694  0.0810 -0.7939 -0.3243
 7468SOL    HW123103   2.773   6.226   2.671  1.0573 -2.3352 -1.8382
 7468SOL    HW223104   2.731   6.126   2.778 -0.6353  0.9122  0.7175
 7469SOL     OW23105   3.970   4.364   6.456  0.0407 -0.0674  0.6945
 7469SOL    HW123106   3.994   4.359   6.548  1.5689 -1.5306  0.2766
 7469SOL    HW223107   4.034   4.422   6.416 -0.5632  0.4974  0.5325
 7470SOL     OW23108   7.369   3.387   7.791 -0.0241 -0.1676  0.0662
 7470SOL    HW123109   7.333   3.476   7.792 -0.9147 -0.5072 -0.4378
 7470SOL    HW223110   7.442   3.392   7.730 -1.1329 -0.1425 -1.3273
 7471SOL     OW23111   2.696   7.373   1.509 -0.0904 -0.6991 -0.2660
 7471SOL    HW123112   2.728   7.283   1.497 -0.9544 -1.1331  0.5688
 7471SOL    HW223113   2.732   7.401   1.592  1.4033  0.3044 -1.2103
 7472SOL     OW23114   6.484   6.610   2.947 -0.0818  0.1305  0.0297
 7472SOL    HW123115   6.569   6.606   2.992  0.3443 -1.5002 -0.8318
 7472SOL    HW223116   6.424   6.646   3.012  0.9855  0.0130  1.1190
 7473SOL     OW23117   0.301   0.279   5.197 -0.2389 -0.1245  0.3374
 7473SOL    HW123118   0.355   0.240   5.128  0.4090  0.5872  0.4216
 7473SOL    HW223119   0.217   0.298   5.155  0.7057  1.9049 -0.7881
 7474SOL     OW23120   2.521   7.458   4.618  0.5557  0.5009  0.0263
 7474SOL    HW123121   2.435   7.420   4.599 -0.9129  2.2195  2.6054
 7474SOL    HW223122   2.564   7.464   4.533 -1.7436 -0.6865 -1.3250
 7475SOL     OW23123   2.945   2.415   7.220  0.1313 -0.8176 -0.1491
 7475SOL    HW123124   2.971   2.417   7.312  1.3597  2.5088 -0.4327
 7475SOL    HW223125   2.859   2.457   7.218 -0.1409 -1.3838 -0.4654
 7476SOL     OW23126   6.275   0.565   0.663 -0.0239 -0.0337  0.1448
 7476SOL    HW123127   6.308   0.502   0.599 -2.0313 -0.5402 -0.4767
 7476SOL    HW223128   6.298   0.650   0.626  1.5932 -0.3555  0.3526
 7477SOL     OW23129   7.733   5.219   1.376 -0.1316  0.4295  0.2170
 7477SOL    HW123130   7.758   5.193   1.288 -0.2276 -1.7333  0.7752
 7477SOL    HW223131   7.688   5.142   1.412  2.5962  0.0482  3.2221
 7478SOL     OW23132   3.794   5.300   0.526 -0.7960 -0.2888 -0.8061
 7478SOL    HW123133   3.754   5.384   0.502  0.0089  1.0454  2.0537
 7478SOL    HW223134   3.882   5.304   0.489  0.0769  1.2775  1.2429
 7479SOL     OW23135   0.919   2.321   4.839 -0.2382 -0.0005  0.1483
 7479SOL    HW123136   0.935   2.305   4.932  0.7203  2.4934  0.4982
 7479SOL    HW223137   0.988   2.273   4.793 -0.4753 -0.9130  0.7222
 7480SOL     OW23138   0.033   4.369   7.375  0.0470  0.2906 -0.0057
 7480SOL    HW123139  -0.046   4.373   7.429 -0.6062  0.0631 -0.9124
 7480SOL    HW223140   0.003   4.393   7.287  0.8578 -0.4357 -0.5011
 7481SOL     OW23141   4.627   2.140   1.669 -0.0320 -0.5845  0.0144
 7481SOL    HW123142   4.661   2.171   1.753  0.0016  0.5527 -0.4017
 7481SOL    HW223143   4.532   2.140   1.680  0.0031 -1.6228  0.4424
 7482SOL     OW23144   4.938   7.352   5.392 -0.5670 -0.1982  0.1354
 7482SOL    HW123145   5.006   7.294   5.425 -0.8238  0.1685  1.3807
 7482SOL    HW223146   4.916   7.318   5.306  3.3242  1.4208 -1.7421
 7483SOL     OW23147   6.843   2.840   5.843  0.0615 -0.2435 -0.4740
 7483SOL    HW123148   6.827   2.931   5.815 -0.5088 -0.1380  0.1754
 7483SOL    HW223149   6.785   2.827   5.918  0.5428 -0.9732 -0.2144
 7484SOL     OW23150   2.250   0.276   7.526 -0.0172 -1.0258 -0.4055
 7484SOL    HW123151   2.266   0.201   7.583  0.2136 -0.5703  0.1393
 7484SOL    HW223152   2.287   0.351   7.573  0.7345 -0.7286 -1.4333
 7485SOL     OW23153   1.016   4.280   7.461  0.5312  0.4429  0.0211
 7485SOL    HW123154   1.050   4.362   7.428  0.7780 -0.4096 -1.9820
 7485SOL    HW223155   1.023   4.219   7.387 -2.2800 -0.6432  0.5132
 7486SOL     OW23156   0.425   5.799   7.065  0.3332 -0.0152  0.2829
 7486SOL    HW123157   0.489   5.769   7.000 -1.4122 -2.2114 -0.5350
 7486SOL    HW223158   0.350   5.828   7.013 -0.1914  0.4671  1.2895
 7487SOL     OW23159   1.095   1.691   1.143  0.6852  0.1967  0.6143
 7487SOL    HW123160   1.176   1.645   1.169  0.8156 -1.1174 -1.8719
 7487SOL    HW223161   1.115   1.728   1.058 -0.4287  2.4737  1.2713
 7488SOL     OW23162   0.848   2.250   3.236 -0.3849 -0.4712  0.0295
 7488SOL    HW123163   0.824   2.159   3.254  1.9531 -0.8878  1.4579
 7488SOL    HW223164   0.837   2.294   3.320 -1.1823  0.5214 -0.5778
 7489SOL     OW23165   6.187   5.009   7.284  0.0531  0.4749  0.4564
 7489SOL    HW123166   6.114   5.037   7.229  0.6863 -0.2600 -0.8235
 7489SOL    HW223167   6.146   4.966   7.359 -0.8399  0.6629  0.0887
 7490SOL     OW23168   7.762   4.399   7.504  0.1078  0.0139 -0.1463
 7490SOL    HW123169   7.740   4.312   7.536 -0.5933 -0.8603 -2.7474
 7490SOL    HW223170   7.821   4.435   7.570 -0.5453 -1.9326  1.5897
 7491SOL     OW23171   3.329   5.207   1.759 -0.3362  0.2023 -0.4013
 7491SOL    HW123172   3.252   5.197   1.815 -1.1179  1.5628 -1.1676
 7491SOL    HW223173   3.399   5.235   1.818 -0.5593 -0.5527  0.2240
 7492SOL     OW23174   4.426   1.717   1.440 -0.1634 -0.4251 -0.0513
 7492SOL    HW123175   4.362   1.775   1.399  0.8133  0.0107 -0.9901
 7492SOL    HW223176   4.501   1.717   1.381 -0.3875 -3.2245 -0.4613
 7493SOL     OW23177   3.981   0.096   6.272  0.2623 -0.1940  0.3794
 7493SOL    HW123178   3.943   0.100   6.360 -0.6105 -0.2513  0.0093
 7493SOL    HW223179   4.019   0.008   6.266 -2.2014 -1.2850 -0.3098
 7494SOL     OW23180   5.640   2.839   4.051  0.1127 -0.3073 -0.1897
 7494SOL    HW123181   5.672   2.888   4.126 -1.1304  0.7756 -0.3219
 7494SOL    HW223182   5.702   2.767   4.040  2.3216  1.5048 -0.3130
 7495SOL     OW23183   5.161   2.007   2.133 -0.3766 -0.2462 -0.1398
 7495SOL    HW123184   5.217   2.065   2.184  0.2875  1.6005 -2.7330
 7495SOL    HW223185   5.198   1.919   2.147  2.4769  0.7320 -0.7608
 7496SOL     OW23186   5.145   3.862   6.600  0.4945  0.4884 -0.5708
 7496SOL    HW123187   5.136   3.945   6.554 -0.3478  0.1611 -1.0181
 7496SOL    HW223188   5.139   3.885   6.693  2.9944  1.2502 -0.5446
 7497SOL     OW23189   7.469   4.187   0.017 -0.2132  0.4881  0.3918
 7497SOL    HW123190   7.483   4.257  -0.047  1.4086 -1.2286 -1.2654
 7497SOL    HW223191   7.520   4.214   0.093  0.2889  1.1456 -0.1648
 7498SOL     OW23192   3.700   3.007   1.338 -0.0338  0.6597 -1.1739
 7498SOL    HW123193   3.663   2.966   1.259  0.3805  0.5717 -1.3262
 7498SOL    HW223194   3.636   2.989   1.407 -0.8835  1.5650 -1.6904
 7499SOL     OW23195   2.734   0.272   2.610 -0.5228  0.0384 -0.3040
 7499SOL    HW123196   2.715   0.352   2.659 -1.6103 -2.1623  3.2250
 7499SOL    HW223197   2.829   0.268   2.606 -0.4267  0.7069  0.9425
 7500SOL     OW23198   6.502   7.176   1.259 -0.5539 -0.4524  0.4915
 7500SOL    HW123199   6.498   7.082   1.278 -0.3387 -0.6920 -0.6001
 7500SOL    HW223200   6.593   7.192   1.237 -0.4520  0.1590  1.3199
 7501SOL     OW23201   0.528   1.547   1.809 -0.0696 -0.1301 -0.0587
 7501SOL    HW123202   0.527   1.631   1.763 -0.5590  0.0223  0.2244
 7501SOL    HW223203   0.602   1.499   1.770  0.0945  0.3548 -0.3513
 7502SOL     OW23204   4.160   6.515   4.655  0.0053 -0.3673  0.4653
 7502SOL    HW123205   4.180   6.545   4.744 -0.3309  0.3743  0.2960
 7502SOL    HW223206   4.189   6.424   4.654  1.7348  0.1411  0.7730
 7503SOL     OW23207   4.300   6.900   7.079  0.3896  0.5449 -0.1683
 7503SOL    HW123208   4.234   6.970   7.077 -1.2909 -0.8931  1.5459
 7503SOL    HW223209   4.286   6.851   6.998  0.2532  1.0183 -0.4335
 7504SOL     OW23210   0.347   1.446   4.491  0.1583 -0.9057  0.0849
 7504SOL    HW123211   0.422   1.466   4.435  0.1147 -0.1429  0.2893
 7504SOL    HW223212   0.304   1.531   4.503 -0.3522 -1.2274  0.5216
 7505SOL     OW23213   4.403   4.231   1.549 -0.2587 -0.2278 -0.3736
 7505SOL    HW123214   4.338   4.162   1.559  0.1271 -0.3802  1.4231
 7505SOL    HW223215   4.384   4.292   1.619  0.6893  0.4329 -0.6736
 7506SOL     OW23216   3.740   4.838   7.512 -0.5019 -0.3151 -0.0111
 7506SOL    HW123217   3.827   4.803   7.491 -0.1736 -0.9719  2.1260
 7506SOL    HW223218   3.753   4.933   7.514  0.3275 -0.4237  0.7724
 7507SOL     OW23219   2.707   5.656   4.367  0.2365 -0.6794  0.4025
 7507SOL    HW123220   2.670   5.617   4.288 -0.4327 -1.3427  1.0203
 7507SOL    HW223221   2.801   5.637   4.361  0.5184  0.9682 -1.1537
 7508SOL     OW23222   1.981   3.638   4.165 -0.1394  0.4460  0.1984
 7508SOL    HW123223   2.008   3.566   4.221  1.0972  0.6773 -0.0858
 7508SOL    HW223224   2.031   3.714   4.195 -0.0890  0.7727 -0.6589
 7509SOL     OW23225   2.837   0.948   7.971 -0.2889  0.1092  0.4005
 7509SOL    HW123226   2.843   0.853   7.986  0.6672  0.3542  1.6752
 7509SOL    HW223227   2.926   0.975   7.948 -0.2445  0.8929  1.3969
 7510SOL     OW23228   6.316   0.772   5.019  0.2223  0.5422 -0.2689
 7510SOL    HW123229   6.329   0.753   5.112  1.6784 -1.0493 -0.7359
 7510SOL    HW223230   6.235   0.726   4.996 -1.4895  2.9040  0.6689
 7511SOL     OW23231   7.756   3.173   2.038 -0.0799  0.3198 -0.2910
 7511SOL    HW123232   7.774   3.191   1.945 -1.0604 -0.9610 -0.7734
 7511SOL    HW223233   7.728   3.257   2.074  0.9060  0.9680 -0.9962
 7512SOL     OW23234   1.735   0.575   3.242  0.1274 -0.0922 -0.3114
 7512SOL    HW123235   1.798   0.509   3.213  1.6871  0.9102  0.6338
 7512SOL    HW223236   1.745   0.647   3.181  0.2661  0.2681  0.1277
 7513SOL     OW23237   1.976   1.912   6.273  0.2386  0.1249 -0.6002
 7513SOL    HW123238   1.917   1.869   6.336 -0.0662  2.1567  0.5852
 7513SOL    HW223239   2.063   1.904   6.312  0.7111 -2.0555 -1.9052
 7514SOL     OW23240   4.489   1.748   4.598 -0.2464 -0.1461  0.9451
 7514SOL    HW123241   4.455   1.727   4.511 -0.0010 -0.3781  0.9053
 7514SOL    HW223242   4.585   1.745   4.588 -0.1857 -1.9607  1.6487
 7515SOL     OW23243   1.141   5.190   7.700 -0.5825 -0.5519  0.4814
 7515SOL    HW123244   1.122   5.146   7.617  0.6611 -0.2199  0.0002
 7515SOL    HW223245   1.237   5.189   7.707 -0.6417 -0.0763  1.6428
 7516SOL     OW23246   2.592   7.517   5.155  0.3441 -0.3304 -0.2894
 7516SOL    HW123247   2.541   7.597   5.168  0.3051 -0.5634  1.1768
 7516SOL    HW223248   2.549   7.473   5.081  0.8960  1.3889 -1.6857
 7517SOL     OW23249   7.192   1.977   3.866  0.6024 -0.6526 -0.0782
 7517SOL    HW123250   7.235   1.918   3.927 -1.0753  0.3680  2.2275
 7517SOL    HW223251   7.250   1.979   3.790  3.5175 -0.9662  1.9820
 7518SOL     OW23252   2.731   6.902   4.234  0.0893 -0.3309 -0.1509
 7518SOL    HW123253   2.813   6.901   4.283  0.0179 -0.3322 -0.0319
 7518SOL    HW223254   2.669   6.856   4.290  0.0227 -0.3856 -0.2688
 7519SOL     OW23255   1.127   1.596   4.280 -0.0959  0.1097 -0.2365
 7519SOL    HW123256   1.214   1.630   4.260  0.1139  1.1330  2.0940
 7519SOL    HW223257   1.069   1.640   4.217  0.8301  0.8269 -0.6194
 7520SOL     OW23258   6.288   3.955   6.367 -0.9578  0.5352  0.4136
 7520SOL    HW123259   6.242   3.895   6.308 -1.3540  1.0743  0.1630
 7520SOL    HW223260   6.380   3.945   6.343 -0.9662 -0.3485  0.7266
 7521SOL     OW23261   3.438   5.525   2.222  0.0564  0.1072 -0.0979
 7521SOL    HW123262   3.459   5.440   2.262 -1.2641 -0.3100 -0.2161
 7521SOL    HW223263   3.372   5.563   2.281  0.3921  0.9018 -0.2279
 7522SOL     OW23264   7.156   6.304   4.899  0.3702 -0.7788 -0.3298
 7522SOL    HW123265   7.196   6.224   4.932  0.6940 -1.1779 -1.6127
 7522SOL    HW223266   7.221   6.372   4.914  0.1644 -0.7845  0.6109
 7523SOL     OW23267   2.565   3.021   3.547 -0.3040 -0.3241  0.0357
 7523SOL    HW123268   2.496   2.992   3.605 -0.7518 -0.5145 -0.5792
 7523SOL    HW223269   2.535   2.997   3.459  0.2481  0.1633 -0.3000
 7524SOL     OW23270   7.805   1.773   5.191  0.3289  0.6062  0.0032
 7524SOL    HW123271   7.813   1.846   5.253  1.3901  0.0386  0.5536
 7524SOL    HW223272   7.714   1.745   5.199 -0.6579  3.0216 -1.5689
 7525SOL     OW23273   3.937   2.108   3.981 -0.1909 -0.4766  0.3839
 7525SOL    HW123274   3.920   2.182   4.039 -0.7055  0.6329 -1.1323
 7525SOL    HW223275   3.864   2.108   3.920  1.7238  0.2158 -2.0741
 7526SOL     OW23276   0.289   5.603   0.218 -0.1695  0.6780  0.1165
 7526SOL    HW123277   0.295   5.604   0.314  1.8636  2.3090  0.0502
 7526SOL    HW223278   0.261   5.692   0.195  0.0653  0.5173 -0.8220
 7527SOL     OW23279   5.069   2.055   4.281 -0.2615 -0.3778 -0.4289
 7527SOL    HW123280   5.081   2.134   4.333  0.5132 -0.4080 -0.5482
 7527SOL    HW223281   4.990   2.072   4.229  0.6039  0.8442 -1.4042
 7528SOL     OW23282   7.482   7.157   5.627 -0.3315 -0.1404 -0.2624
 7528SOL    HW123283   7.476   7.137   5.721 -0.6718 -0.5520 -0.3704
 7528SOL    HW223284   7.424   7.094   5.585 -0.7305  0.5032 -0.6897
 7529SOL     OW23285   4.163   1.748   7.944 -0.0917  0.0322  0.5379
 7529SOL    HW123286   4.245   1.701   7.925 -0.4755 -0.2323 -0.5633
 7529SOL    HW223287   4.171   1.830   7.896 -1.0369 -0.5867 -0.7361
 7530SOL     OW23288   2.557   6.307   6.402  0.3237 -0.0895  0.5827
 7530SOL    HW123289   2.604   6.272   6.326  0.0330  0.4787  0.1377
 7530SOL    HW223290   2.516   6.387   6.371  1.4691  0.9973  1.7492
 7531SOL     OW23291   1.424   1.706   5.659 -0.1173  0.4023 -0.3377
 7531SOL    HW123292   1.408   1.612   5.649 -2.2547  0.8407 -1.8212
 7531SOL    HW223293   1.519   1.713   5.672 -0.0991 -2.0496  1.6303
 7532SOL     OW23294   7.696   5.960   1.445  0.5367 -0.2238  0.2308
 7532SOL    HW123295   7.715   5.955   1.539  0.5146  2.7931  0.5135
 7532SOL    HW223296   7.605   5.990   1.441  0.8481  0.6447 -0.6885
 7533SOL     OW23297   6.910   4.931   0.178  0.1042 -0.3115 -0.0531
 7533SOL    HW123298   6.817   4.953   0.181  0.5799  2.7419 -2.5703
 7533SOL    HW223299   6.952   4.998   0.231  0.9688 -1.4159  0.7103
 7534SOL     OW23300   3.547   7.245   7.785 -0.6555 -0.5233 -0.4322
 7534SOL    HW123301   3.557   7.313   7.718  0.9361 -0.5324 -0.2483
 7534SOL    HW223302   3.637   7.216   7.802 -1.1672 -1.4687  0.7299
 7535SOL     OW23303   0.346   4.995   0.919  0.1127 -0.1012 -0.3605
 7535SOL    HW123304   0.357   5.085   0.951  1.0200 -0.5604  0.7097
 7535SOL    HW223305   0.425   4.950   0.949 -1.7533 -2.0752  2.0022
 7536SOL     OW23306   7.291   1.586   1.250 -0.2240 -0.0437 -0.3500
 7536SOL    HW123307   7.201   1.616   1.261 -0.2975  0.1380 -1.3554
 7536SOL    HW223308   7.313   1.610   1.160  1.2073  0.9273  0.2201
 7537SOL     OW23309   5.483   1.873   7.531 -0.3638 -0.2646  0.2391
 7537SOL    HW123310   5.546   1.829   7.473  0.3759  0.4472  0.4809
 7537SOL    HW223311   5.418   1.911   7.471  0.4291  0.5214 -0.1589
 7538SOL     OW23312   1.939   5.174   2.993 -0.0597 -0.3558  0.1714
 7538SOL    HW123313   1.867   5.236   2.981 -0.4183 -0.8055 -0.0068
 7538SOL    HW223314   1.904   5.090   2.963  1.2580 -0.1664 -2.1902
 7539SOL     OW23315   2.104   2.684   6.918  0.7952  0.2041 -0.7124
 7539SOL    HW123316   2.169   2.624   6.955  1.1666  1.1268  0.1932
 7539SOL    HW223317   2.044   2.701   6.991  1.1132  1.4721 -0.7146
 7540SOL     OW23318   3.502   1.198   4.793  0.1534 -0.0452  0.8035
 7540SOL    HW123319   3.575   1.219   4.735 -0.8873  0.5876 -0.3352
 7540SOL    HW223320   3.524   1.112   4.829  1.9384  0.5817  1.3186
 7541SOL     OW23321   3.071   3.995   5.743 -1.0029  0.6527 -0.2313
 7541SOL    HW123322   3.017   4.043   5.805 -0.2310  3.9643 -1.9241
 7541SOL    HW223323   3.043   4.025   5.657 -0.6763 -2.2938 -1.5048
 7542SOL     OW23324   2.595   7.496   3.065  0.4053 -0.5406  0.3776
 7542SOL    HW123325   2.622   7.568   3.008 -1.2385  1.4158  1.8977
 7542SOL    HW223326   2.658   7.426   3.048  1.7606  1.0550 -1.5620
 7543SOL     OW23327   0.672   5.502   2.176  0.1188  0.2375  0.2306
 7543SOL    HW123328   0.727   5.424   2.184  2.0745  1.5779  0.5971
 7543SOL    HW223329   0.731   5.575   2.195 -1.3861  1.8927 -1.0740
 7544SOL     OW23330   5.344   4.640   0.077  0.0901 -0.6816  0.3492
 7544SOL    HW123331   5.279   4.627   0.008  0.7778 -0.2386 -0.3851
 7544SOL    HW223332   5.418   4.681   0.034  0.3676  0.0069  1.4310
 7545SOL     OW23333   3.199   6.886   6.574  0.5199  0.1529 -0.5515
 7545SOL    HW123334   3.220   6.906   6.665  2.3280 -0.9389 -0.6757
 7545SOL    HW223335   3.277   6.842   6.540 -0.4496 -0.2897 -2.3727
 7546SOL     OW23336   3.678   5.202   5.947 -0.2301  0.7843 -0.1415
 7546SOL    HW123337   3.772   5.188   5.958 -0.4307 -0.0852  0.6386
 7546SOL    HW223338   3.646   5.218   6.036 -0.5842  2.7727 -0.5798
 7547SOL     OW23339   3.307   0.524   6.300 -0.6001 -0.1943  1.1182
 7547SOL    HW123340   3.393   0.516   6.259 -0.7137  1.5269  0.4995
 7547SOL    HW223341   3.318   0.485   6.387  1.0774  0.9085  1.4194
 7548SOL     OW23342   4.527   3.333   4.474 -0.0904 -0.3382  0.1134
 7548SOL    HW123343   4.497   3.275   4.543 -1.3904 -0.9585 -0.9401
 7548SOL    HW223344   4.510   3.421   4.507  0.1979 -0.5893  0.9607
 7549SOL     OW23345   5.582   7.807   3.157 -0.8466  0.4775 -0.0269
 7549SOL    HW123346   5.611   7.724   3.195 -1.8559 -0.4273 -1.1089
 7549SOL    HW223347   5.516   7.781   3.092 -2.6167  2.2470  0.9478
 7550SOL     OW23348   4.159   6.201   0.853  0.2638  0.1085  0.0467
 7550SOL    HW123349   4.219   6.171   0.922  0.9164  0.3333 -0.4127
 7550SOL    HW223350   4.184   6.292   0.837  0.2932 -0.0160 -0.6604
 7551SOL     OW23351   5.770   0.043   6.380  0.2361  0.2920 -0.4351
 7551SOL    HW123352   5.679   0.065   6.364  0.7207  1.5130 -1.6494
 7551SOL    HW223353   5.773  -0.053   6.374 -1.3251  0.0259  1.8192
 7552SOL     OW23354   6.357   7.660   0.345  0.2102  0.2363 -0.1487
 7552SOL    HW123355   6.357   7.700   0.433 -0.4049 -0.0356 -0.0201
 7552SOL    HW223356   6.424   7.592   0.350 -1.2310 -1.2019  0.7875
 7553SOL     OW23357   3.379   1.018   3.745 -0.0123  0.2519  0.1641
 7553SOL    HW123358   3.404   1.053   3.831 -0.0210  1.5683 -0.3432
 7553SOL    HW223359   3.351   0.928   3.762  1.0496  0.1354  1.3700
 7554SOL     OW23360   2.366   6.806   7.274 -0.1755 -0.1174 -0.0918
 7554SOL    HW123361   2.371   6.891   7.231 -0.3072  1.3902  2.6355
 7554SOL    HW223362   2.446   6.761   7.249  1.1966  1.8979  0.4397
 7555SOL     OW23363   2.322   1.133   4.604  0.2800 -0.2509  0.0586
 7555SOL    HW123364   2.353   1.217   4.636 -1.1603  0.5360 -0.5610
 7555SOL    HW223365   2.403   1.084   4.585  1.1365  0.6077  1.3232
 7556SOL     OW23366   2.223   3.048   2.696 -0.8609  0.1922  0.4280
 7556SOL    HW123367   2.190   3.032   2.784 -0.5589 -1.8814  0.2017
 7556SOL    HW223368   2.145   3.069   2.645 -0.7577  5.2071  1.7960
 7557SOL     OW23369   0.804   1.326   0.802 -0.4048  0.1890 -0.0379
 7557SOL    HW123370   0.747   1.390   0.759  0.6214  0.9603 -0.2873
 7557SOL    HW223371   0.818   1.259   0.735  0.5808  1.0152 -0.7077
 7558SOL     OW23372   0.946   3.456   4.055 -0.8557 -0.2960  0.1476
 7558SOL    HW123373   1.010   3.412   4.111 -1.3291 -0.4158  0.6058
 7558SOL    HW223374   0.990   3.465   3.970 -0.5441 -1.1620  0.2046
 7559SOL     OW23375   6.727   3.746   0.556 -0.2835  0.1297  0.1685
 7559SOL    HW123376   6.647   3.737   0.608 -1.0009 -1.1229 -1.0752
 7559SOL    HW223377   6.774   3.664   0.569 -0.7795 -0.4918 -1.5554
 7560SOL     OW23378   1.065   4.445   5.185 -0.0127 -0.3388 -0.4651
 7560SOL    HW123379   1.038   4.353   5.183  1.2791 -0.7266 -1.2138
 7560SOL    HW223380   1.080   4.467   5.093 -0.3596  0.6513 -0.2995
 7561SOL     OW23381   3.535   6.155   5.352  0.5164  0.0941  0.1016
 7561SOL    HW123382   3.587   6.178   5.429  0.8715  1.6723 -0.5474
 7561SOL    HW223383   3.600   6.145   5.282  0.3501 -2.8940  0.2827
 7562SOL     OW23384   6.272   5.111   0.462  0.0806 -0.4869 -0.1389
 7562SOL    HW123385   6.238   5.115   0.551 -0.2285  1.1524 -0.3011
 7562SOL    HW223386   6.333   5.037   0.462 -1.1130 -1.5132  0.9934
 7563SOL     OW23387   2.054   2.609   2.807  0.2895  0.3062  0.5715
 7563SOL    HW123388   1.996   2.641   2.876 -2.1420 -1.1734 -0.6512
 7563SOL    HW223389   2.061   2.515   2.824  0.4379  0.0861 -0.6204
 7564SOL     OW23390   6.920   1.334   7.253  0.5581  0.2551  0.4201
 7564SOL    HW123391   6.894   1.257   7.203  0.9048  0.6440 -0.3663
 7564SOL    HW223392   6.949   1.397   7.188 -1.0781  1.6162  0.9137
 7565SOL     OW23393   7.374   5.875   1.280  0.3779  0.8116  0.4878
 7565SOL    HW123394   7.403   5.962   1.306 -0.0478  0.9193  0.5979
 7565SOL    HW223395   7.279   5.876   1.290  0.2970  0.5562 -0.1701
 7566SOL     OW23396   1.060   1.073   5.113 -0.3363 -0.0594 -0.1944
 7566SOL    HW123397   0.989   1.120   5.070 -0.1319  1.6848  1.2373
 7566SOL    HW223398   1.017   1.014   5.174 -0.5891 -1.7237 -1.8734
 7567SOL     OW23399   1.973   5.108   7.807 -0.3097 -0.1432 -0.1916
 7567SOL    HW123400   2.041   5.131   7.870 -0.4290  0.0639 -0.1365
 7567SOL    HW223401   2.007   5.030   7.762 -0.3701 -0.4898  0.3570
 7568SOL     OW23402   7.337   3.090   4.660 -0.3570 -0.5106  0.0911
 7568SOL    HW123403   7.270   3.123   4.719 -0.2238 -0.1332  0.0364
 7568SOL    HW223404   7.410   3.066   4.718 -0.4788 -0.7658  0.1368
 7569SOL     OW23405   0.187   4.909   6.067  0.0785 -0.6697 -0.2747
 7569SOL    HW123406   0.207   4.992   6.110 -0.4391 -0.6669 -0.0314
 7569SOL    HW223407   0.114   4.873   6.117 -0.2393 -0.8810 -0.8791
 7570SOL     OW23408   0.155   5.069   1.248  0.4592  0.1521 -0.2443
 7570SOL    HW123409   0.221   5.132   1.220 -0.5423  1.0797 -0.5648
 7570SOL    HW223410   0.176   5.053   1.340 -0.7589  2.9459  0.6242
 7571SOL     OW23411   5.542   3.931   7.083  0.0261 -0.2134  0.2879
 7571SOL    HW123412   5.558   3.946   7.176 -0.1719  0.8783  0.1596
 7571SOL    HW223413   5.533   3.836   7.075  0.8809 -0.3898  1.2449
 7572SOL     OW23414   0.657   1.511   2.593  0.2892  0.0365  0.0665
 7572SOL    HW123415   0.636   1.448   2.524  2.4388 -0.3638 -0.3054
 7572SOL    HW223416   0.716   1.574   2.550 -0.8422  1.6343  0.7469
 7573SOL     OW23417   7.809   6.190   3.995  0.1973 -0.3751  0.3215
 7573SOL    HW123418   7.716   6.203   4.009  0.3223  0.3891  0.4935
 7573SOL    HW223419   7.815   6.124   3.925 -0.5182  1.9460 -2.0960
 7574SOL     OW23420   6.494   2.601   3.676  0.0054  0.1667 -0.3610
 7574SOL    HW123421   6.414   2.652   3.688  1.6189  3.1507 -1.1615
 7574SOL    HW223422   6.553   2.632   3.746  0.5182 -1.9618  0.2210
 7575SOL     OW23423   4.906   4.642   0.784  0.2867 -0.9112 -0.8670
 7575SOL    HW123424   4.830   4.598   0.746  0.3603 -0.2029 -1.8540
 7575SOL    HW223425   4.883   4.735   0.785  1.1201 -0.6896 -1.1555
 7576SOL     OW23426   6.359   5.284   6.098  0.6041  0.0538  0.2594
 7576SOL    HW123427   6.302   5.342   6.047  0.7823 -1.3166 -1.6090
 7576SOL    HW223428   6.356   5.319   6.187 -0.9626  1.6441 -0.3658
 7577SOL     OW23429   1.785   0.341   6.812  0.6694  0.2261  0.2102
 7577SOL    HW123430   1.844   0.345   6.736  1.5639  0.3582  0.8907
 7577SOL    HW223431   1.803   0.422   6.860  1.7818 -0.8870  1.7581
 7578SOL     OW23432   4.433   4.472   0.668 -0.2893  0.4037 -0.1404
 7578SOL    HW123433   4.404   4.510   0.751 -1.4540  2.3778 -1.3676
 7578SOL    HW223434   4.453   4.381   0.689 -2.6230  0.2449  1.8767
 7579SOL     OW23435   7.486   7.666   2.972 -0.1409 -0.0366  0.0338
 7579SOL    HW123436   7.486   7.606   2.898 -2.2319  0.6409 -0.5821
 7579SOL    HW223437   7.395   7.669   3.001 -0.0463  2.4368  0.3490
 7580SOL     OW23438   1.434   5.743   0.495  0.4123 -0.8880 -0.5160
 7580SOL    HW123439   1.360   5.792   0.459  1.2008  0.0456 -0.9088
 7580SOL    HW223440   1.441   5.665   0.440 -0.4720 -1.1473 -0.2740
 7581SOL     OW23441   5.141   3.316   6.154  0.1809  0.2437 -0.4711
 7581SOL    HW123442   5.114   3.406   6.134  1.0035  0.5959 -0.0400
 7581SOL    HW223443   5.148   3.274   6.068 -2.2697 -0.0536 -0.6001
 7582SOL     OW23444   3.986   5.014   3.769 -0.1461  0.5220  0.6926
 7582SOL    HW123445   3.927   5.040   3.840  1.2879  0.2440  2.0537
 7582SOL    HW223446   3.963   5.072   3.697 -1.6979  0.7782  1.3401
 7583SOL     OW23447   1.242   1.807   1.421  0.3355 -0.1865 -0.3577
 7583SOL    HW123448   1.307   1.812   1.490 -0.5518 -1.1130  0.5800
 7583SOL    HW223449   1.244   1.716   1.392 -1.4067 -0.5694  0.5879
 7584SOL     OW23450   7.876   6.466   4.910 -0.5299  0.4081  0.0644
 7584SOL    HW123451   7.925   6.525   4.852 -0.3316  0.1686 -0.0131
 7584SOL    HW223452   7.937   6.394   4.928 -0.8005  0.1859  0.0945
 7585SOL     OW23453   4.745   2.302   0.703 -0.1727  0.3528 -0.1141
 7585SOL    HW123454   4.666   2.255   0.676 -0.5723 -0.4131  2.2300
 7585SOL    HW223455   4.736   2.314   0.797  2.0691  1.1161  0.0702
 7586SOL     OW23456   5.639   3.358   5.974 -0.0878  0.0776 -0.1598
 7586SOL    HW123457   5.591   3.379   6.054 -0.4323 -0.6085 -0.1820
 7586SOL    HW223458   5.638   3.262   5.970  0.3702  0.0922 -0.7172
 7587SOL     OW23459   1.848   3.372   4.111  0.5975  0.0346  0.0928
 7587SOL    HW123460   1.902   3.311   4.061  1.3131  0.1688  0.6935
 7587SOL    HW223461   1.853   3.454   4.062 -0.4404 -0.3780 -0.7672
 7588SOL     OW23462   7.362   3.925   2.544 -0.4670  0.1506 -0.6432
 7588SOL    HW123463   7.283   3.930   2.492 -1.7076  0.5821  1.1735
 7588SOL    HW223464   7.344   3.856   2.608  1.0558 -0.4742 -0.8504
 7589SOL     OW23465   4.858   1.249   3.767  0.1405  0.5164 -0.7977
 7589SOL    HW123466   4.953   1.261   3.777 -0.0023  0.8988  0.1351
 7589SOL    HW223467   4.846   1.154   3.767  0.3404  0.4664  1.0451
 7590SOL     OW23468   5.778   1.413   2.960 -0.1009 -0.2603 -0.2129
 7590SOL    HW123469   5.760   1.504   2.983 -0.0856 -0.3496  0.1661
 7590SOL    HW223470   5.872   1.403   2.974 -0.2090 -0.5048  0.3740
 7591SOL     OW23471   4.779   1.347   1.134  0.0817  0.0545  0.6656
 7591SOL    HW123472   4.787   1.333   1.040  0.3076 -0.6607  0.7877
 7591SOL    HW223473   4.701   1.403   1.144 -0.2729 -0.3399  0.1001
 7592SOL     OW23474   1.443   6.531   1.434 -0.6824 -0.1935  0.0719
 7592SOL    HW123475   1.528   6.513   1.474 -0.2554 -0.4236 -0.9196
 7592SOL    HW223476   1.464   6.577   1.353 -1.2109 -3.6418 -2.2271
 7593SOL     OW23477   1.703   1.402   2.785  0.3360 -0.2833  0.9538
 7593SOL    HW123478   1.751   1.419   2.704 -0.1580 -1.9821  0.2601
 7593SOL    HW223479   1.641   1.475   2.792  0.1560 -0.2824 -0.3912
 7594SOL     OW23480   7.810   5.440   2.111  0.6329  0.2044  0.4178
 7594SOL    HW123481   7.849   5.473   2.192  0.3063  0.8940  0.3010
 7594SOL    HW223482   7.724   5.408   2.137  1.0708 -0.8761  0.5883
 7595SOL     OW23483   7.431   6.032   3.843  0.1282  0.0907 -0.3002
 7595SOL    HW123484   7.442   6.067   3.755  1.6862  1.1351  0.2740
 7595SOL    HW223485   7.454   6.105   3.901 -1.1210 -0.4950  0.9862
 7596SOL     OW23486   7.586   0.745   0.404  0.1512 -0.1416  0.6732
 7596SOL    HW123487   7.506   0.788   0.374 -1.6465 -2.8500  1.2317
 7596SOL    HW223488   7.635   0.813   0.450 -0.8870  2.0547 -1.2868
 7597SOL     OW23489   3.075   0.286   2.285 -0.0435 -0.1735 -0.1799
 7597SOL    HW123490   3.126   0.323   2.213 -0.9134  1.8150  0.1727
 7597SOL    HW223491   3.125   0.309   2.363 -0.9311  0.8680  0.0927
 7598SOL     OW23492   5.878   1.509   3.804 -0.3611 -0.6517  0.0398
 7598SOL    HW123493   5.859   1.468   3.888 -1.2509 -0.6129 -0.1405
 7598SOL    HW223494   5.801   1.492   3.750  0.0498 -0.3661 -0.6568
 7599SOL     OW23495   1.629   2.704   1.880 -0.0448  0.6049  0.0027
 7599SOL    HW123496   1.564   2.645   1.842 -1.2043  0.3324  2.2067
 7599SOL    HW223497   1.605   2.790   1.847 -1.5404  0.4946  0.7275
 7600SOL     OW23498   7.957   1.233   2.674 -0.5430  0.5718  0.2017
 7600SOL    HW123499   7.980   1.274   2.590  2.1351 -0.0915  0.5028
 7600SOL    HW223500   7.870   1.196   2.660  0.1101 -0.1594 -2.5736
 7601SOL     OW23501   0.177   3.608   2.494 -0.4368 -0.1833  0.1106
 7601SOL    HW123502   0.224   3.526   2.475 -1.0121 -0.7793  1.1517
 7601SOL    HW223503   0.246   3.670   2.518  0.1033 -0.0451 -1.6789
 7602SOL     OW23504   2.342   2.030   3.615 -0.1592  0.1768  0.1941
 7602SOL    HW123505   2.398   1.977   3.558 -0.7964  0.1418 -0.4132
 7602SOL    HW223506   2.394   2.044   3.694  0.4079 -0.4943 -0.0544
 7603SOL     OW23507   3.849   7.514   1.232 -0.6494  0.0814 -0.3546
 7603SOL    HW123508   3.884   7.493   1.145 -0.7727 -1.1818 -0.1233
 7603SOL    HW223509   3.924   7.507   1.291 -0.5697  0.9189 -0.3414
 7604SOL     OW23510   0.332   3.349   1.669 -0.2940 -0.2712 -0.3137
 7604SOL    HW123511   0.412   3.329   1.718  0.8581 -0.1839 -2.0512
 7604SOL    HW223512   0.342   3.441   1.643  0.0640 -0.8222 -2.2754
 7605SOL     OW23513   0.966   1.480   6.549  0.0567 -0.4083 -0.3928
 7605SOL    HW123514   0.991   1.543   6.481  0.7392 -0.7940 -0.5168
 7605SOL    HW223515   1.048   1.434   6.570 -0.0411 -0.0031  1.0036
 7606SOL     OW23516   7.223   5.291   0.438  0.0219  0.3133  0.5405
 7606SOL    HW123517   7.264   5.230   0.498  0.4949  0.7922  0.7104
 7606SOL    HW223518   7.153   5.240   0.396  1.0074 -0.6307 -0.0240
 7607SOL     OW23519   6.824   0.717   5.572 -0.7027  0.2829 -0.4293
 7607SOL    HW123520   6.897   0.710   5.511 -0.7425 -0.1685 -0.4245
 7607SOL    HW223521   6.780   0.632   5.568 -0.1625 -0.0839  0.9046
 7608SOL     OW23522   1.600   6.808   3.618  0.3988  0.1590 -0.1615
 7608SOL    HW123523   1.532   6.867   3.586 -0.6242 -1.4884 -1.1400
 7608SOL    HW223524   1.606   6.739   3.552  2.2357 -0.3576  0.4599
 7609SOL     OW23525   5.268   2.769   7.191 -0.1405  0.2259 -0.2088
 7609SOL    HW123526   5.346   2.715   7.191 -0.7255 -0.6415 -0.8745
 7609SOL    HW223527   5.270   2.814   7.107 -0.0658  0.6453  0.0140
 7610SOL     OW23528   0.657   4.022   6.553 -0.1553 -0.1269  0.0842
 7610SOL    HW123529   0.598   4.038   6.479  1.9093  0.9224 -1.4028
 7610SOL    HW223530   0.705   4.104   6.564  1.1495 -1.0024  1.1399
 7611SOL     OW23531   6.659   3.443   5.428 -0.1112  0.2056  0.0918
 7611SOL    HW123532   6.741   3.404   5.400 -0.5798 -0.4545 -0.3747
 7611SOL    HW223533   6.606   3.370   5.459 -1.6653  0.1757 -2.4176
 7612SOL     OW23534   6.095   5.800   4.331 -0.0272 -0.0857 -0.2993
 7612SOL    HW123535   6.019   5.856   4.313 -1.3603 -1.9954 -1.0957
 7612SOL    HW223536   6.062   5.736   4.394  1.6118  0.3261  1.0308
 7613SOL     OW23537   5.220   2.295   5.659  0.0290 -0.0518  0.2201
 7613SOL    HW123538   5.196   2.203   5.648  1.7196 -0.4932 -0.0870
 7613SOL    HW223539   5.244   2.324   5.571  1.7580 -0.0276  0.6537
 7614SOL     OW23540   7.822   1.743   7.594 -0.3814  1.2029  0.2873
 7614SOL    HW123541   7.873   1.786   7.525 -1.3392 -1.2046 -2.1131
 7614SOL    HW223542   7.746   1.799   7.606 -0.2414  1.6424 -0.7411
 7615SOL     OW23543   2.172   5.668   3.521  0.3822 -0.0583 -0.3287
 7615SOL    HW123544   2.228   5.725   3.469  0.7686 -1.1736 -1.1548
 7615SOL    HW223545   2.151   5.595   3.464  0.0297 -0.8481  0.7668
 7616SOL     OW23546   5.669   4.475   7.867  0.4932 -0.1662  0.1683
 7616SOL    HW123547   5.683   4.487   7.961  1.4274  0.2885 -0.0143
 7616SOL    HW223548   5.716   4.547   7.826  0.7968 -0.8230 -0.6837
 7617SOL     OW23549   0.130   6.006   5.497 -0.3849 -0.1295 -0.3484
 7617SOL    HW123550   0.088   6.091   5.483 -0.2604  0.4576  2.3536
 7617SOL    HW223551   0.150   5.975   5.409  0.0666  2.9000 -1.4437
 7618SOL     OW23552   2.317   4.257   1.467 -0.0331  0.2528 -0.4100
 7618SOL    HW123553   2.344   4.166   1.457  0.2400  0.4131 -1.1873
 7618SOL    HW223554   2.383   4.307   1.420  0.1287  0.9064  0.4857
 7619SOL     OW23555   3.439   0.742   7.670  0.0935 -0.0881  0.0438
 7619SOL    HW123556   3.445   0.804   7.598  0.1500 -0.1525 -0.0069
 7619SOL    HW223557   3.479   0.787   7.744 -1.3796  0.5980  0.4562
 7620SOL     OW23558   5.556   3.838   2.287 -0.0637 -0.8764 -0.1203
 7620SOL    HW123559   5.630   3.791   2.250 -1.0863 -2.0307 -0.7662
 7620SOL    HW223560   5.590   3.876   2.368  0.7928 -2.8083  0.4826
 7621SOL     OW23561   5.929   3.425   4.226 -0.9606  0.2554  0.5370
 7621SOL    HW123562   5.946   3.367   4.151  2.3064 -0.4113  1.6283
 7621SOL    HW223563   5.961   3.511   4.197 -4.0380  1.2224 -0.3851
 7622SOL     OW23564   2.739   5.567   4.676 -0.1542 -0.1304  0.2332
 7622SOL    HW123565   2.772   5.477   4.671 -0.0501 -0.0963  0.2930
 7622SOL    HW223566   2.683   5.576   4.599 -3.7156 -1.6255  2.3881
 7623SOL     OW23567   4.229   7.344   5.506  0.1398  0.5412  0.1456
 7623SOL    HW123568   4.224   7.280   5.435  1.2107 -0.2103  0.7134
 7623SOL    HW223569   4.179   7.303   5.577  2.3717 -0.5934  1.1510
 7624SOL     OW23570   0.708   1.844   4.031 -0.2040  0.1772  0.1427
 7624SOL    HW123571   0.715   1.923   3.977 -0.6826  0.7561  0.9015
 7624SOL    HW223572   0.648   1.787   3.983 -1.3342  1.0527  0.4690
 7625SOL     OW23573   2.348   3.707   7.619  0.1348  0.0553  0.0573
 7625SOL    HW123574   2.365   3.800   7.605 -0.6651  0.2767  0.4744
 7625SOL    HW223575   2.317   3.675   7.534 -0.8166  0.4706  0.2330
 7626SOL     OW23576   6.905   0.553   3.095 -0.2811  0.6316 -0.0793
 7626SOL    HW123577   6.910   0.644   3.065  0.9322 -0.1358 -2.4792
 7626SOL    HW223578   6.861   0.507   3.024 -0.0647 -0.8200  0.6978
 7627SOL     OW23579   1.031   5.563   4.520 -0.3005 -1.1520  0.2424
 7627SOL    HW123580   1.090   5.521   4.457 -0.3418 -0.8325 -0.0151
 7627SOL    HW223581   1.073   5.647   4.539 -0.9240 -0.7021 -0.3315
 7628SOL     OW23582   3.612   1.328   3.319 -0.0536  0.9034  0.0558
 7628SOL    HW123583   3.569   1.413   3.314 -0.9329  0.4402 -0.7353
 7628SOL    HW223584   3.545   1.269   3.355 -0.1753  0.1447 -1.3271
 7629SOL     OW23585   7.934   7.338   0.193  0.1053 -0.2351  0.1020
 7629SOL    HW123586   7.958   7.428   0.214 -0.8672  0.1279 -0.2816
 7629SOL    HW223587   8.017   7.290   0.193  0.4917  0.3832  1.5735
 7630SOL     OW23588   0.145   7.417   4.168 -0.2039 -0.3169 -0.0549
 7630SOL    HW123589   0.206   7.417   4.094 -0.0299 -3.5923 -0.0732
 7630SOL    HW223590   0.059   7.411   4.128 -0.2005 -0.6031 -0.0243
 7631SOL     OW23591   2.282   7.047   2.207 -0.1656 -0.0497  0.1763
 7631SOL    HW123592   2.344   6.978   2.230 -0.2652  0.1839  1.1600
 7631SOL    HW223593   2.297   7.063   2.114 -0.0933 -1.3461 -0.0454
 7632SOL     OW23594   0.031   2.870   4.290  0.0128  0.6992  0.1450
 7632SOL    HW123595   0.112   2.906   4.325  0.5322  0.6827 -0.9823
 7632SOL    HW223596   0.051   2.778   4.274 -1.0437  0.0467  2.2240
 7633SOL     OW23597   0.828   2.699   6.499  0.1478 -0.1361  0.2929
 7633SOL    HW123598   0.850   2.631   6.435 -1.1563 -1.2624  0.9813
 7633SOL    HW223599   0.802   2.650   6.577 -0.9656  1.1577  0.7743
 7634SOL     OW23600   4.401   6.859   0.019  0.0135 -0.2891 -0.3656
 7634SOL    HW123601   4.493   6.850  -0.007  0.4791  1.0746  0.7006
 7634SOL    HW223602   4.385   6.784   0.076  0.0625 -1.2279 -1.5284
 7635SOL     OW23603   1.787   0.285   7.144 -0.0252  0.4522 -0.1089
 7635SOL    HW123604   1.744   0.333   7.074  1.9280  0.3697 -1.4559
 7635SOL    HW223605   1.804   0.350   7.212  0.4482  1.1531 -0.8802
 7636SOL     OW23606   0.055   6.903   7.227 -0.2670  0.6018  0.2814
 7636SOL    HW123607   0.002   6.837   7.182  1.5428 -0.1470 -0.9009
 7636SOL    HW223608   0.145   6.881   7.202  0.5020  2.6163  1.1169
 7637SOL     OW23609   6.075   6.833   6.754 -0.5220 -0.2746  0.3785
 7637SOL    HW123610   6.168   6.810   6.753 -0.2461  0.5783  2.3146
 7637SOL    HW223611   6.037   6.781   6.684  1.1574 -1.8135  0.5387
 7638SOL     OW23612   7.211   6.041   5.020  0.4020  0.2321 -0.2725
 7638SOL    HW123613   7.151   5.981   5.063 -2.9182  2.1272 -1.8505
 7638SOL    HW223614   7.283   5.986   4.990  0.2620 -1.9593  2.9173
 7639SOL     OW23615   6.409   2.016   6.154  0.0458  0.1723 -0.1430
 7639SOL    HW123616   6.380   1.969   6.075  0.3745  1.6090 -1.1563
 7639SOL    HW223617   6.391   1.955   6.226  0.5258 -1.5422 -1.3941
 7640SOL     OW23618   4.896   1.374   5.601  0.1564  0.4495  0.0475
 7640SOL    HW123619   4.865   1.305   5.660 -0.9834  0.2890 -0.7083
 7640SOL    HW223620   4.928   1.327   5.524  1.9873  0.6368  0.6353
 7641SOL     OW23621   5.463   6.997   5.936  0.1627  0.0994 -0.3937
 7641SOL    HW123622   5.439   7.054   5.863 -1.2652  0.4236  0.2887
 7641SOL    HW223623   5.482   7.057   6.008  1.6157 -0.2135 -0.4980
 7642SOL     OW23624   5.565   4.776   7.931 -0.0606 -0.5276  0.0113
 7642SOL    HW123625   5.646   4.728   7.915 -0.0665 -1.1549  1.6614
 7642SOL    HW223626   5.593   4.861   7.963  0.0330 -1.5028  2.7529
 7643SOL     OW23627   5.413   1.310   3.962  0.1470 -0.6200 -0.2491
 7643SOL    HW123628   5.418   1.297   4.057  2.3626 -1.6151 -0.4436
 7643SOL    HW223629   5.447   1.229   3.925  0.3675  0.1763 -1.8705
 7644SOL     OW23630   7.083   6.183   0.291  0.1361  0.4704 -0.2144
 7644SOL    HW123631   7.104   6.108   0.347 -0.3198 -0.1834 -0.8937
 7644SOL    HW223632   7.026   6.239   0.344 -0.3368 -0.1639 -0.0462
 7645SOL     OW23633   0.717   2.857   7.895  0.3663 -0.2445 -0.7108
 7645SOL    HW123634   0.678   2.822   7.976  1.8620 -1.1257 -0.3394
 7645SOL    HW223635   0.781   2.921   7.926 -1.4818  2.0511 -1.3512
 7646SOL     OW23636   7.711   4.242   0.170 -0.0575  0.9761 -0.3547
 7646SOL    HW123637   7.707   4.201   0.256 -1.1305  0.3990 -0.6491
 7646SOL    HW223638   7.784   4.199   0.126  0.0979  0.8180  0.0529
 7647SOL     OW23639   6.563   5.129   4.117 -0.2281  0.3937  0.8846
 7647SOL    HW123640   6.539   5.044   4.153  1.7655 -0.2327  0.8145
 7647SOL    HW223641   6.616   5.170   4.185 -0.1954  1.1021  0.4442
 7648SOL     OW23642   6.200   4.065   3.072 -0.1759 -0.1166  0.1311
 7648SOL    HW123643   6.196   3.974   3.098  1.4625 -0.3824 -0.4398
 7648SOL    HW223644   6.265   4.104   3.130  1.6847 -0.1531 -1.8115
 7649SOL     OW23645   2.156   0.308   0.052 -0.1507 -0.3501  0.2505
 7649SOL    HW123646   2.125   0.384   0.004  1.6648 -0.6504 -1.5472
 7649SOL    HW223647   2.121   0.233   0.004  1.2991 -0.6540 -0.3672
 7650SOL     OW23648   2.479   0.326   7.078 -0.1194 -0.3190 -0.2413
 7650SOL    HW123649   2.426   0.351   7.003 -1.3457 -0.4607  0.5456
 7650SOL    HW223650   2.502   0.234   7.063  1.5694  0.2487 -1.5076
 7651SOL     OW23651   3.238   1.135   7.017 -0.5427 -0.2731 -0.2673
 7651SOL    HW123652   3.273   1.224   7.017 -1.2613  0.0225  0.2592
 7651SOL    HW223653   3.192   1.127   6.933 -3.0249  0.9321  0.8490
 7652SOL     OW23654   3.896   0.401   0.353 -0.1203  0.3267  0.3982
 7652SOL    HW123655   3.840   0.382   0.428 -1.6982 -0.1967 -0.8675
 7652SOL    HW223656   3.929   0.315   0.326  1.3562  0.6182  1.1059
 7653SOL     OW23657   6.184   5.171   7.965 -0.0568 -0.1795  0.3490
 7653SOL    HW123658   6.201   5.175   8.059  2.1324 -3.3009  0.2416
 7653SOL    HW223659   6.260   5.212   7.924  0.0340 -0.7428 -0.0656
 7654SOL     OW23660   0.656   3.473   1.151  0.0703 -0.0470  0.0874
 7654SOL    HW123661   0.699   3.425   1.080 -0.7743 -0.5208 -0.1121
 7654SOL    HW223662   0.582   3.418   1.176 -0.8398  1.0647 -0.0510
 7655SOL     OW23663   3.617   0.401   5.183  0.6478 -0.1277  0.1300
 7655SOL    HW123664   3.612   0.319   5.233 -0.4933  1.0188  2.0522
 7655SOL    HW223665   3.559   0.388   5.108 -0.0126 -0.8724  0.7542
 7656SOL     OW23666   0.047   2.418   0.769  0.4743  0.2544 -0.1881
 7656SOL    HW123667   0.081   2.506   0.785  1.1207  0.1533 -0.9370
 7656SOL    HW223668   0.118   2.360   0.798 -0.3666 -0.0727  1.3255
 7657SOL     OW23669   4.935   5.208   3.164  0.7774  0.1247  0.1819
 7657SOL    HW123670   4.926   5.135   3.224  1.1397  1.1673  1.5740
 7657SOL    HW223671   5.028   5.233   3.170  0.4894  1.2247  0.4074
 7658SOL     OW23672   7.446   0.637   2.517  0.2820 -0.1449  0.1339
 7658SOL    HW123673   7.362   0.595   2.537  1.1128 -1.2992  1.3704
 7658SOL    HW223674   7.512   0.576   2.549  1.5960  1.0537 -0.1742
 7659SOL     OW23675   2.384   4.907   1.921 -0.1537  0.2427 -0.3011
 7659SOL    HW123676   2.291   4.886   1.928 -0.3304  1.3975  1.4925
 7659SOL    HW223677   2.415   4.854   1.848 -2.2537 -0.0172 -1.0776
 7660SOL     OW23678   0.129   2.739   3.940 -0.8570  0.1861  0.6882
 7660SOL    HW123679   0.148   2.804   4.007  0.1801 -1.1949  1.7723
 7660SOL    HW223680   0.188   2.761   3.867 -1.0152  0.8665  0.7639
 7661SOL     OW23681   3.096   1.416   5.832 -0.1185 -0.1650 -0.3826
 7661SOL    HW123682   3.131   1.393   5.918  1.4522  0.6303 -0.7878
 7661SOL    HW223683   3.121   1.344   5.775 -1.1742 -0.6999 -0.1954
 7662SOL     OW23684   5.011   3.174   7.353 -0.0616 -0.6751  0.2518
 7662SOL    HW123685   5.006   3.107   7.285 -0.1379  0.3190 -0.7325
 7662SOL    HW223686   5.004   3.124   7.435 -0.0700 -1.8748 -0.4493
 7663SOL     OW23687   1.040   5.426   3.484  0.5268  0.1052  0.0842
 7663SOL    HW123688   0.983   5.360   3.524  0.6218 -0.1724 -0.2308
 7663SOL    HW223689   1.016   5.508   3.527  0.6036 -0.1811  0.6849
 7664SOL     OW23690   7.285   3.770   3.884  0.4221 -0.4530  0.5327
 7664SOL    HW123691   7.196   3.804   3.870  0.5693  0.4278  1.5699
 7664SOL    HW223692   7.275   3.711   3.959  0.8928  0.5720  1.4360
 7665SOL     OW23693   3.375   5.639   2.498  0.4432  0.0469 -0.8280
 7665SOL    HW123694   3.299   5.673   2.545  0.1063 -0.3985 -1.0396
 7665SOL    HW223695   3.421   5.585   2.563  0.8012  0.6304 -0.5862
 7666SOL     OW23696   4.134   7.372   7.940  0.6158  0.0769 -0.1125
 7666SOL    HW123697   4.078   7.351   8.015 -1.4657  0.4053 -1.4792
 7666SOL    HW223698   4.103   7.314   7.870  1.2061  1.0807 -1.2439
 7667SOL     OW23699   6.074   4.734   2.005 -0.1472 -0.0584  0.7467
 7667SOL    HW123700   6.081   4.829   2.013  1.0875 -0.0996  0.2878
 7667SOL    HW223701   6.020   4.720   1.927 -0.1754  0.2624  0.7080
 7668SOL     OW23702   7.230   6.604   2.920  0.2095 -0.0166 -0.1914
 7668SOL    HW123703   7.296   6.630   2.984 -0.5842  0.0117  0.6407
 7668SOL    HW223704   7.209   6.684   2.873 -0.7993  0.4729  1.0303
 7669SOL     OW23705   0.035   2.578   2.370  0.7158 -0.1753 -0.2116
 7669SOL    HW123706  -0.036   2.582   2.305  3.1271 -0.6726 -3.1107
 7669SOL    HW223707   0.054   2.669   2.390  1.2045  0.1082 -1.8027
 7670SOL     OW23708   1.136   0.911   7.951  0.1082  0.0855 -0.0471
 7670SOL    HW123709   1.077   0.982   7.926 -1.0522 -0.4089  1.1794
 7670SOL    HW223710   1.108   0.836   7.897  0.4397  0.1769 -0.3529
 7671SOL     OW23711   4.018   6.701   6.457  0.8411 -0.1959 -0.3254
 7671SOL    HW123712   3.925   6.680   6.465  0.4724  0.4802 -2.3697
 7671SOL    HW223713   4.028   6.782   6.506  0.3231 -0.1944 -0.2093
 7672SOL     OW23714   6.054   4.919   3.756 -0.3931 -0.1837  0.1789
 7672SOL    HW123715   5.974   4.877   3.725 -1.2664 -0.3773  2.5100
 7672SOL    HW223716   6.124   4.860   3.727 -1.2990 -1.3563  0.2629
 7673SOL     OW23717   5.231   6.057   5.818  0.6581 -0.2077 -0.1919
 7673SOL    HW123718   5.195   5.984   5.868 -0.8315  0.4994 -0.1707
 7673SOL    HW223719   5.174   6.063   5.741 -0.5224  2.1422  0.7667
 7674SOL     OW23720   4.168   4.765   0.919 -0.6243 -0.4513  0.4766
 7674SOL    HW123721   4.103   4.828   0.889  0.8955  0.8309 -0.2409
 7674SOL    HW223722   4.189   4.791   1.008  0.2968  0.3443  0.0438
 7675SOL     OW23723   2.948   7.342   3.924  0.4994 -0.3263 -0.0980
 7675SOL    HW123724   2.854   7.325   3.934  0.5602  0.0310  1.2444
 7675SOL    HW223725   2.964   7.331   3.830 -1.3979  2.1652 -0.8277
 7676SOL     OW23726   5.015   1.875   0.538 -0.0127 -0.2280 -0.4492
 7676SOL    HW123727   5.102   1.908   0.516  0.8439 -1.8902  0.2286
 7676SOL    HW223728   4.974   1.946   0.588  1.1515  0.3817 -0.3303
 7677SOL     OW23729   2.678   0.986   7.216 -0.8039 -0.0288  0.0582
 7677SOL    HW123730   2.755   1.029   7.254  0.0506  0.1987 -1.8563
 7677SOL    HW223731   2.689   0.894   7.237 -0.6178  0.1478  0.7817
 7678SOL     OW23732   2.113   3.906   7.830 -0.4167  0.3033 -0.0588
 7678SOL    HW123733   2.102   3.897   7.735  1.1437 -1.6015 -0.1091
 7678SOL    HW223734   2.179   3.974   7.841 -1.3281  1.2565 -0.2543
 7679SOL     OW23735   6.431   0.127   1.007 -0.4546 -0.5691 -0.9612
 7679SOL    HW123736   6.410   0.073   1.084  1.5124 -1.2209 -0.8250
 7679SOL    HW223737   6.450   0.064   0.938  1.8871 -0.1425 -0.8009
 7680SOL     OW23738   1.945   4.030   2.634  0.3301  0.0744 -0.2229
 7680SOL    HW123739   1.857   4.066   2.633  0.3194  0.0433 -0.3418
 7680SOL    HW223740   1.972   4.028   2.542  1.0011  1.4344 -0.0933
 7681SOL     OW23741   5.148   6.767   0.202 -0.6341  0.4267 -0.1306
 7681SOL    HW123742   5.082   6.836   0.214 -0.1463  0.6480  1.4243
 7681SOL    HW223743   5.192   6.760   0.287  1.9381  0.8628 -1.3352
 7682SOL     OW23744   2.553   1.744   4.244 -0.0504 -0.0993 -0.5753
 7682SOL    HW123745   2.565   1.686   4.319  1.1895  2.1999  1.1271
 7682SOL    HW223746   2.465   1.781   4.256  0.7772  1.5482  0.7847
 7683SOL     OW23747   5.546   1.632   3.168 -0.4676 -0.1130 -0.2500
 7683SOL    HW123748   5.592   1.638   3.084 -0.3666  0.5358 -0.1582
 7683SOL    HW223749   5.513   1.721   3.183 -1.1197 -0.3995  0.0436
 7684SOL     OW23750   5.006   6.280   5.724  0.1291 -0.2757  0.3485
 7684SOL    HW123751   4.972   6.264   5.812  0.7846 -0.5255  0.5626
 7684SOL    HW223752   5.003   6.194   5.682 -2.5401  0.2376 -0.7603
 7685SOL     OW23753   6.524   3.169   4.656  0.2329  0.2882  0.0427
 7685SOL    HW123754   6.615   3.143   4.646 -0.0639 -0.7741 -0.0587
 7685SOL    HW223755   6.498   3.135   4.742  0.3761  2.0074  0.8047
 7686SOL     OW23756   7.146   4.001   5.826 -0.5216 -0.6049  0.7833
 7686SOL    HW123757   7.155   4.096   5.834 -0.4527 -0.3566 -1.6082
 7686SOL    HW223758   7.054   3.987   5.804 -0.8193 -1.2368  2.2704
 7687SOL     OW23759   0.722   6.500   4.567  0.0159  0.4741  0.2302
 7687SOL    HW123760   0.711   6.584   4.612  0.5069  0.5026  0.3046
 7687SOL    HW223761   0.658   6.442   4.607 -1.4183  1.2237 -0.8750
 7688SOL     OW23762   5.100   3.509   4.915 -0.0767 -0.3431 -0.4247
 7688SOL    HW123763   5.046   3.553   4.849 -0.1860 -0.0548 -0.1505
 7688SOL    HW223764   5.074   3.550   4.998 -1.1632 -1.8801  0.0319
 7689SOL     OW23765   5.109   2.459   0.721 -0.4081  0.6219  0.2121
 7689SOL    HW123766   5.181   2.409   0.683 -0.0976  0.9771  0.3246
 7689SOL    HW223767   5.081   2.519   0.651 -0.9011  0.1678  0.0164
 7690SOL     OW23768   4.233   0.516   4.656  0.1098 -0.5664  0.6940
 7690SOL    HW123769   4.168   0.550   4.717  1.5266  0.1791  1.8825
 7690SOL    HW223770   4.196   0.530   4.569 -2.0254 -1.7390  1.3480
 7691SOL     OW23771   5.036   7.743   6.199 -0.4939  0.7779 -0.2909
 7691SOL    HW123772   5.083   7.760   6.280 -1.2491  1.5017  0.0126
 7691SOL    HW223773   5.038   7.827   6.153 -1.6095  0.8716 -0.1964
 7692SOL     OW23774   5.159   3.417   4.154 -0.1691  0.4462 -0.2174
 7692SOL    HW123775   5.213   3.374   4.220  0.1476  1.3117  0.0934
 7692SOL    HW223776   5.190   3.381   4.071  0.7018  0.7329 -0.0253
 7693SOL     OW23777   1.291   1.327   6.003 -0.0251  0.1879 -0.6497
 7693SOL    HW123778   1.378   1.327   6.042 -0.0103  0.6367 -0.6708
 7693SOL    HW223779   1.231   1.330   6.078 -0.0177  0.0120 -0.6379
 7694SOL     OW23780   0.828   0.341   2.360 -0.3854 -0.1851 -0.1809
 7694SOL    HW123781   0.786   0.420   2.392 -0.0714  0.3936 -1.1526
 7694SOL    HW223782   0.772   0.270   2.391 -0.7096  0.4113  0.6406
 7695SOL     OW23783   6.190   5.875   3.543 -0.2879 -0.0128 -0.0412
 7695SOL    HW123784   6.284   5.866   3.531 -0.1908  3.0902 -3.6279
 7695SOL    HW223785   6.181   5.943   3.609 -0.1273 -1.0096  1.0466
 7696SOL     OW23786   3.638   3.334   6.799 -0.5916 -0.5309 -0.1351
 7696SOL    HW123787   3.719   3.291   6.828 -0.9259 -1.0058  0.1177
 7696SOL    HW223788   3.592   3.356   6.880  0.3913  1.9608 -0.1933
 7697SOL     OW23789   3.066   1.902   0.692  0.0169 -0.1365  0.5583
 7697SOL    HW123790   3.066   1.830   0.629 -1.4796  0.1515  0.2071
 7697SOL    HW223791   3.006   1.875   0.761 -1.1043  1.0434  0.0798
 7698SOL     OW23792   7.414   4.240   2.023 -0.1199 -0.2539 -0.4524
 7698SOL    HW123793   7.329   4.283   2.012  0.1422  0.4379  0.1374
 7698SOL    HW223794   7.412   4.208   2.114  0.8463  1.1511  0.1017
 7699SOL     OW23795   3.475   7.322   4.255  0.5699  0.3008  0.4829
 7699SOL    HW123796   3.482   7.311   4.349  0.0938 -0.5267  0.4281
 7699SOL    HW223797   3.530   7.252   4.218  0.7503  0.6146  0.1410
 7700SOL     OW23798   5.194   7.326   1.364  0.0258  0.2680  0.2697
 7700SOL    HW123799   5.217   7.282   1.446  0.3491 -0.2674 -0.0967
 7700SOL    HW223800   5.134   7.396   1.390 -0.6224 -0.4852  0.8624
 7701SOL     OW23801   5.492   1.530   1.470 -0.0490  0.4600 -0.2950
 7701SOL    HW123802   5.559   1.465   1.490  0.6880  1.3717  0.3394
 7701SOL    HW223803   5.438   1.535   1.549  1.2138  2.1187  0.5357
 7702SOL     OW23804   1.302   3.440   3.856 -0.3840 -0.3562 -0.0839
 7702SOL    HW123805   1.233   3.403   3.802 -2.2543 -0.6719  2.3532
 7702SOL    HW223806   1.372   3.375   3.854 -1.6554 -1.7760  0.2614
 7703SOL     OW23807   4.290   7.248   3.653 -0.3132 -0.4099  0.3655
 7703SOL    HW123808   4.366   7.201   3.620 -1.2233 -0.6551 -1.5076
 7703SOL    HW223809   4.219   7.224   3.593 -1.6182  0.6502  1.4146
 7704SOL     OW23810   6.498   0.597   6.136  0.7762  0.2025 -0.2770
 7704SOL    HW123811   6.498   0.667   6.071 -0.9737 -0.6159 -1.2310
 7704SOL    HW223812   6.562   0.534   6.104  0.8473  0.3942 -0.5141
 7705SOL     OW23813   6.292   2.550   2.352  1.1399  0.0620 -0.5221
 7705SOL    HW123814   6.205   2.556   2.312  0.6379 -2.3251  0.0771
 7705SOL    HW223815   6.316   2.641   2.371 -1.7162  0.7423  0.2791
 7706SOL     OW23816   4.312   5.298   2.890  0.1177 -0.7173 -0.1471
 7706SOL    HW123817   4.364   5.296   2.810  0.5704 -0.1275  0.1337
 7706SOL    HW223818   4.366   5.252   2.955 -0.1447 -0.9809 -0.1107
 7707SOL     OW23819   7.269   6.339   0.726  0.0053 -0.2438  0.1487
 7707SOL    HW123820   7.285   6.256   0.680 -0.4280 -0.8337  1.0274
 7707SOL    HW223821   7.228   6.312   0.808  1.4163  0.7293  1.2118
 7708SOL     OW23822   4.961   6.469   3.719  0.1737 -0.2092 -0.4258
 7708SOL    HW123823   5.040   6.493   3.768  0.5179 -0.0344 -1.0575
 7708SOL    HW223824   4.953   6.538   3.653 -0.5339 -0.2039 -0.3409
 7709SOL     OW23825   3.736   0.863   3.138 -0.0195  0.8260 -0.5083
 7709SOL    HW123826   3.743   0.768   3.129  0.1311  0.8826 -1.0304
 7709SOL    HW223827   3.684   0.890   3.063 -0.1816  1.1415 -0.2810
 7710SOL     OW23828   3.681   5.709   2.741  0.8780  0.9006  0.0405
 7710SOL    HW123829   3.743   5.737   2.808  1.5722  0.6857 -0.4951
 7710SOL    HW223830   3.736   5.680   2.668  0.2642 -2.6306  0.8009
 7711SOL     OW23831   4.342   0.647   6.192 -0.3462  0.4583 -0.3304
 7711SOL    HW123832   4.289   0.625   6.268 -0.3823 -0.3871 -0.5890
 7711SOL    HW223833   4.299   0.602   6.119  0.8552 -0.4352 -0.5083
 7712SOL     OW23834   5.951   1.973   6.053  0.0058  0.0053 -0.3508
 7712SOL    HW123835   6.038   2.011   6.039 -0.2263  0.2006 -1.2798
 7712SOL    HW223836   5.922   2.011   6.136  0.2946  0.8877 -0.6451
 7713SOL     OW23837   0.844   5.981   1.801  0.9452 -0.3084  0.2065
 7713SOL    HW123838   0.769   5.927   1.827 -0.3264  0.4967 -1.5136
 7713SOL    HW223839   0.805   6.048   1.744  2.8755  0.6666 -0.0294
 7714SOL     OW23840   3.807   3.525   3.360  0.0575  0.2857 -0.1523
 7714SOL    HW123841   3.742   3.470   3.405 -0.1000 -0.9137 -1.7351
 7714SOL    HW223842   3.760   3.559   3.284  0.9884  0.2908 -0.7294
 7715SOL     OW23843   1.905   6.526   6.378  0.3579  0.2475  0.4898
 7715SOL    HW123844   1.994   6.491   6.372  0.6900  1.1689 -0.2188
 7715SOL    HW223845   1.865   6.505   6.294 -0.0119  0.0735  0.7058
 7716SOL     OW23846   3.843   6.841   5.269  0.6990 -0.7018 -0.6349
 7716SOL    HW123847   3.802   6.907   5.325  1.0781  1.5635 -2.8032
 7716SOL    HW223848   3.774   6.776   5.254  0.2937 -0.8460  1.5504
 7717SOL     OW23849   3.929   3.202   7.858  0.2464 -0.2976  0.0363
 7717SOL    HW123850   3.951   3.152   7.937  1.4593 -1.2392 -0.8532
 7717SOL    HW223851   3.835   3.217   7.865  0.0731 -1.6014  0.9783
 7718SOL     OW23852   1.693   0.166   1.473  0.0745  0.3395  0.0913
 7718SOL    HW123853   1.715   0.073   1.468  0.1406  0.2284  1.7410
 7718SOL    HW223854   1.683   0.194   1.382  0.6809 -1.1247 -0.4527
 7719SOL     OW23855   5.769   1.048   1.003 -0.0457  0.0266  0.1837
 7719SOL    HW123856   5.767   1.139   1.035  1.9116 -0.7156  2.7888
 7719SOL    HW223857   5.827   1.051   0.927 -0.7142  1.0680 -0.3166
 7720SOL     OW23858   1.300   4.981   4.245  0.1221  0.6134  0.2231
 7720SOL    HW123859   1.278   5.074   4.238  0.1587  0.7475  1.5832
 7720SOL    HW223860   1.384   4.973   4.201 -0.1927  1.0996 -0.4760
 7721SOL     OW23861   5.141   7.769   2.897 -0.3776  0.1687  0.3554
 7721SOL    HW123862   5.146   7.819   2.816 -0.0737 -1.2767 -0.5366
 7721SOL    HW223863   5.070   7.706   2.883  0.8131 -1.2533  0.5283
 7722SOL     OW23864   7.098   7.341   3.980 -0.7588 -0.2883 -0.4062
 7722SOL    HW123865   7.007   7.315   3.971 -0.9128  0.0295  0.2026
 7722SOL    HW223866   7.132   7.340   3.890 -1.8208  1.2828 -0.8716
 7723SOL     OW23867   7.277   3.406   4.759 -0.5772  0.2957 -0.0530
 7723SOL    HW123868   7.271   3.324   4.807 -0.4521 -0.0597 -0.6427
 7723SOL    HW223869   7.326   3.465   4.817  0.2702 -0.3741 -0.0822
 7724SOL     OW23870   0.365   1.040   5.820  0.3487 -0.7914 -0.3000
 7724SOL    HW123871   0.273   1.058   5.798  0.6347 -1.3604 -2.0957
 7724SOL    HW223872   0.396   1.122   5.859 -0.5138 -0.0497 -1.1097
 7725SOL     OW23873   3.792   7.415   6.064  0.2365  0.0059 -0.2040
 7725SOL    HW123874   3.807   7.327   6.098 -3.1666 -0.9635 -0.8694
 7725SOL    HW223875   3.871   7.435   6.014  1.1556 -2.6233  0.0234
 7726SOL     OW23876   7.000   3.889   6.346  0.4064 -0.0848 -0.3772
 7726SOL    HW123877   7.080   3.880   6.397  0.9664 -1.5443 -1.4466
 7726SOL    HW223878   7.026   3.869   6.256 -1.1972 -0.9073 -0.6999
 7727SOL     OW23879   0.483   7.480   0.464  0.6518  0.1516  0.4995
 7727SOL    HW123880   0.516   7.568   0.445  1.3877 -0.2072  0.1079
 7727SOL    HW223881   0.547   7.442   0.523 -0.1804  0.2271  1.4823
 7728SOL     OW23882   3.278   5.499   2.970 -0.4359 -0.2853  0.1047
 7728SOL    HW123883   3.363   5.534   2.943 -0.7920  0.3881 -0.1709
 7728SOL    HW223884   3.216   5.541   2.911 -1.0957  0.1805  1.1202
 7729SOL     OW23885   1.807   4.414   0.154  0.4850 -0.1077 -0.4639
 7729SOL    HW123886   1.744   4.382   0.090  0.9863  2.0622 -2.1296
 7729SOL    HW223887   1.755   4.469   0.213  0.1493 -1.5877  0.7124
 7730SOL     OW23888   7.494   3.527   4.295  0.3938  0.3017 -0.0639
 7730SOL    HW123889   7.439   3.542   4.219 -0.2891  1.3330  0.6158
 7730SOL    HW223890   7.537   3.611   4.312  3.7147 -0.8931 -1.6961
 7731SOL     OW23891   7.335   7.551   4.375  0.0578 -0.1188  0.2831
 7731SOL    HW123892   7.372   7.463   4.369 -0.1347 -0.0984 -2.5073
 7731SOL    HW223893   7.240   7.536   4.380  0.0120 -0.1072 -0.3864
 7732SOL     OW23894   5.433   4.556   2.885 -0.7026 -0.2313  0.3855
 7732SOL    HW123895   5.413   4.629   2.944 -2.9123 -1.4914  1.3276
 7732SOL    HW223896   5.528   4.553   2.882 -0.5120  0.7143  2.9166
 7733SOL     OW23897   6.130   6.701   0.854  0.5788 -0.1665  0.4601
 7733SOL    HW123898   6.189   6.746   0.794 -2.7839  2.9157 -0.9186
 7733SOL    HW223899   6.052   6.682   0.802 -1.1063 -0.6824  2.9763
 7734SOL     OW23900   5.833   3.480   7.858  0.5475  0.2317 -0.0847
 7734SOL    HW123901   5.873   3.566   7.844 -0.4032  0.3884 -2.3700
 7734SOL    HW223902   5.785   3.488   7.940  0.6718  1.8124 -0.1416
 7735SOL     OW23903   0.117   0.077   3.211  0.6814 -0.3564  0.5156
 7735SOL    HW123904   0.027   0.071   3.243  0.7394  0.0651  0.7662
 7735SOL    HW223905   0.169   0.089   3.290  0.9316 -0.3301  0.3469
 7736SOL     OW23906   5.015   2.062   6.416  0.0755 -0.1182 -0.2854
 7736SOL    HW123907   4.929   2.102   6.403  0.6856  1.2255 -0.3132
 7736SOL    HW223908   5.028   2.062   6.511  1.0086  1.8515 -0.3734
 7737SOL     OW23909   1.582   4.190   3.096  1.1302  0.0551 -0.4699
 7737SOL    HW123910   1.653   4.255   3.104  0.1136  1.0556  0.7916
 7737SOL    HW223911   1.529   4.223   3.023 -0.6658  2.0237  1.5740
 7738SOL     OW23912   4.323   5.856   6.745 -0.3825 -0.1389 -0.5512
 7738SOL    HW123913   4.327   5.782   6.684 -0.7313  0.0000 -0.7440
 7738SOL    HW223914   4.412   5.892   6.744 -0.0718 -0.8755 -0.0554
 7739SOL     OW23915   2.914   6.176   4.360  0.5405  0.2355  0.0373
 7739SOL    HW123916   2.983   6.238   4.384 -0.2780  1.3160 -0.3171
 7739SOL    HW223917   2.834   6.228   4.362 -0.1984 -0.8690 -0.0863
 7740SOL     OW23918   0.780   2.935   3.430 -0.3804 -0.6636 -0.9770
 7740SOL    HW123919   0.703   2.986   3.455 -1.1654 -1.7321 -1.1385
 7740SOL    HW223920   0.854   2.992   3.450 -1.0969 -0.4191  1.2383
 7741SOL     OW23921   5.852   0.053   5.083  0.2347  0.6284 -0.0717
 7741SOL    HW123922   5.830   0.114   5.153  0.8580 -0.4797  1.1460
 7741SOL    HW223923   5.805  -0.027   5.105  1.5031 -0.1717 -0.1343
 7742SOL     OW23924   1.073   4.217   0.398  0.1229  0.2028 -0.0714
 7742SOL    HW123925   1.160   4.253   0.379 -0.2576  0.4003 -1.5452
 7742SOL    HW223926   1.014   4.292   0.390 -0.0190  0.5200  2.8822
 7743SOL     OW23927   6.361   4.150   4.436 -0.5075  0.0892 -0.0828
 7743SOL    HW123928   6.390   4.103   4.358  1.3513  0.8786  0.0771
 7743SOL    HW223929   6.436   4.147   4.496 -1.7405 -0.1458  1.5251
 7744SOL     OW23930   3.162   6.921   5.552  0.0040  0.4924 -0.1450
 7744SOL    HW123931   3.092   6.898   5.612  0.1847 -1.7054 -0.6778
 7744SOL    HW223932   3.118   6.934   5.468 -0.0455  1.7966  0.0682
 7745SOL     OW23933   5.525   7.332   4.049 -0.0355 -0.8346  0.4974
 7745SOL    HW123934   5.579   7.374   4.116  0.8710 -0.2882 -0.5339
 7745SOL    HW223935   5.496   7.404   3.993 -0.2949 -1.3437 -0.0290
 7746SOL     OW23936   5.420   0.789   5.783 -0.4933 -0.0585 -0.1647
 7746SOL    HW123937   5.449   0.796   5.692  0.1573  0.4715  0.0766
 7746SOL    HW223938   5.472   0.717   5.818 -0.9591 -0.4611 -0.2849
 7747SOL     OW23939   4.263   4.616   4.685  0.5847 -0.3904  0.7020
 7747SOL    HW123940   4.358   4.603   4.678  0.5567 -0.2987  0.1411
 7747SOL    HW223941   4.231   4.605   4.596 -0.0084 -1.0030  0.9914
 7748SOL     OW23942   2.899   4.439   7.130 -0.5756  0.5085 -0.2714
 7748SOL    HW123943   2.992   4.459   7.138 -0.5326  0.3132 -0.2745
 7748SOL    HW223944   2.856   4.505   7.183 -0.3833  0.1155  0.3837
 7749SOL     OW23945   3.544   7.456   7.290  0.0267 -0.4666 -0.2992
 7749SOL    HW123946   3.478   7.524   7.305  1.8235  0.9588  1.7653
 7749SOL    HW223947   3.618   7.502   7.250  0.1607 -1.8726 -1.7923
 7750SOL     OW23948   4.533   6.687   5.698  0.2119  0.4896  0.0044
 7750SOL    HW123949   4.575   6.759   5.651 -0.6228  0.8653 -0.1887
 7750SOL    HW223950   4.527   6.617   5.633  0.6464  0.3906  0.0690
 7751SOL     OW23951   5.039   7.123   1.844  0.1016  0.3228  0.6557
 7751SOL    HW123952   5.109   7.135   1.907 -0.4431 -1.6635  1.7224
 7751SOL    HW223953   5.048   7.032   1.815 -0.6332  0.7229 -0.9531
 7752SOL     OW23954   6.146   7.944   0.807  0.3013  0.4296 -0.3871
 7752SOL    HW123955   6.239   7.964   0.792  0.9842 -1.3254  1.1493
 7752SOL    HW223956   6.145   7.851   0.832 -1.7818  0.6269  0.4742
 7753SOL     OW23957   1.049   4.873   4.201  0.1969  0.8201 -0.1117
 7753SOL    HW123958   1.138   4.869   4.236 -0.4924 -0.7739  1.5715
 7753SOL    HW223959   1.019   4.961   4.224  1.3194  1.4013 -0.7510
 7754SOL     OW23960   0.705   5.205   3.377  0.6288 -0.8586  0.1893
 7754SOL    HW123961   0.683   5.132   3.319 -1.0997  0.8222 -1.4419
 7754SOL    HW223962   0.637   5.203   3.445 -1.7491  1.2526 -1.9195
 7755SOL     OW23963   5.865   1.179   7.580  1.0514  0.1499 -0.1065
 7755SOL    HW123964   5.925   1.247   7.609  0.7476  1.4515 -2.2717
 7755SOL    HW223965   5.789   1.227   7.546  0.3249 -1.3159 -0.6517
 7756SOL     OW23966   1.663   4.071   7.247 -0.7586  0.3477  0.2169
 7756SOL    HW123967   1.613   4.142   7.205 -0.9915  0.4791  0.7050
 7756SOL    HW223968   1.735   4.116   7.290 -0.6686  0.2421  0.1752
 7757SOL     OW23969   5.640   1.537   0.742  0.5806  0.5185 -0.4452
 7757SOL    HW123970   5.723   1.491   0.744  0.8761  1.0429 -0.5559
 7757SOL    HW223971   5.574   1.468   0.748  1.0251  0.1979  1.6251
 7758SOL     OW23972   6.093   3.030   3.674 -0.3164 -0.6944  0.4013
 7758SOL    HW123973   6.126   3.120   3.667  0.0044 -0.8035  0.4620
 7758SOL    HW223974   6.035   3.019   3.599  1.8763 -1.3636 -1.3102
 7759SOL     OW23975   0.823   3.168   0.495  0.1212  0.4853 -0.0205
 7759SOL    HW123976   0.839   3.085   0.450  0.3614  0.1576  0.6549
 7759SOL    HW223977   0.879   3.231   0.451  0.4230  0.1454 -0.1213
 7760SOL     OW23978   5.571   3.074   4.811  0.2519 -0.8107  0.0875
 7760SOL    HW123979   5.525   3.156   4.831 -1.7788 -2.1436  1.2467
 7760SOL    HW223980   5.621   3.055   4.891  0.7819 -0.6795 -0.2083
 7761SOL     OW23981   3.485   1.987   1.252 -0.4201  0.4142  0.5121
 7761SOL    HW123982   3.425   2.057   1.228 -1.8637 -0.0672  2.5278
 7761SOL    HW223983   3.476   1.979   1.347 -0.1245 -2.3283  0.3740
 7762SOL     OW23984   0.000   2.301   5.799  0.5912 -0.3332  0.5032
 7762SOL    HW123985   0.022   2.211   5.774 -0.2914 -0.1912 -0.8737
 7762SOL    HW223986  -0.081   2.293   5.849 -0.6086 -0.1648 -1.3352
 7763SOL     OW23987   3.552   4.229   2.884  0.0740  0.1824  0.0015
 7763SOL    HW123988   3.567   4.145   2.841  1.3242 -0.1304  0.9863
 7763SOL    HW223989   3.487   4.273   2.830  0.6995 -0.6961 -1.5140
 7764SOL     OW23990   1.496   2.509   4.071 -0.0050  0.0506 -0.0052
 7764SOL    HW123991   1.534   2.462   4.145 -1.7292 -2.5207 -0.6144
 7764SOL    HW223992   1.522   2.458   3.994 -0.3969  1.1749 -0.9193
 7765SOL     OW23993   3.489   0.637   5.289 -0.3961 -0.0843 -0.5487
 7765SOL    HW123994   3.500   0.679   5.203  4.4915 -0.3134 -0.2758
 7765SOL    HW223995   3.498   0.544   5.271  1.8992 -0.0694  0.2164
 7766SOL     OW23996   5.600   2.483   0.304 -0.1617 -0.0472 -0.3883
 7766SOL    HW123997   5.675   2.530   0.269 -0.9955 -0.3988 -2.8810
 7766SOL    HW223998   5.637   2.415   0.360  1.1470  2.0849  1.5137
 7767SOL     OW23999   4.800   5.992   5.722  0.1321  0.0859 -1.1071
 7767SOL    HW124000   4.749   6.053   5.774 -1.2826 -0.6249 -1.6095
 7767SOL    HW224001   4.841   5.934   5.786 -0.1938  0.2858 -0.7140
 7768SOL     OW24002   3.133   7.572   3.765  0.2078 -1.1870  0.3727
 7768SOL    HW124003   3.119   7.595   3.673 -1.1764 -2.2585  0.2885
 7768SOL    HW224004   3.045   7.567   3.802  0.7551  2.6566  2.7170
 7769SOL     OW24005   5.915   2.215   6.551 -0.2033  0.9173 -0.0255
 7769SOL    HW124006   5.826   2.183   6.541  0.5089 -0.9787 -0.8406
 7769SOL    HW224007   5.912   2.274   6.626 -2.0551  0.5996  0.1842
 7770SOL     OW24008   7.704   4.784   7.704 -0.8565  0.4422 -0.0590
 7770SOL    HW124009   7.645   4.778   7.779 -1.0072  2.2397  0.0016
 7770SOL    HW224010   7.672   4.718   7.642 -2.2945  0.6766  0.4103
 7771SOL     OW24011   6.481   3.062   2.091  0.3983  0.0601  0.1272
 7771SOL    HW124012   6.429   3.052   2.011  2.3338  0.6527 -1.2711
 7771SOL    HW224013   6.417   3.066   2.161 -1.3265 -2.2483 -1.1897
 7772SOL     OW24014   0.026   4.380   3.499 -0.0398  0.4339 -0.4252
 7772SOL    HW124015   0.008   4.310   3.561 -2.2090  0.1241 -1.3348
 7772SOL    HW224016   0.020   4.339   3.413  0.0338  1.4546 -0.9388
 7773SOL     OW24017   1.414   4.043   7.382  0.1250 -0.5383  0.3476
 7773SOL    HW124018   1.495   4.062   7.336 -0.3496 -0.2718 -0.4116
 7773SOL    HW224019   1.409   4.109   7.451  1.3846 -1.6158  1.5272
 7774SOL     OW24020   4.741   7.464   4.974 -0.0392  0.4925 -0.0594
 7774SOL    HW124021   4.818   7.505   4.935  0.6979  0.2214  1.0587
 7774SOL    HW224022   4.675   7.468   4.906  0.9887  0.6562 -1.0842
 7775SOL     OW24023   5.640   4.519   2.322  0.1989  0.0504 -0.0922
 7775SOL    HW124024   5.621   4.488   2.234  0.5160 -0.5105  0.0319
 7775SOL    HW224025   5.724   4.564   2.314 -0.8788  2.0921 -0.5402
 7776SOL     OW24026   7.441   2.122   7.013 -0.0924 -0.0566  0.3783
 7776SOL    HW124027   7.452   2.155   7.102  0.5329  0.6074  0.0623
 7776SOL    HW224028   7.349   2.097   7.008  0.0918 -1.0657  1.5272
 7777SOL     OW24029   2.118   4.683   3.626  0.4011 -0.3125 -0.3338
 7777SOL    HW124030   2.049   4.648   3.683  1.2701  2.0958  2.4807
 7777SOL    HW224031   2.198   4.639   3.656  0.5131 -1.0224 -1.6362
 7778SOL     OW24032   3.924   0.185   3.980 -0.3003 -0.4326 -0.2020
 7778SOL    HW124033   3.876   0.105   3.999  0.9379 -0.9063  1.0271
 7778SOL    HW224034   3.994   0.188   4.045 -0.2929  1.6292 -0.2483
 7779SOL     OW24035   3.370   4.315   4.669  0.1023 -0.3379  0.0945
 7779SOL    HW124036   3.453   4.272   4.650 -0.3405 -1.3659  0.3953
 7779SOL    HW224037   3.317   4.299   4.590 -0.4445 -1.3485  0.6384
 7780SOL     OW24038   5.631   6.405   3.117  0.1496 -0.1137  0.0336
 7780SOL    HW124039   5.568   6.477   3.126 -0.3039 -0.3135 -1.3796
 7780SOL    HW224040   5.634   6.366   3.205  1.2470  2.2677  1.1498
 7781SOL     OW24041   1.064   7.801   1.639  0.3914 -0.0099 -0.1090
 7781SOL    HW124042   1.091   7.785   1.729  0.6744 -0.2597 -0.2394
 7781SOL    HW224043   1.132   7.858   1.603 -0.5444  1.4583  0.3217
 7782SOL     OW24044   1.966   3.835   1.865 -0.2581  0.0043 -0.3253
 7782SOL    HW124045   2.031   3.823   1.796 -0.2915 -1.1299 -0.1807
 7782SOL    HW224046   1.937   3.746   1.887  0.9318  0.1478  2.2568
 7783SOL     OW24047   3.939   2.923   6.716 -0.0774 -0.1180 -0.5894
 7783SOL    HW124048   3.962   2.886   6.631 -1.1124 -3.0503  0.2840
 7783SOL    HW224049   3.849   2.894   6.731 -0.2025  1.0300  1.1501
 7784SOL     OW24050   2.414   7.172   1.435  0.4627 -0.0488 -0.2625
 7784SOL    HW124051   2.440   7.221   1.357  0.3594 -1.8472 -1.4779
 7784SOL    HW224052   2.467   7.093   1.433  0.4166 -0.1592  1.4906
 7785SOL     OW24053   0.923   3.297   7.463  0.0056  0.0152  0.2245
 7785SOL    HW124054   0.885   3.237   7.399  1.3146 -1.1596  0.4970
 7785SOL    HW224055   1.002   3.331   7.421  0.5592 -0.3255  0.9559
 7786SOL     OW24056   0.671   4.287   7.202 -0.3073 -0.4619  0.2246
 7786SOL    HW124057   0.629   4.335   7.273  0.0908 -0.4263  0.4381
 7786SOL    HW224058   0.598   4.250   7.152 -0.7065  1.6763 -0.8887
 7787SOL     OW24059   3.668   3.189   4.821  0.4196 -0.3936  0.3068
 7787SOL    HW124060   3.705   3.122   4.879  1.7737  0.4051  0.4125
 7787SOL    HW224061   3.582   3.208   4.858 -0.2393 -2.4778 -0.0699
 7788SOL     OW24062   6.765   0.146   2.255 -0.2023 -0.3813  0.5692
 7788SOL    HW124063   6.721   0.212   2.309 -0.2904 -0.9905  1.2569
 7788SOL    HW224064   6.752   0.176   2.165 -0.9648  0.0947  0.8282
 7789SOL     OW24065   3.911   3.914   6.281 -0.3660 -0.0883 -0.7601
 7789SOL    HW124066   3.878   3.842   6.227  0.5646 -1.0641 -0.0716
 7789SOL    HW224067   3.885   3.993   6.234 -0.8600 -0.8837 -1.8707
 7790SOL     OW24068   6.748   6.920   4.787 -0.5282  0.3469  0.5792
 7790SOL    HW124069   6.802   6.886   4.859  0.3928  2.2759  0.8665
 7790SOL    HW224070   6.664   6.876   4.797 -0.6713  1.0892  3.3130
 7791SOL     OW24071   4.491   5.975   0.185 -0.3153 -0.6218 -0.1809
 7791SOL    HW124072   4.552   5.972   0.259  1.0109 -2.1228 -1.2676
 7791SOL    HW224073   4.420   5.916   0.210 -0.6604  0.0546  0.4988
 7792SOL     OW24074   3.386   4.584   1.304 -0.2661  0.2056  0.3490
 7792SOL    HW124075   3.423   4.513   1.357  0.4200  0.6639  0.5025
 7792SOL    HW224076   3.460   4.643   1.289  0.0576 -0.7458 -2.5999
 7793SOL     OW24077   6.682   1.685   1.728 -0.2695 -0.2206  0.0094
 7793SOL    HW124078   6.612   1.717   1.672 -0.2472 -1.0748 -0.5208
 7793SOL    HW224079   6.694   1.754   1.793 -1.0028  0.3194 -0.4144
 7794SOL     OW24080   2.663   6.707   2.037 -0.3796 -0.4515 -0.0079
 7794SOL    HW124081   2.663   6.617   2.006 -1.4322 -1.3435  2.3015
 7794SOL    HW224082   2.592   6.749   1.989  0.9368 -0.4394 -2.0308
 7795SOL     OW24083   0.787   7.630   3.646  0.3135  0.1494  0.1132
 7795SOL    HW124084   0.831   7.691   3.587 -1.1190  1.6127  0.4786
 7795SOL    HW224085   0.814   7.543   3.616  0.6777  0.8888 -1.8264
 7796SOL     OW24086   1.139   2.156   1.420 -0.3470  0.4370 -0.5651
 7796SOL    HW124087   1.203   2.126   1.484 -1.9850  0.7071  1.2922
 7796SOL    HW224088   1.056   2.154   1.466 -1.5316  1.2232 -2.5254
 7797SOL     OW24089   0.766   1.174   2.773  0.9044 -0.2364 -0.5955
 7797SOL    HW124090   0.776   1.248   2.832 -1.0788  0.3580 -0.9228
 7797SOL    HW224091   0.781   1.097   2.828 -1.6667  0.2592  0.9860
 7798SOL     OW24092   1.944   0.471   4.433  0.1775  0.3026  0.6750
 7798SOL    HW124093   2.015   0.413   4.405 -0.8199 -0.6369 -0.0337
 7798SOL    HW224094   1.941   0.463   4.528 -2.3187 -3.9335  0.5177
 7799SOL     OW24095   4.336   7.884   2.313  0.0309 -0.2071  0.3670
 7799SOL    HW124096   4.373   7.916   2.395 -2.6169  0.8571  1.2620
 7799SOL    HW224097   4.248   7.853   2.337 -0.3715 -0.9727 -1.8783
 7800SOL     OW24098   0.395   1.001   3.532  0.0802  0.5804 -0.1439
 7800SOL    HW124099   0.333   0.940   3.492  0.2161 -0.7934  1.6012
 7800SOL    HW224100   0.341   1.073   3.564 -0.0053  1.8415 -2.8702
 7801SOL     OW24101   2.407   3.120   2.044 -0.8435  0.2518 -0.1140
 7801SOL    HW124102   2.326   3.069   2.035 -1.3386  1.0503 -0.4042
 7801SOL    HW224103   2.457   3.099   1.966 -0.5710 -0.5779  0.2773
 7802SOL     OW24104   1.816   3.658   2.160  0.2521 -0.1057 -0.0412
 7802SOL    HW124105   1.886   3.711   2.121  0.0190  0.0327 -0.2806
 7802SOL    HW224106   1.738   3.713   2.152  0.0852 -0.3231  0.0803
 7803SOL     OW24107   6.288   4.509   3.415  0.0962  0.1238 -0.1675
 7803SOL    HW124108   6.324   4.447   3.480  1.2350  0.7663 -0.1530
 7803SOL    HW224109   6.228   4.457   3.363 -0.8290 -0.4281  1.3835
 7804SOL     OW24110   4.476   0.166   2.924 -0.2940 -0.3066  0.7074
 7804SOL    HW124111   4.404   0.148   2.863 -0.6599 -0.0400  1.0499
 7804SOL    HW224112   4.471   0.095   2.988 -0.2456 -0.2930  0.7259
 7805SOL     OW24113   3.525   3.323   5.773  0.6891  0.5871 -0.0916
 7805SOL    HW124114   3.524   3.409   5.816 -1.2483  1.1605 -1.1870
 7805SOL    HW224115   3.566   3.340   5.687  1.1195  0.2146  0.0347
 7806SOL     OW24116   6.064   4.446   3.729  0.3371 -0.0577 -0.0887
 7806SOL    HW124117   6.070   4.375   3.793 -0.0567 -0.1240 -0.1170
 7806SOL    HW224118   6.084   4.404   3.646 -1.3987 -0.5090 -0.3315
 7807SOL     OW24119   6.284   4.989   6.225  0.0048  0.0095  0.1994
 7807SOL    HW124120   6.355   5.051   6.243  0.5242  0.1302 -1.9779
 7807SOL    HW224121   6.273   4.941   6.307  0.6531  1.9014  1.4694
 7808SOL     OW24122   0.066   2.361   0.034  0.1908  0.0037 -0.4656
 7808SOL    HW124123   0.099   2.413   0.107  1.3481 -1.5701  0.1951
 7808SOL    HW224124  -0.027   2.348   0.054  0.7024 -1.2870  1.3520
 7809SOL     OW24125   7.835   2.579   7.493 -0.2336  0.5363 -0.4725
 7809SOL    HW124126   7.750   2.536   7.505  0.6713 -1.5291 -0.9168
 7809SOL    HW224127   7.878   2.526   7.426  0.7771  2.5537 -1.5002
 7810SOL     OW24128   6.043   2.842   7.897 -0.2650  0.1091 -0.4385
 7810SOL    HW124129   6.102   2.779   7.855 -2.0975 -0.4498 -2.3401
 7810SOL    HW224130   6.042   2.918   7.839 -2.1399 -0.3051 -1.0365
 7811SOL     OW24131   4.394   6.233   4.880 -0.0888  0.3703  0.0547
 7811SOL    HW124132   4.412   6.204   4.969 -0.7825 -0.8604 -0.1920
 7811SOL    HW224133   4.425   6.324   4.878 -2.2525  1.2728  2.2597
 7812SOL     OW24134   2.339   7.131   4.192 -0.3427  0.0789 -0.1606
 7812SOL    HW124135   2.288   7.113   4.113 -1.0171  0.6333  0.1394
 7812SOL    HW224136   2.360   7.224   4.186 -0.9361  0.2691  0.6174
 7813SOL     OW24137   3.948   0.778   5.861 -0.0697 -0.0686  0.6119
 7813SOL    HW124138   3.972   0.686   5.854 -1.7828 -0.4333 -2.3138
 7813SOL    HW224139   3.896   0.783   5.942 -1.5666 -2.1340 -0.1360
 7814SOL     OW24140   3.144   3.829   2.742 -0.4415 -0.4961  0.4927
 7814SOL    HW124141   3.136   3.749   2.690 -1.2306 -0.5377  0.6752
 7814SOL    HW224142   3.223   3.815   2.795 -0.5652 -1.1441  0.5085
 7815SOL     OW24143   5.490   7.829   6.766 -0.1680  0.0901  0.1476
 7815SOL    HW124144   5.568   7.773   6.760 -0.0570  0.3058 -0.5283
 7815SOL    HW224145   5.489   7.878   6.683 -0.5051  0.7691  0.5421
 7816SOL     OW24146   0.086   1.618   3.884  0.2316 -0.0927  0.1575
 7816SOL    HW124147   0.100   1.668   3.803  0.9422 -1.0926 -0.3673
 7816SOL    HW224148   0.150   1.547   3.879  0.0879 -0.3389  1.4750
 7817SOL     OW24149   7.520   0.838   7.631 -0.2254  0.0766 -0.0359
 7817SOL    HW124150   7.451   0.811   7.691 -0.5007  0.6025 -0.1118
 7817SOL    HW224151   7.602   0.822   7.679 -0.4508  0.7079  0.5594
 7818SOL     OW24152   6.864   6.826   4.986 -0.2540  0.0698  0.0128
 7818SOL    HW124153   6.866   6.872   5.069  0.8479 -0.4291  0.2781
 7818SOL    HW224154   6.806   6.752   5.000 -0.4331  0.2468  0.1971
 7819SOL     OW24155   6.656   6.391   3.754 -0.1022  0.5519 -0.1432
 7819SOL    HW124156   6.621   6.307   3.723 -0.2231  0.5453  0.0069
 7819SOL    HW224157   6.593   6.419   3.821  0.1386  0.5818  0.0713
 7820SOL     OW24158   7.748   4.623   1.923  0.0789 -0.0897 -0.8628
 7820SOL    HW124159   7.693   4.553   1.890  0.3923 -0.6576 -0.2187
 7820SOL    HW224160   7.804   4.580   1.988 -1.0997  1.0960  1.0382
 7821SOL     OW24161   1.700   2.005   7.933  0.0418 -0.1708 -0.3110
 7821SOL    HW124162   1.653   1.923   7.923 -0.0745 -0.0362 -0.9261
 7821SOL    HW224163   1.644   2.070   7.891  0.1748  0.2095  0.0878
 7822SOL     OW24164   5.697   3.293   1.989 -0.5002  0.3857 -0.5673
 7822SOL    HW124165   5.770   3.268   1.931 -0.5305  0.6606 -0.7253
 7822SOL    HW224166   5.619   3.276   1.937 -0.5292  0.5903 -0.5913
 7823SOL     OW24167   3.727   2.510   4.767 -0.2838 -0.0903  0.0492
 7823SOL    HW124168   3.695   2.451   4.699  1.0019  0.6375 -1.2430
 7823SOL    HW224169   3.704   2.598   4.737  2.6278  0.4626 -0.8803
 7824SOL     OW24170   0.303   7.268   4.627 -0.2752  0.0957  0.1788
 7824SOL    HW124171   0.277   7.313   4.547 -0.1509 -0.9703 -0.4789
 7824SOL    HW224172   0.271   7.324   4.698 -1.4566  0.4479 -0.6159
 7825SOL     OW24173   0.364   1.483   0.091 -0.3677 -0.3721  0.0347
 7825SOL    HW124174   0.448   1.463   0.130 -0.9802 -3.9548 -0.1883
 7825SOL    HW224175   0.308   1.509   0.164  0.0921 -1.1320  0.6632
 7826SOL     OW24176   6.285   3.593   1.074 -0.1854 -0.0067  0.3041
 7826SOL    HW124177   6.290   3.608   0.979 -2.6632  0.8022  0.2421
 7826SOL    HW224178   6.366   3.546   1.094  1.2526  1.3174 -1.8974
 7827SOL     OW24179   2.452   4.827   0.456  0.1441 -0.0245 -0.1528
 7827SOL    HW124180   2.441   4.897   0.520  0.8363  1.0622 -1.1711
 7827SOL    HW224181   2.460   4.872   0.372 -1.5523 -1.4346 -1.1461
 7828SOL     OW24182   1.052   1.439   3.718  0.3014 -0.0889  1.0645
 7828SOL    HW124183   1.046   1.451   3.623 -0.3084  2.8862  1.3867
 7828SOL    HW224184   1.142   1.463   3.740  0.4168 -0.6927  1.2767
 7829SOL     OW24185   3.465   6.737   1.810  0.1588  0.0247  0.3629
 7829SOL    HW124186   3.472   6.650   1.848  0.1778  0.9604  2.6536
 7829SOL    HW224187   3.387   6.733   1.755  0.2333 -1.4562  0.3448
 7830SOL     OW24188   1.770   0.889   5.053  0.0122  0.4496 -0.7658
 7830SOL    HW124189   1.802   0.939   5.128  1.5647  0.4220 -1.3846
 7830SOL    HW224190   1.685   0.854   5.082  0.7640  0.0779  1.1449
 7831SOL     OW24191   5.673   2.091   6.570  0.2626 -0.2083  0.7967
 7831SOL    HW124192   5.692   2.080   6.477  0.9055  1.8526  0.6240
 7831SOL    HW224193   5.584   2.127   6.572  0.4182  0.1807  0.9285
 7832SOL     OW24194   5.828   1.105   1.474  0.4206 -0.1518  0.0007
 7832SOL    HW124195   5.770   1.181   1.473  0.9250  0.2698 -1.7098
 7832SOL    HW224196   5.769   1.030   1.476 -0.2600  0.2565 -1.9947
 7833SOL     OW24197   5.570   7.170   7.746  0.3662  0.2299 -0.4516
 7833SOL    HW124198   5.657   7.131   7.743  0.2879  0.0781 -1.0013
 7833SOL    HW224199   5.522   7.126   7.675 -0.7269 -1.0196  1.0059
 7834SOL     OW24200   3.911   2.378   4.529  0.0140  0.6056  0.1143
 7834SOL    HW124201   3.952   2.328   4.458 -1.9851 -1.8646  0.5440
 7834SOL    HW224202   3.944   2.337   4.609 -0.2977  1.1774  0.5449
 7835SOL     OW24203   5.720   2.438   2.971 -0.5475 -0.2201  0.0356
 7835SOL    HW124204   5.789   2.433   2.905  0.0809  0.1329  0.6522
 7835SOL    HW224205   5.676   2.353   2.965  0.4457 -0.7651  0.1658
 7836SOL     OW24206   7.414   3.989   7.718  0.3673  0.3044  0.2614
 7836SOL    HW124207   7.401   4.051   7.790  2.9891  3.2535 -1.5704
 7836SOL    HW224208   7.507   3.995   7.698 -0.2675 -0.2874 -3.4352
 7837SOL     OW24209   7.970   2.316   6.972 -0.9316 -0.1757  0.1330
 7837SOL    HW124210   7.881   2.337   6.943 -0.8656 -0.0314  0.0317
 7837SOL    HW224211   7.977   2.221   6.962 -0.0083  0.0939 -2.9945
 7838SOL     OW24212   4.687   1.522   7.221  0.0427  0.0030 -0.1101
 7838SOL    HW124213   4.632   1.460   7.268 -0.9024  0.7851 -0.1474
 7838SOL    HW224214   4.742   1.468   7.164 -1.0000 -0.7688 -0.4028
 7839SOL     OW24215   3.205   2.080   5.549  0.1701 -0.2670 -0.4459
 7839SOL    HW124216   3.156   2.005   5.516 -0.7800  0.0064  0.2747
 7839SOL    HW224217   3.250   2.048   5.627 -3.3116  0.6738  2.2703
 7840SOL     OW24218   5.847   4.859   6.813  0.9843 -0.1260  0.1520
 7840SOL    HW124219   5.774   4.798   6.825  0.9545 -0.4856 -1.6151
 7840SOL    HW224220   5.903   4.845   6.890 -0.2900 -0.5322  1.0506
 7841SOL     OW24221   3.846   1.082   4.948  0.2817 -0.3329  0.4026
 7841SOL    HW124222   3.866   1.139   5.022  1.9558  0.2564 -0.4432
 7841SOL    HW224223   3.848   0.993   4.984 -0.5440  0.0241  1.3621
 7842SOL     OW24224   5.113   7.884   5.886  0.3177  0.5035  0.8548
 7842SOL    HW124225   5.160   7.811   5.925  1.1516  1.0621  0.9209
 7842SOL    HW224226   5.076   7.932   5.960 -0.2886  0.1186  0.8077
 7843SOL     OW24227   2.540   1.932   7.650  0.6334  0.2800 -0.1323
 7843SOL    HW124228   2.510   1.861   7.707  1.8292 -0.2426 -0.1154
 7843SOL    HW224229   2.507   1.909   7.563 -0.5689  0.6953  0.1944
 7844SOL     OW24230   2.693   0.358   6.505  0.5957  0.2494  0.1949
 7844SOL    HW124231   2.745   0.417   6.451  1.0470 -0.5429 -0.2491
 7844SOL    HW224232   2.714   0.270   6.472 -0.9757 -0.0968  0.0181
 7845SOL     OW24233   0.549   7.752   2.889  0.1179 -0.9862 -0.2751
 7845SOL    HW124234   0.479   7.816   2.881 -0.0626 -1.3029 -1.5626
 7845SOL    HW224235   0.625   7.795   2.847  0.7839 -0.5509  1.3093
 7846SOL     OW24236   0.853   4.787   0.649  0.3756  0.4068  0.3668
 7846SOL    HW124237   0.942   4.765   0.622 -0.5785 -1.3330 -1.7260
 7846SOL    HW224238   0.831   4.720   0.714 -0.2639 -0.9366 -1.1465
 7847SOL     OW24239   1.128   3.704   5.627  0.8291  0.2406  0.1776
 7847SOL    HW124240   1.199   3.738   5.573  0.0344 -0.0424 -1.1020
 7847SOL    HW224241   1.171   3.651   5.694  1.8260  0.2033 -0.4714
 7848SOL     OW24242   3.107   6.829   5.146  0.0531  0.4483 -0.0610
 7848SOL    HW124243   3.111   6.916   5.185  1.8249  0.1746  0.4295
 7848SOL    HW224244   3.117   6.768   5.219 -1.4031 -0.2115 -0.3662
 7849SOL     OW24245   7.151   0.996   4.894  0.1961  0.5936  0.7431
 7849SOL    HW124246   7.204   1.015   4.817  0.0158  0.5794  0.6129
 7849SOL    HW224247   7.063   0.981   4.859  0.0813  0.7308  0.9655
 7850SOL     OW24248   5.082   0.405   1.554  0.1476 -0.1815 -0.0351
 7850SOL    HW124249   5.063   0.311   1.548 -0.2475 -0.2023  1.1604
 7850SOL    HW224250   5.001   0.448   1.527 -0.7075 -0.2446  2.1978
 7851SOL     OW24251   5.124   4.885   0.105 -1.0539  0.4792  0.4987
 7851SOL    HW124252   5.148   4.928   0.187 -2.0197 -0.4887  1.3183
 7851SOL    HW224253   5.164   4.798   0.110 -0.1627  0.8011 -0.5833
 7852SOL     OW24254   5.340   5.703   0.891 -0.1224  0.1841 -0.3632
 7852SOL    HW124255   5.283   5.777   0.867 -1.3727 -0.0130  1.7569
 7852SOL    HW224256   5.286   5.626   0.874 -0.0763 -0.0593  0.5420
 7853SOL     OW24257   6.351   0.799   1.026 -0.0145 -0.0979  0.0781
 7853SOL    HW124258   6.292   0.865   0.990  0.3353  1.1156  1.6303
 7853SOL    HW224259   6.317   0.782   1.114  0.1462 -1.7194 -0.1445
 7854SOL     OW24260   7.166   4.988   3.856 -0.1304  0.2177 -0.1255
 7854SOL    HW124261   7.147   5.001   3.949  0.3848  0.3028 -0.0290
 7854SOL    HW224262   7.163   5.076   3.819 -0.5246  0.1618 -0.2264
 7855SOL     OW24263   0.611   4.051   0.985 -0.1565  0.0068  0.3301
 7855SOL    HW124264   0.664   3.985   1.030 -1.4603 -0.8221  0.7080
 7855SOL    HW224265   0.527   4.007   0.970 -0.8422  1.3929  0.0250
 7856SOL     OW24266   2.846   1.618   6.747  0.0266 -0.0765 -0.1794
 7856SOL    HW124267   2.779   1.557   6.778 -0.8121  1.4951  1.2751
 7856SOL    HW224268   2.928   1.581   6.779 -0.3767 -0.8483 -0.0025
 7857SOL     OW24269   3.736   4.185   5.792 -0.1679  0.2146  0.3182
 7857SOL    HW124270   3.754   4.197   5.699 -1.1592 -0.2294  0.0583
 7857SOL    HW224271   3.710   4.093   5.799  1.1804 -0.1239  1.2543
 7858SOL     OW24272   7.523   2.764   4.232  0.5348  0.5086  0.2584
 7858SOL    HW124273   7.448   2.732   4.282  0.0592  0.6459 -0.3432
 7858SOL    HW224274   7.568   2.825   4.291  1.1135 -0.8044  1.1979
 7859SOL     OW24275   3.201   3.478   1.403  0.0254  0.2252  0.2275
 7859SOL    HW124276   3.215   3.412   1.335  0.9347  0.8162 -0.1835
 7859SOL    HW224277   3.236   3.437   1.483  1.8848  0.6788 -0.2906
 7860SOL     OW24278   0.723   0.497   5.645  0.0367  0.0061 -0.1770
 7860SOL    HW124279   0.661   0.431   5.616 -1.3278  1.5908 -1.0751
 7860SOL    HW224280   0.798   0.448   5.678 -0.1193 -1.9707 -2.5059
 7861SOL     OW24281   1.253   0.395   3.832 -0.2534 -0.3101 -0.1019
 7861SOL    HW124282   1.282   0.440   3.752  0.9950 -1.4120 -0.3054
 7861SOL    HW224283   1.334   0.372   3.877 -0.8639 -2.0399  0.1638
 7862SOL     OW24284   5.820   1.727   7.263 -0.1550 -0.0655 -0.5655
 7862SOL    HW124285   5.768   1.779   7.202 -0.4677  0.9321  0.4994
 7862SOL    HW224286   5.841   1.647   7.215 -0.6261  0.5532 -1.8621
 7863SOL     OW24287   3.088   7.087   3.920 -0.3372 -0.7564  0.1781
 7863SOL    HW124288   3.114   7.052   4.006 -0.4132 -2.4629 -0.4556
 7863SOL    HW224289   3.036   7.165   3.941 -0.1241 -0.9821  1.6756
 7864SOL     OW24290   3.705   6.281   2.662  0.2462 -0.1196  0.0414
 7864SOL    HW124291   3.740   6.346   2.723 -0.4833  0.2400  0.0859
 7864SOL    HW224292   3.649   6.225   2.715  1.6762 -1.4726  0.2225
 7865SOL     OW24293   6.126   0.659   5.427 -0.0893 -0.0482 -0.0642
 7865SOL    HW124294   6.100   0.634   5.516  0.7952 -0.7644  0.0011
 7865SOL    HW224295   6.059   0.722   5.400  0.4374  1.3260  1.6592
 7866SOL     OW24296   0.726   0.891   4.659 -0.7731 -0.2665  0.9358
 7866SOL    HW124297   0.713   0.973   4.611 -0.2791 -0.9778 -0.4642
 7866SOL    HW224298   0.669   0.828   4.615 -0.0249 -1.0242  1.0211
 7867SOL     OW24299   4.851   1.805   1.450  0.4750 -0.0392 -0.4200
 7867SOL    HW124300   4.926   1.760   1.412  2.7420  2.0979  1.1917
 7867SOL    HW224301   4.872   1.898   1.440 -1.2321  0.6147  1.4486
 7868SOL     OW24302   7.690   3.918   1.406 -0.7898 -0.2648  0.1779
 7868SOL    HW124303   7.715   4.004   1.374 -2.5232  0.6608  1.1532
 7868SOL    HW224304   7.614   3.893   1.353 -0.6227 -0.9496  0.2498
 7869SOL     OW24305   5.816   3.475   5.499  0.6300  0.1301  0.3736
 7869SOL    HW124306   5.836   3.550   5.556 -0.1413  0.1661  0.6111
 7869SOL    HW224307   5.745   3.429   5.544 -0.6225  0.6641 -0.9981
 7870SOL     OW24308   7.043   2.743   1.167 -0.3553 -1.0379  0.3031
 7870SOL    HW124309   6.998   2.746   1.252 -1.5947  1.6545 -0.3295
 7870SOL    HW224310   7.105   2.816   1.171 -0.2990 -1.0050 -1.0147
 7871SOL     OW24311   2.485   3.111   5.642  0.2902 -0.1560 -0.0463
 7871SOL    HW124312   2.524   3.053   5.576  3.0425  0.7108  0.6936
 7871SOL    HW224313   2.519   3.078   5.726 -0.4021  0.8144  0.6349
 7872SOL     OW24314   0.110   2.526   2.767 -0.1938 -0.2544 -0.5503
 7872SOL    HW124315   0.171   2.506   2.838 -1.9729 -1.2738  0.7759
 7872SOL    HW224316   0.166   2.554   2.694  1.9406 -2.3139  0.1791
 7873SOL     OW24317   5.557   3.685   1.191 -0.1017 -0.2360 -0.0136
 7873SOL    HW124318   5.652   3.688   1.175  0.0136  1.7552  0.7701
 7873SOL    HW224319   5.549   3.670   1.285 -0.5098  1.1341  0.1903
 7874SOL     OW24320   1.011   3.746   3.496 -0.5411  0.0516  1.2308
 7874SOL    HW124321   0.985   3.678   3.433 -0.3165 -0.4047  1.6256
 7874SOL    HW224322   1.103   3.764   3.476 -0.5209  0.0366  1.3099
 7875SOL     OW24323   5.902   4.606   2.183  0.0879 -0.5223 -0.6174
 7875SOL    HW124324   5.956   4.654   2.119 -0.1587  1.3738  0.5062
 7875SOL    HW224325   5.924   4.514   2.168  1.1353 -0.0457 -2.4184
 7876SOL     OW24326   1.052   6.337   7.668 -0.7185  0.2355  0.4324
 7876SOL    HW124327   1.147   6.343   7.660 -0.8050  0.5237 -0.5216
 7876SOL    HW224328   1.021   6.423   7.641 -1.3201 -0.3150 -0.6872
 7877SOL     OW24329   4.412   7.299   2.550 -0.5080  0.1109  0.6760
 7877SOL    HW124330   4.457   7.268   2.628 -1.0178 -0.7313  0.6401
 7877SOL    HW224331   4.376   7.221   2.509 -1.0697  0.6482  0.1085
 7878SOL     OW24332   4.809   1.520   1.416  0.4587 -0.1372 -0.6556
 7878SOL    HW124333   4.771   1.606   1.434 -1.8575 -1.5627  2.0916
 7878SOL    HW224334   4.776   1.497   1.329 -1.8649  0.3456  0.0220
 7879SOL     OW24335   5.812   4.109   1.839 -0.4449  0.2259 -0.1421
 7879SOL    HW124336   5.728   4.134   1.877  0.0595 -0.2734  1.3712
 7879SOL    HW224337   5.805   4.014   1.827 -0.1230  0.1996 -0.1184
 7880SOL     OW24338   5.269   0.817   1.913 -0.0868 -0.4695 -0.2769
 7880SOL    HW124339   5.180   0.785   1.921  0.7290 -2.7415  0.6386
 7880SOL    HW224340   5.310   0.795   1.997  1.1153  1.3288 -0.3280
 7881SOL     OW24341   5.683   1.659   6.144 -0.1972  0.1663  0.0677
 7881SOL    HW124342   5.675   1.747   6.107 -1.6017 -0.1076 -0.3243
 7881SOL    HW224343   5.593   1.632   6.160  0.1143 -1.7405 -1.1225
 7882SOL     OW24344   4.073   6.918   2.593  0.0980  0.2474  0.4005
 7882SOL    HW124345   4.010   6.950   2.657  2.3890  1.5341  2.1793
 7882SOL    HW224346   4.063   6.823   2.595 -1.8692  0.4213  0.4566
 7883SOL     OW24347   6.513   7.259   1.885  0.0982 -0.2925 -0.0452
 7883SOL    HW124348   6.546   7.217   1.806 -0.4390 -1.2150  0.2013
 7883SOL    HW224349   6.590   7.269   1.941 -0.0788 -3.3674  0.9564
 7884SOL     OW24350   7.013   3.369   0.344  0.2170  0.3416 -0.9739
 7884SOL    HW124351   6.923   3.345   0.368 -0.0376  2.6075  0.6684
 7884SOL    HW224352   7.049   3.290   0.303 -1.2313 -1.9999  1.9087
 7885SOL     OW24353   2.944   1.210   3.174  0.4946 -0.7154 -0.4782
 7885SOL    HW124354   2.954   1.192   3.267  0.5001  0.2954 -0.2723
 7885SOL    HW224355   2.870   1.156   3.146  1.5071 -2.2634 -0.2628
 7886SOL     OW24356   6.871   5.622   1.117  0.3245  0.3808  0.5261
 7886SOL    HW124357   6.838   5.691   1.175 -0.7610  1.6186 -1.4150
 7886SOL    HW224358   6.795   5.599   1.063  1.5335  0.1328 -1.1462
 7887SOL     OW24359   3.135   7.186   6.524 -0.2305  0.0444 -0.3453
 7887SOL    HW124360   3.149   7.096   6.553 -1.2748  0.3620  1.2869
 7887SOL    HW224361   3.212   7.233   6.554 -0.9463  0.2099  1.3571
 7888SOL     OW24362   2.045   6.078   3.627 -0.3481  0.3477  0.0310
 7888SOL    HW124363   2.056   6.120   3.712 -4.4996  1.2084  0.3858
 7888SOL    HW224364   2.039   5.984   3.647 -0.1795  0.4377  0.5165
 7889SOL     OW24365   7.457   4.905   2.335  0.5798  0.4071  0.6273
 7889SOL    HW124366   7.369   4.926   2.368 -0.1032 -1.4609  0.1123
 7889SOL    HW224367   7.450   4.918   2.241  1.6281  2.6523  0.7783
 7890SOL     OW24368   7.067   7.162   1.280  0.5159  0.1876  0.1011
 7890SOL    HW124369   7.085   7.103   1.207  0.0920 -0.8996  0.8621
 7890SOL    HW224370   7.149   7.211   1.291  0.4751  0.6078 -1.3063
 7891SOL     OW24371   0.077   0.938   0.439 -0.4435 -0.3082  0.3439
 7891SOL    HW124372   0.081   1.011   0.500 -0.6308  0.4080 -0.4762
 7891SOL    HW224373   0.039   0.866   0.490  0.1214  0.0395  1.2724
 7892SOL     OW24374   6.391   4.656   6.872  0.0198  0.1664  0.0210
 7892SOL    HW124375   6.392   4.598   6.796  2.1900 -1.2586  1.0263
 7892SOL    HW224376   6.319   4.623   6.927 -1.6066  1.2518 -1.3368
 7893SOL     OW24377   0.607   6.015   4.422  0.2568  0.3023 -0.7906
 7893SOL    HW124378   0.645   5.946   4.367  0.4026  0.3389 -0.7360
 7893SOL    HW224379   0.682   6.057   4.463  0.2026  0.7820 -1.1645
 7894SOL     OW24380   5.964   6.402   0.948 -0.7585  0.4491  0.0764
 7894SOL    HW124381   5.933   6.314   0.926 -1.4593  0.2343  1.7927
 7894SOL    HW224382   5.908   6.430   1.020 -0.0650  2.0160  0.0413
 7895SOL     OW24383   4.268   0.957   5.460  0.0242 -0.1416 -0.0500
 7895SOL    HW124384   4.210   0.886   5.432 -0.6306  0.6134 -0.6323
 7895SOL    HW224385   4.252   0.965   5.554  0.0034 -0.6750 -0.0052
 7896SOL     OW24386   4.330   0.996   1.253 -0.5031  0.1337  0.3245
 7896SOL    HW124387   4.413   1.016   1.211 -1.6912  2.3049 -1.2420
 7896SOL    HW224388   4.297   0.918   1.208 -1.0520  1.5461 -1.9104
 7897SOL     OW24389   7.427   1.943   3.306 -0.7537  0.4073 -0.0808
 7897SOL    HW124390   7.333   1.956   3.301 -0.8473  0.0682  0.5787
 7897SOL    HW224391   7.465   2.012   3.251 -1.4077  0.0573 -0.9933
 7898SOL     OW24392   4.477   6.131   5.121  0.1892  0.1510  0.3239
 7898SOL    HW124393   4.540   6.100   5.055  2.4480  1.9733  1.4492
 7898SOL    HW224394   4.502   6.085   5.201  0.0684  0.8213  0.7604
 7899SOL     OW24395   3.617   5.903   5.918 -0.3206  0.1113  0.4313
 7899SOL    HW124396   3.599   5.997   5.929  1.2195  0.6562 -1.1872
 7899SOL    HW224397   3.535   5.860   5.941 -1.9463  2.0490 -1.3169
 7900SOL     OW24398   4.117   4.771   7.172  0.3938  0.0388  0.0175
 7900SOL    HW124399   4.039   4.732   7.133 -1.3196  1.9808  1.3190
 7900SOL    HW224400   4.151   4.830   7.105  0.0902  0.0014 -0.1717
 7901SOL     OW24401   3.892   4.163   4.774  0.2644 -0.0049 -0.3225
 7901SOL    HW124402   3.901   4.253   4.741 -0.6511  0.0583 -0.4211
 7901SOL    HW224403   3.874   4.174   4.867 -0.9565 -0.0309 -0.5403
 7902SOL     OW24404   0.760   0.549   1.118  0.1148 -0.0077  0.4335
 7902SOL    HW124405   0.798   0.469   1.154 -1.2895  0.0397  2.1308
 7902SOL    HW224406   0.835   0.604   1.098  1.2102 -2.1449 -1.9339
 7903SOL     OW24407   6.965   1.120   1.860 -0.4126  0.0502  0.0752
 7903SOL    HW124408   6.933   1.197   1.811 -2.2080  0.4481  1.7487
 7903SOL    HW224409   6.885   1.074   1.885  0.6074 -1.8579 -0.0360
 7904SOL     OW24410   3.438   4.318   4.151 -0.3013  0.6125 -0.1095
 7904SOL    HW124411   3.464   4.361   4.232 -1.3550  2.1945 -0.5580
 7904SOL    HW224412   3.479   4.370   4.082 -1.4302  0.8300 -0.6551
 7905SOL     OW24413   3.530   1.313   4.423  0.1658  0.5777  1.0540
 7905SOL    HW124414   3.618   1.284   4.398 -0.5349 -0.3531 -0.4839
 7905SOL    HW224415   3.529   1.306   4.518  1.8159  0.7948  1.1152
 7906SOL     OW24416   0.285   3.555   5.394  0.3986 -0.4861  0.3387
 7906SOL    HW124417   0.204   3.511   5.368  0.6136  0.4379 -2.0790
 7906SOL    HW224418   0.347   3.484   5.408  0.1166 -1.0766 -1.2718
 7907SOL     OW24419   0.619   2.234   5.058 -0.1928 -0.2776 -0.0940
 7907SOL    HW124420   0.646   2.154   5.014 -0.2543  0.6187 -1.8613
 7907SOL    HW224421   0.701   2.283   5.071 -0.3389  0.1149 -0.6082
 7908SOL     OW24422   7.738   0.411   4.553 -0.0562  0.1999  0.6327
 7908SOL    HW124423   7.747   0.335   4.494  1.0676 -0.5077  1.6689
 7908SOL    HW224424   7.751   0.375   4.641 -1.2355  1.3189  1.2965
 7909SOL     OW24425   1.823   7.598   5.560  0.5104  0.1483 -0.0182
 7909SOL    HW124426   1.799   7.545   5.484  1.1689  1.4087 -1.1335
 7909SOL    HW224427   1.758   7.668   5.562 -0.1625 -0.4774  1.2599
 7910SOL     OW24428   4.392   2.146   2.055 -0.2494  0.0782  0.1841
 7910SOL    HW124429   4.455   2.212   2.026 -0.5649  0.2515 -0.1207
 7910SOL    HW224430   4.443   2.065   2.061 -0.1082  0.1061 -0.5663
 7911SOL     OW24431   2.334   4.503   4.763  0.0744  0.2534  0.1463
 7911SOL    HW124432   2.319   4.594   4.738  1.6481  0.0721 -1.7105
 7911SOL    HW224433   2.427   4.499   4.787  0.0158 -0.8464  0.2653
 7912SOL     OW24434   2.031   5.529   4.980  0.0685 -0.2024 -0.0365
 7912SOL    HW124435   2.093   5.499   5.047  1.1601 -0.3048 -1.0490
 7912SOL    HW224436   2.046   5.624   4.974 -0.2877 -0.1351  0.1176
 7913SOL     OW24437   4.707   7.701   0.385 -0.1983  0.0294  0.2675
 7913SOL    HW124438   4.712   7.695   0.480  1.6638 -4.0264  0.1385
 7913SOL    HW224439   4.798   7.712   0.357 -0.4269 -1.1194 -1.0555
 7914SOL     OW24440   7.150   6.446   5.507 -0.5620  0.3165 -0.3934
 7914SOL    HW124441   7.130   6.526   5.557 -1.8150  0.1656 -0.6277
 7914SOL    HW224442   7.102   6.456   5.425  1.0806  0.3338 -1.4180
 7915SOL     OW24443   4.199   4.967   2.938 -0.1194 -0.3819  0.0476
 7915SOL    HW124444   4.234   4.936   3.021  1.0795  0.3959 -0.1464
 7915SOL    HW224445   4.165   4.888   2.896 -3.2299 -0.4510  2.3581
 7916SOL     OW24446   4.046   6.302   7.971  0.3138 -0.7318 -0.0406
 7916SOL    HW124447   4.085   6.359   8.037  1.0324  0.3141 -1.3205
 7916SOL    HW224448   4.120   6.268   7.921 -0.2375 -0.9244 -0.7553
 7917SOL     OW24449   6.113   4.108   1.475  0.5519 -0.3864  0.5267
 7917SOL    HW124450   6.132   4.133   1.566  0.5116  0.9863  0.1781
 7917SOL    HW224451   6.026   4.144   1.458  0.9256  0.1481 -0.3194
 7918SOL     OW24452   3.231   0.380   2.489 -0.3836 -0.3308 -0.3149
 7918SOL    HW124453   3.312   0.329   2.493 -0.7544 -0.8792  0.9959
 7918SOL    HW224454   3.259   0.470   2.505  0.0329 -0.4269 -0.4788
 7919SOL     OW24455   7.872   5.245   4.328 -0.1044  0.0188  0.4866
 7919SOL    HW124456   7.786   5.245   4.287 -0.0429 -1.6774  0.2896
 7919SOL    HW224457   7.855   5.238   4.422 -0.1961 -0.3239  0.4468
 7920SOL     OW24458   7.153   0.522   1.110 -0.0715  0.0291 -0.4073
 7920SOL    HW124459   7.243   0.491   1.112 -0.1820 -0.3888 -1.4494
 7920SOL    HW224460   7.159   0.616   1.128  0.8183  0.4981 -2.8662
 7921SOL     OW24461   5.823   3.468   4.454 -0.2912 -0.3809 -0.9585
 7921SOL    HW124462   5.735   3.429   4.458 -1.0557  1.1247 -1.9322
 7921SOL    HW224463   5.851   3.453   4.364 -1.1832  2.3411 -1.7950
 7922SOL     OW24464   0.661   5.905   4.875  0.4776 -0.1965  0.3069
 7922SOL    HW124465   0.575   5.877   4.906  0.7396 -0.7387  0.5592
 7922SOL    HW224466   0.681   5.845   4.803  2.1304 -2.3607  2.4285
 7923SOL     OW24467   3.523   2.194   2.812 -0.3116 -0.1382 -0.4824
 7923SOL    HW124468   3.553   2.258   2.876  0.9599 -0.4170 -0.7832
 7923SOL    HW224469   3.442   2.232   2.777 -0.7582  0.2524  0.8949
 7924SOL     OW24470   4.650   3.132   6.123  0.0488 -0.1251 -0.5760
 7924SOL    HW124471   4.565   3.097   6.149  1.0117 -2.7622 -0.6678
 7924SOL    HW224472   4.712   3.096   6.186  1.1472  1.7440 -0.5004
 7925SOL     OW24473   6.458   2.291   2.156 -0.3337 -0.2264 -0.1055
 7925SOL    HW124474   6.479   2.358   2.221 -1.5872 -0.5652  0.6924
 7925SOL    HW224475   6.481   2.331   2.072  0.6275  0.4994  0.4841
 7926SOL     OW24476   4.896   7.269   1.519 -0.4351 -0.5594 -0.2868
 7926SOL    HW124477   4.968   7.218   1.556 -1.1007 -1.8307 -0.6800
 7926SOL    HW224478   4.856   7.311   1.595  0.9146  0.4535 -0.1066
 7927SOL     OW24479   0.632   1.010   7.455  0.0439  0.3515  0.1156
 7927SOL    HW124480   0.596   0.923   7.472 -0.3000  0.3412 -0.6043
 7927SOL    HW224481   0.604   1.030   7.365 -0.7990  1.6511  0.6436
 7928SOL     OW24482   7.586   3.294   0.563 -0.2717  0.8768  0.5423
 7928SOL    HW124483   7.552   3.210   0.594  0.7969  0.6421  1.0911
 7928SOL    HW224484   7.557   3.299   0.472  1.6623 -1.2054 -0.2545
 7929SOL     OW24485   7.311   6.720   1.817 -0.3283 -0.3204  0.2190
 7929SOL    HW124486   7.401   6.749   1.805 -0.3322 -0.0659  0.7292
 7929SOL    HW224487   7.311   6.627   1.794 -0.2238 -0.0221 -1.0546
 7930SOL     OW24488   4.778   2.255   6.731 -0.3110  0.7322  0.3709
 7930SOL    HW124489   4.702   2.295   6.688 -1.0709 -0.5802  0.4455
 7930SOL    HW224490   4.772   2.284   6.822 -2.3751 -1.5741  1.0664
 7931SOL     OW24491   1.730   6.461   5.617  0.1949 -0.2861 -0.7393
 7931SOL    HW124492   1.663   6.435   5.554 -0.3338  0.1031 -0.3403
 7931SOL    HW224493   1.785   6.523   5.569  0.6557 -1.0867 -1.2645
 7932SOL     OW24494   0.305   2.159   7.449 -0.4434  0.0199  0.5524
 7932SOL    HW124495   0.239   2.219   7.484 -0.7484  0.2055 -0.3214
 7932SOL    HW224496   0.329   2.197   7.365 -0.4462 -0.9462  0.1043
 7933SOL     OW24497   3.604   7.052   3.295  0.0574  0.1260 -0.0133
 7933SOL    HW124498   3.552   7.125   3.261  0.8573  1.2251  1.0128
 7933SOL    HW224499   3.695   7.081   3.285  0.3798 -0.6571  0.5674
 7934SOL     OW24500   6.777   0.837   5.269 -0.0948  0.5041 -0.5856
 7934SOL    HW124501   6.773   0.844   5.174  1.7078  1.4520 -0.6293
 7934SOL    HW224502   6.834   0.761   5.285 -3.5739 -2.3176 -0.1481
 7935SOL     OW24503   4.671   4.832   1.931  0.4028 -0.1437 -0.4688
 7935SOL    HW124504   4.705   4.902   1.874 -1.2493 -0.2833 -1.6784
 7935SOL    HW224505   4.640   4.878   2.009 -0.6691  0.4951 -1.2534
 7936SOL     OW24506   0.175   5.289   3.707  0.2730  0.0634  0.3580
 7936SOL    HW124507   0.121   5.315   3.632  0.2930  0.1259  0.3649
 7936SOL    HW224508   0.239   5.228   3.670  0.6959  0.5948  0.1944
 7937SOL     OW24509   2.665   3.706   3.727 -0.5957 -0.4869  0.5838
 7937SOL    HW124510   2.596   3.723   3.663  0.0327  0.3152  0.0934
 7937SOL    HW224511   2.745   3.696   3.674  0.2605  1.9408  1.2941
 7938SOL     OW24512   6.594   2.379   7.650  0.0340  0.4806 -0.1068
 7938SOL    HW124513   6.586   2.413   7.561  1.4385  0.6732 -0.1759
 7938SOL    HW224514   6.687   2.388   7.671 -0.4107  1.2469  1.6999
 7939SOL     OW24515   5.676   4.794   6.298 -0.4966 -0.0586  0.2597
 7939SOL    HW124516   5.635   4.719   6.255 -1.7720  0.0085  1.2958
 7939SOL    HW224517   5.678   4.862   6.230  1.0556 -1.1224 -0.8171
 7940SOL     OW24518   7.244   7.653   3.032 -0.2211 -0.0405  0.6150
 7940SOL    HW124519   7.211   7.663   2.942 -0.4085 -1.9420  0.4289
 7940SOL    HW224520   7.166   7.660   3.087 -0.6636 -2.1530  0.3459
 7941SOL     OW24521   5.397   3.498   3.746 -0.1758  0.0141 -0.0824
 7941SOL    HW124522   5.367   3.426   3.802 -0.5307  0.7341  0.6765
 7941SOL    HW224523   5.443   3.455   3.674 -0.7910 -0.9922  0.1067
 7942SOL     OW24524   3.213   4.273   1.083 -0.2811 -0.0433 -0.6501
 7942SOL    HW124525   3.308   4.280   1.091 -0.4157  0.9701  0.3953
 7942SOL    HW224526   3.182   4.363   1.092 -1.5779 -0.6544  3.3374
 7943SOL     OW24527   1.026   3.986   3.326  0.7639 -0.2441  0.5114
 7943SOL    HW124528   1.001   3.930   3.399  2.6772 -2.2377 -0.2482
 7943SOL    HW224529   1.013   3.932   3.249 -0.8454  1.6889 -0.6594
 7944SOL     OW24530   5.967   3.665   2.976  0.0365  0.3749  0.2526
 7944SOL    HW124531   5.873   3.648   2.974 -0.1304  0.3296 -4.6548
 7944SOL    HW224532   6.006   3.584   3.008 -1.5426 -1.2921 -1.7715
 7945SOL     OW24533   6.844   0.386   5.492  0.5876  0.0031 -0.5348
 7945SOL    HW124534   6.849   0.325   5.566 -2.6459 -1.9213 -1.7002
 7945SOL    HW224535   6.896   0.345   5.423 -0.0577 -0.5010 -0.7258
 7946SOL     OW24536   3.115   2.540   4.609 -0.2747  0.5475 -0.0051
 7946SOL    HW124537   3.042   2.549   4.671 -0.4489  0.6401 -0.2215
 7946SOL    HW224538   3.146   2.451   4.621 -0.5201  0.4599 -0.0151
 7947SOL     OW24539   2.666   0.272   1.150  0.1733 -0.7837  0.2975
 7947SOL    HW124540   2.740   0.288   1.208  0.8363 -2.4022 -0.0496
 7947SOL    HW224541   2.607   0.215   1.201 -0.2090 -0.5720  0.0984
 7948SOL     OW24542   6.362   2.732   7.357  0.7923  0.2921  0.5026
 7948SOL    HW124543   6.312   2.754   7.278  0.2828 -0.0006  0.7363
 7948SOL    HW224544   6.450   2.763   7.339  0.9965 -0.8460 -0.6825
 7949SOL     OW24545   2.573   4.087   1.114  0.1365  0.2740 -0.0918
 7949SOL    HW124546   2.655   4.038   1.114  0.4835  0.8048 -1.3417
 7949SOL    HW224547   2.519   4.044   1.180  1.7193  0.4644  1.3902
 7950SOL     OW24548   6.436   1.645   1.575 -0.3118  0.1663 -0.3175
 7950SOL    HW124549   6.448   1.596   1.494 -1.2976  1.2888 -1.2010
 7950SOL    HW224550   6.354   1.612   1.611  0.4645 -0.8026  0.6035
 7951SOL     OW24551   7.212   3.816   7.608  0.4966  0.1322 -0.0706
 7951SOL    HW124552   7.182   3.885   7.548  2.8802  1.1495 -0.2254
 7951SOL    HW224553   7.265   3.863   7.672 -0.0875 -1.2538  1.4862
 7952SOL     OW24554   5.477   3.417   1.636  0.0493 -0.6655 -0.2903
 7952SOL    HW124555   5.460   3.348   1.701  3.4750  0.5782  2.2381
 7952SOL    HW224556   5.440   3.496   1.675 -0.6967 -0.4368 -1.4399
 7953SOL     OW24557   6.970   5.292   7.754  0.2520 -0.4337 -0.2767
 7953SOL    HW124558   6.902   5.327   7.697  1.3902 -0.6182 -1.8097
 7953SOL    HW224559   6.948   5.200   7.765  0.8730 -0.7941 -1.7853
 7954SOL     OW24560   3.137   7.733   1.539 -0.0993 -0.5769  0.4564
 7954SOL    HW124561   3.209   7.769   1.487  0.2972  0.6355  1.7893
 7954SOL    HW224562   3.181   7.683   1.608 -0.6246 -2.8864 -0.7507
 7955SOL     OW24563   3.402   4.339   7.829 -0.3372 -0.1104  0.2560
 7955SOL    HW124564   3.448   4.256   7.837 -1.0885 -0.4910  0.8615
 7955SOL    HW224565   3.314   4.321   7.864 -0.9570  0.5727 -0.8895
 7956SOL     OW24566   1.468   7.494   4.511 -0.8575  0.2088 -0.0043
 7956SOL    HW124567   1.514   7.577   4.503 -0.4278 -0.0315 -0.0863
 7956SOL    HW224568   1.449   7.485   4.605 -0.2834  0.0740  0.1029
 7957SOL     OW24569   1.761   3.071   3.600  0.1402 -0.7562 -0.3586
 7957SOL    HW124570   1.749   3.065   3.695 -0.1503 -0.7652 -0.3949
 7957SOL    HW224571   1.849   3.107   3.589  0.9728 -2.6263 -0.1095
 7958SOL     OW24572   0.483   7.514   5.574 -0.1560 -0.4502 -0.5354
 7958SOL    HW124573   0.472   7.427   5.613 -0.8607 -0.6872 -1.2337
 7958SOL    HW224574   0.569   7.512   5.534  0.0685 -0.6247 -0.0584
 7959SOL     OW24575   5.178   0.863   5.505  0.0815  0.5474 -0.4548
 7959SOL    HW124576   5.088   0.895   5.504 -0.2330 -0.2055  1.0318
 7959SOL    HW224577   5.171   0.770   5.525  1.2432  0.9921  2.7610
 7960SOL     OW24578   4.295   3.310   2.517  0.8069 -0.0219  0.1994
 7960SOL    HW124579   4.274   3.250   2.588 -0.1712 -1.9711 -1.6339
 7960SOL    HW224580   4.227   3.378   2.521 -0.5339 -1.2970 -0.1367
 7961SOL     OW24581   6.591   3.672   3.045  0.2532 -0.0260  0.8839
 7961SOL    HW124582   6.529   3.707   2.981 -0.9932 -0.2573  1.9269
 7961SOL    HW224583   6.648   3.747   3.065  0.3539  0.1816 -0.1060
 7962SOL     OW24584   2.143   6.362   5.513  0.4752 -0.0518 -0.1607
 7962SOL    HW124585   2.189   6.421   5.572 -0.8242  1.0609 -0.2000
 7962SOL    HW224586   2.200   6.355   5.436  1.3064 -0.0075  0.4360
 7963SOL     OW24587   6.202   2.652   3.619 -0.5822 -0.5043 -0.1708
 7963SOL    HW124588   6.110   2.632   3.604 -1.1640 -0.7756  3.0651
 7963SOL    HW224589   6.231   2.585   3.681  0.8181  1.5548  1.5269
 7964SOL     OW24590   1.249   4.455   3.670 -0.4781 -0.0899  0.8623
 7964SOL    HW124591   1.280   4.406   3.593  0.1881  0.5907  0.6794
 7964SOL    HW224592   1.248   4.390   3.741  1.8080 -0.0846  0.9770
 7965SOL     OW24593   2.668   7.585   2.495 -0.0409  0.0577 -0.2980
 7965SOL    HW124594   2.609   7.660   2.492 -0.9240 -0.6174 -0.2368
 7965SOL    HW224595   2.694   7.578   2.587  0.1424  0.3524 -0.3251
 7966SOL     OW24596   0.070   5.805   6.659  0.3155 -0.4754  0.0764
 7966SOL    HW124597   0.012   5.875   6.629  1.2095  0.1732 -0.1756
 7966SOL    HW224598   0.123   5.783   6.583  0.8996 -0.5548  0.4997
 7967SOL     OW24599   4.662   6.242   1.844  0.1436  0.3785  0.1064
 7967SOL    HW124600   4.660   6.195   1.928  0.5625  0.6496  0.2755
 7967SOL    HW224601   4.750   6.279   1.840  0.2339  0.0992 -0.6080
 7968SOL     OW24602   4.381   3.568   4.554  0.6100  0.1726  0.5351
 7968SOL    HW124603   4.345   3.569   4.465  0.9108 -0.3943  0.3998
 7968SOL    HW224604   4.304   3.571   4.611  0.3832 -0.0868  0.2501
 7969SOL     OW24605   0.190   7.695   5.336  0.6827  0.3233  0.2682
 7969SOL    HW124606   0.138   7.771   5.310 -1.1793 -1.0917 -0.3803
 7969SOL    HW224607   0.216   7.654   5.253  0.7152 -0.3482  0.5989
 7970SOL     OW24608   4.311   3.557   2.124 -0.4905  0.1621  0.0932
 7970SOL    HW124609   4.229   3.519   2.156 -0.6619 -0.6242 -1.2227
 7970SOL    HW224610   4.363   3.482   2.095  0.6523  0.6629  0.7623
 7971SOL     OW24611   5.632   7.961   3.998  0.1803  0.2829 -0.2887
 7971SOL    HW124612   5.632   7.934   4.090 -0.4907  1.0303 -0.0556
 7971SOL    HW224613   5.712   8.012   3.988 -1.0046  2.4453  0.5986
 7972SOL     OW24614   3.951   2.621   3.663  0.4094  0.0258  0.0951
 7972SOL    HW124615   3.927   2.685   3.729  0.2063  1.6087 -1.4513
 7972SOL    HW224616   3.960   2.539   3.711  0.8013  1.2224  2.1517
 7973SOL     OW24617   4.115   5.793   0.033 -0.3874  0.2212  0.3386
 7973SOL    HW124618   4.037   5.847   0.039 -0.1512  0.4481  4.7039
 7973SOL    HW224619   4.083   5.703   0.033 -0.6639  0.2817 -2.0109
 7974SOL     OW24620   4.046   0.644   1.143  0.2210  0.1435 -0.1123
 7974SOL    HW124621   4.003   0.713   1.194 -1.0977 -1.6045  1.2523
 7974SOL    HW224622   4.136   0.642   1.177 -0.4581 -0.5601  1.7780
 7975SOL     OW24623   1.582   3.296   4.465 -0.4289 -0.0151  0.7965
 7975SOL    HW124624   1.581   3.230   4.535 -0.6966 -1.2513 -0.3335
 7975SOL    HW224625   1.490   3.312   4.445 -0.3918 -1.8002 -1.1511
 7976SOL     OW24626   1.519   4.984   7.193  0.0637  0.1723 -0.2233
 7976SOL    HW124627   1.530   4.933   7.112  1.4954 -0.3798  0.2818
 7976SOL    HW224628   1.585   5.053   7.187  0.3660 -0.0367  0.5889
 7977SOL     OW24629   3.779   4.388   1.506 -0.3248 -0.1800  0.3103
 7977SOL    HW124630   3.841   4.450   1.544 -0.1907 -0.5212  0.6577
 7977SOL    HW224631   3.830   4.339   1.442  0.1567 -1.4234  1.5835
 7978SOL     OW24632   6.398   4.305   7.364 -0.0984 -0.4712  0.0104
 7978SOL    HW124633   6.327   4.355   7.405 -1.4130 -2.0344 -0.2492
 7978SOL    HW224634   6.411   4.346   7.279 -0.0807  0.3452  0.3910
 7979SOL     OW24635   7.483   5.435   6.699 -0.2059 -0.0286  0.3114
 7979SOL    HW124636   7.521   5.359   6.655  0.2807  0.0395  0.6089
 7979SOL    HW224637   7.389   5.417   6.700 -0.3561  0.4709 -1.7243
 7980SOL     OW24638   0.878   7.546   4.408  0.1862  0.4254 -0.4056
 7980SOL    HW124639   0.787   7.522   4.427  0.4137 -0.0706  0.1032
 7980SOL    HW224640   0.906   7.484   4.341  0.4515 -0.0729  0.1566
 7981SOL     OW24641   6.122   1.636   7.058 -0.8343  1.1860  0.5721
 7981SOL    HW124642   6.148   1.723   7.029  0.8263  0.9658  1.3031
 7981SOL    HW224643   6.191   1.578   7.026 -0.3182  0.5749  2.6094
 7982SOL     OW24644   6.149   3.481   4.488  0.0088 -0.5088 -0.3178
 7982SOL    HW124645   6.055   3.500   4.479 -0.2885 -2.0538 -0.6663
 7982SOL    HW224646   6.157   3.445   4.576  0.3546 -0.0151 -0.1436
 7983SOL     OW24647   1.958   1.389   7.340  0.1617  0.6218  0.6213
 7983SOL    HW124648   1.946   1.369   7.433 -0.4439  2.5035  0.9819
 7983SOL    HW224649   1.884   1.346   7.297 -0.7389  1.4531  1.2835
 7984SOL     OW24650   6.427   7.737   3.650  0.0504 -0.0377 -0.0156
 7984SOL    HW124651   6.420   7.832   3.646  0.0299 -0.0227  0.3137
 7984SOL    HW224652   6.358   7.710   3.711  0.7493 -0.1600  0.7473
 7985SOL     OW24653   4.340   3.619   4.284 -0.2399  0.6776  0.2592
 7985SOL    HW124654   4.281   3.575   4.223  0.0539  1.2851 -0.4719
 7985SOL    HW224655   4.336   3.711   4.260  0.5951  0.7981  0.5469
 7986SOL     OW24656   6.723   3.596   7.381 -0.3136  0.5934 -0.9540
 7986SOL    HW124657   6.683   3.677   7.414 -0.4888  0.0109  0.3000
 7986SOL    HW224658   6.773   3.625   7.304  0.4068  2.0831  0.0099
 7987SOL     OW24659   0.210   1.815   0.559 -0.2321 -0.1600  0.2817
 7987SOL    HW124660   0.186   1.723   0.569  0.7820 -0.6891 -1.6042
 7987SOL    HW224661   0.300   1.812   0.527 -0.2375  1.4965  0.0401
 7988SOL     OW24662   5.863   0.976   3.443 -0.6153  0.3501  0.2757
 7988SOL    HW124663   5.867   1.045   3.376  0.5703  0.6456  0.6276
 7988SOL    HW224664   5.923   0.908   3.411 -0.5945  0.1764  0.6784
 7989SOL     OW24665   2.295   4.104   7.871  0.9569  0.6001  0.0955
 7989SOL    HW124666   2.299   4.166   7.943  0.7978  0.2761  0.3893
 7989SOL    HW224667   2.342   4.146   7.800  1.4282  0.7693  0.5048
 7990SOL     OW24668   3.844   4.019   7.683  0.5334 -1.0593  0.0957
 7990SOL    HW124669   3.877   4.017   7.772 -2.1984  0.4435  1.2815
 7990SOL    HW224670   3.872   4.104   7.648  1.1513 -1.4186 -0.2910
 7991SOL     OW24671   7.026   3.603   6.545 -0.5080  0.0158  0.3979
 7991SOL    HW124672   7.055   3.569   6.461 -1.5089  1.0624 -0.3940
 7991SOL    HW224673   7.070   3.688   6.553 -0.0293 -0.2927  1.1715
 7992SOL     OW24674   0.026   6.193   3.281  0.6638 -0.1920 -0.0597
 7992SOL    HW124675   0.059   6.109   3.247  0.4801  0.1059 -1.0185
 7992SOL    HW224676   0.031   6.252   3.206  0.9114  0.6959  0.6487
 7993SOL     OW24677   5.109   6.541   1.581  0.2613 -0.4278 -0.1587
 7993SOL    HW124678   5.072   6.456   1.557  1.2578 -0.5723 -1.2851
 7993SOL    HW224679   5.158   6.524   1.661 -0.3330 -0.6930  0.1545
 7994SOL     OW24680   0.532   0.883   1.284  0.3225  0.0833 -0.5084
 7994SOL    HW124681   0.582   0.949   1.236  0.9811  2.0750  2.6125
 7994SOL    HW224682   0.595   0.841   1.341 -1.0519  1.0431  1.8664
 7995SOL     OW24683   4.506   4.809   2.373 -0.2640 -0.0111  0.0814
 7995SOL    HW124684   4.526   4.824   2.466 -0.5221  0.4551  0.0677
 7995SOL    HW224685   4.502   4.897   2.336 -0.5082 -0.1840 -0.3000
 7996SOL     OW24686   2.436   3.234   7.298  0.7286 -0.1415  0.0395
 7996SOL    HW124687   2.354   3.190   7.276 -0.1077  1.6362 -0.6529
 7996SOL    HW224688   2.504   3.177   7.264 -0.2733 -1.1103 -0.4021
 7997SOL     OW24689   5.915   5.937   7.080 -0.3295 -0.2101 -0.2091
 7997SOL    HW124690   5.889   5.893   6.999  1.2241  0.0305 -0.8789
 7997SOL    HW224691   5.953   5.868   7.135  1.0123  0.0389 -0.7776
 7998SOL     OW24692   2.334   3.668   7.332 -0.3549 -0.0884 -0.8510
 7998SOL    HW124693   2.419   3.657   7.291 -0.5956  2.5447 -2.2961
 7998SOL    HW224694   2.275   3.613   7.280  0.0871 -0.1475 -1.2974
 7999SOL     OW24695   5.963   4.930   7.763  0.9519 -0.1820 -0.1729
 7999SOL    HW124696   6.055   4.907   7.748  0.8685 -0.5081 -0.1843
 7999SOL    HW224697   5.940   4.985   7.688  0.8203 -1.0141 -0.7554
 8000SOL     OW24698   7.765   1.059   2.316  0.4898 -0.4726 -0.0372
 8000SOL    HW124699   7.841   1.079   2.260  1.4495 -1.9450  0.6755
 8000SOL    HW224700   7.701   1.020   2.256  0.3396  0.6005 -0.6100
 8001SOL     OW24701   1.459   4.961   7.616  1.0151 -0.1332  0.4538
 8001SOL    HW124702   1.544   4.987   7.580  0.6961 -0.6784 -0.7120
 8001SOL    HW224703   1.437   5.031   7.677  1.8736  0.4791  0.0767
 8002SOL     OW24704   1.643   4.607   0.308  0.1212  0.0506 -0.1132
 8002SOL    HW124705   1.686   4.606   0.394  1.7234  0.2174 -0.8620
 8002SOL    HW224706   1.550   4.607   0.327  0.4455 -0.3326  1.6211
 8003SOL     OW24707   6.731   1.396   3.476  0.0670  0.4415 -0.4469
 8003SOL    HW124708   6.721   1.384   3.382  1.3737 -0.4392 -0.4940
 8003SOL    HW224709   6.825   1.388   3.492 -0.1950 -0.0539  1.0159
 8004SOL     OW24710   6.327   1.996   1.829  0.9498 -0.9106  0.1781
 8004SOL    HW124711   6.344   2.070   1.888 -1.6326 -0.3768  0.3438
 8004SOL    HW224712   6.390   1.929   1.857  3.5390  1.2319 -0.1172
 8005SOL     OW24713   3.830   5.355   6.873  0.3032  0.4877 -0.3032
 8005SOL    HW124714   3.766   5.414   6.914 -0.2712  0.7310 -1.5211
 8005SOL    HW224715   3.782   5.274   6.858  0.7255  0.1433  0.1792
 8006SOL     OW24716   2.851   2.914   4.675  0.1674  0.0978  0.0478
 8006SOL    HW124717   2.946   2.921   4.687  0.5059 -1.4221 -1.3651
 8006SOL    HW224718   2.824   3.002   4.649  1.2359  0.4933  0.2070
 8007SOL     OW24719   4.213   4.726   2.401 -0.1806 -0.1566 -0.1995
 8007SOL    HW124720   4.306   4.744   2.390  0.0457 -1.2752 -0.3037
 8007SOL    HW224721   4.188   4.678   2.322 -0.8726  0.2064 -0.2121
 8008SOL     OW24722   0.456   4.309   0.817 -0.0039  0.3518 -0.0198
 8008SOL    HW124723   0.381   4.278   0.868  1.0998 -0.5202  1.1395
 8008SOL    HW224724   0.530   4.304   0.878  1.2096  0.1386 -1.4577
 8009SOL     OW24725   0.632   5.197   2.985  0.5258 -0.6491  0.2377
 8009SOL    HW124726   0.552   5.178   3.035 -0.4542  0.5353 -0.8142
 8009SOL    HW224727   0.618   5.154   2.901  1.5953 -1.5141  0.4662
 8010SOL     OW24728   2.066   6.947   2.772 -0.0137  0.0273  1.0379
 8010SOL    HW124729   2.090   7.018   2.831  0.8733 -0.3023  1.0924
 8010SOL    HW224730   2.005   6.893   2.822 -0.3956  0.5359  1.1313
 8011SOL     OW24731   6.128   7.427   5.806  0.4838  0.1490  0.0372
 8011SOL    HW124732   6.211   7.470   5.786  0.3291  0.2983 -0.2928
 8011SOL    HW224733   6.073   7.444   5.729 -0.7910  2.3707  1.3334
 8012SOL     OW24734   1.732   7.864   7.543 -0.3981  0.3190 -0.1226
 8012SOL    HW124735   1.679   7.932   7.585 -1.0688 -0.6860  0.7286
 8012SOL    HW224736   1.761   7.903   7.461 -0.7415  1.6307  0.3521
 8013SOL     OW24737   1.280   7.417   6.808 -0.1446  0.0111 -0.0841
 8013SOL    HW124738   1.272   7.331   6.768  3.4103 -0.4966 -0.0003
 8013SOL    HW224739   1.272   7.401   6.902 -3.6226  0.5030 -0.1750
 8014SOL     OW24740   7.324   7.199   4.652 -0.2116 -0.0741  0.0311
 8014SOL    HW124741   7.379   7.167   4.723 -1.0474  1.4139  1.4168
 8014SOL    HW224742   7.277   7.274   4.690 -1.3021  0.2527 -1.8467
 8015SOL     OW24743   2.075   7.850   1.828  0.3827 -0.3157  0.8284
 8015SOL    HW124744   2.007   7.875   1.891  0.6814  0.1222  0.9814
 8015SOL    HW224745   2.115   7.772   1.867 -1.6948 -2.1332 -0.4874
 8016SOL     OW24746   2.294   0.572   2.023 -0.2781 -0.1914  0.3475
 8016SOL    HW124747   2.378   0.587   1.981 -1.0062 -1.2520 -1.5716
 8016SOL    HW224748   2.229   0.604   1.960 -1.4155 -2.0414  0.5246
 8017SOL     OW24749   7.314   7.797   5.896  0.5761  0.2478  0.4674
 8017SOL    HW124750   7.388   7.768   5.841  0.7105 -0.4165  0.9790
 8017SOL    HW224751   7.240   7.745   5.865  0.8652 -0.8441  1.5338
 8018SOL     OW24752   4.281   7.722   6.524  0.1058  0.2698 -0.2563
 8018SOL    HW124753   4.348   7.680   6.577  1.2572  0.5170 -1.4719
 8018SOL    HW224754   4.307   7.814   6.519 -1.6210  0.8920  1.1998
 8019SOL     OW24755   1.219   1.211   4.860 -0.2423 -0.3617  0.2570
 8019SOL    HW124756   1.292   1.173   4.812  1.4229  0.2321  2.1630
 8019SOL    HW224757   1.167   1.137   4.889  1.1645 -1.0000  1.2107
 8020SOL     OW24758   4.111   6.345   5.973  0.1113 -0.0646  0.4501
 8020SOL    HW124759   4.062   6.266   5.949 -1.4451  0.2663  2.2743
 8020SOL    HW224760   4.049   6.416   5.959 -0.0278  0.3677  2.9307
 8021SOL     OW24761   5.421   6.799   7.955  0.1484  0.1909 -0.3652
 8021SOL    HW124762   5.442   6.774   8.046  0.2906  1.0799 -0.1491
 8021SOL    HW224763   5.441   6.720   7.904  0.2338 -0.2629  0.3516
 8022SOL     OW24764   7.065   0.085   5.138  0.6582  0.2874 -0.3944
 8022SOL    HW124765   7.062  -0.010   5.138 -2.2122  0.2489 -1.4333
 8022SOL    HW224766   7.144   0.107   5.089  2.1903 -1.4813  1.1581
 8023SOL     OW24767   6.074   7.800   6.592 -0.0550 -0.0357  0.5718
 8023SOL    HW124768   6.107   7.867   6.532 -0.2880  0.5712  1.0968
 8023SOL    HW224769   6.003   7.844   6.639 -0.4038 -0.7493  0.7271
 8024SOL     OW24770   1.698   0.903   3.218 -0.3460 -0.1457  1.2066
 8024SOL    HW124771   1.771   0.956   3.250 -0.0578 -0.6233  1.3503
 8024SOL    HW224772   1.672   0.851   3.294  1.8264 -2.9871  0.1783
 8025SOL     OW24773   1.016   5.747   7.288  0.3123 -0.0736  0.8794
 8025SOL    HW124774   1.104   5.732   7.322 -0.4491 -1.8052  2.2137
 8025SOL    HW224775   0.994   5.668   7.240 -0.4455  0.4288  0.3684
 8026SOL     OW24776   3.329   3.155   4.057  0.5153 -0.5990 -1.2934
 8026SOL    HW124777   3.298   3.211   3.986  0.0953 -2.2501 -2.4639
 8026SOL    HW224778   3.364   3.078   4.013  1.9166 -0.8781  0.2336
 8027SOL     OW24779   3.638   1.083   1.039 -0.2240 -0.3666  0.0157
 8027SOL    HW124780   3.549   1.098   1.007 -0.6717 -3.4896 -0.4954
 8027SOL    HW224781   3.631   1.094   1.134 -0.7153  1.1298 -0.1741
 8028SOL     OW24782   5.950   5.251   7.843  0.5081  0.3478  0.3530
 8028SOL    HW124783   6.019   5.193   7.878  1.7819  1.2935 -0.5245
 8028SOL    HW224784   5.900   5.195   7.784  1.2640 -0.0510  0.0807
 8029SOL     OW24785   7.816   3.147   4.796  0.2513 -0.7830 -0.1898
 8029SOL    HW124786   7.879   3.218   4.789 -0.5457  0.0776  0.9213
 8029SOL    HW224787   7.869   3.067   4.799  1.3987 -0.0118  1.9038
 8030SOL     OW24788   1.135   3.649   2.684 -0.4923  0.1759 -0.1841
 8030SOL    HW124789   1.116   3.620   2.772 -1.6724 -2.9695 -1.3452
 8030SOL    HW224790   1.057   3.626   2.633  0.7097  0.5269 -2.3221
 8031SOL     OW24791   3.734   4.256   6.365  0.1905  0.1084 -0.2097
 8031SOL    HW124792   3.715   4.344   6.333  1.9138 -0.0170 -1.7129
 8031SOL    HW224793   3.796   4.270   6.437  1.0983  0.1181 -0.9732
 8032SOL     OW24794   5.591   1.902   3.022  0.4368 -0.5569 -0.6973
 8032SOL    HW124795   5.524   1.918   3.089  2.2879 -1.2158  1.4251
 8032SOL    HW224796   5.541   1.888   2.942 -2.0361 -1.5668  0.8799
 8033SOL     OW24797   2.042   1.697   4.110 -0.0707  0.5543 -0.3210
 8033SOL    HW124798   2.114   1.638   4.088 -0.8377  0.2075 -2.0448
 8033SOL    HW224799   2.041   1.762   4.040 -0.1866  1.7597  0.7540
 8034SOL     OW24800   7.623   6.103   6.937 -0.0206  0.1679 -0.5465
 8034SOL    HW124801   7.576   6.184   6.954 -0.3000 -0.4782  2.4055
 8034SOL    HW224802   7.569   6.035   6.977  0.2239 -1.5338 -2.9054
 8035SOL     OW24803   1.899   1.004   2.965 -0.0965 -0.0744  0.0151
 8035SOL    HW124804   1.871   1.059   3.037 -1.2245  0.3216 -0.6994
 8035SOL    HW224805   1.854   1.040   2.888  1.3542 -0.2403 -0.9631
 8036SOL     OW24806   5.615   6.916   1.418  0.3158  0.6645 -0.2703
 8036SOL    HW124807   5.680   6.965   1.470  0.5574 -0.1628  0.2214
 8036SOL    HW224808   5.630   6.825   1.441 -1.5952  0.4995  0.5068
 8037SOL     OW24809   6.005   1.482   3.556 -0.5944 -0.2300  0.2771
 8037SOL    HW124810   5.950   1.489   3.634 -2.6883  0.1328 -1.1484
 8037SOL    HW224811   6.013   1.571   3.524 -0.6517 -0.4985 -0.5029
 8038SOL     OW24812   1.411   3.959   4.156  0.6371  0.4217 -0.1785
 8038SOL    HW124813   1.355   3.910   4.095  1.9889 -3.4746  1.4048
 8038SOL    HW224814   1.499   3.926   4.139  1.5344  1.6981  1.6562
 8039SOL     OW24815   6.963   1.690   6.187  0.5823  0.5247 -0.0872
 8039SOL    HW124816   6.934   1.781   6.183 -0.3330  0.3017  0.9010
 8039SOL    HW224817   6.890   1.643   6.228  1.9613 -0.2392  1.6667
 8040SOL     OW24818   3.499   5.953   1.783 -0.3298 -0.2318  0.1276
 8040SOL    HW124819   3.409   5.967   1.753 -1.4155 -1.5347  2.5210
 8040SOL    HW224820   3.498   5.867   1.826  1.6968  0.3415  1.4959
 8041SOL     OW24821   2.684   3.579   7.215  0.1435  0.3341  0.4664
 8041SOL    HW124822   2.774   3.548   7.199 -0.0923 -0.0420 -0.1294
 8041SOL    HW224823   2.695   3.671   7.239  0.7461  0.1211  1.0502
 8042SOL     OW24824   7.786   1.148   6.348 -0.3531  0.4844 -0.5509
 8042SOL    HW124825   7.704   1.164   6.303 -0.0673  1.6957 -0.6573
 8042SOL    HW224826   7.761   1.132   6.439 -0.8705 -1.3264 -0.9583
 8043SOL     OW24827   6.560   6.720   6.447 -0.1323  0.2943 -0.0125
 8043SOL    HW124828   6.643   6.680   6.473 -1.0665 -1.3528  0.5456
 8043SOL    HW224829   6.559   6.804   6.494  1.2148  0.3562 -0.0451
 8044SOL     OW24830   1.769   6.596   2.860  0.1851  0.3594  0.6133
 8044SOL    HW124831   1.833   6.664   2.880 -0.0056  0.5774  0.4963
 8044SOL    HW224832   1.796   6.563   2.774 -0.2841  0.9705  0.2149
 8045SOL     OW24833   6.780   1.846   1.508  0.4463 -0.2756  0.2311
 8045SOL    HW124834   6.861   1.803   1.481 -0.1800 -0.4179 -1.5631
 8045SOL    HW224835   6.765   1.815   1.597  1.6259 -1.3237  0.0932
 8046SOL     OW24836   4.327   4.917   3.478 -0.2716  0.3792 -0.0953
 8046SOL    HW124837   4.347   4.991   3.536 -0.1724  1.3173 -1.2889
 8046SOL    HW224838   4.366   4.841   3.521 -0.3827  1.0032  1.1657
 8047SOL     OW24839   1.363   4.785   0.928 -0.4082  0.7892 -0.0715
 8047SOL    HW124840   1.378   4.868   0.971 -2.2087  0.8576  0.4940
 8047SOL    HW224841   1.306   4.736   0.987 -0.3699 -0.3746 -0.9400
 8048SOL     OW24842   0.785   2.448   3.452 -0.7927 -0.1268 -0.1105
 8048SOL    HW124843   0.835   2.468   3.531 -2.2847  2.5408  0.2591
 8048SOL    HW224844   0.737   2.529   3.433 -0.7753 -0.7698 -3.5439
 8049SOL     OW24845   3.606   4.766   1.354 -0.4209  0.6533  0.5989
 8049SOL    HW124846   3.609   4.859   1.332  2.8669  0.7079  0.7912
 8049SOL    HW224847   3.682   4.752   1.410 -0.6897 -2.2152  0.4108
 8050SOL     OW24848   7.805   6.865   5.882  0.2093 -0.3393  0.6453
 8050SOL    HW124849   7.718   6.880   5.918  1.2120 -0.3521  3.3281
 8050SOL    HW224850   7.850   6.949   5.895  1.2908 -1.0389  1.5197
 8051SOL     OW24851   5.669   6.282   1.760  0.2319 -0.2819  0.1051
 8051SOL    HW124852   5.602   6.270   1.827 -0.9565  0.3637 -0.9149
 8051SOL    HW224853   5.709   6.196   1.750 -1.1524 -0.9389  0.0224
 8052SOL     OW24854   3.309   6.165   1.293  0.1312  0.0693  0.1156
 8052SOL    HW124855   3.360   6.094   1.334  0.7449  1.1554  1.3404
 8052SOL    HW224856   3.328   6.242   1.348 -0.2696  1.2525 -1.3467
 8053SOL     OW24857   7.017   6.643   5.670  0.5397 -0.3853 -0.2305
 8053SOL    HW124858   7.018   6.558   5.715  1.3387 -0.8974 -1.1794
 8053SOL    HW224859   6.935   6.684   5.698  0.6228 -1.0289  1.0395
 8054SOL     OW24860   4.816   7.287   6.992  0.5412 -0.5063  0.2772
 8054SOL    HW124861   4.904   7.321   7.007  0.2999 -0.0117  0.6022
 8054SOL    HW224862   4.788   7.328   6.911  0.0027  0.5955  1.0024
 8055SOL     OW24863   7.382   7.301   1.885  0.0684  0.1918 -0.0627
 8055SOL    HW124864   7.473   7.329   1.878 -0.1991  1.0293 -0.3852
 8055SOL    HW224865   7.381   7.237   1.957  0.9685 -0.1221 -0.3231
 8056SOL     OW24866   5.239   2.633   0.905 -0.5615  0.3465  0.1397
 8056SOL    HW124867   5.181   2.570   0.863 -2.0275  1.1468  0.8763
 8056SOL    HW224868   5.228   2.617   0.999  0.8029  0.1917  0.2814
 8057SOL     OW24869   4.535   0.415   3.027 -1.0331  0.0481  0.5387
 8057SOL    HW124870   4.516   0.326   2.999 -0.7961 -0.2770  1.4009
 8057SOL    HW224871   4.584   0.453   2.954 -2.2620 -0.0973 -0.3868
 8058SOL     OW24872   6.740   5.453   7.706  0.3233 -0.7481  0.3187
 8058SOL    HW124873   6.680   5.383   7.681  0.1183  0.0956 -1.7662
 8058SOL    HW224874   6.683   5.523   7.736  0.4112 -0.8150  0.6377
 8059SOL     OW24875   7.510   7.638   3.577 -0.3342 -0.8518 -0.4020
 8059SOL    HW124876   7.543   7.575   3.513  0.3353 -0.8418 -0.0781
 8059SOL    HW224877   7.490   7.584   3.654 -2.0532 -1.0108 -0.9145
 8060SOL     OW24878   4.978   5.212   5.157  0.7846 -0.6290  0.0414
 8060SOL    HW124879   4.988   5.221   5.252  2.0449 -0.4589 -0.0825
 8060SOL    HW224880   4.967   5.302   5.125 -0.9687 -0.7876  0.1343
 8061SOL     OW24881   2.045   3.946   2.903  0.3068  0.5113  0.4503
 8061SOL    HW124882   1.992   3.958   2.824 -1.8170 -1.7455  1.3944
 8061SOL    HW224883   2.097   3.868   2.884  0.4374  0.4778  0.9570
 8062SOL     OW24884   5.185   3.238   5.238 -0.1948 -0.3271  0.9894
 8062SOL    HW124885   5.234   3.308   5.195 -0.3960 -0.7651  0.0226
 8062SOL    HW224886   5.180   3.265   5.330 -0.7394  1.2059  0.5359
 8063SOL     OW24887   4.409   3.186   0.594  0.2763 -0.3314  0.3535
 8063SOL    HW124888   4.479   3.248   0.573  1.1675 -1.8051 -1.2928
 8063SOL    HW224889   4.453   3.101   0.601 -0.8940 -0.8200  2.6370
 8064SOL     OW24890   1.563   6.720   0.830  0.5885  0.1520 -0.1489
 8064SOL    HW124891   1.656   6.728   0.852  0.5522  1.0992 -0.2828
 8064SOL    HW224892   1.520   6.782   0.888  0.3101  1.4549 -1.6769
 8065SOL     OW24893   7.215   5.551   0.164  0.6105  1.1781 -0.3301
 8065SOL    HW124894   7.181   5.474   0.117  3.2494  0.0894 -0.6050
 8065SOL    HW224895   7.144   5.575   0.224 -0.8139 -0.6372 -1.1678
 8066SOL     OW24896   5.845   0.142   3.898 -0.2744 -0.0292  0.6803
 8066SOL    HW124897   5.923   0.111   3.852 -0.4043 -0.8358  0.9913
 8066SOL    HW224898   5.791   0.182   3.831  0.0771 -0.1221  0.3404
 8067SOL     OW24899   6.732   5.684   6.107  0.0580  0.1704  0.8973
 8067SOL    HW124900   6.745   5.778   6.098  1.7614  0.1077  2.2409
 8067SOL    HW224901   6.820   5.649   6.120 -0.5180 -1.6547  0.1774
 8068SOL     OW24902   1.790   1.905   0.550  0.0991 -0.0349 -0.4233
 8068SOL    HW124903   1.762   1.993   0.573 -2.4787 -1.0063  0.5669
 8068SOL    HW224904   1.846   1.878   0.622 -1.5250 -0.2088  0.8407
 8069SOL     OW24905   4.575   7.973   1.070 -0.0472 -0.0652  0.2576
 8069SOL    HW124906   4.483   7.957   1.092 -0.2468  2.7380  2.0564
 8069SOL    HW224907   4.574   8.055   1.021  1.4694 -0.1537  0.0292
 8070SOL     OW24908   2.097   7.977   4.972 -0.7272 -0.3497 -0.2572
 8070SOL    HW124909   2.091   7.952   4.880 -0.6782  0.6635 -0.5409
 8070SOL    HW224910   2.181   8.022   4.979 -0.0612 -1.6405  0.5901
 8071SOL     OW24911   2.205   2.430   2.230 -0.1980  0.0776 -0.1654
 8071SOL    HW124912   2.268   2.490   2.270 -1.9055  1.5990  0.3690
 8071SOL    HW224913   2.255   2.385   2.162  2.2294 -0.9885  2.1414
 8072SOL     OW24914   3.056   7.799   2.195  0.4356 -0.1779 -0.2632
 8072SOL    HW124915   3.109   7.805   2.274  0.6084  1.9296 -0.4868
 8072SOL    HW224916   2.996   7.873   2.201 -1.0536 -1.2573 -1.0705
 8073SOL     OW24917   2.723   5.369   6.520 -0.3647 -0.6062 -0.8426
 8073SOL    HW124918   2.660   5.304   6.553  1.5431 -1.3528  1.5761
 8073SOL    HW224919   2.745   5.422   6.596  0.4520  0.9557 -2.1008
 8074SOL     OW24920   6.339   6.751   7.449  0.3182 -0.5684  0.5782
 8074SOL    HW124921   6.275   6.822   7.453 -0.8368 -1.5527  0.1043
 8074SOL    HW224922   6.378   6.750   7.536 -0.1561  0.1912  0.8131
 8075SOL     OW24923   4.884   1.900   2.294 -0.4072 -0.3568  0.1314
 8075SOL    HW124924   4.821   1.883   2.364 -2.6200 -0.5678 -1.7925
 8075SOL    HW224925   4.959   1.845   2.315 -0.5093  0.4051  2.8802
 8076SOL     OW24926   3.701   6.918   0.903 -0.1522  0.2861  0.2170
 8076SOL    HW124927   3.774   6.898   0.844 -0.0477 -0.5494  0.6232
 8076SOL    HW224928   3.715   6.862   0.979  0.0730  1.8044  1.3417
 8077SOL     OW24929   6.739   6.489   6.153  0.1705 -0.7621 -0.5781
 8077SOL    HW124930   6.665   6.491   6.214  1.4896 -0.4291  1.0900
 8077SOL    HW224931   6.711   6.429   6.083 -1.6106 -0.7276  0.0557
 8078SOL     OW24932   5.532   3.778   4.668  0.5141  0.0369 -0.3455
 8078SOL    HW124933   5.501   3.766   4.757  0.5842 -2.1827 -0.5730
 8078SOL    HW224934   5.465   3.738   4.613  0.6575  1.0278 -1.2840
 8079SOL     OW24935   2.106   7.395   6.036 -0.2316  0.2825  0.5939
 8079SOL    HW124936   2.107   7.317   5.982  0.1329  1.0681 -0.5791
 8079SOL    HW224937   2.060   7.461   5.983 -0.4015  0.9089  1.4847
 8080SOL     OW24938   1.908   7.401   4.848  0.4021 -0.0999  0.5181
 8080SOL    HW124939   1.847   7.339   4.808 -0.7096  0.2605  1.6004
 8080SOL    HW224940   1.990   7.353   4.855  0.3411 -0.5145 -1.1995
 8081SOL     OW24941   4.788   3.126   0.064 -0.2575  0.8889 -0.2385
 8081SOL    HW124942   4.797   3.115   0.159  1.4235 -0.8479 -0.5221
 8081SOL    HW224943   4.737   3.049   0.036 -1.3723  1.7643 -0.6977
 8082SOL     OW24944   5.574   0.848   4.272  0.0482  0.3325  0.1692
 8082SOL    HW124945   5.656   0.872   4.227 -1.1103  1.7261 -1.2958
 8082SOL    HW224946   5.540   0.775   4.221 -0.4796  0.9024 -0.3162
 8083SOL     OW24947   6.585   1.299   1.215 -0.0085 -0.2980  0.3261
 8083SOL    HW124948   6.582   1.253   1.132  1.8295 -1.4786  0.8735
 8083SOL    HW224949   6.677   1.300   1.240 -0.2170  2.0197  1.2880
 8084SOL     OW24950   3.343   7.240   5.466  0.7062 -0.2413 -0.1499
 8084SOL    HW124951   3.331   7.230   5.561  1.4870 -1.8523 -0.1870
 8084SOL    HW224952   3.367   7.332   5.454 -3.2127  1.0916  0.7647
 8085SOL     OW24953   0.498   5.185   0.560  0.2166  0.2368  0.5172
 8085SOL    HW124954   0.546   5.103   0.555  0.3033  0.3389 -0.4668
 8085SOL    HW224955   0.557   5.244   0.608  0.9019  0.2374 -0.3140
 8086SOL     OW24956   2.100   2.006   6.608 -0.3892  0.1872 -0.3502
 8086SOL    HW124957   2.024   2.018   6.664  0.1396 -2.0260  1.0012
 8086SOL    HW224958   2.141   2.093   6.603 -1.5020  0.8365  1.1602
 8087SOL     OW24959   3.120   3.007   5.357  0.2973 -0.0927 -0.0598
 8087SOL    HW124960   3.120   2.912   5.368 -2.6511  0.0220  1.7181
 8087SOL    HW224961   3.114   3.042   5.446  0.3157  1.7676 -0.7422
 8088SOL     OW24962   3.507   7.670   0.935 -0.1757 -0.2863  0.5704
 8088SOL    HW124963   3.420   7.639   0.957 -0.0671 -0.8992  0.1596
 8088SOL    HW224964   3.525   7.632   0.848 -0.4900  1.8265 -0.4875
 8089SOL     OW24965   6.773   4.907   6.354  0.4453  0.0975 -0.3634
 8089SOL    HW124966   6.739   4.873   6.271  1.0267  1.0181 -1.0040
 8089SOL    HW224967   6.773   4.832   6.413 -2.4911 -0.0230 -0.3682
 8090SOL     OW24968   3.551   3.900   3.518 -0.2318  0.2547  0.1537
 8090SOL    HW124969   3.584   3.827   3.571  0.2953 -0.3541 -0.9798
 8090SOL    HW224970   3.498   3.951   3.579  1.1309  0.1183  1.5049
 8091SOL     OW24971   5.906   2.775   6.932  0.6314 -0.0543 -0.6852
 8091SOL    HW124972   5.916   2.755   7.026 -0.5844 -1.6342 -0.8475
 8091SOL    HW224973   5.856   2.856   6.930 -1.1395 -1.0560  0.0905
 8092SOL     OW24974   6.745   4.535   5.193 -0.2456  0.1363 -0.3320
 8092SOL    HW124975   6.782   4.485   5.120  0.3983  1.9166 -1.2584
 8092SOL    HW224976   6.759   4.478   5.270  1.1025 -0.7913 -1.2276
 8093SOL     OW24977   0.089   6.108   3.728 -0.1579 -0.2305 -0.6503
 8093SOL    HW124978   0.132   6.024   3.743 -1.1330 -0.3691  1.8534
 8093SOL    HW224979  -0.003   6.086   3.711  0.0215  0.2449 -2.4795
 8094SOL     OW24980   0.970   7.412   2.255 -0.1857 -0.4466 -0.5477
 8094SOL    HW124981   1.052   7.459   2.265 -0.8153  0.8901 -1.4213
 8094SOL    HW224982   0.956   7.370   2.340  1.2563 -0.4866 -0.3065
 8095SOL     OW24983   3.001   0.491   0.767 -0.0720  0.2497 -0.0674
 8095SOL    HW124984   3.051   0.412   0.787  0.0029  0.3696  0.2097
 8095SOL    HW224985   2.923   0.485   0.823  0.8100  1.2843  1.3279
 8096SOL     OW24986   7.810   2.180   4.028  0.2119  0.6371 -0.5994
 8096SOL    HW124987   7.841   2.091   4.014 -1.6666 -0.2693  0.5590
 8096SOL    HW224988   7.796   2.215   3.940  2.9466  0.6183 -1.1388
 8097SOL     OW24989   6.459   1.070   6.960 -0.0837  0.5285  0.9471
 8097SOL    HW124990   6.462   0.974   6.966  2.0312  0.4717 -0.1467
 8097SOL    HW224991   6.372   1.089   6.924 -0.8720 -0.8936  1.9910
 8098SOL     OW24992   3.181   2.447   0.064 -0.1360  0.1087  0.3462
 8098SOL    HW124993   3.158   2.411  -0.022  1.9346 -1.9338  0.5477
 8098SOL    HW224994   3.227   2.376   0.108  1.3748  2.0228  2.0356
 8099SOL     OW24995   0.909   7.569   5.731 -0.2814 -0.0621  0.3767
 8099SOL    HW124996   0.863   7.636   5.681 -0.1606  0.8484  1.4665
 8099SOL    HW224997   0.888   7.487   5.685 -1.2992  0.5746 -0.3398
 8100SOL     OW24998   1.548   7.331   6.632 -0.5300 -0.0370  0.4162
 8100SOL    HW124999   1.519   7.354   6.544  1.2233  3.1911  0.5033
 8100SOL    HW225000   1.470   7.342   6.687 -0.8026  1.8831 -0.2541
 8101SOL     OW25001   1.252   2.893   4.309 -0.4674  0.0515 -0.0183
 8101SOL    HW125002   1.183   2.836   4.344 -0.8774  1.6366  1.9798
 8101SOL    HW225003   1.310   2.834   4.261 -0.5007 -2.2109  2.4770
 8102SOL     OW25004   2.256   3.098   0.609  0.1608 -0.1941  0.6470
 8102SOL    HW125005   2.301   3.180   0.591  0.7450 -0.5167  0.5992
 8102SOL    HW225006   2.180   3.099   0.551  0.0195  0.4232  0.8340
 8103SOL     OW25007   5.564   5.683   3.939 -0.5349 -0.3354  0.0297
 8103SOL    HW125008   5.632   5.740   3.902 -1.3728  0.4826 -0.2678
 8103SOL    HW225009   5.603   5.595   3.936  0.2442  0.0177 -0.7930
 8104SOL     OW25010   6.245   4.090   3.628  0.3280  0.1840 -0.1567
 8104SOL    HW125011   6.249   4.100   3.533 -0.7407 -4.1881 -0.8818
 8104SOL    HW225012   6.333   4.110   3.658  0.1790  3.6822 -1.6765
 8105SOL     OW25013   0.186   1.731   1.932 -0.3427  0.3760 -0.2319
 8105SOL    HW125014   0.248   1.762   1.866 -1.0604 -0.5864 -1.4086
 8105SOL    HW225015   0.121   1.801   1.939  0.8894  1.4409  1.0914
 8106SOL     OW25016   3.135   7.968   5.551  0.3751  0.3647 -0.2384
 8106SOL    HW125017   3.146   7.957   5.645  1.4837  0.5225 -0.3372
 8106SOL    HW225018   3.112   7.881   5.518  0.2477  0.2561  0.1377
 8107SOL     OW25019   1.373   7.066   0.711 -0.3363 -0.1843  0.2453
 8107SOL    HW125020   1.376   7.150   0.666 -1.1545 -0.4913 -0.4051
 8107SOL    HW225021   1.378   7.000   0.642 -0.0701 -0.6761  0.7179
 8108SOL     OW25022   1.918   1.341   3.079  0.3620 -0.1878  0.0812
 8108SOL    HW125023   1.929   1.249   3.101  0.7760  0.0954  1.1192
 8108SOL    HW225024   1.828   1.361   3.105  0.4573 -0.1643  0.4048
 8109SOL     OW25025   7.837   0.794   2.426  0.0182  0.7301 -0.0445
 8109SOL    HW125026   7.860   0.804   2.519 -1.6390  0.9682  0.3571
 8109SOL    HW225027   7.789   0.873   2.404 -1.8440 -0.4517 -0.3840
 8110SOL     OW25028   2.357   2.154   5.475 -0.1008  0.8896 -1.2080
 8110SOL    HW125029   2.418   2.137   5.547 -0.5618  1.4810 -0.6662
 8110SOL    HW225030   2.406   2.130   5.396 -0.2056 -1.4696 -0.6106
 8111SOL     OW25031   4.472   7.766   7.431 -0.2440  0.4236 -0.0518
 8111SOL    HW125032   4.495   7.676   7.407 -0.0443  0.3392  0.4531
 8111SOL    HW225033   4.500   7.819   7.356 -1.2707 -0.0442 -0.7982
 8112SOL     OW25034   5.670   1.978   1.266  0.6471  0.1810  0.3322
 8112SOL    HW125035   5.617   2.033   1.323  0.3175  0.9551 -0.7058
 8112SOL    HW225036   5.633   1.890   1.275 -0.1599  0.5270  0.3831
 8113SOL     OW25037   3.273   5.819   4.950 -0.7440  0.1459  0.3508
 8113SOL    HW125038   3.364   5.847   4.965 -0.6102  0.0615 -0.2669
 8113SOL    HW225039   3.244   5.872   4.876 -0.9815 -0.2935  0.1239
 8114SOL     OW25040   3.576   2.428   4.196  0.5378  0.0176 -0.0945
 8114SOL    HW125041   3.565   2.516   4.161  0.6010 -0.0597 -0.3107
 8114SOL    HW225042   3.543   2.433   4.286 -0.0624  0.1001 -0.3188
 8115SOL     OW25043   6.398   7.331   0.831 -0.1758 -0.0069  0.1411
 8115SOL    HW125044   6.321   7.363   0.878 -0.7048 -0.0728 -0.6689
 8115SOL    HW225045   6.370   7.249   0.791 -0.1327  0.6754 -1.3370
 8116SOL     OW25046   3.829   7.585   6.587  0.3887 -0.3554 -0.0509
 8116SOL    HW125047   3.831   7.582   6.492  2.5173  0.4196 -0.0871
 8116SOL    HW225048   3.894   7.521   6.615 -0.1053 -0.4732  0.8891
 8117SOL     OW25049   6.948   2.658   2.479  0.4526  0.4888 -0.2417
 8117SOL    HW125050   6.953   2.634   2.572  1.0504 -0.2615 -0.4593
 8117SOL    HW225051   6.881   2.727   2.476 -0.5721 -0.4354  0.5533
 8118SOL     OW25052   4.874   4.859   0.242 -0.2942  0.4765 -0.0197
 8118SOL    HW125053   4.948   4.872   0.182  0.0582 -1.4544 -0.0494
 8118SOL    HW225054   4.799   4.843   0.185 -0.1404 -0.4370  0.0164
 8119SOL     OW25055   0.690   7.304   1.659 -0.3434 -0.2687 -0.3880
 8119SOL    HW125056   0.771   7.253   1.652 -0.2564 -0.5059  1.6768
 8119SOL    HW225057   0.628   7.256   1.605  0.8283 -0.1441 -1.9320
 8120SOL     OW25058   2.532   2.145   5.669 -0.0476  0.4209  0.0699
 8120SOL    HW125059   2.592   2.185   5.605  0.8482 -0.2082  0.4944
 8120SOL    HW225060   2.582   2.073   5.707 -0.7499  0.4599  1.1160
 8121SOL     OW25061   5.690   3.628   6.000 -0.7358  0.1247 -0.5266
 8121SOL    HW125062   5.677   3.533   5.995 -2.6937  0.3031  0.0617
 8121SOL    HW225063   5.751   3.648   5.930  2.9706 -2.0157  1.7631
 8122SOL     OW25064   2.870   3.560   5.458 -0.4986  0.1478  0.5248
 8122SOL    HW125065   2.800   3.612   5.418  0.7147  1.0536 -0.5054
 8122SOL    HW225066   2.915   3.621   5.516  1.5481  0.6089 -1.4301
 8123SOL     OW25067   5.394   1.998   5.454 -0.3244 -0.2611 -0.6050
 8123SOL    HW125068   5.408   2.058   5.381  0.6123 -3.1689 -3.0280
 8123SOL    HW225069   5.481   1.985   5.491 -0.6814  0.6036  0.6001
 8124SOL     OW25070   7.457   7.318   5.409 -0.3637 -0.1887 -0.0062
 8124SOL    HW125071   7.367   7.330   5.437 -0.2865  1.4745 -0.3536
 8124SOL    HW225072   7.501   7.279   5.484 -1.0393  0.4889  0.7576
 8125SOL     OW25073   3.373   5.694   4.693  0.0168  0.1196  0.0638
 8125SOL    HW125074   3.350   5.602   4.678 -0.9122  0.3646 -0.0731
 8125SOL    HW225075   3.354   5.709   4.785 -2.0281  0.7626 -0.4206
 8126SOL     OW25076   3.402   6.658   4.537 -0.2191 -0.3159  0.4220
 8126SOL    HW125077   3.432   6.673   4.447 -0.8234 -1.2499  0.0501
 8126SOL    HW225078   3.420   6.565   4.553  0.3613 -0.0436  1.4616
 8127SOL     OW25079   2.668   0.745   4.050 -0.1869  0.3271 -0.0673
 8127SOL    HW125080   2.692   0.810   4.116  0.9427  0.5704 -0.7014
 8127SOL    HW225081   2.584   0.776   4.015 -0.5033  0.5069  0.8381
 8128SOL     OW25082   2.417   5.525   3.760  0.0403  0.0539  0.0506
 8128SOL    HW125083   2.438   5.606   3.715  0.6589 -0.3676 -0.4342
 8128SOL    HW225084   2.501   5.492   3.791 -0.4999  1.0593  2.8252
 8129SOL     OW25085   2.089   6.568   0.169  0.3296  0.2658  0.0306
 8129SOL    HW125086   2.167   6.624   0.177  0.9906 -0.2805 -2.0139
 8129SOL    HW225087   2.026   6.608   0.228  1.9372  1.1126  1.2774
 8130SOL     OW25088   4.976   4.149   5.668  0.0559 -0.0846 -0.2703
 8130SOL    HW125089   4.882   4.135   5.672  0.0081  0.4673  2.2849
 8130SOL    HW225090   4.986   4.243   5.651  0.1569 -0.0937 -0.2643
 8131SOL     OW25091   2.779   7.758   5.412 -0.5326  0.2768  0.2282
 8131SOL    HW125092   2.706   7.794   5.463 -1.7728 -0.7775 -0.7280
 8131SOL    HW225093   2.801   7.677   5.458  2.2652  2.0741  2.3928
 8132SOL     OW25094   2.972   6.553   4.285  0.0975 -0.7011  0.0275
 8132SOL    HW125095   2.933   6.477   4.328  1.1217 -1.1834  0.1421
 8132SOL    HW225096   2.913   6.573   4.213 -0.2400 -1.5488  0.0529
 8133SOL     OW25097   5.767   0.706   7.479 -0.5194 -0.4116  0.2866
 8133SOL    HW125098   5.823   0.725   7.404 -2.8407 -0.0679 -1.4752
 8133SOL    HW225099   5.706   0.779   7.483 -3.3557 -2.5736 -0.4250
 8134SOL     OW25100   7.731   0.992   5.782 -0.2625 -0.5523  0.2715
 8134SOL    HW125101   7.785   0.914   5.780 -1.0145 -1.0748 -0.9444
 8134SOL    HW225102   7.692   0.997   5.695  0.5455  1.7458 -0.0406
 8135SOL     OW25103   5.061   1.946   7.106  0.1169  0.2074 -0.0727
 8135SOL    HW125104   4.969   1.937   7.080 -0.3686 -0.7931  1.8577
 8135SOL    HW225105   5.063   1.927   7.199  2.1827  1.0646  0.1309
 8136SOL     OW25106   3.442   2.029   2.538 -0.3070  0.0619  0.2406
 8136SOL    HW125107   3.536   2.047   2.542 -0.7525  2.6919  0.4188
 8136SOL    HW225108   3.410   2.079   2.463 -1.8420  0.7599  1.3038
 8137SOL     OW25109   3.239   7.562   1.748  0.4330  0.4774 -0.0766
 8137SOL    HW125110   3.195   7.518   1.821 -0.8133  2.1685  0.2696
 8137SOL    HW225111   3.309   7.613   1.789  0.6749  0.2677 -0.2328
 8138SOL     OW25112   1.982   0.553   0.589 -0.4604 -0.7955 -0.1893
 8138SOL    HW125113   1.909   0.615   0.594 -0.5193 -0.8459 -0.4057
 8138SOL    HW225114   2.059   0.609   0.578 -0.6428 -0.7820 -1.7232
 8139SOL     OW25115   5.253   0.636   6.112  0.0747  0.2020  0.1194
 8139SOL    HW125116   5.191   0.705   6.087 -0.4984 -0.9887 -2.0172
 8139SOL    HW225117   5.256   0.578   6.036  2.9224 -0.4532  0.6130
 8140SOL     OW25118   5.275   4.490   4.899  0.1390  0.1395  0.2041
 8140SOL    HW125119   5.285   4.434   4.975  0.8881 -0.0575 -0.0236
 8140SOL    HW225120   5.365   4.512   4.874 -0.1289  1.1066  0.0454
 8141SOL     OW25121   4.697   0.607   3.454  0.0121  0.3829 -0.4571
 8141SOL    HW125122   4.642   0.585   3.379 -0.6483 -0.9471  0.3735
 8141SOL    HW225123   4.659   0.688   3.489 -2.0109 -0.9317  0.5792
 8142SOL     OW25124   6.662   4.056   6.505  0.5378  0.1217 -0.4560
 8142SOL    HW125125   6.570   4.083   6.502  0.0184 -1.6286 -2.6508
 8142SOL    HW225126   6.703   4.119   6.564 -1.7645  1.8629 -0.5688
 8143SOL     OW25127   5.686   6.592   6.194 -0.6485  0.1120  0.1094
 8143SOL    HW125128   5.720   6.662   6.138  1.8667 -0.8817  0.2856
 8143SOL    HW225129   5.730   6.604   6.278  0.9138 -2.3962 -0.2543
 8144SOL     OW25130   4.547   3.336   3.987 -0.0738 -0.0100  0.1748
 8144SOL    HW125131   4.452   3.336   3.987 -0.0881  1.1084  0.1507
 8144SOL    HW225132   4.571   3.380   4.069  0.3881  1.1819 -0.5692
 8145SOL     OW25133   6.345   1.869   3.707  0.4313  0.2055 -0.4428
 8145SOL    HW125134   6.278   1.867   3.775 -0.1170 -0.0338 -0.9798
 8145SOL    HW225135   6.428   1.858   3.753  0.0557 -0.0569  0.1678
 8146SOL     OW25136   7.397   5.305   7.834  0.0253 -0.2577  0.5380
 8146SOL    HW125137   7.383   5.257   7.915 -0.8610 -0.6778  0.1524
 8146SOL    HW225138   7.369   5.244   7.765 -1.5313  0.9490  0.0646
 8147SOL     OW25139   1.116   0.855   4.380  0.7634 -0.5682 -0.2130
 8147SOL    HW125140   1.163   0.830   4.300  1.2539  1.6914 -0.7252
 8147SOL    HW225141   1.144   0.945   4.396 -1.8200  0.1607  0.6699
 8148SOL     OW25142   5.161   3.431   0.801 -0.3893 -0.0880  0.7349
 8148SOL    HW125143   5.066   3.428   0.798 -0.3534 -0.4481 -0.3830
 8148SOL    HW225144   5.183   3.407   0.891 -1.3866  1.4569  1.4330
 8149SOL     OW25145   2.126   1.445   7.645 -0.1396  0.0512 -0.4790
 8149SOL    HW125146   2.194   1.380   7.628 -0.4388 -0.5134  0.4222
 8149SOL    HW225147   2.166   1.529   7.623  1.4757 -0.0780  1.7222
 8150SOL     OW25148   7.075   4.807   2.269  0.5080  0.5698 -0.2454
 8150SOL    HW125149   6.983   4.816   2.245  0.5014 -0.6758 -0.7654
 8150SOL    HW225150   7.121   4.868   2.212  0.1036  0.4687 -0.6890
 8151SOL     OW25151   0.304   3.464   5.062  0.1743  0.1788 -0.6711
 8151SOL    HW125152   0.262   3.379   5.069  0.9937 -0.1546  0.3752
 8151SOL    HW225153   0.260   3.519   5.126  1.2084 -0.1431  0.3562
 8152SOL     OW25154   6.804   0.617   7.928  0.0986  0.1066  0.3216
 8152SOL    HW125155   6.878   0.584   7.879 -1.5243  0.4349 -2.5612
 8152SOL    HW225156   6.818   0.711   7.933 -0.3108  0.2250 -0.6166
 8153SOL     OW25157   7.801   3.652   4.093 -0.1490 -0.2691 -0.0974
 8153SOL    HW125158   7.816   3.563   4.061  0.9705  0.2202 -1.0096
 8153SOL    HW225159   7.802   3.644   4.189 -0.9424 -1.3577 -0.1618
 8154SOL     OW25160   5.346   4.207   2.952  0.7415  0.8345 -0.5681
 8154SOL    HW125161   5.278   4.273   2.967  1.0431  1.2774 -1.0985
 8154SOL    HW225162   5.319   4.132   3.005 -1.2428  0.2330 -2.3033
 8155SOL     OW25163   5.178   5.529   1.785 -0.4083 -0.4635 -0.4566
 8155SOL    HW125164   5.131   5.611   1.765 -0.9037 -0.7902 -0.6519
 8155SOL    HW225165   5.238   5.553   1.855 -1.7020 -0.2837  0.6384
 8156SOL     OW25166   1.117   4.125   1.735 -0.1855  0.3186 -0.1733
 8156SOL    HW125167   1.154   4.214   1.733  0.8830 -0.0185  1.8269
 8156SOL    HW225168   1.063   4.123   1.814  0.4086 -1.0094  0.2333
 8157SOL     OW25169   7.735   4.230   1.852 -0.3407 -1.3171  0.9554
 8157SOL    HW125170   7.674   4.303   1.849  1.4059  0.1793  0.0944
 8157SOL    HW225171   7.679   4.152   1.848 -2.1553 -0.0283 -0.4038
 8158SOL     OW25172   1.200   0.787   1.816 -0.1605 -0.6901 -0.1283
 8158SOL    HW125173   1.265   0.815   1.881 -1.7062  0.8146  0.8320
 8158SOL    HW225174   1.210   0.848   1.744 -1.5919  0.6215  0.7391
 8159SOL     OW25175   3.766   4.071   5.259 -0.0441  0.1437 -0.0655
 8159SOL    HW125176   3.794   3.983   5.282  0.5849 -0.1709 -1.8976
 8159SOL    HW225177   3.681   4.059   5.217  0.5625  0.2625 -1.3603
 8160SOL     OW25178   7.526   7.483   4.084  0.2617 -0.1625  0.3898
 8160SOL    HW125179   7.621   7.475   4.077  0.1852 -1.2271  0.3376
 8160SOL    HW225180   7.505   7.436   4.165 -0.1269  0.9130  0.9208
 8161SOL     OW25181   4.832   1.213   2.068 -0.8603  0.8976  0.0080
 8161SOL    HW125182   4.906   1.268   2.094  0.0697 -0.1077 -0.4027
 8161SOL    HW225183   4.834   1.213   1.973 -0.5690 -0.1630 -0.0060
 8162SOL     OW25184   0.315   4.808   0.192 -0.1467 -0.1589  0.1240
 8162SOL    HW125185   0.399   4.833   0.153 -1.1156  1.1246 -1.2344
 8162SOL    HW225186   0.301   4.718   0.162  1.0267 -0.6587  0.9484
 8163SOL     OW25187   0.325   0.768   7.407 -0.3345 -0.6400  0.1176
 8163SOL    HW125188   0.416   0.767   7.438  0.0541  1.5529 -0.7773
 8163SOL    HW225189   0.331   0.739   7.316 -0.2095  1.2564 -0.5262
 8164SOL     OW25190   7.813   2.596   2.206 -0.2413 -0.2935  0.1679
 8164SOL    HW125191   7.760   2.620   2.130 -2.2804 -1.3287  1.1647
 8164SOL    HW225192   7.767   2.521   2.245  0.9664 -0.0950  2.1620
 8165SOL     OW25193   4.498   4.484   2.188 -0.5194  0.0427  0.4881
 8165SOL    HW125194   4.518   4.391   2.200 -0.9404 -0.1825 -0.4715
 8165SOL    HW225195   4.578   4.529   2.217 -0.5954 -0.5605  1.7143
 8166SOL     OW25196   4.981   4.547   1.014  0.2844  0.2676 -0.1308
 8166SOL    HW125197   4.909   4.500   1.055  0.6166  0.5188  0.7587
 8166SOL    HW225198   4.941   4.590   0.938 -0.1334 -0.9918 -0.6531
 8167SOL     OW25199   5.971   5.271   2.403  0.0343 -0.2790  0.8493
 8167SOL    HW125200   5.890   5.318   2.383  0.4955 -0.3593 -1.3462
 8167SOL    HW225201   5.950   5.179   2.388  0.6220 -0.2689 -0.0717
 8168SOL     OW25202   0.735   2.821   2.706  0.0890  0.1393  0.0664
 8168SOL    HW125203   0.791   2.838   2.782 -0.4865  0.9795  0.3193
 8168SOL    HW225204   0.747   2.897   2.650  0.6148 -0.5433 -0.7697
 8169SOL     OW25205   2.605   3.391   5.476  0.6129  0.2855 -0.7287
 8169SOL    HW125206   2.651   3.438   5.407  1.8054 -0.1733 -0.2703
 8169SOL    HW225207   2.548   3.330   5.430  0.6616  0.6661 -1.3035
 8170SOL     OW25208   7.712   5.875   0.636  0.5463 -0.3351 -0.0100
 8170SOL    HW125209   7.735   5.959   0.675 -1.1402  0.7924 -1.2873
 8170SOL    HW225210   7.762   5.873   0.554  1.1477 -0.9314  0.3660
 8171SOL     OW25211   7.813   3.451   5.961  0.1535 -0.0157  0.6399
 8171SOL    HW125212   7.731   3.417   5.997  0.1219 -0.0274  0.5584
 8171SOL    HW225213   7.815   3.418   5.871  0.0936  0.2439  0.5419
 8172SOL     OW25214   1.745   2.630   2.391  0.0901 -0.4458  0.1970
 8172SOL    HW125215   1.748   2.637   2.296  1.3708  1.1127  0.3015
 8172SOL    HW225216   1.829   2.592   2.415 -0.3417 -1.1075  0.7048
 8173SOL     OW25217   4.153   5.366   0.663  0.2751 -0.4990  0.1277
 8173SOL    HW125218   4.190   5.390   0.749  2.3903 -0.6541 -0.6750
 8173SOL    HW225219   4.187   5.432   0.603  1.5144 -2.1770 -1.1264
 8174SOL     OW25220   5.394   4.191   0.186  0.5162 -0.0426 -0.5728
 8174SOL    HW125221   5.452   4.160   0.256 -0.8672 -0.4349  0.4584
 8174SOL    HW225222   5.367   4.111   0.140 -1.9847 -0.3717  1.2341
 8175SOL     OW25223   5.728   7.596   3.278 -0.5666  0.0500  0.0731
 8175SOL    HW125224   5.784   7.563   3.207  1.6304  0.6526  1.4482
 8175SOL    HW225225   5.759   7.551   3.356 -1.4639  1.0350  1.0314
 8176SOL     OW25226   6.178   1.963   3.926 -0.5535 -0.3197  0.5513
 8176SOL    HW125227   6.208   2.029   3.988  0.1941 -0.6749  0.5824
 8176SOL    HW225228   6.107   1.918   3.971 -2.2182  1.5299 -0.1000
 8177SOL     OW25229   3.077   3.965   0.348  0.0615 -0.0606  0.1152
 8177SOL    HW125230   3.024   3.914   0.409  0.5486  0.8280  1.3358
 8177SOL    HW225231   3.086   4.050   0.391  1.0099  0.3615 -0.8894
 8178SOL     OW25232   6.517   7.612   4.230 -0.2453  0.3165  0.0165
 8178SOL    HW125233   6.586   7.656   4.280 -0.2238 -0.0712  0.3227
 8178SOL    HW225234   6.524   7.652   4.142  0.0449  0.6300  0.1764
 8179SOL     OW25235   2.178   4.139   4.194 -0.3141 -0.0366  0.1869
 8179SOL    HW125236   2.084   4.155   4.186 -0.1313  0.2644 -1.8695
 8179SOL    HW225237   2.219   4.220   4.165  0.5554 -1.1415 -1.9083
 8180SOL     OW25238   1.960   5.004   3.425  0.6334  0.0146  0.0825
 8180SOL    HW125239   1.948   4.978   3.516 -1.6737 -0.8635 -0.4041
 8180SOL    HW225240   2.021   4.940   3.389 -0.0551 -0.8999  0.5080
 8181SOL     OW25241   4.008   2.554   6.216 -0.0112 -0.1767 -0.2252
 8181SOL    HW125242   3.921   2.544   6.255  0.5279 -0.1294  1.0502
 8181SOL    HW225243   3.991   2.570   6.124 -1.4724  1.9052  0.3170
 8182SOL     OW25244   1.364   3.692   3.860 -0.3612 -0.2786 -0.1189
 8182SOL    HW125245   1.447   3.706   3.815  0.0611 -0.9646  0.4302
 8182SOL    HW225246   1.344   3.599   3.847 -0.8421 -0.2089  0.0857
 8183SOL     OW25247   4.810   1.045   0.282  0.0085  0.1585 -0.1325
 8183SOL    HW125248   4.805   1.120   0.340 -1.3136  1.4981 -1.8913
 8183SOL    HW225249   4.722   1.036   0.246  0.1079 -2.2974  0.0597
 8184SOL     OW25250   2.136   4.970   6.320  0.0023 -0.6054 -0.3182
 8184SOL    HW125251   2.137   5.043   6.259 -1.3111 -0.6523 -0.4071
 8184SOL    HW225252   2.167   5.008   6.403  0.7400 -0.2979 -0.7280
 8185SOL     OW25253   5.464   4.511   4.249 -0.0170 -0.0293  0.0537
 8185SOL    HW125254   5.468   4.593   4.299  1.5548  0.4701 -0.8440
 8185SOL    HW225255   5.543   4.463   4.274 -0.5438 -0.9527  0.0054
 8186SOL     OW25256   6.628   7.846   3.404  0.8740  0.5299 -0.3942
 8186SOL    HW125257   6.614   7.770   3.460  0.8841  0.7377 -0.1072
 8186SOL    HW225258   6.721   7.867   3.413  0.6732  1.1809  0.3159
 8187SOL     OW25259   5.167   5.921   0.416  0.4382 -0.2234  0.0411
 8187SOL    HW125260   5.088   5.888   0.458  1.2908  0.1210  2.0650
 8187SOL    HW225261   5.140   6.001   0.371 -0.1822  0.5300  1.6754
 8188SOL     OW25262   6.299   7.417   3.384  0.0610  0.2832  0.0268
 8188SOL    HW125263   6.257   7.502   3.374 -0.9204 -0.0883  0.8282
 8188SOL    HW225264   6.269   7.366   3.310  0.2666  0.4778 -0.1925
 8189SOL     OW25265   5.891   7.613   1.183  0.2423 -0.1692 -0.6454
 8189SOL    HW125266   5.835   7.541   1.212  0.2004  0.2031  0.2118
 8189SOL    HW225267   5.899   7.670   1.259  1.3092  0.0883 -0.9382
 8190SOL     OW25268   7.736   2.647   0.267  0.2333  0.1920 -0.2694
 8190SOL    HW125269   7.788   2.649   0.348 -0.3747 -0.5065  0.1476
 8190SOL    HW225270   7.780   2.583   0.212 -1.2409 -1.8758  0.8432
 8191SOL     OW25271   7.874   4.378   3.047 -0.2687  0.4113  0.0629
 8191SOL    HW125272   7.825   4.313   3.099  0.7228 -0.2499  0.2014
 8191SOL    HW225273   7.899   4.331   2.968  2.5620 -0.2065  1.2225
 8192SOL     OW25274   4.865   1.521   7.723  0.1164  0.0735 -0.3658
 8192SOL    HW125275   4.821   1.441   7.755  1.0996 -0.7130 -0.9208
 8192SOL    HW225276   4.810   1.551   7.651  0.1648 -0.5657 -0.6769
 8193SOL     OW25277   7.317   5.812   3.978  0.5827  0.2577  0.7502
 8193SOL    HW125278   7.317   5.843   4.069  0.4088  1.7067  0.2652
 8193SOL    HW225279   7.381   5.867   3.933  0.7358 -0.5106 -0.0046
 8194SOL     OW25280   2.456   7.860   5.876  0.1073 -0.5844 -0.1025
 8194SOL    HW125281   2.434   7.780   5.923 -0.2790  0.4534  1.5895
 8194SOL    HW225282   2.382   7.874   5.817 -0.4963 -0.7662  0.5952
 8195SOL     OW25283   4.682   7.802   4.076  0.1889  0.2571  0.0861
 8195SOL    HW125284   4.700   7.866   4.144 -0.3780 -0.3333  0.8052
 8195SOL    HW225285   4.743   7.730   4.093  2.4641  1.4959 -2.0788
 8196SOL     OW25286   4.505   5.221   5.729 -0.2639 -0.2797 -0.0118
 8196SOL    HW125287   4.575   5.194   5.670 -0.5395 -1.1000  0.0182
 8196SOL    HW225288   4.468   5.139   5.761 -2.1204  0.0975 -1.0592
 8197SOL     OW25289   5.066   1.121   6.648 -0.0958 -0.1083 -0.0779
 8197SOL    HW125290   5.152   1.081   6.636  0.8681  1.5896  0.8227
 8197SOL    HW225291   5.008   1.068   6.594  1.4571 -1.4525 -0.5237
 8198SOL     OW25292   6.979   2.255   0.978  0.2764  0.0322 -0.3282
 8198SOL    HW125293   6.912   2.287   1.038  0.2477 -0.4669 -0.0859
 8198SOL    HW225294   7.057   2.247   1.032  0.1987 -0.6127 -0.3005
 8199SOL     OW25295   4.813   7.622   2.961 -0.3352  0.5409  0.4155
 8199SOL    HW125296   4.897   7.614   2.916  0.0056 -3.0016  1.4087
 8199SOL    HW225297   4.836   7.631   3.053 -1.0502  1.2765  0.5291
 8200SOL     OW25298   5.297   1.300   5.189 -0.6505  0.6278  0.1536
 8200SOL    HW125299   5.328   1.219   5.230 -0.4731  0.8301  0.4220
 8200SOL    HW225300   5.233   1.271   5.124  0.0584  0.2142 -0.3641
 8201SOL     OW25301   4.617   6.939   0.892 -0.2749 -0.2454  0.4188
 8201SOL    HW125302   4.698   6.953   0.843  0.3802 -0.6538  1.3611
 8201SOL    HW225303   4.560   6.892   0.831  0.1195  0.2180 -0.3179
 8202SOL     OW25304   7.023   3.976   0.649  0.1259  0.2562 -0.2721
 8202SOL    HW125305   7.026   3.933   0.734 -1.3058 -1.1220 -0.8764
 8202SOL    HW225306   6.930   3.990   0.632  0.3777  0.3279 -1.7001
 8203SOL     OW25307   2.988   4.816   1.888 -0.2372 -0.4232 -0.8077
 8203SOL    HW125308   3.007   4.726   1.862 -1.6207 -0.8496 -0.4745
 8203SOL    HW225309   3.070   4.850   1.922  0.0749 -1.8999 -0.0206
 8204SOL     OW25310   2.693   4.698   0.119 -0.2443  0.0716  0.1421
 8204SOL    HW125311   2.770   4.705   0.062 -0.1684  1.7204  0.4082
 8204SOL    HW225312   2.709   4.619   0.171  1.9494  1.0541  1.1059
 8205SOL     OW25313   1.759   4.780   5.727  0.0736  0.1102  0.3812
 8205SOL    HW125314   1.771   4.838   5.802  2.1577  1.3872 -0.8451
 8205SOL    HW225315   1.794   4.829   5.653 -2.2476 -0.9364 -1.5603
 8206SOL     OW25316   0.237   2.971   5.136 -0.0260  0.5067 -0.2461
 8206SOL    HW125317   0.284   2.906   5.084 -0.8897  0.9251 -1.6080
 8206SOL    HW225318   0.266   2.955   5.226 -1.3913 -2.8503 -0.2414
 8207SOL     OW25319   1.631   3.705   5.224 -0.1574  0.1376  0.3020
 8207SOL    HW125320   1.724   3.683   5.228 -0.2627 -0.5406 -0.6214
 8207SOL    HW225321   1.587   3.624   5.252 -0.4589  0.9878  2.4686
 8208SOL     OW25322   1.205   0.297   4.264  0.2463 -0.1608 -0.4824
 8208SOL    HW125323   1.295   0.305   4.232  0.7371 -1.4938  0.4820
 8208SOL    HW225324   1.152   0.288   4.184  1.1885 -1.1789 -1.0195
 8209SOL     OW25325   4.512   3.885   3.124  0.3214 -0.2418  0.1566
 8209SOL    HW125326   4.456   3.953   3.087  0.8598  0.8402  1.2662
 8209SOL    HW225327   4.576   3.865   3.054  0.5246  0.8206  0.0321
 8210SOL     OW25328   1.309   3.352   7.522 -0.5892  0.7005  0.5657
 8210SOL    HW125329   1.331   3.333   7.431 -1.1698  0.9882  0.3610
 8210SOL    HW225330   1.356   3.433   7.542  0.8933 -0.2141  1.0607
 8211SOL     OW25331   3.454   5.005   7.173  0.4383  0.2739 -0.2360
 8211SOL    HW125332   3.373   5.056   7.173 -0.6533 -1.4005 -1.2619
 8211SOL    HW225333   3.442   4.941   7.104  1.5938 -1.6792  1.2877
 8212SOL     OW25334   5.956   4.954   0.812  0.5100  0.1158  0.3830
 8212SOL    HW125335   5.909   4.925   0.889  1.0533  0.4323  0.8390
 8212SOL    HW225336   5.889   4.956   0.743  0.3196 -1.5460  0.4784
 8213SOL     OW25337   6.685   6.152   1.145  0.3365 -0.0373 -0.2791
 8213SOL    HW125338   6.603   6.103   1.155  0.8135 -1.0904 -1.2272
 8213SOL    HW225339   6.721   6.157   1.233  0.2598 -1.4288 -0.1469
 8214SOL     OW25340   3.902   2.043   0.638  0.6903 -0.4964 -0.2446
 8214SOL    HW125341   3.995   2.055   0.618  0.7625 -0.5163  0.0740
 8214SOL    HW225342   3.859   2.041   0.552  0.9745 -0.4148 -0.3902
 8215SOL     OW25343   2.905   5.629   3.012 -0.1460  0.3043 -0.6064
 8215SOL    HW125344   2.861   5.551   2.979  0.9125 -0.6589  0.1411
 8215SOL    HW225345   2.984   5.637   2.958  0.1247  0.4115 -0.2050
 8216SOL     OW25346   6.042   7.833   7.754  0.2687 -0.2500 -0.8649
 8216SOL    HW125347   6.014   7.745   7.728  0.3975 -0.1565 -1.3152
 8216SOL    HW225348   6.130   7.843   7.718  1.1413 -0.7435  1.0028
 8217SOL     OW25349   3.668   6.491   1.075  0.0048  0.0658 -0.9629
 8217SOL    HW125350   3.575   6.477   1.056 -0.1103 -0.1678 -0.2719
 8217SOL    HW225351   3.679   6.457   1.164  0.3310  1.8591 -0.2837
 8218SOL     OW25352   0.772   0.053   0.263  0.2587 -0.0573  0.0588
 8218SOL    HW125353   0.837  -0.013   0.239 -0.0974  0.0270 -1.2339
 8218SOL    HW225354   0.688   0.015   0.237  0.0949  1.0712 -1.1632
 8219SOL     OW25355   1.786   4.192   4.453  0.0045 -0.4401  0.5964
 8219SOL    HW125356   1.829   4.175   4.370 -0.4938 -2.6699  0.7298
 8219SOL    HW225357   1.702   4.232   4.429  1.1476  1.9317  0.2481
 8220SOL     OW25358   7.771   2.064   0.694 -0.1251 -0.0523  0.1331
 8220SOL    HW125359   7.729   1.978   0.697 -0.5527  0.0467 -1.7109
 8220SOL    HW225360   7.721   2.113   0.629  1.6508  0.7216 -0.7358
 8221SOL     OW25361   4.599   1.441   1.960 -0.1316  0.1573 -0.0868
 8221SOL    HW125362   4.588   1.370   2.024 -1.3361 -1.9269 -2.4024
 8221SOL    HW225363   4.676   1.414   1.909  0.0988  1.1478 -0.2690
 8222SOL     OW25364   7.465   7.611   7.250  0.1411  0.2911 -0.9545
 8222SOL    HW125365   7.378   7.624   7.287  0.8948 -1.5909  1.7518
 8222SOL    HW225366   7.448   7.572   7.164 -1.7068 -0.5193 -0.2860
 8223SOL     OW25367   5.767   0.820   5.461 -0.1327  0.2069  0.1919
 8223SOL    HW125368   5.681   0.804   5.498  0.0360  0.9698  0.9746
 8223SOL    HW225369   5.774   0.916   5.458  1.4997  0.2223  2.2226
 8224SOL     OW25370   4.466   6.248   1.233  0.1136 -0.5357 -0.1598
 8224SOL    HW125371   4.399   6.216   1.172 -1.4846  0.6929  0.8777
 8224SOL    HW225372   4.518   6.309   1.181 -0.3166 -0.6033 -0.6826
 8225SOL     OW25373   2.213   7.976   7.134  0.1128 -0.6396 -0.2301
 8225SOL    HW125374   2.305   7.958   7.111 -0.1985 -1.5511 -0.8176
 8225SOL    HW225375   2.214   8.068   7.163  0.7838  0.2467 -2.7579
 8226SOL     OW25376   7.644   6.963   4.447 -0.4201 -0.0557  0.2365
 8226SOL    HW125377   7.637   7.006   4.362 -1.8954 -0.0781  0.3162
 8226SOL    HW225378   7.730   6.922   4.446  1.0517  2.8360  0.1550
 8227SOL     OW25379   3.826   1.690   6.559  0.2840 -0.4191 -0.0086
 8227SOL    HW125380   3.894   1.629   6.528 -0.7764 -1.2530 -0.7768
 8227SOL    HW225381   3.804   1.658   6.646  0.3304 -0.6152 -0.0671
 8228SOL     OW25382   5.483   3.905   1.934  0.4671  0.3213  0.0895
 8228SOL    HW125383   5.472   3.967   1.862  3.4665  1.9061  0.8229
 8228SOL    HW225384   5.572   3.871   1.924  0.1247 -1.2419  1.7111
 8229SOL     OW25385   6.862   3.108   2.564  0.2950 -0.1475  0.5593
 8229SOL    HW125386   6.840   3.022   2.529 -2.8121  0.1630  1.4315
 8229SOL    HW225387   6.890   3.091   2.654 -0.9285 -0.2506  0.9399
 8230SOL     OW25388   7.222   4.981   2.142 -0.3545 -0.3336  0.0012
 8230SOL    HW125389   7.231   5.072   2.168  1.5706 -1.0784  2.3890
 8230SOL    HW225390   7.274   4.973   2.063 -0.3143  0.5765 -0.0735
 8231SOL     OW25391   1.540   7.603   1.946 -0.1857 -0.0351 -0.0521
 8231SOL    HW125392   1.560   7.691   1.914  0.9718  0.1148  1.0115
 8231SOL    HW225393   1.580   7.544   1.882  1.2872  0.2485  0.5724
 8232SOL     OW25394   7.651   5.247   0.841 -0.0906  0.0824  0.0914
 8232SOL    HW125395   7.681   5.331   0.877  0.7301  0.4847 -1.4543
 8232SOL    HW225396   7.687   5.182   0.901 -0.1836  0.7861  0.9423
 8233SOL     OW25397   0.913   1.923   4.439 -0.1423  0.0294  0.0862
 8233SOL    HW125398   0.949   1.924   4.527 -0.5369  1.9827  0.2515
 8233SOL    HW225399   0.864   1.841   4.434  0.4533 -0.4283  1.4287
 8234SOL     OW25400   3.438   6.429   7.857 -0.2144 -0.3478  0.1182
 8234SOL    HW125401   3.402   6.518   7.860  2.5809  0.8507  2.6211
 8234SOL    HW225402   3.506   6.432   7.791 -1.7725 -1.4576 -1.6424
 8235SOL     OW25403   0.968   0.197   1.552  0.2001 -0.2691 -0.1864
 8235SOL    HW125404   0.893   0.239   1.510  0.2724  0.8474  0.7609
 8235SOL    HW225405   0.954   0.103   1.538 -0.1906  0.0197 -1.9810
 8236SOL     OW25406   1.915   5.957   5.561 -0.3138 -0.1483  0.0001
 8236SOL    HW125407   1.843   5.909   5.520 -0.6533  0.6098 -0.3234
 8236SOL    HW225408   1.874   6.003   5.634 -0.2323  0.5590 -0.3951
 8237SOL     OW25409   0.222   2.917   3.013 -0.3731 -0.0397 -0.3769
 8237SOL    HW125410   0.301   2.956   2.976  0.3562 -0.5413  0.5839
 8237SOL    HW225411   0.155   2.985   3.005  0.6352  1.0971  0.4616
 8238SOL     OW25412   3.235   0.915   5.967  0.6736  0.2300  0.0277
 8238SOL    HW125413   3.287   0.884   6.041 -1.0641 -0.5108  0.9996
 8238SOL    HW225414   3.186   0.838   5.938  1.4060  0.4662 -2.0338
 8239SOL     OW25415   0.188   1.264   4.789  0.5266  0.0572  0.5057
 8239SOL    HW125416   0.261   1.227   4.740  0.1691  0.7996 -0.6318
 8239SOL    HW225417   0.133   1.188   4.810  0.9594 -0.3399  0.2289
 8240SOL     OW25418   5.531   6.697   4.161  0.2084 -0.0733  0.0407
 8240SOL    HW125419   5.530   6.619   4.217  0.1008 -0.0420  0.0829
 8240SOL    HW225420   5.608   6.685   4.105  1.3354  0.7236  1.3588
 8241SOL     OW25421   7.311   1.322   0.970  0.1127  1.2551  0.4042
 8241SOL    HW125422   7.325   1.317   1.064 -0.8705  1.5797  0.5867
 8241SOL    HW225423   7.222   1.358   0.961 -0.0545  0.6401 -0.6313
 8242SOL     OW25424   1.856   6.546   7.372 -0.0610  0.2725 -0.0668
 8242SOL    HW125425   1.820   6.536   7.460 -0.4038 -0.7599 -0.3010
 8242SOL    HW225426   1.799   6.610   7.330  0.4981  1.2664  0.6536
 8243SOL     OW25427   3.552   2.035   6.196  0.1709  0.3049 -0.1445
 8243SOL    HW125428   3.505   2.081   6.126  0.4105  0.1693 -0.3944
 8243SOL    HW225429   3.505   1.952   6.206  0.8502 -0.1865 -0.9605
 8244SOL     OW25430   0.939   1.294   5.277  0.1512  0.8916  0.8081
 8244SOL    HW125431   0.980   1.315   5.193 -1.0246  1.9767  0.4673
 8244SOL    HW225432   0.855   1.255   5.254 -0.7697  2.4130  1.4410
 8245SOL     OW25433   1.544   1.621   2.805  0.6205  0.1779 -0.7718
 8245SOL    HW125434   1.482   1.583   2.742 -0.6074 -0.5159  0.7659
 8245SOL    HW225435   1.598   1.681   2.754 -0.7345  0.1053 -2.3543
 8246SOL     OW25436   0.372   7.920   0.502 -0.4694  0.8163 -0.1625
 8246SOL    HW125437   0.390   7.872   0.421  1.4715  0.0629  0.6552
 8246SOL    HW225438   0.424   7.876   0.569 -1.8996  1.5125  1.5037
 8247SOL     OW25439   1.879   4.698   3.146  0.2675  0.0319 -0.0371
 8247SOL    HW125440   1.896   4.644   3.070  2.0722  0.4999  0.0020
 8247SOL    HW225441   1.924   4.654   3.218 -1.0607 -0.1811  0.6972
 8248SOL     OW25442   2.900   1.573   5.718  0.1950  0.1274  0.5843
 8248SOL    HW125443   2.956   1.511   5.765  0.8278 -0.4597 -0.8769
 8248SOL    HW225444   2.914   1.553   5.625 -0.1752  1.9588  0.0871
 8249SOL     OW25445   7.276   2.359   3.371 -0.2754 -0.2684  0.4111
 8249SOL    HW125446   7.256   2.344   3.464 -0.9582  0.9903  0.4942
 8249SOL    HW225447   7.285   2.454   3.364 -2.2977 -0.1163 -1.1766
 8250SOL     OW25448   2.161   6.805   5.558 -0.0960  0.4918  0.3322
 8250SOL    HW125449   2.149   6.888   5.604 -0.9435  1.7356 -1.9694
 8250SOL    HW225450   2.225   6.824   5.489  0.3424 -0.9937  0.2942
 8251SOL     OW25451   5.090   5.546   6.164 -0.2551  0.0289 -0.4351
 8251SOL    HW125452   5.177   5.560   6.200 -0.2109 -0.6520 -0.2542
 8251SOL    HW225453   5.074   5.621   6.107  0.1072  0.5800  0.1808
 8252SOL     OW25454   4.629   3.032   5.331  0.2679  0.0802 -0.0385
 8252SOL    HW125455   4.690   3.098   5.298  2.0682 -0.6722  1.6379
 8252SOL    HW225456   4.667   3.002   5.413 -1.3900 -1.8298  0.1148
 8253SOL     OW25457   6.725   6.886   3.675 -0.1795  0.3020  0.3789
 8253SOL    HW125458   6.664   6.931   3.732  0.4279 -0.0619  1.3363
 8253SOL    HW225459   6.733   6.798   3.712 -0.6661 -0.3294 -0.9455
 8254SOL     OW25460   1.456   7.619   4.241  0.2176 -0.3577  0.0302
 8254SOL    HW125461   1.360   7.621   4.232  0.3563  0.3672 -2.0302
 8254SOL    HW225462   1.481   7.532   4.211  0.2420 -0.2154 -0.3781
 8255SOL     OW25463   4.292   0.386   3.942 -0.1858 -0.0863  0.4976
 8255SOL    HW125464   4.254   0.351   3.862 -1.6207  0.0595  1.0775
 8255SOL    HW225465   4.247   0.338   4.012 -0.4941  1.2621  1.2472
 8256SOL     OW25466   1.601   6.709   0.210  0.3297 -0.5868 -0.5976
 8256SOL    HW125467   1.580   6.655   0.286  0.3405 -0.0049 -0.1696
 8256SOL    HW225468   1.564   6.795   0.231  2.0849  0.1550 -0.3448
 8257SOL     OW25469   7.123   1.201   0.551 -0.1688  0.7547 -0.4142
 8257SOL    HW125470   7.175   1.158   0.619  0.6432  1.6145 -0.4816
 8257SOL    HW225471   7.187   1.233   0.487 -0.8333  1.0748 -0.9358
 8258SOL     OW25472   7.732   7.092   1.535  0.5782  0.0580  0.2475
 8258SOL    HW125473   7.658   7.062   1.588 -1.0702  0.0601 -1.9068
 8258SOL    HW225474   7.726   7.187   1.537 -0.3350  0.0533 -0.9700
 8259SOL     OW25475   0.868   7.677   7.836 -0.3007 -0.1799  0.4809
 8259SOL    HW125476   0.945   7.621   7.821  1.1545  1.7597  0.3243
 8259SOL    HW225477   0.852   7.719   7.751 -0.6454  0.5106  0.8770
 8260SOL     OW25478   0.660   0.821   0.561  0.3081  0.6972 -0.0427
 8260SOL    HW125479   0.625   0.780   0.481 -0.0436 -0.5663  0.7372
 8260SOL    HW225480   0.625   0.910   0.559 -1.2439  0.1088 -0.3470
 8261SOL     OW25481   6.020   1.442   4.207 -0.2997 -0.3269 -0.1914
 8261SOL    HW125482   6.113   1.430   4.227  0.0884 -0.8836 -2.1111
 8261SOL    HW225483   5.979   1.459   4.291  1.6530  0.6262  0.6255
 8262SOL     OW25484   7.646   3.965   7.904  0.1814  0.1838 -0.7179
 8262SOL    HW125485   7.720   3.908   7.926  0.1144 -0.3452 -1.7686
 8262SOL    HW225486   7.682   4.026   7.839 -1.1574 -2.7541 -4.6579
 8263SOL     OW25487   1.399   1.014   2.823  0.1591  0.4019 -0.1894
 8263SOL    HW125488   1.327   0.952   2.834 -0.3802  0.9333 -0.6437
 8263SOL    HW225489   1.476   0.968   2.858  0.1629 -1.3034 -2.2093
 8264SOL     OW25490   0.968   4.709   5.174 -0.1694  0.9984 -0.3774
 8264SOL    HW125491   0.984   4.716   5.080 -0.9383 -0.7150 -0.6845
 8264SOL    HW225492   0.994   4.620   5.196 -4.9055 -0.6406 -0.1164
 8265SOL     OW25493   7.832   3.779   3.086  0.3204  0.1694  0.4328
 8265SOL    HW125494   7.751   3.744   3.049 -0.5813  2.6987 -0.1863
 8265SOL    HW225495   7.891   3.787   3.012  1.2070 -1.7103  0.8915
 8266SOL     OW25496   6.754   2.945   1.050 -0.4078 -0.2526  0.1930
 8266SOL    HW125497   6.687   2.881   1.075 -0.1078 -0.6129  0.0769
 8266SOL    HW225498   6.804   2.901   0.981  0.1158 -0.0864  0.4676
 8267SOL     OW25499   2.924   3.465   5.844  0.0571  0.2344 -0.4347
 8267SOL    HW125500   2.903   3.426   5.759  0.1998 -0.2730 -0.2406
 8267SOL    HW225501   2.839   3.482   5.885 -0.0087  0.3767 -0.6300
 8268SOL     OW25502   1.868   1.468   7.696  0.6123  0.0589  0.5777
 8268SOL    HW125503   1.858   1.563   7.697  0.6106  0.0641  0.1597
 8268SOL    HW225504   1.961   1.454   7.678  0.4300 -0.0220 -0.3408
 8269SOL     OW25505   2.671   0.466   2.779 -0.3086  0.1878  0.3211
 8269SOL    HW125506   2.690   0.416   2.859 -0.4146 -0.3935 -0.0137
 8269SOL    HW225507   2.598   0.522   2.804  0.8078  1.3248  1.1604
 8270SOL     OW25508   1.963   0.485   3.100 -0.6858 -0.4321  0.3347
 8270SOL    HW125509   1.916   0.557   3.060  0.2188 -0.2933 -0.5077
 8270SOL    HW225510   2.049   0.521   3.120 -1.1081 -0.4768  2.4783
 8271SOL     OW25511   0.903   1.946   1.921  0.0688  0.3128 -0.2115
 8271SOL    HW125512   0.944   1.883   1.862 -0.7146 -0.1254 -0.2877
 8271SOL    HW225513   0.870   1.894   1.994 -0.3638  0.6615 -0.1545
 8272SOL     OW25514   7.019   0.729   1.345 -0.2847 -0.2709 -0.7532
 8272SOL    HW125515   7.031   0.746   1.252  2.1171 -0.5115 -0.5554
 8272SOL    HW225516   7.039   0.636   1.355  2.1778  0.2829  0.3007
 8273SOL     OW25517   1.176   3.164   1.624  0.1711 -0.0284  0.2752
 8273SOL    HW125518   1.219   3.102   1.682  0.6559  1.2105  1.3102
 8273SOL    HW225519   1.088   3.175   1.662 -0.2744 -0.8074 -0.4886
 8274SOL     OW25520   1.515   5.328   5.832  0.1139  0.5362 -0.1118
 8274SOL    HW125521   1.436   5.364   5.872 -0.5286  0.0440 -0.8915
 8274SOL    HW225522   1.586   5.383   5.863 -0.6931  1.7418 -0.3526
 8275SOL     OW25523   4.837   5.876   6.764 -0.0971 -0.0975  0.0169
 8275SOL    HW125524   4.915   5.830   6.795 -1.1117 -1.6113  0.3839
 8275SOL    HW225525   4.843   5.963   6.805  1.3652 -0.1778  0.0471
 8276SOL     OW25526   2.469   0.776   6.476  0.2744  0.0744 -0.2972
 8276SOL    HW125527   2.441   0.786   6.385  0.4512 -1.1888 -0.5113
 8276SOL    HW225528   2.426   0.847   6.523  0.0493  0.6365 -1.3404
 8277SOL     OW25529   3.371   7.433   7.935  0.4416  0.8638  0.5425
 8277SOL    HW125530   3.296   7.422   7.994 -2.2791 -1.3953 -2.8770
 8277SOL    HW225531   3.409   7.345   7.929  2.4753  1.6693  1.0344
 8278SOL     OW25532   2.907   5.913   1.586 -0.2714 -0.6898 -0.1373
 8278SOL    HW125533   2.960   5.853   1.638  0.4430 -1.7467 -1.9972
 8278SOL    HW225534   2.970   5.959   1.531 -1.1124 -0.9384 -1.3587
 8279SOL     OW25535   7.021   3.758   0.433 -0.7015  0.5415 -0.2537
 8279SOL    HW125536   7.024   3.675   0.481  3.5313 -0.6790 -2.1298
 8279SOL    HW225537   6.998   3.823   0.499 -3.6566 -1.9181  1.4181
 8280SOL     OW25538   6.928   5.938   5.701 -0.3283  0.3035 -0.1076
 8280SOL    HW125539   6.970   5.911   5.619  1.9734  0.1152  1.0364
 8280SOL    HW225540   6.860   5.872   5.716 -1.2461  0.7337 -2.1686
 8281SOL     OW25541   5.818   5.411   5.684 -0.5042  0.0722 -1.1087
 8281SOL    HW125542   5.798   5.486   5.741 -1.3170 -0.3850 -0.7687
 8281SOL    HW225543   5.822   5.336   5.744  2.0391  0.0689 -1.1988
 8282SOL     OW25544   0.869   7.594   4.968 -0.2856 -0.2483  0.0224
 8282SOL    HW125545   0.935   7.575   4.901  0.3836 -2.1784  1.1633
 8282SOL    HW225546   0.907   7.665   5.020  1.5338 -2.1324  1.4194
 8283SOL     OW25547   3.863   6.896   6.922 -0.5669  0.1616  0.1464
 8283SOL    HW125548   3.919   6.924   6.994 -0.2659  0.7107 -0.2897
 8283SOL    HW225549   3.774   6.899   6.959 -0.4166  0.4265  0.4997
 8284SOL     OW25550   5.353   3.892   2.550 -0.0894 -0.0293  0.2755
 8284SOL    HW125551   5.365   3.959   2.617  1.0464 -0.4367  0.4940
 8284SOL    HW225552   5.435   3.892   2.500 -0.8675  0.1911 -1.0612
 8285SOL     OW25553   7.006   6.275   6.103 -0.1383 -0.2517  0.6961
 8285SOL    HW125554   6.977   6.197   6.055 -0.2424  0.5960 -0.6771
 8285SOL    HW225555   6.983   6.257   6.194 -2.2343 -0.8921  0.0946
 8286SOL     OW25556   3.251   1.304   4.724 -0.4593 -0.4927  0.0153
 8286SOL    HW125557   3.211   1.248   4.657  1.4047 -1.0686 -0.6627
 8286SOL    HW225558   3.338   1.267   4.737 -0.8869 -0.6532  3.1014
 8287SOL     OW25559   7.697   3.183   3.386  0.2147  0.1091  0.3291
 8287SOL    HW125560   7.769   3.142   3.432 -0.0473 -0.8821 -0.1143
 8287SOL    HW225561   7.739   3.238   3.320  0.5930 -1.3779 -0.7219
 8288SOL     OW25562   7.504   0.907   6.516 -1.0043  0.1207  0.2900
 8288SOL    HW125563   7.471   0.940   6.432 -1.5196  0.1192  0.4826
 8288SOL    HW225564   7.480   0.814   6.517  1.0015 -0.4464 -0.5195
 8289SOL     OW25565   4.369   7.937   6.298  0.0883 -0.0038  0.1342
 8289SOL    HW125566   4.417   7.855   6.312 -1.0321 -0.1575  5.1053
 8289SOL    HW225567   4.437   8.005   6.299  0.7200 -0.6249  0.4529
 8290SOL     OW25568   2.230   5.850   6.681  0.1770 -0.0592 -0.6284
 8290SOL    HW125569   2.230   5.920   6.616 -2.3340 -0.1712 -0.8218
 8290SOL    HW225570   2.248   5.894   6.764 -2.7019  1.1509 -0.5306
 8291SOL     OW25571   0.175   3.299   7.886 -0.1731  0.4014 -0.1095
 8291SOL    HW125572   0.182   3.357   7.810  0.0309 -1.3189 -1.4443
 8291SOL    HW225573   0.155   3.213   7.849 -4.1421  0.2013  1.9789
 8292SOL     OW25574   1.440   6.098   7.100 -0.5848 -0.2955  0.0264
 8292SOL    HW125575   1.388   6.110   7.179  0.7838  0.3995  0.8575
 8292SOL    HW225576   1.454   6.186   7.066 -1.4997 -0.6178 -1.2408
 8293SOL     OW25577   0.355   5.596   0.482  0.2500 -0.0914 -0.4393
 8293SOL    HW125578   0.376   5.585   0.574 -1.9488 -1.9417 -0.0597
 8293SOL    HW225579   0.377   5.512   0.441 -0.9414 -0.1222 -1.0877
 8294SOL     OW25580   6.562   0.546   5.186  0.2254  0.6808  0.8053
 8294SOL    HW125581   6.475   0.549   5.147  0.0305  0.3963  1.2216
 8294SOL    HW225582   6.611   0.613   5.139  0.6036 -1.0455 -1.4456
 8295SOL     OW25583   1.402   6.362   6.966  0.5019  0.2710 -0.1579
 8295SOL    HW125584   1.480   6.404   7.001 -0.1363  0.0101  1.6918
 8295SOL    HW225585   1.432   6.318   6.886  1.8013  1.7499 -0.5335
 8296SOL     OW25586   3.920   0.773   6.219 -0.2247 -0.0444 -0.4125
 8296SOL    HW125587   3.964   0.855   6.196  0.4332 -0.1823  0.3140
 8296SOL    HW225588   3.966   0.742   6.297 -1.4660 -0.3362  0.2148
 8297SOL     OW25589   6.658   3.497   6.345 -0.6366 -0.0900 -0.1980
 8297SOL    HW125590   6.697   3.577   6.381 -1.0581  0.1309 -0.2231
 8297SOL    HW225591   6.680   3.499   6.252  1.1288 -1.0545  0.1495
 8298SOL     OW25592   4.712   0.568   2.855  0.0671 -0.3302 -0.1527
 8298SOL    HW125593   4.718   0.663   2.863 -1.4522 -0.2034 -0.2476
 8298SOL    HW225594   4.776   0.545   2.788 -0.6242  0.8219 -1.2580
 8299SOL     OW25595   2.853   5.216   3.602  0.2425  0.3399  1.2047
 8299SOL    HW125596   2.830   5.262   3.521  0.1783 -1.3891  0.1695
 8299SOL    HW225597   2.921   5.270   3.642  0.0466  1.4125  0.1579
 8300SOL     OW25598   0.898   4.869   7.567  0.5913 -0.3853 -0.0651
 8300SOL    HW125599   0.831   4.920   7.613 -1.2071 -0.9716 -1.8513
 8300SOL    HW225600   0.859   4.782   7.557  0.8629 -0.3093 -2.5559
 8301SOL     OW25601   1.001   3.296   2.245  0.0761  0.4155  0.4918
 8301SOL    HW125602   0.951   3.246   2.309  0.2596 -0.3210  0.0723
 8301SOL    HW225603   0.954   3.283   2.163  1.1658 -0.6323  0.0041
 8302SOL     OW25604   4.073   6.242   4.289 -0.4123  0.5773 -0.4304
 8302SOL    HW125605   4.036   6.268   4.373 -1.7499  1.6900 -1.3206
 8302SOL    HW225606   4.024   6.293   4.224  1.7134  0.9961 -1.7911
 8303SOL     OW25607   5.709   6.774   2.016  0.3324 -0.1074 -0.5831
 8303SOL    HW125608   5.744   6.826   2.088  0.3313 -0.3254 -0.4272
 8303SOL    HW225609   5.759   6.692   2.019  0.5014 -0.0226 -0.9774
 8304SOL     OW25610   5.049   2.170   0.029 -0.8504  0.1360 -0.2816
 8304SOL    HW125611   5.075   2.198   0.116  1.3173 -0.0502 -0.8059
 8304SOL    HW225612   4.956   2.190   0.024 -0.9354  0.5218  1.9083
 8305SOL     OW25613   4.217   1.608   5.144 -0.8588 -0.3148  0.2844
 8305SOL    HW125614   4.125   1.632   5.146 -1.1794 -1.3581 -0.6124
 8305SOL    HW225615   4.219   1.526   5.093  0.5638 -0.2669  0.2224
 8306SOL     OW25616   1.807   6.458   6.837 -0.0488  0.3686 -0.0729
 8306SOL    HW125617   1.852   6.471   6.921  2.0605  0.3523 -1.1198
 8306SOL    HW225618   1.757   6.539   6.824 -1.7135 -0.2685  1.8955
 8307SOL     OW25619   3.461   6.016   1.472 -0.1665  0.1891 -0.3041
 8307SOL    HW125620   3.496   6.074   1.540 -2.1454  0.5711  0.4518
 8307SOL    HW225621   3.392   5.967   1.515  0.2433 -1.4606 -1.4241
 8308SOL     OW25622   7.228   6.990   3.272 -0.4410  0.4346  0.1814
 8308SOL    HW125623   7.158   7.016   3.331 -1.9075  0.1652 -1.3755
 8308SOL    HW225624   7.194   6.914   3.225  1.5138 -0.6947  0.4793
 8309SOL     OW25625   2.463   7.753   0.584  0.2062  0.8051  0.1355
 8309SOL    HW125626   2.380   7.736   0.628  0.7820 -1.2324  0.5507
 8309SOL    HW225627   2.527   7.760   0.655  0.4277  2.3587 -0.1767
 8310SOL     OW25628   2.580   5.038   7.801  0.2580  0.4827  0.0564
 8310SOL    HW125629   2.667   5.079   7.801  0.9198 -0.8523  0.1602
 8310SOL    HW225630   2.527   5.094   7.858  0.9903  1.4232 -0.1587
 8311SOL     OW25631   5.372   3.618   3.334 -0.0709 -0.2039 -0.3082
 8311SOL    HW125632   5.357   3.527   3.360  1.0282 -0.4962 -0.6520
 8311SOL    HW225633   5.357   3.668   3.415 -1.0387 -0.6307 -0.2025
 8312SOL     OW25634   0.439   7.866   6.085 -0.1252  0.4191  0.6238
 8312SOL    HW125635   0.502   7.906   6.025 -1.0659 -0.8257 -1.3200
 8312SOL    HW225636   0.358   7.861   6.034 -1.3771  0.5505  2.5053
 8313SOL     OW25637   3.004   3.557   4.185 -0.6279 -0.0287  0.3238
 8313SOL    HW125638   2.934   3.554   4.251 -0.3560 -1.5678  0.5940
 8313SOL    HW225639   2.973   3.499   4.115  0.3416 -0.6845  0.4239
 8314SOL     OW25640   6.442   3.224   1.411 -0.3030  0.3966 -0.2038
 8314SOL    HW125641   6.413   3.306   1.452  0.0441  1.2182 -1.5392
 8314SOL    HW225642   6.392   3.156   1.456  0.0014  1.2438  1.5238
 8315SOL     OW25643   6.665   3.802   2.055  0.1124 -0.0308 -1.1006
 8315SOL    HW125644   6.592   3.820   2.114  0.8673  0.2941 -0.2344
 8315SOL    HW225645   6.740   3.790   2.114  1.0835  1.2775 -2.0159
 8316SOL     OW25646   0.891   1.911   0.904  0.5640 -0.1812  0.3470
 8316SOL    HW125647   0.987   1.915   0.907  0.7038 -1.2293 -1.2658
 8316SOL    HW225648   0.867   1.974   0.836  0.1012  0.1372  0.8044
 8317SOL     OW25649   7.159   6.498   1.120 -0.1615  0.6075  0.0205
 8317SOL    HW125650   7.194   6.543   1.043 -0.7730 -0.9626 -1.2259
 8317SOL    HW225651   7.067   6.483   1.099 -0.1052 -0.7273  0.6340
 8318SOL     OW25652   3.570   0.299   3.237 -0.1578  0.1569  0.4515
 8318SOL    HW125653   3.491   0.247   3.250 -0.9735  1.8235  2.9643
 8318SOL    HW225654   3.638   0.235   3.214 -2.0646 -1.3690 -1.3318
 8319SOL     OW25655   2.199   6.477   1.235 -0.0277  0.6348 -0.1657
 8319SOL    HW125656   2.188   6.539   1.163 -0.8298 -0.7267 -1.2723
 8319SOL    HW225657   2.281   6.432   1.215 -0.6573 -0.3203 -0.7462
 8320SOL     OW25658   1.815   2.498   0.375  0.5665 -0.5494 -0.1484
 8320SOL    HW125659   1.858   2.580   0.351  1.3485 -0.8126  0.3263
 8320SOL    HW225660   1.722   2.514   0.359  0.7320  0.3761 -0.2179
 8321SOL     OW25661   0.505   5.650   7.787  0.6292  0.1437 -0.4789
 8321SOL    HW125662   0.486   5.739   7.757  0.8057  0.2411 -0.3019
 8321SOL    HW225663   0.463   5.644   7.873  0.0349 -0.1703 -0.7803
 8322SOL     OW25664   3.073   5.134   6.163  0.5248 -0.4114 -0.0896
 8322SOL    HW125665   3.160   5.124   6.201 -0.3413  0.1311  2.1809
 8322SOL    HW225666   3.012   5.119   6.236 -1.2041  2.7160 -0.7052
 8323SOL     OW25667   1.572   1.275   0.834 -0.1618 -0.0439 -0.4817
 8323SOL    HW125668   1.520   1.337   0.783  0.0768  1.2245  0.7843
 8323SOL    HW225669   1.660   1.313   0.836 -0.6075  1.0690  2.5848
 8324SOL     OW25670   3.746   3.645   2.328  0.5542 -0.1564 -0.3450
 8324SOL    HW125671   3.772   3.615   2.241 -0.3294 -1.7266 -0.1079
 8324SOL    HW225672   3.786   3.583   2.389  3.4512  2.4729  0.6498
 8325SOL     OW25673   6.455   4.465   7.108 -0.5872  0.1495 -0.3869
 8325SOL    HW125674   6.509   4.542   7.092  1.6716 -1.1757  0.4955
 8325SOL    HW225675   6.500   4.394   7.061 -2.3200 -0.7807 -0.7392
 8326SOL     OW25676   5.820   2.727   4.704 -0.3208 -0.2043 -0.0198
 8326SOL    HW125677   5.755   2.724   4.633  0.6388 -0.3135 -0.9116
 8326SOL    HW225678   5.845   2.820   4.709  0.3879 -0.3648 -0.5453
 8327SOL     OW25679   4.530   3.485   4.808 -0.0085 -0.0304 -0.8631
 8327SOL    HW125680   4.459   3.468   4.746 -0.5531 -0.4604 -0.1366
 8327SOL    HW225681   4.575   3.561   4.772 -0.1253 -0.4614 -1.9458
 8328SOL     OW25682   7.950   7.473   4.885  0.2399  0.3008 -0.1984
 8328SOL    HW125683   7.918   7.390   4.850  0.3569 -0.3814  1.2523
 8328SOL    HW225684   8.002   7.510   4.814 -0.7375 -0.3193 -1.2705
 8329SOL     OW25685   0.204   7.164   5.885 -0.5747  0.3169 -0.0497
 8329SOL    HW125686   0.197   7.247   5.838 -1.7667  0.2086 -0.0882
 8329SOL    HW225687   0.114   7.139   5.903 -0.2201 -0.8518  0.1832
 8330SOL     OW25688   3.039   5.847   3.343  0.5663 -0.2864  0.3871
 8330SOL    HW125689   2.965   5.836   3.284  0.1049  0.6044  0.7834
 8330SOL    HW225690   3.041   5.766   3.394  0.3462 -0.6383 -0.1554
 8331SOL     OW25691   7.962   0.359   2.218  0.1445  0.2352 -0.3656
 8331SOL    HW125692   8.038   0.342   2.274  0.8969  0.6141 -1.2449
 8331SOL    HW225693   7.926   0.442   2.251  1.1432  0.9437 -1.0129
 8332SOL     OW25694   5.402   1.344   0.150 -0.6423  0.6864 -0.3448
 8332SOL    HW125695   5.339   1.399   0.104  0.3425  0.8026 -1.5812
 8332SOL    HW225696   5.475   1.402   0.171  0.0104  0.0726 -0.8710
 8333SOL     OW25697   1.086   3.194   4.473  0.2841 -0.0102 -0.6859
 8333SOL    HW125698   1.107   3.273   4.522  1.3623 -0.0058 -1.1218
 8333SOL    HW225699   1.001   3.166   4.507  0.6656  0.4007  0.6427
 8334SOL     OW25700   3.236   6.784   3.432 -0.3759 -0.4200 -0.1736
 8334SOL    HW125701   3.198   6.708   3.476 -0.5104 -0.4221 -0.2947
 8334SOL    HW225702   3.232   6.854   3.497 -1.0813 -0.2779 -0.3700
 8335SOL     OW25703   7.522   3.948   1.155 -0.0224  0.3023 -0.4348
 8335SOL    HW125704   7.510   3.878   1.091  2.5162  0.5794 -1.3078
 8335SOL    HW225705   7.434   3.984   1.167 -1.0025 -1.4842 -1.7339
 8336SOL     OW25706   7.115   7.174   5.817 -0.0308 -0.1000 -0.4604
 8336SOL    HW125707   7.054   7.241   5.845  0.6486  0.6514 -0.7427
 8336SOL    HW225708   7.082   7.145   5.732 -0.2527 -0.0302 -0.3984
 8337SOL     OW25709   3.344   7.105   0.084  0.2955 -0.7010 -0.5867
 8337SOL    HW125710   3.290   7.182   0.104  0.0792 -1.1386  0.5593
 8337SOL    HW225711   3.284   7.043   0.043  0.6463  0.0319 -2.2815
 8338SOL     OW25712   5.837   5.159   4.326  0.3348 -0.6087  0.3385
 8338SOL    HW125713   5.824   5.081   4.379 -1.7093 -0.0959  0.6648
 8338SOL    HW225714   5.869   5.125   4.242 -0.2326 -1.7832  0.5700
 8339SOL     OW25715   5.894   4.537   5.619 -0.2559  1.0574  0.2232
 8339SOL    HW125716   5.880   4.542   5.713  0.0589  3.0165  0.2166
 8339SOL    HW225717   5.958   4.606   5.601 -0.8312  1.1929 -1.5130
 8340SOL     OW25718   6.486   1.749   2.824  0.0128 -0.4072  0.2276
 8340SOL    HW125719   6.413   1.716   2.771  0.5926 -0.7107 -0.4044
 8340SOL    HW225720   6.445   1.779   2.905 -0.8098 -0.5977 -0.1025
 8341SOL     OW25721   4.986   6.665   6.924 -0.0418 -0.0395 -0.3121
 8341SOL    HW125722   4.968   6.595   6.987  0.8742 -1.1501 -1.2505
 8341SOL    HW225723   4.931   6.644   6.849  0.4348  0.1012 -0.7014
 8342SOL     OW25724   7.465   7.695   6.126  0.2201 -0.3055  0.3180
 8342SOL    HW125725   7.425   7.678   6.212  1.0108 -3.1042  0.2457
 8342SOL    HW225726   7.393   7.726   6.072 -1.0425 -1.5585  1.1885
 8343SOL     OW25727   0.809   7.760   7.569  0.9229  0.8959  0.1659
 8343SOL    HW125728   0.828   7.802   7.485  1.7001  0.7181  0.2475
 8343SOL    HW225729   0.737   7.699   7.550 -0.2355  2.2654  0.0560
 8344SOL     OW25730   1.646   7.480   3.368  0.3859 -0.1120 -0.0190
 8344SOL    HW125731   1.580   7.470   3.300  0.1901 -0.9231  0.2787
 8344SOL    HW225732   1.641   7.399   3.419 -0.7022  1.1532  2.0448
 8345SOL     OW25733   6.286   2.884   6.469 -0.0662 -0.2581  0.0580
 8345SOL    HW125734   6.301   2.912   6.559  0.5892  1.3089 -0.4962
 8345SOL    HW225735   6.263   2.792   6.476  0.2393 -0.2411  1.7997
 8346SOL     OW25736   0.115   6.961   2.920 -0.0418  0.1596 -0.0140
 8346SOL    HW125737   0.179   6.924   2.860  1.0241 -3.1889  2.8617
 8346SOL    HW225738   0.073   6.885   2.960 -2.3862  2.2271  1.7492
 8347SOL     OW25739   5.749   7.729   3.683 -0.1871  0.8923 -0.2869
 8347SOL    HW125740   5.821   7.712   3.622  0.5248  0.4144  0.6632
 8347SOL    HW225741   5.776   7.688   3.765 -0.5164  2.6475  0.7623
 8348SOL     OW25742   1.569   6.487   7.683 -0.2520  0.2014 -0.4063
 8348SOL    HW125743   1.649   6.497   7.631  0.0810 -2.3545 -0.5336
 8348SOL    HW225744   1.596   6.509   7.772  0.6369 -0.6533 -0.4408
 8349SOL     OW25745   4.438   5.482   0.567  0.3109  0.3319 -0.1671
 8349SOL    HW125746   4.437   5.478   0.662  0.7918  2.7372  0.0148
 8349SOL    HW225747   4.498   5.413   0.540  1.1763  0.4369  1.3664
 8350SOL     OW25748   3.063   6.511   1.932  0.5594  0.2333 -0.6898
 8350SOL    HW125749   2.980   6.475   1.899 -0.0362 -0.1912  1.1344
 8350SOL    HW225750   3.068   6.598   1.893  0.0448 -0.3173 -2.0575
 8351SOL     OW25751   3.360   5.523   1.712  0.8008 -0.2685 -0.1184
 8351SOL    HW125752   3.349   5.542   1.619 -1.0995  0.8335  0.2823
 8351SOL    HW225753   3.274   5.492   1.741  1.3828 -0.6710  1.2611
 8352SOL     OW25754   0.809   6.947   4.254 -0.1907  0.3490 -0.2543
 8352SOL    HW125755   0.786   6.906   4.171  2.5377  0.8494 -1.3706
 8352SOL    HW225756   0.880   6.892   4.288  1.2208  2.1701 -0.1119
 8353SOL     OW25757   0.370   1.907   3.657  0.0934 -0.0258 -0.0642
 8353SOL    HW125758   0.349   1.992   3.697  2.1833 -0.1733  1.4987
 8353SOL    HW225759   0.324   1.843   3.712  3.2993 -0.2624  2.6376
 8354SOL     OW25760   0.650   7.439   4.548  0.5039  0.7925 -0.3502
 8354SOL    HW125761   0.657   7.346   4.569  0.4380  0.1005 -2.9847
 8354SOL    HW225762   0.580   7.444   4.483  0.8651  2.6134 -0.6726
 8355SOL     OW25763   2.184   5.468   7.356  0.5157 -0.4862  0.1125
 8355SOL    HW125764   2.272   5.438   7.336  0.2954  0.4051 -2.6068
 8355SOL    HW225765   2.189   5.564   7.351 -0.2030 -0.2877  2.0420
 8356SOL     OW25766   4.262   7.608   1.025 -0.1521 -0.0636  0.3952
 8356SOL    HW125767   4.220   7.669   0.965  0.7289  1.8015  1.6038
 8356SOL    HW225768   4.198   7.598   1.097  0.0023 -0.0293  0.5364
 8357SOL     OW25769   2.347   7.224   3.335 -0.3416 -0.1183  0.1045
 8357SOL    HW125770   2.351   7.185   3.247 -0.9683 -1.8377  0.7785
 8357SOL    HW225771   2.310   7.154   3.389  1.0039  0.5279  1.9521
 8358SOL     OW25772   5.013   7.542   4.907  0.3880 -0.1984 -0.3252
 8358SOL    HW125773   5.106   7.545   4.927  0.0555  1.3755  1.2353
 8358SOL    HW225774   4.994   7.628   4.869 -0.7207  0.1815  0.9935
 8359SOL     OW25775   3.399   1.688   4.736  0.0142 -0.0950 -0.1856
 8359SOL    HW125776   3.332   1.637   4.782  0.0411 -0.3753 -0.4571
 8359SOL    HW225777   3.381   1.778   4.761  1.3155 -0.3690  2.1162
 8360SOL     OW25778   7.399   4.771   5.129  0.0417  0.3821  0.0381
 8360SOL    HW125779   7.305   4.757   5.118 -0.0950  0.2350  1.2932
 8360SOL    HW225780   7.426   4.705   5.192  1.4028 -0.9012 -1.7642
 8361SOL     OW25781   0.832   4.502   0.083  0.2781  0.3496 -0.0910
 8361SOL    HW125782   0.746   4.526   0.117 -0.3083 -0.7610 -0.7436
 8361SOL    HW225783   0.815   4.461  -0.001  1.4732  0.3594 -0.3647
 8362SOL     OW25784   2.935   2.510   1.151 -0.0643 -0.4853  0.1594
 8362SOL    HW125785   2.930   2.419   1.180  1.2102 -0.6438 -0.0413
 8362SOL    HW225786   3.023   2.538   1.177 -0.2364  0.5115 -0.2877
 8363SOL     OW25787   2.840   3.418   7.499  0.1041  0.0761  0.1478
 8363SOL    HW125788   2.894   3.457   7.430  0.0285  2.4754  1.3228
 8363SOL    HW225789   2.752   3.452   7.482  0.2327  1.3734  1.7997
 8364SOL     OW25790   7.772   3.735   2.553  0.2277  0.0242 -0.2507
 8364SOL    HW125791   7.850   3.689   2.523 -0.2905 -0.2134 -1.2678
 8364SOL    HW225792   7.716   3.666   2.590 -0.1461 -0.0473 -0.9240
 8365SOL     OW25793   2.542   0.262   0.888  0.8595 -0.0170  0.3024
 8365SOL    HW125794   2.611   0.324   0.912  0.2807  1.3408 -1.3334
 8365SOL    HW225795   2.588   0.191   0.844  1.2574  0.8539 -0.7357
 8366SOL     OW25796   5.459   0.604   7.169  0.0867 -0.2483  0.4762
 8366SOL    HW125797   5.545   0.643   7.154  0.4964 -1.2369  0.1079
 8366SOL    HW225798   5.456   0.588   7.263 -0.7650  2.1312  0.9032
 8367SOL     OW25799   1.979   7.290   5.598 -0.0653 -0.2850 -0.1745
 8367SOL    HW125800   2.014   7.304   5.510 -0.6635  0.8506 -0.2456
 8367SOL    HW225801   1.904   7.232   5.586 -0.6222  0.4972 -0.5217
 8368SOL     OW25802   3.044   6.848   5.870 -0.1048  0.5309 -0.3405
 8368SOL    HW125803   3.049   6.753   5.853 -3.0725  0.3041 -0.3845
 8368SOL    HW225804   2.992   6.882   5.797 -2.3800  1.5373  1.6381
 8369SOL     OW25805   5.721   5.976   0.215  0.0849  0.1096  0.2142
 8369SOL    HW125806   5.772   5.971   0.296  0.1773  1.2894  0.2460
 8369SOL    HW225807   5.643   6.026   0.239  0.8788  1.9017 -0.7690
 8370SOL     OW25808   2.508   3.473   6.184  0.5388  0.6922  0.1959
 8370SOL    HW125809   2.435   3.525   6.152  0.6281  0.9404  0.3953
 8370SOL    HW225810   2.467   3.407   6.240  0.5403  1.3785  1.0229
 8371SOL     OW25811   3.278   7.340   0.225  0.1631  0.0098  0.3347
 8371SOL    HW125812   3.329   7.403   0.275 -0.2298  0.6418 -0.0426
 8371SOL    HW225813   3.203   7.320   0.281 -0.4186  0.9235 -0.0850
 8372SOL     OW25814   5.040   4.255   3.082  0.3316 -0.0433 -0.1583
 8372SOL    HW125815   4.988   4.265   3.162 -0.1256  1.7955 -0.6295
 8372SOL    HW225816   4.982   4.209   3.022 -0.0891  0.3571 -0.0708
 8373SOL     OW25817   2.476   3.910   5.564  0.5752  0.1962  0.3430
 8373SOL    HW125818   2.475   3.937   5.656  0.2599 -0.1263  0.4406
 8373SOL    HW225819   2.383   3.898   5.542  0.5288  1.8665 -0.5048
 8374SOL     OW25820   0.844   3.243   1.673  0.2343  0.4353  0.8019
 8374SOL    HW125821   0.765   3.194   1.652 -0.0798  1.8198 -1.6618
 8374SOL    HW225822   0.865   3.218   1.763 -1.6593 -1.7300  0.7222
 8375SOL     OW25823   2.926   2.160   0.873  0.7356 -0.5365 -0.2798
 8375SOL    HW125824   2.864   2.180   0.943  1.1730  0.0052 -0.0298
 8375SOL    HW225825   2.899   2.217   0.800  0.6805 -0.6108 -0.3169
 8376SOL     OW25826   4.968   5.072   2.111 -0.6814 -0.3811 -0.1196
 8376SOL    HW125827   4.918   5.056   2.191  0.8313  0.6339  1.1101
 8376SOL    HW225828   5.040   5.009   2.114  1.1081  1.5489  0.9718
 8377SOL     OW25829   0.452   6.107   7.449 -0.5864 -0.8078  0.0728
 8377SOL    HW125830   0.368   6.145   7.478  1.1839  4.4050 -0.5566
 8377SOL    HW225831   0.442   6.097   7.355 -0.6169 -0.5607  0.0497
 8378SOL     OW25832   6.668   6.952   7.361  0.4785  0.4471  0.2314
 8378SOL    HW125833   6.602   6.987   7.420 -2.7071 -2.4735 -1.2408
 8378SOL    HW225834   6.696   6.870   7.402  2.7029  1.2543  0.4389
 8379SOL     OW25835   2.172   4.165   5.119  0.1246 -0.5493 -0.3149
 8379SOL    HW125836   2.107   4.103   5.086  0.5080 -1.4198  0.5186
 8379SOL    HW225837   2.255   4.117   5.117  0.4149 -0.1041  0.4462
 8380SOL     OW25838   5.773   4.495   5.858  0.5462  0.8075 -0.0523
 8380SOL    HW125839   5.686   4.477   5.894 -0.0528 -0.9489 -2.1628
 8380SOL    HW225840   5.825   4.418   5.882  0.7337  0.6065 -1.0460
 8381SOL     OW25841   5.545   6.214   1.222  0.0860 -0.0648  0.1221
 8381SOL    HW125842   5.475   6.157   1.194  0.1631  0.6949 -1.7837
 8381SOL    HW225843   5.608   6.212   1.149  0.5416  1.6408  0.4273
 8382SOL     OW25844   7.606   4.482   0.103 -0.6915  0.6899 -0.2113
 8382SOL    HW125845   7.545   4.502   0.175  2.1394  3.2123  1.7092
 8382SOL    HW225846   7.629   4.390   0.116 -1.6071  0.6073  0.9959
 8383SOL     OW25847   2.131   2.229   5.673 -0.2903  0.0828  0.2353
 8383SOL    HW125848   2.111   2.147   5.627 -0.0518  1.0175 -1.6407
 8383SOL    HW225849   2.226   2.240   5.662 -0.3941  0.8446  0.0327
 8384SOL     OW25850   2.151   0.727   1.707 -0.0543  0.5055  0.7252
 8384SOL    HW125851   2.087   0.750   1.640  0.3693  2.2871  0.8907
 8384SOL    HW225852   2.227   0.695   1.658 -1.0531 -1.7677  0.5321
 8385SOL     OW25853   4.486   2.266   0.330  0.1871  0.2199 -0.1677
 8385SOL    HW125854   4.402   2.312   0.329 -0.1039 -0.2978  0.0064
 8385SOL    HW225855   4.510   2.258   0.237  0.7157  1.5594 -0.1587
 8386SOL     OW25856   1.055   1.624   2.210 -0.1488 -0.0492 -0.1622
 8386SOL    HW125857   1.089   1.704   2.171  0.4184  0.3125  1.0312
 8386SOL    HW225858   1.044   1.645   2.303  0.0795 -1.3644  0.1880
 8387SOL     OW25859   2.015   1.017   1.190  0.0803  0.0932 -0.1307
 8387SOL    HW125860   1.982   1.047   1.105  0.5315  0.7648 -0.0716
 8387SOL    HW225861   1.937   1.008   1.244 -0.1710  0.0623 -0.4936
 8388SOL     OW25862   2.164   6.911   4.219  0.4179  0.1040  0.7323
 8388SOL    HW125863   2.099   6.907   4.288 -1.5479  2.2937 -0.8445
 8388SOL    HW225864   2.208   6.995   4.232 -0.8948  1.2077 -1.3047
 8389SOL     OW25865   0.615   2.313   6.804  0.0959 -0.1891 -0.6869
 8389SOL    HW125866   0.536   2.258   6.798 -0.3099  0.2196  0.5615
 8389SOL    HW225867   0.650   2.313   6.715 -1.8079  0.3582 -1.5021
 8390SOL     OW25868   0.852   0.581   1.607 -0.0599 -0.3935  0.3430
 8390SOL    HW125869   0.818   0.655   1.657 -0.8294 -1.6500  1.7724
 8390SOL    HW225870   0.946   0.582   1.624 -0.0356  0.3458  0.2047
 8391SOL     OW25871   6.412   1.757   4.121  0.2029  0.7806 -0.2627
 8391SOL    HW125872   6.320   1.752   4.144 -0.0274  2.3598 -0.7334
 8391SOL    HW225873   6.425   1.686   4.058 -0.8246  0.9256 -0.6498
 8392SOL     OW25874   5.135   3.310   4.598  0.5701  0.0125 -0.0815
 8392SOL    HW125875   5.077   3.362   4.542 -1.9026  0.2165  2.3870
 8392SOL    HW225876   5.178   3.375   4.654  0.1512 -0.3625  0.6885
 8393SOL     OW25877   5.941   4.236   6.307 -0.0602  0.4699  0.2274
 8393SOL    HW125878   5.928   4.327   6.279  0.1234  1.3133  2.6204
 8393SOL    HW225879   5.857   4.193   6.288 -0.2407  1.1841 -0.6765
 8394SOL     OW25880   6.948   3.306   5.654  0.2282  0.0403 -0.3947
 8394SOL    HW125881   7.040   3.281   5.668  0.2334 -0.9991 -1.9964
 8394SOL    HW225882   6.899   3.253   5.716  0.5618 -1.2001 -1.1443
 8395SOL     OW25883   5.488   7.056   2.114 -0.1556 -0.2512  0.3087
 8395SOL    HW125884   5.449   7.137   2.147 -0.5200 -0.4562  0.3760
 8395SOL    HW225885   5.580   7.063   2.141 -0.0521  0.3970 -0.1774
 8396SOL     OW25886   2.653   2.189   6.340  0.2522  0.1619 -0.1724
 8396SOL    HW125887   2.558   2.193   6.346  0.2511 -0.5203  0.4265
 8396SOL    HW225888   2.672   2.095   6.334  0.8175  0.3334 -1.5767
 8397SOL     OW25889   4.648   6.129   0.955  0.6166 -0.1484 -0.5073
 8397SOL    HW125890   4.705   6.206   0.954  0.3324  0.0603 -0.6268
 8397SOL    HW225891   4.705   6.058   0.984  0.7059  0.2397  0.3030
 8398SOL     OW25892   5.920   6.472   1.424  0.3139 -0.5066  0.2658
 8398SOL    HW125893   5.899   6.510   1.509 -0.9886  0.5604 -0.4972
 8398SOL    HW225894   6.014   6.455   1.428  0.4559  0.4283  1.5531
 8399SOL     OW25895   5.196   4.115   7.454 -0.2753  0.6311  0.3923
 8399SOL    HW125896   5.194   4.027   7.416 -2.1210  1.4559 -1.6277
 8399SOL    HW225897   5.150   4.106   7.537  0.2230 -0.4437  0.5757
 8400SOL     OW25898   5.703   1.775   4.982  0.0277 -0.1643  0.2208
 8400SOL    HW125899   5.786   1.758   5.026 -0.3083  0.7703  1.2615
 8400SOL    HW225900   5.719   1.853   4.929 -0.1063 -0.1586  0.1875
 8401SOL     OW25901   5.821   6.498   5.050 -0.2774 -0.1381 -0.3116
 8401SOL    HW125902   5.794   6.407   5.047  0.0412 -0.4155  2.3678
 8401SOL    HW225903   5.915   6.495   5.067 -0.3867  0.6367  0.5315
 8402SOL     OW25904   0.593   7.023   0.237  0.1818  0.2660  0.5172
 8402SOL    HW125905   0.611   6.992   0.326 -1.6453  0.6434  1.0711
 8402SOL    HW225906   0.541   7.103   0.250  1.3073  1.2731 -0.8902
 8403SOL     OW25907   1.447   4.289   7.513 -0.0379 -0.1418  0.3837
 8403SOL    HW125908   1.483   4.375   7.488  0.7741 -0.6257 -0.1940
 8403SOL    HW225909   1.366   4.281   7.463  0.8665 -0.5049 -1.0934
 8404SOL     OW25910   2.745   1.295   5.723 -0.3548 -0.2235 -0.3065
 8404SOL    HW125911   2.681   1.359   5.694  0.5902  1.6962  1.5914
 8404SOL    HW225912   2.830   1.334   5.703  0.2483 -0.9818  0.6614
 8405SOL     OW25913   4.329   5.874   3.135 -0.0895 -0.1030 -0.3910
 8405SOL    HW125914   4.360   5.785   3.150  0.5173  0.2046  0.2599
 8405SOL    HW225915   4.320   5.911   3.223 -1.2311  0.1863 -0.6112
 8406SOL     OW25916   3.783   7.411   3.791  0.2116  0.5909  0.3784
 8406SOL    HW125917   3.868   7.382   3.757 -0.7209  1.2410 -2.8573
 8406SOL    HW225918   3.723   7.338   3.773 -1.0448  2.2338 -3.0240
 8407SOL     OW25919   5.841   7.124   7.147 -0.2581  0.0022  0.4953
 8407SOL    HW125920   5.776   7.069   7.102  1.2414 -0.8619 -0.7461
 8407SOL    HW225921   5.796   7.207   7.161 -1.6758 -0.5994 -0.2010
 8408SOL     OW25922   7.190   0.724   4.255 -0.1594  0.6771  0.0777
 8408SOL    HW125923   7.250   0.754   4.324  0.9424  0.1870 -0.6471
 8408SOL    HW225924   7.231   0.752   4.173 -1.7514  1.8002 -0.3996
 8409SOL     OW25925   7.811   6.342   6.678  0.1058  0.0825  0.3740
 8409SOL    HW125926   7.729   6.294   6.683  0.4174 -0.6671 -1.1787
 8409SOL    HW225927   7.827   6.353   6.584  1.0792  1.4463  0.6636
 8410SOL     OW25928   0.389   6.978   4.246  0.4475  0.2500 -0.0737
 8410SOL    HW125929   0.397   7.002   4.153  2.5721  0.7535  0.1829
 8410SOL    HW225930   0.434   6.893   4.252 -0.4776 -0.2206  0.3541
 8411SOL     OW25931   2.794   0.481   0.940 -0.0608  0.0328  0.0977
 8411SOL    HW125932   2.811   0.549   1.006 -2.2352 -1.4347  2.3446
 8411SOL    HW225933   2.826   0.400   0.981  1.1177 -0.5672 -1.8945
 8412SOL     OW25934   1.059   4.641   3.538  0.0631 -0.6958 -0.5847
 8412SOL    HW125935   1.082   4.725   3.577 -1.5916 -1.1757  1.5998
 8412SOL    HW225936   1.115   4.578   3.584  0.2767 -0.9647 -1.2030
 8413SOL     OW25937   4.606   1.664   3.923 -0.0579 -0.5810  0.0353
 8413SOL    HW125938   4.670   1.734   3.915 -1.0505  0.1461 -2.3542
 8413SOL    HW225939   4.641   1.593   3.868 -1.4015 -0.0274 -1.6245
 8414SOL     OW25940   4.542   7.137   2.285  0.3457  0.5756  0.2052
 8414SOL    HW125941   4.467   7.098   2.330  0.1396  0.5174 -0.1819
 8414SOL    HW225942   4.609   7.145   2.353  1.2207 -2.5573 -0.1610
 8415SOL     OW25943   2.336   5.137   2.322 -0.3427  0.3801 -0.7030
 8415SOL    HW125944   2.269   5.083   2.279  0.7398 -1.0871 -0.6236
 8415SOL    HW225945   2.318   5.127   2.415  1.0346 -1.5184 -0.5892
 8416SOL     OW25946   4.578   4.382   3.607 -0.0655 -0.2798  0.0161
 8416SOL    HW125947   4.646   4.449   3.606 -1.0125  0.7345  0.9920
 8416SOL    HW225948   4.625   4.299   3.613  1.0918  0.4693  3.0708
 8417SOL     OW25949   5.642   1.229   4.740  0.5485 -0.3490 -0.0737
 8417SOL    HW125950   5.699   1.172   4.690  0.8610  0.6450 -0.8844
 8417SOL    HW225951   5.700   1.272   4.803  0.4581 -0.2832 -0.0347
 8418SOL     OW25952   6.909   5.946   2.000  0.6561 -0.1917  0.3405
 8418SOL    HW125953   6.898   6.037   2.028  0.3613 -0.3482  0.7512
 8418SOL    HW225954   6.887   5.947   1.907 -3.7161 -0.5669  1.1425
 8419SOL     OW25955   5.816   0.035   5.525 -0.1532 -0.0583 -0.2950
 8419SOL    HW125956   5.892   0.086   5.498  1.1214 -1.8517 -0.2451
 8419SOL    HW225957   5.753   0.046   5.453  0.0955  1.4867 -0.3076
 8420SOL     OW25958   4.637   0.270   4.909 -0.2421 -0.1145 -0.2277
 8420SOL    HW125959   4.589   0.197   4.870 -0.4522 -0.8050  1.2377
 8420SOL    HW225960   4.651   0.243   5.000 -0.4846  1.7521  0.4020
 8421SOL     OW25961   4.966   2.530   6.157  0.0980  0.5457 -0.1524
 8421SOL    HW125962   4.880   2.538   6.197  0.7674  2.0081  1.1020
 8421SOL    HW225963   4.952   2.476   6.080 -2.1112  1.5678 -0.5233
 8422SOL     OW25964   2.564   2.670   6.677 -0.5704 -0.2825  0.5671
 8422SOL    HW125965   2.648   2.710   6.656 -1.1935  0.2293 -1.2327
 8422SOL    HW225966   2.499   2.733   6.646 -1.6243 -0.7819  1.6594
 8423SOL     OW25967   6.095   5.774   5.682  0.0617 -0.1780 -0.4755
 8423SOL    HW125968   6.160   5.799   5.616 -0.1773 -0.2243 -0.7295
 8423SOL    HW225969   6.021   5.741   5.631  0.0995 -0.7550 -0.1664
 8424SOL     OW25970   6.486   2.469   0.334 -0.2004 -0.4917  0.1189
 8424SOL    HW125971   6.427   2.411   0.285 -1.7832  1.3184 -0.2573
 8424SOL    HW225972   6.487   2.434   0.422 -0.6444 -1.4300 -0.2418
 8425SOL     OW25973   4.416   3.305   2.058  0.0884  0.0500 -0.2255
 8425SOL    HW125974   4.422   3.242   1.986 -0.6265 -0.4501  0.1398
 8425SOL    HW225975   4.502   3.303   2.098  0.2686 -0.2163 -0.6142
 8426SOL     OW25976   7.181   6.262   4.607  0.6348 -0.4801 -0.3649
 8426SOL    HW125977   7.188   6.254   4.703 -1.3463 -0.3077 -0.1689
 8426SOL    HW225978   7.129   6.341   4.593 -0.9340 -1.6481 -1.4903
 8427SOL     OW25979   4.990   3.779   7.869 -0.2861 -0.6127 -0.3443
 8427SOL    HW125980   4.953   3.693   7.885 -2.1327 -0.3325 -2.5253
 8427SOL    HW225981   4.953   3.835   7.937 -1.9937 -0.8477 -1.0455
 8428SOL     OW25982   0.651   2.749   1.548  0.2338  0.0444  0.0244
 8428SOL    HW125983   0.652   2.673   1.606  1.5471 -0.5227 -0.6852
 8428SOL    HW225984   0.596   2.723   1.474 -0.3181  0.2509  0.3601
 8429SOL     OW25985   6.164   4.297   0.605  0.5182  0.3077 -0.2956
 8429SOL    HW125986   6.116   4.320   0.525  3.4524  0.1631 -2.2846
 8429SOL    HW225987   6.162   4.377   0.658 -1.5737  0.3808 -0.4183
 8430SOL     OW25988   4.653   6.002   2.027  0.0047 -0.4713  0.0556
 8430SOL    HW125989   4.645   5.937   2.096  0.0198 -2.9537 -2.1275
 8430SOL    HW225990   4.732   5.977   1.980 -0.9749 -0.0225 -1.9425
 8431SOL     OW25991   4.769   4.171   4.219 -0.4942 -0.2968 -0.6445
 8431SOL    HW125992   4.709   4.169   4.144 -2.0941  2.0239  0.4461
 8431SOL    HW225993   4.766   4.261   4.249  0.3528 -1.0749  2.0256
 8432SOL     OW25994   0.309   7.234   1.196  0.1527 -0.0747 -0.1292
 8432SOL    HW125995   0.253   7.271   1.264  0.2518 -1.4595  0.7379
 8432SOL    HW225996   0.388   7.288   1.197 -0.7181  1.2428 -0.6450
 8433SOL     OW25997   7.495   1.648   6.949 -0.5060  0.1762  0.7532
 8433SOL    HW125998   7.483   1.693   7.032 -0.9085 -0.6320  1.1399
 8433SOL    HW225999   7.407   1.640   6.913 -0.3959  0.0176  0.5151
 8434SOL     OW26000   5.607   3.988   0.134  0.4825 -0.0317  0.1155
 8434SOL    HW126001   5.572   4.005   0.221 -0.0731  0.2626 -0.1584
 8434SOL    HW226002   5.591   4.069   0.086 -0.1046 -0.5191 -0.5403
 8435SOL     OW26003   2.477   3.177   4.816  0.2336  0.4753  0.4153
 8435SOL    HW126004   2.436   3.144   4.736 -1.9397  2.4436  0.6208
 8435SOL    HW226005   2.532   3.249   4.787  0.5762  0.2744  0.5577
 8436SOL     OW26006   2.896   6.063   5.158 -0.4651 -0.8760 -0.4897
 8436SOL    HW126007   2.854   6.134   5.109 -0.5720 -0.5087  0.1233
 8436SOL    HW226008   2.894   6.093   5.249  1.6429 -0.5908 -0.5052
 8437SOL     OW26009   2.387   0.209   3.714 -0.3776  0.1360 -0.0212
 8437SOL    HW126010   2.303   0.249   3.692 -0.9839 -0.6085  0.8654
 8437SOL    HW226011   2.412   0.249   3.797  0.1661  0.3683 -0.2884
 8438SOL     OW26012   1.565   3.765   4.828 -0.0816  0.2625 -0.4176
 8438SOL    HW126013   1.479   3.725   4.824  0.2839 -0.5694 -4.1093
 8438SOL    HW226014   1.556   3.847   4.779  1.4169 -0.5316 -2.1705
 8439SOL     OW26015   3.576   0.968   4.900  0.0627 -0.5042 -0.1554
 8439SOL    HW126016   3.579   0.954   4.805 -0.5397  0.3099 -0.3098
 8439SOL    HW226017   3.664   0.999   4.923 -0.4658  1.7022 -0.8824
 8440SOL     OW26018   7.817   7.487   3.935  0.9910  0.4683 -0.1885
 8440SOL    HW126019   7.843   7.464   3.845  2.4123  1.1585  0.0132
 8440SOL    HW226020   7.827   7.406   3.984  0.6088  0.1856 -0.5746
 8441SOL     OW26021   6.996   4.962   4.400 -0.2541 -0.2700 -0.3210
 8441SOL    HW126022   6.930   4.987   4.335 -0.7249 -1.3402 -0.2709
 8441SOL    HW226023   6.978   4.870   4.418  1.1002 -0.5174 -0.1245
 8442SOL     OW26024   6.852   0.308   6.261 -0.6241 -0.2156  0.4444
 8442SOL    HW126025   6.875   0.217   6.245 -1.2535 -0.2533 -0.3215
 8442SOL    HW226026   6.918   0.340   6.322  0.7552 -0.6271 -0.7846
 8443SOL     OW26027   1.137   0.336   5.219  0.1057 -0.4357 -0.0739
 8443SOL    HW126028   1.169   0.387   5.146 -0.3562 -0.3748 -0.2385
 8443SOL    HW226029   1.124   0.248   5.183 -0.3413 -0.3507 -0.1296
 8444SOL     OW26030   1.079   0.432   6.035  0.1235  0.1710  0.1703
 8444SOL    HW126031   0.983   0.434   6.031  0.0846 -0.8233  0.4435
 8444SOL    HW226032   1.106   0.413   5.945 -0.0283 -1.5399  0.4468
 8445SOL     OW26033   2.358   1.906   6.134  0.0227 -0.7249  0.2012
 8445SOL    HW126034   2.318   1.907   6.221 -0.5944  0.6202 -0.0757
 8445SOL    HW226035   2.366   1.998   6.110  3.1179 -0.9059  0.1463
 8446SOL     OW26036   0.265   4.271   5.287  0.2618  0.2758 -0.4931
 8446SOL    HW126037   0.333   4.328   5.250  0.0487  1.9065  1.4563
 8446SOL    HW226038   0.240   4.314   5.369 -3.3391 -0.0719 -1.2371
 8447SOL     OW26039   7.580   6.979   5.987  0.5858  0.3497 -0.2516
 8447SOL    HW126040   7.500   7.003   5.940  0.4701 -1.4664 -1.0894
 8447SOL    HW226041   7.549   6.944   6.070  0.5918  0.6997 -0.1005
 8448SOL     OW26042   5.188   6.497   0.951  0.8249  0.4166 -0.1224
 8448SOL    HW126043   5.187   6.573   1.010  0.9147 -0.4029  0.9515
 8448SOL    HW226044   5.107   6.505   0.901  0.1171  0.4467  1.0000
 8449SOL     OW26045   0.508   3.996   5.854  0.0556  0.2759 -0.3810
 8449SOL    HW126046   0.532   3.907   5.826  0.6209  0.7809 -1.5380
 8449SOL    HW226047   0.418   4.007   5.825  0.0456  0.1572 -0.3967
 8450SOL     OW26048   1.220   3.193   3.703  0.1280 -0.3225  0.2795
 8450SOL    HW126049   1.290   3.142   3.662  1.2156  0.9321  0.5284
 8450SOL    HW226050   1.217   3.163   3.793 -0.1666 -0.8860  0.0904
 8451SOL     OW26051   5.697   4.838   1.858  0.4706  0.2544 -0.3484
 8451SOL    HW126052   5.755   4.764   1.872 -0.3658 -0.2274  0.7458
 8451SOL    HW226053   5.612   4.808   1.890  0.0407  1.5710 -0.1817
 8452SOL     OW26054   6.871   7.354   1.863 -0.8170 -0.8917  0.5551
 8452SOL    HW126055   6.838   7.421   1.802 -1.0233 -1.3892  0.1061
 8452SOL    HW226056   6.900   7.283   1.806  0.9613 -0.5211  0.9411
 8453SOL     OW26057   6.152   2.709   2.648  0.5573 -1.0287 -0.1891
 8453SOL    HW126058   6.225   2.672   2.698  0.1537  0.7197  1.8926
 8453SOL    HW226059   6.142   2.798   2.684 -1.1353 -0.4180 -2.0113
 8454SOL     OW26060   2.702   2.163   5.193  0.1468  0.4386  0.2647
 8454SOL    HW126061   2.717   2.257   5.188  2.1353  0.1306 -0.6094
 8454SOL    HW226062   2.728   2.130   5.107  1.3765 -1.1160  1.1718
 8455SOL     OW26063   4.975   3.633   4.124 -0.0260  0.3451  0.9072
 8455SOL    HW126064   4.911   3.682   4.177 -1.8170  0.8759 -1.5676
 8455SOL    HW226065   5.056   3.635   4.176 -1.4991  1.2031  3.3639
 8456SOL     OW26066   7.720   6.509   2.201 -0.0698 -0.1792 -0.3488
 8456SOL    HW126067   7.800   6.549   2.167 -0.7543 -0.8586 -3.0417
 8456SOL    HW226068   7.670   6.582   2.237  0.3712  0.8137 -1.6536
 8457SOL     OW26069   2.331   0.042   2.425 -0.2175  0.2214 -0.1945
 8457SOL    HW126070   2.338   0.052   2.520  1.2371 -1.8463 -0.0150
 8457SOL    HW226071   2.365   0.124   2.389  0.5777  0.4746  1.0793
 8458SOL     OW26072   5.269   6.749   4.102  0.1597  0.2526  0.2729
 8458SOL    HW126073   5.239   6.796   4.180  0.4613 -0.4244  0.8081
 8458SOL    HW226074   5.358   6.722   4.123 -0.5353 -1.9823  0.6726
 8459SOL     OW26075   2.662   0.027   0.975 -0.3407  0.1965  0.2540
 8459SOL    HW126076   2.655   0.117   1.008  2.1710  1.9809 -3.3123
 8459SOL    HW226077   2.752   0.001   0.998 -0.4765 -0.7206 -0.2188
 8460SOL     OW26078   2.780   1.504   4.986 -0.0401  0.4144  0.4343
 8460SOL    HW126079   2.793   1.421   5.032 -2.3029 -0.4009 -0.2823
 8460SOL    HW226080   2.718   1.483   4.916  0.4380  2.4236 -0.6755
 8461SOL     OW26081   0.037   2.814   5.856 -0.4230 -0.1659  0.0971
 8461SOL    HW126082   0.049   2.720   5.840 -0.0353  0.1821 -2.0240
 8461SOL    HW226083  -0.044   2.836   5.810  1.0540  1.0331 -2.1635
 8462SOL     OW26084   7.893   5.373   6.826  0.1627 -0.1471  0.0010
 8462SOL    HW126085   7.802   5.402   6.837 -1.5525 -3.5290 -3.1190
 8462SOL    HW226086   7.919   5.410   6.741  2.0562  1.3227  1.1531
 8463SOL     OW26087   0.261   3.069   1.759 -0.6393  0.0568 -0.0244
 8463SOL    HW126088   0.294   3.035   1.842 -2.1666  0.5125  0.8155
 8463SOL    HW226089   0.285   3.161   1.760 -0.5176  0.0265 -0.1628
 8464SOL     OW26090   2.647   5.274   1.099 -0.1838 -0.8255  0.1373
 8464SOL    HW126091   2.585   5.242   1.165 -2.4718 -1.5427 -2.2341
 8464SOL    HW226092   2.644   5.209   1.029  1.5051  0.3464 -1.1075
 8465SOL     OW26093   0.697   1.801   6.293 -0.9594  0.1152 -0.3819
 8465SOL    HW126094   0.666   1.801   6.203 -1.0614 -0.7573 -0.3499
 8465SOL    HW226095   0.768   1.866   6.294  0.2791 -1.1487 -1.5343
 8466SOL     OW26096   3.898   3.382   2.838  0.2018 -0.0223  0.4574
 8466SOL    HW126097   3.884   3.330   2.917  0.7149 -0.1657  0.4580
 8466SOL    HW226098   3.962   3.331   2.787  0.7747  0.6396  0.4939
 8467SOL     OW26099   0.668   2.779   7.632  0.0287  0.2454  0.3315
 8467SOL    HW126100   0.611   2.702   7.627 -1.4646  1.0927  2.8664
 8467SOL    HW226101   0.665   2.806   7.723  0.5078  3.3255 -0.4574
 8468SOL     OW26102   1.087   5.330   4.084 -0.4983 -0.3732 -0.2775
 8468SOL    HW126103   1.175   5.319   4.048  0.7103  1.2767  1.9474
 8468SOL    HW226104   1.046   5.396   4.029  1.1372  1.7514  0.8861
 8469SOL     OW26105   7.896   7.227   4.071  0.1149 -0.1095 -0.0128
 8469SOL    HW126106   7.882   7.259   4.160 -0.0174 -0.2708  0.0224
 8469SOL    HW226107   7.951   7.149   4.081 -0.0672 -0.2430 -0.0600
 8470SOL     OW26108   5.093   3.121   2.787 -0.3032 -0.5606  0.2903
 8470SOL    HW126109   5.121   3.176   2.860 -1.5403  0.4776  0.0060
 8470SOL    HW226110   5.060   3.041   2.828  0.3213 -0.5825  0.7712
 8471SOL     OW26111   7.353   3.949   0.029 -0.0262  0.6083 -0.7381
 8471SOL    HW126112   7.395   4.035   0.030  1.4921 -0.1032  0.6584
 8471SOL    HW226113   7.421   3.889   0.057 -1.4949 -0.8584 -0.1790
 8472SOL     OW26114   2.297   3.207   2.323 -0.3621  0.4782  0.3147
 8472SOL    HW126115   2.377   3.175   2.366  0.2248  0.9355 -0.4155
 8472SOL    HW226116   2.300   3.168   2.236 -0.2488  1.5558 -0.1759
 8473SOL     OW26117   4.240   3.315   5.606  0.3362 -0.2386  0.0745
 8473SOL    HW126118   4.247   3.261   5.527  1.0916 -0.4056  0.2535
 8473SOL    HW226119   4.304   3.278   5.666  0.0178  0.1175  0.6362
 8474SOL     OW26120   4.161   6.090   3.321 -0.3565  0.0885  0.1556
 8474SOL    HW126121   4.124   6.121   3.404  1.4643  1.2049  0.6041
 8474SOL    HW226122   4.241   6.142   3.309  0.6775 -1.6892 -1.1195
 8475SOL     OW26123   3.369   0.835   4.485 -0.5376  0.6793  0.8171
 8475SOL    HW126124   3.356   0.855   4.578  1.2165  1.6204  0.8984
 8475SOL    HW226125   3.409   0.748   4.484 -0.0867  0.8812  0.9838
 8476SOL     OW26126   7.098   7.777   7.920 -0.6338  0.0536 -0.4336
 8476SOL    HW126127   7.015   7.737   7.945 -1.5657  1.5109 -1.0407
 8476SOL    HW226128   7.077   7.870   7.906  0.9055  0.2907 -1.4793
 8477SOL     OW26129   0.285   6.986   0.842 -0.0621 -0.4220 -0.1228
 8477SOL    HW126130   0.302   6.904   0.889  1.5955  0.6146  1.1824
 8477SOL    HW226131   0.322   6.972   0.756  0.8352 -0.8240  0.3147
 8478SOL     OW26132   6.608   0.265   1.306  0.1076 -0.2106  0.1256
 8478SOL    HW126133   6.611   0.193   1.243 -0.8792 -0.5651  0.4768
 8478SOL    HW226134   6.632   0.225   1.389  1.6194  0.2999 -0.0224
 8479SOL     OW26135   4.557   1.471   4.227  0.0984 -0.9775 -0.0685
 8479SOL    HW126136   4.532   1.443   4.315 -0.6539  0.3568  0.1610
 8479SOL    HW226137   4.619   1.404   4.197 -0.0384 -1.7228  1.2657
 8480SOL     OW26138   4.211   0.135   6.098 -0.0132  0.0986  0.2994
 8480SOL    HW126139   4.126   0.135   6.142  0.4586  0.0710  1.2374
 8480SOL    HW226140   4.274   0.118   6.168  0.8130  0.6328 -0.3019
 8481SOL     OW26141   6.762   5.991   4.090  0.5263 -0.2485 -0.1388
 8481SOL    HW126142   6.853   6.009   4.068  0.4217 -2.2536 -2.7468
 8481SOL    HW226143   6.720   6.078   4.091  2.3328  0.6566  0.6716
 8482SOL     OW26144   2.806   1.246   4.179  0.6359  0.5625  0.6485
 8482SOL    HW126145   2.857   1.257   4.099 -0.7606  0.9688 -0.2172
 8482SOL    HW226146   2.731   1.304   4.168 -1.2269 -1.6624  0.8508
 8483SOL     OW26147   5.078   2.430   7.762  0.1736 -0.2748  0.0345
 8483SOL    HW126148   5.106   2.488   7.691  0.2391 -0.1565  0.1577
 8483SOL    HW226149   5.102   2.342   7.731  0.9587 -0.1437  0.2722
 8484SOL     OW26150   1.789   3.088   5.995 -0.3475  0.0688  0.5341
 8484SOL    HW126151   1.700   3.123   5.984  0.0400  1.0809  0.5031
 8484SOL    HW226152   1.790   3.008   5.943 -0.3504  1.6238 -2.0401
 8485SOL     OW26153   1.214   5.647   7.727  0.1902  0.1454 -0.3706
 8485SOL    HW126154   1.126   5.651   7.689  0.0643 -1.6978 -0.3313
 8485SOL    HW226155   1.267   5.607   7.659  0.2956 -1.7229  0.7463
 8486SOL     OW26156   2.198   0.744   0.606  0.4951  0.0126 -0.2268
 8486SOL    HW126157   2.238   0.657   0.597 -0.2258 -0.2260 -1.3324
 8486SOL    HW226158   2.271   0.801   0.630  1.3219 -0.5898 -1.1986
 8487SOL     OW26159   4.987   5.802   7.580 -0.0853 -0.1471 -0.2495
 8487SOL    HW126160   5.075   5.772   7.556 -0.9689 -1.6492 -1.8437
 8487SOL    HW226161   4.995   5.829   7.671  1.6369 -1.9509  0.2134
 8488SOL     OW26162   6.181   7.020   5.538  0.1636  0.4315  0.8695
 8488SOL    HW126163   6.134   7.034   5.620  0.1068  0.2914  0.8612
 8488SOL    HW226164   6.126   6.960   5.488 -0.0259  0.8892  0.5322
 8489SOL     OW26165   7.686   3.501   3.350 -0.6185  0.3098 -0.4494
 8489SOL    HW126166   7.613   3.477   3.407 -0.8465 -0.9404 -1.2406
 8489SOL    HW226167   7.710   3.589   3.378 -0.9841 -0.1171  1.3104
 8490SOL     OW26168   1.931   5.464   5.318  0.0533  0.3118  0.0836
 8490SOL    HW126169   1.872   5.426   5.383  0.3227 -0.8525 -0.3412
 8490SOL    HW226170   1.875   5.525   5.269 -0.9789 -1.2017 -0.7015
 8491SOL     OW26171   3.759   5.053   2.778  0.2088  0.0617  0.6349
 8491SOL    HW126172   3.725   5.051   2.867  0.1641 -0.2300  0.6133
 8491SOL    HW226173   3.681   5.067   2.723  0.3607  1.2920  0.7004
 8492SOL     OW26174   5.022   1.729   7.915  0.0042 -0.7795 -0.0644
 8492SOL    HW126175   4.968   1.697   7.843  1.0746 -1.2045 -0.6979
 8492SOL    HW226176   4.960   1.745   7.986 -0.9328 -1.3802 -0.7249
 8493SOL     OW26177   4.843   1.218   1.794 -0.4831 -0.0908 -0.1422
 8493SOL    HW126178   4.874   1.271   1.721 -1.6436  2.0636  0.8216
 8493SOL    HW226179   4.751   1.202   1.775 -0.9569  0.9841  1.0294
 8494SOL     OW26180   6.516   7.197   3.626  0.7590 -0.3246  0.5986
 8494SOL    HW126181   6.497   7.225   3.536 -0.0007 -1.0820  0.5061
 8494SOL    HW226182   6.573   7.265   3.661 -2.6321  2.4974  1.0932
 8495SOL     OW26183   2.578   6.775   5.912 -0.1216 -0.1528 -0.4211
 8495SOL    HW126184   2.500   6.777   5.968  0.2409  1.4152  0.0687
 8495SOL    HW226185   2.546   6.805   5.827 -0.0062  0.7721 -0.1446
 8496SOL     OW26186   0.349   2.016   5.541  0.1374 -0.1955  0.4262
 8496SOL    HW126187   0.381   2.053   5.623  1.0211  1.4718 -0.6008
 8496SOL    HW226188   0.254   2.019   5.548  0.2044  0.3722  1.1892
 8497SOL     OW26189   4.481   0.655   4.577  0.0030  0.1406  0.4391
 8497SOL    HW126190   4.399   0.612   4.603  0.5825 -1.4447 -0.2644
 8497SOL    HW226191   4.453   0.730   4.525 -1.0056 -0.3800  0.2126
 8498SOL     OW26192   3.707   3.932   5.885  0.3326 -0.0639  0.5718
 8498SOL    HW126193   3.737   3.847   5.915  2.6329  0.5876  0.3294
 8498SOL    HW226194   3.663   3.970   5.961 -0.4523 -1.3253  0.7748
 8499SOL     OW26195   1.007   5.147   4.313  0.3583 -0.0315 -0.4207
 8499SOL    HW126196   0.995   5.225   4.258 -0.4169 -0.3256 -0.6945
 8499SOL    HW226197   1.083   5.167   4.366  0.2392  0.8769 -0.5600
 8500SOL     OW26198   6.157   4.929   3.072 -0.1856 -0.4484 -0.3914
 8500SOL    HW126199   6.164   4.852   3.128  0.1343  0.2362  0.5246
 8500SOL    HW226200   6.161   4.894   2.983  0.8932 -1.4114  0.0098
 8501SOL     OW26201   4.323   7.738   7.057  0.2395 -0.2883 -0.1542
 8501SOL    HW126202   4.392   7.790   7.098  0.2278 -0.1356 -0.3270
 8501SOL    HW226203   4.272   7.703   7.130 -0.6554  1.1462 -0.0436
 8502SOL     OW26204   5.716   3.685   2.791 -0.0808 -0.0511 -0.2519
 8502SOL    HW126205   5.656   3.738   2.844 -0.9110  1.0223 -2.1568
 8502SOL    HW226206   5.760   3.748   2.735 -2.8179 -1.3602 -4.3242
 8503SOL     OW26207   3.607   3.906   4.076  0.1169 -0.0933  0.1826
 8503SOL    HW126208   3.677   3.946   4.024  1.3166 -0.8830  1.1216
 8503SOL    HW226209   3.564   3.845   4.017  1.8473 -1.4263  0.2254
 8504SOL     OW26210   4.219   6.956   4.413 -0.0862 -0.0897  0.3011
 8504SOL    HW126211   4.263   6.872   4.413 -1.8859 -1.1082 -0.9953
 8504SOL    HW226212   4.190   6.968   4.503  3.1059  0.8751  1.3356
 8505SOL     OW26213   1.775   4.766   6.797 -0.0063  0.8783 -0.0975
 8505SOL    HW126214   1.870   4.776   6.785  0.1031  0.8226  0.6448
 8505SOL    HW226215   1.767   4.690   6.856 -0.6273 -0.9284 -2.3411
 8506SOL     OW26216   7.782   4.262   4.270 -0.0098 -0.4613  0.2556
 8506SOL    HW126217   7.706   4.314   4.296 -1.3457 -2.0347 -0.3178
 8506SOL    HW226218   7.831   4.248   4.351  0.2508  1.3932  0.4693
 8507SOL     OW26219   6.805   5.539   7.065 -0.1918  0.3990  0.6301
 8507SOL    HW126220   6.887   5.554   7.017 -0.6818  1.8873  0.2178
 8507SOL    HW226221   6.748   5.495   7.002  0.1637 -0.3359  0.8113
 8508SOL     OW26222   5.538   5.754   5.345  0.3403  0.1417  0.0444
 8508SOL    HW126223   5.477   5.698   5.298 -0.1755  0.5450  0.2087
 8508SOL    HW226224   5.622   5.710   5.339 -0.1106 -0.7840  0.4151
 8509SOL     OW26225   0.984   1.128   7.856  0.2699  0.2713 -0.2199
 8509SOL    HW126226   0.960   1.221   7.862 -0.3254  0.2338 -1.6940
 8509SOL    HW226227   0.920   1.090   7.796  0.3662 -1.1582  0.5377
 8510SOL     OW26228   4.500   1.104   3.263  0.2343  0.3021  0.0788
 8510SOL    HW126229   4.477   1.011   3.270 -0.7658  0.5751  0.8321
 8510SOL    HW226230   4.442   1.147   3.326 -0.9761  1.7163 -1.8771
 8511SOL     OW26231   3.631   2.683   2.200 -0.0411 -0.0522 -0.1499
 8511SOL    HW126232   3.614   2.597   2.237 -0.1860  1.6669  4.3340
 8511SOL    HW226233   3.723   2.681   2.176 -0.3758 -1.8060 -1.5043
 8512SOL     OW26234   6.242   0.715   1.799  0.5307  0.1951  0.2202
 8512SOL    HW126235   6.302   0.776   1.842 -0.7209  1.3073  0.4586
 8512SOL    HW226236   6.194   0.675   1.872  0.7851 -0.5009  0.0146
 8513SOL     OW26237   7.447   7.273   4.394  0.1739  0.1952  0.2140
 8513SOL    HW126238   7.410   7.232   4.472 -0.0154  0.5234  0.2973
 8513SOL    HW226239   7.398   7.235   4.321 -1.0174  1.3372  0.3778
 8514SOL     OW26240   5.718   5.587   1.255  0.8663  0.5547 -0.2543
 8514SOL    HW126241   5.670   5.657   1.299  0.3463  0.9984 -1.4819
 8514SOL    HW226242   5.775   5.550   1.323  0.5304  1.6022  0.6199
 8515SOL     OW26243   5.646   1.476   4.315 -0.0411  0.2931  0.0570
 8515SOL    HW126244   5.584   1.548   4.323  1.4551  1.5301  1.1038
 8515SOL    HW226245   5.726   1.517   4.283  1.2996 -0.6084  2.0402
 8516SOL     OW26246   4.474   7.862   6.702  0.3600  0.4334  0.0653
 8516SOL    HW126247   4.477   7.767   6.690  0.9404  0.4371  0.1247
 8516SOL    HW226248   4.396   7.877   6.756 -0.6588  0.1542 -1.2801
 8517SOL     OW26249   2.900   6.179   3.709  0.9168 -0.4091  0.3499
 8517SOL    HW126250   2.848   6.221   3.640  2.0261 -0.7222 -0.7292
 8517SOL    HW226251   2.921   6.250   3.769 -0.2716 -0.1716  0.5073
 8518SOL     OW26252   5.651   1.333   7.814  0.0010 -0.5355 -0.2578
 8518SOL    HW126253   5.685   1.263   7.869  0.4910 -0.3957 -0.3768
 8518SOL    HW226254   5.724   1.356   7.756  0.0649  0.4958  0.2016
 8519SOL     OW26255   5.362   2.069   7.363 -0.3109 -0.2618  0.3802
 8519SOL    HW126256   5.326   2.089   7.276  0.0287 -1.8600 -0.1501
 8519SOL    HW226257   5.289   2.087   7.423 -0.3688  1.4129 -0.1418
 8520SOL     OW26258   4.987   0.395   0.212 -0.1256  0.2285 -0.3998
 8520SOL    HW126259   4.938   0.344   0.276  0.9035 -0.8588 -0.4267
 8520SOL    HW226260   4.927   0.464   0.184 -1.7294 -1.1770 -0.6242
 8521SOL     OW26261   0.493   2.522   1.715 -0.1817  0.2530 -0.2775
 8521SOL    HW126262   0.566   2.477   1.758  0.0886 -0.7969 -1.7803
 8521SOL    HW226263   0.417   2.467   1.732 -0.7497  1.4843  1.5194
 8522SOL     OW26264   2.751   4.220   4.003 -0.6184 -0.2313 -0.4427
 8522SOL    HW126265   2.750   4.170   3.921 -1.0554 -0.8904 -0.0362
 8522SOL    HW226266   2.829   4.188   4.049  0.5027  1.2161 -1.2447
 8523SOL     OW26267   4.287   6.371   3.271 -0.0158 -0.2817  0.0741
 8523SOL    HW126268   4.364   6.316   3.286 -0.4638 -1.2591 -1.0524
 8523SOL    HW226269   4.294   6.398   3.179 -0.1127  1.0811  0.4452
 8524SOL     OW26270   3.983   7.226   2.474  0.0734 -0.3097  0.2288
 8524SOL    HW126271   3.937   7.286   2.533  0.2996  0.9342 -0.8273
 8524SOL    HW226272   3.918   7.157   2.456 -0.0914 -0.5763  1.6802
 8525SOL     OW26273   3.263   2.323   7.512  0.0262  0.2932 -0.2527
 8525SOL    HW126274   3.259   2.323   7.608 -0.7457  1.5396 -0.2708
 8525SOL    HW226275   3.244   2.232   7.488 -0.6339  0.1446  0.7462
 8526SOL     OW26276   6.546   2.754   6.689  0.3608 -0.2112 -0.1117
 8526SOL    HW126277   6.501   2.710   6.761  0.1842 -1.7817 -1.1187
 8526SOL    HW226278   6.481   2.815   6.654 -0.3758 -1.1280 -0.3886
 8527SOL     OW26279   1.484   7.566   5.075  1.1556  0.6056  0.4201
 8527SOL    HW126280   1.468   7.501   5.144 -0.1896  1.4459  0.9374
 8527SOL    HW226281   1.485   7.650   5.121 -0.3469  1.2353 -0.6386
 8528SOL     OW26282   2.127   1.837   3.864 -0.0360 -0.0370 -0.3597
 8528SOL    HW126283   2.133   1.767   3.798 -0.2863  0.6470 -1.1260
 8528SOL    HW226284   2.106   1.916   3.813 -1.1021  0.3481  0.6325
 8529SOL     OW26285   6.379   4.434   4.395  0.2547 -0.1400  0.2088
 8529SOL    HW126286   6.296   4.476   4.418 -0.1538 -1.8596  2.1486
 8529SOL    HW226287   6.371   4.345   4.429  2.1843 -0.9218 -1.2388
 8530SOL     OW26288   1.190   5.081   3.183 -0.0691  0.3497 -0.0641
 8530SOL    HW126289   1.142   5.086   3.266  0.1003 -1.9233  0.2274
 8530SOL    HW226290   1.264   5.022   3.201  0.6366  0.7330 -1.5338
 8531SOL     OW26291   5.033   7.170   2.738 -0.3481 -0.3330 -0.5540
 8531SOL    HW126292   5.006   7.080   2.720 -1.3063  0.1069 -1.3931
 8531SOL    HW226293   4.971   7.201   2.804  0.2903 -0.4306  0.1107
 8532SOL     OW26294   5.359   4.417   0.729 -0.0004  0.4951  0.0164
 8532SOL    HW126295   5.272   4.452   0.749  0.3415  0.9384  0.7558
 8532SOL    HW226296   5.388   4.467   0.653  0.2785  1.5092  0.7639
 8533SOL     OW26297   6.457   4.698   5.945  0.5064  0.2358  0.0634
 8533SOL    HW126298   6.391   4.722   6.010  2.3103  0.1704  2.0404
 8533SOL    HW226299   6.473   4.604   5.960 -0.2294 -0.2025 -1.6523
 8534SOL     OW26300   5.211   6.128   2.653 -0.2521  0.2255  0.3333
 8534SOL    HW126301   5.142   6.093   2.596  0.6569 -0.0393 -0.6518
 8534SOL    HW226302   5.214   6.067   2.727 -0.3504 -0.3728 -0.1451
 8535SOL     OW26303   3.005   4.322   3.234 -0.2068 -0.4275  1.1676
 8535SOL    HW126304   2.991   4.324   3.139  1.6595  0.5742  0.8453
 8535SOL    HW226305   2.955   4.396   3.268  0.6500  0.4201  0.6574
 8536SOL     OW26306   7.450   6.334   1.972 -0.2783 -0.1499 -0.8288
 8536SOL    HW126307   7.477   6.242   1.975 -0.9251 -0.3266 -0.0065
 8536SOL    HW226308   7.527   6.381   2.004 -0.4516 -0.5406  0.2097
 8537SOL     OW26309   0.437   5.483   0.043  0.1441  0.3803  0.0998
 8537SOL    HW126310   0.515   5.434   0.070 -0.4605 -0.5241  0.2380
 8537SOL    HW226311   0.389   5.499   0.125 -0.1366  0.3713 -0.0622
 8538SOL     OW26312   2.877   4.090   7.406  0.0923  0.6183  0.2516
 8538SOL    HW126313   2.967   4.099   7.375  0.1895 -1.2362 -0.1107
 8538SOL    HW226314   2.852   4.178   7.432  0.9319  1.7803 -2.5224
 8539SOL     OW26315   7.225   3.396   1.835 -0.2632 -0.0216 -0.0987
 8539SOL    HW126316   7.219   3.311   1.878 -0.3750 -0.3578 -0.7719
 8539SOL    HW226317   7.240   3.376   1.743 -0.5239  0.6851 -0.3023
 8540SOL     OW26318   5.907   3.391   3.835  0.8241  0.1092  0.0959
 8540SOL    HW126319   5.941   3.327   3.898 -1.5159  0.7350  2.1344
 8540SOL    HW226320   5.976   3.457   3.829  0.9609  0.2749  2.4194
 8541SOL     OW26321   2.813   6.939   7.795  0.7325  0.1450  0.1471
 8541SOL    HW126322   2.827   6.861   7.847  2.2624  0.3116  0.0392
 8541SOL    HW226323   2.750   6.991   7.845 -1.1717 -1.5946 -0.3022
 8542SOL     OW26324   1.764   0.814   6.664 -0.3895 -0.5263  0.4524
 8542SOL    HW126325   1.752   0.770   6.749  0.4407  2.2291  2.1138
 8542SOL    HW226326   1.845   0.864   6.674  1.0716 -1.9598 -2.8953
 8543SOL     OW26327   3.020   2.259   5.952 -0.3765 -0.0814 -0.2781
 8543SOL    HW126328   2.951   2.256   5.886 -0.9930  3.1878  0.0730
 8543SOL    HW226329   2.975   2.244   6.035 -0.4836  0.8902 -0.1551
 8544SOL     OW26330   1.863   7.226   5.888 -1.2709  0.3586 -0.5783
 8544SOL    HW126331   1.859   7.191   5.799 -0.3833  1.5751 -1.1326
 8544SOL    HW226332   1.933   7.176   5.930 -0.2046  1.2050 -1.2734
 8545SOL     OW26333   0.545   1.838   3.220 -0.5319 -0.2791 -0.2915
 8545SOL    HW126334   0.471   1.881   3.263 -0.0170  0.4756 -0.1449
 8545SOL    HW226335   0.510   1.753   3.192 -1.8882  0.6129 -1.4948
 8546SOL     OW26336   6.725   7.458   5.145  0.1560 -0.8456 -0.2029
 8546SOL    HW126337   6.711   7.553   5.148  2.0875 -0.5438  0.3680
 8546SOL    HW226338   6.638   7.421   5.160 -1.0365  0.7852 -2.5041
 8547SOL     OW26339   6.165   2.583   3.078 -0.5064  0.6096  0.1363
 8547SOL    HW126340   6.160   2.516   3.010 -1.2662 -1.6087  2.2331
 8547SOL    HW226341   6.104   2.651   3.049  0.5220  0.6071 -2.2174
 8548SOL     OW26342   4.365   1.504   3.663  0.0710 -0.2032  0.2220
 8548SOL    HW126343   4.459   1.524   3.666 -0.3322  1.7205  2.1019
 8548SOL    HW226344   4.333   1.549   3.585  0.5329 -0.1073  0.0842
 8549SOL     OW26345   1.174   1.308   4.000  0.4513 -0.2069 -0.2414
 8549SOL    HW126346   1.109   1.346   4.059  0.0119 -0.8209 -0.3194
 8549SOL    HW226347   1.123   1.269   3.930  0.8411 -1.5331  0.1840
 8550SOL     OW26348   7.231   7.529   6.526  0.5779  0.1604 -0.9615
 8550SOL    HW126349   7.173   7.503   6.455 -0.7999  3.3695 -1.1803
 8550SOL    HW226350   7.264   7.446   6.561 -1.8975 -1.7056 -2.6518
 8551SOL     OW26351   7.557   3.594   5.390 -0.2805 -0.4343  0.0543
 8551SOL    HW126352   7.606   3.623   5.467 -0.9458  1.8524 -0.3244
 8551SOL    HW226353   7.606   3.628   5.315  0.1508 -2.3057 -0.5686
 8552SOL     OW26354   1.922   0.835   4.547  0.8493 -0.1948  0.3023
 8552SOL    HW126355   1.962   0.912   4.505  4.1275 -1.7034  0.2998
 8552SOL    HW226356   1.967   0.829   4.632  0.0865 -1.6908  0.6267
 8553SOL     OW26357   5.517   7.101   2.877 -0.3540  0.4636  0.8902
 8553SOL    HW126358   5.442   7.155   2.852 -0.5892 -0.5601 -0.8122
 8553SOL    HW226359   5.545   7.060   2.795  0.2647 -1.3995  1.9692
 8554SOL     OW26360   3.924   7.813   6.864 -0.4573 -0.1198 -0.0657
 8554SOL    HW126361   3.846   7.777   6.821  0.1445 -1.2660 -0.2416
 8554SOL    HW226362   3.954   7.744   6.923 -0.0967  0.6632  0.6990
 8555SOL     OW26363   2.262   5.821   5.353 -0.4932 -0.1774  0.0992
 8555SOL    HW126364   2.190   5.837   5.292  0.2264 -0.2043 -0.7803
 8555SOL    HW226365   2.241   5.736   5.393  0.4166 -1.6013 -2.2405
 8556SOL     OW26366   7.439   3.411   0.284  0.1507  0.4812 -0.4376
 8556SOL    HW126367   7.380   3.420   0.209 -0.4404 -2.3613 -0.4461
 8556SOL    HW226368   7.383   3.422   0.360  0.2039  0.7201 -0.4341
 8557SOL     OW26369   3.548   1.591   2.926 -0.7979 -0.2101 -0.6623
 8557SOL    HW126370   3.588   1.505   2.935 -0.4714 -0.0498 -0.5610
 8557SOL    HW226371   3.517   1.594   2.835 -0.3603 -0.2445 -0.8151
 8558SOL     OW26372   6.864   4.488   7.447 -0.3954  0.2566  0.2657
 8558SOL    HW126373   6.940   4.534   7.413 -0.2699 -0.8659 -1.0443
 8558SOL    HW226374   6.884   4.475   7.540  0.6117  0.7436  0.1306
 8559SOL     OW26375   5.112   1.962   5.895 -0.2245 -0.7356 -0.2078
 8559SOL    HW126376   5.125   2.009   5.977  0.7046  1.3426 -1.4507
 8559SOL    HW226377   5.161   2.014   5.830 -0.5200 -2.5624 -1.9825
 8560SOL     OW26378   0.983   1.202   4.249  0.1632 -0.0742  0.6281
 8560SOL    HW126379   1.037   1.178   4.324  0.2769 -1.1523  0.2208
 8560SOL    HW226380   0.968   1.296   4.259  0.2080 -0.1948  1.9637
 8561SOL     OW26381   1.271   0.784   6.317 -0.0578  0.1443 -0.0725
 8561SOL    HW126382   1.224   0.747   6.242 -2.0970  1.3495  0.5347
 8561SOL    HW226383   1.270   0.715   6.383  0.8283 -0.5423 -0.7443
 8562SOL     OW26384   6.338   7.699   6.034  0.0247 -0.3675  0.0117
 8562SOL    HW126385   6.339   7.635   5.963 -0.1145  1.5523 -1.8163
 8562SOL    HW226386   6.426   7.697   6.070  0.3328 -0.8297 -0.7431
 8563SOL     OW26387   6.363   0.447   6.556  0.1741  0.5241  0.0138
 8563SOL    HW126388   6.432   0.388   6.587  0.0717  1.2757  1.8088
 8563SOL    HW226389   6.315   0.396   6.491  2.1388 -0.1695 -0.9529
 8564SOL     OW26390   1.704   5.478   6.374 -0.0423  0.0628 -0.7703
 8564SOL    HW126391   1.641   5.543   6.345 -0.0410 -0.0391 -1.0014
 8564SOL    HW226392   1.655   5.395   6.375 -0.1443  0.1223 -0.1282
 8565SOL     OW26393   1.801   3.837   1.413  0.3103  0.1398 -0.0276
 8565SOL    HW126394   1.737   3.846   1.343  0.2752  0.1006 -0.0002
 8565SOL    HW226395   1.749   3.824   1.492  0.3530  0.0425 -0.0153
 8566SOL     OW26396   4.828   7.310   1.808  0.0066  0.2010 -0.0325
 8566SOL    HW126397   4.898   7.245   1.808  0.6702  0.8695  1.2054
 8566SOL    HW226398   4.758   7.268   1.858 -0.4179 -0.3918 -1.1014
 8567SOL     OW26399   2.355   2.469   7.504  0.6704  0.0725  0.5132
 8567SOL    HW126400   2.385   2.378   7.499  0.2359 -0.0733  0.5022
 8567SOL    HW226401   2.280   2.467   7.563 -0.0984  0.2125 -0.4310
 8568SOL     OW26402   0.523   7.713   2.443  0.1487  0.1334  0.8991
 8568SOL    HW126403   0.514   7.618   2.449 -1.5242  0.0087 -1.7420
 8568SOL    HW226404   0.447   7.748   2.489 -0.3967  0.0647  0.0792
 8569SOL     OW26405   5.281   7.818   4.892  0.3054  0.2953 -0.3141
 8569SOL    HW126406   5.283   7.731   4.931 -0.3366  0.4608  0.0942
 8569SOL    HW226407   5.350   7.867   4.937 -0.9127  0.7150  1.1924
 8570SOL     OW26408   7.538   7.762   5.683 -0.0032 -0.7222  0.3648
 8570SOL    HW126409   7.548   7.696   5.615  0.0694  0.1914 -0.5335
 8570SOL    HW226410   7.464   7.815   5.654  0.2903 -0.0715  0.7849
 8571SOL     OW26411   2.839   2.926   7.537 -0.8115 -0.0176  0.0773
 8571SOL    HW126412   2.850   3.017   7.510 -0.6852 -0.0698 -0.0454
 8571SOL    HW226413   2.868   2.875   7.462  2.7183 -0.2278  1.4204
 8572SOL     OW26414   6.273   1.249   1.136  0.3764  0.3854 -0.0432
 8572SOL    HW126415   6.344   1.256   1.200  2.1353  0.1649 -1.8342
 8572SOL    HW226416   6.209   1.191   1.177  1.0096  0.9292  1.8217
 8573SOL     OW26417   2.789   6.394   2.404  0.4146  0.4188  0.5672
 8573SOL    HW126418   2.851   6.361   2.338 -0.3679  0.6685 -0.3174
 8573SOL    HW226419   2.835   6.384   2.487  2.5454  2.5287 -0.2144
 8574SOL     OW26420   2.700   3.113   3.888  0.1122 -0.2216  0.2893
 8574SOL    HW126421   2.659   3.124   3.974  0.5561  1.2199  0.3575
 8574SOL    HW226422   2.636   3.065   3.837 -0.4334 -0.5416  1.2425
 8575SOL     OW26423   5.143   2.605   1.167 -0.0764 -0.4704  0.0035
 8575SOL    HW126424   5.186   2.543   1.225 -0.6037 -0.4944  0.3766
 8575SOL    HW226425   5.058   2.621   1.208 -0.7971 -1.1181 -1.1939
 8576SOL     OW26426   0.889   7.624   6.575 -0.6260  0.1307 -0.4683
 8576SOL    HW126427   0.981   7.608   6.594 -0.6446  1.2379  0.6751
 8576SOL    HW226428   0.885   7.717   6.551 -1.5266  0.2896  0.2293
 8577SOL     OW26429   7.823   0.382   0.057 -0.0698 -0.5028  0.5536
 8577SOL    HW126430   7.785   0.459   0.100  1.4399  1.5492 -1.5199
 8577SOL    HW226431   7.914   0.380   0.088  0.5023 -0.0931 -0.9600
 8578SOL     OW26432   3.869   6.507   5.990  0.1704 -0.0085  0.2384
 8578SOL    HW126433   3.852   6.452   6.067 -0.0360 -1.5015 -0.8397
 8578SOL    HW226434   3.875   6.596   6.025  0.4901 -0.7013  2.0330
 8579SOL     OW26435   7.332   7.890   2.145  0.2109  0.1683 -0.0203
 8579SOL    HW126436   7.256   7.898   2.087  0.8242  1.1781 -0.7207
 8579SOL    HW226437   7.397   7.948   2.106  1.2234 -0.4163  0.7620
 8580SOL     OW26438   7.173   1.880   7.193 -0.2091 -0.0500 -0.0738
 8580SOL    HW126439   7.214   1.857   7.277 -0.2624 -0.0781 -0.0552
 8580SOL    HW226440   7.200   1.810   7.134 -2.3251 -1.4842  0.5787
 8581SOL     OW26441   1.884   3.193   7.144  0.1739  0.6912 -0.3994
 8581SOL    HW126442   1.916   3.257   7.208 -1.9346  0.4506  0.9843
 8581SOL    HW226443   1.805   3.232   7.108 -0.5612 -0.6412 -0.3053
 8582SOL     OW26444   4.817   3.980   0.100 -0.4135 -0.7064  0.3361
 8582SOL    HW126445   4.794   4.071   0.123 -0.7055 -0.5379 -0.5972
 8582SOL    HW226446   4.912   3.977   0.107 -0.3846 -0.2685  0.1760
 8583SOL     OW26447   4.759   4.192   4.586  0.0676 -0.0302  0.0914
 8583SOL    HW126448   4.840   4.223   4.627  0.6048 -0.6950 -0.4465
 8583SOL    HW226449   4.748   4.249   4.510 -0.3633  0.5195  0.5542
 8584SOL     OW26450   0.686   0.760   2.931  0.0368  0.5180  0.2612
 8584SOL    HW126451   0.721   0.677   2.960 -0.4712  0.7032  1.4474
 8584SOL    HW226452   0.602   0.737   2.891  0.5006  0.3253 -0.6374
 8585SOL     OW26453   7.638   3.269   6.816  0.4498 -0.3166 -0.5647
 8585SOL    HW126454   7.590   3.229   6.743  0.3267 -0.6229 -0.3169
 8585SOL    HW226455   7.716   3.306   6.775  0.4143 -0.5436 -0.8455
 8586SOL     OW26456   0.041   1.962   4.282  0.8716 -0.3904  0.0425
 8586SOL    HW126457   0.031   2.008   4.365 -1.6514  1.2561 -1.0470
 8586SOL    HW226458   0.072   2.029   4.221  1.0423 -1.1334 -0.7129
 8587SOL     OW26459   3.760   6.147   3.798  0.3618  0.4264  0.4637
 8587SOL    HW126460   3.824   6.197   3.848  0.6918  0.6544 -0.1745
 8587SOL    HW226461   3.754   6.192   3.714 -0.8913  0.6017  0.6287
 8588SOL     OW26462   4.889   3.958   0.581 -0.0819 -0.1904 -0.0606
 8588SOL    HW126463   4.967   3.903   0.577 -0.0437 -0.1652  0.3144
 8588SOL    HW226464   4.920   4.046   0.563  0.0981 -0.0687  0.8070
 8589SOL     OW26465   7.240   3.187   2.510 -0.0669  0.3279  0.3863
 8589SOL    HW126466   7.167   3.239   2.544 -0.3822  1.0138 -1.2410
 8589SOL    HW226467   7.251   3.116   2.574 -1.4971  0.7787  1.1761
 8590SOL     OW26468   2.517   5.050   6.275  0.0003 -0.2141  0.1246
 8590SOL    HW126469   2.572   5.049   6.197 -0.6689 -1.0735 -0.3544
 8590SOL    HW226470   2.429   5.027   6.243 -0.0615 -1.7864  1.2708
 8591SOL     OW26471   2.254   7.587   2.503  0.6306 -0.1363  0.0358
 8591SOL    HW126472   2.227   7.619   2.589  0.1779 -0.1084 -0.1149
 8591SOL    HW226473   2.343   7.621   2.491  0.3796  0.5763  0.1288
 8592SOL     OW26474   1.877   5.711   5.211 -0.0791  0.2547 -0.8115
 8592SOL    HW126475   1.821   5.728   5.135 -1.2403 -0.3308 -0.1213
 8592SOL    HW226476   1.914   5.796   5.233 -2.0565  1.0428 -0.2687
 8593SOL     OW26477   7.115   4.749   5.060  0.9074  0.3272 -0.0974
 8593SOL    HW126478   7.072   4.700   5.130  1.4518  0.0273  0.0330
 8593SOL    HW226479   7.053   4.818   5.038  0.3555 -0.1007  0.0801
 8594SOL     OW26480   3.741   2.913   6.493  0.5677 -0.9806  0.0924
 8594SOL    HW126481   3.679   2.969   6.446  1.5240 -0.3133 -0.4016
 8594SOL    HW226482   3.718   2.824   6.465 -1.0276 -0.8906  0.9601
 8595SOL     OW26483   7.936   0.815   4.643  0.0903  0.3135  0.2313
 8595SOL    HW126484   8.002   0.750   4.670 -0.4031  0.3236  1.5520
 8595SOL    HW226485   7.987   0.886   4.605  0.6732 -0.6474 -0.8517
 8596SOL     OW26486   6.431   0.090   5.010  0.4257  0.4540 -0.3467
 8596SOL    HW126487   6.514   0.131   5.032  1.6805 -1.7912 -0.6487
 8596SOL    HW226488   6.411   0.121   4.922  1.9758 -0.4877 -1.0622
 8597SOL     OW26489   4.385   3.989   0.819 -0.7953  0.4086  0.1319
 8597SOL    HW126490   4.380   4.009   0.912 -0.6280  1.6672 -0.1128
 8597SOL    HW226491   4.467   3.941   0.808 -0.1004  1.4878  0.4366
 8598SOL     OW26492   0.111   0.242   1.966 -0.0905 -0.2930 -0.2368
 8598SOL    HW126493   0.051   0.270   2.035  0.3395 -2.8581  1.3177
 8598SOL    HW226494   0.198   0.256   2.003  0.1571 -1.1768 -0.4546
 8599SOL     OW26495   2.024   4.562   5.607  0.4112 -0.4211 -0.1275
 8599SOL    HW126496   1.965   4.619   5.656  1.2078 -1.4380  2.2076
 8599SOL    HW226497   2.039   4.607   5.524 -0.9597  1.4807  0.5977
 8600SOL     OW26498   5.118   0.788   1.490 -0.5932  0.2224  0.4339
 8600SOL    HW126499   5.167   0.706   1.485  2.2628  1.8654 -1.8372
 8600SOL    HW226500   5.050   0.780   1.424  0.6800  0.2144 -0.9143
 8601SOL     OW26501   2.303   4.568   6.532 -0.5641  0.1505  0.9604
 8601SOL    HW126502   2.290   4.570   6.437 -0.4183 -0.5410  0.9180
 8601SOL    HW226503   2.226   4.522   6.565 -0.6613  0.4739  1.1908
 8602SOL     OW26504   7.038   2.327   5.492 -0.1922  0.0359  0.7016
 8602SOL    HW126505   7.015   2.234   5.497  0.6031 -0.1101  1.9880
 8602SOL    HW226506   6.954   2.371   5.479 -0.4191 -0.9393 -1.7596
 8603SOL     OW26507   3.689   4.654   1.747  0.0941 -0.2081  0.0896
 8603SOL    HW126508   3.782   4.656   1.770  0.4389 -0.1697 -1.2016
 8603SOL    HW226509   3.685   4.697   1.661 -1.4180  1.7081  1.0527
 8604SOL     OW26510   3.079   0.426   3.140 -0.0240  0.5714  0.5943
 8604SOL    HW126511   3.114   0.490   3.202 -0.0076  0.0388  1.1435
 8604SOL    HW226512   3.062   0.348   3.193 -0.7223  0.3585  0.0695
 8605SOL     OW26513   6.007   4.901   1.227 -0.1576 -0.3983  0.3625
 8605SOL    HW126514   6.089   4.853   1.234  0.4535  0.8507  3.0146
 8605SOL    HW226515   6.017   4.975   1.288 -2.1018  1.5149 -1.4355
 8606SOL     OW26516   7.967   2.909   2.646 -0.6234 -0.3370 -0.0754
 8606SOL    HW126517   7.950   2.895   2.553 -0.2795  0.3495 -0.2516
 8606SOL    HW226518   8.061   2.893   2.655 -0.5813 -0.0015  0.0774
 8607SOL     OW26519   1.828   5.475   6.626 -0.0111 -0.8078  0.2275
 8607SOL    HW126520   1.911   5.444   6.589  1.0696  2.4211 -0.4219
 8607SOL    HW226521   1.768   5.477   6.551 -0.0116 -1.0558  0.2200
 8608SOL     OW26522   2.786   6.635   1.301 -0.2713  0.4759 -0.1416
 8608SOL    HW126523   2.811   6.560   1.247  0.0622 -0.3972  1.1913
 8608SOL    HW226524   2.840   6.628   1.380 -1.2614  1.2955  0.6397
 8609SOL     OW26525   2.555   5.780   3.556 -0.2769  0.4450  0.3266
 8609SOL    HW126526   2.570   5.761   3.463 -0.5336  2.1799 -0.1094
 8609SOL    HW226527   2.611   5.718   3.603  1.1190  0.6182 -1.0381
 8610SOL     OW26528   0.123   5.807   6.209  0.4582  0.0662  0.0655
 8610SOL    HW126529   0.207   5.762   6.222  0.4056  0.3520  1.6815
 8610SOL    HW226530   0.059   5.749   6.250  0.2809  1.1586  1.4362
 8611SOL     OW26531   1.874   4.400   0.835 -0.0613  0.2175  0.2599
 8611SOL    HW126532   1.864   4.308   0.861  1.9241 -0.2755 -0.4726
 8611SOL    HW226533   1.790   4.424   0.797 -1.6797 -0.2867  3.2624
 8612SOL     OW26534   6.726   4.304   1.898 -0.3401  0.5052  0.4010
 8612SOL    HW126535   6.757   4.226   1.853  0.1186  0.5419  0.6507
 8612SOL    HW226536   6.666   4.271   1.965 -1.2523  0.4691 -0.4093
 8613SOL     OW26537   0.654   3.034   6.209 -0.4589 -0.5168  0.3196
 8613SOL    HW126538   0.745   3.027   6.240 -0.6334 -0.7197  0.8003
 8613SOL    HW226539   0.604   3.059   6.287 -0.5523  1.5120 -0.3408
 8614SOL     OW26540   2.412   4.749   3.903 -0.6138 -0.4404 -0.4600
 8614SOL    HW126541   2.423   4.760   3.808 -1.6414  0.9406 -0.4468
 8614SOL    HW226542   2.494   4.783   3.940  0.5920 -2.6888 -0.8773
 8615SOL     OW26543   7.129   5.569   1.052  0.7114 -0.5047 -0.1578
 8615SOL    HW126544   7.043   5.604   1.072 -0.5835 -1.3868 -3.5592
 8615SOL    HW226545   7.184   5.646   1.038  0.0556  0.0719  0.3851
 8616SOL     OW26546   4.441   4.479   5.282 -0.0962 -0.3434  0.0445
 8616SOL    HW126547   4.380   4.414   5.317 -1.2637 -0.2758 -1.7502
 8616SOL    HW226548   4.459   4.450   5.193 -0.7504  1.8189 -0.8653
 8617SOL     OW26549   2.344   2.596   7.081 -0.4499 -0.5314 -0.7643
 8617SOL    HW126550   2.323   2.518   7.133  0.3700  0.5169  1.2747
 8617SOL    HW226551   2.362   2.563   6.993 -0.3757 -2.6086 -0.0183
 8618SOL     OW26552   2.878   5.385   0.127  0.1595 -0.0612  0.1367
 8618SOL    HW126553   2.915   5.388   0.038 -0.5993 -0.0957 -0.1913
 8618SOL    HW226554   2.954   5.390   0.185  0.6592  0.0685 -0.5152
 8619SOL     OW26555   1.675   1.102   0.279  0.6228 -0.0768 -0.0467
 8619SOL    HW126556   1.617   1.168   0.243  1.4059  2.0895  2.3363
 8619SOL    HW226557   1.616   1.033   0.311 -0.5682  1.2865  0.8324
 8620SOL     OW26558   6.684   7.373   1.547  0.0817  0.1101 -0.3951
 8620SOL    HW126559   6.748   7.344   1.482 -0.0056 -0.4519 -0.2348
 8620SOL    HW226560   6.635   7.294   1.569  1.4136 -0.1826  1.8331
 8621SOL     OW26561   2.027   0.627   1.932 -0.3828  0.1217  0.2994
 8621SOL    HW126562   1.968   0.564   1.890  0.3851 -0.2928 -0.1839
 8621SOL    HW226563   2.064   0.676   1.859 -1.5316  1.6672  0.7075
 8622SOL     OW26564   3.678   5.664   4.737 -0.6410  0.1640 -0.3383
 8622SOL    HW126565   3.636   5.612   4.806  0.2209  1.3056  1.1156
 8622SOL    HW226566   3.637   5.750   4.743  0.4544  0.6990 -0.2613
 8623SOL     OW26567   7.287   7.658   6.814  0.3647 -0.2698  0.0580
 8623SOL    HW126568   7.320   7.738   6.772  3.1031 -0.6069  1.3396
 8623SOL    HW226569   7.323   7.587   6.761 -0.9383 -0.6914 -0.2926
 8624SOL     OW26570   5.515   2.608   3.020 -0.4171 -0.4448  0.2293
 8624SOL    HW126571   5.428   2.593   2.983  0.7718 -0.4397 -2.8335
 8624SOL    HW226572   5.573   2.550   2.971  1.5835  0.8917  0.8714
 8625SOL     OW26573   4.753   0.848   4.224 -0.2561  0.3297  0.5134
 8625SOL    HW126574   4.691   0.821   4.156 -0.9493  0.8831  0.9051
 8625SOL    HW226575   4.700   0.899   4.285  0.4533  0.2181  1.2343
 8626SOL     OW26576   3.375   1.108   0.959  0.5141  0.3214  0.4388
 8626SOL    HW126577   3.320   1.114   1.037  1.0816  0.1350  0.8613
 8626SOL    HW226578   3.318   1.070   0.891 -0.4285  1.9010  0.3179
 8627SOL     OW26579   6.014   1.686   1.751  0.5425  0.0218 -0.0519
 8627SOL    HW126580   5.942   1.714   1.694  2.0614  0.7341 -1.7287
 8627SOL    HW226581   6.037   1.764   1.801  0.3405 -0.1356  0.2929
 8628SOL     OW26582   1.879   5.759   6.675  0.0306  0.3019 -0.3361
 8628SOL    HW126583   1.973   5.767   6.666  0.1518  0.0950  0.6133
 8628SOL    HW226584   1.864   5.666   6.691 -0.2961  0.3808 -0.1596
 8629SOL     OW26585   6.238   5.545   1.043  0.0743 -0.7411  0.1799
 8629SOL    HW126586   6.166   5.607   1.048  0.4370 -0.3986  1.8413
 8629SOL    HW226587   6.317   5.600   1.042  0.4149 -1.1213  2.0712
 8630SOL     OW26588   0.352   1.607   5.220  0.2439 -0.0207  0.1659
 8630SOL    HW126589   0.374   1.693   5.255 -2.2719 -0.0078  1.9694
 8630SOL    HW226590   0.334   1.622   5.127  0.4766  1.2708  0.3164
 8631SOL     OW26591   5.595   5.555   1.691 -0.2441  0.2540  0.2716
 8631SOL    HW126592   5.638   5.470   1.700 -0.4708  0.1295  0.1720
 8631SOL    HW226593   5.664   5.619   1.711 -0.1201  0.0433  0.5187
 8632SOL     OW26594   4.775   5.812   0.255  0.3618  0.0763  0.2016
 8632SOL    HW126595   4.801   5.829   0.346  0.4511  0.1399  0.1642
 8632SOL    HW226596   4.796   5.893   0.209  0.1664  0.1029  0.1556
 8633SOL     OW26597   0.271   5.887   0.195  0.4923  0.0910 -0.3371
 8633SOL    HW126598   0.197   5.943   0.168 -0.1869  0.3422  1.8760
 8633SOL    HW226599   0.332   5.948   0.236 -0.1357 -0.6954  1.8640
 8634SOL     OW26600   2.370   5.863   3.096 -0.2418  0.1294 -0.2964
 8634SOL    HW126601   2.325   5.945   3.075 -1.7317 -1.1066 -2.3676
 8634SOL    HW226602   2.303   5.810   3.140 -0.2951 -1.0237 -1.6813
 8635SOL     OW26603   5.200   6.209   0.241 -0.0637 -0.2524  0.1811
 8635SOL    HW126604   5.255   6.281   0.207  1.3416 -0.8007  1.1865
 8635SOL    HW226605   5.136   6.252   0.298 -0.7617  0.4095 -1.0657
 8636SOL     OW26606   1.319   2.360   7.411 -0.3871  0.2114 -0.2459
 8636SOL    HW126607   1.276   2.299   7.471  0.2140  0.9721  0.9744
 8636SOL    HW226608   1.302   2.447   7.448  1.0041  0.6185 -0.5040
 8637SOL     OW26609   0.623   5.681   4.700 -0.3941 -0.0814 -0.0101
 8637SOL    HW126610   0.710   5.642   4.711 -0.3221 -0.1314 -0.6894
 8637SOL    HW226611   0.567   5.608   4.674 -1.1386 -0.4711  2.5054
 8638SOL     OW26612   5.668   3.384   5.719  0.3556 -0.2382  0.8735
 8638SOL    HW126613   5.573   3.379   5.710  0.3377 -0.0719  0.9653
 8638SOL    HW226614   5.683   3.377   5.814  0.4242 -0.1052  0.8725
 8639SOL     OW26615   6.951   4.571   1.437 -0.4227  0.2885 -0.2344
 8639SOL    HW126616   6.985   4.550   1.524  0.3298  0.6051 -0.4440
 8639SOL    HW226617   6.861   4.540   1.439 -0.2445 -0.2260  0.4698
 8640SOL     OW26618   0.713   6.222   1.319 -0.1767 -0.0414 -0.2389
 8640SOL    HW126619   0.783   6.157   1.319 -0.0868  0.0311  0.9877
 8640SOL    HW226620   0.682   6.224   1.229  0.9586 -0.5516 -0.6613
 8641SOL     OW26621   6.218   1.385   7.024  0.3223 -0.1454 -0.2589
 8641SOL    HW126622   6.225   1.363   7.117  0.5865 -2.3163 -0.7376
 8641SOL    HW226623   6.135   1.345   6.996 -0.0609  1.0157 -0.8490
 8642SOL     OW26624   5.650   4.184   6.892  0.4126 -0.4440 -0.9153
 8642SOL    HW126625   5.560   4.182   6.924  0.8495 -1.8279  0.3153
 8642SOL    HW226626   5.666   4.276   6.870 -1.0246 -0.0401 -0.3590
 8643SOL     OW26627   0.845   0.738   5.465  0.2427 -0.0472 -0.2486
 8643SOL    HW126628   0.939   0.731   5.480  0.1999  0.2382  0.1512
 8643SOL    HW226629   0.808   0.661   5.506  0.3690 -0.5485 -1.0456
 8644SOL     OW26630   5.616   3.079   3.205  0.2802 -0.4962 -1.1372
 8644SOL    HW126631   5.553   3.037   3.147  0.1149  0.2501 -1.5016
 8644SOL    HW226632   5.577   3.071   3.292 -0.6853  0.5761 -1.4349
 8645SOL     OW26633   2.845   4.732   3.711 -0.4047  0.2768  0.3799
 8645SOL    HW126634   2.855   4.822   3.683 -0.0437  0.1538  0.1113
 8645SOL    HW226635   2.780   4.695   3.650  0.3523  0.0196 -0.3018
 8646SOL     OW26636   3.267   4.139   0.857  0.1488 -0.5129 -0.3169
 8646SOL    HW126637   3.296   4.214   0.804  0.6296 -0.6170 -0.2019
 8646SOL    HW226638   3.216   4.178   0.928 -1.0245 -0.4067 -1.1854
 8647SOL     OW26639   1.600   3.296   2.497  0.9929  0.3154 -0.5672
 8647SOL    HW126640   1.647   3.337   2.569  0.5140 -1.0755  0.5665
 8647SOL    HW226641   1.658   3.307   2.421  2.3782  0.0863  0.4261
 8648SOL     OW26642   4.492   2.055   4.638  0.0802 -0.1507 -0.3123
 8648SOL    HW126643   4.491   2.032   4.730  0.1358  1.0585  0.0147
 8648SOL    HW226644   4.491   1.972   4.591 -0.0453 -0.7680  0.7759
 8649SOL     OW26645   0.940   7.730   4.052  0.3503 -0.0962 -0.5205
 8649SOL    HW126646   0.891   7.655   4.017  2.4304 -1.3055 -1.0130
 8649SOL    HW226647   1.010   7.744   3.989  2.2309 -0.1753  1.4344
 8650SOL     OW26648   7.570   1.560   4.045 -0.2549 -0.0518  0.3998
 8650SOL    HW126649   7.662   1.553   4.021  0.1802 -0.3949  2.0349
 8650SOL    HW226650   7.567   1.632   4.108 -0.8626 -0.8885  1.3654
 8651SOL     OW26651   3.759   7.127   2.925  0.8950 -0.2963 -0.0300
 8651SOL    HW126652   3.817   7.185   2.974  0.3375 -0.7272  1.1680
 8651SOL    HW226653   3.697   7.187   2.881  0.6402  0.0537  0.7829
 8652SOL     OW26654   5.085   5.059   7.782  0.2622  0.0588  0.5070
 8652SOL    HW126655   5.065   5.097   7.867 -2.6280  0.2651 -0.1561
 8652SOL    HW226656   5.027   5.104   7.721  0.8887 -1.3929 -1.2704
 8653SOL     OW26657   5.147   7.941   2.656  0.2328 -0.2002 -0.3986
 8653SOL    HW126658   5.189   8.013   2.703  0.6355 -0.3925 -0.4613
 8653SOL    HW226659   5.217   7.902   2.604  0.1982 -1.1183  0.2148
 8654SOL     OW26660   2.358   5.887   2.708  0.6863  0.0451  0.1616
 8654SOL    HW126661   2.433   5.863   2.653  0.1905 -2.6618  0.5091
 8654SOL    HW226662   2.316   5.803   2.729 -3.7677  1.5103 -1.7587
 8655SOL     OW26663   0.936   5.644   1.806  0.9666 -0.3842  0.2835
 8655SOL    HW126664   0.840   5.646   1.810  1.0064  0.7105  1.5152
 8655SOL    HW226665   0.957   5.562   1.762 -0.5290 -0.9531  0.5822
 8656SOL     OW26666   5.577   2.773   7.581 -0.0526 -0.4058 -0.2468
 8656SOL    HW126667   5.507   2.710   7.563 -0.2331 -0.1861 -0.3077
 8656SOL    HW226668   5.557   2.848   7.525  1.5319 -1.2782 -2.1208
 8657SOL     OW26669   2.669   3.523   6.423  0.9059  0.1661  0.1516
 8657SOL    HW126670   2.622   3.546   6.343  1.1998  0.1303 -0.0322
 8657SOL    HW226671   2.752   3.486   6.393  0.9330 -0.0404  0.4689
 8658SOL     OW26672   4.055   1.142   7.963 -0.3189 -0.2883 -0.2455
 8658SOL    HW126673   4.015   1.078   8.022 -1.1547 -1.5733 -2.0970
 8658SOL    HW226674   3.981   1.195   7.932  0.2818  1.1953  0.7869
 8659SOL     OW26675   1.448   7.270   4.044 -0.0075  0.4279 -0.0121
 8659SOL    HW126676   1.476   7.179   4.040 -0.2245  0.3222  0.7898
 8659SOL    HW226677   1.436   7.288   4.137  0.8801  1.5305 -0.0754
 8660SOL     OW26678   5.473   1.322   0.960 -0.0961 -0.6824 -0.5097
 8660SOL    HW126679   5.393   1.273   0.975  0.5197 -1.0529  2.1372
 8660SOL    HW226680   5.500   1.299   0.871 -2.9460 -0.4052 -1.5338
 8661SOL     OW26681   4.393   4.429   6.120 -0.3821  0.0204  0.2067
 8661SOL    HW126682   4.408   4.505   6.176 -0.2464  0.1930 -0.0619
 8661SOL    HW226683   4.479   4.405   6.087 -0.1932 -1.1668  1.4434
 8662SOL     OW26684   1.588   2.409   2.439 -0.3720 -0.2186 -0.2841
 8662SOL    HW126685   1.634   2.489   2.415 -1.2805  0.8717  1.3966
 8662SOL    HW226686   1.657   2.346   2.459  0.4255  1.1083  1.3398
 8663SOL     OW26687   4.294   0.345   0.251  0.4970  0.3416 -0.2569
 8663SOL    HW126688   4.363   0.372   0.312 -0.2417  0.0716  0.7089
 8663SOL    HW226689   4.313   0.253   0.233 -0.3939 -0.1399  1.1182
 8664SOL     OW26690   7.890   3.437   3.942  0.2288  0.2322 -0.0645
 8664SOL    HW126691   7.855   3.360   3.987  1.1323  0.1767  0.5659
 8664SOL    HW226692   7.858   3.428   3.852 -0.3557 -0.4477  0.1965
 8665SOL     OW26693   3.777   1.730   5.832  0.1397 -0.6973  0.4555
 8665SOL    HW126694   3.685   1.709   5.814 -0.3753  0.1540  1.9060
 8665SOL    HW226695   3.802   1.788   5.760 -0.7346 -0.2703  0.4733
 8666SOL     OW26696   1.339   1.179   2.523  0.6287  0.4447 -0.0282
 8666SOL    HW126697   1.287   1.243   2.475  2.0662  1.5306 -0.1986
 8666SOL    HW226698   1.279   1.107   2.539 -0.2670  0.5663 -2.3685
 8667SOL     OW26699   6.086   5.184   1.728 -0.3138  0.2487 -0.0191
 8667SOL    HW126700   6.176   5.152   1.735 -0.2624  0.7220  2.5509
 8667SOL    HW226701   6.095   5.278   1.716 -0.4466  0.3268  0.4651
 8668SOL     OW26702   2.213   1.239   7.325  0.2705 -0.0827 -0.2257
 8668SOL    HW126703   2.261   1.274   7.250  2.5630 -2.1474  0.1589
 8668SOL    HW226704   2.143   1.303   7.340  2.0463  2.4121 -1.7093
 8669SOL     OW26705   4.059   5.484   5.631  0.1658  0.2497  0.4209
 8669SOL    HW126706   4.001   5.484   5.707  0.6026 -1.1175  0.7827
 8669SOL    HW226707   4.121   5.413   5.648  1.2759  0.9737 -0.4650
 8670SOL     OW26708   5.539   0.640   1.598 -0.5562 -0.1067  0.0832
 8670SOL    HW126709   5.448   0.636   1.570 -0.5488 -0.3866  0.0903
 8670SOL    HW226710   5.561   0.549   1.620 -0.2080 -0.0799 -0.1387
 8671SOL     OW26711   6.451   1.906   2.370  0.2556 -0.6460 -0.8373
 8671SOL    HW126712   6.400   1.825   2.378  2.7703 -2.2076  1.2759
 8671SOL    HW226713   6.518   1.887   2.305  0.4888 -0.0496 -0.7837
 8672SOL     OW26714   6.659   6.067   3.219 -0.1630  0.6975 -0.0392
 8672SOL    HW126715   6.667   6.152   3.177  0.3131  1.4431  1.4752
 8672SOL    HW226716   6.598   6.082   3.292 -0.2524 -0.3111  0.1178
 8673SOL     OW26717   4.191   7.661   1.291 -0.3468  0.1690 -0.0179
 8673SOL    HW126718   4.147   7.732   1.337 -1.8782 -0.9275  0.2555
 8673SOL    HW226719   4.184   7.585   1.349 -0.8685 -0.8217 -1.3125
 8674SOL     OW26720   1.166   3.808   4.019  0.3766  0.3984  0.7744
 8674SOL    HW126721   1.228   3.760   3.964  1.6865  3.0353 -0.2451
 8674SOL    HW226722   1.084   3.804   3.971  0.8763  0.5121 -0.1281
 8675SOL     OW26723   0.366   7.011   6.818  0.5531 -0.4360  0.6160
 8675SOL    HW126724   0.411   7.071   6.877  0.5347 -1.2205  1.4409
 8675SOL    HW226725   0.383   6.924   6.853  2.1738 -1.1241 -1.6147
 8676SOL     OW26726   6.472   5.966   0.640  0.1239 -0.0940  0.0937
 8676SOL    HW126727   6.540   6.032   0.648  0.9367 -0.8967  0.0338
 8676SOL    HW226728   6.461   5.955   0.545  0.6724 -0.7011  0.0897
 8677SOL     OW26729   3.421   5.312   6.730  0.3145 -0.5612 -0.1571
 8677SOL    HW126730   3.412   5.397   6.686  0.3416 -1.1952 -1.4330
 8677SOL    HW226731   3.334   5.296   6.766  0.4542  0.2539  0.5848
 8678SOL     OW26732   2.436   2.159   2.284 -0.4592 -0.2042 -0.2101
 8678SOL    HW126733   2.471   2.248   2.280 -0.2918 -0.2448  0.2953
 8678SOL    HW226734   2.475   2.114   2.209 -0.8488  0.2548 -0.6972
 8679SOL     OW26735   5.624   1.500   1.779 -0.2416  0.2749 -0.5194
 8679SOL    HW126736   5.682   1.473   1.851 -0.1513 -0.8535 -1.0024
 8679SOL    HW226737   5.545   1.531   1.824 -0.8934 -2.0452  0.0860
 8680SOL     OW26738   1.225   7.947   4.380  0.5315 -0.6355 -0.0020
 8680SOL    HW126739   1.151   8.009   4.380  0.4725 -0.6504 -1.7477
 8680SOL    HW226740   1.251   7.942   4.288  3.9412  0.8124  0.7584
 8681SOL     OW26741   5.499   1.339   3.225  0.3037 -0.2150 -0.9979
 8681SOL    HW126742   5.516   1.430   3.251  0.7111 -0.1014 -1.6360
 8681SOL    HW226743   5.455   1.346   3.140 -0.7904 -0.5872 -0.4824
 8682SOL     OW26744   2.770   2.208   3.912 -0.3002  0.2415  0.1118
 8682SOL    HW126745   2.848   2.254   3.881 -0.2247 -1.5855 -2.7785
 8682SOL    HW226746   2.707   2.277   3.932  1.6640  1.7232  1.5999
 8683SOL     OW26747   7.285   7.344   0.699  0.1759  0.0931 -0.3711
 8683SOL    HW126748   7.202   7.369   0.658  0.0401 -1.8090 -1.3487
 8683SOL    HW226749   7.344   7.416   0.677 -0.6705  0.5027 -1.4311
 8684SOL     OW26750   5.715   4.081   6.225  0.2355  0.3870 -0.1152
 8684SOL    HW126751   5.742   3.990   6.237  0.3137  0.5015  0.6500
 8684SOL    HW226752   5.624   4.083   6.254  0.1025  0.4708 -0.5319
 8685SOL     OW26753   0.462   4.573   4.104  0.6621 -0.0579  0.6967
 8685SOL    HW126754   0.553   4.592   4.128  0.4473  0.6558  0.9669
 8685SOL    HW226755   0.427   4.526   4.180  0.4325  0.8219  1.1416
 8686SOL     OW26756   2.729   4.177   2.540  0.0380 -0.7119 -0.5415
 8686SOL    HW126757   2.746   4.083   2.543 -0.6389 -0.8157  0.2014
 8686SOL    HW226758   2.651   4.190   2.594  0.4896  0.3565 -0.1069
 8687SOL     OW26759   7.668   5.066   2.870 -0.0644  0.3334 -0.0772
 8687SOL    HW126760   7.632   5.017   2.944 -1.8640  0.8600 -0.5692
 8687SOL    HW226761   7.706   4.998   2.813 -0.5055 -0.2700  0.3303
 8688SOL     OW26762   2.056   6.308   3.027 -0.1193  0.3465  0.3939
 8688SOL    HW126763   2.006   6.274   2.953 -1.2422  0.7104  0.9698
 8688SOL    HW226764   1.999   6.296   3.103  0.0830  2.0403  0.8569
 8689SOL     OW26765   0.877   6.854   1.339  0.3865  0.0827  0.1345
 8689SOL    HW126766   0.799   6.888   1.294  0.5472  1.4321  0.8292
 8689SOL    HW226767   0.850   6.846   1.430  0.6413 -0.8400  0.1378
 8690SOL     OW26768   5.484   0.339   5.081 -0.3960  0.3288 -0.3086
 8690SOL    HW126769   5.409   0.361   5.136 -1.0835 -0.4590 -0.8959
 8690SOL    HW226770   5.478   0.400   5.007 -0.8685 -0.1677 -0.6937
 8691SOL     OW26771   0.449   3.576   1.683 -0.4027  0.0325 -0.2108
 8691SOL    HW126772   0.434   3.662   1.643  0.4632  0.7428  0.9199
 8691SOL    HW226773   0.536   3.550   1.653 -0.2752 -0.0145  0.1887
 8692SOL     OW26774   2.596   3.248   1.349 -0.5371  0.3295 -0.3320
 8692SOL    HW126775   2.615   3.261   1.256  0.8707  0.5806 -0.0302
 8692SOL    HW226776   2.596   3.336   1.387 -1.3501  0.2496 -0.1312
 8693SOL     OW26777   6.585   5.926   7.565 -0.4336  0.3132 -0.0212
 8693SOL    HW126778   6.658   5.946   7.508  0.9123 -2.9819  0.3394
 8693SOL    HW226779   6.542   5.851   7.524 -1.8990  0.4232  1.2264
 8694SOL     OW26780   6.144   3.246   1.878  0.2481  0.0714 -0.6418
 8694SOL    HW126781   6.152   3.154   1.852 -0.9540  0.5066 -2.7824
 8694SOL    HW226782   6.226   3.287   1.851  2.0034 -0.7588  2.7562
 8695SOL     OW26783   2.581   5.781   5.370 -0.2795  0.4540  0.4406
 8695SOL    HW126784   2.675   5.782   5.351 -0.0132  0.3344  1.7009
 8695SOL    HW226785   2.540   5.771   5.284  0.7655  2.8497 -0.4273
 8696SOL     OW26786   7.719   0.930   4.788 -0.2700 -0.1002 -0.0392
 8696SOL    HW126787   7.799   0.883   4.763 -0.1862 -0.5497  1.0090
 8696SOL    HW226788   7.653   0.861   4.795 -0.4537  0.1047  0.2760
 8697SOL     OW26789   0.946   0.674   1.918 -0.5836  0.7040 -0.4237
 8697SOL    HW126790   1.011   0.702   1.853  1.0037 -1.2471  0.1987
 8697SOL    HW226791   0.942   0.746   1.980  1.3657  0.7220 -0.2563
 8698SOL     OW26792   3.885   0.422   6.639 -0.0166 -0.4617  0.7369
 8698SOL    HW126793   3.845   0.447   6.556  0.7687 -0.6698  0.2899
 8698SOL    HW226794   3.891   0.327   6.636 -0.6304 -0.5322  1.3419
 8699SOL     OW26795   0.692   7.526   2.878  0.2420 -0.1509  0.2877
 8699SOL    HW126796   0.778   7.566   2.862  0.3868 -0.7334 -0.4498
 8699SOL    HW226797   0.631   7.600   2.880  0.6243  0.1874 -0.2047
 8700SOL     OW26798   6.620   0.255   2.681  0.0098 -0.7608 -0.5815
 8700SOL    HW126799   6.666   0.220   2.758  0.8552  1.8847  0.2347
 8700SOL    HW226800   6.536   0.284   2.716  0.7149  1.2143 -0.3672
 8701SOL     OW26801   1.256   4.845   0.647  0.2260 -0.2417 -0.0875
 8701SOL    HW126802   1.297   4.838   0.733  1.3447 -1.6203 -0.7034
 8701SOL    HW226803   1.196   4.771   0.642 -1.6641  1.1900  0.4082
 8702SOL     OW26804   6.756   5.097   0.920 -0.0097 -0.5009 -0.2623
 8702SOL    HW126805   6.678   5.056   0.883  0.4243 -2.5493  0.9041
 8702SOL    HW226806   6.782   5.163   0.856 -2.2847 -0.2362 -0.9939
 8703SOL     OW26807   6.440   0.255   0.728 -0.0793 -0.9102 -0.6582
 8703SOL    HW126808   6.442   0.160   0.728  2.0571 -0.9188 -1.6602
 8703SOL    HW226809   6.387   0.278   0.651 -0.4287 -1.2783 -0.5281
 8704SOL     OW26810   1.770   1.796   4.142  0.5212 -0.1193 -0.2497
 8704SOL    HW126811   1.756   1.758   4.228  0.9483 -1.0031 -0.5648
 8704SOL    HW226812   1.853   1.759   4.112  0.3668  0.1666 -1.0513
 8705SOL     OW26813   2.096   4.521   7.161  0.3770  0.1497 -0.2222
 8705SOL    HW126814   2.136   4.434   7.161  1.7701  0.7355 -1.6862
 8705SOL    HW226815   2.117   4.556   7.248 -0.8674 -1.2015  0.6869
 8706SOL     OW26816   0.360   4.273   0.116 -0.1106  0.7022  0.6370
 8706SOL    HW126817   0.374   4.262   0.210  0.3540  0.4325  0.5423
 8706SOL    HW226818   0.338   4.186   0.084 -0.7712  0.8889  0.5730
 8707SOL     OW26819   2.000   6.863   7.389  0.1507  0.4545 -0.6387
 8707SOL    HW126820   1.952   6.803   7.445  1.3743 -0.9803 -1.0716
 8707SOL    HW226821   1.932   6.910   7.341 -0.8383 -0.8446 -0.5564
 8708SOL     OW26822   2.195   5.443   3.937 -0.4889  0.3309  0.2331
 8708SOL    HW126823   2.267   5.489   3.894 -0.6587 -0.5581 -1.0470
 8708SOL    HW226824   2.173   5.498   4.013  1.8997  0.3349  1.0018
 8709SOL     OW26825   0.004   5.256   0.940  0.0059 -0.7128  0.1544
 8709SOL    HW126826   0.007   5.335   0.886 -1.7226 -0.2617  0.6542
 8709SOL    HW226827   0.038   5.187   0.883  2.5832  0.5174  0.0544
 8710SOL     OW26828   6.083   2.554   0.483 -0.1133 -0.1180  0.6576
 8710SOL    HW126829   5.993   2.563   0.451  0.0473 -2.2196 -0.5869
 8710SOL    HW226830   6.127   2.633   0.453 -1.0885  0.0240 -0.4728
 8711SOL     OW26831   2.250   2.744   3.999  0.1981 -0.1894  0.0206
 8711SOL    HW126832   2.203   2.661   3.990  0.1831 -0.3931  1.7400
 8711SOL    HW226833   2.182   2.808   4.021  0.2929  0.1658 -0.7013
 8712SOL     OW26834   4.359   6.995   3.799  0.2045 -0.0230 -0.4713
 8712SOL    HW126835   4.318   6.934   3.860  0.3320 -0.3169 -0.6780
 8712SOL    HW226836   4.300   7.070   3.796  0.3943  0.1673  0.3191
 8713SOL     OW26837   0.813   6.867   3.367 -0.1406 -0.4243  0.3768
 8713SOL    HW126838   0.764   6.889   3.446  0.2792  0.8595  0.3146
 8713SOL    HW226839   0.747   6.859   3.298 -0.3704  0.1275  0.5283
 8714SOL     OW26840   7.929   3.089   1.113  0.4577  0.1402 -0.7330
 8714SOL    HW126841   7.834   3.079   1.120  0.2923  1.8857  0.1494
 8714SOL    HW226842   7.960   3.084   1.204  0.9205  1.7141 -0.7682
 8715SOL     OW26843   0.211   0.552   2.570  0.0526  0.2534 -0.0737
 8715SOL    HW126844   0.129   0.548   2.619  0.4102 -0.4680  0.4940
 8715SOL    HW226845   0.271   0.495   2.619  0.8401  0.6285 -0.5752
 8716SOL     OW26846   3.930   3.016   7.413  0.2677  0.5550 -0.3417
 8716SOL    HW126847   3.937   3.096   7.464 -0.4786  0.0593  0.5666
 8716SOL    HW226848   4.021   2.995   7.388  0.6261  0.8930  0.6434
 8717SOL     OW26849   1.743   1.605   6.095 -0.3028  0.1867  1.1598
 8717SOL    HW126850   1.654   1.618   6.128 -0.6571  0.6023  0.0804
 8717SOL    HW226851   1.792   1.573   6.171 -1.5590 -0.8808  1.5656
 8718SOL     OW26852   5.385   3.720   1.708  0.0284 -0.3217 -0.1826
 8718SOL    HW126853   5.382   3.672   1.790  0.3824 -0.5238 -0.2834
 8718SOL    HW226854   5.294   3.735   1.685 -0.0666  0.3057  0.5762
 8719SOL     OW26855   4.301   6.121   0.624  0.4831  0.1664  0.4136
 8719SOL    HW126856   4.245   6.149   0.696  0.1812 -0.6445  0.4996
 8719SOL    HW226857   4.367   6.064   0.665  0.2355 -0.4012  0.0399
 8720SOL     OW26858   2.919   3.989   2.729  0.1609 -0.4281 -0.1567
 8720SOL    HW126859   2.997   3.935   2.716  0.7153  0.9370 -3.5752
 8720SOL    HW226860   2.848   3.939   2.689 -0.4135 -0.8337  1.2940
 8721SOL     OW26861   1.211   6.267   5.687  0.1868 -0.1893  0.5520
 8721SOL    HW126862   1.166   6.189   5.719  0.1901  0.2642  1.7267
 8721SOL    HW226863   1.198   6.265   5.593  1.1614 -2.2163  0.4008
 8722SOL     OW26864   2.129   1.057   1.856  0.2557  0.0232 -0.1237
 8722SOL    HW126865   2.219   1.025   1.859  0.2342  0.0480  0.9486
 8722SOL    HW226866   2.100   1.038   1.767  1.4567  0.3851 -0.6099
 8723SOL     OW26867   0.245   1.088   6.320 -0.4795  0.0128  0.3843
 8723SOL    HW126868   0.339   1.105   6.325  0.0106 -0.7698 -3.2912
 8723SOL    HW226869   0.216   1.135   6.241 -3.0337 -0.4182  0.9699
 8724SOL     OW26870   7.257   6.132   5.951 -0.0731  0.2958 -0.1254
 8724SOL    HW126871   7.161   6.135   5.946 -0.0386  1.2487 -0.5862
 8724SOL    HW226872   7.284   6.094   5.868 -0.0926 -2.2526  0.9370
 8725SOL     OW26873   1.211   7.936   2.411  0.8118 -0.6433 -1.0158
 8725SOL    HW126874   1.220   7.944   2.316 -1.1420 -0.7801 -1.2449
 8725SOL    HW226875   1.135   7.989   2.433 -1.5250 -4.0565 -0.1411
 8726SOL     OW26876   4.551   4.359   0.351 -0.1376 -0.3634 -0.1043
 8726SOL    HW126877   4.471   4.400   0.383 -0.2130 -1.2387  0.9322
 8726SOL    HW226878   4.617   4.429   0.352 -0.8699  0.3576 -0.9578
 8727SOL     OW26879   7.643   7.469   5.008  0.0885  0.0169 -0.4409
 8727SOL    HW126880   7.642   7.394   5.068 -1.8141 -0.3065 -0.8195
 8727SOL    HW226881   7.612   7.542   5.062  0.5733  0.2445 -0.4577
 8728SOL     OW26882   7.961   3.216   6.593 -0.1492  0.4018  0.4550
 8728SOL    HW126883   8.027   3.273   6.554 -0.6407 -0.3013 -1.5230
 8728SOL    HW226884   7.901   3.276   6.639 -0.1091  1.3950 -0.7354
 8729SOL     OW26885   6.745   7.174   5.319 -0.2112  0.1292 -0.1173
 8729SOL    HW126886   6.679   7.222   5.269 -0.0548  0.4328 -0.0334
 8729SOL    HW226887   6.828   7.198   5.278 -0.1733 -0.4790 -0.4088
 8730SOL     OW26888   5.318   0.787   3.565 -0.1886 -0.8130  0.2359
 8730SOL    HW126889   5.344   0.868   3.520  0.2317 -0.2891  1.3925
 8730SOL    HW226890   5.228   0.772   3.537  0.2331 -0.8298 -1.2378
 8731SOL     OW26891   6.715   3.171   1.522  0.1304  0.2564  0.3212
 8731SOL    HW126892   6.621   3.178   1.503 -0.2096 -0.8115  1.5347
 8731SOL    HW226893   6.756   3.234   1.462 -1.2295 -0.2167 -1.1590
 8732SOL     OW26894   0.956   4.007   5.380  0.0909 -0.1903  0.1500
 8732SOL    HW126895   0.925   3.985   5.468  0.7709 -0.7919  0.2467
 8732SOL    HW226896   1.048   4.031   5.392  0.6917 -1.9428 -0.5948
 8733SOL     OW26897   6.657   7.310   6.081  0.4049  0.3891 -0.0327
 8733SOL    HW126898   6.650   7.328   5.987 -0.0345  0.5583  0.0325
 8733SOL    HW226899   6.573   7.272   6.105 -0.0464  1.7212  0.5804
 8734SOL     OW26900   2.985   2.940   0.653  0.8003 -0.4885  0.3374
 8734SOL    HW126901   3.066   2.904   0.614  1.3316  0.2338  0.7541
 8734SOL    HW226902   2.949   2.995   0.584  0.9635 -0.3642  0.3500
 8735SOL     OW26903   5.689   0.442   2.560  0.2069 -0.0426  0.1526
 8735SOL    HW126904   5.758   0.391   2.519  0.5454  0.0730  0.5675
 8735SOL    HW226905   5.690   0.525   2.514 -0.9252 -0.6982 -1.1076
 8736SOL     OW26906   0.936   4.846   2.649  0.1158  0.0861 -0.3661
 8736SOL    HW126907   0.911   4.849   2.741  0.0647  1.4339 -0.4176
 8736SOL    HW226908   0.975   4.759   2.638  1.9391  0.6232  1.3908
 8737SOL     OW26909   2.375   1.893   0.593 -0.1689 -0.0854 -0.1308
 8737SOL    HW126910   2.402   1.980   0.565 -0.7367  0.4444  0.9128
 8737SOL    HW226911   2.446   1.863   0.650 -0.0918 -0.2055 -0.2888
 8738SOL     OW26912   7.589   0.386   1.880 -0.6339  1.0792 -0.3245
 8738SOL    HW126913   7.684   0.397   1.870 -0.2450 -0.9831  0.6299
 8738SOL    HW226914   7.564   0.455   1.942  0.2279  1.6398 -0.5786
 8739SOL     OW26915   7.197   6.750   0.529 -0.3376 -0.2089  0.3481
 8739SOL    HW126916   7.282   6.717   0.502 -0.8803 -2.3047  0.9741
 8739SOL    HW226917   7.216   6.811   0.600  0.6528 -0.4299  0.2868
 8740SOL     OW26918   6.831   5.039   3.822 -0.1425 -0.3260  0.3697
 8740SOL    HW126919   6.860   4.948   3.812  1.7657  0.2953 -0.1089
 8740SOL    HW226920   6.897   5.079   3.879  1.1140  1.6374 -2.2834
 8741SOL     OW26921   2.728   4.787   1.936  0.4715 -0.6145  0.1694
 8741SOL    HW126922   2.821   4.773   1.918  0.1534  0.8139 -3.6595
 8741SOL    HW226923   2.725   4.872   1.979  0.9689 -1.3959  1.8194
 8742SOL     OW26924   0.027   3.131   5.204 -0.5701  0.3964  0.2129
 8742SOL    HW126925  -0.026   3.122   5.125  1.6743  0.7104 -1.4413
 8742SOL    HW226926   0.099   3.069   5.192 -0.6235 -0.2120  2.4780
 8743SOL     OW26927   1.748   0.577   4.894 -0.1493 -0.3290  0.4879
 8743SOL    HW126928   1.654   0.597   4.896 -0.7653 -2.3989 -1.8021
 8743SOL    HW226929   1.755   0.491   4.936  0.8172  0.0180  1.0612
 8744SOL     OW26930   5.230   2.982   5.239  0.3335 -0.2100  0.2577
 8744SOL    HW126931   5.197   3.071   5.226 -0.1497 -0.4019  0.1440
 8744SOL    HW226932   5.179   2.929   5.178  0.5855 -0.5736  0.3604
 8745SOL     OW26933   6.377   5.293   4.472  0.1144 -0.1883 -0.2077
 8745SOL    HW126934   6.402   5.357   4.406  0.5596 -0.7370 -0.5866
 8745SOL    HW226935   6.455   5.285   4.528 -0.2868  0.3315  0.4316
 8746SOL     OW26936   3.794   6.907   3.763 -0.3197  0.1053 -0.3615
 8746SOL    HW126937   3.868   6.968   3.758 -0.7618  0.6465 -0.3707
 8746SOL    HW226938   3.734   6.936   3.695 -1.9329  1.5672  1.5465
 8747SOL     OW26939   2.267   7.665   3.053 -0.1831  0.3038  0.3791
 8747SOL    HW126940   2.327   7.725   3.097 -0.0605  0.2773  0.2525
 8747SOL    HW226941   2.184   7.675   3.098 -0.1717  0.5947  0.3363
 8748SOL     OW26942   3.365   2.698   7.923 -0.0439 -0.3481 -0.0773
 8748SOL    HW126943   3.311   2.777   7.922 -0.4625 -0.6222  0.2636
 8748SOL    HW226944   3.312   2.632   7.878  0.6885 -0.2026 -1.1995
 8749SOL     OW26945   4.625   2.231   3.509  0.5108 -0.1541  0.3593
 8749SOL    HW126946   4.621   2.319   3.546  0.1242  0.3864 -0.8996
 8749SOL    HW226947   4.718   2.209   3.507  0.6664  0.5114  0.0525
 8750SOL     OW26948   6.675   2.408   3.006  0.2406 -0.3918 -0.6307
 8750SOL    HW126949   6.760   2.367   3.025  0.5618  0.2933 -0.5859
 8750SOL    HW226950   6.666   2.403   2.911 -0.2443 -1.5865 -0.5439
 8751SOL     OW26951   7.259   4.022   7.168  0.0362 -0.1363 -0.2977
 8751SOL    HW126952   7.286   3.941   7.123 -0.6439 -0.0118 -0.9448
 8751SOL    HW226953   7.341   4.071   7.180  0.3872 -0.7023 -0.3284
 8752SOL     OW26954   6.912   0.652   4.340 -0.0210  0.5414 -0.1435
 8752SOL    HW126955   6.928   0.628   4.248 -1.2808  0.1842 -0.2883
 8752SOL    HW226956   6.989   0.619   4.386 -0.2542 -1.0685 -0.8073
 8753SOL     OW26957   3.737   4.567   4.178  0.2432 -0.2959  0.4543
 8753SOL    HW126958   3.737   4.474   4.203  0.9711 -0.7915 -1.2260
 8753SOL    HW226959   3.800   4.573   4.107  1.5227  1.8674  1.6723
 8754SOL     OW26960   3.667   3.213   6.096 -0.2766  0.2103 -0.6902
 8754SOL    HW126961   3.604   3.278   6.068 -1.2306  1.4555  3.5390
 8754SOL    HW226962   3.751   3.244   6.061 -1.3885  0.7394 -3.0625
 8755SOL     OW26963   2.058   5.394   3.711 -0.1692  0.2773 -0.3938
 8755SOL    HW126964   1.984   5.452   3.728  0.1928  1.5129 -2.6607
 8755SOL    HW226965   2.124   5.421   3.774 -0.5443  1.3211 -0.4204
 8756SOL     OW26966   4.060   4.834   5.713 -0.0873 -0.3693 -0.2342
 8756SOL    HW126967   3.998   4.811   5.781 -2.5678  0.2581 -2.1234
 8756SOL    HW226968   4.092   4.750   5.679 -1.0773 -0.7623 -0.2161
 8757SOL     OW26969   6.993   3.313   2.451 -0.7929  0.6979  0.4028
 8757SOL    HW126970   6.936   3.242   2.481 -1.7710  1.1313 -0.3662
 8757SOL    HW226971   6.959   3.336   2.365  2.1782 -0.8358 -1.3519
 8758SOL     OW26972   0.478   5.420   5.244 -0.0627  0.5118 -0.3167
 8758SOL    HW126973   0.560   5.435   5.292  0.0016 -1.4320  0.2779
 8758SOL    HW226974   0.504   5.414   5.153  0.3665  0.5787 -0.2003
 8759SOL     OW26975   4.573   0.441   3.660 -0.0682  0.0265  0.1255
 8759SOL    HW126976   4.567   0.346   3.666  0.6818 -0.2922 -2.6715
 8759SOL    HW226977   4.576   0.459   3.566 -2.3734  2.9742  0.4386
 8760SOL     OW26978   3.943   5.640   4.688 -0.1012  0.0102  0.1745
 8760SOL    HW126979   3.847   5.638   4.683 -0.1403 -2.2547  0.5642
 8760SOL    HW226980   3.969   5.548   4.683  2.0997  0.5943 -0.3158
 8761SOL     OW26981   5.724   6.209   5.102 -0.0714  0.3710 -0.5263
 8761SOL    HW126982   5.801   6.168   5.064  1.4916  1.8944  0.8107
 8761SOL    HW226983   5.672   6.136   5.136  1.4388 -0.6388 -0.2979
 8762SOL     OW26984   1.301   7.696   7.082 -0.5612  0.2125 -0.2296
 8762SOL    HW126985   1.365   7.639   7.124 -0.1600  0.8061 -0.0319
 8762SOL    HW226986   1.242   7.723   7.153 -0.9312 -0.1946 -0.3788
 8763SOL     OW26987   1.061   4.536   2.313  0.2930 -0.1806 -0.1532
 8763SOL    HW126988   1.069   4.538   2.408  1.5682  0.8433 -0.2540
 8763SOL    HW226989   1.145   4.569   2.281  0.2715 -1.4845 -1.6615
 8764SOL     OW26990   5.031   7.557   3.501 -0.6258  0.0432  0.4167
 8764SOL    HW126991   5.055   7.465   3.515 -0.5205  0.0391  0.2183
 8764SOL    HW226992   5.009   7.590   3.588  0.7264  0.2170  0.7229
 8765SOL     OW26993   1.038   5.146   5.341 -0.0604 -0.3693  0.2688
 8765SOL    HW126994   1.038   5.061   5.384 -2.1166 -0.1115  0.8794
 8765SOL    HW226995   0.946   5.170   5.335  0.5018  2.7953  2.1061
 8766SOL     OW26996   6.271   1.246   6.759 -0.3302 -0.1877  0.0951
 8766SOL    HW126997   6.187   1.285   6.784 -0.3116 -1.5576  2.5893
 8766SOL    HW226998   6.334   1.318   6.767 -1.1537  0.7489 -1.3950
 8767SOL     OW26999   0.622   4.065   1.539  0.6903 -0.3375 -0.0007
 8767SOL    HW127000   0.683   4.111   1.481  0.2733 -0.2300 -0.3663
 8767SOL    HW227001   0.677   4.010   1.594  1.0565 -0.8464 -0.8651
 8768SOL     OW27002   2.810   5.389   3.403  0.2391 -0.2765  0.4832
 8768SOL    HW127003   2.772   5.477   3.399  1.8395  0.3895 -0.6787
 8768SOL    HW227004   2.800   5.354   3.314  2.2457 -0.1025  0.1561
 8769SOL     OW27005   0.221   7.504   3.922  0.3517  0.0944  0.6622
 8769SOL    HW127006   0.294   7.565   3.918 -1.3219  2.2846  1.4700
 8769SOL    HW227007   0.236   7.442   3.851  2.5588  0.9317  0.3462
 8770SOL     OW27008   5.595   1.835   1.640 -0.2550 -0.0796  0.2407
 8770SOL    HW127009   5.532   1.804   1.575 -0.7500  1.9365 -0.3121
 8770SOL    HW227010   5.544   1.845   1.720  0.0372 -1.1508  0.5887
 8771SOL     OW27011   2.157   2.871   6.166 -0.3053  0.2702  0.1341
 8771SOL    HW127012   2.091   2.857   6.098  0.7486  0.5461 -0.9888
 8771SOL    HW227013   2.111   2.852   6.248 -1.6295 -0.0319 -0.6365
 8772SOL     OW27014   3.431   1.044   4.027  0.2970 -0.0814  0.1433
 8772SOL    HW127015   3.369   0.975   4.004  0.0596 -0.9018  2.8929
 8772SOL    HW227016   3.461   1.021   4.115  2.9587  1.4209 -0.2496
 8773SOL     OW27017   5.062   5.716   6.819 -0.7962  0.2126  0.0819
 8773SOL    HW127018   5.106   5.666   6.750 -1.1386 -0.9461  0.6886
 8773SOL    HW227019   5.003   5.654   6.861 -1.2518  1.1308  0.8531
 8774SOL     OW27020   4.180   4.401   1.979 -0.0293  0.3513  0.0713
 8774SOL    HW127021   4.136   4.320   1.954 -0.3497  0.7598 -0.7217
 8774SOL    HW227022   4.225   4.429   1.899 -2.0323  2.3076 -0.4334
 8775SOL     OW27023   1.326   5.373   6.532 -0.5437  0.4075  0.2725
 8775SOL    HW127024   1.307   5.331   6.616 -0.6573  0.3699  0.2282
 8775SOL    HW227025   1.393   5.318   6.492 -0.1388  0.6926  0.5505
 8776SOL     OW27026   3.558   1.495   1.222  0.4850  0.3026  0.3072
 8776SOL    HW127027   3.564   1.591   1.219 -2.1984  0.5201 -0.8663
 8776SOL    HW227028   3.494   1.477   1.291 -0.2498 -0.5344 -0.5677
 8777SOL     OW27029   4.500   1.199   3.699 -0.8274 -0.2352 -0.4590
 8777SOL    HW127030   4.464   1.287   3.690  0.6653  0.5334  0.7325
 8777SOL    HW227031   4.428   1.148   3.737 -0.8166  1.2112  1.6846
 8778SOL     OW27032   7.583   2.930   4.454  0.3596 -0.1283 -1.0564
 8778SOL    HW127033   7.595   3.015   4.496 -0.2413  0.5090 -2.1423
 8778SOL    HW227034   7.535   2.878   4.518 -2.6846  1.5832 -1.7638
 8779SOL     OW27035   3.315   6.693   5.834  0.4280  0.0828 -0.4134
 8779SOL    HW127036   3.280   6.605   5.850  2.4010 -0.3804  2.1637
 8779SOL    HW227037   3.407   6.687   5.861  0.0355  3.5050  2.4071
 8780SOL     OW27038   6.161   2.181   2.564 -0.0459 -0.1153  0.5290
 8780SOL    HW127039   6.257   2.180   2.572 -0.0526  0.1844  0.6494
 8780SOL    HW227040   6.138   2.273   2.571 -0.5331 -0.3643  2.6401
 8781SOL     OW27041   1.977   0.061   3.101 -0.4304 -0.1349  0.4626
 8781SOL    HW127042   2.005  -0.010   3.159  0.9229  1.2862  1.6296
 8781SOL    HW227043   1.960   0.018   3.017  4.6932 -1.3808 -0.2415
 8782SOL     OW27044   1.613   0.184   5.553 -0.0458 -0.1258  0.3930
 8782SOL    HW127045   1.529   0.147   5.579 -0.8651  0.9233 -0.6703
 8782SOL    HW227046   1.656   0.205   5.635 -1.8210  1.4802  0.9823
 8783SOL     OW27047   6.927   5.450   3.497  0.2854 -0.5193  0.0513
 8783SOL    HW127048   6.995   5.498   3.449 -1.7426  1.7806 -0.7468
 8783SOL    HW227049   6.906   5.506   3.572  0.2861 -1.9351  1.1646
 8784SOL     OW27050   7.716   6.951   7.967 -0.8763 -0.2905  0.1338
 8784SOL    HW127051   7.801   6.994   7.967 -0.6425 -0.7273 -0.9170
 8784SOL    HW227052   7.656   7.017   7.932 -1.4832  0.8926  3.1038
 8785SOL     OW27053   7.200   2.388   1.756 -0.4509 -0.4465  0.3701
 8785SOL    HW127054   7.280   2.401   1.704 -0.5316  0.8020  0.5273
 8785SOL    HW227055   7.188   2.471   1.803 -1.9574 -0.5186  0.1722
 8786SOL     OW27056   3.168   4.330   4.161  0.0501  0.2379  0.4631
 8786SOL    HW127057   3.110   4.402   4.135 -0.1605 -1.1558 -3.7727
 8786SOL    HW227058   3.254   4.356   4.130  0.3986 -0.4091  0.8705
 8787SOL     OW27059   1.020   7.657   1.294 -0.8011 -0.0761  0.4921
 8787SOL    HW127060   1.052   7.588   1.351 -1.9411 -0.3913  0.7627
 8787SOL    HW227061   0.945   7.694   1.340  0.0294  1.6639  0.5729
 8788SOL     OW27062   1.353   1.651   0.459 -0.0175  0.1851  0.2221
 8788SOL    HW127063   1.375   1.645   0.366 -1.2457 -0.1956 -0.0574
 8788SOL    HW227064   1.411   1.720   0.492  2.2005 -1.3613 -0.2504
 8789SOL     OW27065   1.559   2.547   7.000 -0.3960  0.3339 -0.0064
 8789SOL    HW127066   1.637   2.551   6.946 -0.2603  0.1236  0.1755
 8789SOL    HW227067   1.590   2.524   7.088 -0.7359 -0.5209 -0.1008
 8790SOL     OW27068   7.042   6.472   5.890  0.4054 -0.1459  0.1966
 8790SOL    HW127069   7.137   6.464   5.896  0.5392  1.8973  3.5084
 8790SOL    HW227070   7.008   6.423   5.965 -0.8709  1.5550  0.8162
 8791SOL     OW27071   7.673   7.490   3.423  0.6058  0.3592  0.6457
 8791SOL    HW127072   7.722   7.520   3.347 -0.5278  0.3285 -0.1223
 8791SOL    HW227073   7.715   7.408   3.448  0.8678  0.2697 -0.0650
 8792SOL     OW27074   2.763   1.444   1.840 -0.0550  0.2069 -0.0262
 8792SOL    HW127075   2.748   1.454   1.934 -1.3843  0.7076 -0.2660
 8792SOL    HW227076   2.747   1.351   1.823 -0.5764  0.2645  0.1244
 8793SOL     OW27077   7.197   6.802   5.171  0.3005 -0.0511 -0.1178
 8793SOL    HW127078   7.260   6.731   5.184 -0.1574 -0.2027  1.5036
 8793SOL    HW227079   7.116   6.758   5.146  0.1372 -0.0827  0.4460
 8794SOL     OW27080   0.380   3.764   2.591 -0.0036 -0.0944 -0.4955
 8794SOL    HW127081   0.458   3.794   2.545  0.0072 -0.5656 -0.7937
 8794SOL    HW227082   0.313   3.828   2.569  0.4402  0.6539  0.2491
 8795SOL     OW27083   7.443   7.921   0.189  0.0939  0.3129  0.5936
 8795SOL    HW127084   7.444   7.867   0.268 -0.5300  0.2846  0.5870
 8795SOL    HW227085   7.514   7.985   0.203 -0.2932  0.5877  1.3694
 8796SOL     OW27086   7.627   0.554   4.126  0.1093 -0.2358  0.6926
 8796SOL    HW127087   7.715   0.551   4.165  1.3723 -2.6010 -2.0013
 8796SOL    HW227088   7.571   0.512   4.191  1.5325 -1.3202  1.2637
 8797SOL     OW27089   7.484   3.504   4.581 -0.3134  0.1706 -0.4171
 8797SOL    HW127090   7.468   3.479   4.490 -0.6307  1.1345 -0.6339
 8797SOL    HW227091   7.413   3.464   4.631 -0.7804  0.5722 -0.7530
 8798SOL     OW27092   7.378   0.847   2.319 -0.5235  0.1118  0.5322
 8798SOL    HW127093   7.284   0.859   2.306 -0.4265  2.6863  1.5353
 8798SOL    HW227094   7.385   0.781   2.388 -1.5398 -0.9245 -0.3311
 8799SOL     OW27095   0.175   0.339   0.064  0.8328 -0.2916 -0.2578
 8799SOL    HW127096   0.184   0.413   0.004  0.9235  0.4364  0.6345
 8799SOL    HW227097   0.203   0.373   0.149  0.2328 -1.1630  0.3066
 8800SOL     OW27098   6.466   5.947   3.801 -0.0617 -0.7217 -0.8233
 8800SOL    HW127099   6.498   6.026   3.757  1.3666 -0.1148  1.1870
 8800SOL    HW227100   6.545   5.898   3.825 -0.8682 -1.9856 -0.6450
 8801SOL     OW27101   2.124   0.188   1.059 -0.1306 -0.5082  0.2241
 8801SOL    HW127102   2.146   0.226   0.974 -2.3081 -0.2952 -0.3065
 8801SOL    HW227103   2.190   0.224   1.119 -1.0623  2.9250 -0.5529
 8802SOL     OW27104   1.296   6.922   3.043  0.5120  0.2639  1.1214
 8802SOL    HW127105   1.329   6.847   2.995 -0.4101 -0.2809  1.3232
 8802SOL    HW227106   1.222   6.953   2.991  0.5139  0.6655  1.3527
 8803SOL     OW27107   5.237   2.121   0.794 -0.0552 -0.6665 -0.4233
 8803SOL    HW127108   5.184   2.139   0.872 -0.7013 -0.0265 -0.9919
 8803SOL    HW227109   5.320   2.164   0.810 -0.6805  0.6843 -0.6729
 8804SOL     OW27110   4.290   5.250   5.966 -0.2513 -0.2298 -0.5283
 8804SOL    HW127111   4.336   5.321   5.919  0.7738 -1.2096 -1.0652
 8804SOL    HW227112   4.198   5.263   5.945  0.0047  0.4752 -1.2743
 8805SOL     OW27113   2.291   7.112   3.940  0.5445  0.1038  0.0288
 8805SOL    HW127114   2.286   7.016   3.935 -0.5256  0.0707  1.2184
 8805SOL    HW227115   2.275   7.142   3.851 -2.0898 -0.7563  0.1366
 8806SOL     OW27116   5.483   5.464   4.800  0.1367  0.0054  0.3261
 8806SOL    HW127117   5.497   5.373   4.827  2.0473  0.2123  0.1737
 8806SOL    HW227118   5.543   5.476   4.726 -1.6288  0.7922 -1.0254
 8807SOL     OW27119   2.877   7.806   5.738 -0.3535  0.1580 -0.0042
 8807SOL    HW127120   2.940   7.737   5.760 -0.3960 -0.1860 -0.9291
 8807SOL    HW227121   2.804   7.790   5.798 -0.4101 -0.6757 -0.2769
 8808SOL     OW27122   0.607   3.856   3.792 -0.0956 -0.3392 -0.4475
 8808SOL    HW127123   0.645   3.853   3.704  0.3709  0.9944 -0.3189
 8808SOL    HW227124   0.630   3.943   3.825  2.4118 -1.8242  2.1686
 8809SOL     OW27125   7.871   6.812   4.299 -0.1523  0.0984 -0.1431
 8809SOL    HW127126   7.861   6.720   4.323  0.0694 -0.0878 -0.7541
 8809SOL    HW227127   7.798   6.830   4.240 -0.3649  0.3968  0.2051
 8810SOL     OW27128   2.128   5.987   2.181 -0.5351 -0.5326 -0.1787
 8810SOL    HW127129   2.144   6.013   2.090  0.7792 -0.6639 -0.0133
 8810SOL    HW227130   2.130   6.069   2.230  3.7113 -0.7109  0.3575
 8811SOL     OW27131   7.073   1.811   3.110 -0.3747  0.3327 -0.2628
 8811SOL    HW127132   7.008   1.875   3.138 -1.5987 -1.2683  0.7528
 8811SOL    HW227133   7.047   1.730   3.154  1.9980 -0.5111 -0.2800
 8812SOL     OW27134   0.360   1.788   0.218  0.0831  0.4778 -0.6515
 8812SOL    HW127135   0.450   1.816   0.198  0.2770 -0.4999 -1.2344
 8812SOL    HW227136   0.306   1.836   0.156  0.1558  1.4238  0.0139
 8813SOL     OW27137   0.151   3.940   2.592 -0.1193  0.4021  0.2766
 8813SOL    HW127138   0.137   3.998   2.667  0.1519  0.9934 -0.1220
 8813SOL    HW227139   0.091   3.867   2.606 -0.8280  1.0233  0.5359
 8814SOL     OW27140   1.886   6.827   6.349 -0.2605 -1.0470  0.3821
 8814SOL    HW127141   1.891   6.800   6.257 -0.3907  0.3784 -0.0813
 8814SOL    HW227142   1.792   6.830   6.368 -0.2575 -0.7340  0.3558
 8815SOL     OW27143   4.492   0.028   6.942  0.2419  0.1780 -0.1415
 8815SOL    HW127144   4.497   0.123   6.941  0.1812  0.1994  0.8460
 8815SOL    HW227145   4.537   0.000   6.862  1.1041  0.9914  0.0532
 8816SOL     OW27146   4.406   6.994   2.933 -0.1167 -0.8316  0.2435
 8816SOL    HW127147   4.444   6.963   3.016  0.9511 -3.0279 -0.9694
 8816SOL    HW227148   4.313   7.004   2.951  0.2466 -0.2401  1.9623
 8817SOL     OW27149   4.486   4.077   2.055  0.1788  1.0031  0.2330
 8817SOL    HW127150   4.535   4.001   2.087  0.6948  0.3163 -2.0370
 8817SOL    HW227151   4.440   4.110   2.132 -0.3248 -1.8084  1.2475
 8818SOL     OW27152   6.271   4.694   5.251 -0.0577 -0.1544 -0.2923
 8818SOL    HW127153   6.333   4.767   5.262  1.1924 -1.0214 -1.2519
 8818SOL    HW227154   6.295   4.633   5.321 -1.1967  0.3848  0.5988
 8819SOL     OW27155   2.586   1.506   7.373  0.0015 -0.7554  0.1817
 8819SOL    HW127156   2.562   1.516   7.465  1.8050  1.1345  0.5284
 8819SOL    HW227157   2.682   1.510   7.373  0.0125  0.0894 -1.8442
 8820SOL     OW27158   2.944   0.304   1.939  0.1657  0.3975  0.7311
 8820SOL    HW127159   2.906   0.225   1.900  1.4933  0.4990 -0.8668
 8820SOL    HW227160   3.038   0.287   1.941  0.6874  2.5656 -1.2693
 8821SOL     OW27161   2.561   4.425   0.131 -0.5406  0.1467  0.3655
 8821SOL    HW127162   2.572   4.425   0.036  0.9984 -0.7659  0.5122
 8821SOL    HW227163   2.468   4.408   0.144 -0.4152 -1.9086 -0.9742
 8822SOL     OW27164   6.827   4.899   3.046  0.1793 -0.4268 -0.1437
 8822SOL    HW127165   6.763   4.828   3.042 -1.8441  1.3135 -0.3967
 8822SOL    HW227166   6.808   4.945   3.128  1.2292  0.0388 -0.1355
 8823SOL     OW27167   3.799   1.625   6.829 -0.1868  0.1915 -0.1159
 8823SOL    HW127168   3.712   1.586   6.833  0.7018 -1.9170 -0.4137
 8823SOL    HW227169   3.844   1.593   6.907  0.3560  1.2327  0.0252
 8824SOL     OW27170   7.524   6.889   2.402  0.0177  0.3470 -0.4705
 8824SOL    HW127171   7.559   6.964   2.451 -1.0747 -0.2440  1.2860
 8824SOL    HW227172   7.435   6.915   2.379  0.7159  0.8812 -2.8245
 8825SOL     OW27173   6.375   3.544   6.392  0.1546  0.3510  0.5190
 8825SOL    HW127174   6.402   3.623   6.439  0.0883  0.7164 -0.0384
 8825SOL    HW227175   6.454   3.491   6.385  0.1953  0.3616  0.9112
 8826SOL     OW27176   2.501   7.937   7.922 -0.1566  0.1831  0.1322
 8826SOL    HW127177   2.583   7.985   7.931 -0.1188  0.6993 -2.2325
 8826SOL    HW227178   2.523   7.862   7.866 -1.1496 -0.0397  0.0152
 8827SOL     OW27179   5.484   7.503   3.847  0.2405  0.4737  0.0126
 8827SOL    HW127180   5.431   7.583   3.854 -2.4790 -1.2511  0.4681
 8827SOL    HW227181   5.462   7.466   3.762 -0.0406 -0.7581  0.5970
 8828SOL     OW27182   1.683   2.862   1.419  0.7261 -0.5772  0.4875
 8828SOL    HW127183   1.743   2.936   1.430  1.8177 -1.1618 -1.1540
 8828SOL    HW227184   1.614   2.895   1.362  2.8123 -1.5281 -2.8808
 8829SOL     OW27185   5.103   7.277   5.104  0.1570 -0.6292  0.5626
 8829SOL    HW127186   5.120   7.333   5.028  1.5302  0.0646  1.3387
 8829SOL    HW227187   5.008   7.273   5.111  0.0275  1.2071  0.2037
 8830SOL     OW27188   6.898   4.040   2.071  0.3070 -0.2693  0.0520
 8830SOL    HW127189   6.908   4.053   1.977  0.6594 -1.3513 -0.0699
 8830SOL    HW227190   6.934   4.120   2.110  1.2651 -0.3132 -0.6983
 8831SOL     OW27191   4.556   4.167   7.169 -0.3267 -0.2758  0.1215
 8831SOL    HW127192   4.519   4.203   7.249 -1.2125  1.0321 -0.8253
 8831SOL    HW227193   4.543   4.072   7.177  0.5550 -0.2710  1.9504
 8832SOL     OW27194   5.460   5.018   4.351  0.0144 -0.5979  0.2205
 8832SOL    HW127195   5.381   5.046   4.395 -0.1308 -1.7520  0.7215
 8832SOL    HW227196   5.527   5.082   4.377 -0.5770 -0.0308  0.3523
 8833SOL     OW27197   1.996   4.771   4.678 -0.3176  0.3172  0.2958
 8833SOL    HW127198   1.905   4.774   4.710  0.0803  0.0313  1.4961
 8833SOL    HW227199   2.021   4.863   4.668 -0.6755  0.3998  0.1339
 8834SOL     OW27200   4.318   1.981   7.528 -0.1523  0.7011 -0.2027
 8834SOL    HW127201   4.334   1.913   7.462 -2.3918  0.6569 -0.7574
 8834SOL    HW227202   4.320   2.063   7.477 -1.5225  0.6951 -0.2966
 8835SOL     OW27203   7.286   0.671   0.561 -0.1537  0.0736  0.1624
 8835SOL    HW127204   7.212   0.622   0.597  1.1037 -0.5636  2.0377
 8835SOL    HW227205   7.355   0.606   0.550  0.1591  0.6497 -1.6244
 8836SOL     OW27206   7.289   5.702   7.058  0.0535 -0.0995 -0.8619
 8836SOL    HW127207   7.300   5.724   6.966 -1.1040 -1.0515 -1.2542
 8836SOL    HW227208   7.267   5.785   7.100  0.4968  0.3247 -1.4613
 8837SOL     OW27209   4.841   4.640   1.823 -0.3489  0.1507 -0.5799
 8837SOL    HW127210   4.817   4.718   1.874  0.5526  0.5613 -0.7740
 8837SOL    HW227211   4.757   4.604   1.794 -0.7913  0.8438 -0.1836
 8838SOL     OW27212   4.858   6.576   6.220  0.8530  0.3220  0.4840
 8838SOL    HW127213   4.925   6.588   6.153  0.5630 -0.2583  0.0867
 8838SOL    HW227214   4.875   6.489   6.256 -1.5035 -1.2081 -1.7278
 8839SOL     OW27215   4.356   5.040   1.265 -0.2370 -0.2658  0.4049
 8839SOL    HW127216   4.428   5.103   1.273 -0.3924 -0.1514  1.0142
 8839SOL    HW227217   4.340   5.011   1.355 -1.5150  0.3472  0.3985
 8840SOL     OW27218   4.648   1.947   3.211 -0.1500  0.4143 -0.6698
 8840SOL    HW127219   4.675   1.863   3.247  2.3592  1.2391 -0.3996
 8840SOL    HW227220   4.643   1.932   3.116  1.4185  0.1918 -0.7398
 8841SOL     OW27221   3.628   0.711   6.390  0.4563 -0.2687 -0.3003
 8841SOL    HW127222   3.619   0.633   6.336  0.1147 -0.5551  0.1559
 8841SOL    HW227223   3.717   0.706   6.424  0.0400 -1.1428  0.7334
 8842SOL     OW27224   4.372   1.182   0.305  0.1914  0.2213 -0.5374
 8842SOL    HW127225   4.391   1.262   0.355 -0.5765  0.4359 -0.5773
 8842SOL    HW227226   4.293   1.147   0.344  2.2733 -2.4009  1.7166
 8843SOL     OW27227   1.546   2.829   6.045  0.2056  0.3108 -0.7073
 8843SOL    HW127228   1.513   2.897   5.987  0.1271 -1.3891 -2.7461
 8843SOL    HW227229   1.469   2.777   6.068  0.3386  0.6020  0.4739
 8844SOL     OW27230   1.709   6.573   5.910  0.1481 -0.5431  0.0562
 8844SOL    HW127231   1.756   6.583   5.828 -0.0273 -0.0482  0.0077
 8844SOL    HW227232   1.617   6.586   5.886  0.1383  0.0660  0.4011
 8845SOL     OW27233   2.833   3.369   5.623 -0.4460 -0.1230  0.1842
 8845SOL    HW127234   2.745   3.341   5.598 -0.6110  0.7485 -0.2500
 8845SOL    HW227235   2.864   3.422   5.549  0.5527 -0.6402  0.2131
 8846SOL     OW27236   7.846   0.202   6.131 -0.3623 -0.6973  0.0002
 8846SOL    HW127237   7.800   0.264   6.188  0.4460  0.9440 -1.0370
 8846SOL    HW227238   7.934   0.240   6.122  0.1768 -2.0374 -0.6583
 8847SOL     OW27239   7.863   4.462   2.087 -0.6757  0.0372 -0.3279
 8847SOL    HW127240   7.838   4.441   2.177 -2.9287 -1.7933 -1.2828
 8847SOL    HW227241   7.933   4.401   2.067 -0.9812 -0.3722 -0.1753
 8848SOL     OW27242   5.637   3.790   6.678  0.4753 -0.4189 -0.0891
 8848SOL    HW127243   5.719   3.787   6.631  0.5567  0.7567 -0.0455
 8848SOL    HW227244   5.570   3.786   6.610  0.5884  0.6963 -0.2778
 8849SOL     OW27245   5.524   1.880   4.087 -0.1931  0.2811 -0.1666
 8849SOL    HW127246   5.501   1.971   4.065  2.5348  1.5170  1.4760
 8849SOL    HW227247   5.535   1.837   4.003 -1.9193  1.3211 -0.9919
 8850SOL     OW27248   6.847   7.243   6.929  0.1888 -0.1438  0.0150
 8850SOL    HW127249   6.846   7.220   7.022  0.1946 -0.3959 -0.0454
 8850SOL    HW227250   6.755   7.250   6.905  0.0579 -2.8955 -0.6304
 8851SOL     OW27251   1.391   3.080   3.537 -0.2401  0.6550  0.0142
 8851SOL    HW127252   1.464   3.026   3.507  1.3125  2.6907 -0.1172
 8851SOL    HW227253   1.318   3.057   3.478  0.8397 -0.0913 -1.0874
 8852SOL     OW27254   4.789   7.839   7.405  0.5283 -0.3106 -0.6113
 8852SOL    HW127255   4.770   7.880   7.490 -3.0563 -0.7829 -0.9954
 8852SOL    HW227256   4.841   7.761   7.427  2.6863  1.3856  0.6859
 8853SOL     OW27257   2.306   6.441   4.571 -0.2169  0.2824  0.1516
 8853SOL    HW127258   2.263   6.520   4.604  0.8552  1.1112 -0.3516
 8853SOL    HW227259   2.271   6.370   4.624  0.2978  1.3615  2.0107
 8854SOL     OW27260   6.512   5.965   2.658 -0.2025  0.0946 -0.2339
 8854SOL    HW127261   6.445   5.928   2.716 -0.8031  0.9341 -0.3852
 8854SOL    HW227262   6.472   5.963   2.571  0.3338 -0.2665 -0.4796
 8855SOL     OW27263   6.407   6.857   6.059  0.6344  0.3132 -0.2413
 8855SOL    HW127264   6.408   6.859   5.963 -1.1663 -0.4267 -0.2989
 8855SOL    HW227265   6.439   6.770   6.081  0.8386  0.4066 -0.1637
 8856SOL     OW27266   5.677   6.262   3.720 -0.1888  0.1322 -0.2133
 8856SOL    HW127267   5.726   6.180   3.726 -0.7988 -0.1545  1.4475
 8856SOL    HW227268   5.604   6.242   3.662 -1.2211 -1.0131  1.4131
 8857SOL     OW27269   3.314   0.459   6.605 -0.1929 -0.1900 -0.8142
 8857SOL    HW127270   3.219   0.464   6.598 -0.1301 -0.3976 -2.1194
 8857SOL    HW227271   3.344   0.548   6.590 -0.1278 -0.3759 -1.8677
 8858SOL     OW27272   1.575   4.073   6.831  0.4714 -0.0188 -1.0451
 8858SOL    HW127273   1.503   4.025   6.871 -0.4220  1.7014 -0.4980
 8858SOL    HW227274   1.533   4.134   6.771  1.5065  0.5837 -1.1815
 8859SOL     OW27275   3.123   7.246   0.740  0.2856 -0.1750 -0.9000
 8859SOL    HW127276   3.095   7.173   0.685  2.0328 -0.6209 -1.2533
 8859SOL    HW227277   3.087   7.226   0.826 -0.9418 -0.4029 -1.4391
 8860SOL     OW27278   2.895   6.895   7.545  0.0145  0.1347 -0.3171
 8860SOL    HW127279   2.973   6.945   7.521 -0.8842  1.2002 -1.1047
 8860SOL    HW227280   2.893   6.899   7.641  0.1988  1.2314 -0.3460
 8861SOL     OW27281   0.939   1.606   7.025 -0.5729 -0.0432  0.4518
 8861SOL    HW127282   0.920   1.539   6.959  1.7344 -0.1058 -0.2479
 8861SOL    HW227283   0.989   1.672   6.978 -1.1417  1.2393  1.5885
 8862SOL     OW27284   0.364   6.488   5.209  0.0453  0.0085 -0.4299
 8862SOL    HW127285   0.336   6.503   5.119  2.5491  1.0490 -1.0986
 8862SOL    HW227286   0.423   6.413   5.205  1.8907  1.3867 -0.0590
 8863SOL     OW27287   3.721   3.888   2.514 -0.1504 -0.0197  0.2848
 8863SOL    HW127288   3.728   3.804   2.468 -1.6366 -0.2614  0.4534
 8863SOL    HW227289   3.811   3.919   2.521  0.1772  0.0397 -2.8338
 8864SOL     OW27290   5.487   7.234   0.915 -0.0016  0.3096  0.7596
 8864SOL    HW127291   5.549   7.296   0.876 -0.6914  0.4756 -0.0855
 8864SOL    HW227292   5.461   7.177   0.843 -1.0674  0.4303  1.0343
 8865SOL     OW27293   5.202   1.876   0.186 -0.1924 -0.1839 -0.2112
 8865SOL    HW127294   5.214   1.971   0.185  0.8269 -0.2933 -0.2519
 8865SOL    HW227295   5.230   1.847   0.099  1.4632 -0.7055  0.4506
 8866SOL     OW27296   6.259   6.267   3.625 -0.0034 -0.0612 -0.5668
 8866SOL    HW127297   6.267   6.306   3.712 -2.9401  1.1325 -0.7293
 8866SOL    HW227298   6.232   6.176   3.642  0.4249 -0.1309 -0.2404
 8867SOL     OW27299   2.015   0.370   7.340 -0.9552  0.1905  0.6175
 8867SOL    HW127300   2.086   0.428   7.312 -0.2041 -0.7808  0.4201
 8867SOL    HW227301   2.059   0.305   7.395 -1.8432  0.0517  1.1795
 8868SOL     OW27302   4.582   5.048   3.342  0.3291  0.4586 -0.8479
 8868SOL    HW127303   4.534   5.004   3.411 -0.9933  3.3401  0.2101
 8868SOL    HW227304   4.673   5.051   3.373 -0.3894  2.4670  1.2789
 8869SOL     OW27305   1.369   3.874   5.794  0.2517  0.0284  0.4295
 8869SOL    HW127306   1.363   3.859   5.700 -1.2894 -0.2151  0.5435
 8869SOL    HW227307   1.463   3.881   5.812  0.5859 -0.5596 -1.0153
 8870SOL     OW27308   1.985   7.152   7.490 -0.3116  0.1889 -0.1262
 8870SOL    HW127309   2.054   7.177   7.428  1.7772 -1.0254  1.5643
 8870SOL    HW227310   1.934   7.086   7.443  1.7738 -1.3806 -0.3193
 8871SOL     OW27311   2.527   7.561   7.569 -0.3978  0.4414 -0.3091
 8871SOL    HW127312   2.477   7.641   7.586 -0.4547  0.6770 -1.4688
 8871SOL    HW227313   2.520   7.510   7.649 -1.1637  1.1799  0.1036
 8872SOL     OW27314   6.801   3.154   7.395  0.2042  0.1682  0.3836
 8872SOL    HW127315   6.763   3.085   7.449  0.5994 -0.5750 -0.2552
 8872SOL    HW227316   6.820   3.226   7.456  1.8273 -1.1158  1.4972
 8873SOL     OW27317   1.657   0.543   5.444  1.0170 -0.1659  1.0715
 8873SOL    HW127318   1.667   0.448   5.453  1.0147 -0.0615  2.3257
 8873SOL    HW227319   1.565   0.556   5.422  1.0360 -0.4601  0.8177
 8874SOL     OW27320   2.542   6.138   0.362  0.4579 -0.3281 -1.0039
 8874SOL    HW127321   2.610   6.185   0.411  0.3016 -1.1698  0.0399
 8874SOL    HW227322   2.587   6.107   0.284  1.0077  0.0157 -0.8353
 8875SOL     OW27323   4.601   4.340   4.776  0.0105  0.1384 -0.1064
 8875SOL    HW127324   4.603   4.281   4.701 -0.2202  1.6029 -1.3076
 8875SOL    HW227325   4.692   4.368   4.787  0.1406 -0.4880  0.5372
 8876SOL     OW27326   3.081   2.031   2.819  0.2296  0.4055  0.5114
 8876SOL    HW127327   3.131   1.985   2.886 -1.8971 -2.4070  0.3122
 8876SOL    HW227328   3.130   2.017   2.738  0.3336 -0.3099  0.6961
 8877SOL     OW27329   2.406   7.084   7.782 -0.6687 -0.1232 -0.8109
 8877SOL    HW127330   2.471   7.081   7.712 -0.3381 -2.9284 -0.4677
 8877SOL    HW227331   2.326   7.115   7.740 -0.1383 -0.4689 -2.1069
 8878SOL     OW27332   1.878   0.306   0.696 -0.2205 -0.2636 -0.1401
 8878SOL    HW127333   1.927   0.387   0.692 -0.5424 -0.0695 -0.2051
 8878SOL    HW227334   1.795   0.325   0.651 -1.7345  0.4145  2.6968
 8879SOL     OW27335   3.773   5.526   3.555 -0.4566  0.0047  0.6864
 8879SOL    HW127336   3.817   5.450   3.518 -0.9922  0.3885 -0.8177
 8879SOL    HW227337   3.807   5.533   3.644  1.1256 -0.7824  0.1738
 8880SOL     OW27338   3.671   6.332   1.331 -0.0258  0.7895  0.3945
 8880SOL    HW127339   3.691   6.253   1.281  0.2641  1.5920 -0.7905
 8880SOL    HW227340   3.697   6.311   1.421 -1.2740 -0.9599  0.4092
 8881SOL     OW27341   2.787   1.499   3.588 -0.1218  0.1486  0.0698
 8881SOL    HW127342   2.872   1.496   3.631 -0.3466  0.9493  0.6042
 8881SOL    HW227343   2.801   1.458   3.503  0.3669 -1.3345  0.8335
 8882SOL     OW27344   2.637   5.136   0.141 -0.2423 -0.4300 -0.2564
 8882SOL    HW127345   2.587   5.192   0.081  0.4955  0.1594 -0.3279
 8882SOL    HW227346   2.728   5.148   0.115 -0.0321 -1.2865  0.0553
 8883SOL     OW27347   0.433   1.281   0.694  0.2628 -0.5208 -0.1039
 8883SOL    HW127348   0.455   1.252   0.783  2.4119 -1.3841 -0.8388
 8883SOL    HW227349   0.434   1.376   0.699 -1.0797 -0.5392  1.0870
 8884SOL     OW27350   3.501   3.545   1.364  0.6861  0.3009  0.2513
 8884SOL    HW127351   3.481   3.613   1.300  0.1037  0.3160  0.4390
 8884SOL    HW227352   3.540   3.474   1.314 -0.3011  0.0710 -0.2227
 8885SOL     OW27353   2.214   5.754   7.266  0.0092  0.1431  0.2997
 8885SOL    HW127354   2.172   5.799   7.193  0.3083 -0.8166 -0.4813
 8885SOL    HW227355   2.295   5.803   7.281  1.7472 -1.6368 -2.3741
 8886SOL     OW27356   4.818   1.288   6.702  0.1110 -0.5863  0.2722
 8886SOL    HW127357   4.871   1.228   6.756  0.6434  0.9709  1.5530
 8886SOL    HW227358   4.852   1.275   6.613  2.2702 -0.1223  0.9494
 8887SOL     OW27359   7.398   2.142   1.434 -0.4472  0.1423 -0.6731
 8887SOL    HW127360   7.433   2.100   1.512  0.1250  1.1689 -0.3583
 8887SOL    HW227361   7.323   2.088   1.409 -0.5227 -0.3066  0.4670
 8888SOL     OW27362   4.006   7.496   4.056  0.3267 -0.1623  0.0852
 8888SOL    HW127363   4.053   7.437   3.998 -1.8705 -0.9804 -0.9743
 8888SOL    HW227364   3.966   7.561   3.998  2.1576  2.0964  1.1675
 8889SOL     OW27365   1.084   1.917   4.688 -0.0748 -0.1625  0.4708
 8889SOL    HW127366   1.121   1.906   4.776  0.6116  0.7084  0.3064
 8889SOL    HW227367   1.145   1.871   4.630  0.2412  0.4527  0.3050
 8890SOL     OW27368   1.687   5.731   5.013  0.7506 -0.5681  0.1713
 8890SOL    HW127369   1.666   5.644   4.979  0.9586 -0.5715  0.0482
 8890SOL    HW227370   1.604   5.766   5.044 -0.0922  0.6695 -3.0492
 8891SOL     OW27371   0.084   0.698   2.305  0.8754 -0.6901  0.2817
 8891SOL    HW127372   0.011   0.736   2.354  0.5905  0.6408 -1.1085
 8891SOL    HW227373   0.131   0.645   2.370 -1.1118 -1.3232  1.3022
 8892SOL     OW27374   5.801   3.462   7.050 -0.5525 -0.8830 -0.0582
 8892SOL    HW127375   5.739   3.389   7.045  0.5212 -1.8798  0.6287
 8892SOL    HW227376   5.789   3.498   7.138  0.6200 -1.8245  0.5119
 8893SOL     OW27377   0.208   6.558   0.309  0.3587 -0.1029 -0.0384
 8893SOL    HW127378   0.241   6.470   0.290 -0.5012 -0.3866 -0.2377
 8893SOL    HW227379   0.129   6.566   0.255  0.0799  0.5501  0.4593
 8894SOL     OW27380   7.578   7.666   4.546  0.1856 -0.0874  0.3821
 8894SOL    HW127381   7.576   7.598   4.613 -0.1646  0.1198  0.5844
 8894SOL    HW227382   7.582   7.748   4.595 -4.2077  0.3737  0.3760
 8895SOL     OW27383   5.857   5.832   0.830 -0.1926 -0.1626  0.8279
 8895SOL    HW127384   5.770   5.816   0.793 -0.3748 -1.0388  1.5909
 8895SOL    HW227385   5.917   5.804   0.762 -0.5021  0.3705  0.3251
 8896SOL     OW27386   7.325   3.817   6.021 -0.2228  0.1382  0.3144
 8896SOL    HW127387   7.245   3.805   6.072  0.2633 -1.4361  0.7645
 8896SOL    HW227388   7.295   3.853   5.938 -1.2961  0.4208  0.8091
 8897SOL     OW27389   2.397   2.891   6.664 -0.4439 -0.0453 -0.0644
 8897SOL    HW127390   2.327   2.930   6.613 -0.5919  1.7059  1.3903
 8897SOL    HW227391   2.359   2.879   6.751  0.5769 -0.5945  0.3238
 8898SOL     OW27392   5.097   7.718   1.166 -0.1960  0.0361  0.1669
 8898SOL    HW127393   5.063   7.662   1.096  1.3823  0.5256 -1.0452
 8898SOL    HW227394   5.024   7.776   1.187 -0.5644  0.2009 -1.4413
 8899SOL     OW27395   4.254   7.272   6.716 -0.1162 -0.2730 -0.2001
 8899SOL    HW127396   4.232   7.182   6.693  3.7334 -1.9336  1.6552
 8899SOL    HW227397   4.239   7.278   6.810  1.3590  0.3620  0.0307
 8900SOL     OW27398   7.028   2.044   4.226 -0.4273  0.5320  0.0122
 8900SOL    HW127399   6.956   1.982   4.235 -0.7056  0.7174 -0.9082
 8900SOL    HW227400   7.010   2.091   4.145  1.1446  0.0267 -0.6751
 8901SOL     OW27401   3.376   1.540   3.770 -0.3132  0.0405 -0.2451
 8901SOL    HW127402   3.324   1.608   3.729 -0.8262  0.5591  1.2030
 8901SOL    HW227403   3.410   1.580   3.850  2.3253 -0.2803 -1.1149
 8902SOL     OW27404   0.251   7.747   1.159  0.2571  0.1464 -0.0086
 8902SOL    HW127405   0.326   7.801   1.185  0.6532 -0.3537 -0.0953
 8902SOL    HW227406   0.180   7.774   1.218 -0.0408  1.9218 -1.1003
 8903SOL     OW27407   4.555   3.635   7.878  0.2387 -0.5807  0.1054
 8903SOL    HW127408   4.557   3.540   7.885  0.6192 -0.6912 -1.2514
 8903SOL    HW227409   4.465   3.655   7.850  0.3864 -0.6134 -0.4020
 8904SOL     OW27410   2.951   1.754   2.130 -0.2399  0.2780  0.3827
 8904SOL    HW127411   3.012   1.803   2.074  0.4204  0.5857  1.3371
 8904SOL    HW227412   3.007   1.695   2.180 -1.0345 -1.5499 -0.7996
 8905SOL     OW27413   4.826   3.955   2.457 -0.5302 -0.2266  0.3878
 8905SOL    HW127414   4.916   3.961   2.426 -0.8767 -0.4565 -0.6879
 8905SOL    HW227415   4.807   4.042   2.493  0.2877 -0.3424  1.1357
 8906SOL     OW27416   4.414   7.971   3.118  0.3915  0.3705 -0.5923
 8906SOL    HW127417   4.355   8.031   3.164  1.8209 -0.5197  2.6646
 8906SOL    HW227418   4.357   7.900   3.089 -0.6549  1.1979 -0.6367
 8907SOL     OW27419   5.252   4.174   7.902  0.0667  0.0222 -0.2900
 8907SOL    HW127420   5.232   4.103   7.963 -2.6475  0.7583 -0.2243
 8907SOL    HW227421   5.210   4.251   7.939 -1.0152  0.6696 -2.6380
 8908SOL     OW27422   5.825   3.718   3.951 -0.2456  0.2272  0.6418
 8908SOL    HW127423   5.835   3.741   3.859  0.7301  0.7831  0.8641
 8908SOL    HW227424   5.731   3.720   3.966 -0.3757  0.9416 -0.1552
 8909SOL     OW27425   4.842   1.200   4.383 -0.8090  0.1169 -0.1819
 8909SOL    HW127426   4.849   1.279   4.437 -1.6609 -0.7807  1.3209
 8909SOL    HW227427   4.833   1.233   4.294 -1.5731  1.7489  0.4537
 8910SOL     OW27428   6.576   3.111   3.078 -0.0514 -0.0308  0.4581
 8910SOL    HW127429   6.652   3.107   3.136  0.1105  0.4038  0.2826
 8910SOL    HW227430   6.514   3.048   3.114  1.1751 -1.8874 -0.5252
 8911SOL     OW27431   6.942   1.074   2.521  0.1012 -0.2951  0.3381
 8911SOL    HW127432   6.972   1.129   2.449 -0.6552  0.1376  0.3494
 8911SOL    HW227433   7.023   1.044   2.563  0.6796 -2.4891 -2.0490
 8912SOL     OW27434   6.282   7.268   4.514 -0.1720 -0.1292  0.1533
 8912SOL    HW127435   6.333   7.315   4.448  0.3100  0.8133  1.1597
 8912SOL    HW227436   6.297   7.175   4.494  1.1806  0.1273 -0.1467
 8913SOL     OW27437   2.883   0.902   6.636 -0.0160 -0.5999 -0.1815
 8913SOL    HW127438   2.863   0.892   6.729  0.6394  0.5424  0.1008
 8913SOL    HW227439   2.970   0.864   6.626  0.5400  0.5859 -0.0149
 8914SOL     OW27440   1.555   2.996   2.757  0.0543  0.2180 -0.0606
 8914SOL    HW127441   1.544   2.902   2.774 -1.2267 -0.2332 -2.7444
 8914SOL    HW227442   1.571   3.001   2.663 -1.0616  2.7552 -0.2047
 8915SOL     OW27443   5.530   1.273   0.707 -0.1486 -0.5116 -0.3281
 8915SOL    HW127444   5.458   1.291   0.646 -1.3127 -1.2665  0.7665
 8915SOL    HW227445   5.603   1.248   0.651 -0.9831 -0.5636 -1.4458
 8916SOL     OW27446   0.289   4.278   1.456  0.1077  0.0738  0.1192
 8916SOL    HW127447   0.312   4.306   1.545  1.7272 -2.5367  0.6190
 8916SOL    HW227448   0.194   4.262   1.460  0.3616 -1.4209  1.8783
 8917SOL     OW27449   5.283   2.860   6.077  0.0680  0.1517  0.4056
 8917SOL    HW127450   5.259   2.872   6.169 -1.2589  0.0924  0.0895
 8917SOL    HW227451   5.207   2.893   6.028  1.9629  3.1868 -0.7680
 8918SOL     OW27452   4.578   7.183   5.964  0.1126 -0.3168  0.7104
 8918SOL    HW127453   4.553   7.254   6.023 -1.8847 -0.7712  0.4525
 8918SOL    HW227454   4.652   7.219   5.914 -2.1047  2.4136 -0.9093
 8919SOL     OW27455   7.747   5.637   5.071  0.7536 -0.3337 -0.0100
 8919SOL    HW127456   7.723   5.631   4.978 -1.0964  1.1159  0.3072
 8919SOL    HW227457   7.708   5.559   5.111 -0.2479  0.0824 -0.1403
 8920SOL     OW27458   6.097   1.844   5.837 -0.6558  0.4064 -0.2246
 8920SOL    HW127459   6.019   1.888   5.872  1.1140  4.7089 -1.1246
 8920SOL    HW227460   6.075   1.825   5.746 -0.9471  0.8054 -0.2407
 8921SOL     OW27461   4.400   3.874   4.497  0.0235 -0.2496 -0.1811
 8921SOL    HW127462   4.439   3.926   4.567  0.2966  1.1930 -1.3450
 8921SOL    HW227463   4.364   3.797   4.541  2.3316 -0.6216  1.2078
 8922SOL     OW27464   6.458   0.423   7.732 -0.8205 -0.1862  0.4140
 8922SOL    HW127465   6.516   0.462   7.668 -0.6080  1.3440  1.4883
 8922SOL    HW227466   6.388   0.487   7.744 -0.5600 -0.1626  2.0796
 8923SOL     OW27467   6.830   4.511   3.947  0.3806 -0.2302 -0.4080
 8923SOL    HW127468   6.863   4.441   4.003 -1.4373  0.5419  1.7941
 8923SOL    HW227469   6.740   4.485   3.927  0.9496 -0.4526 -3.0562
 8924SOL     OW27470   1.472   6.925   1.472 -0.0052  0.0538  0.3877
 8924SOL    HW127471   1.380   6.922   1.499 -0.4820  1.7718 -0.8755
 8924SOL    HW227472   1.496   6.833   1.460 -1.3074 -0.4754  1.4898
 8925SOL     OW27473   4.749   1.679   1.887  0.8322 -0.0867  0.1211
 8925SOL    HW127474   4.816   1.685   1.819  1.4637  1.5094  0.8349
 8925SOL    HW227475   4.776   1.743   1.953 -0.8846 -0.0980  0.8843
 8926SOL     OW27476   0.800   3.245   6.424 -0.2839  0.3850  0.1642
 8926SOL    HW127477   0.880   3.214   6.381 -0.5442  0.1395 -0.1457
 8926SOL    HW227478   0.812   3.223   6.516 -0.2688 -0.2210  0.0189
 8927SOL     OW27479   2.262   1.985   7.014 -0.0269  0.2047 -0.0696
 8927SOL    HW127480   2.330   2.037   6.970 -0.3072  1.0493  0.4728
 8927SOL    HW227481   2.308   1.938   7.083  0.2753 -0.4919 -0.7316
 8928SOL     OW27482   3.098   4.087   1.541  0.3343 -0.3028 -0.3637
 8928SOL    HW127483   3.047   4.007   1.525  0.5499 -0.4286 -0.4304
 8928SOL    HW227484   3.187   4.056   1.555  0.7832  0.0462 -2.1933
 8929SOL     OW27485   2.997   6.628   2.484  0.2169 -0.2346 -0.7409
 8929SOL    HW127486   3.041   6.556   2.529 -1.0945 -0.4367  0.3019
 8929SOL    HW227487   3.040   6.707   2.518  0.9233 -0.4780 -1.0558
 8930SOL     OW27488   6.713   3.279   0.125  0.1566 -0.1977 -0.2152
 8930SOL    HW127489   6.628   3.239   0.144 -1.1362  2.2662 -0.3899
 8930SOL    HW227490   6.714   3.360   0.176  3.5602 -1.3346  1.8323
 8931SOL     OW27491   6.543   2.123   1.533 -0.3674 -0.4018  0.6078
 8931SOL    HW127492   6.588   2.161   1.608  1.3748  0.1615 -0.6441
 8931SOL    HW227493   6.539   2.029   1.551  3.3128 -0.8305 -0.0946
 8932SOL     OW27494   0.217   7.531   5.993  0.4352  0.0576 -0.0354
 8932SOL    HW127495   0.237   7.618   5.959  0.8317  0.3306  0.8698
 8932SOL    HW227496   0.177   7.485   5.919 -1.3101  1.5335 -0.0678
 8933SOL     OW27497   7.866   5.693   6.316  0.4409 -0.3239 -0.0394
 8933SOL    HW127498   7.806   5.764   6.293  0.7885 -0.0488 -0.0981
 8933SOL    HW227499   7.809   5.620   6.339  0.0461  0.4294  1.5054
 8934SOL     OW27500   7.621   7.461   6.478 -0.5376  0.0082 -0.1916
 8934SOL    HW127501   7.583   7.474   6.565 -1.1495 -1.6785 -0.1751
 8934SOL    HW227502   7.710   7.497   6.484 -0.5022 -0.2916  1.1909
 8935SOL     OW27503   6.715   7.534   6.341 -0.4392 -0.3955  0.2335
 8935SOL    HW127504   6.693   7.580   6.260 -0.0874 -0.0132  0.3485
 8935SOL    HW227505   6.719   7.442   6.316  1.5103 -0.1297 -0.6328
 8936SOL     OW27506   2.571   3.324   0.660  0.0630 -0.0971  0.0858
 8936SOL    HW127507   2.598   3.272   0.584  2.8588  0.9311  0.2553
 8936SOL    HW227508   2.494   3.372   0.630  1.6977  1.0745 -2.5357
 8937SOL     OW27509   4.394   3.463   1.050  0.3380  0.6854  0.3124
 8937SOL    HW127510   4.325   3.501   0.996 -0.0526  0.4918  0.6714
 8937SOL    HW227511   4.472   3.512   1.026 -0.0012  1.1815  0.1957
 8938SOL     OW27512   1.273   7.800   6.443 -0.6914  0.5816  0.5911
 8938SOL    HW127513   1.251   7.861   6.372  0.7879  0.1004 -0.3275
 8938SOL    HW227514   1.320   7.854   6.507  2.3043  0.1950 -1.0704
 8939SOL     OW27515   0.857   7.006   7.675  0.6710 -0.4334 -0.0895
 8939SOL    HW127516   0.795   6.934   7.667 -1.3626  1.1482  0.3946
 8939SOL    HW227517   0.836   7.045   7.760  1.0936  1.2419 -0.7205
 8940SOL     OW27518   2.063   5.626   0.873  0.1521 -0.3409  0.1920
 8940SOL    HW127519   2.104   5.596   0.792  0.3046  3.9568 -1.5929
 8940SOL    HW227520   2.134   5.663   0.924 -0.5242  1.0284  0.1864
 8941SOL     OW27521   1.533   7.758   5.262  0.4950  0.0969 -0.3919
 8941SOL    HW127522   1.557   7.839   5.307 -1.0660 -0.0782  0.8694
 8941SOL    HW227523   1.605   7.698   5.282  0.5849  0.5080  0.5950
 8942SOL     OW27524   6.810   2.957   5.141  0.0641 -0.5757 -0.2070
 8942SOL    HW127525   6.743   2.946   5.074 -1.2462 -2.1499  1.2885
 8942SOL    HW227526   6.768   3.011   5.208 -0.1319 -2.3921  1.2096
 8943SOL     OW27527   4.972   4.713   3.210 -0.5507 -0.2701 -0.2062
 8943SOL    HW127528   4.900   4.724   3.148 -0.4037 -0.5208 -0.4221
 8943SOL    HW227529   5.046   4.685   3.157 -0.5652 -1.0009  0.1520
 8944SOL     OW27530   5.086   2.226   1.190  0.9832  0.0406 -0.5182
 8944SOL    HW127531   5.146   2.178   1.133  1.1503  3.4359 -3.5403
 8944SOL    HW227532   5.142   2.288   1.236  0.2885  0.2667  0.0312
 8945SOL     OW27533   4.664   6.765   7.913  0.4774  0.1568  0.0613
 8945SOL    HW127534   4.672   6.670   7.901  0.3700  0.2327 -0.6406
 8945SOL    HW227535   4.689   6.802   7.828 -0.0308  0.7317  0.1588
 8946SOL     OW27536   1.954   4.694   5.368  0.2667 -0.4564  0.3873
 8946SOL    HW127537   1.953   4.789   5.381 -1.5986 -0.3754  0.0055
 8946SOL    HW227538   2.004   4.681   5.288 -0.2835  0.3024 -0.0890
 8947SOL     OW27539   5.368   3.387   7.957 -0.3240  0.2945 -0.0952
 8947SOL    HW127540   5.459   3.373   7.933 -0.3882  0.0150 -0.1682
 8947SOL    HW227541   5.318   3.338   7.893 -0.5345  0.6123 -0.1770
 8948SOL     OW27542   5.651   3.189   4.174  0.1887  0.6230 -0.1448
 8948SOL    HW127543   5.642   3.265   4.231  1.6343  1.6093 -1.1666
 8948SOL    HW227544   5.687   3.224   4.092 -2.6581 -0.5557 -2.0888
 8949SOL     OW27545   3.445   7.805   7.028 -0.0139  0.3030 -0.3481
 8949SOL    HW127546   3.539   7.789   7.030 -0.2356 -1.1341 -0.2674
 8949SOL    HW227547   3.437   7.900   7.029  1.4597  0.4897 -1.6669
 8950SOL     OW27548   2.440   6.762   3.998 -0.2898  0.2245 -0.3304
 8950SOL    HW127549   2.513   6.801   3.950 -0.1594 -0.5019 -0.7458
 8950SOL    HW227550   2.396   6.707   3.933 -0.4088 -0.3814  0.2529
 8951SOL     OW27551   7.785   5.908   3.011  0.6058  0.1763 -0.7989
 8951SOL    HW127552   7.698   5.868   3.012  1.0273 -0.7829  0.0008
 8951SOL    HW227553   7.775   5.990   3.060  0.5308 -0.8488  0.9864
 8952SOL     OW27554   4.088   3.849   0.127  0.3156 -0.1167 -0.2847
 8952SOL    HW127555   4.010   3.876   0.078 -1.4533 -1.7110  1.4924
 8952SOL    HW227556   4.090   3.754   0.119  2.2362 -0.0947 -0.4493
 8953SOL     OW27557   0.336   5.662   6.295 -0.5763  0.0711 -0.2947
 8953SOL    HW127558   0.337   5.628   6.385 -0.6740  1.5992  0.3194
 8953SOL    HW227559   0.364   5.588   6.241 -0.0263 -0.7370  1.0421
 8954SOL     OW27560   5.448   6.738   6.287 -0.1311  0.0327  0.1464
 8954SOL    HW127561   5.366   6.745   6.239  0.0717 -0.7514 -0.3359
 8954SOL    HW227562   5.504   6.684   6.231  1.3121  1.8904 -0.3577
 8955SOL     OW27563   0.117   0.596   7.210  0.3023  0.5793 -0.5693
 8955SOL    HW127564   0.052   0.563   7.272 -1.2317 -1.0857 -2.8797
 8955SOL    HW227565   0.082   0.680   7.182  0.7742  1.1296  0.4426
 8956SOL     OW27566   5.684   1.196   7.162 -0.2775 -0.7198  0.5667
 8956SOL    HW127567   5.616   1.232   7.105 -0.5770 -0.9404  0.7777
 8956SOL    HW227568   5.667   1.236   7.247  0.0852 -0.4924  0.5332
 8957SOL     OW27569   6.889   1.998   7.420  0.2555 -0.5017  0.0757
 8957SOL    HW127570   6.929   2.036   7.341 -0.5994  0.4187  0.0631
 8957SOL    HW227571   6.818   1.943   7.387 -0.7101  0.6185  0.2009
 8958SOL     OW27572   6.075   0.780   1.584 -0.3505  0.0960 -0.1966
 8958SOL    HW127573   6.081   0.711   1.519  0.3565  0.0904 -0.1380
 8958SOL    HW227574   6.141   0.757   1.650  0.4820  1.2466 -0.5892
 8959SOL     OW27575   0.250   2.931   5.708  0.3744  0.2372 -0.0832
 8959SOL    HW127576   0.168   2.894   5.740  1.1526  0.4363  2.3680
 8959SOL    HW227577   0.318   2.874   5.743  1.3243  0.0938 -2.0449
 8960SOL     OW27578   2.567   4.261   2.766  0.2454  0.5816 -0.1292
 8960SOL    HW127579   2.547   4.355   2.773 -0.5873  0.3787  0.2898
 8960SOL    HW227580   2.484   4.221   2.740  0.0175 -0.3115  1.8567
 8961SOL     OW27581   1.429   7.737   1.525 -0.0368  0.3462  0.3496
 8961SOL    HW127582   1.515   7.758   1.489  0.0585  0.7943  0.8155
 8961SOL    HW227583   1.367   7.769   1.459  0.1210  1.6524  0.7997
 8962SOL     OW27584   3.555   0.642   1.800 -0.0294  0.0784  0.6783
 8962SOL    HW127585   3.499   0.600   1.866  0.7143 -0.7441  0.7981
 8962SOL    HW227586   3.517   0.614   1.717  1.9238 -3.0084  0.6968
 8963SOL     OW27587   3.405   3.504   2.901 -0.8349  0.4145 -0.1728
 8963SOL    HW127588   3.449   3.419   2.899 -0.9521  0.3425  0.2493
 8963SOL    HW227589   3.371   3.511   2.990 -0.3460  1.1461 -0.0364
 8964SOL     OW27590   7.268   7.159   3.060  0.3155 -0.1638 -0.6488
 8964SOL    HW127591   7.352   7.119   3.039  0.1765 -0.2573 -1.0265
 8964SOL    HW227592   7.232   7.104   3.130  0.3332 -0.4292 -0.8473
 8965SOL     OW27593   7.693   4.026   2.341 -0.2705  0.0446  0.1476
 8965SOL    HW127594   7.711   4.067   2.256 -0.1948  1.6537  0.9106
 8965SOL    HW227595   7.675   3.934   2.320 -0.4080  0.4451 -1.6210
 8966SOL     OW27596   5.996   3.647   6.125  0.3689 -0.3178  0.4361
 8966SOL    HW127597   6.087   3.675   6.134  0.2048  0.4252 -0.0582
 8966SOL    HW227598   5.998   3.553   6.139  1.5208 -0.6204 -1.4113
 8967SOL     OW27599   1.167   4.146   5.508 -0.0455  0.3518 -0.3199
 8967SOL    HW127600   1.117   4.227   5.519 -0.2136  0.2502 -0.3373
 8967SOL    HW227601   1.207   4.131   5.593 -2.1429 -0.9686  0.4755
 8968SOL     OW27602   4.772   7.199   5.682  0.0079 -0.4863  0.4319
 8968SOL    HW127603   4.819   7.280   5.702 -0.2344 -0.1158 -0.4387
 8968SOL    HW227604   4.841   7.137   5.655  0.3614 -1.0540  2.4497
 8969SOL     OW27605   2.829   3.436   3.689 -0.0613  0.1477  0.0380
 8969SOL    HW127606   2.771   3.414   3.617 -1.1790 -0.9082  1.2134
 8969SOL    HW227607   2.854   3.352   3.727 -0.0185  0.6965  1.2774
 8970SOL     OW27608   0.718   4.648   0.432 -0.2591  0.1583 -0.5995
 8970SOL    HW127609   0.643   4.702   0.411  0.2635  0.6132 -1.3167
 8970SOL    HW227610   0.756   4.689   0.510 -1.8742 -1.2136  1.0105
 8971SOL     OW27611   6.974   0.203   4.121 -0.1750  0.2264  0.7311
 8971SOL    HW127612   6.911   0.267   4.087 -0.8579 -0.9080 -0.2379
 8971SOL    HW227613   6.971   0.131   4.058  2.0863  0.1104  0.6860
 8972SOL     OW27614   5.619   6.454   5.685  0.1337 -0.0542 -0.6686
 8972SOL    HW127615   5.581   6.375   5.723  0.7311  0.1473  0.3918
 8972SOL    HW227616   5.695   6.423   5.635  1.1043 -0.0592  0.7610
 8973SOL     OW27617   3.989   1.338   4.145  0.2862 -0.0754  0.4903
 8973SOL    HW127618   3.952   1.416   4.186 -0.8370 -0.4339  0.1867
 8973SOL    HW227619   4.037   1.371   4.070 -0.4207  0.3132  0.1982
 8974SOL     OW27620   3.938   3.484   5.252 -0.6654  0.3407 -0.1425
 8974SOL    HW127621   3.985   3.403   5.235 -0.1312  0.8483 -1.2016
 8974SOL    HW227622   3.973   3.546   5.187 -1.1800  1.3640  0.5275
 8975SOL     OW27623   1.242   4.866   5.845 -0.7867 -0.3110  0.1342
 8975SOL    HW127624   1.185   4.796   5.876 -0.2054 -1.8880 -2.0914
 8975SOL    HW227625   1.329   4.825   5.841  0.4223  1.7662  2.5842
 8976SOL     OW27626   6.089   3.339   3.321  0.0715  0.1289  0.0590
 8976SOL    HW127627   6.134   3.255   3.314  1.2960  0.8478 -1.6084
 8976SOL    HW227628   5.996   3.318   3.307  0.3286 -0.9689 -0.1150
 8977SOL     OW27629   0.001   7.903   2.306  0.2119  0.1615 -1.0712
 8977SOL    HW127630   0.053   7.834   2.263  0.4133 -0.3541 -0.0318
 8977SOL    HW227631  -0.033   7.955   2.234  0.3882 -0.7910 -1.8737
 8978SOL     OW27632   4.318   5.704   5.856 -0.0576  0.2110  0.3310
 8978SOL    HW127633   4.381   5.731   5.923 -0.2503  0.5170  0.3873
 8978SOL    HW227634   4.372   5.668   5.786  0.1550  0.0318  0.5832
 8979SOL     OW27635   2.766   4.378   6.365  0.3922  0.0226  0.0056
 8979SOL    HW127636   2.682   4.394   6.408 -1.0123 -2.4862 -1.5300
 8979SOL    HW227637   2.806   4.307   6.415  0.8847  0.1947 -0.1361
 8980SOL     OW27638   2.873   7.287   6.196 -0.3973 -0.1323  0.5052
 8980SOL    HW127639   2.866   7.342   6.118  0.5219  0.0192  0.5121
 8980SOL    HW227640   2.932   7.335   6.254 -0.3943 -0.6443  0.9411
 8981SOL     OW27641   4.701   3.871   1.056  0.1244 -0.1927  0.3443
 8981SOL    HW127642   4.662   3.859   1.143  0.0636 -0.9434  0.2146
 8981SOL    HW227643   4.787   3.828   1.063  0.7590  1.0446  0.4882
 8982SOL     OW27644   5.893   6.981   3.025  0.2152 -0.1140  0.2860
 8982SOL    HW127645   5.942   6.981   2.943 -0.4396  1.3800 -0.1466
 8982SOL    HW227646   5.937   6.916   3.080  0.8514 -0.9210 -1.1246
 8983SOL     OW27647   6.465   7.809   0.922 -0.0065  0.3595 -0.1411
 8983SOL    HW127648   6.505   7.825   1.008  0.1313 -0.9383  0.0557
 8983SOL    HW227649   6.460   7.714   0.916  0.1514  0.4356 -1.6653
 8984SOL     OW27650   1.507   1.857   3.305 -0.0588 -0.0065 -0.2251
 8984SOL    HW127651   1.557   1.910   3.367  0.2457  0.3248 -0.7573
 8984SOL    HW227652   1.488   1.915   3.232 -1.3955 -0.0670  0.0458
 8985SOL     OW27653   6.788   7.836   2.770  0.3298 -0.7585  0.3410
 8985SOL    HW127654   6.748   7.753   2.744  1.3718 -0.7610 -1.4236
 8985SOL    HW227655   6.796   7.886   2.689  1.7169  0.1719  1.0086
 8986SOL     OW27656   7.928   4.836   2.918 -0.7734  0.1825 -0.7348
 8986SOL    HW127657   7.844   4.804   2.951 -0.3352  0.7046  1.0462
 8986SOL    HW227658   7.967   4.881   2.993  0.4924  1.1626 -1.9252
 8987SOL     OW27659   0.309   4.176   3.370  0.5523  0.1054  0.5086
 8987SOL    HW127660   0.311   4.140   3.459 -0.5901 -1.0237  0.1053
 8987SOL    HW227661   0.359   4.257   3.376  0.4528  0.0771  2.1968
 8988SOL     OW27662   3.930   5.362   5.151  0.5448 -0.0055 -0.2327
 8988SOL    HW127663   4.000   5.298   5.163  0.4893 -0.1001 -0.4255
 8988SOL    HW227664   3.937   5.420   5.228  0.8911  0.0399 -0.2994
 8989SOL     OW27665   2.916   6.817   6.314 -0.3603 -0.3021 -0.4579
 8989SOL    HW127666   2.919   6.905   6.353  0.2916 -0.2163 -0.6853
 8989SOL    HW227667   2.871   6.831   6.230  1.3079  0.1715 -1.3287
 8990SOL     OW27668   5.235   1.468   1.380 -0.3270 -0.2073  0.3615
 8990SOL    HW127669   5.331   1.467   1.374 -0.3091 -0.5197  0.6735
 8990SOL    HW227670   5.216   1.424   1.463 -0.8218 -2.1849 -0.7378
 8991SOL     OW27671   7.426   7.395   0.386 -0.4398 -0.2309  0.1287
 8991SOL    HW127672   7.510   7.371   0.425 -1.2721 -1.0343  1.4736
 8991SOL    HW227673   7.416   7.335   0.312 -0.2795 -0.7759  0.5462
 8992SOL     OW27674   2.868   0.250   1.325  0.4143  0.1762  0.0429
 8992SOL    HW127675   2.875   0.285   1.413 -0.7801 -0.8155  0.5573
 8992SOL    HW227676   2.869   0.155   1.336 -1.0016  0.0148 -0.8680
 8993SOL     OW27677   7.485   0.233   5.770 -0.1507  0.2007 -0.3694
 8993SOL    HW127678   7.558   0.174   5.752 -0.6554 -0.5969  0.1939
 8993SOL    HW227679   7.410   0.176   5.786 -0.4644  0.9516  1.0080
 8994SOL     OW27680   2.549   1.027   6.956  0.2928 -0.6808  0.3528
 8994SOL    HW127681   2.592   1.005   7.039 -2.0223  0.7065  2.0435
 8994SOL    HW227682   2.460   0.994   6.966 -0.1193 -0.1955 -1.4814
 8995SOL     OW27683   4.776   0.319   1.254 -0.6629 -0.4721 -1.2165
 8995SOL    HW127684   4.779   0.362   1.339 -1.9734 -0.9254 -0.9246
 8995SOL    HW227685   4.845   0.252   1.259 -1.2432 -1.0123 -0.2177
 8996SOL     OW27686   5.012   3.113   0.641 -0.1286  0.5977  0.3422
 8996SOL    HW127687   5.076   3.113   0.570 -0.6302  2.6337 -0.1685
 8996SOL    HW227688   5.013   3.024   0.674  2.4821  0.4024 -0.0897
 8997SOL     OW27689   7.837   3.805   7.645 -0.2203  0.5686  0.0001
 8997SOL    HW127690   7.799   3.892   7.637  0.8136  1.0603  0.2009
 8997SOL    HW227691   7.808   3.758   7.566 -3.5465 -0.0653  1.4317
 8998SOL     OW27692   7.047   4.978   2.893  0.5596 -0.2199  0.5234
 8998SOL    HW127693   7.042   5.072   2.910 -1.6339  0.6504 -3.6531
 8998SOL    HW227694   6.966   4.943   2.931 -0.1236  0.1832 -0.5170
 8999SOL     OW27695   5.798   6.448   7.441  0.7969  0.4709 -0.2376
 8999SOL    HW127696   5.718   6.414   7.401  0.7244  0.1104  0.2041
 8999SOL    HW227697   5.786   6.543   7.441 -0.4321  0.3524  1.4155
 9000SOL     OW27698   4.944   1.374   1.591 -0.4485 -0.1419 -0.1499
 9000SOL    HW127699   4.902   1.437   1.533 -3.9192 -1.0927  1.0232
 9000SOL    HW227700   5.018   1.421   1.629  1.0372  0.9852 -4.0165
 9001SOL     OW27701   6.247   6.679   3.382 -0.4420  0.4408  0.2063
 9001SOL    HW127702   6.204   6.596   3.399  0.1876  0.1917  0.5985
 9001SOL    HW227703   6.287   6.704   3.465  0.3806  0.5418 -0.2078
 9002SOL     OW27704   7.062   6.415   2.317  0.4242  0.1107 -0.1487
 9002SOL    HW127705   7.028   6.452   2.235  1.3857 -0.0549 -0.6378
 9002SOL    HW227706   6.993   6.430   2.381 -0.7727 -0.6620 -1.2158
 9003SOL     OW27707   6.844   7.674   7.937  0.0288  0.0848 -0.1203
 9003SOL    HW127708   6.842   7.610   7.866  2.2706 -0.0434 -0.1534
 9003SOL    HW227709   6.774   7.736   7.917 -0.1935 -0.6626 -1.7561
 9004SOL     OW27710   6.967   4.646   7.075 -0.3725  0.0123  0.6547
 9004SOL    HW127711   7.011   4.646   6.990 -0.1004  3.0415  0.6884
 9004SOL    HW227712   6.935   4.557   7.086 -0.6050 -0.4242 -2.7145
 9005SOL     OW27713   2.671   6.652   5.380  0.0316  0.2686 -0.0025
 9005SOL    HW127714   2.607   6.589   5.411  0.0491  0.3999  0.3066
 9005SOL    HW227715   2.637   6.737   5.409  0.9730  0.2413  1.2968
 9006SOL     OW27716   3.170   3.289   0.860 -0.2976 -0.7467  0.0495
 9006SOL    HW127717   3.122   3.357   0.907 -0.8989 -1.2265  0.1584
 9006SOL    HW227718   3.235   3.336   0.808 -0.6956 -0.0950  0.1272
 9007SOL     OW27719   7.853   1.475   1.771  0.5252  0.2442 -0.6136
 9007SOL    HW127720   7.785   1.421   1.732  0.6428 -0.3103 -0.0786
 9007SOL    HW227721   7.935   1.431   1.746  0.6062 -0.0290  0.1046
 9008SOL     OW27722   3.741   1.270   4.653 -0.2268  0.1880  0.3411
 9008SOL    HW127723   3.791   1.192   4.630 -0.7845  0.5684 -2.5753
 9008SOL    HW227724   3.781   1.341   4.601 -0.9447  1.4501  1.4425
 9009SOL     OW27725   4.827   2.920   1.269  0.0264  0.8179  0.4485
 9009SOL    HW127726   4.790   2.871   1.196 -0.0292 -2.5540  2.4993
 9009SOL    HW227727   4.753   2.937   1.327  0.5244  0.6314  1.1531
 9010SOL     OW27728   2.720   7.022   6.907  0.7666 -0.2689  0.3749
 9010SOL    HW127729   2.661   7.094   6.930 -1.4380 -1.6572 -0.5717
 9010SOL    HW227730   2.769   7.054   6.831 -1.0573 -0.1040 -0.8064
 9011SOL     OW27731   0.283   2.555   1.473 -0.0119  0.1846 -0.0950
 9011SOL    HW127732   0.256   2.613   1.402 -0.0703 -0.6614 -0.7930
 9011SOL    HW227733   0.363   2.594   1.508 -1.1119  1.7409  0.7927
 9012SOL     OW27734   2.070   7.612   4.646  0.4205 -0.0443 -0.2221
 9012SOL    HW127735   1.977   7.588   4.649  0.5562 -0.5559 -0.1161
 9012SOL    HW227736   2.071   7.705   4.668 -0.0007 -0.2211  0.5863
 9013SOL     OW27737   2.867   1.823   3.503  0.0438 -0.3035 -0.4374
 9013SOL    HW127738   2.808   1.829   3.578 -0.0983 -1.2200 -0.4657
 9013SOL    HW227739   2.919   1.744   3.519  2.5672  1.4201  0.4897
 9014SOL     OW27740   7.146   5.713   4.368 -0.4766  0.6878 -0.1125
 9014SOL    HW127741   7.088   5.771   4.417 -0.1658  0.1989  0.8566
 9014SOL    HW227742   7.199   5.772   4.314 -1.4748  1.1726 -0.5985
 9015SOL     OW27743   1.418   0.740   0.234 -0.0099  0.0382 -0.5476
 9015SOL    HW127744   1.425   0.694   0.151  0.6249 -1.6840  0.4181
 9015SOL    HW227745   1.331   0.779   0.233  0.6339  1.6803 -2.7780
 9016SOL     OW27746   6.466   0.980   4.767  0.5603  0.4690 -0.3182
 9016SOL    HW127747   6.405   0.986   4.694 -0.0493  0.2911  0.1648
 9016SOL    HW227748   6.428   1.035   4.836 -0.0349 -1.0585  0.6418
 9017SOL     OW27749   2.894   1.410   6.993  0.0210  0.5787 -0.3396
 9017SOL    HW127750   2.899   1.504   6.976 -0.6501  0.6128 -0.3767
 9017SOL    HW227751   2.972   1.390   7.044  1.6494  0.6490 -2.6529
 9018SOL     OW27752   3.596   1.038   2.813  0.2875 -0.3284  0.2439
 9018SOL    HW127753   3.541   0.974   2.769  0.1857 -0.5149  0.6372
 9018SOL    HW227754   3.571   1.032   2.905  0.5413  0.0101  0.3384
 9019SOL     OW27755   1.107   1.603   2.992 -0.3093  0.4104 -0.4765
 9019SOL    HW127756   1.024   1.601   3.041  0.2332 -0.5049  0.4486
 9019SOL    HW227757   1.159   1.670   3.036 -0.1486  0.2049 -0.3511
 9020SOL     OW27758   0.067   3.821   5.533 -0.0368  0.0458 -0.2735
 9020SOL    HW127759   0.119   3.843   5.456 -0.0113 -0.3150 -0.3612
 9020SOL    HW227760  -0.024   3.828   5.504 -0.0252 -0.2303 -0.3749
 9021SOL     OW27761   4.536   5.701   0.955 -0.6871  0.2444 -0.3302
 9021SOL    HW127762   4.515   5.619   0.911 -0.9327  0.3857 -0.4781
 9021SOL    HW227763   4.622   5.726   0.921  0.7149 -1.3470  1.7113
 9022SOL     OW27764   6.720   3.797   6.385 -0.1996  0.1514 -0.5341
 9022SOL    HW127765   6.814   3.813   6.371  0.3224 -1.0609  1.2954
 9022SOL    HW227766   6.695   3.857   6.455 -0.2709 -0.9115  0.3825
 9023SOL     OW27767   1.191   1.842   2.124 -0.4237 -0.3495 -0.2930
 9023SOL    HW127768   1.205   1.915   2.184 -0.7353  0.9460 -1.7407
 9023SOL    HW227769   1.270   1.789   2.131  0.1123  0.5130  0.2586
 9024SOL     OW27770   6.626   4.354   4.103 -0.7394 -0.2030 -0.0891
 9024SOL    HW127771   6.615   4.325   4.013 -1.0817  0.4482 -0.2544
 9024SOL    HW227772   6.556   4.417   4.118 -1.0769 -0.7834  0.8359
 9025SOL     OW27773   5.483   5.661   0.600 -0.3179  0.5064  0.7965
 9025SOL    HW127774   5.465   5.747   0.562  0.2589  0.5460  0.5924
 9025SOL    HW227775   5.536   5.679   0.678 -0.2985  0.3423  0.8232
 9026SOL     OW27776   0.375   2.869   3.610 -0.4525 -0.2603 -0.3694
 9026SOL    HW127777   0.398   2.833   3.696 -0.8905  1.6798  0.6253
 9026SOL    HW227778   0.436   2.942   3.598 -1.0339  0.0961 -1.2459
 9027SOL     OW27779   3.399   0.575   3.103  0.0803 -0.3005  0.3774
 9027SOL    HW127780   3.341   0.650   3.085  2.0065  1.5393  1.4317
 9027SOL    HW227781   3.360   0.503   3.054 -2.0250  1.3077 -0.4857
 9028SOL     OW27782   5.170   4.956   1.424  0.0041 -0.3984  0.3121
 9028SOL    HW127783   5.164   4.867   1.458 -0.0547 -1.0704 -1.3440
 9028SOL    HW227784   5.239   4.997   1.477  2.1133 -2.3560 -0.7239
 9029SOL     OW27785   4.836   2.300   6.437  0.4786 -0.1231  0.0615
 9029SOL    HW127786   4.759   2.315   6.492  0.9139 -0.3627  0.7543
 9029SOL    HW227787   4.820   2.351   6.358  1.0738  2.5078  1.5185
 9030SOL     OW27788   7.461   1.445   5.085  0.1517 -0.0139 -0.4842
 9030SOL    HW127789   7.421   1.361   5.105  0.7702  0.0461  1.1020
 9030SOL    HW227790   7.516   1.428   5.008  0.5624 -1.1500  0.0495
 9031SOL     OW27791   0.524   3.142   3.032 -0.1479  0.0265 -0.1638
 9031SOL    HW127792   0.612   3.124   3.068 -0.4092  0.4904  0.7435
 9031SOL    HW227793   0.468   3.149   3.110 -0.8956  0.2532 -0.7150
 9032SOL     OW27794   1.438   3.546   5.387 -0.3000  0.6288 -0.4029
 9032SOL    HW127795   1.495   3.475   5.357  0.8264  2.0307 -1.7435
 9032SOL    HW227796   1.350   3.518   5.363  0.3238  0.5751 -2.9273
 9033SOL     OW27797   2.438   4.522   6.215  0.2733 -0.1969 -0.2118
 9033SOL    HW127798   2.426   4.478   6.132 -0.0963 -0.8371  0.1758
 9033SOL    HW227799   2.359   4.574   6.227  0.0425 -0.5992  0.0335
 9034SOL     OW27800   3.314   7.505   2.095  0.4841 -0.3513 -0.3781
 9034SOL    HW127801   3.317   7.445   2.020 -0.1179  0.0131 -0.7080
 9034SOL    HW227802   3.353   7.586   2.062  1.5752 -0.6420  0.1576
 9035SOL     OW27803   5.545   6.225   7.706 -0.0828  0.2821 -0.6915
 9035SOL    HW127804   5.543   6.299   7.645  1.5986 -0.7455 -2.0704
 9035SOL    HW227805   5.632   6.187   7.695  0.7434  0.6488  3.1623
 9036SOL     OW27806   3.309   2.089   4.538 -0.0959  0.0830 -0.0638
 9036SOL    HW127807   3.260   2.033   4.478 -0.8749  0.9833 -0.2889
 9036SOL    HW227808   3.398   2.089   4.503 -0.3423 -0.1083 -0.7130
 9037SOL     OW27809   1.961   2.943   7.849 -0.0264 -0.7705  0.3613
 9037SOL    HW127810   2.013   2.945   7.930  0.4711  2.8937  0.1157
 9037SOL    HW227811   2.022   2.972   7.781 -1.6701  1.2184 -0.3746
 9038SOL     OW27812   3.942   3.468   1.387  0.5882  0.0555  0.5508
 9038SOL    HW127813   4.010   3.404   1.366 -0.0322 -0.1391 -1.0465
 9038SOL    HW227814   3.874   3.416   1.431  1.2221  0.1440  1.6465
 9039SOL     OW27815   5.309   5.714   6.944  0.0718 -0.1489 -0.1442
 9039SOL    HW127816   5.215   5.731   6.935 -0.2084 -1.3469  0.3683
 9039SOL    HW227817   5.350   5.796   6.918 -1.1038  0.2967 -0.6777
 9040SOL     OW27818   1.206   3.481   6.157  0.9027  0.3498 -0.2228
 9040SOL    HW127819   1.250   3.437   6.230 -0.0169 -0.5440 -0.1922
 9040SOL    HW227820   1.211   3.419   6.085  1.3914  1.0389 -0.7945
 9041SOL     OW27821   3.636   7.546   0.231  0.2973  0.4532  0.5143
 9041SOL    HW127822   3.609   7.472   0.177  0.1022  0.7517  0.2019
 9041SOL    HW227823   3.607   7.523   0.319 -1.1764  0.8603  0.1584
 9042SOL     OW27824   6.282   6.660   7.021  0.3344  0.2716  0.0545
 9042SOL    HW127825   6.361   6.696   6.982 -1.2870  2.3326 -1.5425
 9042SOL    HW227826   6.286   6.566   7.002  1.6672  0.5720 -1.3060
 9043SOL     OW27827   7.931   4.052   1.829 -0.1236  0.0196 -0.3758
 9043SOL    HW127828   7.873   4.128   1.833 -2.0360 -1.3295 -1.0276
 9043SOL    HW227829   7.919   4.008   1.913 -0.4927 -0.5681 -0.7296
 9044SOL     OW27830   6.290   3.762   2.038 -0.6625 -0.3684  0.6021
 9044SOL    HW127831   6.335   3.835   2.080  0.2260 -0.8806  0.5695
 9044SOL    HW227832   6.351   3.688   2.046 -1.6165 -1.1578  0.8067
 9045SOL     OW27833   3.857   7.368   5.737  0.6778  0.7878 -0.0980
 9045SOL    HW127834   3.882   7.454   5.701  1.1096  0.5253 -0.4332
 9045SOL    HW227835   3.931   7.344   5.793  1.1452  0.0477 -1.0193
 9046SOL     OW27836   7.807   1.952   1.183  0.0216 -0.5884  0.1979
 9046SOL    HW127837   7.805   2.047   1.186 -0.9660 -0.6205  1.5911
 9046SOL    HW227838   7.837   1.931   1.094  1.7497  1.0001  0.3479
 9047SOL     OW27839   1.445   7.578   5.854 -0.1555  0.0224  0.3416
 9047SOL    HW127840   1.485   7.575   5.941 -0.7674  1.1903  0.6864
 9047SOL    HW227841   1.351   7.570   5.871 -0.2873  0.4006 -0.2037
 9048SOL     OW27842   2.673   7.524   0.785  0.5094  0.0292 -0.0472
 9048SOL    HW127843   2.705   7.461   0.849 -1.4671  0.2413  1.2333
 9048SOL    HW227844   2.603   7.478   0.738 -1.7598  1.4712  1.6705
 9049SOL     OW27845   6.941   2.391   3.113  0.4777 -0.1047  0.0324
 9049SOL    HW127846   6.986   2.338   3.047  0.5620 -0.3033  0.2487
 9049SOL    HW227847   6.984   2.476   3.109  2.6271 -1.0232  2.0145
 9050SOL     OW27848   2.347   3.360   1.825 -0.0703 -0.2067 -0.6359
 9050SOL    HW127849   2.407   3.329   1.893 -0.1656 -1.0607 -0.9306
 9050SOL    HW227850   2.325   3.450   1.851 -0.3562 -0.6285  0.6305
 9051SOL     OW27851   6.437   2.402   7.175  0.6867 -0.2381  0.2274
 9051SOL    HW127852   6.349   2.404   7.212  0.3016  2.3511 -0.6021
 9051SOL    HW227853   6.441   2.319   7.128 -0.9042 -0.9111  1.1871
 9052SOL     OW27854   4.688   6.803   1.451 -0.1189  0.4082 -0.4178
 9052SOL    HW127855   4.721   6.718   1.480  3.5181  1.4209 -1.1328
 9052SOL    HW227856   4.593   6.790   1.441  0.3305 -3.6735 -0.9459
 9053SOL     OW27857   0.576   3.868   6.136  0.0605 -0.7714  0.6662
 9053SOL    HW127858   0.667   3.888   6.115 -0.5545  0.5902 -0.9127
 9053SOL    HW227859   0.563   3.902   6.224  0.7316  0.2458  0.3839
 9054SOL     OW27860   5.596   7.318   1.974 -0.0252  0.6434 -0.4090
 9054SOL    HW127861   5.652   7.241   1.972  0.1950  0.7432  0.8203
 9054SOL    HW227862   5.657   7.391   1.989 -0.2669  1.0178 -1.1958
 9055SOL     OW27863   0.242   4.530   0.132  0.2811 -0.0294  0.0884
 9055SOL    HW127864   0.274   4.441   0.123 -0.5624 -0.4245  0.8899
 9055SOL    HW227865   0.149   4.521   0.152  0.3819  0.9966  1.1441
 9056SOL     OW27866   5.104   7.810   5.598 -0.1579 -0.0790  0.8082
 9056SOL    HW127867   5.104   7.836   5.691 -1.3687 -0.9634  1.0810
 9056SOL    HW227868   5.062   7.724   5.598  0.6846 -0.5103 -0.4679
 9057SOL     OW27869   1.670   2.697   2.859 -0.1770  0.8076 -0.1436
 9057SOL    HW127870   1.588   2.667   2.898  0.2265  0.9641  0.8710
 9057SOL    HW227871   1.652   2.702   2.766 -0.8398 -0.7279 -0.1358
 9058SOL     OW27872   5.056   4.943   6.417 -0.7204  0.2391  0.1130
 9058SOL    HW127873   4.962   4.931   6.406 -0.9481  0.9855  1.1666
 9058SOL    HW227874   5.084   4.988   6.337 -1.2371 -0.0734 -0.2453
 9059SOL     OW27875   1.703   5.104   6.148 -0.1255 -0.3295  0.1376
 9059SOL    HW127876   1.701   5.156   6.229  1.6262 -1.2844  0.8463
 9059SOL    HW227877   1.630   5.042   6.158 -0.3027 -0.0395  0.7057
 9060SOL     OW27878   5.465   1.225   6.428  0.3068 -0.1021 -0.1391
 9060SOL    HW127879   5.373   1.214   6.402  0.1353  0.4349  0.2232
 9060SOL    HW227880   5.511   1.154   6.383 -0.3252 -0.5422 -0.1111
 9061SOL     OW27881   3.395   2.459   4.756 -0.7366  0.4257 -0.0766
 9061SOL    HW127882   3.314   2.408   4.753 -0.3039 -0.3595  1.1236
 9061SOL    HW227883   3.457   2.409   4.702 -0.8880  0.7579 -0.5686
 9062SOL     OW27884   0.064   6.291   4.493  0.1114 -0.3371  0.1486
 9062SOL    HW127885   0.002   6.248   4.552  0.2198  0.7579  1.0989
 9062SOL    HW227886   0.148   6.249   4.511  0.4035  0.8300  1.7394
 9063SOL     OW27887   7.563   5.066   5.748  0.2671  0.3734 -0.0018
 9063SOL    HW127888   7.656   5.056   5.768 -0.0172 -0.2156  1.1115
 9063SOL    HW227889   7.549   5.160   5.745  0.9153  0.4693 -0.2865
 9064SOL     OW27890   7.352   6.504   4.844  0.2593  0.4107 -0.8275
 9064SOL    HW127891   7.401   6.586   4.856  0.8046 -0.0483  0.1569
 9064SOL    HW227892   7.418   6.435   4.852 -0.4294 -0.1930 -0.2315
 9065SOL     OW27893   7.427   3.096   4.156 -0.3188 -0.2879 -0.1433
 9065SOL    HW127894   7.507   3.108   4.206 -0.8135 -2.0945  1.2010
 9065SOL    HW227895   7.361   3.147   4.203  0.1610  2.0271 -1.8144
 9066SOL     OW27896   2.272   2.904   5.815  0.4999 -0.1516 -0.5779
 9066SOL    HW127897   2.225   2.964   5.757 -1.0175 -1.3948 -0.7191
 9066SOL    HW227898   2.203   2.853   5.857  1.6140 -0.0420  1.5156
 9067SOL     OW27899   0.760   4.101   3.836  0.1039  0.2875 -0.8342
 9067SOL    HW127900   0.727   4.162   3.770 -0.8036  0.6213 -0.1009
 9067SOL    HW227901   0.824   4.151   3.885 -1.7139  1.2122  0.7351
 9068SOL     OW27902   4.734   1.518   6.153 -0.1181  0.1843  0.3083
 9068SOL    HW127903   4.820   1.481   6.135 -0.5246 -0.2971 -0.6853
 9068SOL    HW227904   4.752   1.605   6.189  0.8415 -0.7285  2.1866
 9069SOL     OW27905   5.236   5.000   7.540  0.1239  0.0907 -0.9208
 9069SOL    HW127906   5.201   5.007   7.629 -1.1806 -3.2633 -1.0012
 9069SOL    HW227907   5.235   4.906   7.521  1.3226  0.5773 -4.1350
 9070SOL     OW27908   1.562   5.932   1.774  0.1911 -0.4286  0.1454
 9070SOL    HW127909   1.617   5.931   1.695  0.5259  1.4294  0.3102
 9070SOL    HW227910   1.555   6.024   1.797 -1.1236 -0.8207  1.4676
 9071SOL     OW27911   7.484   0.707   6.003 -0.1780  0.1202  0.3264
 9071SOL    HW127912   7.462   0.790   5.960 -0.4278  0.3290  0.8521
 9071SOL    HW227913   7.427   0.643   5.961 -0.0311  0.2199 -0.0357
 9072SOL     OW27914   4.711   5.296   2.445  0.0439  0.0967 -0.4909
 9072SOL    HW127915   4.616   5.296   2.434  0.1945  0.3165 -1.9269
 9072SOL    HW227916   4.728   5.371   2.502 -0.8138 -1.3072  1.7641
 9073SOL     OW27917   7.089   0.490   4.501  0.0021 -0.5041 -1.0316
 9073SOL    HW127918   7.111   0.571   4.546  1.6240 -0.7691 -1.2884
 9073SOL    HW227919   7.172   0.460   4.463 -0.1798 -3.1425  0.4408
 9074SOL     OW27920   0.419   7.680   6.613  0.0109 -0.5245  0.1156
 9074SOL    HW127921   0.492   7.629   6.578  0.1463  0.0998 -0.5515
 9074SOL    HW227922   0.379   7.721   6.536 -0.2776  0.1210  0.5966
 9075SOL     OW27923   6.930   1.662   4.062 -0.2245 -0.2667 -0.3223
 9075SOL    HW127924   6.883   1.580   4.075  0.7585 -0.8887 -0.5938
 9075SOL    HW227925   6.868   1.730   4.090 -0.4143 -1.1922  1.6929
 9076SOL     OW27926   0.220   4.556   2.956  0.5103 -0.2628  0.1103
 9076SOL    HW127927   0.222   4.469   2.916  0.2285 -0.2128 -0.0134
 9076SOL    HW227928   0.284   4.550   3.027 -0.3474 -0.9383  0.8506
 9077SOL     OW27929   4.281   2.549   3.495 -0.0308  0.4130 -0.3380
 9077SOL    HW127930   4.274   2.643   3.514 -0.1178  0.8945 -2.4792
 9077SOL    HW227931   4.372   2.528   3.512  0.2107  1.1173 -0.7168
 9078SOL     OW27932   2.472   1.460   2.064 -0.2807  0.2383 -0.3205
 9078SOL    HW127933   2.458   1.431   1.974 -0.0052  2.6404 -1.2148
 9078SOL    HW227934   2.567   1.467   2.072 -0.3526  1.5476 -0.4029
 9079SOL     OW27935   5.773   0.448   6.911  0.8842  0.1342 -0.1896
 9079SOL    HW127936   5.805   0.527   6.953 -0.0861 -0.5453  2.0017
 9079SOL    HW227937   5.704   0.478   6.852 -0.6170  0.8489  1.8286
 9080SOL     OW27938   1.493   4.588   0.795 -0.2117  0.4221 -0.0683
 9080SOL    HW127939   1.438   4.663   0.817 -0.4031  0.8022 -1.7042
 9080SOL    HW227940   1.493   4.534   0.874 -3.8798 -0.1467 -0.2523
 9081SOL     OW27941   0.694   4.399   4.595 -0.3776 -0.7644 -0.1873
 9081SOL    HW127942   0.669   4.339   4.666  1.5381 -1.6008 -0.1557
 9081SOL    HW227943   0.720   4.342   4.523  1.3339  0.0006 -0.2199
 9082SOL     OW27944   4.536   1.470   1.130 -0.2744  0.0156 -0.2850
 9082SOL    HW127945   4.466   1.489   1.068  0.3096 -0.2786 -1.0518
 9082SOL    HW227946   4.503   1.503   1.214  0.5061  4.2520 -1.3907
 9083SOL     OW27947   7.174   4.364   7.288  0.1400 -0.0506 -0.5529
 9083SOL    HW127948   7.200   4.342   7.377 -0.5457  0.1011 -0.3121
 9083SOL    HW227949   7.177   4.459   7.284  1.3408 -0.0858 -1.0606
 9084SOL     OW27950   4.318   0.816   0.723 -0.0671  0.7255 -0.4107
 9084SOL    HW127951   4.242   0.857   0.681  0.2590  0.5004 -1.2485
 9084SOL    HW227952   4.393   0.844   0.670  0.2723 -0.1680 -0.4223
 9085SOL     OW27953   5.657   6.070   1.429 -0.3475  0.0831  0.0448
 9085SOL    HW127954   5.611   6.142   1.387  0.9454  0.9608  0.0901
 9085SOL    HW227955   5.737   6.058   1.378 -0.9642 -2.0103 -0.5702
 9086SOL     OW27956   1.846   6.201   1.367  0.1568  0.3477  0.3180
 9086SOL    HW127957   1.773   6.236   1.315  0.0561 -1.0182 -0.5098
 9086SOL    HW227958   1.894   6.278   1.396 -0.2343  1.1921 -1.1713
 9087SOL     OW27959   5.435   3.683   4.917  0.2379 -0.1188  0.1691
 9087SOL    HW127960   5.513   3.633   4.893  1.0653 -0.9421  3.8774
 9087SOL    HW227961   5.396   3.632   4.988 -1.7849  1.9784  0.6680
 9088SOL     OW27962   0.135   1.341   1.677  0.2898  1.1187  0.3497
 9088SOL    HW127963   0.181   1.380   1.751 -0.2902  2.1191  0.1964
 9088SOL    HW227964   0.184   1.371   1.600  0.9782 -0.0362  0.3170
 9089SOL     OW27965   5.379   3.131   5.991 -0.3307 -0.2058 -0.2151
 9089SOL    HW127966   5.327   3.192   5.938  0.6374 -0.8719 -2.0015
 9089SOL    HW227967   5.333   3.048   5.985 -1.8378  0.3359  2.5041
 9090SOL     OW27968   5.749   1.143   2.935  0.3206  0.0247  0.1347
 9090SOL    HW127969   5.780   1.228   2.904  1.2388 -1.1405 -2.3681
 9090SOL    HW227970   5.656   1.141   2.913  0.4611  0.1079 -0.4725
 9091SOL     OW27971   5.834   0.915   6.884  0.8505  0.1508 -0.5984
 9091SOL    HW127972   5.842   0.959   6.969  1.3054  0.8807 -1.0120
 9091SOL    HW227973   5.815   0.986   6.822 -0.2798 -0.4664 -0.9975
 9092SOL     OW27974   5.552   3.415   5.305 -0.1216 -0.2301 -0.2741
 9092SOL    HW127975   5.560   3.333   5.256 -0.3045  1.1099 -2.7574
 9092SOL    HW227976   5.623   3.470   5.270 -0.6634  1.0243  0.5377
 9093SOL     OW27977   5.733   2.847   7.301 -0.4631  0.5217  0.2928
 9093SOL    HW127978   5.671   2.889   7.240 -2.3376 -1.0124  1.0193
 9093SOL    HW227979   5.677   2.815   7.372  0.8625 -2.7327  0.0266
 9094SOL     OW27980   7.332   7.876   5.544  0.2164 -0.0082 -0.1437
 9094SOL    HW127981   7.261   7.940   5.543 -2.2012 -2.3911  1.8753
 9094SOL    HW227982   7.296   7.800   5.498  1.1635 -1.4817  1.4274
 9095SOL     OW27983   3.783   3.038   3.599 -0.0144  0.1505 -0.0521
 9095SOL    HW127984   3.793   3.100   3.671 -0.8470 -0.5721  0.7101
 9095SOL    HW227985   3.689   3.024   3.591  0.0440  0.3769 -1.4480
 9096SOL     OW27986   4.098   2.655   2.455  0.0568  0.1359  0.2757
 9096SOL    HW127987   4.048   2.671   2.535 -1.3188  0.6480 -0.6522
 9096SOL    HW227988   4.128   2.742   2.428  1.6606 -0.1758  0.9087
 9097SOL     OW27989   7.898   4.442   6.225  0.2714 -0.1930 -0.1037
 9097SOL    HW127990   7.844   4.418   6.301  0.8132 -0.9408  0.0620
 9097SOL    HW227991   7.987   4.420   6.252  0.3542 -1.5807 -1.3853
 9098SOL     OW27992   1.557   5.341   3.143 -0.3368  0.3149  0.0805
 9098SOL    HW127993   1.544   5.338   3.237  0.3994 -2.4986  0.1883
 9098SOL    HW227994   1.473   5.367   3.107 -0.6023  1.5163  1.4793
 9099SOL     OW27995   3.796   1.153   4.266 -0.2054 -0.4193 -0.4096
 9099SOL    HW127996   3.848   1.232   4.254  1.7735 -1.6517 -0.3162
 9099SOL    HW227997   3.771   1.127   4.178  0.6141 -0.6244 -0.5884
 9100SOL     OW27998   2.473   3.656   0.822 -0.4399 -0.6016  0.6376
 9100SOL    HW127999   2.388   3.699   0.816 -0.0042  0.2271  0.2313
 9100SOL    HW228000   2.505   3.678   0.910 -1.6248 -2.8457  1.7227
 9101SOL     OW28001   4.228   2.634   3.179  0.4185 -0.1332  0.4255
 9101SOL    HW128002   4.165   2.572   3.216 -3.2614  2.3360 -1.0988
 9101SOL    HW228003   4.253   2.689   3.254  0.1988 -0.7249  0.9449
 9102SOL     OW28004   4.024   2.774   7.173  0.5643  0.1081 -0.4081
 9102SOL    HW128005   3.999   2.700   7.117 -1.3715  0.0783  0.4318
 9102SOL    HW228006   3.960   2.773   7.244  0.5936  2.5036 -0.2784
 9103SOL     OW28007   0.899   1.759   0.365 -0.0284 -1.0689  0.0521
 9103SOL    HW128008   0.809   1.730   0.381 -0.8660  0.9881 -0.6518
 9103SOL    HW228009   0.932   1.783   0.452 -0.5472 -0.7542  0.1634
 9104SOL     OW28010   7.043   2.371   1.488 -0.1072 -1.3024  0.5930
 9104SOL    HW128011   7.112   2.384   1.552 -1.2742 -0.1224  1.6823
 9104SOL    HW228012   6.997   2.292   1.517 -1.9916  0.4118  2.6077
 9105SOL     OW28013   0.547   0.591   5.818 -0.4736 -0.7149 -0.1265
 9105SOL    HW128014   0.492   0.519   5.846 -0.7085 -0.7095 -0.5721
 9105SOL    HW228015   0.606   0.553   5.753  1.5055 -1.2417  1.8055
 9106SOL     OW28016   1.500   4.063   2.732  0.5186  0.0085 -0.2970
 9106SOL    HW128017   1.468   4.052   2.821  2.0892  0.5204  0.3636
 9106SOL    HW228018   1.523   3.975   2.703  2.0054  0.0716  0.6144
 9107SOL     OW28019   7.001   4.340   7.828 -0.2356  0.5221  0.1600
 9107SOL    HW128020   6.952   4.262   7.803 -0.7093  1.0507 -0.6368
 9107SOL    HW228021   7.061   4.311   7.897 -1.0781 -0.3187  0.5490
 9108SOL     OW28022   7.456   3.667   1.005  0.3322  0.0523 -0.0084
 9108SOL    HW128023   7.549   3.645   1.016  0.7851  1.1668 -1.4390
 9108SOL    HW228024   7.427   3.614   0.932  0.7004  1.9688 -1.6279
 9109SOL     OW28025   5.051   5.991   2.457 -0.0812  0.2096 -0.7042
 9109SOL    HW128026   5.008   5.927   2.514  0.9706 -0.8836 -1.1005
 9109SOL    HW228027   5.137   5.954   2.439  1.2177  2.4905  0.3265
 9110SOL     OW28028   6.900   5.535   4.706  0.8964  0.3136 -0.1099
 9110SOL    HW128029   6.922   5.578   4.788 -1.3062  0.9436  0.2350
 9110SOL    HW228030   6.920   5.599   4.638  0.8991  0.5358  0.1024
 9111SOL     OW28031   5.582   1.614   6.582  0.1190  0.4389 -0.2016
 9111SOL    HW128032   5.653   1.606   6.520  0.3047  0.8803 -0.0463
 9111SOL    HW228033   5.507   1.574   6.538  0.5714 -0.4748 -0.1735
 9112SOL     OW28034   4.610   0.183   5.591 -0.2047  0.4433 -0.3828
 9112SOL    HW128035   4.629   0.219   5.678 -1.8858 -1.3940  0.8218
 9112SOL    HW228036   4.686   0.207   5.539  1.5222  0.4622  1.9609
 9113SOL     OW28037   4.384   0.479   5.646  0.8462  0.5147 -0.3612
 9113SOL    HW128038   4.365   0.411   5.710 -0.8529  1.5432  0.2823
 9113SOL    HW228039   4.386   0.560   5.697  1.5080  1.1209 -1.3090
 9114SOL     OW28040   7.105   2.242   4.969 -0.2094  0.2721  0.2102
 9114SOL    HW128041   7.079   2.193   4.891 -0.7765  1.6065 -0.4729
 9114SOL    HW228042   7.179   2.296   4.941 -0.2698  0.5921  0.6445
 9115SOL     OW28043   2.738   0.327   2.114 -0.4217  0.6239  0.2422
 9115SOL    HW128044   2.772   0.351   2.200  0.1628 -2.2246  0.9143
 9115SOL    HW228045   2.815   0.317   2.059 -0.5470 -0.5208  0.2532
 9116SOL     OW28046   3.181   4.946   4.399 -0.2501 -0.0101 -0.2284
 9116SOL    HW128047   3.088   4.963   4.386 -0.5583 -0.4018  1.2992
 9116SOL    HW228048   3.195   4.858   4.365 -0.2267  0.3768 -1.2688
 9117SOL     OW28049   5.439   6.155   3.592 -0.0409 -0.2028  0.0540
 9117SOL    HW128050   5.371   6.222   3.580  0.2287  0.2057  0.7627
 9117SOL    HW228051   5.406   6.079   3.545  1.0427  1.3367 -3.6147
 9118SOL     OW28052   2.027   0.184   6.997  0.0928 -0.1421 -0.6589
 9118SOL    HW128053   2.084   0.160   7.070 -0.1687  0.1062 -0.3682
 9118SOL    HW228054   1.952   0.228   7.039 -0.3819 -0.5941 -1.0168
 9119SOL     OW28055   5.134   5.766   6.524 -0.4302  0.0077  0.3961
 9119SOL    HW128056   5.174   5.682   6.546  0.0744  0.2025  0.2291
 9119SOL    HW228057   5.204   5.817   6.485 -0.8583  0.3309  0.0361
 9120SOL     OW28058   5.600   1.417   5.290 -0.3749 -0.6170  0.1268
 9120SOL    HW128059   5.583   1.375   5.205  0.2488  1.5194 -1.1272
 9120SOL    HW228060   5.544   1.494   5.290  0.3758 -0.0561  1.2349
 9121SOL     OW28061   7.681   0.065   4.726 -0.0813 -0.3081  0.1919
 9121SOL    HW128062   7.707   0.025   4.643 -0.3050  0.9505 -0.5098
 9121SOL    HW228063   7.595   0.028   4.745 -0.5333  0.2537 -0.7313
 9122SOL     OW28064   5.991   3.876   0.902 -0.2673  0.5765 -0.5164
 9122SOL    HW128065   5.902   3.911   0.911 -1.2491 -1.7366 -0.3117
 9122SOL    HW228066   6.003   3.822   0.980  1.1819  0.5434 -0.7360
 9123SOL     OW28067   7.556   6.325   4.753 -0.0472 -0.3181  0.1398
 9123SOL    HW128068   7.593   6.253   4.804  1.9346  0.3784 -0.2247
 9123SOL    HW228069   7.519   6.282   4.675 -1.7500 -1.2218  1.3798
 9124SOL     OW28070   1.676   3.722   4.195 -0.8564  0.0119 -0.1787
 9124SOL    HW128071   1.696   3.642   4.244 -2.8743  0.2169  1.0815
 9124SOL    HW228072   1.720   3.710   4.111 -1.6381 -2.7584 -0.3030
 9125SOL     OW28073   7.836   0.048   3.302 -0.3966  0.0180 -0.9648
 9125SOL    HW128074   7.762   0.099   3.269  0.2382  0.8680 -1.0958
 9125SOL    HW228075   7.795  -0.022   3.353 -1.2712  1.8741  1.0517
 9126SOL     OW28076   0.684   5.047   6.452 -0.5318 -0.4134  0.3423
 9126SOL    HW128077   0.779   5.048   6.436 -0.7074  0.6088 -0.8299
 9126SOL    HW228078   0.667   4.962   6.491  0.7895 -0.8441  0.0311
 9127SOL     OW28079   0.969   5.791   0.449  0.0855  0.3786 -0.2133
 9127SOL    HW128080   0.875   5.791   0.430 -0.0543 -0.2763  0.4265
 9127SOL    HW228081   1.005   5.721   0.395 -0.0828 -0.5100  0.7768
 9128SOL     OW28082   1.795   6.028   5.073  0.0045  0.3077 -0.0692
 9128SOL    HW128083   1.780   5.991   4.986  0.8050  0.4517 -0.2768
 9128SOL    HW228084   1.709   6.055   5.103 -0.1006  1.6841 -1.4643
 9129SOL     OW28085   6.945   3.836   5.386  0.5621 -0.3047  0.2575
 9129SOL    HW128086   6.879   3.900   5.361 -0.7947 -1.2128  1.3267
 9129SOL    HW228087   7.028   3.873   5.356  0.0399  2.6017  2.0003
 9130SOL     OW28088   6.366   6.290   1.234 -0.0766  0.2752 -0.0061
 9130SOL    HW128089   6.406   6.347   1.168 -0.1517 -3.1507 -3.3437
 9130SOL    HW228090   6.441   6.253   1.282  0.2887 -0.2411 -0.9502
 9131SOL     OW28091   1.479   0.192   2.164  0.7259 -0.1432 -0.0225
 9131SOL    HW128092   1.561   0.226   2.200  1.1458  1.0478 -1.9713
 9131SOL    HW228093   1.430   0.270   2.138 -0.6943 -0.8685  0.3442
 9132SOL     OW28094   5.956   5.275   5.922  0.0370  0.5685 -0.1091
 9132SOL    HW128095   5.997   5.202   5.969 -0.6646 -0.2984 -0.8166
 9132SOL    HW228096   5.866   5.246   5.905 -1.0448  2.5746  1.7269
 9133SOL     OW28097   6.662   7.094   1.710  0.7250 -0.0499 -0.2109
 9133SOL    HW128098   6.618   7.010   1.722 -0.4358  0.7562  1.6142
 9133SOL    HW228099   6.751   7.071   1.683  0.2401 -1.8376 -0.3949
 9134SOL     OW28100   2.329   6.267   7.829  0.0865  0.0686 -0.4267
 9134SOL    HW128101   2.391   6.195   7.824 -0.7651 -0.7651  0.4704
 9134SOL    HW228102   2.377   6.338   7.871  1.2152  0.3716 -2.1292
 9135SOL     OW28103   6.235   3.067   6.273 -0.6124 -0.3462 -0.0128
 9135SOL    HW128104   6.227   3.014   6.194 -0.4677  1.4747 -1.3032
 9135SOL    HW228105   6.249   3.003   6.343  1.3739 -1.9413 -1.7230
 9136SOL     OW28106   4.202   4.416   2.476  0.0998 -0.2528  0.2272
 9136SOL    HW128107   4.189   4.408   2.382  2.4417 -0.1064 -0.1493
 9136SOL    HW228108   4.129   4.470   2.506 -0.1752  0.4519 -1.6210
 9137SOL     OW28109   5.755   7.561   3.925  0.2535 -0.4227  0.3333
 9137SOL    HW128110   5.789   7.472   3.935  1.9033  0.3734  2.4450
 9137SOL    HW228111   5.662   7.549   3.908  0.9472 -2.6355 -3.1609
 9138SOL     OW28112   3.032   5.501   3.894  0.1457 -0.4063  0.3255
 9138SOL    HW128113   3.107   5.534   3.943  0.5179 -2.2806  1.1028
 9138SOL    HW228114   2.973   5.467   3.961 -1.2448  0.6490 -0.3090
 9139SOL     OW28115   6.117   6.437   6.493 -0.2449  0.4911 -0.2751
 9139SOL    HW128116   6.186   6.372   6.503 -0.4607  0.3099  0.0398
 9139SOL    HW228117   6.163   6.518   6.473 -0.0267 -0.0367 -2.1415
 9140SOL     OW28118   4.664   1.749   0.516  0.2494 -0.3509  0.0655
 9140SOL    HW128119   4.615   1.815   0.466 -0.1865  1.6115  2.8687
 9140SOL    HW228120   4.755   1.766   0.494  0.1334  1.1239  0.6155
 9141SOL     OW28121   3.971   0.888   2.741 -0.2219  0.3273  0.1294
 9141SOL    HW128122   3.933   0.826   2.804  1.9139  1.0331  2.2529
 9141SOL    HW228123   4.056   0.850   2.718 -0.4045  0.7494 -1.3547
 9142SOL     OW28124   1.958   7.627   2.973 -0.1524  0.2086  0.2372
 9142SOL    HW128125   1.867   7.624   2.943 -0.2312  0.1208  0.4871
 9142SOL    HW228126   1.965   7.558   3.038  0.0216  0.3947  0.4196
 9143SOL     OW28127   3.469   1.738   2.630  0.1166  0.4127 -0.4346
 9143SOL    HW128128   3.403   1.670   2.639 -0.1672  0.7958  0.4807
 9143SOL    HW228129   3.432   1.799   2.567 -0.1840  0.3654 -0.3047
 9144SOL     OW28130   1.487   0.538   0.412  0.7341  0.1753 -0.1396
 9144SOL    HW128131   1.498   0.595   0.488  2.7631  1.0165 -0.9876
 9144SOL    HW228132   1.416   0.577   0.362  1.0223  1.0301  0.1054
 9145SOL     OW28133   6.016   3.913   5.003  0.2369 -0.7558  0.2909
 9145SOL    HW128134   5.945   3.896   4.941  1.0753 -0.1625 -0.8439
 9145SOL    HW228135   6.090   3.862   4.971  0.9332  0.2145  0.3067
 9146SOL     OW28136   1.823   1.167   7.751 -0.4616 -0.2146  0.3497
 9146SOL    HW128137   1.873   1.176   7.832 -1.4351 -1.5001  1.1272
 9146SOL    HW228138   1.787   1.254   7.736  2.3315  0.8957 -0.5100
 9147SOL     OW28139   2.893   1.894   4.490 -0.4246  0.2399  0.3534
 9147SOL    HW128140   2.898   1.971   4.435  1.5682 -0.9691 -1.3122
 9147SOL    HW228141   2.896   1.820   4.429 -0.5450 -1.1690  1.9536
 9148SOL     OW28142   1.719   1.873   1.957 -0.3511 -0.0328  0.5444
 9148SOL    HW128143   1.811   1.899   1.965 -0.6175  0.9419  0.5477
 9148SOL    HW228144   1.682   1.889   2.044 -0.4894 -0.5724  0.5866
 9149SOL     OW28145   3.040   6.551   0.994  0.0610 -0.7411  0.0763
 9149SOL    HW128146   3.106   6.527   0.929 -0.6877 -0.2403 -0.8892
 9149SOL    HW228147   3.089   6.600   1.060  0.2701  2.1292 -2.0225
 9150SOL     OW28148   1.237   0.078   6.357  0.6294 -0.2952 -0.8492
 9150SOL    HW128149   1.285   0.156   6.387  0.6802 -0.9674  0.9091
 9150SOL    HW228150   1.174   0.113   6.293 -1.0052  1.6125  1.6176
 9151SOL     OW28151   0.905   4.836   2.915 -0.2262 -0.1648  0.1691
 9151SOL    HW128152   0.896   4.906   2.979  0.2491 -0.7331  0.8687
 9151SOL    HW228153   0.833   4.776   2.934 -0.4428 -0.0338 -0.2224
 9152SOL     OW28154   4.532   1.037   0.114 -0.1510 -0.1012 -0.1871
 9152SOL    HW128155   4.471   1.080   0.174 -0.0219 -0.6377  0.3440
 9152SOL    HW228156   4.478   1.013   0.039 -1.0048 -2.0174  0.9602
 9153SOL     OW28157   6.630   1.043   0.605  0.1075  0.1667  0.1051
 9153SOL    HW128158   6.580   1.024   0.526 -0.0790  0.7083  0.0959
 9153SOL    HW228159   6.577   1.008   0.676  0.0201  0.1668  0.0396
 9154SOL     OW28160   7.258   4.253   5.071 -0.3179 -0.3142  0.2039
 9154SOL    HW128161   7.197   4.214   5.009  1.3440 -2.6843 -0.0846
 9154SOL    HW228162   7.280   4.182   5.131  2.2427  0.3302  0.1748
 9155SOL     OW28163   7.608   5.034   0.059 -0.7199  0.2592  0.5780
 9155SOL    HW128164   7.598   4.985   0.140 -0.1159 -1.2784 -0.2404
 9155SOL    HW228165   7.523   5.075   0.045 -0.3901  1.9029  2.7791
 9156SOL     OW28166   4.972   7.744   0.242 -0.4272  0.2274  0.6983
 9156SOL    HW128167   4.984   7.823   0.190  0.0169  0.4542  1.1447
 9156SOL    HW228168   5.058   7.728   0.282 -0.1805 -1.1249 -0.2996
 9157SOL     OW28169   2.773   1.720   7.837 -0.8147 -0.3501  0.1537
 9157SOL    HW128170   2.810   1.654   7.896 -2.0729 -0.8473  0.4039
 9157SOL    HW228171   2.725   1.669   7.771 -0.4360  0.2566 -0.6088
 9158SOL     OW28172   4.476   1.763   1.698 -0.0710  0.2125  0.0083
 9158SOL    HW128173   4.480   1.757   1.603 -1.4181  1.3863 -0.1593
 9158SOL    HW228174   4.447   1.852   1.715  1.7861  0.5819  1.6028
 9159SOL     OW28175   1.077   6.877   4.331 -0.1117  0.6105 -0.6276
 9159SOL    HW128176   1.090   6.847   4.241  0.5543  2.6077 -1.2373
 9159SOL    HW228177   1.164   6.905   4.359 -0.4649  0.7044  0.3857
 9160SOL     OW28178   3.142   1.389   7.504 -0.0426  0.3810  0.3215
 9160SOL    HW128179   3.092   1.342   7.437  0.5694 -0.1639  0.2404
 9160SOL    HW228180   3.199   1.323   7.543  0.2981  0.8997  0.7232
 9161SOL     OW28181   7.052   2.110   7.596  0.2435 -0.0162 -0.7583
 9161SOL    HW128182   6.992   2.069   7.533 -0.4840 -1.2182  0.6611
 9161SOL    HW228183   7.030   2.203   7.591 -2.1859 -0.4557  0.0901
 9162SOL     OW28184   4.327   3.573   5.367  0.3832  0.7360  0.5931
 9162SOL    HW128185   4.329   3.526   5.283 -2.5681 -0.4644  1.0745
 9162SOL    HW228186   4.385   3.523   5.424  0.9987  0.4996 -0.2274
 9163SOL     OW28187   6.011   0.462   0.382  0.1140  0.1991 -0.1837
 9163SOL    HW128188   5.976   0.440   0.295  1.0442 -0.5475 -0.3803
 9163SOL    HW228189   5.945   0.430   0.443  0.2106 -0.7304 -0.5603
 9164SOL     OW28190   6.362   0.896   1.968 -0.2227  0.1332  0.2892
 9164SOL    HW128191   6.395   0.984   1.953  2.0775 -0.8450 -0.7946
 9164SOL    HW228192   6.369   0.884   2.063  1.7811  0.3156  0.2068
 9165SOL     OW28193   7.031   0.696   5.379  0.2977 -0.0143 -0.4784
 9165SOL    HW128194   7.104   0.757   5.364 -0.1904  0.2483 -1.9223
 9165SOL    HW228195   7.009   0.663   5.292  0.6151 -2.3707  0.2492
 9166SOL     OW28196   3.457   1.551   0.829  0.0339 -0.6055  0.3110
 9166SOL    HW128197   3.410   1.548   0.746 -0.4829  1.9118  0.4409
 9166SOL    HW228198   3.401   1.604   0.886  0.9500 -1.2821  1.8944
 9167SOL     OW28199   6.456   0.013   1.712  0.0741  0.2069 -0.4380
 9167SOL    HW128200   6.510   0.091   1.702  0.3091  0.3800  1.6231
 9167SOL    HW228201   6.424   0.017   1.802 -1.9478 -0.8214 -1.0482
 9168SOL     OW28202   5.494   6.446   5.006 -0.1223 -0.4701  0.4612
 9168SOL    HW128203   5.530   6.514   5.062  0.7017 -0.5932  0.0995
 9168SOL    HW228204   5.446   6.493   4.938  0.5205 -0.2378  0.1586
 9169SOL     OW28205   2.399   7.457   6.578  0.3811 -0.5797  0.0820
 9169SOL    HW128206   2.446   7.526   6.625  1.4928  0.0443 -1.8167
 9169SOL    HW228207   2.322   7.501   6.541  0.5622 -0.5864 -0.3071
 9170SOL     OW28208   7.020   6.829   7.816  0.1425  0.2565  0.0491
 9170SOL    HW128209   7.022   6.880   7.735  0.1370  1.0378  0.5315
 9170SOL    HW228210   7.013   6.894   7.885 -0.8100 -0.4436  0.6382
 9171SOL     OW28211   3.561   2.007   1.517  0.3069  0.5800  0.5300
 9171SOL    HW128212   3.533   2.090   1.555 -1.5910  0.0924  0.3000
 9171SOL    HW228213   3.655   2.018   1.502  0.0970  2.6995  0.4550
 9172SOL     OW28214   7.104   5.736   7.780 -0.0952  0.6282  0.1052
 9172SOL    HW128215   7.019   5.705   7.812 -0.5313 -0.9892 -2.3542
 9172SOL    HW228216   7.160   5.659   7.782  0.9768  1.3845  0.4899
 9173SOL     OW28217   4.457   1.632   5.895 -0.8133 -0.0983 -0.5119
 9173SOL    HW128218   4.547   1.613   5.867 -1.1530  0.1956 -1.9018
 9173SOL    HW228219   4.402   1.592   5.827 -1.7190 -0.0483  0.1784
 9174SOL     OW28220   2.003   3.767   5.045  0.1657 -0.7895 -0.5921
 9174SOL    HW128221   1.941   3.729   4.983  0.6551 -1.9095 -0.4150
 9174SOL    HW228222   1.986   3.721   5.127 -0.2167  0.4134  0.0282
 9175SOL     OW28223   2.969   3.602   2.301  0.6299  0.2241  0.4269
 9175SOL    HW128224   2.971   3.694   2.328  0.0995  0.7183 -1.1569
 9175SOL    HW228225   3.061   3.579   2.287  0.7027  0.7432  0.0571
 9176SOL     OW28226   0.300   1.160   2.435  0.1852 -0.0428 -0.3825
 9176SOL    HW128227   0.300   1.089   2.372 -0.3395  0.8197 -1.3928
 9176SOL    HW228228   0.208   1.186   2.442  0.4832  1.2257 -0.8650
 9177SOL     OW28229   4.379   7.880   2.755  0.1186  0.1411 -0.5395
 9177SOL    HW128230   4.286   7.863   2.740 -0.1979  0.7079  0.6022
 9177SOL    HW228231   4.415   7.897   2.668 -0.8775  0.0477 -0.9839
 9178SOL     OW28232   0.306   2.615   2.998 -0.4964  0.2822  0.1090
 9178SOL    HW128233   0.391   2.627   2.956  0.0122 -0.0752  1.0026
 9178SOL    HW228234   0.271   2.704   3.006 -0.8468  0.3176 -1.5152
 9179SOL     OW28235   2.755   0.365   3.731 -0.1166 -0.0438 -0.4589
 9179SOL    HW128236   2.737   0.272   3.744  0.2209  0.1464  1.9510
 9179SOL    HW228237   2.830   0.383   3.787  0.4118  1.5080 -1.5913
 9180SOL     OW28238   2.144   3.189   4.127  0.5946  0.2719 -0.2768
 9180SOL    HW128239   2.121   3.096   4.137  0.0763  0.3032 -1.0562
 9180SOL    HW228240   2.087   3.220   4.056  2.2136  0.6618 -1.4663
 9181SOL     OW28241   0.320   4.259   1.151  0.5446  0.6337 -0.0639
 9181SOL    HW128242   0.349   4.342   1.188  1.6547  0.6335 -0.8833
 9181SOL    HW228243   0.373   4.192   1.194 -0.8106  0.2472  1.0891
 9182SOL     OW28244   7.950   6.618   1.595 -0.1727  0.1781 -0.3898
 9182SOL    HW128245   7.892   6.691   1.614 -0.0016  0.3762 -0.6237
 9182SOL    HW228246   8.007   6.612   1.672 -0.1090  0.3688 -0.4206
 9183SOL     OW28247   0.086   7.703   4.421 -0.1542  0.3359  0.1417
 9183SOL    HW128248   0.129   7.765   4.361 -0.0900  0.0303 -0.1324
 9183SOL    HW228249   0.006   7.678   4.376 -0.8647  1.2634  0.8642
 9184SOL     OW28250   2.308   7.683   4.053  0.0664 -0.2518  0.2153
 9184SOL    HW128251   2.295   7.589   4.044  0.3904 -0.4727  1.8183
 9184SOL    HW228252   2.221   7.719   4.068  0.1801 -0.6244  1.9923
 9185SOL     OW28253   5.621   0.261   2.765  0.2535 -0.3949 -0.4206
 9185SOL    HW128254   5.638   0.309   2.685 -1.4840 -0.0155 -0.6023
 9185SOL    HW228255   5.561   0.316   2.815 -1.7370 -2.2450 -0.5888
 9186SOL     OW28256   5.067   7.250   5.963  0.5442 -0.1942 -0.1957
 9186SOL    HW128257   5.152   7.289   5.980  0.8481 -0.8875 -0.1262
 9186SOL    HW228258   5.014   7.322   5.928  1.0125  0.3477  0.2071
 9187SOL     OW28259   0.397   4.170   2.383 -0.4509  0.0263  0.4015
 9187SOL    HW128260   0.480   4.159   2.430  0.2501 -0.8936 -0.9682
 9187SOL    HW228261   0.337   4.205   2.448  0.5927 -0.7550  1.8500
 9188SOL     OW28262   1.873   5.919   5.950 -0.1785 -0.6862 -0.4645
 9188SOL    HW128263   1.872   5.945   6.042 -1.8889  1.4199 -0.9950
 9188SOL    HW228264   1.943   5.971   5.911  1.3130 -2.3976 -0.2275
 9189SOL     OW28265   0.573   2.804   0.132 -0.0403 -0.2030  0.3780
 9189SOL    HW128266   0.528   2.720   0.120  0.5915 -0.8271  2.0751
 9189SOL    HW228267   0.546   2.833   0.219  0.1775  1.1041  0.0214
 9190SOL     OW28268   5.344   5.907   2.383 -0.3234  0.1761 -0.1578
 9190SOL    HW128269   5.391   5.974   2.334  1.2924 -1.7448 -1.3984
 9190SOL    HW228270   5.382   5.910   2.471 -1.2961  1.8008  0.2477
 9191SOL     OW28271   5.022   3.134   1.113 -0.0216  0.0397 -0.1047
 9191SOL    HW128272   5.073   3.068   1.161  1.2143  0.6288 -0.5538
 9191SOL    HW228273   5.049   3.123   1.022 -0.9133  0.1996 -0.3936
 9192SOL     OW28274   3.420   1.103   6.070 -0.2341 -0.1388 -0.1754
 9192SOL    HW128275   3.396   1.056   5.990 -0.4970  0.1139 -0.2468
 9192SOL    HW228276   3.516   1.103   6.070 -0.2195 -1.2418  0.1593
 9193SOL     OW28277   0.496   2.260   1.804  0.2438 -0.0129 -1.2509
 9193SOL    HW128278   0.551   2.238   1.729  2.0737  0.1121 -0.0082
 9193SOL    HW228279   0.459   2.177   1.834 -0.0882 -0.1250 -1.9616
 9194SOL     OW28280   4.484   2.376   6.082  0.3938 -0.3422  0.8022
 9194SOL    HW128281   4.401   2.346   6.044  1.0416 -1.5659  0.2955
 9194SOL    HW228282   4.491   2.328   6.164 -0.2681  1.1661  1.7886
 9195SOL     OW28283   4.284   5.238   1.941  0.0695 -0.1926  0.1766
 9195SOL    HW128284   4.380   5.247   1.939  0.2841 -2.1536 -0.5305
 9195SOL    HW228285   4.256   5.260   1.853 -0.1893  0.6927  0.4686
 9196SOL     OW28286   6.498   3.938   1.049 -0.0994  0.1358 -0.7598
 9196SOL    HW128287   6.574   3.888   1.020  0.6920  1.4125 -0.9457
 9196SOL    HW228288   6.510   3.947   1.143 -0.9586 -1.1632 -0.4957
 9197SOL     OW28289   5.756   7.314   1.547 -0.0487 -0.3873  0.4964
 9197SOL    HW128290   5.780   7.222   1.555 -1.4293 -0.9971 -1.6499
 9197SOL    HW228291   5.784   7.339   1.459 -0.4464  1.0066  0.7370
 9198SOL     OW28292   1.408   0.787   4.575 -0.2943  0.3409  0.0107
 9198SOL    HW128293   1.493   0.748   4.593 -0.8432 -1.3914 -0.9236
 9198SOL    HW228294   1.399   0.782   4.479 -0.6193  2.3581 -0.1248
 9199SOL     OW28295   0.170   7.556   5.088  0.7895  0.1082  0.5790
 9199SOL    HW128296   0.169   7.576   4.994 -0.3641  0.6120  0.6868
 9199SOL    HW228297   0.124   7.473   5.095 -0.5488  0.8397  0.8401
 9200SOL     OW28298   4.400   0.923   6.658 -0.2631  0.0979  0.8398
 9200SOL    HW128299   4.487   0.898   6.627  0.7311  1.8476  2.0392
 9200SOL    HW228300   4.356   0.958   6.581 -0.4600 -2.0125 -0.0919
 9201SOL     OW28301   4.537   6.219   4.430  0.0162  0.3420 -0.1963
 9201SOL    HW128302   4.465   6.216   4.368  1.5935  2.0043 -2.2335
 9201SOL    HW228303   4.609   6.174   4.386  1.3224  1.9927  0.1364
 9202SOL     OW28304   2.167   6.738   2.164  0.3839  0.3007  0.3077
 9202SOL    HW128305   2.129   6.799   2.228 -0.0658  1.0467 -0.6560
 9202SOL    HW228306   2.148   6.776   2.079  0.2257 -1.1190 -0.3251
 9203SOL     OW28307   0.440   2.503   6.906  0.0670 -0.1049 -0.3518
 9203SOL    HW128308   0.370   2.490   6.843 -1.5408  0.0538  1.3162
 9203SOL    HW228309   0.487   2.420   6.908 -2.3780 -1.5704  1.1174
 9204SOL     OW28310   7.535   4.292   2.907  0.5405 -0.0098  0.1195
 9204SOL    HW128311   7.548   4.203   2.874 -2.6495 -0.6068  0.1145
 9204SOL    HW228312   7.562   4.349   2.835  1.7258 -0.9760 -0.2300
 9205SOL     OW28313   2.247   1.181   0.377 -0.2771  0.4091  0.5917
 9205SOL    HW128314   2.177   1.124   0.407  0.8768 -0.7185  1.2470
 9205SOL    HW228315   2.276   1.143   0.294  0.8593 -0.3381  1.2956
 9206SOL     OW28316   5.514   0.182   5.982 -0.2357 -0.0438 -0.1755
 9206SOL    HW128317   5.430   0.213   5.948  0.0255  0.9248  0.0161
 9206SOL    HW228318   5.561   0.151   5.905 -0.6031 -0.2003 -0.3420
 9207SOL     OW28319   7.064   1.713   0.541  0.0444 -0.6440  0.3225
 9207SOL    HW128320   6.975   1.741   0.520 -0.2729 -0.3022  2.0453
 9207SOL    HW228321   7.120   1.786   0.514 -0.2782 -0.4605  0.1505
 9208SOL     OW28322   1.849   1.179   3.726 -0.1552 -0.8026  0.1699
 9208SOL    HW128323   1.857   1.269   3.694  1.3052 -0.3490  1.6621
 9208SOL    HW228324   1.755   1.161   3.726 -0.3563 -0.3381 -2.8303
 9209SOL     OW28325   7.148   2.307   2.578 -0.2804 -0.2537  0.0861
 9209SOL    HW128326   7.179   2.226   2.618  1.1935  0.8997  1.4282
 9209SOL    HW228327   7.072   2.332   2.630 -0.4725 -0.5631 -0.0495
 9210SOL     OW28328   1.019   6.537   1.952  0.0911  0.8363 -0.2316
 9210SOL    HW128329   1.049   6.448   1.931 -2.2883 -0.1565  0.2393
 9210SOL    HW228330   1.090   6.574   2.004 -0.4579 -2.3264  3.1811
 9211SOL     OW28331   2.864   2.433   7.512  0.0777  0.3050  0.7555
 9211SOL    HW128332   2.770   2.439   7.492 -0.0557  0.5412  1.4180
 9211SOL    HW228333   2.877   2.499   7.580  0.4545 -0.6714  1.6558
 9212SOL     OW28334   3.922   0.311   3.443 -0.4694 -0.2408  0.1761
 9212SOL    HW128335   3.855   0.371   3.476 -0.5191 -0.1357 -0.1093
 9212SOL    HW228336   4.001   0.334   3.493 -0.1081  1.0582 -0.9253
 9213SOL     OW28337   2.172   6.483   6.400  0.5384  0.0181 -0.1307
 9213SOL    HW128338   2.250   6.473   6.344  0.1599 -1.2581 -0.4549
 9213SOL    HW228339   2.205   6.524   6.480  1.8034 -1.6440  0.2579
 9214SOL     OW28340   5.393   1.550   0.518  0.4304  0.3642 -0.6696
 9214SOL    HW128341   5.374   1.579   0.608  0.0999 -0.3275 -0.5020
 9214SOL    HW228342   5.333   1.476   0.505 -0.7629  1.5348 -2.0810
 9215SOL     OW28343   3.457   0.047   1.434 -0.3584 -0.2011 -0.2286
 9215SOL    HW128344   3.514   0.004   1.371  0.4420  1.1864 -0.4746
 9215SOL    HW228345   3.476   0.002   1.517 -0.1565 -0.8749 -0.6316
 9216SOL     OW28346   5.872   1.588   1.002  0.3298 -0.1586  0.7677
 9216SOL    HW128347   5.918   1.644   0.939  0.3959 -2.3560 -1.2917
 9216SOL    HW228348   5.934   1.579   1.075  0.9501  1.1312  0.4356
 9217SOL     OW28349   4.712   1.604   5.786 -0.0354 -0.5298 -0.6732
 9217SOL    HW128350   4.719   1.606   5.691 -0.1994 -0.2191 -0.6808
 9217SOL    HW228351   4.796   1.568   5.816 -0.3960 -1.6619 -0.9741
 9218SOL     OW28352   6.924   7.379   4.568 -0.2671 -0.1229  0.5244
 9218SOL    HW128353   6.877   7.413   4.493 -1.6084  0.4144  1.5665
 9218SOL    HW228354   6.907   7.285   4.567  0.3092 -0.2327 -0.2127
 9219SOL     OW28355   0.459   2.044   6.538 -0.4780 -0.8559 -0.5508
 9219SOL    HW128356   0.375   2.007   6.513 -1.9631  0.4231  2.1512
 9219SOL    HW228357   0.438   2.112   6.602  2.4566  1.2615 -1.5995
 9220SOL     OW28358   4.240   3.305   1.802 -0.3870 -0.0696 -0.6047
 9220SOL    HW128359   4.315   3.248   1.819  0.2171  0.3271 -1.7876
 9220SOL    HW228360   4.167   3.264   1.849  0.6483 -0.2213  0.9186
 9221SOL     OW28361   4.395   2.592   5.161 -0.4219 -0.0843 -0.1905
 9221SOL    HW128362   4.375   2.676   5.202 -1.5500 -0.2106 -0.4499
 9221SOL    HW228363   4.310   2.558   5.133  0.1304 -0.8417 -1.0025
 9222SOL     OW28364   4.572   7.496   5.864  0.4347 -0.2896 -0.4640
 9222SOL    HW128365   4.580   7.578   5.912  1.0074 -0.3422 -0.4627
 9222SOL    HW228366   4.478   7.487   5.848  0.3875  0.4885 -0.6856
 9223SOL     OW28367   3.716   1.472   0.846 -0.0697  0.0276  0.7245
 9223SOL    HW128368   3.757   1.499   0.928 -1.8098 -0.4585  1.8150
 9223SOL    HW228369   3.632   1.518   0.845 -0.8673 -1.3577  0.1272
 9224SOL     OW28370   7.906   1.165   1.713 -0.2362 -0.3861 -0.2760
 9224SOL    HW128371   7.952   1.093   1.757 -0.1950  0.1167  0.5183
 9224SOL    HW228372   7.976   1.219   1.676 -0.2578 -0.5879 -0.6194
 9225SOL     OW28373   7.702   4.568   4.402 -0.2491  0.7455  0.4059
 9225SOL    HW128374   7.667   4.506   4.466  1.4975 -1.0148 -0.2154
 9225SOL    HW228375   7.626   4.596   4.351 -1.1257 -0.8041  0.7941
 9226SOL     OW28376   3.651   0.708   3.676  0.3455 -0.3987 -0.2944
 9226SOL    HW128377   3.668   0.617   3.653 -2.4268 -0.7487 -1.2843
 9226SOL    HW228378   3.633   0.751   3.592  1.8750  1.1860  0.1167
 9227SOL     OW28379   4.645   7.023   3.385  0.5544 -0.3824 -0.7775
 9227SOL    HW128380   4.726   7.071   3.370  0.4168 -0.3706 -1.5564
 9227SOL    HW228381   4.600   7.071   3.454 -0.1540  1.3771 -2.3670
 9228SOL     OW28382   7.171   4.538   4.885  0.3728  0.0610 -0.3002
 9228SOL    HW128383   7.153   4.617   4.937 -0.2559  0.5071 -1.1678
 9228SOL    HW228384   7.121   4.469   4.929  0.5401  0.2447  0.1885
 9229SOL     OW28385   5.620   3.026   5.340  0.4719  0.6285 -0.6878
 9229SOL    HW128386   5.624   2.937   5.376  0.2761  0.4627 -1.0751
 9229SOL    HW228387   5.563   3.074   5.401 -0.9373  0.0119 -1.4718
 9230SOL     OW28388   4.152   0.114   4.387  0.0427 -0.1454 -0.4097
 9230SOL    HW128389   4.204   0.154   4.457  1.2419 -0.3686 -1.1419
 9230SOL    HW228390   4.168   0.020   4.397 -1.8103 -0.4039  0.5619
 9231SOL     OW28391   7.070   1.082   7.339  0.0770  0.2427  0.8089
 9231SOL    HW128392   7.133   1.032   7.287  0.1643  0.1477  1.0025
 9231SOL    HW228393   6.992   1.087   7.284  1.0754  2.5502 -0.5267
 9232SOL     OW28394   7.074   3.045   5.372 -0.3702  0.6970 -0.0362
 9232SOL    HW128395   7.130   3.119   5.348  0.1263 -0.1866 -1.8013
 9232SOL    HW228396   6.985   3.075   5.351 -0.2262  0.9724 -0.2690
 9233SOL     OW28397   4.282   3.706   7.872  0.7410  0.1015 -0.8526
 9233SOL    HW128398   4.217   3.753   7.820  1.5420  2.2998  0.0279
 9233SOL    HW228399   4.232   3.669   7.945  0.5764  3.0621  0.6667
 9234SOL     OW28400   1.009   6.005   5.508 -0.0534  0.6555  0.4488
 9234SOL    HW128401   0.941   5.941   5.528 -0.1763  0.9520  0.9764
 9234SOL    HW228402   1.069   5.958   5.449 -2.2132  1.2634 -2.4603
 9235SOL     OW28403   0.624   3.250   4.782  0.4761 -0.2033 -0.4056
 9235SOL    HW128404   0.696   3.312   4.768  0.0267  0.3662 -0.2351
 9235SOL    HW228405   0.642   3.212   4.868  0.3588  0.2328 -0.1858
 9236SOL     OW28406   7.699   3.584   4.808  0.4543 -0.3472 -0.7089
 9236SOL    HW128407   7.669   3.559   4.720  1.9286  1.6555 -1.8713
 9236SOL    HW228408   7.702   3.679   4.806 -2.6344  0.0448  2.6755
 9237SOL     OW28409   1.224   1.945   5.219 -0.9704  0.1268 -0.5631
 9237SOL    HW128410   1.142   1.901   5.240 -0.6253 -0.0592  0.4886
 9237SOL    HW228411   1.257   1.976   5.304  0.6243 -0.8582 -0.7720
 9238SOL     OW28412   3.269   7.810   0.459  0.1926 -0.3209  0.5672
 9238SOL    HW128413   3.249   7.820   0.366  0.2938  1.9015  0.7420
 9238SOL    HW228414   3.199   7.753   0.492 -1.1099  0.6152 -0.4591
 9239SOL     OW28415   6.235   7.968   2.129  0.2855  0.2256  0.0167
 9239SOL    HW128416   6.248   7.910   2.054 -1.0543 -0.7758  0.5164
 9239SOL    HW228417   6.320   8.011   2.141  1.1258 -1.1177 -0.7994
 9240SOL     OW28418   3.544   5.557   2.929 -0.2116 -0.4028  0.1329
 9240SOL    HW128419   3.555   5.610   3.009 -2.5249 -1.7058  1.4289
 9240SOL    HW228420   3.573   5.615   2.858 -0.8552  1.9241  1.6469
 9241SOL     OW28421   6.171   2.117   0.502  0.5955  0.0465 -0.2356
 9241SOL    HW128422   6.092   2.067   0.525  0.4071  1.1121  1.6257
 9241SOL    HW228423   6.235   2.093   0.569  1.4570  0.1669 -0.9935
 9242SOL     OW28424   5.805   1.281   6.311 -0.3222 -0.0285  0.6583
 9242SOL    HW128425   5.896   1.252   6.310 -0.0527  0.8073 -0.3916
 9242SOL    HW228426   5.805   1.363   6.262 -1.7002 -0.2105  0.3113
 9243SOL     OW28427   3.771   4.314   4.333 -0.4219  0.0923 -0.0256
 9243SOL    HW128428   3.857   4.278   4.354 -0.9106 -0.4421  1.1307
 9243SOL    HW228429   3.710   4.243   4.351 -1.4362  1.4392  2.4392
 9244SOL     OW28430   2.443   7.064   6.219 -0.0505 -0.2153  0.1900
 9244SOL    HW128431   2.475   7.073   6.309 -1.2557 -2.1758  0.8861
 9244SOL    HW228432   2.350   7.086   6.225 -0.0215  0.2036 -0.7056
 9245SOL     OW28433   6.634   2.934   1.724 -0.3399  0.0219 -0.0796
 9245SOL    HW128434   6.682   3.009   1.760 -0.7548 -0.2173  1.0052
 9245SOL    HW228435   6.684   2.909   1.646 -0.7049  1.9942 -1.0036
 9246SOL     OW28436   7.394   6.373   4.237  0.2238 -0.1838 -0.1583
 9246SOL    HW128437   7.484   6.392   4.266  0.3748 -1.9730  0.7293
 9246SOL    HW228438   7.340   6.435   4.286  1.0091  1.8749 -1.7332
 9247SOL     OW28439   6.425   4.909   7.005  0.2512 -0.3929  0.2164
 9247SOL    HW128440   6.440   4.862   6.923 -0.0627  0.3936 -0.3016
 9247SOL    HW228441   6.381   4.845   7.061  3.3778 -2.0723  1.0037
 9248SOL     OW28442   6.664   1.952   7.948 -0.3007 -1.1327 -0.4867
 9248SOL    HW128443   6.738   1.941   8.008 -0.4545 -3.4066 -0.6618
 9248SOL    HW228444   6.658   2.047   7.936  2.4980 -0.8445 -0.3669
 9249SOL     OW28445   7.807   1.908   4.943 -0.3483  0.0687 -0.3642
 9249SOL    HW128446   7.828   1.858   5.022  0.5423 -0.2436 -0.7725
 9249SOL    HW228447   7.755   1.982   4.973 -0.3436 -0.2548  0.4585
 9250SOL     OW28448   5.140   1.224   4.972  0.1410  0.2365 -0.4224
 9250SOL    HW128449   5.065   1.165   4.963  0.7149 -0.5412 -0.2274
 9250SOL    HW228450   5.166   1.243   4.882 -0.4592  0.7385 -0.4947
 9251SOL     OW28451   7.496   6.474   0.627  0.3614 -0.2147 -0.0992
 9251SOL    HW128452   7.534   6.459   0.713 -1.3336 -0.3839  0.6692
 9251SOL    HW228453   7.417   6.420   0.626 -1.1410  1.8445 -0.6542
 9252SOL     OW28454   7.881   3.048   3.169  0.3151  0.6152 -0.4711
 9252SOL    HW128455   7.901   3.140   3.185 -1.5796  0.6658  2.2419
 9252SOL    HW228456   7.944   3.000   3.224 -0.5692  0.4252  0.3912
 9253SOL     OW28457   3.607   5.520   0.192 -0.3627  0.1021 -0.2999
 9253SOL    HW128458   3.688   5.485   0.154 -0.5540  0.0740 -0.6855
 9253SOL    HW228459   3.636   5.571   0.268  0.0345  0.2860 -0.5720
 9254SOL     OW28460   4.690   7.305   7.523  0.1055 -0.6116 -0.0638
 9254SOL    HW128461   4.754   7.275   7.459  1.1382 -0.2799  0.7875
 9254SOL    HW228462   4.693   7.400   7.518  0.1083 -0.5847  0.3877
 9255SOL     OW28463   5.215   6.529   3.441  0.0858 -0.0514  0.1189
 9255SOL    HW128464   5.189   6.595   3.377 -0.8142 -0.3085  0.2087
 9255SOL    HW228465   5.307   6.550   3.461  0.2570  0.2801 -0.9355
 9256SOL     OW28466   2.300   6.458   3.548 -0.2002  0.4894  0.1446
 9256SOL    HW128467   2.233   6.458   3.479  0.4021  1.6356 -0.4648
 9256SOL    HW228468   2.292   6.371   3.588 -1.4522  0.2797 -0.4904
 9257SOL     OW28469   0.804   2.305   1.054 -0.0038  0.2717  0.1763
 9257SOL    HW128470   0.829   2.241   1.121  0.6005  1.5767  1.2371
 9257SOL    HW228471   0.858   2.382   1.072 -1.8853  1.7158  0.0219
 9258SOL     OW28472   5.310   0.307   2.009  0.6528  0.3145 -0.3547
 9258SOL    HW128473   5.264   0.390   2.022  0.7635  0.3071  0.1057
 9258SOL    HW228474   5.348   0.315   1.921 -1.0269 -0.0705 -1.1621
 9259SOL     OW28475   1.882   6.486   7.877  0.3068 -0.1560  0.0182
 9259SOL    HW128476   1.947   6.422   7.907  1.5562  0.8016 -0.5180
 9259SOL    HW228477   1.908   6.568   7.920  0.6782  0.6868 -1.6988
 9260SOL     OW28478   1.090   3.964   1.317 -0.1952 -0.1408  0.3701
 9260SOL    HW128479   1.157   4.032   1.316 -0.8141  0.5435  1.8764
 9260SOL    HW228480   1.080   3.941   1.409 -0.8997 -1.3807  0.0142
 9261SOL     OW28481   6.602   2.780   2.989 -0.2603 -0.6928  0.5052
 9261SOL    HW128482   6.511   2.811   2.989 -0.4105 -1.1273  0.3256
 9261SOL    HW228483   6.615   2.745   3.077 -0.6474 -1.7196  0.1624
 9262SOL     OW28484   0.817   0.481   3.768 -0.4837 -0.3264  0.1071
 9262SOL    HW128485   0.722   0.481   3.772 -0.6059  1.3392 -1.7452
 9262SOL    HW228486   0.838   0.408   3.710 -0.5888 -0.7347  0.5658
 9263SOL     OW28487   7.673   0.789   3.492  0.2145  0.1950  0.1386
 9263SOL    HW128488   7.619   0.819   3.566  0.2415  1.0414 -0.1727
 9263SOL    HW228489   7.761   0.818   3.515  0.2279  0.4309 -0.2019
 9264SOL     OW28490   3.070   3.402   0.104  0.2423  0.4391  0.0119
 9264SOL    HW128491   3.118   3.370   0.180 -1.2504  0.3588  0.9579
 9264SOL    HW228492   3.017   3.328   0.075  1.0171  0.3751 -1.3201
 9265SOL     OW28493   0.922   1.701   7.284  0.5824  0.1562  0.1203
 9265SOL    HW128494   0.936   1.726   7.193  0.0500  0.4167  0.1050
 9265SOL    HW228495   0.995   1.741   7.331 -0.2186  1.7404  0.0937
 9266SOL     OW28496   7.708   1.653   0.027  0.3174  0.4731  0.1672
 9266SOL    HW128497   7.754   1.576  -0.008  0.8255  0.7222  0.2842
 9266SOL    HW228498   7.615   1.631   0.017  0.4083 -0.9506  1.8838
 9267SOL     OW28499   6.104   3.826   0.360  0.3528 -0.1834 -0.0868
 9267SOL    HW128500   6.137   3.912   0.387 -0.5321  0.1159  0.0689
 9267SOL    HW228501   6.093   3.777   0.441  0.1338 -0.1786 -0.1135
 9268SOL     OW28502   5.476   1.063   7.463  0.1857 -0.4329  0.2068
 9268SOL    HW128503   5.388   1.067   7.500 -0.5453 -0.8802 -1.3765
 9268SOL    HW228504   5.498   1.154   7.443  0.3932 -0.2414  1.2371
 9269SOL     OW28505   4.654   5.980   6.471  0.0363  0.5860 -0.9559
 9269SOL    HW128506   4.629   5.978   6.563 -0.7511 -0.6086 -1.1730
 9269SOL    HW228507   4.573   5.967   6.422  0.5033  0.7389 -1.8119
 9270SOL     OW28508   2.681   4.398   0.538 -0.2979 -0.5015  0.1447
 9270SOL    HW128509   2.713   4.421   0.626 -0.3185 -1.7280  0.4874
 9270SOL    HW228510   2.730   4.319   0.515 -0.9518 -0.7025 -0.5734
 9271SOL     OW28511   0.968   3.891   4.792  0.1863 -0.6366  0.2023
 9271SOL    HW128512   1.017   3.971   4.772  1.1753 -1.6956 -1.7823
 9271SOL    HW228513   0.905   3.919   4.859  0.8469  1.6769 -0.0444
 9272SOL     OW28514   5.688   3.316   3.068  0.4222 -0.1945  0.5065
 9272SOL    HW128515   5.671   3.401   3.108  1.9677 -1.0941  3.4189
 9272SOL    HW228516   5.682   3.254   3.141  1.3060 -2.3216 -1.1150
 9273SOL     OW28517   6.211   7.115   2.402 -0.1733 -0.3395 -0.2280
 9273SOL    HW128518   6.130   7.165   2.415 -0.6035 -1.0992  0.0857
 9273SOL    HW228519   6.259   7.164   2.336 -1.4527 -0.5454 -1.3485
 9274SOL     OW28520   1.911   6.771   7.692 -0.3075 -0.9089  0.2926
 9274SOL    HW128521   1.984   6.829   7.717  0.2875 -1.1136 -0.9102
 9274SOL    HW228522   1.835   6.809   7.736  0.0707  0.7958 -0.4579
 9275SOL     OW28523   0.389   5.086   7.346  0.1414  0.0696  0.7413
 9275SOL    HW128524   0.419   5.075   7.436  0.6702  0.2145  0.5816
 9275SOL    HW228525   0.296   5.109   7.355 -0.6747 -2.9347  1.1714
 9276SOL     OW28526   5.186   4.265   3.340  0.1134  0.1553  0.7114
 9276SOL    HW128527   5.210   4.320   3.266 -0.6874  0.4140  0.6294
 9276SOL    HW228528   5.097   4.293   3.362  0.4830  0.3557  2.0182
 9277SOL     OW28529   6.117   5.733   6.094  0.4396 -0.2457  0.0114
 9277SOL    HW128530   6.142   5.801   6.157 -1.2283  0.9853 -0.5841
 9277SOL    HW228531   6.183   5.740   6.025 -0.2076  1.4738 -0.5041
 9278SOL     OW28532   2.028   4.854   7.702  0.4230 -0.2856 -0.2152
 9278SOL    HW128533   1.950   4.842   7.756  0.9870  0.8244  0.9236
 9278SOL    HW228534   2.075   4.771   7.708  0.6832 -0.0700  1.4381
 9279SOL     OW28535   7.851   3.330   3.199 -0.6506 -0.6777  0.5916
 9279SOL    HW128536   7.799   3.342   3.120 -1.1956 -1.3545  0.8363
 9279SOL    HW228537   7.833   3.407   3.253 -1.8260 -1.1482  0.9006
 9280SOL     OW28538   1.925   2.138   2.175  0.3320  0.3512 -0.5301
 9280SOL    HW128539   1.960   2.048   2.177  1.3109  0.7237  0.0944
 9280SOL    HW228540   1.980   2.183   2.112 -1.6667 -0.0346 -2.6670
 9281SOL     OW28541   1.507   5.535   4.048 -0.4197  0.3647 -0.3299
 9281SOL    HW128542   1.430   5.584   4.019 -2.2423 -0.5515  2.5108
 9281SOL    HW228543   1.555   5.596   4.104 -1.3197 -0.2302  1.1473
 9282SOL     OW28544   0.911   0.488   7.397 -0.2437  0.1133 -0.0882
 9282SOL    HW128545   0.919   0.567   7.449  1.0645 -0.4197  0.5696
 9282SOL    HW228546   0.862   0.427   7.452  2.0831 -0.8262  1.0363
 9283SOL     OW28547   2.982   3.784   4.748  0.1457  0.3573  0.4950
 9283SOL    HW128548   2.993   3.735   4.666  1.3657  0.6659  0.4392
 9283SOL    HW228549   2.987   3.876   4.721 -3.0260  0.6024  0.4756
 9284SOL     OW28550   5.819   0.789   0.676  0.0901 -0.4325 -0.5901
 9284SOL    HW128551   5.732   0.818   0.704 -0.1412 -0.6277 -1.0980
 9284SOL    HW228552   5.802   0.715   0.618  0.5960 -0.4378 -0.7357
 9285SOL     OW28553   1.466   2.141   4.501  0.4032  0.4582 -0.0677
 9285SOL    HW128554   1.409   2.164   4.427 -0.3585 -1.4898 -0.1564
 9285SOL    HW228555   1.528   2.213   4.507 -2.3264  2.9803  0.3162
 9286SOL     OW28556   7.349   4.189   1.087  0.7267  0.3683  0.1714
 9286SOL    HW128557   7.297   4.269   1.091  1.3021  0.7371  0.3290
 9286SOL    HW228558   7.414   4.205   1.019 -0.4037 -0.7367 -1.2527
 9287SOL     OW28559   2.643   1.901   0.364  0.0602  0.6022 -0.1052
 9287SOL    HW128560   2.579   1.953   0.413  0.3269  1.0355 -0.2036
 9287SOL    HW228561   2.725   1.950   0.374 -0.0032  1.0371 -1.4989
 9288SOL     OW28562   0.508   3.666   6.769 -0.2821  0.1067 -0.4432
 9288SOL    HW128563   0.549   3.673   6.682  0.5872  3.6660  0.0790
 9288SOL    HW228564   0.420   3.703   6.756  0.6376  2.8907  0.4890
 9289SOL     OW28565   4.096   6.545   7.057 -0.3475 -0.1439  0.6814
 9289SOL    HW128566   4.032   6.501   7.112 -0.4255  1.2580  1.7664
 9289SOL    HW228567   4.150   6.595   7.119 -0.1340  1.1017 -0.4842
 9290SOL     OW28568   1.605   4.940   6.898  0.2549  0.1221 -0.0400
 9290SOL    HW128569   1.622   5.027   6.862  0.9648  0.0295  0.0490
 9290SOL    HW228570   1.667   4.883   6.851 -0.5095 -0.4137 -0.4217
 9291SOL     OW28571   3.290   3.115   7.617 -0.2592  0.6501 -0.2045
 9291SOL    HW128572   3.286   3.034   7.567 -0.8815 -0.2717  1.2765
 9291SOL    HW228573   3.249   3.180   7.561 -1.8492 -0.5679 -0.5078
 9292SOL     OW28574   3.490   0.992   5.249 -0.4690  0.0134  1.1120
 9292SOL    HW128575   3.481   0.930   5.321  0.8601 -0.8658  0.5534
 9292SOL    HW228576   3.468   0.941   5.171  0.6864  0.2202  0.6428
 9293SOL     OW28577   1.998   0.687   1.460 -0.4198 -0.0111 -0.1897
 9293SOL    HW128578   1.910   0.696   1.424  0.0250  1.9555 -0.9224
 9293SOL    HW228579   2.055   0.729   1.395  1.2436 -2.3053 -0.3304
 9294SOL     OW28580   1.005   4.325   4.285  0.2722 -0.7735 -0.4607
 9294SOL    HW128581   1.026   4.412   4.320 -0.3896 -0.3587 -1.0743
 9294SOL    HW228582   0.985   4.340   4.193  0.5409 -1.6425 -0.6744
 9295SOL     OW28583   6.915   0.997   5.893  0.5565 -0.3838  0.0378
 9295SOL    HW128584   6.833   0.961   5.859 -0.0846  0.3319  0.7606
 9295SOL    HW228585   6.889   1.045   5.972  1.5019  0.7689 -0.3096
 9296SOL     OW28586   5.475   4.689   0.288  0.2590 -0.6087  0.1478
 9296SOL    HW128587   5.540   4.626   0.256 -1.3131 -2.4090  0.2921
 9296SOL    HW228588   5.411   4.695   0.217  0.2828  0.7580  0.2108
 9297SOL     OW28589   1.640   6.505   5.347  0.3530 -0.2876 -0.0087
 9297SOL    HW128590   1.680   6.425   5.314 -0.7837 -0.5911 -0.7061
 9297SOL    HW228591   1.546   6.489   5.341  0.1153  0.9057  0.3120
 9298SOL     OW28592   1.693   3.489   3.417  0.2227 -0.1343  0.5116
 9298SOL    HW128593   1.636   3.428   3.465  0.3100  0.4198  1.3507
 9298SOL    HW228594   1.744   3.532   3.486 -0.2918  1.3443  0.0078
 9299SOL     OW28595   5.552   7.194   6.982  0.2236 -0.0226  0.5344
 9299SOL    HW128596   5.476   7.188   7.041 -0.7639  1.7449 -0.4462
 9299SOL    HW228597   5.578   7.286   6.988 -1.0460  0.7151 -3.0249
 9300SOL     OW28598   0.028   0.320   6.510 -0.2305 -0.5862  0.0375
 9300SOL    HW128599   0.014   0.414   6.515 -0.5354 -0.6521  0.4283
 9300SOL    HW228600   0.048   0.293   6.600  3.0983 -0.3996 -0.4952
 9301SOL     OW28601   1.358   5.116   0.710 -0.0604 -0.7761  0.4112
 9301SOL    HW128602   1.416   5.174   0.660 -0.8241 -0.4888 -0.1657
 9301SOL    HW228603   1.352   5.037   0.657 -1.2647 -0.2830 -0.2412
 9302SOL     OW28604   2.554   6.868   4.812 -0.1104 -0.3301 -0.0670
 9302SOL    HW128605   2.554   6.776   4.837 -0.5522 -0.5906 -0.9643
 9302SOL    HW228606   2.640   6.882   4.772  0.0949 -0.2584  0.4014
 9303SOL     OW28607   5.354   0.001   0.951 -0.1039  0.6893 -0.1977
 9303SOL    HW128608   5.354  -0.016   0.856  0.7367 -0.3825 -0.0303
 9303SOL    HW228609   5.271  -0.035   0.982  0.3914 -0.5858 -0.2883
 9304SOL     OW28610   1.314   6.796   2.309  0.2670  0.0951  0.0511
 9304SOL    HW128611   1.315   6.891   2.300 -0.0759  0.3003  1.7843
 9304SOL    HW228612   1.386   6.776   2.368  1.2273 -0.8989 -1.3779
 9305SOL     OW28613   6.155   1.126   7.834  0.8048  0.2775  0.3868
 9305SOL    HW128614   6.207   1.086   7.903  0.7682 -0.1760  0.1521
 9305SOL    HW228615   6.183   1.082   7.754 -0.8382 -0.8739  0.4051
 9306SOL     OW28616   6.005   3.973   5.257  0.4560  0.9421  0.4726
 9306SOL    HW128617   6.007   3.938   5.168  0.7128  0.8808  0.5046
 9306SOL    HW228618   5.962   3.904   5.309  2.7292 -0.2233  0.9348
 9307SOL     OW28619   2.176   7.251   0.858  0.1928 -0.5206 -0.4317
 9307SOL    HW128620   2.183   7.244   0.953  5.7266  0.2424 -0.4533
 9307SOL    HW228621   2.168   7.345   0.841 -2.4338 -0.7409 -0.8595
 9308SOL     OW28622   0.586   0.566   1.784  0.2165  0.2102  0.2900
 9308SOL    HW128623   0.518   0.616   1.739  0.8285  1.9065  1.1703
 9308SOL    HW228624   0.539   0.491   1.822 -0.9494  0.7502 -0.0439
 9309SOL     OW28625   6.111   1.982   1.347  0.3404 -0.2699 -0.0522
 9309SOL    HW128626   6.049   1.909   1.353 -0.0213  0.0392  0.0190
 9309SOL    HW228627   6.164   1.975   1.426  1.0552 -1.1198 -0.5846
 9310SOL     OW28628   6.488   5.352   6.523 -0.2208  0.4183  0.1891
 9310SOL    HW128629   6.526   5.266   6.507 -0.0300  0.3262  1.1011
 9310SOL    HW228630   6.560   5.413   6.508 -0.1246  0.3543  0.3803
 9311SOL     OW28631   3.312   2.455   6.117 -0.0246 -0.1648  0.2861
 9311SOL    HW128632   3.400   2.445   6.081  0.6651  1.3719  1.4359
 9311SOL    HW228633   3.307   2.390   6.187 -0.3569 -1.2395 -0.7058
 9312SOL     OW28634   6.460   0.923   3.842  0.0286  0.2910 -0.6484
 9312SOL    HW128635   6.426   0.835   3.852  0.1819  0.2954  0.0113
 9312SOL    HW228636   6.404   0.964   3.776 -1.7026  0.5275  0.8885
 9313SOL     OW28637   6.101   2.124   7.048 -0.0041  0.0346 -0.1563
 9313SOL    HW128638   6.116   2.159   6.960  0.1055 -1.7606 -0.8966
 9313SOL    HW228639   6.009   2.140   7.065 -0.1867 -0.2001 -0.8868
 9314SOL     OW28640   0.936   3.862   3.878  0.3635 -0.1794 -0.3471
 9314SOL    HW128641   0.898   3.825   3.957  0.9070  3.0052  1.6019
 9314SOL    HW228642   0.869   3.924   3.846  1.6348  1.4248 -0.0489
 9315SOL     OW28643   6.080   0.796   7.795  0.5035  0.4505  0.3090
 9315SOL    HW128644   6.017   0.833   7.734 -0.0476 -1.2660 -0.2173
 9315SOL    HW228645   6.037   0.799   7.880 -0.5876 -1.2791 -0.1461
 9316SOL     OW28646   1.407   7.051   6.408  0.4075  0.3000 -0.4878
 9316SOL    HW128647   1.323   7.074   6.448 -0.1047 -1.5535 -0.4122
 9316SOL    HW228648   1.451   7.135   6.394 -1.0044  1.2329  0.4514
 9317SOL     OW28649   2.019   4.308   5.298  0.1069 -0.6957 -0.0081
 9317SOL    HW128650   2.066   4.259   5.230 -1.2366 -0.8169 -0.8881
 9317SOL    HW228651   2.029   4.400   5.272  1.1540 -0.6114  0.6709
 9318SOL     OW28652   5.502   2.907   3.007 -0.8295  0.1321 -0.0540
 9318SOL    HW128653   5.508   2.811   3.016 -0.1226  0.2492  0.8183
 9318SOL    HW228654   5.532   2.924   2.918  0.8708 -0.3276  0.3885
 9319SOL     OW28655   4.713   5.419   6.988  0.3768  0.0290  0.2282
 9319SOL    HW128656   4.655   5.476   6.937  0.4284  0.8911  1.0910
 9319SOL    HW228657   4.736   5.348   6.928 -0.2337  0.5589 -0.6656
 9320SOL     OW28658   4.252   5.461   0.326 -0.1155 -0.0697  0.8093
 9320SOL    HW128659   4.320   5.470   0.393  0.6267 -0.5404  0.1355
 9320SOL    HW228660   4.296   5.481   0.244 -0.1339 -2.7371  0.0656
 9321SOL     OW28661   7.693   0.057   2.580  0.4558  0.0142 -0.0242
 9321SOL    HW128662   7.658   0.109   2.652 -0.8593 -0.8593  0.0062
 9321SOL    HW228663   7.676   0.110   2.502  2.8260  1.4363  0.3489
 9322SOL     OW28664   4.806   0.188   0.536  0.6384 -0.1509 -0.0992
 9322SOL    HW128665   4.866   0.186   0.461  0.0056 -0.1250 -0.6245
 9322SOL    HW228666   4.746   0.116   0.520  0.3498  0.0096  0.2595
 9323SOL     OW28667   1.795   3.811   7.765  0.5623  0.2712 -0.6279
 9323SOL    HW128668   1.839   3.891   7.735 -0.0020  2.3124  3.3259
 9323SOL    HW228669   1.702   3.830   7.756  0.4141 -0.5681 -0.9626
 9324SOL     OW28670   0.175   0.687   3.157  0.0798  0.1467  1.0825
 9324SOL    HW128671   0.107   0.678   3.090 -1.1169  3.3640  1.6625
 9324SOL    HW228672   0.250   0.640   3.121 -0.8743  0.7278 -2.0053
 9325SOL     OW28673   0.523   0.789   2.512 -0.4050  0.2047  0.0997
 9325SOL    HW128674   0.528   0.870   2.562 -0.7264 -0.8988  2.0071
 9325SOL    HW228675   0.447   0.799   2.456  0.5486  1.8739 -0.9712
 9326SOL     OW28676   0.677   5.725   1.815 -0.4471  0.3421  0.1307
 9326SOL    HW128677   0.625   5.716   1.894 -0.1392 -0.4846  0.2506
 9326SOL    HW228678   0.637   5.665   1.752  0.0887  0.0236  0.0820
 9327SOL     OW28679   6.499   7.038   2.897  0.0212  0.6719 -0.3603
 9327SOL    HW128680   6.480   7.047   2.990  0.3511 -1.0921 -0.1015
 9327SOL    HW228681   6.525   7.127   2.870  0.6212  1.0736  1.3794
 9328SOL     OW28682   5.372   6.941   4.774  0.0046 -0.4850  0.0107
 9328SOL    HW128683   5.280   6.959   4.795  0.2218  0.6563  0.0300
 9328SOL    HW228684   5.384   6.976   4.685  0.5580 -0.1159  0.2237
 9329SOL     OW28685   5.060   0.566   6.594 -0.4109  0.1579  0.0199
 9329SOL    HW128686   4.967   0.588   6.595 -0.6552 -0.8632  0.2744
 9329SOL    HW228687   5.076   0.533   6.505 -0.5863 -0.8546  0.3536
 9330SOL     OW28688   0.302   6.926   5.492  0.7356 -0.0720  0.5105
 9330SOL    HW128689   0.354   7.002   5.466  1.3503 -0.0947  1.6453
 9330SOL    HW228690   0.212   6.949   5.468  0.9257  0.9810  0.7879
 9331SOL     OW28691   1.327   6.398   7.678 -0.0427  0.1272  0.3383
 9331SOL    HW128692   1.421   6.407   7.694 -0.2653  0.2633  1.6359
 9331SOL    HW228693   1.312   6.443   7.595  0.9754  0.4180  0.3065
 9332SOL     OW28694   0.339   3.613   1.322 -0.0467 -0.3647 -0.0552
 9332SOL    HW128695   0.287   3.687   1.292  2.4962  1.2073 -0.9241
 9332SOL    HW228696   0.398   3.650   1.387  0.4425 -1.9253  0.4368
 9333SOL     OW28697   3.019   5.492   7.903 -0.8351  0.0179  0.0231
 9333SOL    HW128698   2.953   5.515   7.838  0.6346  0.1998 -1.4565
 9333SOL    HW228699   3.089   5.556   7.890  1.3475 -2.4170 -1.1017
 9334SOL     OW28700   7.213   0.963   5.484 -0.2491  0.1111 -0.1120
 9334SOL    HW128701   7.189   0.882   5.529  0.3356  0.2221  0.4207
 9334SOL    HW228702   7.212   1.030   5.553  1.0928  0.2023 -0.1549
 9335SOL     OW28703   3.616   1.467   4.012  0.3849  0.6556  0.0652
 9335SOL    HW128704   3.665   1.539   4.051  0.8782  1.1213 -1.3228
 9335SOL    HW228705   3.543   1.451   4.072  1.2133  1.1805  1.2348
 9336SOL     OW28706   6.646   7.277   6.560 -0.0867  0.0559  0.1503
 9336SOL    HW128707   6.733   7.309   6.580 -0.6363  0.6692  1.7514
 9336SOL    HW228708   6.658   7.218   6.486  1.4527  1.2803 -0.6352
 9337SOL     OW28709   5.342   5.588   4.471  0.0164  0.5458 -0.2920
 9337SOL    HW128710   5.378   5.641   4.542 -0.0842  0.2962 -0.0538
 9337SOL    HW228711   5.296   5.516   4.515  0.3144  0.1535 -0.6084
 9338SOL     OW28712   7.796   7.679   7.108  0.2575 -0.3716  0.2199
 9338SOL    HW128713   7.730   7.691   7.039  0.9176  0.4268 -0.2787
 9338SOL    HW228714   7.757   7.720   7.186 -0.2744 -0.8416  0.2137
 9339SOL     OW28715   7.571   6.519   7.970 -0.1535  0.1198  0.2670
 9339SOL    HW128716   7.484   6.537   8.006  0.6326  1.3638  1.6135
 9339SOL    HW228717   7.607   6.450   8.026 -0.3264 -0.5097 -0.3884
 9340SOL     OW28718   0.576   5.282   2.489  0.2904  0.1416 -0.1073
 9340SOL    HW128719   0.568   5.215   2.557 -1.0304  0.0984 -0.2672
 9340SOL    HW228720   0.660   5.324   2.506  0.3421 -0.3983  1.0671
 9341SOL     OW28721   3.050   1.528   2.284  0.0467  0.3144 -0.1656
 9341SOL    HW128722   3.090   1.475   2.353 -0.4209  0.4856  0.2361
 9341SOL    HW228723   3.062   1.475   2.205  2.8020  1.1765 -0.4560
 9342SOL     OW28724   2.290   0.944   5.135  0.6421 -0.2536 -0.2228
 9342SOL    HW128725   2.366   0.923   5.188 -0.0052 -2.0237  0.0552
 9342SOL    HW228726   2.326   0.984   5.056  1.6621  1.7845  1.1795
 9343SOL     OW28727   7.872   7.266   4.322  0.4068 -0.1390 -0.5559
 9343SOL    HW128728   7.910   7.215   4.394  0.0474  0.0139 -0.2556
 9343SOL    HW228729   7.821   7.334   4.365 -0.5822 -0.6140 -0.9499
 9344SOL     OW28730   6.691   0.617   0.825 -0.0565 -0.1243 -0.0508
 9344SOL    HW128731   6.647   0.608   0.740  1.3191  0.8303 -0.9107
 9344SOL    HW228732   6.769   0.669   0.806 -0.0245  0.6337  1.9291
 9345SOL     OW28733   1.737   3.535   4.400  0.2283 -0.3743  0.3131
 9345SOL    HW128734   1.656   3.495   4.431  0.1664  0.1063  0.7914
 9345SOL    HW228735   1.795   3.534   4.477  1.1993 -2.0258 -0.3912
 9346SOL     OW28736   7.883   1.039   3.337 -0.1905  0.1183  0.0573
 9346SOL    HW128737   7.975   1.056   3.321 -0.1336  0.2069  0.4708
 9346SOL    HW228738   7.882   0.975   3.408 -0.4340 -0.3577 -0.3648
 9347SOL     OW28739   7.691   0.746   1.188 -0.2246 -0.1589 -0.3953
 9347SOL    HW128740   7.661   0.658   1.209 -2.1072 -0.2769 -3.0435
 9347SOL    HW228741   7.766   0.732   1.130 -0.1498 -0.0327 -0.3283
 9348SOL     OW28742   0.603   5.512   1.665 -0.3141  0.4885 -0.0829
 9348SOL    HW128743   0.509   5.514   1.650 -0.4467  2.5036  0.6827
 9348SOL    HW228744   0.638   5.462   1.591 -2.0419 -1.3655  0.2371
 9349SOL     OW28745   2.401   1.125   7.512  0.7280  0.3355  0.6903
 9349SOL    HW128746   2.354   1.184   7.453  1.9318  0.6514  0.0096
 9349SOL    HW228747   2.333   1.069   7.549 -0.0488 -0.0224 -1.1575
 9350SOL     OW28748   0.844   6.720   1.881 -0.1226  0.4319 -0.2183
 9350SOL    HW128749   0.803   6.668   1.812 -0.7788  1.8927 -0.9834
 9350SOL    HW228750   0.921   6.669   1.906 -1.6500 -1.7411  0.3347
 9351SOL     OW28751   7.197   0.008   3.307 -0.1548  0.2284  0.1223
 9351SOL    HW128752   7.285  -0.014   3.277  0.4244  1.0571  1.1349
 9351SOL    HW228753   7.182  -0.048   3.383 -0.6135 -0.0844 -0.1901
 9352SOL     OW28754   0.040   7.710   3.920 -0.0959  0.4812 -0.6262
 9352SOL    HW128755  -0.019   7.700   3.845 -0.3207  0.5179 -0.4563
 9352SOL    HW228756   0.094   7.631   3.919  0.1145  0.6264 -1.0087
 9353SOL     OW28757   3.696   7.621   2.082  0.1773  0.6311 -0.2036
 9353SOL    HW128758   3.638   7.655   2.014  0.1246  0.1251 -0.4152
 9353SOL    HW228759   3.660   7.656   2.164 -2.1235 -1.8547 -0.0113
 9354SOL     OW28760   1.265   0.693   1.394  0.2278  0.1029 -0.1635
 9354SOL    HW128761   1.179   0.688   1.354  0.8069  1.3493 -1.6611
 9354SOL    HW228762   1.300   0.604   1.387 -0.4708 -0.1423 -0.6240
 9355SOL     OW28763   6.715   6.053   7.376  0.2502  0.2044 -0.8595
 9355SOL    HW128764   6.769   6.128   7.352  1.8576 -0.3452  0.8361
 9355SOL    HW228765   6.625   6.087   7.376  0.9220  2.1118 -0.1867
 9356SOL     OW28766   7.356   1.451   4.726  0.2010 -0.3117 -0.0620
 9356SOL    HW128767   7.417   1.380   4.749 -0.1980 -1.4780 -2.3666
 9356SOL    HW228768   7.412   1.525   4.704  0.6953 -0.5547  0.3608
 9357SOL     OW28769   0.678   6.012   7.612  0.0697 -0.0760 -0.5606
 9357SOL    HW128770   0.754   6.069   7.598  1.2381 -1.7065 -1.0875
 9357SOL    HW228771   0.628   6.020   7.531  0.2501  0.1516 -0.6523
 9358SOL     OW28772   3.939   6.006   0.014 -0.3013  0.0635 -0.2488
 9358SOL    HW128773   3.872   6.030  -0.049 -0.0803  0.2186 -0.4284
 9358SOL    HW228774   3.916   6.054   0.094 -0.3397  0.2071 -0.3450
 9359SOL     OW28775   4.379   4.971   4.485  0.4816 -0.2822  0.6160
 9359SOL    HW128776   4.380   4.964   4.390  0.3968 -2.0753  0.7161
 9359SOL    HW228777   4.304   4.918   4.512 -0.7539  1.8266  1.6090
 9360SOL     OW28778   7.257   5.808   0.694  0.9167  0.2082 -0.1597
 9360SOL    HW128779   7.188   5.830   0.756 -0.3086 -1.4137 -0.8769
 9360SOL    HW228780   7.294   5.726   0.726 -2.0640 -2.6251 -3.1665
 9361SOL     OW28781   3.906   1.270   2.495 -0.4292 -0.5039  0.3843
 9361SOL    HW128782   3.827   1.264   2.548  0.2540  1.0848  1.6406
 9361SOL    HW228783   3.911   1.361   2.468 -0.4405 -1.1455 -1.9882
 9362SOL     OW28784   4.678   1.508   4.918  0.3484 -0.1792 -0.1982
 9362SOL    HW128785   4.655   1.509   5.011 -2.1783  0.2806 -0.7589
 9362SOL    HW228786   4.768   1.540   4.915  0.5649 -0.4171  2.0866
 9363SOL     OW28787   0.899   5.508   4.025 -0.3572  0.0896  0.2113
 9363SOL    HW128788   0.806   5.495   4.046 -0.3538 -0.5271 -0.1542
 9363SOL    HW228789   0.923   5.586   4.075 -1.0761  0.2666  0.2978
 9364SOL     OW28790   4.727   7.024   7.064  0.2971 -0.3180 -0.1862
 9364SOL    HW128791   4.743   7.001   7.155 -1.4521  0.5126  0.3718
 9364SOL    HW228792   4.750   7.117   7.058  0.2097 -0.3163 -0.5407
 9365SOL     OW28793   6.214   0.293   6.361 -0.3749  0.0394 -0.3507
 9365SOL    HW128794   6.118   0.290   6.355 -0.3078 -2.6789 -1.2765
 9365SOL    HW228795   6.238   0.213   6.407  1.5139  0.2556 -0.8838
 9366SOL     OW28796   4.377   1.507   6.755  0.2485 -0.0785  0.3802
 9366SOL    HW128797   4.441   1.440   6.731  0.9354 -0.9670  4.0736
 9366SOL    HW228798   4.294   1.474   6.721  0.7989 -2.1140  0.8737
 9367SOL     OW28799   0.048   4.461   0.590 -0.5023  0.2523 -0.2132
 9367SOL    HW128800   0.036   4.527   0.658 -0.2127 -0.4677  0.5664
 9367SOL    HW228801   0.140   4.467   0.566 -0.2951 -0.3573  0.3988
 9368SOL     OW28802   1.442   4.336   5.357  0.6519 -0.2537  0.2280
 9368SOL    HW128803   1.470   4.425   5.334 -0.8549  0.0434 -0.5486
 9368SOL    HW228804   1.403   4.301   5.277  2.3596 -2.1344  0.1118
 9369SOL     OW28805   3.612   5.933   4.805  0.1825 -0.1038 -0.1406
 9369SOL    HW128806   3.535   5.980   4.772  1.1841  0.6172 -1.5013
 9369SOL    HW228807   3.684   5.960   4.749  1.0628 -2.3328 -0.2097
 9370SOL     OW28808   7.867   7.760   2.053 -0.1671 -0.2677 -0.1371
 9370SOL    HW128809   7.960   7.747   2.034 -0.4290 -1.5795 -0.5777
 9370SOL    HW228810   7.843   7.686   2.108 -1.4597 -1.1980 -1.8509
 9371SOL     OW28811   1.597   2.346   0.641  0.0045  0.4101 -0.3015
 9371SOL    HW128812   1.629   2.434   0.619  0.2790  0.0888 -1.2218
 9371SOL    HW228813   1.582   2.349   0.735 -0.1349  1.4953 -0.3487
 9372SOL     OW28814   6.502   4.620   2.019 -0.1971  0.1540  0.3974
 9372SOL    HW128815   6.576   4.663   2.062 -1.2200  2.3943  0.0632
 9372SOL    HW228816   6.510   4.645   1.927 -0.5094 -0.9122  0.0621
 9373SOL     OW28817   1.174   0.831   0.238 -0.1081 -0.6327  0.0490
 9373SOL    HW128818   1.083   0.828   0.268  0.0736 -1.4971  0.5401
 9373SOL    HW228819   1.170   0.879   0.155 -1.0827 -1.0966 -0.1873
 9374SOL     OW28820   7.567   3.383   6.036 -0.5428  0.1048 -0.3504
 9374SOL    HW128821   7.509   3.452   6.069 -0.9838  0.2439 -1.3739
 9374SOL    HW228822   7.537   3.304   6.080 -0.4160  0.4588  0.3874
 9375SOL     OW28823   3.026   0.608   6.868 -0.0232  0.0622 -0.0276
 9375SOL    HW128824   3.079   0.537   6.904  1.1505  0.1253 -1.5572
 9375SOL    HW228825   3.069   0.688   6.900 -1.6719  0.1812  2.1748
 9376SOL     OW28826   2.545   2.944   4.984 -0.3935 -0.1221 -0.5972
 9376SOL    HW128827   2.596   2.948   5.066 -1.2252 -0.7103 -0.0362
 9376SOL    HW228828   2.565   3.026   4.939 -0.0688  0.2953  0.2848
 9377SOL     OW28829   2.849   1.880   0.883 -0.0541  0.4936  0.3461
 9377SOL    HW128830   2.847   1.974   0.903 -2.8367  0.5747  0.0669
 9377SOL    HW228831   2.783   1.842   0.941 -1.2490 -0.7450 -1.7112
 9378SOL     OW28832   1.197   6.847   1.530  0.2638  0.1462 -0.3808
 9378SOL    HW128833   1.113   6.889   1.549 -0.4075 -0.6460 -1.4457
 9378SOL    HW228834   1.201   6.773   1.590 -1.5988 -2.0260 -2.6829
 9379SOL     OW28835   3.535   0.974   6.436 -0.4166  0.4348  0.1700
 9379SOL    HW128836   3.619   1.011   6.462 -0.2468 -0.1159  0.4240
 9379SOL    HW228837   3.558   0.889   6.396 -0.9102 -0.0867  0.9754
 9380SOL     OW28838   1.875   7.779   2.050 -0.8018  0.4270 -0.3409
 9380SOL    HW128839   1.853   7.731   1.970 -0.2200  1.1113 -0.9288
 9380SOL    HW228840   1.873   7.713   2.119  1.2718 -0.7618 -1.3193
 9381SOL     OW28841   0.429   4.137   3.029  0.3415  0.2806  0.5798
 9381SOL    HW128842   0.351   4.083   3.039  0.9377 -1.2671 -2.2729
 9381SOL    HW228843   0.484   4.113   3.104  0.2387 -2.5533 -0.1349
 9382SOL     OW28844   1.429   0.775   2.253 -0.1528  0.3130  0.2794
 9382SOL    HW128845   1.366   0.721   2.302 -1.0662  1.3608  0.2954
 9382SOL    HW228846   1.514   0.740   2.277 -0.4280  1.6879  3.8444
 9383SOL     OW28847   0.599   4.819   4.937  0.1462  0.0278 -0.1640
 9383SOL    HW128848   0.509   4.792   4.953  0.3260 -0.1517  0.5768
 9383SOL    HW228849   0.638   4.745   4.890  0.1819 -0.3211  0.4070
 9384SOL     OW28850   1.712   7.857   3.675  0.2142 -0.1303 -0.1037
 9384SOL    HW128851   1.768   7.910   3.731  1.6215 -0.2091 -1.3845
 9384SOL    HW228852   1.687   7.916   3.604  0.0324 -0.5784 -0.4171
 9385SOL     OW28853   4.336   6.632   3.393 -0.2926 -0.6854 -0.6203
 9385SOL    HW128854   4.283   6.697   3.347  1.7036 -0.5739 -2.9287
 9385SOL    HW228855   4.321   6.551   3.344 -1.3363 -1.5932  1.1212
 9386SOL     OW28856   1.843   2.735   0.220 -0.3760 -0.3608  0.4856
 9386SOL    HW128857   1.783   2.804   0.249 -0.2103 -0.4331  1.0155
 9386SOL    HW228858   1.795   2.689   0.151 -0.0643  0.9710 -0.6531
 9387SOL     OW28859   5.414   5.189   1.854  0.0833 -0.7242 -0.5510
 9387SOL    HW128860   5.465   5.180   1.934  0.5257  0.3812 -0.6870
 9387SOL    HW228861   5.339   5.243   1.879  0.5377  0.1358 -0.9982
 9388SOL     OW28862   7.914   2.630   0.482  0.5671  0.5706  0.0484
 9388SOL    HW128863   7.956   2.544   0.487  1.1722  0.8730  0.2603
 9388SOL    HW228864   7.877   2.644   0.569 -1.1944 -0.2880 -0.5178
 9389SOL     OW28865   7.799   6.045   2.573 -0.2387 -0.2182 -0.3291
 9389SOL    HW128866   7.768   6.089   2.494  0.3550 -0.0129 -0.4483
 9389SOL    HW228867   7.730   6.060   2.637 -0.9323 -0.7557 -0.9315
 9390SOL     OW28868   4.921   3.855   0.853 -0.4802  0.5060  0.0542
 9390SOL    HW128869   4.996   3.797   0.866 -1.3928 -0.8533 -0.3733
 9390SOL    HW228870   4.941   3.904   0.774  0.5864  1.2681  0.7678
 9391SOL     OW28871   6.681   0.556   3.255 -0.2486  0.0328  0.1813
 9391SOL    HW128872   6.695   0.499   3.330  0.9598  2.1556  1.6908
 9391SOL    HW228873   6.763   0.553   3.206 -0.9524 -1.1672 -0.9890
 9392SOL     OW28874   3.916   4.410   0.242  0.3994  0.4129  0.3708
 9392SOL    HW128875   3.919   4.336   0.181 -1.6992 -0.0500  0.7573
 9392SOL    HW228876   3.856   4.381   0.311  0.8123  1.8789  1.3815
 9393SOL     OW28877   5.809   3.752   2.198  0.4949 -0.6818 -0.3684
 9393SOL    HW128878   5.833   3.723   2.286  0.7343 -1.4105 -0.6677
 9393SOL    HW228879   5.886   3.799   2.166  0.6249 -0.9355 -0.4218
 9394SOL     OW28880   1.934   5.799   7.939 -0.6009 -0.2294 -0.1571
 9394SOL    HW128881   1.945   5.892   7.958 -0.1422 -0.4111  0.5211
 9394SOL    HW228882   1.971   5.788   7.851 -0.6408  0.2199 -0.2326
 9395SOL     OW28883   2.576   0.367   7.921 -0.0905  0.1461  0.2976
 9395SOL    HW128884   2.671   0.353   7.928 -0.1724  0.1750  1.6945
 9395SOL    HW228885   2.549   0.392   8.009 -1.3231  0.6663 -0.2103
 9396SOL     OW28886   2.608   3.311   5.055 -0.0636 -0.5239  0.0555
 9396SOL    HW128887   2.560   3.268   4.985  0.7154 -2.1685  0.4992
 9396SOL    HW228888   2.635   3.395   5.018  1.4118 -1.8401 -2.0735
 9397SOL     OW28889   1.797   5.413   1.294 -0.2767 -0.2877  0.2517
 9397SOL    HW128890   1.785   5.492   1.347 -1.5003 -0.6968  0.6290
 9397SOL    HW228891   1.726   5.354   1.323 -1.4667 -0.2437 -2.3408
 9398SOL     OW28892   1.441   1.376   5.772  0.6487  0.4030 -0.0214
 9398SOL    HW128893   1.480   1.454   5.810  0.5086  0.4546  0.0164
 9398SOL    HW228894   1.409   1.326   5.847  0.1158  0.6418 -0.0849
 9399SOL     OW28895   4.074   6.002   3.064  0.3699 -0.2256  0.2160
 9399SOL    HW128896   4.092   6.055   3.141 -0.4242 -1.4183  1.2609
 9399SOL    HW228897   4.138   5.932   3.068  0.1480 -0.4452 -0.0514
 9400SOL     OW28898   4.112   1.649   4.074 -0.1165  0.2584  0.7440
 9400SOL    HW128899   4.075   1.737   4.082 -0.0404  0.2970  0.6767
 9400SOL    HW228900   4.175   1.656   4.003  0.4931  0.3549  1.2856
 9401SOL     OW28901   4.105   7.183   7.692 -0.4331 -0.1594 -0.2076
 9401SOL    HW128902   4.143   7.112   7.745 -0.9705 -1.8609 -1.9780
 9401SOL    HW228903   4.151   7.177   7.608  1.4670  3.4280  0.3889
 9402SOL     OW28904   7.975   7.864   4.696  0.1278  0.0509  0.1897
 9402SOL    HW128905   8.001   7.781   4.656  0.3062  0.6721 -1.0393
 9402SOL    HW228906   7.893   7.844   4.741  1.1383 -1.2283  1.5854
 9403SOL     OW28907   4.161   2.921   4.164 -0.1526  0.2633  0.3591
 9403SOL    HW128908   4.159   2.922   4.259  0.1015  0.3626  0.3652
 9403SOL    HW228909   4.253   2.939   4.142 -0.2913  0.6418  0.0903
 9404SOL     OW28910   0.438   0.205   1.479  0.4900  0.4299  0.0947
 9404SOL    HW128911   0.388   0.169   1.552  1.2992 -0.5201  0.2168
 9404SOL    HW228912   0.383   0.190   1.403  0.3268 -0.0827  0.3024
 9405SOL     OW28913   5.487   5.411   4.299 -0.9189 -0.0918  0.1288
 9405SOL    HW128914   5.539   5.363   4.363  0.0184 -0.1560 -0.6511
 9405SOL    HW228915   5.448   5.483   4.349  0.6017  0.4546  0.6018
 9406SOL     OW28916   5.903   3.867   2.651  0.3563  0.0563 -0.4328
 9406SOL    HW128917   5.912   3.900   2.740 -1.4695 -1.5022  0.3899
 9406SOL    HW228918   5.959   3.790   2.647  0.5748  0.2274 -0.6941
 9407SOL     OW28919   5.051   0.070   7.116 -0.8319 -0.1018 -0.3753
 9407SOL    HW128920   5.125   0.115   7.155 -1.4337 -1.2821  2.3403
 9407SOL    HW228921   4.976   0.127   7.132 -0.9714 -0.2631 -0.4473
 9408SOL     OW28922   7.285   2.153   4.611 -0.2077 -0.2984  0.2343
 9408SOL    HW128923   7.349   2.179   4.544 -1.7567  3.6853  0.0495
 9408SOL    HW228924   7.332   2.160   4.694  0.0537  0.9947 -0.0132
 9409SOL     OW28925   6.017   0.346   3.531  0.2056 -0.1428  0.4553
 9409SOL    HW128926   5.945   0.346   3.469 -1.7837 -0.0093  2.6432
 9409SOL    HW228927   6.055   0.259   3.524 -0.2215 -0.2507 -0.6590
 9410SOL     OW28928   0.084   2.232   6.525  0.2765 -0.0934 -1.1852
 9410SOL    HW128929   0.030   2.308   6.543  2.2042  0.7764  1.4201
 9410SOL    HW228930   0.142   2.259   6.454 -0.1972  0.2428 -1.4455
 9411SOL     OW28931   6.339   1.565   2.640  0.0566 -0.5289  0.0123
 9411SOL    HW128932   6.362   1.601   2.554  0.0083  1.2078  0.6883
 9411SOL    HW228933   6.268   1.503   2.622 -0.2937  0.1813 -1.1580
 9412SOL     OW28934   4.493   5.796   5.092 -0.4658 -0.2072 -0.0795
 9412SOL    HW128935   4.454   5.822   5.175  0.5133 -0.3079  0.4145
 9412SOL    HW228936   4.525   5.877   5.053  0.1679 -0.3226  0.2049
 9413SOL     OW28937   5.382   2.716   6.495  0.2702  0.0324 -0.0750
 9413SOL    HW128938   5.365   2.765   6.415 -0.4102  0.4168  0.2932
 9413SOL    HW228939   5.449   2.652   6.471 -3.3563 -3.3547 -2.3379
 9414SOL     OW28940   3.927   7.917   0.436  0.6223  0.5462  0.5932
 9414SOL    HW128941   3.989   7.969   0.384  1.0351 -0.6918 -0.1824
 9414SOL    HW228942   3.965   7.915   0.524  0.4059  1.8547  0.7383
 9415SOL     OW28943   7.516   7.029   3.087 -0.1679 -0.0797  0.2097
 9415SOL    HW128944   7.610   7.023   3.069 -0.1010 -0.3977  0.6527
 9415SOL    HW228945   7.510   7.038   3.182 -0.6342 -1.6278  0.3537
 9416SOL     OW28946   4.139   2.824   2.033  0.2076 -0.4758 -0.1651
 9416SOL    HW128947   4.171   2.914   2.039 -1.1831 -0.0046  1.0190
 9416SOL    HW228948   4.204   2.772   2.079 -0.8697  0.5365  2.7327
 9417SOL     OW28949   7.364   4.920   4.888 -0.1334 -0.5083  0.4405
 9417SOL    HW128950   7.455   4.946   4.872 -0.0081 -1.5787 -0.8075
 9417SOL    HW228951   7.369   4.859   4.961  0.2286 -0.9604  0.0444
 9418SOL     OW28952   7.035   3.460   1.419 -0.1554 -0.4109  0.0136
 9418SOL    HW128953   7.047   3.369   1.445  0.9887  0.0711  1.3042
 9418SOL    HW228954   6.991   3.500   1.494  2.3409  0.8145  0.9203
 9419SOL     OW28955   3.584   4.447   3.927  0.1583 -0.0384 -0.3909
 9419SOL    HW128956   3.534   4.521   3.894  1.0147  1.3580  1.2563
 9419SOL    HW228957   3.610   4.398   3.849 -0.1232  1.6067 -1.5638
 9420SOL     OW28958   1.980   3.695   5.794  0.1603 -0.1261  0.2960
 9420SOL    HW128959   2.019   3.608   5.798 -0.6234 -0.5016 -0.0331
 9420SOL    HW228960   1.898   3.686   5.844 -0.5220  0.0902 -0.7697
 9421SOL     OW28961   2.696   4.845   4.831 -0.6767 -0.0635 -0.1368
 9421SOL    HW128962   2.660   4.757   4.829 -0.5649 -0.1280  0.6003
 9421SOL    HW228963   2.769   4.841   4.893  0.3298  0.1730 -1.2612
 9422SOL     OW28964   6.826   6.117   7.792 -0.4222  0.0876 -0.0225
 9422SOL    HW128965   6.899   6.141   7.849 -0.5085  0.9605 -0.2675
 9422SOL    HW228966   6.806   6.026   7.816  0.1591  0.1306  0.6648
 9423SOL     OW28967   2.289   6.797   7.532 -0.0069 -0.0805 -0.4138
 9423SOL    HW128968   2.226   6.865   7.557  1.6321  1.8087 -1.1366
 9423SOL    HW228969   2.312   6.817   7.442  1.5422 -0.7564 -0.2043
 9424SOL     OW28970   6.872   5.744   1.500 -0.4318  0.0005 -0.5802
 9424SOL    HW128971   6.864   5.800   1.577 -0.8198  0.6774 -1.0974
 9424SOL    HW228972   6.907   5.662   1.533 -1.0599  0.1111  0.3847
 9425SOL     OW28973   2.336   2.911   4.728 -0.3912  0.2272  0.0669
 9425SOL    HW128974   2.366   2.901   4.818  0.7789  4.0049  0.2782
 9425SOL    HW228975   2.405   2.872   4.674 -0.2603 -0.5130  0.7604
 9426SOL     OW28976   6.484   2.715   0.009 -0.2016 -0.5023  0.7452
 9426SOL    HW128977   6.526   2.634  -0.019 -1.7890 -0.4004 -2.3908
 9426SOL    HW228978   6.391   2.702  -0.009 -0.7809  1.2811  2.1592
 9427SOL     OW28979   5.937   2.935   7.473  0.0505  0.2434  0.3415
 9427SOL    HW128980   5.871   2.923   7.404  0.7692  0.0826 -0.3231
 9427SOL    HW228981   6.011   2.976   7.429 -0.3339  2.3168  1.4970
 9428SOL     OW28982   6.836   1.911   0.170  0.7875 -0.0882 -0.0531
 9428SOL    HW128983   6.819   1.889   0.262 -0.9064  1.1251 -0.0277
 9428SOL    HW228984   6.919   1.869   0.150  1.0012 -0.6937  1.9295
 9429SOL     OW28985   7.527   6.062   0.338 -0.0779  0.6319 -0.0129
 9429SOL    HW128986   7.487   6.146   0.313  0.3552  0.4322 -1.4200
 9429SOL    HW228987   7.453   6.001   0.340 -0.3423  0.9637  0.6755
 9430SOL     OW28988   6.508   4.854   1.249 -1.1633 -0.0492 -0.0701
 9430SOL    HW128989   6.541   4.941   1.232  0.6244 -0.3657  1.4847
 9430SOL    HW228990   6.572   4.814   1.307 -1.8491 -2.4621 -0.8291
 9431SOL     OW28991   6.370   2.156   5.682 -0.1637 -0.5111  0.3647
 9431SOL    HW128992   6.425   2.194   5.613  0.8399 -0.5093  1.1504
 9431SOL    HW228993   6.419   2.080   5.712 -0.2871 -0.1559  1.5099
 9432SOL     OW28994   0.322   5.220   0.181 -0.0355 -0.7626  0.3958
 9432SOL    HW128995   0.240   5.194   0.139 -0.1459  0.8099 -0.4317
 9432SOL    HW228996   0.390   5.176   0.131 -0.2448 -0.0403 -0.5411
 9433SOL     OW28997   0.550   4.640   7.119  0.3896 -0.0777 -0.2087
 9433SOL    HW128998   0.480   4.637   7.054 -1.3461 -1.4442  1.5711
 9433SOL    HW228999   0.548   4.729   7.153 -1.8890 -0.5429  1.1176
 9434SOL     OW29000   7.121   0.786   3.953 -0.4265 -0.2353  0.6960
 9434SOL    HW129001   7.070   0.811   4.030 -0.7419  1.9307 -0.1410
 9434SOL    HW229002   7.183   0.858   3.940 -0.8876 -0.1541 -1.4769
 9435SOL     OW29003   4.286   0.059   0.118 -0.2120 -0.1753  1.0861
 9435SOL    HW129004   4.285  -0.016   0.178 -0.5140 -1.7680 -0.7977
 9435SOL    HW229005   4.238   0.028   0.041 -1.2374  2.3314  0.6231
 9436SOL     OW29006   0.547   4.481   7.338 -0.4600 -0.7333  0.4014
 9436SOL    HW129007   0.452   4.469   7.341 -0.5686  0.1759  0.7227
 9436SOL    HW229008   0.561   4.547   7.271 -0.2195  0.5650  1.6696
 9437SOL     OW29009   2.294   4.789   5.420  0.0285 -0.7854 -0.2264
 9437SOL    HW129010   2.311   4.880   5.442 -0.4067 -0.6168 -0.5726
 9437SOL    HW229011   2.254   4.792   5.333  1.5176 -1.4180 -0.9699
 9438SOL     OW29012   1.251   3.313   5.654 -0.3883  0.0815  0.1402
 9438SOL    HW129013   1.342   3.286   5.640  0.5721  3.0281  0.0018
 9438SOL    HW229014   1.220   3.340   5.568 -0.2565  2.0603  0.6546
 9439SOL     OW29015   5.475   3.901   5.162 -0.5115  0.2705 -0.1109
 9439SOL    HW129016   5.527   3.917   5.083 -0.2911  0.1724  0.0132
 9439SOL    HW229017   5.386   3.886   5.130  0.0728 -2.6188 -0.5985
 9440SOL     OW29018   6.771   5.038   2.361 -0.4076 -0.5143 -0.1814
 9440SOL    HW129019   6.848   5.039   2.417 -0.9694 -2.7763  0.7255
 9440SOL    HW229020   6.806   5.040   2.272  0.6603 -0.7342  0.2208
 9441SOL     OW29021   1.667   1.976   7.522 -0.6162  0.3220  0.0954
 9441SOL    HW129022   1.708   1.992   7.607 -0.7631 -0.0507  0.2353
 9441SOL    HW229023   1.700   2.047   7.467  0.1321  0.0797  0.2310
 9442SOL     OW29024   2.329   4.419   4.338  0.1851 -0.4424 -0.7110
 9442SOL    HW129025   2.365   4.501   4.372 -0.3322  0.1498 -1.5717
 9442SOL    HW229026   2.406   4.369   4.311  0.4566  0.1970 -1.1566
 9443SOL     OW29027   6.164   5.441   1.752  0.0421  0.5781 -0.2790
 9443SOL    HW129028   6.227   5.438   1.824 -0.6695  1.1557  0.3938
 9443SOL    HW229029   6.183   5.524   1.708 -0.3936  0.8747  0.0779
 9444SOL     OW29030   3.538   5.124   0.156  0.0677 -0.4352  0.3086
 9444SOL    HW129031   3.449   5.090   0.146 -0.2178  0.7148 -1.6733
 9444SOL    HW229032   3.530   5.194   0.221 -0.3801 -0.6922  0.5313
 9445SOL     OW29033   5.665   5.216   6.772  0.0750 -0.0201 -0.4094
 9445SOL    HW129034   5.652   5.305   6.740  0.0313  0.2732  0.3870
 9445SOL    HW229035   5.688   5.228   6.865  0.1756 -0.8308 -0.3277
 9446SOL     OW29036   4.895   3.935   4.677 -0.8041  1.2517 -0.2618
 9446SOL    HW129037   4.869   3.976   4.759 -0.3063  1.5008 -0.2251
 9446SOL    HW229038   4.924   4.007   4.622 -1.5188  1.1369 -0.8126
 9447SOL     OW29039   1.617   3.053   2.212 -0.3412  0.3685  0.0588
 9447SOL    HW129040   1.558   3.048   2.287 -0.4548  0.4024 -0.0294
 9447SOL    HW229041   1.561   3.075   2.138 -0.3242 -0.2643 -0.1464
 9448SOL     OW29042   7.364   7.750   0.004 -0.1858 -0.2199  0.1067
 9448SOL    HW129043   7.385   7.821   0.064 -0.1627 -1.0067  1.0436
 9448SOL    HW229044   7.269   7.744   0.006 -0.1781 -0.3235  0.1503
 9449SOL     OW29045   6.613   2.311   0.958  0.0415  0.7335  0.5171
 9449SOL    HW129046   6.671   2.297   1.033  0.5136  2.7617  0.6073
 9449SOL    HW229047   6.582   2.401   0.969  0.7755  1.3999 -2.1332
 9450SOL     OW29048   5.166   5.624   1.134 -0.4032  0.2434 -0.0362
 9450SOL    HW129049   5.152   5.570   1.212 -0.0386 -0.6693 -0.5825
 9450SOL    HW229050   5.157   5.563   1.061 -2.0414  1.3281 -0.7981
 9451SOL     OW29051   7.261   4.899   1.071  0.5788  0.5198 -0.0410
 9451SOL    HW129052   7.323   4.962   1.036  0.0703 -0.1794 -2.3551
 9451SOL    HW229053   7.193   4.952   1.112  0.5662  1.4486 -1.2246
 9452SOL     OW29054   1.882   4.787   2.718  0.2100 -0.1474  0.1011
 9452SOL    HW129055   1.800   4.739   2.718  0.2567 -0.2308 -0.1351
 9452SOL    HW229056   1.878   4.844   2.795  0.1637 -0.5467  0.3952
 9453SOL     OW29057   5.768   1.062   6.680  0.0497 -0.1806 -0.1759
 9453SOL    HW129058   5.711   1.130   6.644 -1.0517 -1.5467 -1.1411
 9453SOL    HW229059   5.802   1.016   6.603  1.7678  0.0202  0.4201
 9454SOL     OW29060   3.842   4.196   1.727  0.5813 -0.2301  0.5406
 9454SOL    HW129061   3.796   4.188   1.810  0.6599  0.7783  0.6930
 9454SOL    HW229062   3.779   4.240   1.669  1.7804  2.5290  1.1707
 9455SOL     OW29063   7.353   2.043   0.719  0.5303  0.3581  0.0438
 9455SOL    HW129064   7.272   2.029   0.769  1.1280  0.3394  1.0255
 9455SOL    HW229065   7.402   2.108   0.770  1.4869 -0.2213 -0.1036
 9456SOL     OW29066   1.598   0.895   5.531  0.5513 -0.0704 -0.4557
 9456SOL    HW129067   1.547   0.823   5.568  1.1776 -0.0397  0.5087
 9456SOL    HW229068   1.539   0.970   5.533  0.2899 -0.2805 -0.3163
 9457SOL     OW29069   7.148   3.282   0.685  0.3342 -0.2097  0.3153
 9457SOL    HW129070   7.202   3.262   0.761 -0.2949 -0.6083  0.6655
 9457SOL    HW229071   7.075   3.221   0.690  0.0333  0.0806 -0.3455
 9458SOL     OW29072   6.757   7.753   1.946  0.0470 -0.1674 -0.3094
 9458SOL    HW129073   6.820   7.685   1.971 -0.7619 -0.1761  2.0032
 9458SOL    HW229074   6.683   7.705   1.908 -0.0897 -0.5231  0.3826
 9459SOL     OW29075   4.372   1.896   5.862 -0.0773 -0.3836  0.3221
 9459SOL    HW129076   4.409   1.810   5.843  0.6589  0.0345 -0.1871
 9459SOL    HW229077   4.279   1.888   5.839  0.3925 -0.4404 -1.8035
 9460SOL     OW29078   3.712   4.116   1.997  0.4099  0.0632  0.8457
 9460SOL    HW129079   3.744   4.063   2.070 -1.3825 -0.1520  1.5252
 9460SOL    HW229080   3.620   4.132   2.017  0.2072  1.1291 -0.7239
 9461SOL     OW29081   2.698   7.041   5.191 -0.3552 -0.0204  0.3406
 9461SOL    HW129082   2.758   7.077   5.126  0.1874 -0.0207  0.8370
 9461SOL    HW229083   2.620   7.097   5.186 -1.0435 -1.0458 -1.5105
 9462SOL     OW29084   6.099   3.378   7.850  0.1135 -0.1317 -0.6997
 9462SOL    HW129085   6.006   3.370   7.829 -0.0606 -1.7463  0.5116
 9462SOL    HW229086   6.121   3.295   7.891  1.8999  0.5580 -0.1964
 9463SOL     OW29087   6.738   6.097   0.295 -0.6488 -0.4932  0.1041
 9463SOL    HW129088   6.699   6.049   0.222 -0.6723 -0.0438 -0.1839
 9463SOL    HW229089   6.700   6.185   0.288  0.5444  0.0013 -0.2801
 9464SOL     OW29090   3.158   7.534   0.570  0.6802  0.2833 -0.5660
 9464SOL    HW129091   3.064   7.527   0.556  0.7869  1.1675 -1.8977
 9464SOL    HW229092   3.178   7.465   0.634 -1.2101  1.5765  1.5918
 9465SOL     OW29093   7.718   5.601   3.777  0.0861  0.0806 -0.1059
 9465SOL    HW129094   7.684   5.690   3.771 -0.9788 -0.2149  1.1535
 9465SOL    HW229095   7.813   5.612   3.784  0.1010  1.0232 -1.5612
 9466SOL     OW29096   4.519   7.812   4.950 -0.0868 -0.1349  0.1285
 9466SOL    HW129097   4.475   7.783   4.870 -1.0817 -0.8410  0.8982
 9466SOL    HW229098   4.607   7.836   4.922  0.0557 -1.7385 -0.9535
 9467SOL     OW29099   0.215   3.169   2.610 -0.7992 -0.2961 -0.0419
 9467SOL    HW129100   0.195   3.153   2.702  1.3217 -0.2755  0.4848
 9467SOL    HW229101   0.282   3.103   2.589  0.0754  0.8737 -1.0351
 9468SOL     OW29102   5.105   7.655   3.803  0.1280  0.3619  0.3710
 9468SOL    HW129103   5.144   7.571   3.778 -1.5691  0.3882 -2.9894
 9468SOL    HW229104   5.177   7.704   3.844  2.0240 -1.5827 -0.4326
 9469SOL     OW29105   5.992   7.383   7.037 -0.0185 -0.0536  0.3276
 9469SOL    HW129106   5.910   7.415   7.074  0.6551  0.5536  1.3405
 9469SOL    HW229107   6.050   7.374   7.112  1.0890  0.2958 -0.4592
 9470SOL     OW29108   4.463   2.124   1.014 -0.3174 -0.0415 -0.1003
 9470SOL    HW129109   4.478   2.033   1.039 -1.4710  0.4098  2.5874
 9470SOL    HW229110   4.380   2.147   1.056  0.1655  2.3812 -0.3128
 9471SOL     OW29111   0.543   3.446   5.369 -0.0668 -0.3646  0.4956
 9471SOL    HW129112   0.552   3.498   5.289 -1.3026 -1.5845 -0.5084
 9471SOL    HW229113   0.614   3.475   5.425  0.1200  1.3887 -0.5666
 9472SOL     OW29114   5.516   3.155   0.142  0.6802  0.4583 -0.2926
 9472SOL    HW129115   5.604   3.157   0.103  0.6799 -0.9783 -0.4178
 9472SOL    HW229116   5.513   3.072   0.190 -0.6075  0.5056 -0.2574
 9473SOL     OW29117   4.768   7.758   4.395 -0.0493 -0.1541  0.3219
 9473SOL    HW129118   4.683   7.715   4.383 -0.0129 -0.2444  0.3837
 9473SOL    HW229119   4.755   7.847   4.362  0.0648 -0.4097 -0.4304
 9474SOL     OW29120   1.344   1.299   3.769  0.2411 -0.1969 -1.0501
 9474SOL    HW129121   1.411   1.365   3.788 -1.0364  1.2230 -1.3317
 9474SOL    HW229122   1.296   1.290   3.851 -1.2216  1.1922 -1.7013
 9475SOL     OW29123   5.304   4.807   2.760  0.0366 -0.3909 -0.2727
 9475SOL    HW129124   5.347   4.892   2.773  2.1006 -1.0879 -1.8855
 9475SOL    HW229125   5.236   4.824   2.695  0.4753  0.0355 -0.6300
 9476SOL     OW29126   1.331   3.628   4.803  0.3307  0.3555  0.5254
 9476SOL    HW129127   1.374   3.543   4.803  0.8891  0.5815  2.3885
 9476SOL    HW229128   1.237   3.607   4.800  0.4696 -0.1969 -1.6101
 9477SOL     OW29129   3.303   7.825   2.666 -0.5136  0.5065  0.0348
 9477SOL    HW129130   3.263   7.792   2.747 -1.0438 -0.0840 -0.4480
 9477SOL    HW229131   3.397   7.823   2.683 -0.4906 -1.5228 -0.0218
 9478SOL     OW29132   0.911   5.066   3.097  0.4459  0.4878 -0.7803
 9478SOL    HW129133   0.885   5.158   3.086  0.4007  1.0653  2.9402
 9478SOL    HW229134   1.005   5.070   3.113  0.4136 -0.1121 -0.4469
 9479SOL     OW29135   6.112   6.497   6.115 -0.1146  0.2176 -0.2677
 9479SOL    HW129136   6.053   6.445   6.169 -0.5291 -0.1716 -1.0799
 9479SOL    HW229137   6.057   6.568   6.081 -0.4837 -0.8581 -2.0534
 9480SOL     OW29138   0.575   4.047   7.930 -0.0173 -0.5402 -0.1411
 9480SOL    HW129139   0.617   4.008   8.007 -0.0646 -1.7013 -0.6851
 9480SOL    HW229140   0.483   4.056   7.957  0.3338  0.9483  0.6430
 9481SOL     OW29141   6.858   3.910   4.714 -0.0728 -0.1645  0.0567
 9481SOL    HW129142   6.889   3.962   4.640  0.8521 -0.1417  0.4529
 9481SOL    HW229143   6.862   3.820   4.683 -0.0721 -0.1255 -0.0579
 9482SOL     OW29144   6.396   5.175   5.093 -0.3390  0.5272 -0.1549
 9482SOL    HW129145   6.416   5.265   5.066 -3.0309  0.4405 -2.9029
 9482SOL    HW229146   6.476   5.126   5.073 -0.3561  1.5322 -3.1506
 9483SOL     OW29147   6.525   5.125   6.276  0.1063 -0.0565 -0.6001
 9483SOL    HW129148   6.527   5.210   6.234 -2.6986  1.3718  1.7471
 9483SOL    HW229149   6.593   5.129   6.343 -0.7635  0.8673  0.2662
 9484SOL     OW29150   0.760   1.693   0.979  0.0063 -0.0548  0.3470
 9484SOL    HW129151   0.822   1.763   0.958 -0.6159  0.3309 -0.2743
 9484SOL    HW229152   0.674   1.736   0.975 -0.4494 -1.0064 -0.7971
 9485SOL     OW29153   2.962   0.954   1.125 -0.6483 -0.3011 -0.1606
 9485SOL    HW129154   3.047   0.911   1.116 -0.8120 -0.9316  1.0065
 9485SOL    HW229155   2.934   0.972   1.036  0.7249 -0.0547 -0.5581
 9486SOL     OW29156   2.632   3.138   0.468 -0.1149  0.2617  0.3656
 9486SOL    HW129157   2.718   3.113   0.434 -0.0778 -0.2939  0.8514
 9486SOL    HW229158   2.569   3.086   0.418 -0.1977  0.8657 -0.1774
 9487SOL     OW29159   0.643   0.556   2.385 -0.3639 -0.4077 -0.3478
 9487SOL    HW129160   0.592   0.637   2.379 -0.4457 -0.4537 -0.2730
 9487SOL    HW229161   0.630   0.526   2.475  1.5273  0.7068  0.3561
 9488SOL     OW29162   3.238   7.732   2.899 -0.1051  0.0862 -0.8143
 9488SOL    HW129163   3.238   7.637   2.892 -1.9848  0.0858 -1.1136
 9488SOL    HW229164   3.284   7.750   2.981  1.0446 -1.0171 -1.1947
 9489SOL     OW29165   6.059   0.565   2.643  0.6141 -0.1980 -0.2834
 9489SOL    HW129166   6.138   0.582   2.694 -0.9852  1.6504  1.8032
 9489SOL    HW229167   6.004   0.512   2.701  0.4744 -1.9726 -1.9316
 9490SOL     OW29168   5.160   6.665   6.146  0.1196 -0.2140  0.2185
 9490SOL    HW129169   5.234   6.655   6.087 -0.0233 -0.0503  0.0101
 9490SOL    HW229170   5.115   6.743   6.115 -0.1575 -0.3301  0.3224
 9491SOL     OW29171   4.722   7.922   5.999  0.1566 -0.0805  0.5765
 9491SOL    HW129172   4.656   7.946   5.933  0.1148 -0.2922  0.5409
 9491SOL    HW229173   4.694   7.836   6.030  0.8687 -0.5366 -0.0241
 9492SOL     OW29174   3.205   3.523   1.066  0.7458 -0.3261 -0.0981
 9492SOL    HW129175   3.139   3.463   1.101  0.4239 -0.9525 -1.7209
 9492SOL    HW229176   3.289   3.483   1.090  0.5489 -0.4138  0.4671
 9493SOL     OW29177   5.987   1.271   1.728 -0.4721  0.0720  0.1054
 9493SOL    HW129178   6.033   1.274   1.812 -1.4221  0.7170  0.6227
 9493SOL    HW229179   6.006   1.183   1.693 -0.2659 -0.2971  1.1135
 9494SOL     OW29180   1.726   4.344   6.222 -0.3102  0.1150  0.0344
 9494SOL    HW129181   1.667   4.282   6.265  0.0965  0.5087  1.2003
 9494SOL    HW229182   1.745   4.410   6.289  0.2456  0.8232 -0.7974
 9495SOL     OW29183   7.021   1.460   2.916 -0.4863 -0.4380  0.2578
 9495SOL    HW129184   7.035   1.390   2.853 -1.9958  0.3420 -0.9977
 9495SOL    HW229185   7.103   1.465   2.965  1.0374 -0.5744 -2.1344
 9496SOL     OW29186   2.303   5.077   2.590  0.3548  0.3165  0.3384
 9496SOL    HW129187   2.327   5.141   2.657 -1.7233  0.0905  1.3709
 9496SOL    HW229188   2.346   4.996   2.618  1.5269  0.8072  0.0054
 9497SOL     OW29189   0.642   4.260   3.674 -0.0194  0.3150  0.1093
 9497SOL    HW129190   0.553   4.232   3.652 -0.5495  0.6797  1.6843
 9497SOL    HW229191   0.672   4.309   3.597 -0.5645 -1.1510 -1.0826
 9498SOL     OW29192   2.953   1.880   5.198  0.6631 -0.1442  0.2844
 9498SOL    HW129193   2.864   1.856   5.172  0.4731  0.6704  0.1423
 9498SOL    HW229194   2.986   1.932   5.124  1.1950 -0.2845  0.4179
 9499SOL     OW29195   3.535   2.486   6.617 -0.2710  0.1498  0.4117
 9499SOL    HW129196   3.528   2.549   6.689  0.8316  0.3818  0.3384
 9499SOL    HW229197   3.491   2.407   6.649  1.2482 -0.1686  1.8414
 9500SOL     OW29198   1.949   7.055   7.158 -0.8751  0.3103  0.1414
 9500SOL    HW129199   2.013   7.009   7.103  0.5180 -0.0598  1.9602
 9500SOL    HW229200   1.928   7.134   7.109 -2.6845 -1.7381 -2.7019
 9501SOL     OW29201   3.694   1.720   0.565 -0.0719 -0.3410 -0.7978
 9501SOL    HW129202   3.625   1.660   0.594 -1.2745  1.2589 -0.1561
 9501SOL    HW229203   3.730   1.680   0.486 -1.6465 -1.3186 -1.0587
 9502SOL     OW29204   7.383   0.506   7.125 -0.2767  0.6821  0.3969
 9502SOL    HW129205   7.365   0.553   7.043  1.4351  1.4114  0.3932
 9502SOL    HW229206   7.407   0.418   7.097  2.2050  1.4446 -0.1142
 9503SOL     OW29207   1.187   3.006   3.354 -0.3259 -0.0167 -0.5226
 9503SOL    HW129208   1.161   2.918   3.324 -1.2686 -0.3611  1.1947
 9503SOL    HW229209   1.106   3.046   3.384  0.2579  1.0917 -0.3761
 9504SOL     OW29210   1.399   3.808   1.512  0.2445 -0.4234 -0.2630
 9504SOL    HW129211   1.328   3.841   1.457  0.3281  0.6107  0.2249
 9504SOL    HW229212   1.452   3.885   1.533  0.7974 -0.9634  0.4188
 9505SOL     OW29213   5.115   0.597   5.501  0.0349  0.2887  0.5378
 9505SOL    HW129214   5.115   0.510   5.539 -0.7542 -1.0106 -2.1915
 9505SOL    HW229215   5.031   0.604   5.456  0.8432  1.6935 -0.8703
 9506SOL     OW29216   3.835   3.959   6.995 -0.2697  0.3363 -0.2219
 9506SOL    HW129217   3.751   3.971   6.950  0.3987  1.7452 -1.1808
 9506SOL    HW229218   3.901   3.962   6.925  0.5178 -3.4656  0.1174
 9507SOL     OW29219   2.145   2.810   2.175 -0.0432  0.3424 -0.3429
 9507SOL    HW129220   2.091   2.789   2.252 -0.5303 -0.0239 -0.7833
 9507SOL    HW229221   2.091   2.871   2.124 -0.8367 -1.4314 -1.7096
 9508SOL     OW29222   5.236   0.901   7.079  0.1476  0.0271  0.3995
 9508SOL    HW129223   5.325   0.912   7.045  0.5444  0.1808  1.4325
 9508SOL    HW229224   5.199   0.989   7.079 -0.1292 -0.0884 -0.3537
 9509SOL     OW29225   0.487   5.672   2.010 -0.2865 -0.0581  0.1267
 9509SOL    HW129226   0.522   5.614   2.077  0.0783 -0.3823 -0.3363
 9509SOL    HW229227   0.392   5.661   2.015 -0.2374 -0.4166  0.2870
 9510SOL     OW29228   7.827   1.440   7.873  0.4754 -1.1311 -0.1670
 9510SOL    HW129229   7.921   1.425   7.877  0.6514  0.0451  2.2456
 9510SOL    HW229230   7.787   1.355   7.890  1.1273 -1.4451 -0.2015
 9511SOL     OW29231   1.397   3.944   6.172  0.2246 -0.0439 -0.3496
 9511SOL    HW129232   1.372   3.919   6.261  0.0852 -1.1365 -0.6794
 9511SOL    HW229233   1.388   3.863   6.121 -3.2419  1.2849 -2.1548
 9512SOL     OW29234   1.089   2.450   7.119 -0.2165 -0.1020  0.1501
 9512SOL    HW129235   1.091   2.365   7.164 -1.5228 -1.1366 -1.5875
 9512SOL    HW229236   0.995   2.466   7.103  0.1494 -0.8635 -3.8952
 9513SOL     OW29237   0.264   3.865   1.185 -0.0695 -0.0391  0.2644
 9513SOL    HW129238   0.304   3.935   1.237  0.2865 -0.2082  0.2174
 9513SOL    HW229239   0.291   3.883   1.095  2.4024 -1.8073  0.5525
 9514SOL     OW29240   6.573   2.825   2.701 -0.1715  0.3454  0.1242
 9514SOL    HW129241   6.591   2.818   2.795 -0.3141 -1.8770  0.0284
 9514SOL    HW229242   6.503   2.762   2.685  0.2549  0.2601 -1.5767
 9515SOL     OW29243   7.047   5.448   1.337 -0.2773 -0.2720  0.4772
 9515SOL    HW129244   7.114   5.513   1.315 -1.6855  0.8870 -0.5921
 9515SOL    HW229245   7.076   5.368   1.292 -1.0161  0.9876 -2.5033
 9516SOL     OW29246   4.075   5.442   2.700 -0.1537 -0.5420 -0.5047
 9516SOL    HW129247   4.135   5.421   2.771  0.8222 -3.2762 -2.0059
 9516SOL    HW229248   4.004   5.378   2.707  0.0456 -0.9809 -2.0330
 9517SOL     OW29249   5.369   5.153   6.689  0.1504 -0.2370  0.2081
 9517SOL    HW129250   5.343   5.226   6.633 -1.3717  0.6303  1.9083
 9517SOL    HW229251   5.449   5.182   6.732  0.1177  0.0045  0.1053
 9518SOL     OW29252   6.560   0.906   0.878  0.0677  0.2812  0.4115
 9518SOL    HW129253   6.468   0.887   0.894  0.0977  0.2609  0.5616
 9518SOL    HW229254   6.599   0.820   0.859 -0.3599  0.5251 -1.7836
 9519SOL     OW29255   3.318   6.257   1.995  0.1308  0.4156 -0.2027
 9519SOL    HW129256   3.289   6.167   1.985  1.4685  0.1473 -2.3461
 9519SOL    HW229257   3.394   6.253   2.053  0.5204  0.0821 -0.7347
 9520SOL     OW29258   4.866   6.181   5.396  0.1708  0.2982  0.3768
 9520SOL    HW129259   4.793   6.243   5.390 -0.1508 -0.1217 -0.1008
 9520SOL    HW229260   4.825   6.097   5.417  0.5404  0.1130  0.3667
 9521SOL     OW29261   4.539   5.423   4.933  0.4593 -0.3753  0.1922
 9521SOL    HW129262   4.566   5.477   5.007  1.8612 -0.7223 -0.0433
 9521SOL    HW229263   4.454   5.459   4.907  1.0720  1.3172  0.4263
 9522SOL     OW29264   2.742   3.418   0.382  0.0537 -0.3956  0.0132
 9522SOL    HW129265   2.757   3.324   0.371 -0.4199 -0.4333 -0.3436
 9522SOL    HW229266   2.813   3.447   0.439  0.0510 -1.0183  0.3418
 9523SOL     OW29267   1.239   6.436   3.891  0.6233 -0.2169 -0.0466
 9523SOL    HW129268   1.197   6.352   3.909  0.3104  0.1056  0.7670
 9523SOL    HW229269   1.183   6.500   3.934 -0.1603  0.6168 -2.1670
 9524SOL     OW29270   3.738   2.644   6.445 -0.0577  0.0584  0.0302
 9524SOL    HW129271   3.817   2.680   6.486  0.3979 -0.8500 -0.0368
 9524SOL    HW229272   3.696   2.592   6.514 -0.1315 -0.1849 -0.1972
 9525SOL     OW29273   4.791   2.731   0.524  0.4407 -0.3317  0.6171
 9525SOL    HW129274   4.862   2.672   0.500  0.4917 -0.9162  2.0806
 9525SOL    HW229275   4.712   2.691   0.486  0.9764  0.8634 -1.8946
 9526SOL     OW29276   0.217   0.692   1.816 -0.1034 -0.3916  0.3010
 9526SOL    HW129277   0.270   0.673   1.739 -1.2284 -1.6393 -0.1972
 9526SOL    HW229278   0.276   0.678   1.890  0.6032 -0.5363 -0.2772
 9527SOL     OW29279   7.628   2.539   5.852  0.6881 -0.1156 -0.3188
 9527SOL    HW129280   7.649   2.599   5.780 -1.0647  1.3432  0.3021
 9527SOL    HW229281   7.635   2.592   5.931 -1.4366 -0.4991  0.2139
 9528SOL     OW29282   5.000   2.266   0.884 -0.7368 -0.3140 -0.4131
 9528SOL    HW129283   4.923   2.307   0.923 -0.2822 -0.5173  0.7705
 9528SOL    HW229284   5.046   2.337   0.840 -1.1887 -0.0312 -0.4268
 9529SOL     OW29285   2.464   1.182   6.358 -0.3275 -0.2486 -0.2812
 9529SOL    HW129286   2.556   1.190   6.333 -0.6578  1.1724 -1.1137
 9529SOL    HW229287   2.423   1.139   6.283 -1.0585  2.7749 -1.7455
 9530SOL     OW29288   4.642   0.136   2.621 -0.0429 -0.3034  0.3621
 9530SOL    HW129289   4.644   0.177   2.707  0.4145  0.7032 -0.1043
 9530SOL    HW229290   4.733   0.114   2.602  0.1544  1.1909 -0.6230
 9531SOL     OW29291   7.924   6.834   4.603  0.4386  0.4427  0.3958
 9531SOL    HW129292   7.894   6.744   4.617  0.5046  0.4770  0.7547
 9531SOL    HW229293   7.986   6.850   4.674  0.7416  0.6293  0.0932
 9532SOL     OW29294   0.062   4.762   6.944  0.0629 -0.9441 -0.1119
 9532SOL    HW129295   0.054   4.739   7.036 -1.5918  0.7933  0.2372
 9532SOL    HW229296  -0.022   4.738   6.906  0.5173 -1.0909 -1.0569
 9533SOL     OW29297   2.596   3.384   4.722  0.5399 -0.3115 -0.0449
 9533SOL    HW129298   2.689   3.388   4.698  1.0101 -1.4603  1.3694
 9533SOL    HW229299   2.583   3.458   4.781  1.7100 -2.3389  3.0439
 9534SOL     OW29300   4.242   6.869   6.389  0.5070 -0.0794  0.4837
 9534SOL    HW129301   4.292   6.830   6.317 -0.0439 -0.4499  0.2988
 9534SOL    HW229302   4.253   6.807   6.461 -0.1885 -0.4710  0.2562
 9535SOL     OW29303   4.618   5.819   7.933  0.1218 -0.1059 -0.5524
 9535SOL    HW129304   4.551   5.870   7.888 -0.4918 -0.6013 -0.2209
 9535SOL    HW229305   4.607   5.841   8.026 -1.1523 -1.9242 -0.2185
 9536SOL     OW29306   0.149   5.383   4.540 -0.7145 -0.0944 -0.3541
 9536SOL    HW129307   0.129   5.380   4.446  0.5099 -1.7020 -0.6104
 9536SOL    HW229308   0.083   5.326   4.580 -0.6190 -0.2246 -0.3796
 9537SOL     OW29309   7.476   5.378   1.489 -0.5345 -1.2443 -0.3962
 9537SOL    HW129310   7.547   5.348   1.545  0.3934  0.5627 -0.5360
 9537SOL    HW229311   7.518   5.407   1.409 -1.5868 -1.4371 -1.0442
 9538SOL     OW29312   6.133   5.458   6.003  0.2640  0.0138  0.0860
 9538SOL    HW129313   6.080   5.511   6.063 -0.1075  0.4261 -0.5958
 9538SOL    HW229314   6.069   5.413   5.948  0.6185  0.1194 -0.4139
 9539SOL     OW29315   5.221   1.906   6.673 -0.7172  0.0304 -0.0823
 9539SOL    HW129316   5.154   1.863   6.727  0.6088  0.0372  1.6716
 9539SOL    HW229317   5.304   1.873   6.707  0.2162  0.7884 -1.5216
 9540SOL     OW29318   3.799   5.065   3.983 -0.0883  0.0128 -0.3275
 9540SOL    HW129319   3.829   5.143   4.031  0.2089  0.7612 -1.6913
 9540SOL    HW229320   3.819   4.992   4.042 -1.0567  1.0004  1.3019
 9541SOL     OW29321   6.786   7.080   5.867 -0.7004 -0.2879  0.0725
 9541SOL    HW129322   6.735   7.088   5.787 -1.3350  0.0239  0.5022
 9541SOL    HW229323   6.801   7.170   5.896  1.9678 -0.2260 -1.1845
 9542SOL     OW29324   2.547   7.468   6.212 -0.0914 -0.5596 -0.8071
 9542SOL    HW129325   2.507   7.548   6.178 -1.7528  0.5879  3.2365
 9542SOL    HW229326   2.625   7.498   6.260 -0.5400 -1.3213  0.4721
 9543SOL     OW29327   1.763   4.014   7.533 -0.6026 -0.7748 -0.5810
 9543SOL    HW129328   1.716   4.070   7.596 -0.7695 -0.6152 -0.8426
 9543SOL    HW229329   1.831   4.071   7.496 -0.5468 -0.8484 -0.5912
 9544SOL     OW29330   4.014   7.937   3.600  0.4254  0.6419  0.3153
 9544SOL    HW129331   4.105   7.934   3.569  0.0139 -0.1900 -0.8566
 9544SOL    HW229332   3.976   8.011   3.553  0.2482  0.4077  0.0874
 9545SOL     OW29333   1.152   7.510   4.426  0.0709  0.4164 -0.2364
 9545SOL    HW129334   1.060   7.505   4.400  0.3197 -0.6515 -0.9792
 9545SOL    HW229335   1.158   7.592   4.475 -1.1905  0.6948 -0.4929
 9546SOL     OW29336   1.861   7.488   5.838  0.3360 -0.6607  0.0069
 9546SOL    HW129337   1.845   7.401   5.876 -1.5092 -0.1638  0.4471
 9546SOL    HW229338   1.833   7.480   5.747 -0.5132 -0.3534  0.2326
 9547SOL     OW29339   7.258   4.567   5.571 -0.0860  0.2136 -0.3545
 9547SOL    HW129340   7.319   4.552   5.643 -1.2825  0.7937  0.8170
 9547SOL    HW229341   7.296   4.519   5.497  1.8948  0.7470  0.2552
 9548SOL     OW29342   1.222   5.767   7.953 -0.3173  0.2764 -0.6485
 9548SOL    HW129343   1.232   5.735   7.863  0.2383 -0.6750 -0.2625
 9548SOL    HW229344   1.146   5.720   7.987  0.5620 -0.7553 -0.0464
 9549SOL     OW29345   5.231   6.701   7.632  0.3232 -0.3041  0.0811
 9549SOL    HW129346   5.231   6.626   7.691 -0.8751  0.0494  0.5463
 9549SOL    HW229347   5.252   6.776   7.687 -1.9894  0.2082  0.3429
 9550SOL     OW29348   2.610   7.642   6.586  0.1364  0.3725 -0.3030
 9550SOL    HW129349   2.646   7.612   6.503  0.8478 -0.1329  0.1790
 9550SOL    HW229350   2.605   7.738   6.577 -0.7590  0.2389 -1.2983
 9551SOL     OW29351   0.511   6.384   4.693  0.0884  0.0606 -0.4541
 9551SOL    HW129352   0.539   6.310   4.747 -0.4560  0.5670  0.5306
 9551SOL    HW229353   0.463   6.343   4.621 -1.5202 -0.4964  0.8744
 9552SOL     OW29354   7.082   6.860   4.020 -0.4253  0.1982 -0.0998
 9552SOL    HW129355   6.989   6.845   4.007 -0.6275  1.7551 -0.7040
 9552SOL    HW229356   7.108   6.917   3.947  1.0472 -0.3684 -0.0612
 9553SOL     OW29357   6.694   5.681   4.561 -0.2476 -0.0718 -0.0717
 9553SOL    HW129358   6.612   5.721   4.591 -0.4295  0.1382 -0.8200
 9553SOL    HW229359   6.757   5.752   4.561  0.4676 -0.6269  2.3513
 9554SOL     OW29360   7.171   0.098   7.017  0.5989  0.1530 -0.0267
 9554SOL    HW129361   7.128   0.122   6.934  1.5973  1.0703 -0.2946
 9554SOL    HW229362   7.166   0.002   7.019  0.4124  0.1285 -1.0613
 9555SOL     OW29363   1.944   7.293   4.470 -0.0786  0.1886 -1.0400
 9555SOL    HW129364   2.008   7.245   4.521 -1.3362 -1.6374 -1.0677
 9555SOL    HW229365   1.989   7.314   4.388  0.8053 -0.1012 -0.6397
 9556SOL     OW29366   5.744   6.464   0.147 -0.4921 -0.0669 -0.0004
 9556SOL    HW129367   5.800   6.430   0.077 -0.3591  1.8360 -0.8649
 9556SOL    HW229368   5.784   6.432   0.227  1.6347  0.9152 -0.6125
 9557SOL     OW29369   4.187   5.750   4.721  0.3023  0.8822 -0.3125
 9557SOL    HW129370   4.221   5.692   4.789  0.2737  1.6445  0.3581
 9557SOL    HW229371   4.096   5.722   4.708  0.1024  1.1776  0.4438
 9558SOL     OW29372   6.783   2.054   5.832 -0.4288 -0.2722  0.2209
 9558SOL    HW129373   6.771   2.142   5.797 -1.4386 -0.5785 -0.2396
 9558SOL    HW229374   6.877   2.046   5.845 -0.3115  0.8136  0.1068
 9559SOL     OW29375   4.749   0.297   6.057  0.2295 -0.0138 -0.0213
 9559SOL    HW129376   4.771   0.374   6.006 -0.5989  0.9581  1.0344
 9559SOL    HW229377   4.815   0.292   6.126  1.0448 -1.0224 -0.8512
 9560SOL     OW29378   6.428   4.202   3.365 -0.3637 -0.5850 -0.1793
 9560SOL    HW129379   6.425   4.237   3.454 -2.1938  0.3526 -0.5570
 9560SOL    HW229380   6.443   4.109   3.377  0.5825 -0.3048  1.0505
 9561SOL     OW29381   0.498   2.424   2.777  0.1159  0.0319  0.2391
 9561SOL    HW129382   0.496   2.335   2.812 -2.3691 -0.3301 -0.6531
 9561SOL    HW229383   0.494   2.413   2.682 -0.8058  1.0946  0.1401
 9562SOL     OW29384   3.187   4.123   2.945 -0.4766  0.0453  0.2770
 9562SOL    HW129385   3.155   4.149   2.859 -0.0697 -0.9978 -0.2022
 9562SOL    HW229386   3.112   4.138   3.003 -0.7847  0.6698 -0.2696
 9563SOL     OW29387   5.488   2.443   3.248 -0.7935 -0.2467  0.2215
 9563SOL    HW129388   5.400   2.434   3.284 -0.8253 -2.1929 -0.2413
 9563SOL    HW229389   5.482   2.518   3.188 -1.5625  0.9663  1.7545
 9564SOL     OW29390   6.678   1.028   2.514 -0.1399 -0.0391  0.4181
 9564SOL    HW129391   6.652   0.977   2.591  0.7088 -1.7015 -0.3387
 9564SOL    HW229392   6.774   1.034   2.522 -0.0275 -0.3777 -0.5604
 9565SOL     OW29393   0.333   0.397   7.742  0.0515 -0.1074  0.3014
 9565SOL    HW129394   0.299   0.483   7.717  0.8429 -0.2463 -1.3635
 9565SOL    HW229395   0.390   0.414   7.816 -0.0500  0.7666  0.1867
 9566SOL     OW29396   6.764   4.921   4.652  0.3814  0.1536 -0.5854
 9566SOL    HW129397   6.797   4.859   4.587  0.8339  1.6571 -1.8589
 9566SOL    HW229398   6.783   5.007   4.615  0.9789  1.0889  1.7345
 9567SOL     OW29399   0.203   5.313   5.828  0.1119 -0.3615 -0.3253
 9567SOL    HW129400   0.198   5.308   5.923  0.7421  2.4008 -0.0577
 9567SOL    HW229401   0.194   5.222   5.798  0.3703 -1.3487  2.3552
 9568SOL     OW29402   4.719   0.920   7.923  0.3408  0.2324  0.5141
 9568SOL    HW129403   4.662   0.958   7.990  0.4777  1.4377 -0.0293
 9568SOL    HW229404   4.660   0.874   7.864 -0.0023  0.8573  0.3593
 9569SOL     OW29405   0.517   7.383   5.217 -0.2975 -0.8614  0.4388
 9569SOL    HW129406   0.486   7.467   5.251  1.0253 -0.5049  0.8108
 9569SOL    HW229407   0.477   7.376   5.130 -1.8048 -0.6761  1.0842
 9570SOL     OW29408   3.205   4.950   2.532 -0.3069  0.7843  0.1515
 9570SOL    HW129409   3.299   4.965   2.525  0.3813 -2.2150  1.5563
 9570SOL    HW229410   3.169   4.986   2.450  2.2860  0.3921 -1.2636
 9571SOL     OW29411   5.885   6.511   3.772  0.5278  0.1978 -0.1726
 9571SOL    HW129412   5.886   6.516   3.868  0.5726  0.2799 -0.1768
 9571SOL    HW229413   5.846   6.426   3.753  0.4604  0.2072 -0.0816
 9572SOL     OW29414   4.170   4.358   0.616  0.4254  0.0753 -0.7736
 9572SOL    HW129415   4.244   4.415   0.638 -1.6562  3.2699 -1.4161
 9572SOL    HW229416   4.174   4.349   0.521  0.8331 -1.0425 -0.6596
 9573SOL     OW29417   2.183   6.849   5.870  0.1000  0.6397  0.6986
 9573SOL    HW129418   2.249   6.887   5.812  0.0933  0.4607  0.5715
 9573SOL    HW229419   2.232   6.820   5.947  0.7463 -2.4449 -0.7074
 9574SOL     OW29420   2.169   0.817   5.380 -0.1636 -0.0337 -0.4435
 9574SOL    HW129421   2.087   0.866   5.377 -1.1743 -1.4919  1.1742
 9574SOL    HW229422   2.230   0.868   5.327 -1.6608  1.9290 -0.3859
 9575SOL     OW29423   7.763   0.712   2.169  0.1832 -0.0403 -0.5239
 9575SOL    HW129424   7.844   0.673   2.137  0.9957  0.2749  1.0832
 9575SOL    HW229425   7.787   0.755   2.251 -1.5275  0.3965 -0.2106
 9576SOL     OW29426   2.395   1.332   1.844 -0.1654  0.1287  0.4068
 9576SOL    HW129427   2.344   1.292   1.774 -2.4512  1.4125  1.2283
 9576SOL    HW229428   2.414   1.259   1.904  1.6388 -0.9374 -1.3473
 9577SOL     OW29429   6.637   5.518   1.007 -0.0535  0.0071 -0.3831
 9577SOL    HW129430   6.614   5.455   0.938 -0.0253 -2.3011  1.5926
 9577SOL    HW229431   6.586   5.490   1.083  0.7312  1.8068  0.8633
 9578SOL     OW29432   3.985   1.333   7.608 -0.2394  0.1906  0.0870
 9578SOL    HW129433   3.960   1.282   7.685 -0.1395  0.4000  0.2591
 9578SOL    HW229434   4.021   1.414   7.643 -0.6955  0.5196 -0.1902
 9579SOL     OW29435   2.064   5.824   3.705  0.5454  0.1100 -0.0480
 9579SOL    HW129436   2.113   5.772   3.641 -0.4240 -0.9120  0.0140
 9579SOL    HW229437   2.123   5.831   3.780  1.4076  0.6995 -0.7590
 9580SOL     OW29438   3.316   5.459   4.994  0.0174 -0.1784 -0.0752
 9580SOL    HW129439   3.313   5.445   5.089  2.8831 -1.5006 -0.0776
 9580SOL    HW229440   3.400   5.502   4.979  0.3705 -1.4789 -2.1403
 9581SOL     OW29441   4.420   2.178   4.390 -0.6436  0.2246  0.4515
 9581SOL    HW129442   4.433   2.186   4.484 -1.1095 -1.1398  0.6427
 9581SOL    HW229443   4.498   2.134   4.358 -1.6923 -1.8742  0.6353
 9582SOL     OW29444   7.557   7.195   5.049  0.2826  0.0853 -0.5110
 9582SOL    HW129445   7.463   7.195   5.036  0.3033  0.1866 -0.6578
 9582SOL    HW229446   7.588   7.115   5.006  0.3314  0.3367 -0.9490
 9583SOL     OW29447   4.431   0.695   0.379 -0.4189 -0.5890  0.3881
 9583SOL    HW129448   4.337   0.694   0.360  0.0325 -1.8584 -2.4451
 9583SOL    HW229449   4.454   0.788   0.381 -0.9587 -0.0272 -4.6504
 9584SOL     OW29450   0.669   1.221   5.224  0.1267 -0.2468  0.5107
 9584SOL    HW129451   0.591   1.177   5.188  1.1193 -0.8430 -1.0452
 9584SOL    HW229452   0.661   1.210   5.319 -0.3260 -2.7466  0.2630
 9585SOL     OW29453   7.141   7.430   3.671  0.0326 -0.4134  0.0945
 9585SOL    HW129454   7.159   7.458   3.581 -0.5893  1.0076  0.3798
 9585SOL    HW229455   7.071   7.489   3.701 -0.7971 -1.8176  1.0192
 9586SOL     OW29456   5.652   6.171   2.502  0.4772 -0.6556  0.3149
 9586SOL    HW129457   5.626   6.116   2.576 -0.7553 -1.6572 -0.7984
 9586SOL    HW229458   5.586   6.241   2.500  1.7179  0.6076  1.3867
 9587SOL     OW29459   5.078   4.252   1.644  0.1971  0.2303  0.2011
 9587SOL    HW129460   4.995   4.205   1.643  0.8966 -1.0892  1.0914
 9587SOL    HW229461   5.080   4.296   1.729 -0.0136  1.0818 -0.2253
 9588SOL     OW29462   0.965   2.366   4.145  0.0613 -0.6270 -0.2154
 9588SOL    HW129463   1.004   2.332   4.065 -1.0454 -1.2226 -0.5223
 9588SOL    HW229464   0.931   2.289   4.190 -1.6895 -0.0607 -0.4742
 9589SOL     OW29465   2.233   5.421   0.402  0.8045  0.0766 -0.1959
 9589SOL    HW129466   2.281   5.501   0.380  0.6271 -0.1242 -1.3384
 9589SOL    HW229467   2.176   5.406   0.327 -0.9935  0.2514  1.0569
 9590SOL     OW29468   7.475   5.327   5.791 -0.0670  0.5141 -0.1405
 9590SOL    HW129469   7.480   5.416   5.756  0.0256 -0.8370 -3.9742
 9590SOL    HW229470   7.382   5.306   5.789  0.0920 -0.1618 -1.3474
 9591SOL     OW29471   3.809   7.773   7.820 -0.0185 -0.5257  0.0395
 9591SOL    HW129472   3.825   7.722   7.900  1.0646  0.2441  0.3388
 9591SOL    HW229473   3.896   7.802   7.793 -0.3638 -0.8350 -1.4757
 9592SOL     OW29474   3.732   3.176   7.262 -0.8658  0.1822 -0.1581
 9592SOL    HW129475   3.746   3.116   7.189 -0.6712 -0.5252  0.4482
 9592SOL    HW229476   3.758   3.126   7.339 -2.1277  0.5220  0.5149
 9593SOL     OW29477   2.170   3.099   6.388 -0.5527  0.0015  0.3302
 9593SOL    HW129478   2.080   3.107   6.355 -0.7117 -0.8375  0.5487
 9593SOL    HW229479   2.208   3.027   6.339 -0.3756 -0.4080  1.0532
 9594SOL     OW29480   1.633   5.653   6.034 -0.0809  0.2001  0.0681
 9594SOL    HW129481   1.671   5.718   5.974 -0.5597 -0.0362 -0.4928
 9594SOL    HW229482   1.702   5.638   6.099  0.3718  0.5996 -0.3121
 9595SOL     OW29483   4.021   7.256   1.519  0.4621 -0.1676 -0.2855
 9595SOL    HW129484   3.932   7.234   1.492 -0.4020  1.6840  0.8165
 9595SOL    HW229485   4.045   7.187   1.581  0.3398 -1.3877 -1.5475
 9596SOL     OW29486   2.256   2.028   2.445  0.4966 -0.3295  0.9160
 9596SOL    HW129487   2.327   2.072   2.399  0.4474  0.3369  1.4614
 9596SOL    HW229488   2.298   1.986   2.520  0.4454 -0.6807  0.7495
 9597SOL     OW29489   4.995   0.014   4.404 -0.3462  0.4318  0.0099
 9597SOL    HW129490   5.017   0.048   4.317  3.5920 -0.0720  0.6190
 9597SOL    HW229491   4.991   0.091   4.460  0.7478  0.5263 -0.0199
 9598SOL     OW29492   5.625   5.416   4.032  0.4610 -0.3090  0.2748
 9598SOL    HW129493   5.625   5.320   4.033  0.1184 -0.3060  0.5953
 9598SOL    HW229494   5.602   5.441   4.121 -2.1103  0.0618 -0.4373
 9599SOL     OW29495   3.747   4.147   5.506 -0.1778 -0.2073 -0.9786
 9599SOL    HW129496   3.741   4.140   5.411 -0.6309 -0.3141 -0.9446
 9599SOL    HW229497   3.831   4.106   5.528  0.2582  0.4552 -1.3949
 9600SOL     OW29498   6.008   2.144   2.819 -0.0257 -0.7779 -0.4888
 9600SOL    HW129499   5.934   2.093   2.854 -0.7244  0.3939 -0.2014
 9600SOL    HW229500   6.017   2.112   2.729 -0.7356 -1.1047 -0.4601
 9601SOL     OW29501   7.341   3.262   1.611  0.6393  0.4965 -0.4447
 9601SOL    HW129502   7.272   3.197   1.604  0.8983  0.3986 -2.6138
 9601SOL    HW229503   7.345   3.303   1.525  1.9642  1.8796  0.2176
 9602SOL     OW29504   6.317   2.141   3.671  0.4791 -0.0803  0.5615
 9602SOL    HW129505   6.335   2.048   3.684  0.2614 -0.1349  0.4655
 9602SOL    HW229506   6.337   2.157   3.579  0.2003 -0.1036  0.4970
 9603SOL     OW29507   3.029   7.636   6.381  0.2218 -0.0137 -0.3378
 9603SOL    HW129508   3.071   7.662   6.463 -2.2866 -1.3240  1.4820
 9603SOL    HW229509   3.060   7.547   6.366  0.6709  0.2222 -0.8192
 9604SOL     OW29510   1.506   3.125   4.684  0.2773  0.2569  0.1980
 9604SOL    HW129511   1.435   3.062   4.681  0.6197 -0.1224 -2.5255
 9604SOL    HW229512   1.583   3.073   4.707  0.0684  0.2663  0.9460
 9605SOL     OW29513   1.696   3.812   7.357 -0.7879 -0.1428  0.6241
 9605SOL    HW129514   1.669   3.901   7.336  0.2304 -0.4260 -2.4630
 9605SOL    HW229515   1.756   3.822   7.431  0.9998  2.1097 -0.9539
 9606SOL     OW29516   2.250   6.966   0.133  0.2669 -0.2789 -0.7272
 9606SOL    HW129517   2.242   6.896   0.067 -2.1062 -1.1002  0.3134
 9606SOL    HW229518   2.190   7.034   0.104  1.8010  0.9523 -1.1789
 9607SOL     OW29519   1.729   4.191   3.557  0.0527 -0.1930  0.3714
 9607SOL    HW129520   1.797   4.168   3.620 -0.1129  2.1949  1.5354
 9607SOL    HW229521   1.690   4.107   3.532  0.4331 -1.2938  3.1148
 9608SOL     OW29522   3.231   6.798   0.568  0.1777 -0.3647 -0.0107
 9608SOL    HW129523   3.170   6.729   0.595 -1.1548 -0.1777 -2.3101
 9608SOL    HW229524   3.184   6.846   0.500  2.3762  0.6975 -0.8644
 9609SOL     OW29525   3.761   0.630   0.960 -0.3545  0.0039  0.0089
 9609SOL    HW129526   3.837   0.592   1.006 -1.6265 -1.6395  0.8550
 9609SOL    HW229527   3.692   0.564   0.969 -1.3455  0.6209 -2.3854
 9610SOL     OW29528   6.105   5.065   4.002  0.4105  0.2954  0.2436
 9610SOL    HW129529   6.106   4.998   3.934  1.4659 -2.9527  3.1409
 9610SOL    HW229530   6.021   5.054   4.046  1.3116 -0.5112  1.8744
 9611SOL     OW29531   0.640   3.612   5.158  0.0231  0.3223  0.0673
 9611SOL    HW129532   0.672   3.696   5.126  0.4196 -0.3336 -1.3423
 9611SOL    HW229533   0.699   3.590   5.231  1.8184 -0.0847 -1.4186
 9612SOL     OW29534   2.777   3.874   3.543 -0.1091 -0.0985 -0.4557
 9612SOL    HW129535   2.748   3.825   3.467  0.1352 -0.1086 -0.5430
 9612SOL    HW229536   2.856   3.829   3.573 -1.2444 -1.2559  0.9495
 9613SOL     OW29537   3.790   0.903   7.492 -0.6301  0.6804 -0.2735
 9613SOL    HW129538   3.854   0.835   7.512 -0.3684  0.3542 -2.0530
 9613SOL    HW229539   3.840   0.984   7.488 -1.0984  1.2309  2.8705
 9614SOL     OW29540   7.922   1.329   6.173 -0.1164 -0.4315  0.3816
 9614SOL    HW129541   7.844   1.381   6.153  1.2424  1.6101  0.0555
 9614SOL    HW229542   7.892   1.263   6.236 -1.9048  0.9161  1.0170
 9615SOL     OW29543   2.977   3.057   7.225  0.0243  0.3091 -0.1208
 9615SOL    HW129544   2.955   2.967   7.249  0.3514  0.3766  0.4531
 9615SOL    HW229545   3.015   3.095   7.305 -0.0673  0.9418 -0.3658
 9616SOL     OW29546   2.198   0.838   2.697  0.1247  0.3395 -0.1804
 9616SOL    HW129547   2.218   0.863   2.787 -0.3002  0.0010  0.0127
 9616SOL    HW229548   2.207   0.743   2.695  1.1672  0.4394 -0.7675
 9617SOL     OW29549   0.159   4.508   6.652  1.1592  0.5224  0.1549
 9617SOL    HW129550   0.124   4.597   6.648  1.2475  0.6732  1.8812
 9617SOL    HW229551   0.082   4.452   6.660  1.1676  0.6458  1.2983
 9618SOL     OW29552   4.622   2.115   2.626  0.3646 -0.8225  0.1689
 9618SOL    HW129553   4.555   2.176   2.595 -0.0186  1.1697  4.2711
 9618SOL    HW229554   4.689   2.117   2.558 -1.2705  1.3878 -1.5500
 9619SOL     OW29555   1.055   6.818   7.833 -0.3752 -0.3916  0.4028
 9619SOL    HW129556   0.993   6.842   7.764  0.0589  0.5798  0.3370
 9619SOL    HW229557   1.065   6.898   7.885 -0.3057 -0.9700  1.2904
 9620SOL     OW29558   5.981   2.335   4.626  0.3609  0.1369  0.3347
 9620SOL    HW129559   5.945   2.276   4.693  1.1549 -2.0040 -1.0158
 9620SOL    HW229560   5.905   2.382   4.594 -0.4886 -0.8431  0.8180
 9621SOL     OW29561   2.818   2.073   1.713 -0.7468  0.2890  0.7125
 9621SOL    HW129562   2.783   2.007   1.773 -0.6342 -0.9654 -0.5431
 9621SOL    HW229563   2.890   2.029   1.667 -1.8285  0.6247 -1.4724
 9622SOL     OW29564   7.644   0.513   2.676 -0.4350 -0.1429  0.4787
 9622SOL    HW129565   7.724   0.467   2.653 -0.4216 -0.5061  1.2412
 9622SOL    HW229566   7.654   0.534   2.769 -0.9934  0.2783  0.4482
 9623SOL     OW29567   1.703   5.604   2.730 -0.2951 -0.1065 -0.5798
 9623SOL    HW129568   1.753   5.556   2.665 -1.9070  0.7933 -2.6053
 9623SOL    HW229569   1.700   5.546   2.806 -0.3547 -2.2910 -2.1496
 9624SOL     OW29570   1.426   0.013   6.575  1.3517  0.1585  0.5413
 9624SOL    HW129571   1.413   0.032   6.668  1.0705  0.1334  0.5098
 9624SOL    HW229572   1.386   0.087   6.530  0.6135 -0.2974  0.4246
 9625SOL     OW29573   1.487   4.131   2.450  0.0588 -0.1675  0.1025
 9625SOL    HW129574   1.439   4.134   2.533 -1.1191  1.2987 -0.5823
 9625SOL    HW229575   1.424   4.161   2.385  0.9963 -1.1925 -1.3301
 9626SOL     OW29576   3.449   6.467   7.525 -0.0900 -0.1534  0.2200
 9626SOL    HW129577   3.517   6.426   7.578 -1.0072 -0.9141  0.8290
 9626SOL    HW229578   3.394   6.395   7.495 -1.0234  0.5054  0.3040
 9627SOL     OW29579   2.942   0.746   6.338 -0.7067 -0.2084 -0.1858
 9627SOL    HW129580   3.027   0.749   6.294  0.1290 -2.0864  1.1306
 9627SOL    HW229581   2.962   0.766   6.430 -2.2058  2.3685 -0.3238
 9628SOL     OW29582   6.347   3.841   4.612 -0.0061  0.9383  0.0793
 9628SOL    HW129583   6.427   3.817   4.659 -0.0015  0.3684 -0.2111
 9628SOL    HW229584   6.367   3.825   4.520 -0.6090  0.3261  0.0487
 9629SOL     OW29585   1.185   6.682   0.220 -0.0704  0.1900  0.2819
 9629SOL    HW129586   1.183   6.647   0.309  0.1095 -2.2017 -0.5848
 9629SOL    HW229587   1.258   6.745   0.221 -1.1730  1.5402  2.2264
 9630SOL     OW29588   4.959   0.642   4.282 -0.4363 -0.5652  0.3222
 9630SOL    HW129589   4.994   0.731   4.275  1.8297 -1.4115  0.0354
 9630SOL    HW229590   4.934   0.634   4.375 -0.3309  0.2456  0.4292
 9631SOL     OW29591   6.665   6.711   1.325  0.1149 -0.1637 -0.0155
 9631SOL    HW129592   6.657   6.748   1.413 -0.4746  1.3169 -0.6603
 9631SOL    HW229593   6.742   6.754   1.288 -1.6346  1.9589 -1.4385
 9632SOL     OW29594   7.349   0.240   1.771  0.0894  0.0346  0.1383
 9632SOL    HW129595   7.413   0.173   1.794 -1.0795 -1.0181  0.4205
 9632SOL    HW229596   7.381   0.319   1.814  1.6829 -0.2313 -0.4913
 9633SOL     OW29597   1.020   7.077   7.450  0.0124 -0.1671  0.5580
 9633SOL    HW129598   0.964   7.074   7.528 -0.0093  0.5917  0.5740
 9633SOL    HW229599   0.991   7.155   7.403  0.1044 -0.5568 -0.1523
 9634SOL     OW29600   5.181   6.458   7.768 -0.2517  0.2713 -0.3933
 9634SOL    HW129601   5.189   6.430   7.676  0.7660 -0.0032 -0.2345
 9634SOL    HW229602   5.087   6.460   7.784 -0.5040  1.5596 -1.8259
 9635SOL     OW29603   1.533   5.030   3.170 -0.2243  0.5037 -0.2214
 9635SOL    HW129604   1.487   5.106   3.133  1.1370  0.7556 -1.5042
 9635SOL    HW229605   1.604   5.068   3.221 -0.4353  0.1068  0.3722
 9636SOL     OW29606   4.015   5.489   7.686  0.3537 -0.2043 -0.6522
 9636SOL    HW129607   3.957   5.422   7.650  0.1728 -1.1955  1.3317
 9636SOL    HW229608   4.101   5.448   7.687  0.7588  0.5696 -1.8092
 9637SOL     OW29609   1.260   4.758   7.653 -0.2482 -0.2030 -0.4304
 9637SOL    HW129610   1.287   4.850   7.657 -1.5258  0.1478  1.8119
 9637SOL    HW229611   1.338   4.710   7.683 -0.9596  0.6032  3.2533
 9638SOL     OW29612   4.647   0.828   3.616 -0.6725  0.4911  0.3268
 9638SOL    HW129613   4.577   0.893   3.613 -1.1904 -0.0195  0.8553
 9638SOL    HW229614   4.708   0.862   3.681  1.3665  2.6338 -2.4922
 9639SOL     OW29615   5.654   7.493   5.485  0.0220  0.1210  0.1041
 9639SOL    HW129616   5.661   7.499   5.390 -2.2423 -0.9470 -0.1729
 9639SOL    HW229617   5.687   7.578   5.516  0.2771  0.7061 -1.6439
 9640SOL     OW29618   7.354   6.850   4.135 -0.0515  0.5604  0.7328
 9640SOL    HW129619   7.264   6.822   4.117 -0.4888  1.2997  1.6804
 9640SOL    HW229620   7.353   6.876   4.227  1.1616  0.4934  0.7750
 9641SOL     OW29621   3.254   7.161   1.485 -0.1397  0.2013  0.7694
 9641SOL    HW129622   3.259   7.257   1.480 -1.2249  0.2059 -0.4193
 9641SOL    HW229623   3.221   7.144   1.573  1.5235  0.8294  1.5768
 9642SOL     OW29624   3.972   1.220   1.013 -0.1935  0.4933  0.3224
 9642SOL    HW129625   3.932   1.305   1.035 -0.2924  0.1394  1.6279
 9642SOL    HW229626   3.999   1.185   1.098  0.0931 -0.6588 -0.2367
 9643SOL     OW29627   2.322   2.694   2.401 -0.0451 -0.6049  0.2698
 9643SOL    HW129628   2.382   2.705   2.328 -0.7235 -1.4140 -0.4271
 9643SOL    HW229629   2.299   2.784   2.427 -0.4653 -0.3027 -1.0764
 9644SOL     OW29630   5.613   3.385   0.888  0.0373  0.3034  0.2972
 9644SOL    HW129631   5.586   3.396   0.979 -0.4466 -1.1290  0.3495
 9644SOL    HW229632   5.596   3.293   0.869  0.6263  0.4601 -1.0870
 9645SOL     OW29633   5.683   3.192   1.202  0.2118  0.6825  0.1218
 9645SOL    HW129634   5.611   3.255   1.194  0.1658  0.7318  0.9077
 9645SOL    HW229635   5.687   3.171   1.295 -1.0056 -1.9160 -0.3150
 9646SOL     OW29636   5.799   6.984   7.781  0.5446  0.2013 -0.4242
 9646SOL    HW129637   5.827   6.939   7.860  0.2382  0.3810 -0.2088
 9646SOL    HW229638   5.847   6.942   7.710  0.0624 -0.6400 -0.2622
 9647SOL     OW29639   7.690   4.206   3.254 -0.1495  0.2906 -0.0331
 9647SOL    HW129640   7.662   4.233   3.342 -2.2513 -0.0495 -0.5524
 9647SOL    HW229641   7.737   4.124   3.268  2.8449  2.0074  1.1184
 9648SOL     OW29642   7.008   6.146   6.387 -0.1031 -0.6629  0.9773
 9648SOL    HW129643   6.932   6.105   6.429 -1.8524  0.8821 -0.5154
 9648SOL    HW229644   6.980   6.236   6.370  1.7590 -0.2976 -0.4185
 9649SOL     OW29645   1.215   0.496   6.723 -0.4064  0.1080 -0.4519
 9649SOL    HW129646   1.182   0.538   6.643  0.2790  1.3382 -0.1116
 9649SOL    HW229647   1.309   0.485   6.708  0.1978  2.4971  1.0341
 9650SOL     OW29648   6.649   2.161   6.206 -0.6542 -0.0114 -0.2729
 9650SOL    HW129649   6.632   2.249   6.174 -0.1189  0.0290 -0.4605
 9650SOL    HW229650   6.583   2.106   6.165 -0.4666  0.1688 -0.8158
 9651SOL     OW29651   1.841   2.793   3.821 -0.3520 -0.0476 -0.1124
 9651SOL    HW129652   1.767   2.773   3.764 -0.1522 -0.5649 -0.1922
 9651SOL    HW229653   1.873   2.708   3.850  0.2559  0.1710 -0.1319
 9652SOL     OW29654   0.434   0.828   5.668  0.6301 -0.1408 -0.1869
 9652SOL    HW129655   0.443   0.905   5.724 -1.1992 -0.9284  1.3230
 9652SOL    HW229656   0.471   0.756   5.720  0.1309 -0.6689 -0.5449
 9653SOL     OW29657   7.816   2.926   6.759 -0.3579 -0.3612 -0.1754
 9653SOL    HW129658   7.768   2.975   6.826  0.4880  0.2814 -0.0363
 9653SOL    HW229659   7.848   2.992   6.699 -0.2780 -0.8580 -0.6851
 9654SOL     OW29660   1.160   6.297   1.970 -0.7699  0.0478  0.2555
 9654SOL    HW129661   1.155   6.286   2.065  3.2592  1.4754  0.8077
 9654SOL    HW229662   1.163   6.207   1.936  0.2779 -0.5120  1.7290
 9655SOL     OW29663   1.675   6.852   7.799  0.0196  0.4584 -0.4156
 9655SOL    HW129664   1.583   6.881   7.806 -0.0722  0.1217 -0.2380
 9655SOL    HW229665   1.708   6.856   7.889  1.1950  3.8454 -0.8270
 9656SOL     OW29666   5.407   5.486   6.832 -0.1486 -0.0701  0.1145
 9656SOL    HW129667   5.382   5.560   6.887 -3.0571 -1.1019  0.3718
 9656SOL    HW229668   5.475   5.440   6.882 -1.5081 -0.0288  2.1143
 9657SOL     OW29669   4.397   6.011   4.057 -0.0208 -0.1148 -0.0542
 9657SOL    HW129670   4.471   6.038   4.001 -0.1297 -0.1254 -0.2051
 9657SOL    HW229671   4.340   5.962   3.998  0.6203 -1.4815  0.4158
 9658SOL     OW29672   7.772   3.693   6.718  0.6338 -0.4094 -0.3611
 9658SOL    HW129673   7.849   3.721   6.670  1.5336 -0.1371  1.1717
 9658SOL    HW229674   7.705   3.759   6.697  1.2074  0.0709 -0.7065
 9659SOL     OW29675   7.042   2.293   7.151  0.2458  0.6080 -0.1166
 9659SOL    HW129676   7.001   2.308   7.237 -0.0826  0.7816 -0.2983
 9659SOL    HW229677   6.989   2.346   7.091 -0.0867 -0.2295 -0.5708
 9660SOL     OW29678   7.797   1.188   7.386 -0.4205  0.0868  0.1042
 9660SOL    HW129679   7.848   1.207   7.464 -1.6735  0.4918  0.8572
 9660SOL    HW229680   7.839   1.239   7.316  0.7783 -0.3739  0.4680
 9661SOL     OW29681   3.154   6.396   1.672 -0.2947  0.3859 -0.0859
 9661SOL    HW129682   3.077   6.440   1.637 -0.0281  1.2254  0.3594
 9661SOL    HW229683   3.158   6.422   1.764  1.6891  2.1579 -0.5738
 9662SOL     OW29684   7.327   2.678   3.038 -0.3124 -0.2609 -0.5025
 9662SOL    HW129685   7.349   2.627   2.960 -2.3048 -0.9064 -0.6929
 9662SOL    HW229686   7.360   2.624   3.111 -0.7620 -0.9217 -0.7846
 9663SOL     OW29687   0.991   3.831   4.237  0.1810 -0.2182  0.1875
 9663SOL    HW129688   1.060   3.837   4.170  0.8317  0.0931  0.8655
 9663SOL    HW229689   0.916   3.794   4.191  0.8938 -0.8482 -0.5041
 9664SOL     OW29690   0.810   0.499   0.777  0.2575 -0.7251  0.0772
 9664SOL    HW129691   0.747   0.430   0.756 -0.3317 -0.8820  2.0814
 9664SOL    HW229692   0.871   0.456   0.838  0.7791  0.1161  0.1569
 9665SOL     OW29693   4.087   4.726   6.159  0.1766  0.2858  0.3824
 9665SOL    HW129694   4.117   4.635   6.165 -0.2005  0.1778  0.6650
 9665SOL    HW229695   4.007   4.722   6.107 -0.0903  0.3938  0.7796
 9666SOL     OW29696   3.541   5.088   6.860  0.0554  0.0797 -0.5874
 9666SOL    HW129697   3.474   5.020   6.867 -0.5598  0.7978  1.1729
 9666SOL    HW229698   3.513   5.143   6.786 -0.3947 -0.5622 -0.8989
 9667SOL     OW29699   0.344   1.910   6.191  0.2032 -0.1944  0.2851
 9667SOL    HW129700   0.379   1.821   6.189 -0.4985 -0.5045  1.0869
 9667SOL    HW229701   0.282   1.909   6.264 -0.7018  0.6209 -0.4596
 9668SOL     OW29702   2.262   6.800   7.876  0.5758  0.2290  0.2422
 9668SOL    HW129703   2.302   6.870   7.825 -1.1464  1.8515  0.9926
 9668SOL    HW229704   2.223   6.742   7.810  1.6537  0.1783 -0.3773
 9669SOL     OW29705   2.047   6.267   6.935  0.3410 -0.5449 -0.0421
 9669SOL    HW129706   1.982   6.211   6.894  0.9492 -1.3562  0.0720
 9669SOL    HW229707   1.996   6.326   6.991 -0.4303  0.0969 -1.3752
 9670SOL     OW29708   2.659   7.696   4.423 -0.6718 -0.3462  0.5933
 9670SOL    HW129709   2.752   7.693   4.442 -0.5760  0.3251  0.2836
 9670SOL    HW229710   2.644   7.625   4.361  0.0458  0.8017 -0.9783
 9671SOL     OW29711   3.281   2.379   7.131  0.8530  0.0767 -0.2188
 9671SOL    HW129712   3.280   2.466   7.170 -2.4696  0.9071 -1.8183
 9671SOL    HW229713   3.244   2.390   7.044 -0.4744 -3.0181 -0.1988
 9672SOL     OW29714   7.443   4.360   6.056 -0.4903  0.1281  0.0418
 9672SOL    HW129715   7.518   4.301   6.060 -2.1821 -2.1669  0.3015
 9672SOL    HW229716   7.443   4.405   6.140 -0.0202 -0.6849  0.4938
 9673SOL     OW29717   4.476   5.056   2.224 -0.1539 -0.4113  0.0556
 9673SOL    HW129718   4.441   5.113   2.292 -1.7280 -0.5202 -0.6325
 9673SOL    HW229719   4.532   5.112   2.171 -1.0458  0.2939 -0.1407
 9674SOL     OW29720   4.440   2.257   1.399  0.1327  0.5284  0.2195
 9674SOL    HW129721   4.428   2.219   1.486 -1.6990  2.1856  0.7627
 9674SOL    HW229722   4.379   2.209   1.344 -0.3862  0.9972  0.3735
 9675SOL     OW29723   2.903   2.695   1.366  0.1729 -0.1282  0.7961
 9675SOL    HW129724   2.882   2.627   1.303  0.1881 -0.5842  1.2780
 9675SOL    HW229725   2.821   2.712   1.412 -0.2387  1.3318 -0.4037
 9676SOL     OW29726   6.776   2.860   2.499  0.3160  0.1454  0.8421
 9676SOL    HW129727   6.706   2.831   2.558 -0.3787  0.6242  0.2817
 9676SOL    HW229728   6.743   2.839   2.411  1.0270  0.0759  0.5870
 9677SOL     OW29729   1.062   0.243   6.683  0.2516  0.1282  0.3316
 9677SOL    HW129730   1.119   0.318   6.671  1.6547 -0.7431  1.2055
 9677SOL    HW229731   1.036   0.218   6.595  1.6460  0.2527 -0.1389
 9678SOL     OW29732   5.681   5.367   5.395  0.2060 -0.0892 -0.5435
 9678SOL    HW129733   5.681   5.458   5.364  3.2639  0.5174  0.8408
 9678SOL    HW229734   5.707   5.373   5.487 -1.4431 -2.2851  0.1478
 9679SOL     OW29735   3.770   7.210   1.703 -0.1140 -0.6087 -0.0366
 9679SOL    HW129736   3.725   7.294   1.691 -1.2979 -1.4030 -1.4545
 9679SOL    HW229737   3.700   7.149   1.724  0.5938 -1.4558 -0.1139
 9680SOL     OW29738   4.904   6.824   0.956 -0.5655 -0.3673  0.0389
 9680SOL    HW129739   4.823   6.869   0.979 -0.1353 -0.1583  1.2189
 9680SOL    HW229740   4.970   6.894   0.955  0.2753 -0.9969  2.7086
 9681SOL     OW29741   3.709   5.576   1.878  0.8242 -0.1327  0.3484
 9681SOL    HW129742   3.662   5.594   1.797  0.3139  0.6619  0.8003
 9681SOL    HW229743   3.695   5.654   1.932  1.1672 -0.6334  1.1958
 9682SOL     OW29744   3.823   4.019   3.432  0.3913  0.7669 -0.0048
 9682SOL    HW129745   3.865   3.934   3.422  0.3681  1.0083 -2.6921
 9682SOL    HW229746   3.732   3.998   3.455  0.8476  0.1655  1.3879
 9683SOL     OW29747   5.186   6.966   6.156 -0.0206 -0.1527 -0.0542
 9683SOL    HW129748   5.138   7.020   6.093  1.0015  0.3077 -0.4689
 9683SOL    HW229749   5.118   6.920   6.205 -0.8379 -1.4508 -2.2741
 9684SOL     OW29750   2.536   1.066   1.295 -0.3304 -0.2621 -0.5309
 9684SOL    HW129751   2.531   1.014   1.215  1.1470 -2.9572  0.9806
 9684SOL    HW229752   2.622   1.046   1.331 -0.1334  2.4566  0.7809
 9685SOL     OW29753   5.879   5.022   1.442 -0.1357  0.1966 -0.4361
 9685SOL    HW129754   5.805   4.968   1.414 -0.6332  1.3593 -1.5273
 9685SOL    HW229755   5.856   5.050   1.530 -0.6674 -0.0376 -0.4942
 9686SOL     OW29756   5.533   1.793   0.199 -0.1210  0.3830  0.0226
 9686SOL    HW129757   5.542   1.704   0.234  1.8387  0.5429  0.0204
 9686SOL    HW229758   5.462   1.787   0.136  1.3838 -1.7142 -1.5971
 9687SOL     OW29759   2.898   7.526   2.780 -0.3810 -0.0548 -0.0513
 9687SOL    HW129760   2.953   7.476   2.719  0.9319  1.2989 -0.0482
 9687SOL    HW229761   2.931   7.615   2.773 -1.2258  0.4081  1.5396
 9688SOL     OW29762   6.115   6.803   4.659 -0.5746  0.0849  0.1572
 9688SOL    HW129763   6.060   6.876   4.687 -1.2496 -0.4383  0.2323
 9688SOL    HW229764   6.107   6.802   4.563  0.3386  0.7979  0.0653
 9689SOL     OW29765   7.756   7.138   1.863 -0.2065  0.0976  0.1024
 9689SOL    HW129766   7.668   7.115   1.835 -0.1994 -1.1150  0.9856
 9689SOL    HW229767   7.776   7.076   1.933  2.2498 -1.2412 -1.6504
 9690SOL     OW29768   6.916   6.271   3.161  0.1871  0.4144 -0.2733
 9690SOL    HW129769   7.004   6.307   3.146  0.8565 -0.9479  0.2218
 9690SOL    HW229770   6.917   6.186   3.117 -0.9220  0.4155 -0.3262
 9691SOL     OW29771   2.769   3.445   2.200  0.2157  0.7122 -0.0363
 9691SOL    HW129772   2.811   3.365   2.232 -0.0575  0.9936  1.0981
 9691SOL    HW229773   2.827   3.516   2.227  0.3431  0.9211 -0.8364
 9692SOL     OW29774   3.922   2.229   2.743 -0.4799  0.1756  0.3633
 9692SOL    HW129775   3.896   2.306   2.793  0.6768 -0.7268  2.4931
 9692SOL    HW229776   4.017   2.223   2.757 -0.5258 -1.5424  0.1306
 9693SOL     OW29777   5.087   2.690   3.604 -0.0283  0.6658 -0.0452
 9693SOL    HW129778   5.007   2.687   3.656 -0.0157  1.6310  0.0506
 9693SOL    HW229779   5.056   2.695   3.513 -0.0662  0.3832 -0.0489
 9694SOL     OW29780   3.415   0.743   6.132 -0.1447 -0.6482  0.2782
 9694SOL    HW129781   3.497   0.791   6.146 -0.3038 -0.2961  0.0305
 9694SOL    HW229782   3.377   0.735   6.220 -0.9440  1.2089  0.1594
 9695SOL     OW29783   3.687   7.442   4.093  0.2722  0.2924  0.0071
 9695SOL    HW129784   3.753   7.431   4.025  0.8127 -3.3384  0.9043
 9695SOL    HW229785   3.662   7.535   4.088  1.1229  0.4889 -4.2667
 9696SOL     OW29786   1.308   4.539   0.237 -0.3361 -0.0540  0.3973
 9696SOL    HW129787   1.321   4.499   0.324  1.9261  0.7353  0.4885
 9696SOL    HW229788   1.213   4.544   0.227 -0.6901  0.3800  3.1117
 9697SOL     OW29789   2.018   5.890   4.834  0.0385  0.5457 -0.3714
 9697SOL    HW129790   2.041   5.837   4.758  0.7150  1.4243 -0.7999
 9697SOL    HW229791   1.924   5.878   4.845  0.0273  0.0181 -1.0423
 9698SOL     OW29792   1.375   2.325   5.376  0.1504  0.1702  0.3366
 9698SOL    HW129793   1.427   2.401   5.403  1.7209 -1.2884  1.7227
 9698SOL    HW229794   1.284   2.357   5.376  0.7403  2.0068  0.9467
 9699SOL     OW29795   4.750   1.679   0.207 -0.7306  0.5077 -0.1718
 9699SOL    HW129796   4.834   1.725   0.204  0.0431 -0.8683 -3.0610
 9699SOL    HW229797   4.684   1.748   0.212  0.4954  1.7728 -1.0340
 9700SOL     OW29798   4.957   7.646   5.178  0.6147  0.9478 -0.5791
 9700SOL    HW129799   4.871   7.624   5.215  1.9462  0.0708  2.2458
 9700SOL    HW229800   4.983   7.568   5.129  0.7096  0.3739  0.3691
 9701SOL     OW29801   0.581   4.520   2.538  0.1105 -0.8115 -0.4568
 9701SOL    HW129802   0.512   4.566   2.490  1.9395  0.9176 -1.6054
 9701SOL    HW229803   0.620   4.460   2.473  0.3345 -1.0353 -0.1196
 9702SOL     OW29804   3.528   3.583   5.857  0.1832 -0.2567  0.7652
 9702SOL    HW129805   3.466   3.650   5.888 -1.2811 -0.5866 -1.2512
 9702SOL    HW229806   3.534   3.598   5.762  1.1501 -1.9409  0.5221
 9703SOL     OW29807   2.442   0.705   7.095  0.1012 -0.2243 -0.5226
 9703SOL    HW129808   2.386   0.755   7.036 -1.3806 -1.4403 -0.2197
 9703SOL    HW229809   2.426   0.742   7.182 -0.6707 -0.9079 -0.3600
 9704SOL     OW29810   7.646   1.512   7.676  0.4598 -0.2368  0.3801
 9704SOL    HW129811   7.723   1.474   7.717  1.4808  1.3014  0.0109
 9704SOL    HW229812   7.682   1.570   7.609 -1.0496  0.1059 -0.1702
 9705SOL     OW29813   1.200   4.860   3.769 -0.0749 -0.8932  0.1124
 9705SOL    HW129814   1.170   4.816   3.849 -2.4746 -1.0556 -0.7861
 9705SOL    HW229815   1.268   4.803   3.734  1.4232 -0.5575  2.2484
 9706SOL     OW29816   4.091   6.319   7.621 -0.2718 -0.1534  0.6860
 9706SOL    HW129817   4.022   6.385   7.631 -1.2645 -0.7298 -1.6390
 9706SOL    HW229818   4.060   6.263   7.549  0.9825 -2.6053  1.9410
 9707SOL     OW29819   4.415   2.589   4.354  0.0230 -0.5639  0.1913
 9707SOL    HW129820   4.334   2.580   4.404  0.1161 -0.2447  0.4002
 9707SOL    HW229821   4.483   2.553   4.411  0.1416 -0.1201  0.3337
 9708SOL     OW29822   4.607   2.400   2.054  0.2027 -0.6155  0.3924
 9708SOL    HW129823   4.534   2.447   2.014  2.4689  1.6311 -1.5196
 9708SOL    HW229824   4.631   2.454   2.130 -1.0678 -2.2367  2.0087
 9709SOL     OW29825   6.593   1.389   5.412 -0.0736  0.2622 -0.3481
 9709SOL    HW129826   6.538   1.459   5.447  1.9672  1.4755  0.6444
 9709SOL    HW229827   6.680   1.429   5.405  0.9328 -1.8807 -0.7774
 9710SOL     OW29828   2.819   5.928   3.865 -0.4306 -0.6906  0.0847
 9710SOL    HW129829   2.857   5.969   3.787  0.2492 -1.3439  0.0663
 9710SOL    HW229830   2.856   5.978   3.938 -1.3035  0.1204  0.0035
 9711SOL     OW29831   5.646   7.798   4.805 -0.1456 -0.2129  0.1347
 9711SOL    HW129832   5.724   7.780   4.856  0.5174  0.0876 -0.7557
 9711SOL    HW229833   5.660   7.885   4.768 -0.1750 -0.7957 -1.3288
 9712SOL     OW29834   0.558   2.057   0.672 -0.2033  0.1723  0.2423
 9712SOL    HW129835   0.545   2.145   0.708  0.7020 -0.0015  1.0180
 9712SOL    HW229836   0.652   2.041   0.681 -0.6326 -1.6579  1.9721
 9713SOL     OW29837   5.198   3.358   1.062 -0.1270 -0.1522  0.0364
 9713SOL    HW129838   5.171   3.441   1.100  0.0303 -0.6999  1.4186
 9713SOL    HW229839   5.129   3.296   1.089  0.3419 -0.6899  0.0155
 9714SOL     OW29840   1.016   5.596   7.976 -0.4277  0.0522  0.0705
 9714SOL    HW129841   0.929   5.619   7.944 -0.4064 -0.4475 -0.3517
 9714SOL    HW229842   1.031   5.507   7.945 -0.2694 -0.3302  1.2024
 9715SOL     OW29843   7.910   3.265   2.806  0.5685 -0.0877  0.7453
 9715SOL    HW129844   7.827   3.292   2.843  0.9588  0.2553  1.3908
 9715SOL    HW229845   7.908   3.297   2.715 -1.1494 -2.4900 -0.1645
 9716SOL     OW29846   4.576   6.443   3.632  0.3193  0.4553 -0.2881
 9716SOL    HW129847   4.512   6.381   3.667  0.7486  0.8430  1.2602
 9716SOL    HW229848   4.592   6.504   3.704  1.4238  1.1694 -1.1058
 9717SOL     OW29849   6.586   0.873   1.567  0.0014 -0.1172 -0.2662
 9717SOL    HW129850   6.655   0.807   1.560 -1.5778 -1.7524 -1.3655
 9717SOL    HW229851   6.524   0.838   1.630 -0.4313  0.7429 -0.1938
 9718SOL     OW29852   3.639   2.189   5.781 -0.1241 -0.4860 -0.4034
 9718SOL    HW129853   3.592   2.267   5.752  0.0671  0.2669  1.2082
 9718SOL    HW229854   3.570   2.126   5.804 -0.5171  0.9624  2.9149
 9719SOL     OW29855   6.709   2.773   3.257 -0.8183 -0.1762  0.4408
 9719SOL    HW129856   6.691   2.860   3.293  0.7066  0.2135  0.3052
 9719SOL    HW229857   6.794   2.749   3.294 -0.5938 -1.0310 -0.5901
 9720SOL     OW29858   3.397   4.417   2.186  0.2780 -0.4035  0.5861
 9720SOL    HW129859   3.437   4.497   2.152 -0.7047  1.2025  2.9686
 9720SOL    HW229860   3.358   4.375   2.110 -0.9656  2.4631 -0.4671
 9721SOL     OW29861   5.294   3.994   1.247  0.8559  0.0092 -0.0515
 9721SOL    HW129862   5.259   4.007   1.335 -0.4356  0.2346 -0.5676
 9721SOL    HW229863   5.225   3.946   1.201  1.9876 -1.1352 -0.6258
 9722SOL     OW29864   1.890   6.552   3.796  0.6524 -0.4816 -0.1602
 9722SOL    HW129865   1.893   6.462   3.828  0.6359  0.1228  1.6276
 9722SOL    HW229866   1.937   6.603   3.862 -0.6061  1.0294 -0.3823
 9723SOL     OW29867   3.816   0.179   5.060  0.4527  0.4019  0.3654
 9723SOL    HW129868   3.732   0.145   5.030  0.3389  0.2022  0.8913
 9723SOL    HW229869   3.866   0.195   4.980 -1.3215  3.9095 -0.2060
 9724SOL     OW29870   5.416   4.445   1.139 -0.0734  0.1993 -0.3238
 9724SOL    HW129871   5.412   4.358   1.099  2.8854  0.3106 -1.0327
 9724SOL    HW229872   5.388   4.430   1.230 -0.9559 -1.1910 -0.7791
 9725SOL     OW29873   5.381   1.499   5.867  0.3624 -0.5493  1.1664
 9725SOL    HW129874   5.326   1.575   5.848 -0.7099 -1.3087  1.1441
 9725SOL    HW229875   5.322   1.425   5.860  1.3145 -1.3609  1.5529
 9726SOL     OW29876   0.633   1.337   4.454 -0.4657  0.1657 -0.1016
 9726SOL    HW129877   0.693   1.369   4.522 -0.2229  1.1388 -0.7609
 9726SOL    HW229878   0.621   1.411   4.395  0.6104 -1.1128 -2.0450
 9727SOL     OW29879   5.827   0.455   4.124 -0.1626 -0.4835  0.3034
 9727SOL    HW129880   5.820   0.364   4.098  1.9843 -0.3936 -0.7748
 9727SOL    HW229881   5.794   0.504   4.049  0.2074 -0.3431  0.2309
 9728SOL     OW29882   3.159   3.229   4.266 -0.2249 -0.1230  0.4393
 9728SOL    HW129883   3.230   3.181   4.222 -1.4879 -1.1696 -0.5417
 9728SOL    HW229884   3.123   3.287   4.199 -0.8090 -0.1810  0.6927
 9729SOL     OW29885   0.681   5.061   4.848 -0.1400 -0.4645 -0.1856
 9729SOL    HW129886   0.662   4.974   4.882  2.9927 -1.2787 -0.1955
 9729SOL    HW229887   0.712   5.110   4.924  1.2357 -0.4388 -0.7298
 9730SOL     OW29888   6.414   1.352   7.314  0.6020  0.1228 -0.3482
 9730SOL    HW129889   6.353   1.366   7.386 -0.6038 -2.0845 -0.8642
 9730SOL    HW229890   6.501   1.359   7.355  0.0399  2.2042  0.6124
 9731SOL     OW29891   3.746   6.621   1.491  0.5185  0.7528 -0.2059
 9731SOL    HW129892   3.750   6.607   1.586 -1.1878  0.7506 -0.1012
 9731SOL    HW229893   3.656   6.597   1.467  1.3010 -0.5924 -2.0630
 9732SOL     OW29894   2.851   6.299   1.577  0.3822  0.0168 -0.3608
 9732SOL    HW129895   2.828   6.322   1.667 -0.4279 -1.5343 -0.1321
 9732SOL    HW229896   2.865   6.383   1.533 -1.9394  0.9453  0.5003
 9733SOL     OW29897   1.332   3.424   4.374 -0.1186  0.2102  0.1816
 9733SOL    HW129898   1.305   3.503   4.419 -1.5950  0.3838 -0.9480
 9733SOL    HW229899   1.299   3.434   4.285 -1.4992 -2.2006  0.3257
 9734SOL     OW29900   4.721   2.432   2.373 -0.6759  0.3120 -0.8202
 9734SOL    HW129901   4.796   2.416   2.431 -0.6554 -1.4560 -1.2638
 9734SOL    HW229902   4.665   2.355   2.385 -0.4543 -0.3726 -3.4339
 9735SOL     OW29903   4.347   5.741   7.008 -0.1461  0.1177 -0.2317
 9735SOL    HW129904   4.330   5.781   6.923 -1.9027 -0.1721 -0.0579
 9735SOL    HW229905   4.371   5.815   7.064  0.4181  0.3913 -0.8129
 9736SOL     OW29906   4.064   6.586   0.705 -0.0026  0.1315  0.2297
 9736SOL    HW129907   4.018   6.629   0.633  0.5565  0.3046 -0.0310
 9736SOL    HW229908   3.995   6.561   0.766 -0.8231 -2.4331 -1.5927
 9737SOL     OW29909   0.285   3.108   3.323 -0.2783 -0.2410 -0.4348
 9737SOL    HW129910   0.225   3.036   3.303  1.0832 -0.8026 -3.0090
 9737SOL    HW229911   0.233   3.187   3.313 -0.7494 -0.7297 -2.1114
 9738SOL     OW29912   3.337   6.414   4.040  0.0531 -0.2832  0.4952
 9738SOL    HW129913   3.341   6.321   4.019 -0.6751 -0.0881 -0.5713
 9738SOL    HW229914   3.332   6.458   3.956  0.9986  0.7727  0.9625
 9739SOL     OW29915   6.850   3.859   0.063  0.1704 -0.1387  0.1550
 9739SOL    HW129916   6.886   3.772   0.082 -0.4227 -0.7304 -1.2731
 9739SOL    HW229917   6.925   3.908   0.029  0.5645  0.0145  1.1945
 9740SOL     OW29918   2.638   5.990   7.110  0.4138  0.2313  0.5670
 9740SOL    HW129919   2.565   6.008   7.169 -0.6207 -0.0981 -0.5791
 9740SOL    HW229920   2.632   6.056   7.042 -0.1442 -1.0818 -0.7075
 9741SOL     OW29921   0.287   3.514   1.927  0.3547 -0.6403  0.0104
 9741SOL    HW129922   0.324   3.509   1.838 -0.0868  1.7740 -0.3764
 9741SOL    HW229923   0.364   3.515   1.984  0.8988  2.0195 -0.6488
 9742SOL     OW29924   5.954   3.353   6.614  0.2964 -0.0553 -0.9792
 9742SOL    HW129925   5.972   3.340   6.707 -1.3929 -0.8931 -0.7404
 9742SOL    HW229926   6.040   3.373   6.576  1.4022 -1.9640  0.3694
 9743SOL     OW29927   7.925   3.162   5.657  0.0755  0.2622  0.9995
 9743SOL    HW129928   7.869   3.116   5.718  0.1815  1.2348  1.8646
 9743SOL    HW229929   7.900   3.129   5.571  0.9588 -2.2548  1.6354
 9744SOL     OW29930   1.435   2.540   6.433 -0.5103 -0.1558  0.2961
 9744SOL    HW129931   1.415   2.554   6.525 -0.5996 -0.2299  0.2881
 9744SOL    HW229932   1.419   2.446   6.419  1.0095 -0.4784  0.5839
 9745SOL     OW29933   3.756   3.139   5.387 -0.1275  0.4302 -0.1723
 9745SOL    HW129934   3.736   3.206   5.452  0.8930  1.2461 -0.6738
 9745SOL    HW229935   3.820   3.179   5.329 -1.8052  0.1464 -2.3752
 9746SOL     OW29936   1.644   0.019   5.331 -0.2091 -0.3206 -0.1111
 9746SOL    HW129937   1.738   0.024   5.317 -0.3720  0.8538 -1.0151
 9746SOL    HW229938   1.625   0.091   5.391 -0.2955 -1.7944  1.7083
 9747SOL     OW29939   3.015   4.109   2.256 -0.1666  0.0533 -0.3498
 9747SOL    HW129940   2.969   4.156   2.186 -0.0292  0.9837  0.1633
 9747SOL    HW229941   3.025   4.174   2.326  0.2701 -0.6733  0.2829
 9748SOL     OW29942   5.232   6.357   7.147 -0.2509  0.0692  0.0825
 9748SOL    HW129943   5.148   6.331   7.185  0.3711 -0.1474  1.3347
 9748SOL    HW229944   5.244   6.298   7.073 -1.1369  0.0273 -0.0466
 9749SOL     OW29945   7.173   7.440   4.704  0.4101  0.2962  0.1949
 9749SOL    HW129946   7.183   7.530   4.672  1.8364 -0.0006 -0.2624
 9749SOL    HW229947   7.089   7.411   4.668  0.6873  0.9144 -1.0135
 9750SOL     OW29948   6.654   5.394   6.891 -0.2332 -0.4292  0.1440
 9750SOL    HW129949   6.713   5.335   6.845 -1.2550 -1.1516 -0.2809
 9750SOL    HW229950   6.596   5.336   6.941 -0.6359  0.2521  0.4877
 9751SOL     OW29951   3.949   3.152   4.959  0.2451  0.4579  0.9230
 9751SOL    HW129952   3.947   3.205   4.879  1.0536  0.5315  0.9393
 9751SOL    HW229953   3.886   3.082   4.942 -1.0401  1.5499  1.0135
 9752SOL     OW29954   4.515   0.637   4.850 -0.3546 -0.5665  0.1129
 9752SOL    HW129955   4.450   0.696   4.887 -0.3232 -0.5003  0.0623
 9752SOL    HW229956   4.518   0.658   4.757  0.5542  0.2226  0.2978
 9753SOL     OW29957   5.078   5.073   5.678 -0.0497 -0.1227 -0.7535
 9753SOL    HW129958   5.041   5.159   5.661  1.0453  0.2463 -1.3668
 9753SOL    HW229959   5.022   5.035   5.745 -0.6940  0.9634 -0.6640
 9754SOL     OW29960   4.042   4.425   3.259  0.0760 -0.2002  0.1768
 9754SOL    HW129961   3.985   4.414   3.183 -0.9813  2.2395  0.5320
 9754SOL    HW229962   3.989   4.395   3.333  1.0652 -2.4696  0.0489
 9755SOL     OW29963   5.842   1.251   0.614 -0.0301 -0.0241 -0.6191
 9755SOL    HW129964   5.922   1.301   0.595 -0.8589  1.6551  0.0564
 9755SOL    HW229965   5.794   1.249   0.531 -0.9317  2.1768 -0.2268
 9756SOL     OW29966   5.404   5.927   3.104 -0.3361  0.0275 -0.3275
 9756SOL    HW129967   5.425   5.893   3.017  0.4053  0.5487 -0.3685
 9756SOL    HW229968   5.387   6.020   3.090 -2.7858 -0.3438 -0.2920
 9757SOL     OW29969   3.591   4.622   2.148 -0.0342 -0.1132 -0.3567
 9757SOL    HW129970   3.593   4.630   2.243 -0.3739 -0.8425 -0.2765
 9757SOL    HW229971   3.680   4.595   2.124 -0.1229 -0.5870 -0.1694
 9758SOL     OW29972   7.239   1.767   7.451 -0.0959  0.2025  0.0312
 9758SOL    HW129973   7.284   1.686   7.427  0.3490  0.6027 -0.5108
 9758SOL    HW229974   7.154   1.738   7.484  0.3121 -0.5258  0.4753
 9759SOL     OW29975   3.764   7.474   2.382  0.0546  0.2720  0.1430
 9759SOL    HW129976   3.720   7.396   2.416 -0.7475  0.0345 -1.3529
 9759SOL    HW229977   3.850   7.443   2.355  0.6419  0.4289  1.6989
 9760SOL     OW29978   2.763   0.008   3.872  0.5211 -0.2816 -0.6115
 9760SOL    HW129979   2.848  -0.001   3.915  0.2326  0.7365  0.2102
 9760SOL    HW229980   2.701   0.021   3.944 -0.1610  0.1574 -1.2655
 9761SOL     OW29981   2.061   3.122   0.420  0.5150 -0.3155  0.4560
 9761SOL    HW129982   1.985   3.080   0.458 -0.1623  0.7230  0.2952
 9761SOL    HW229983   2.028   3.206   0.386  1.6838  0.0776  0.2312
 9762SOL     OW29984   4.003   1.513   6.389 -0.0217  0.0607 -0.2648
 9762SOL    HW129985   3.972   1.460   6.316 -0.1859 -0.4836  0.1983
 9762SOL    HW229986   4.027   1.597   6.349 -0.0143 -0.2668 -0.9562
 9763SOL     OW29987   0.026   6.639   6.700  0.4358  0.5095  0.1496
 9763SOL    HW129988  -0.062   6.607   6.682  0.9679 -2.9345  2.6258
 9763SOL    HW229989   0.083   6.586   6.643  1.1750 -1.3281  2.4577
 9764SOL     OW29990   1.890   1.969   4.476 -0.3028  0.0318  0.3966
 9764SOL    HW129991   1.962   1.906   4.482 -0.2397  0.2118  3.0552
 9764SOL    HW229992   1.813   1.921   4.508 -0.3368  1.1057  2.0734
 9765SOL     OW29993   7.423   4.809   1.289 -0.3697  0.0588 -0.3609
 9765SOL    HW129994   7.354   4.785   1.352  0.0586  0.0298  0.1011
 9765SOL    HW229995   7.381   4.800   1.204 -0.5819 -1.1706 -0.1455
 9766SOL     OW29996   6.124   4.039   4.067  0.1402 -0.2896 -0.4048
 9766SOL    HW129997   6.203   4.072   4.110 -1.1609  1.4717  0.7914
 9766SOL    HW229998   6.102   3.960   4.116 -1.4952  1.8496  2.6130
 9767SOL     OW29999   2.704   4.859   3.474 -0.4761 -0.3810  0.1061
 9767SOL    HW130000   2.798   4.870   3.456 -0.9543  1.1971 -1.7820
 9767SOL    HW230001   2.674   4.796   3.409 -1.1477  0.9950 -0.9742
 9768SOL     OW30002   6.873   6.572   0.830  0.2607  0.5118  0.0376
 9768SOL    HW130003   6.914   6.658   0.826 -0.7063  0.9843 -4.4148
 9768SOL    HW230004   6.925   6.518   0.770 -1.0536 -1.1001  0.2802
 9769SOL     OW30005   2.872   7.311   2.041  0.2415 -0.2441  0.1964
 9769SOL    HW130006   2.784   7.291   2.073  0.6226 -1.4471  0.5563
 9769SOL    HW230007   2.888   7.401   2.068 -1.0519  0.1634 -0.2995
 9770SOL     OW30008   2.052   3.008   7.050 -0.3937  0.2210  0.1710
 9770SOL    HW130009   1.989   3.073   7.081 -1.2666 -0.6470  0.2406
 9770SOL    HW230010   2.011   2.924   7.067  1.2436 -0.4200  1.2463
 9771SOL     OW30011   2.444   3.373   7.652  0.0598  0.5544  0.4591
 9771SOL    HW130012   2.501   3.399   7.580  1.8077  0.0004  1.5685
 9771SOL    HW230013   2.365   3.425   7.641  0.3824  0.6551 -1.6899
 9772SOL     OW30014   3.912   1.400   4.454  0.5333 -0.3590 -0.1435
 9772SOL    HW130015   3.997   1.437   4.477  0.4479 -0.9018  1.1254
 9772SOL    HW230016   3.865   1.471   4.411  0.6991  0.7336  1.4217
 9773SOL     OW30017   2.753   4.603   7.283  0.1374  0.2602  0.1879
 9773SOL    HW130018   2.763   4.682   7.336 -1.2359 -0.8624  2.2788
 9773SOL    HW230019   2.704   4.630   7.206  1.0849  1.7121  0.0619
 9774SOL     OW30020   3.074   3.871   5.009  0.1481  0.3701 -0.4691
 9774SOL    HW130021   3.065   3.784   4.970  0.0935  0.7408 -1.3108
 9774SOL    HW230022   3.008   3.874   5.078 -1.2971  0.4771 -1.8143
 9775SOL     OW30023   4.687   1.738   3.546  0.3231 -0.6421 -1.1459
 9775SOL    HW130024   4.696   1.658   3.596  0.1330  0.3546  0.5571
 9775SOL    HW230025   4.660   1.804   3.610  1.6101  1.0527 -2.2375
 9776SOL     OW30026   6.745   7.452   0.886 -0.1537  0.1535  0.1701
 9776SOL    HW130027   6.698   7.439   0.804 -1.1574 -0.9966  0.8968
 9776SOL    HW230028   6.801   7.528   0.870 -1.2334  0.6977 -1.1722
 9777SOL     OW30029   6.157   5.553   5.137  0.0090  0.0155  0.2176
 9777SOL    HW130030   6.114   5.468   5.143 -0.0058  0.0509  0.6524
 9777SOL    HW230031   6.212   5.547   5.059  0.3566 -0.5563  0.4992
 9778SOL     OW30032   0.511   3.629   5.993 -0.4040  0.7034  0.2101
 9778SOL    HW130033   0.566   3.581   6.055 -1.3548  1.1775  1.4690
 9778SOL    HW230034   0.533   3.721   6.009  0.4100  0.7821 -1.2222
 9779SOL     OW30035   1.923   7.628   7.331  0.2679 -0.5971  0.6086
 9779SOL    HW130036   1.957   7.717   7.317 -1.4242  0.0440  0.2903
 9779SOL    HW230037   1.859   7.638   7.401  0.1360 -1.6108  0.6486
 9780SOL     OW30038   6.177   7.187   5.940  0.0926  0.7894 -0.5240
 9780SOL    HW130039   6.269   7.191   5.963 -0.1265 -0.3545  0.6669
 9780SOL    HW230040   6.161   7.268   5.891  1.8660  0.6777 -1.3617
 9781SOL     OW30041   0.799   1.686   6.704 -0.2940 -0.0041 -0.0373
 9781SOL    HW130042   0.778   1.675   6.796 -0.5518 -2.5659 -0.3286
 9781SOL    HW230043   0.779   1.778   6.685  1.0049  0.9443  2.7182
 9782SOL     OW30044   2.197   1.382   3.811  0.1962 -0.0419  0.2566
 9782SOL    HW130045   2.150   1.302   3.789  3.6796 -1.8777 -1.3170
 9782SOL    HW230046   2.217   1.421   3.726  0.1630  1.5267  0.9391
 9783SOL     OW30047   2.876   6.778   2.181 -0.9150 -0.2375 -0.0568
 9783SOL    HW130048   2.803   6.747   2.127 -1.2020 -0.6243  0.5411
 9783SOL    HW230049   2.837   6.791   2.267 -0.6045  0.9985 -0.0912
 9784SOL     OW30050   2.161   7.453   5.728  0.1511  0.8389 -0.1060
 9784SOL    HW130051   2.080   7.403   5.714  0.3068  0.4304  0.4361
 9784SOL    HW230052   2.137   7.543   5.707 -0.2264  0.5966 -0.7562
 9785SOL     OW30053   2.204   4.187   5.835 -0.3921  0.4698 -0.0356
 9785SOL    HW130054   2.193   4.252   5.903  0.9794 -0.3201  0.9742
 9785SOL    HW230055   2.187   4.234   5.753 -0.7601  1.7390  0.7534
 9786SOL     OW30056   7.365   5.205   3.659  0.2538 -0.1951 -0.4208
 9786SOL    HW130057   7.270   5.200   3.653  0.2168 -0.6003  0.3788
 9786SOL    HW230058   7.381   5.252   3.741  0.7458 -0.4499 -0.3701
 9787SOL     OW30059   4.510   0.161   4.124  0.3027 -0.1753  0.5331
 9787SOL    HW130060   4.453   0.207   4.184 -0.9353 -0.9033 -0.0535
 9787SOL    HW230061   4.456   0.092   4.086  1.6460 -1.0929  0.1766
 9788SOL     OW30062   5.217   7.368   0.889  0.4951  0.3990  0.1272
 9788SOL    HW130063   5.163   7.318   0.828 -1.0027  1.0868  0.8325
 9788SOL    HW230064   5.287   7.308   0.915 -0.0148 -0.5735 -0.6989
 9789SOL     OW30065   2.674   5.960   0.729 -0.4104  0.4057  0.5381
 9789SOL    HW130066   2.769   5.951   0.732 -0.3853  0.1903 -0.5785
 9789SOL    HW230067   2.641   5.879   0.769 -0.1276 -0.2020 -0.4349
 9790SOL     OW30068   0.577   3.476   0.451 -0.8240  0.0451  0.1527
 9790SOL    HW130069   0.563   3.383   0.469 -2.4199  0.1790 -0.2427
 9790SOL    HW230070   0.571   3.483   0.356  0.9524  0.3295  0.0371
 9791SOL     OW30071   6.466   5.047   5.994  0.2309  0.1299 -0.0264
 9791SOL    HW130072   6.421   4.973   6.034  0.9705 -0.4422 -0.2274
 9791SOL    HW230073   6.425   5.124   6.033 -1.0223 -0.3582 -0.3361
 9792SOL     OW30074   0.842   6.341   5.158  0.0709  0.2052  0.0680
 9792SOL    HW130075   0.784   6.376   5.226 -0.0843 -1.8113  1.0429
 9792SOL    HW230076   0.899   6.280   5.204 -0.1919 -1.4088 -1.6163
 9793SOL     OW30077   6.791   0.628   6.252  0.3391  0.0677  0.1555
 9793SOL    HW130078   6.833   0.640   6.166  0.6432  1.6281  0.5011
 9793SOL    HW230079   6.787   0.533   6.263 -1.9766 -0.3234 -2.6899
 9794SOL     OW30080   4.732   1.275   5.846 -0.4361  0.5713  0.1608
 9794SOL    HW130081   4.711   1.367   5.861 -0.9787  0.3316  0.8700
 9794SOL    HW230082   4.814   1.261   5.894 -0.8436  0.4515  0.8328
 9795SOL     OW30083   4.506   4.404   3.997  0.2496 -0.0575 -0.1834
 9795SOL    HW130084   4.446   4.378   3.927 -1.3555  0.0851  1.1023
 9795SOL    HW230085   4.585   4.352   3.981 -0.2444 -0.3595 -1.8255
 9796SOL     OW30086   0.858   5.808   7.810  0.4653 -0.0333  0.3969
 9796SOL    HW130087   0.939   5.768   7.780  0.4843 -0.6393  1.2388
 9796SOL    HW230088   0.810   5.828   7.730  1.1195 -0.3438 -0.0777
 9797SOL     OW30089   6.986   4.418   6.360 -0.4837  0.0099 -0.2402
 9797SOL    HW130090   7.026   4.342   6.403  1.1792 -0.9742 -3.1865
 9797SOL    HW230091   7.060   4.469   6.328 -1.5363  3.2848  2.0348
 9798SOL     OW30092   2.127   1.433   5.594 -0.3380  0.2934  0.2661
 9798SOL    HW130093   2.222   1.432   5.602 -0.3654 -2.4999  1.2340
 9798SOL    HW230094   2.109   1.390   5.511 -0.7627 -1.8066  1.3960
 9799SOL     OW30095   6.545   2.167   4.699  0.2827  0.5887 -0.7771
 9799SOL    HW130096   6.541   2.121   4.783 -0.2189  0.8469 -0.6506
 9799SOL    HW230097   6.482   2.239   4.709  1.4316  1.6125 -0.7844
 9800SOL     OW30098   7.066   0.831   2.241  0.0291 -0.2233 -0.4346
 9800SOL    HW130099   6.981   0.860   2.274  0.8045  0.3619  1.1441
 9800SOL    HW230100   7.082   0.888   2.165  0.3573  1.8167  1.0899
 9801SOL     OW30101   4.535   4.014   2.591 -0.6994  0.7438  0.2450
 9801SOL    HW130102   4.594   4.086   2.615  0.9829 -0.2967 -0.5078
 9801SOL    HW230103   4.580   3.972   2.517 -2.3236 -0.2476 -0.2099
 9802SOL     OW30104   7.653   1.335   2.084 -0.2273 -0.8206  0.1945
 9802SOL    HW130105   7.683   1.425   2.071  0.4255 -1.3918 -3.1872
 9802SOL    HW230106   7.729   1.290   2.121 -1.1279  0.2569  3.7382
 9803SOL     OW30107   4.973   2.932   4.092 -0.1879  0.0854  0.2811
 9803SOL    HW130108   5.016   3.008   4.052  2.0768 -1.2198  0.0398
 9803SOL    HW230109   4.914   2.969   4.157  0.3757  2.0701 -0.2779
 9804SOL     OW30110   2.634   0.105   1.559  0.6971  0.7184  0.1866
 9804SOL    HW130111   2.657   0.062   1.641 -1.1232 -3.1499 -1.1066
 9804SOL    HW230112   2.718   0.121   1.516  1.5296 -1.7230  0.7449
 9805SOL     OW30113   3.979   7.909   2.313 -0.2329 -0.8695  0.0240
 9805SOL    HW130114   3.995   7.993   2.270 -2.0392 -0.4211  0.1786
 9805SOL    HW230115   4.006   7.844   2.248 -0.4629 -0.1867 -0.7735
 9806SOL     OW30116   2.459   2.080   6.841 -0.7268  0.3275  0.0185
 9806SOL    HW130117   2.504   2.098   6.923 -0.3981  0.0943 -0.1059
 9806SOL    HW230118   2.508   2.128   6.775  1.3559 -2.4231 -0.6215
 9807SOL     OW30119   5.760   5.521   0.987  0.5976  0.0761 -0.2587
 9807SOL    HW130120   5.767   5.537   1.081  0.7886 -0.3001 -0.2053
 9807SOL    HW230121   5.817   5.446   0.972  1.1513  0.6029 -0.8039
 9808SOL     OW30122   1.302   3.258   2.225 -0.1419  0.1047 -0.0405
 9808SOL    HW130123   1.302   3.179   2.279 -1.6320  1.0260  1.4000
 9808SOL    HW230124   1.209   3.276   2.209  0.1622  1.5592 -0.3325
 9809SOL     OW30125   4.657   6.508   0.363  0.5871  0.2952 -0.2935
 9809SOL    HW130126   4.570   6.471   0.348  0.7687  0.7689 -3.1043
 9809SOL    HW230127   4.641   6.598   0.389  0.2437  0.2265 -0.2602
 9810SOL     OW30128   4.828   3.647   5.500  0.0821 -0.1608 -0.3265
 9810SOL    HW130129   4.794   3.658   5.589  1.6579  2.6253  0.0419
 9810SOL    HW230130   4.800   3.726   5.454  1.2902 -0.4429 -1.5988
 9811SOL     OW30131   2.167   7.305   0.449 -0.4847  0.5005  0.5449
 9811SOL    HW130132   2.135   7.303   0.359 -1.5089  2.8583  0.7672
 9811SOL    HW230133   2.209   7.391   0.457  2.7872 -1.0304  1.3608
 9812SOL     OW30134   4.533   7.905   7.190  0.3747  0.4358 -0.5525
 9812SOL    HW130135   4.612   7.854   7.177  0.3097  0.2466 -0.2222
 9812SOL    HW230136   4.519   7.951   7.108  1.0814  0.8163 -0.4622
 9813SOL     OW30137   5.275   2.351   4.834  0.5519 -0.8727  0.7913
 9813SOL    HW130138   5.302   2.405   4.909  1.3455 -0.0516 -0.0517
 9813SOL    HW230139   5.319   2.267   4.848  0.3103 -0.8902  1.4816
 9814SOL     OW30140   4.764   6.381   7.644  0.2767 -0.0641 -0.5074
 9814SOL    HW130141   4.806   6.467   7.644  3.5811 -1.2258  4.6335
 9814SOL    HW230142   4.698   6.386   7.713  0.7641 -1.6672  0.1275
 9815SOL     OW30143   3.242   1.882   4.309  0.0070  0.8509 -0.0710
 9815SOL    HW130144   3.172   1.825   4.277 -1.8397  2.5854  0.5900
 9815SOL    HW230145   3.265   1.936   4.233  1.3118 -0.3149 -0.5303
 9816SOL     OW30146   5.332   3.916   0.115 -0.5248 -0.2764  0.0645
 9816SOL    HW130147   5.326   3.856   0.040 -2.4239 -2.6123  1.8963
 9816SOL    HW230148   5.416   3.894   0.156 -0.9579 -1.3592  0.4103
 9817SOL     OW30149   0.595   0.104   2.759 -0.0123  0.2196  0.3163
 9817SOL    HW130150   0.623   0.135   2.845 -0.7800  0.9998  0.2972
 9817SOL    HW230151   0.659   0.036   2.736  0.0990 -0.1250  1.5732
 9818SOL     OW30152   5.017   3.222   3.771  0.0715 -0.0769 -0.3072
 9818SOL    HW130153   5.080   3.180   3.829 -0.0933 -1.9388 -1.3912
 9818SOL    HW230154   5.009   3.311   3.805  1.9736 -0.2989  0.8824
 9819SOL     OW30155   3.270   6.643   6.813 -0.3974 -0.2037  0.1779
 9819SOL    HW130156   3.198   6.688   6.856  0.6784  1.0030  0.8026
 9819SOL    HW230157   3.264   6.671   6.721 -0.4328  0.3026  0.3305
 9820SOL     OW30158   3.711   7.778   7.543  0.4495 -0.5079 -0.0780
 9820SOL    HW130159   3.789   7.762   7.597  0.1639 -0.0171  0.4938
 9820SOL    HW230160   3.638   7.769   7.604  0.1830  1.2354 -0.1155
 9821SOL     OW30161   4.568   4.713   4.262 -0.1924 -0.2333 -0.5507
 9821SOL    HW130162   4.640   4.775   4.268 -0.5320  0.1547 -0.4751
 9821SOL    HW230163   4.600   4.634   4.306 -0.2358  0.3248  0.5119
 9822SOL     OW30164   5.256   4.073   3.777  0.1700  0.1497 -0.6211
 9822SOL    HW130165   5.228   4.059   3.686 -0.5515 -1.3185 -0.2089
 9822SOL    HW230166   5.288   4.163   3.779 -0.4841  0.4455 -2.1619
 9823SOL     OW30167   1.820   0.625   6.889  0.4376 -0.2350  0.3700
 9823SOL    HW130168   1.777   0.653   6.970  1.1592 -0.4040  0.8197
 9823SOL    HW230169   1.914   0.634   6.907  0.6137 -0.5677 -0.3412
 9824SOL     OW30170   6.408   3.209   3.749  0.2655 -0.1387 -0.1777
 9824SOL    HW130171   6.326   3.241   3.713  0.5978  0.9783  0.0391
 9824SOL    HW230172   6.415   3.251   3.835  2.0403  1.4130 -1.0314
 9825SOL     OW30173   2.714   2.709   1.953 -0.3461 -0.3052  0.0982
 9825SOL    HW130174   2.766   2.779   1.913  1.2195 -0.3585  1.9422
 9825SOL    HW230175   2.741   2.629   1.906 -1.4213  0.1156 -1.3337
 9826SOL     OW30176   2.814   1.895   6.673 -0.2066 -0.8282 -0.3033
 9826SOL    HW130177   2.814   1.799   6.675  0.9238 -0.8514 -1.0645
 9826SOL    HW230178   2.722   1.918   6.662 -0.6467 -1.7866  1.0855
 9827SOL     OW30179   7.675   0.246   0.456 -0.1817  0.0719 -0.0354
 9827SOL    HW130180   7.734   0.317   0.482  4.1219 -2.1400 -2.6997
 9827SOL    HW230181   7.660   0.197   0.537  0.2134  1.6510  1.0503
 9828SOL     OW30182   6.248   5.209   5.708  0.2807 -0.8886  0.4770
 9828SOL    HW130183   6.274   5.283   5.762 -1.9009 -0.6071  1.2575
 9828SOL    HW230184   6.294   5.221   5.626  1.0310  0.5697  1.0854
 9829SOL     OW30185   2.803   4.618   6.182  0.3970 -0.4262 -0.5046
 9829SOL    HW130186   2.831   4.554   6.248  1.3212  0.1110 -0.3534
 9829SOL    HW230187   2.834   4.702   6.215 -0.1404  0.0038 -1.0717
 9830SOL     OW30188   2.508   5.792   5.660  0.9345 -0.4166  0.3108
 9830SOL    HW130189   2.521   5.788   5.565  1.9343 -0.0897  0.4222
 9830SOL    HW230190   2.446   5.864   5.673  1.2083 -0.1080 -0.0673
 9831SOL     OW30191   3.013   4.140   4.467 -0.2732  0.3098  0.4865
 9831SOL    HW130192   3.010   4.147   4.563  2.0176 -1.1571  0.7452
 9831SOL    HW230193   3.100   4.173   4.444 -1.2032  1.7083 -1.2620
 9832SOL     OW30194   7.017   3.469   7.957  0.1093 -0.0527  0.3107
 9832SOL    HW130195   7.060   3.538   7.905  0.6471  0.0865  0.9249
 9832SOL    HW230196   6.974   3.517   8.028 -3.1579  0.0920 -1.5553
 9833SOL     OW30197   4.927   7.554   4.566  0.4139 -0.2065  0.1819
 9833SOL    HW130198   4.860   7.604   4.518  0.0100  1.3010  2.1753
 9833SOL    HW230199   5.005   7.609   4.562  0.0804  0.4752  2.0581
 9834SOL     OW30200   6.249   4.309   2.200 -0.0191 -0.2048  0.0710
 9834SOL    HW130201   6.227   4.324   2.291  0.6835 -0.6979  0.3303
 9834SOL    HW230202   6.265   4.396   2.164  0.6278 -0.0678  0.6648
 9835SOL     OW30203   7.306   2.019   2.361  0.0844  0.5315  0.1180
 9835SOL    HW130204   7.244   1.954   2.328 -1.8245  1.8684  0.8481
 9835SOL    HW230205   7.297   2.015   2.456  1.1907  0.7168  0.2453
 9836SOL     OW30206   6.905   1.513   0.370 -0.2632 -0.2870  0.8391
 9836SOL    HW130207   6.928   1.493   0.280  1.0405  0.2410  1.0330
 9836SOL    HW230208   6.988   1.535   0.412 -0.8892 -0.1780  2.0817
 9837SOL     OW30209   4.240   2.430   0.361 -0.4028 -0.2444  0.0090
 9837SOL    HW130210   4.264   2.445   0.453 -0.4983  0.3078 -0.0500
 9837SOL    HW230211   4.155   2.473   0.351  0.8644  2.2267 -1.0309
 9838SOL     OW30212   5.908   4.249   1.443  0.1818 -0.7880  0.5730
 9838SOL    HW130213   5.828   4.210   1.478  0.2054 -2.5361 -1.1886
 9838SOL    HW230214   5.888   4.267   1.351  1.2855  0.3360  0.5193
 9839SOL     OW30215   5.093   1.672   7.022  0.4285  0.0270 -0.1834
 9839SOL    HW130216   5.101   1.650   6.929 -0.3187  1.9893 -0.7580
 9839SOL    HW230217   5.089   1.768   7.024  2.1123  0.1295  2.0246
 9840SOL     OW30218   0.081   0.875   4.190 -0.1657  0.0485 -0.1232
 9840SOL    HW130219   0.012   0.846   4.251 -0.1788 -0.1436 -0.2280
 9840SOL    HW230220   0.160   0.878   4.243 -0.1585 -0.2121 -0.1154
 9841SOL     OW30221   1.522   6.314   2.828 -0.1158  0.0440 -0.1309
 9841SOL    HW130222   1.512   6.315   2.923 -0.2286  1.9930 -0.1096
 9841SOL    HW230223   1.613   6.342   2.813  0.0470 -0.7221 -0.5869
 9842SOL     OW30224   6.868   1.077   6.199 -0.3488 -0.8173 -0.3556
 9842SOL    HW130225   6.869   1.026   6.280 -1.1272 -0.6179 -0.2070
 9842SOL    HW230226   6.929   1.149   6.215 -0.1735 -1.0199 -0.1053
 9843SOL     OW30227   5.342   0.423   6.509  0.4474  0.1234 -0.4250
 9843SOL    HW130228   5.407   0.358   6.481  0.1382 -0.2998 -0.1797
 9843SOL    HW230229   5.317   0.394   6.597  0.5755  0.7880 -0.1637
 9844SOL     OW30230   5.794   1.628   4.647  0.3197 -0.5596 -0.6256
 9844SOL    HW130231   5.711   1.600   4.684  0.3833 -1.3741 -1.0733
 9844SOL    HW230232   5.857   1.618   4.718  0.1128 -0.3252 -0.4065
 9845SOL     OW30233   4.007   0.422   4.193  0.1937  0.2772 -0.3531
 9845SOL    HW130234   3.994   0.333   4.162  0.2226 -0.0263  0.4704
 9845SOL    HW230235   3.933   0.472   4.160 -0.3105 -0.2645 -0.0411
 9846SOL     OW30236   5.850   4.493   4.684  0.5096 -0.1257  0.0330
 9846SOL    HW130237   5.860   4.455   4.597 -1.5957 -0.4591 -0.1115
 9846SOL    HW230238   5.885   4.582   4.676  2.7796 -0.9830 -0.4024
 9847SOL     OW30239   2.206   0.671   5.085  0.3384  0.1900 -0.0981
 9847SOL    HW130240   2.126   0.694   5.038 -0.3161 -1.6271  0.0666
 9847SOL    HW230241   2.235   0.754   5.124 -1.4276  0.8984 -0.1986
 9848SOL     OW30242   3.740   3.575   0.453 -0.1665 -0.0927  0.6166
 9848SOL    HW130243   3.728   3.492   0.408 -0.6869  0.3573 -0.0883
 9848SOL    HW230244   3.779   3.632   0.387  3.8462 -0.7809  2.0648
 9849SOL     OW30245   1.320   5.037   1.938  0.4469 -0.6928  0.3254
 9849SOL    HW130246   1.400   4.988   1.955  0.5065 -0.6921  0.0508
 9849SOL    HW230247   1.266   5.023   2.016  0.1256 -1.8709 -0.0866
 9850SOL     OW30248   5.264   1.830   4.178 -0.0696  0.3147 -0.5877
 9850SOL    HW130249   5.248   1.911   4.226  1.4844 -0.5787  1.5837
 9850SOL    HW230250   5.358   1.832   4.159  0.1767 -1.3562  0.3135
 9851SOL     OW30251   0.415   7.010   0.603 -0.0002 -0.3780  0.4913
 9851SOL    HW130252   0.510   7.024   0.604 -0.0002 -0.0462 -1.2992
 9851SOL    HW230253   0.402   6.941   0.538 -1.1132  0.7710 -0.5600
 9852SOL     OW30254   5.420   1.540   6.130 -0.3333  0.1979  0.6441
 9852SOL    HW130255   5.435   1.512   6.040 -0.5807  0.5568  0.4873
 9852SOL    HW230256   5.346   1.601   6.124 -0.2118  0.3895  1.0624
 9853SOL     OW30257   0.653   5.826   6.432 -0.0034  0.6672 -0.4649
 9853SOL    HW130258   0.746   5.806   6.441 -0.2712 -1.1195 -1.1806
 9853SOL    HW230259   0.644   5.854   6.341 -0.2228  0.4002 -0.5271
 9854SOL     OW30260   3.671   7.014   5.073  0.2570  0.2350  0.0160
 9854SOL    HW130261   3.623   6.950   5.021  2.0172  0.2790 -1.8074
 9854SOL    HW230262   3.610   7.041   5.142 -1.6937 -0.8711 -1.2055
 9855SOL     OW30263   5.930   1.455   2.623 -0.1967  0.3569 -0.4423
 9855SOL    HW130264   5.869   1.382   2.618  0.6014 -0.4857  1.3756
 9855SOL    HW230265   5.895   1.513   2.691  0.6730  0.1691  0.1941
 9856SOL     OW30266   1.702   6.272   7.326  0.0109  0.0513  0.4771
 9856SOL    HW130267   1.748   6.339   7.377 -0.6952  2.5130 -1.8547
 9856SOL    HW230268   1.610   6.284   7.347 -0.0084 -1.5267  1.4341
 9857SOL     OW30269   3.588   3.829   0.466 -0.5189  0.5178  0.4566
 9857SOL    HW130270   3.498   3.795   0.457 -0.3479  0.3614 -1.0314
 9857SOL    HW230271   3.639   3.754   0.496 -0.7864  0.4498  0.7488
 9858SOL     OW30272   5.217   1.307   3.042  0.0568  0.1204 -0.1569
 9858SOL    HW130273   5.126   1.284   3.023 -0.0419  0.0916  0.3367
 9858SOL    HW230274   5.216   1.403   3.049 -0.5188 -0.0026  2.6318
 9859SOL     OW30275   4.484   3.789   5.305 -0.2307  0.2053 -0.0078
 9859SOL    HW130276   4.432   3.716   5.270  0.0649  0.0632 -0.1540
 9859SOL    HW230277   4.435   3.819   5.381  0.5212 -1.2811  1.1200
 9860SOL     OW30278   0.715   6.790   7.678  0.2130  0.0517  0.0920
 9860SOL    HW130279   0.735   6.702   7.647  0.3078 -0.1264  0.6441
 9860SOL    HW230280   0.694   6.778   7.771  0.2197  0.6077  0.1670
 9861SOL     OW30281   7.090   2.223   2.094  0.4657  0.0910  0.3365
 9861SOL    HW130282   7.005   2.223   2.051 -0.0518 -2.3883  1.2204
 9861SOL    HW230283   7.090   2.303   2.147 -0.9485  0.5269 -0.2726
 9862SOL     OW30284   4.761   0.300   4.085  0.6598 -0.1035  0.1528
 9862SOL    HW130285   4.679   0.257   4.060  0.4101  0.4185  0.0554
 9862SOL    HW230286   4.733   0.384   4.121  1.1670  0.1690 -0.0900
 9863SOL     OW30287   7.890   0.004   7.418  0.4894  0.5156  0.0553
 9863SOL    HW130288   7.874  -0.043   7.336  0.2379  2.4676 -1.0856
 9863SOL    HW230289   7.802   0.024   7.451  0.5480 -1.5197  1.6475
 9864SOL     OW30290   1.561   2.010   0.810  0.2356 -0.0607  0.3441
 9864SOL    HW130291   1.505   1.977   0.881  0.9913 -1.8281  0.1630
 9864SOL    HW230292   1.508   2.079   0.769 -0.8393 -0.0486  1.6492
 9865SOL     OW30293   7.573   2.257   1.961  0.1358  0.1847 -0.5470
 9865SOL    HW130294   7.626   2.193   1.913  0.0165  0.3273 -0.8719
 9865SOL    HW230295   7.529   2.205   2.029 -0.0042 -0.0950 -0.8437
 9866SOL     OW30296   3.008   7.947   4.008  0.5664  0.3498  0.2791
 9866SOL    HW130297   2.997   7.865   4.055  2.3112 -1.5112 -2.2454
 9866SOL    HW230298   3.042   8.008   4.073 -1.1358 -0.7405  2.3210
 9867SOL     OW30299   6.243   2.615   6.520 -0.0705  0.4340  0.1335
 9867SOL    HW130300   6.181   2.581   6.584 -0.6045  1.1132 -0.0159
 9867SOL    HW230301   6.324   2.567   6.537  0.0298  1.1217  1.8317
 9868SOL     OW30302   0.624   2.179   6.348 -0.3474 -0.2090  0.4528
 9868SOL    HW130303   0.544   2.134   6.377 -0.2577 -1.5151 -1.1452
 9868SOL    HW230304   0.639   2.145   6.259  1.7647  0.3075  0.5689
 9869SOL     OW30305   2.856   0.406   0.475 -0.3635 -0.7454  0.0362
 9869SOL    HW130306   2.856   0.495   0.513  2.0459  0.5300 -2.6153
 9869SOL    HW230307   2.894   0.351   0.544 -0.5342  0.5338  1.2020
 9870SOL     OW30308   6.131   6.433   3.437  0.9338 -0.0260 -0.3781
 9870SOL    HW130309   6.045   6.424   3.396 -0.1461  0.9946  1.4889
 9870SOL    HW230310   6.129   6.372   3.511  1.4508  0.6441  0.2127
 9871SOL     OW30311   7.752   1.957   4.328  0.4351  0.6373 -0.7067
 9871SOL    HW130312   7.845   1.951   4.309  0.5529  0.6370 -0.1509
 9871SOL    HW230313   7.727   2.044   4.298  0.6948  0.7741 -0.5299
 9872SOL     OW30314   5.863   4.387   4.949 -0.4944  0.0350  1.0428
 9872SOL    HW130315   5.847   4.465   5.001  0.6519  0.7635  0.3403
 9872SOL    HW230316   5.873   4.419   4.859  0.8620 -0.7966  0.8680
 9873SOL     OW30317   1.197   3.337   6.442 -0.1099 -0.2216 -0.6323
 9873SOL    HW130318   1.181   3.324   6.536  0.8279  0.3162 -0.3919
 9873SOL    HW230319   1.121   3.295   6.399 -1.2297  0.6833  0.3940
 9874SOL     OW30320   5.831   7.049   1.564  0.5214  0.6901  0.1307
 9874SOL    HW130321   5.922   7.040   1.533  0.5132  1.0319  0.0083
 9874SOL    HW230322   5.830   7.002   1.648  0.0125 -2.2300 -1.3609
 9875SOL     OW30323   7.437   5.057   0.882 -0.5346  0.0563 -0.2920
 9875SOL    HW130324   7.507   5.012   0.929  0.0074  0.2140 -0.9329
 9875SOL    HW230325   7.463   5.149   0.883 -1.9634  0.4953  1.5825
 9876SOL     OW30326   3.622   5.443   5.747 -0.0105  0.4777 -0.0129
 9876SOL    HW130327   3.645   5.353   5.769  0.1689  0.3141 -0.8532
 9876SOL    HW230328   3.559   5.435   5.676 -0.0160  1.0183 -0.0710
 9877SOL     OW30329   1.034   5.100   4.679 -0.2817  0.1659 -0.7190
 9877SOL    HW130330   1.090   5.117   4.755  2.2254 -3.6348 -1.4275
 9877SOL    HW230331   1.078   5.146   4.607 -0.6968  0.9036 -0.5132
 9878SOL     OW30332   0.835   0.857   4.055  0.2835  0.1785  0.0429
 9878SOL    HW130333   0.793   0.775   4.081  1.9598 -0.2595  1.5769
 9878SOL    HW230334   0.894   0.833   3.984  1.9229 -0.3313  1.4953
 9879SOL     OW30335   3.047   3.119   6.329 -0.0910  0.2469 -0.1407
 9879SOL    HW130336   3.013   3.060   6.262 -0.3777 -0.1173  0.3129
 9879SOL    HW230337   3.078   3.196   6.281  2.9601 -1.4127 -1.0516
 9880SOL     OW30338   6.044   1.157   2.746 -0.5407 -0.2981 -0.2253
 9880SOL    HW130339   6.086   1.071   2.758 -1.0062 -0.3848  0.9369
 9880SOL    HW230340   6.078   1.210   2.818  0.7135  0.9141 -1.6529
 9881SOL     OW30341   0.290   0.988   7.023 -0.7666  0.7527  0.1852
 9881SOL    HW130342   0.305   0.977   6.929 -1.8247 -0.4471  0.1323
 9881SOL    HW230343   0.377   0.995   7.061 -0.3330  3.2151 -1.0727
 9882SOL     OW30344   4.857   3.322   0.492  0.2476  0.5763  0.1584
 9882SOL    HW130345   4.918   3.261   0.535  0.7006 -0.0875 -1.3611
 9882SOL    HW230346   4.887   3.408   0.521  1.0507  0.1930  0.5338
 9883SOL     OW30347   4.291   0.880   6.083  0.2296 -0.1055  0.1998
 9883SOL    HW130348   4.357   0.930   6.132 -1.0853  1.7078  0.2239
 9883SOL    HW230349   4.315   0.788   6.098  2.3093  0.4739  0.7778
 9884SOL     OW30350   2.525   5.448   3.173  0.1085 -0.4591  0.1647
 9884SOL    HW130351   2.456   5.449   3.107 -0.4404  2.0266  0.6899
 9884SOL    HW230352   2.478   5.436   3.256  0.3145  0.8450  0.4860
 9885SOL     OW30353   3.239   5.656   0.161 -0.2209 -0.4905 -0.2621
 9885SOL    HW130354   3.144   5.668   0.159 -0.0780  1.3539  1.1173
 9885SOL    HW230355   3.263   5.639   0.070 -1.9326 -1.7761 -0.5238
 9886SOL     OW30356   4.758   1.311   4.154  0.3063 -0.0156  0.0599
 9886SOL    HW130357   4.797   1.389   4.114 -0.9154  0.6867  0.1842
 9886SOL    HW230358   4.792   1.238   4.103  1.3612  0.6014 -0.1567
 9887SOL     OW30359   5.446   3.404   0.275  0.4382 -0.3581  0.1325
 9887SOL    HW130360   5.389   3.421   0.200 -0.9261  0.8095  1.3721
 9887SOL    HW230361   5.477   3.314   0.262 -0.5067 -0.5004 -1.3479
 9888SOL     OW30362   2.327   4.056   2.953  0.1114 -0.2991 -0.0581
 9888SOL    HW130363   2.241   4.079   2.918 -0.0944  0.1189  0.6988
 9888SOL    HW230364   2.331   3.961   2.944 -0.9762 -0.4857  1.0625
 9889SOL     OW30365   3.661   5.267   7.880 -0.4720  0.2927 -0.3375
 9889SOL    HW130366   3.606   5.204   7.927  1.1735 -0.0098  1.3051
 9889SOL    HW230367   3.730   5.290   7.942  1.0022  0.9958 -2.1238
 9890SOL     OW30368   3.393   6.986   7.268  0.5747  0.0149  0.0889
 9890SOL    HW130369   3.312   7.019   7.228 -0.1501 -1.8472 -0.1256
 9890SOL    HW230370   3.460   7.050   7.246 -0.1140 -0.1656 -2.8600
 9891SOL     OW30371   1.172   7.671   5.615  0.4521  0.1126 -0.0129
 9891SOL    HW130372   1.120   7.592   5.601 -0.3862  0.4824  0.9473
 9891SOL    HW230373   1.260   7.638   5.633  0.1830 -0.5875  0.0716
 9892SOL     OW30374   6.817   7.928   2.519 -0.3523 -0.2849 -0.6168
 9892SOL    HW130375   6.767   7.942   2.438  0.3138 -1.2254 -1.2273
 9892SOL    HW230376   6.908   7.927   2.490  0.0051  0.9040  0.4011
 9893SOL     OW30377   5.788   5.917   6.165  0.1303 -0.3994 -0.5122
 9893SOL    HW130378   5.810   5.932   6.073  1.4461  0.5531 -0.0863
 9893SOL    HW230379   5.771   5.823   6.171 -1.2417 -0.2980 -1.9502
 9894SOL     OW30380   5.675   2.194   7.951 -0.3078  0.6723 -0.2448
 9894SOL    HW130381   5.735   2.230   7.886 -1.0322  0.0082 -1.3131
 9894SOL    HW230382   5.624   2.128   7.903 -1.2580  0.5738  0.8558
 9895SOL     OW30383   1.102   7.291   5.796  0.2137  0.2040 -0.3371
 9895SOL    HW130384   1.185   7.250   5.820 -0.4836 -1.4733 -0.6172
 9895SOL    HW230385   1.067   7.235   5.726 -2.1019 -0.4168  1.1845
 9896SOL     OW30386   0.684   4.603   0.784 -0.4181 -0.1904  0.0750
 9896SOL    HW130387   0.594   4.603   0.751 -0.0147 -0.9154 -1.0385
 9896SOL    HW230388   0.678   4.557   0.868 -0.7831 -1.9365 -0.8741
 9897SOL     OW30389   3.532   3.493   4.668  0.2546  0.1574 -0.3390
 9897SOL    HW130390   3.557   3.584   4.679  1.5721 -0.0056 -1.6492
 9897SOL    HW230391   3.557   3.451   4.750  0.6136  0.7651 -0.1326
 9898SOL     OW30392   4.660   0.166   0.229  0.1000  0.0744  0.4787
 9898SOL    HW130393   4.750   0.144   0.253 -0.1900 -0.3209  1.2331
 9898SOL    HW230394   4.613   0.083   0.230 -0.9308  0.5722  2.9979
 9899SOL     OW30395   5.405   7.352   0.402 -0.1387  0.1200  0.1327
 9899SOL    HW130396   5.444   7.432   0.366  0.8814  0.1277  1.2096
 9899SOL    HW230397   5.389   7.372   0.494  0.2475 -0.9480  0.4433
 9900SOL     OW30398   1.171   2.475   5.237  0.2007  0.4761 -0.3164
 9900SOL    HW130399   1.125   2.508   5.160 -0.7042  0.5669  0.2497
 9900SOL    HW230400   1.162   2.545   5.302  1.3088  0.5779 -0.2453
 9901SOL     OW30401   5.377   5.902   6.415  0.3005 -0.3328  0.5099
 9901SOL    HW130402   5.445   5.942   6.362 -1.0239 -1.1313 -1.9342
 9901SOL    HW230403   5.418   5.892   6.502  2.6920  0.6966 -0.3978
 9902SOL     OW30404   1.391   2.743   7.078  0.1219 -0.0601  0.2989
 9902SOL    HW130405   1.428   2.658   7.054  0.6763 -0.0482  1.0684
 9902SOL    HW230406   1.318   2.721   7.137 -0.4428 -0.0394 -0.3793
 9903SOL     OW30407   2.870   3.381   4.709 -0.2299  0.4321  0.2199
 9903SOL    HW130408   2.918   3.437   4.648 -0.2911  0.4786  0.2138
 9903SOL    HW230409   2.888   3.419   4.795  0.3995 -0.0314  0.3028
 9904SOL     OW30410   1.463   4.418   6.545 -0.4413 -0.4933 -0.3831
 9904SOL    HW130411   1.484   4.500   6.590  1.1970 -0.3125 -1.3817
 9904SOL    HW230412   1.370   4.404   6.561 -0.6190  1.2656  0.2768
 9905SOL     OW30413   0.859   7.921   6.252 -0.2408  0.3291  0.2150
 9905SOL    HW130414   0.882   7.868   6.176  1.9808 -2.0224  2.3674
 9905SOL    HW230415   0.767   7.903   6.267 -0.0885 -1.1144 -0.4722
 9906SOL     OW30416   1.164   0.937   3.725  0.0775  0.3652  0.5655
 9906SOL    HW130417   1.233   0.928   3.790 -1.0040 -1.1784  1.5479
 9906SOL    HW230418   1.118   1.018   3.749  1.9067  1.7986 -0.5181
 9907SOL     OW30419   4.533   6.275   6.728  0.2156 -0.0087 -0.0472
 9907SOL    HW130420   4.575   6.331   6.662  0.5333  0.1888  0.3115
 9907SOL    HW230421   4.501   6.337   6.794 -2.1604 -0.0169 -1.1124
 9908SOL     OW30422   0.246   5.655   1.675 -0.1789 -0.1739  0.3460
 9908SOL    HW130423   0.267   5.623   1.587 -1.5850  0.8592 -0.4108
 9908SOL    HW230424   0.189   5.588   1.712 -0.7023  0.0383 -0.0710
 9909SOL     OW30425   5.736   3.016   0.022  0.3913  0.6657 -0.0349
 9909SOL    HW130426   5.805   2.957   0.052 -0.9501 -0.1008  1.7529
 9909SOL    HW230427   5.678   2.961  -0.030 -0.3693  0.5866  0.8664
 9910SOL     OW30428   7.243   1.904   1.756 -0.8244 -0.6602  0.2294
 9910SOL    HW130429   7.251   1.927   1.848 -0.7253  0.6794 -0.0907
 9910SOL    HW230430   7.160   1.857   1.750 -1.0865 -0.2979  0.9246
 9911SOL     OW30431   7.774   5.581   4.097 -0.1401 -0.6415  0.4511
 9911SOL    HW130432   7.763   5.609   4.006 -0.1793 -2.4305 -0.1313
 9911SOL    HW230433   7.840   5.512   4.093  0.0941 -0.5264  1.8409
 9912SOL     OW30434   0.565   2.185   0.999  0.0805  0.5597  0.4970
 9912SOL    HW130435   0.637   2.239   1.032 -0.0263  0.4455  0.9166
 9912SOL    HW230436   0.575   2.101   1.043 -0.7264  0.7667  1.1098
 9913SOL     OW30437   5.858   5.390   6.154 -0.2428  0.4173  0.3456
 9913SOL    HW130438   5.900   5.330   6.093 -0.1922  1.1554 -0.3669
 9913SOL    HW230439   5.858   5.344   6.238  0.7549 -0.1437  0.0539
 9914SOL     OW30440   4.476   6.677   1.775 -0.4285  0.1022 -0.2015
 9914SOL    HW130441   4.527   6.611   1.729  0.3367  0.6507 -0.1531
 9914SOL    HW230442   4.388   6.639   1.782  0.4558 -1.7688  1.6083
 9915SOL     OW30443   5.843   1.821   1.529  0.0044  0.2115 -0.1573
 9915SOL    HW130444   5.816   1.778   1.448  0.9397 -3.0648  1.1035
 9915SOL    HW230445   5.764   1.821   1.584  0.1703 -0.6008  0.0914
 9916SOL     OW30446   5.987   5.829   6.607 -0.3679 -0.5379  0.1152
 9916SOL    HW130447   5.976   5.779   6.526  0.9103 -1.6053  0.5590
 9916SOL    HW230448   6.082   5.830   6.621 -0.4881  0.7537  0.9198
 9917SOL     OW30449   5.093   7.692   7.380 -0.4662 -0.0170 -0.2891
 9917SOL    HW130450   5.120   7.780   7.406 -0.5407 -0.4381  1.2881
 9917SOL    HW230451   5.175   7.642   7.378 -0.3822  0.1251 -1.4805
 9918SOL     OW30452   5.986   5.864   2.962  0.3289 -0.0267  0.3409
 9918SOL    HW130453   5.938   5.892   3.039  0.4893  0.8673  0.1261
 9918SOL    HW230454   6.073   5.903   2.972 -0.4536  2.4871 -1.6068
 9919SOL     OW30455   2.199   6.261   7.182  0.6707 -0.0754 -0.1954
 9919SOL    HW130456   2.162   6.299   7.262  1.3656  1.0440 -0.3795
 9919SOL    HW230457   2.139   6.288   7.112  0.4790 -0.3960 -0.1537
 9920SOL     OW30458   1.435   5.399   7.886 -0.5064 -0.0786 -0.6593
 9920SOL    HW130459   1.530   5.410   7.890 -0.2900 -1.5819  3.4630
 9920SOL    HW230460   1.400   5.488   7.886  0.8212  0.5014 -2.5831
 9921SOL     OW30461   5.816   5.787   3.941  0.4014  0.1241  0.2355
 9921SOL    HW130462   5.859   5.704   3.961  2.2746  1.1656  0.7894
 9921SOL    HW230463   5.813   5.834   4.024  0.8672  1.2640 -0.3700
 9922SOL     OW30464   7.114   6.999   5.322 -0.3307  0.1010 -0.0148
 9922SOL    HW130465   7.095   7.074   5.265  0.9200  0.0586 -0.5269
 9922SOL    HW230466   7.137   6.928   5.262 -0.1388 -0.2874  0.5102
 9923SOL     OW30467   6.453   4.876   5.286 -0.3651  0.1978  0.2432
 9923SOL    HW130468   6.536   4.917   5.311 -0.0286 -0.5718  0.4208
 9923SOL    HW230469   6.414   4.937   5.223  1.0680 -0.1288 -1.0422
 9924SOL     OW30470   3.041   5.095   5.604  0.7412  0.2960  0.9543
 9924SOL    HW130471   3.035   4.999   5.602 -0.6154  0.3622  0.2636
 9924SOL    HW230472   3.130   5.114   5.576  0.5909 -0.7498 -0.3413
 9925SOL     OW30473   4.147   2.774   1.003 -0.2790 -0.9943  0.1344
 9925SOL    HW130474   4.180   2.842   1.061 -0.6429 -1.2167  0.6111
 9925SOL    HW230475   4.091   2.820   0.941  0.1564 -0.7491 -0.0788
 9926SOL     OW30476   3.753   3.567   2.058  0.0141  0.2151 -0.6358
 9926SOL    HW130477   3.757   3.635   1.990 -2.4754 -0.1807 -1.2618
 9926SOL    HW230478   3.715   3.491   2.014 -0.6694 -0.3962  0.9385
 9927SOL     OW30479   1.295   5.656   3.499  0.0217 -0.1524 -0.2273
 9927SOL    HW130480   1.203   5.678   3.509 -0.0423 -0.4743 -0.1211
 9927SOL    HW230481   1.298   5.561   3.497  0.5771 -0.2404  1.9935
 9928SOL     OW30482   0.019   3.500   3.447  0.3833 -0.6938 -0.3079
 9928SOL    HW130483   0.027   3.583   3.400  1.0314 -1.1397 -0.9942
 9928SOL    HW230484   0.062   3.516   3.531  0.9032 -0.4658 -0.6115
 9929SOL     OW30485   3.458   7.382   1.080  0.1042 -0.7555 -0.0567
 9929SOL    HW130486   3.521   7.313   1.059  0.9105 -0.6237  1.7503
 9929SOL    HW230487   3.504   7.438   1.143 -0.7039  1.1673 -1.1068
 9930SOL     OW30488   4.436   2.915   2.104 -0.0753  0.2466  0.2576
 9930SOL    HW130489   4.398   2.977   2.165  0.1248 -0.7790  1.4539
 9930SOL    HW230490   4.406   2.829   2.134 -0.0409 -0.2847 -1.1354
 9931SOL     OW30491   4.277   7.193   0.215  0.1658  0.2343  0.0573
 9931SOL    HW130492   4.370   7.197   0.190  0.3670 -1.1246  0.5071
 9931SOL    HW230493   4.246   7.111   0.176 -1.0834  1.0816 -0.8019
 9932SOL     OW30494   1.475   0.424   6.744  0.5047 -0.1453  0.5622
 9932SOL    HW130495   1.535   0.394   6.677  0.0318  0.2304 -0.0455
 9932SOL    HW230496   1.515   0.504   6.779 -0.1631  0.7566 -0.6441
 9933SOL     OW30497   2.819   1.510   4.529 -0.0647 -0.7320  0.0166
 9933SOL    HW130498   2.864   1.456   4.594  2.2748  0.9662 -0.0674
 9933SOL    HW230499   2.783   1.584   4.578 -2.3016 -1.6875 -0.0360
 9934SOL     OW30500   2.177   5.057   3.055  0.1541 -0.4138 -0.4556
 9934SOL    HW130501   2.090   5.092   3.039 -0.0522 -0.4515  0.5278
 9934SOL    HW230502   2.199   5.086   3.143  1.2097 -0.2612 -0.7532
 9935SOL     OW30503   3.927   4.836   4.083 -0.3842  0.7534 -0.4710
 9935SOL    HW130504   4.011   4.831   4.129  0.1043  1.3717 -1.2460
 9935SOL    HW230505   3.911   4.748   4.051 -0.4413  0.4533  0.3767
 9936SOL     OW30506   4.987   4.070   5.938  0.2082  0.1964 -0.0712
 9936SOL    HW130507   5.031   3.988   5.961 -2.8523 -1.5962 -0.0740
 9936SOL    HW230508   4.994   4.074   5.842 -0.7622 -0.8388 -0.2121
 9937SOL     OW30509   6.814   2.809   4.148  0.1953 -0.2819  0.3010
 9937SOL    HW130510   6.860   2.783   4.228  0.6586  0.2789  0.2265
 9937SOL    HW230511   6.723   2.822   4.176  0.0179 -1.6103  0.4061
 9938SOL     OW30512   5.461   0.571   4.422 -0.1120 -1.1082  0.0339
 9938SOL    HW130513   5.427   0.512   4.355  0.5508  0.2397 -1.5275
 9938SOL    HW230514   5.452   0.658   4.385 -0.9672 -0.1825  2.2485
 9939SOL     OW30515   6.919   2.489   5.030 -0.2160  0.2893  0.3470
 9939SOL    HW130516   7.005   2.472   5.068  0.0087  0.8522  0.0950
 9939SOL    HW230517   6.857   2.461   5.098  0.1643  0.1485  0.6419
 9940SOL     OW30518   4.978   7.021   0.201  0.0279  0.2852 -0.8009
 9940SOL    HW130519   5.005   7.092   0.143 -0.6121  0.8890 -0.3726
 9940SOL    HW230520   4.882   7.020   0.194 -0.2079  1.4318  1.4487
 9941SOL     OW30521   4.240   3.835   6.024  0.0788  0.2756 -0.4930
 9941SOL    HW130522   4.294   3.802   6.096  0.6241  1.7539 -0.1857
 9941SOL    HW230523   4.303   3.862   5.957 -0.3601  0.3805 -0.8670
 9942SOL     OW30524   3.332   5.513   1.440 -0.6600  0.1739  0.4219
 9942SOL    HW130525   3.352   5.420   1.429  2.2033  0.6788  0.5090
 9942SOL    HW230526   3.347   5.551   1.354 -1.6826  0.5904  0.4178
 9943SOL     OW30527   0.059   7.963   0.927 -0.3200  0.1297 -0.2153
 9943SOL    HW130528   0.096   7.910   0.857  0.3447 -4.3077  3.0470
 9943SOL    HW230529   0.135   8.007   0.966  0.7157 -3.1301  1.8936
 9944SOL     OW30530   6.820   1.061   7.246  0.3988 -0.0831 -0.0825
 9944SOL    HW130531   6.728   1.075   7.268  0.4605 -0.3164  0.3386
 9944SOL    HW230532   6.828   1.088   7.154 -0.3995 -1.3861 -0.5592
 9945SOL     OW30533   5.000   3.660   5.125  0.1951  0.5003 -0.3181
 9945SOL    HW130534   4.921   3.708   5.102 -0.3278 -0.5770 -0.8334
 9945SOL    HW230535   5.042   3.714   5.192  0.9177  2.9719 -2.5541
 9946SOL     OW30536   0.394   5.273   1.526 -0.4356  0.2757 -0.2680
 9946SOL    HW130537   0.485   5.299   1.517 -0.7072  0.7406 -2.2393
 9946SOL    HW230538   0.396   5.177   1.527  0.0252  0.2445 -1.6689
 9947SOL     OW30539   5.512   3.672   7.077  0.1924 -0.3043  0.6751
 9947SOL    HW130540   5.553   3.646   6.995  0.4685  0.9794  0.3852
 9947SOL    HW230541   5.419   3.654   7.064 -0.0400  1.5966 -0.6423
 9948SOL     OW30542   2.314   4.296   0.681 -0.4919 -0.3604  0.2027
 9948SOL    HW130543   2.346   4.343   0.603  1.2737  0.9379  1.6133
 9948SOL    HW230544   2.231   4.338   0.701 -1.4405 -1.3252 -1.4491
 9949SOL     OW30545   6.368   5.944   4.063 -0.1272 -0.0453  0.5659
 9949SOL    HW130546   6.419   5.985   3.994  1.9996 -1.8387  0.9542
 9949SOL    HW230547   6.278   5.971   4.046  0.4317  0.2553 -2.3629
 9950SOL     OW30548   4.620   7.240   3.915  0.2952 -0.2687  0.0097
 9950SOL    HW130549   4.596   7.157   3.957  1.5687 -0.8462 -0.3418
 9950SOL    HW230550   4.715   7.237   3.910  0.2298  0.0274 -2.4159
 9951SOL     OW30551   4.768   0.962   1.000  0.1954 -0.0509 -0.0936
 9951SOL    HW130552   4.853   0.974   0.958  1.3366  1.6294  2.4490
 9951SOL    HW230553   4.751   0.867   0.994  2.3598 -0.4547 -0.4612
 9952SOL     OW30554   6.667   7.750   4.776  0.7040 -0.3784 -0.0166
 9952SOL    HW130555   6.696   7.663   4.802  0.5523 -0.5348 -0.3625
 9952SOL    HW230556   6.573   7.743   4.764  0.2241  0.5161  2.6215
 9953SOL     OW30557   5.784   0.249   3.656 -0.2796  0.0717  0.1259
 9953SOL    HW130558   5.873   0.274   3.680 -0.1071 -0.9039  0.5493
 9953SOL    HW230559   5.794   0.166   3.609 -1.0035 -0.3673  0.7215
 9954SOL     OW30560   5.773   4.266   0.923  0.4273 -0.1206 -0.2672
 9954SOL    HW130561   5.725   4.285   0.842 -1.1260  0.6106  0.7960
 9954SOL    HW230562   5.843   4.206   0.895 -1.5641 -1.9079 -1.7547
 9955SOL     OW30563   5.356   2.762   7.927  0.0451  0.1664 -0.6070
 9955SOL    HW130564   5.446   2.787   7.946 -0.0936  0.9740 -0.9820
 9955SOL    HW230565   5.363   2.680   7.878  0.6183  0.6806 -1.4013
 9956SOL     OW30566   4.587   6.352   2.669 -0.3024 -0.3587 -0.3144
 9956SOL    HW130567   4.615   6.393   2.587  1.7287  0.6029  0.7721
 9956SOL    HW230568   4.645   6.276   2.678 -2.5073 -2.2540 -1.1644
 9957SOL     OW30569   0.888   7.827   2.151  0.0856 -0.7994  0.4731
 9957SOL    HW130570   0.936   7.761   2.102  0.4905 -0.2139  0.0706
 9957SOL    HW230571   0.797   7.795   2.152  0.5146 -2.0732  1.5177
 9958SOL     OW30572   3.051   6.864   4.767 -0.8208  0.0560 -0.2704
 9958SOL    HW130573   3.004   6.849   4.685 -0.8137  1.0559 -0.4633
 9958SOL    HW230574   2.999   6.818   4.833 -0.9382 -0.5765 -0.7964
 9959SOL     OW30575   5.953   4.336   1.832  0.7056 -0.3957 -0.2091
 9959SOL    HW130576   5.909   4.252   1.844  2.6022 -1.3227  0.8041
 9959SOL    HW230577   5.978   4.363   1.921  1.4213  0.4963 -0.6622
 9960SOL     OW30578   6.923   3.188   4.982 -0.1882  0.2182 -0.2638
 9960SOL    HW130579   6.855   3.187   4.914 -0.7010  0.2970  0.2422
 9960SOL    HW230580   6.882   3.147   5.058  0.4936 -0.1778 -0.0947
 9961SOL     OW30581   2.201   0.389   3.956 -0.2186 -0.2915  0.2184
 9961SOL    HW130582   2.295   0.393   3.937 -0.1070  0.0911  0.8325
 9961SOL    HW230583   2.188   0.455   4.024 -1.1653  0.6094 -0.7977
 9962SOL     OW30584   7.307   1.098   6.633 -0.1287 -0.3607 -0.1784
 9962SOL    HW130585   7.360   1.054   6.566 -0.8885 -0.8670 -0.4630
 9962SOL    HW230586   7.340   1.064   6.716 -0.2684 -0.9850 -0.3702
 9963SOL     OW30587   2.072   0.776   3.222  0.2292  0.1537 -0.1598
 9963SOL    HW130588   2.109   0.852   3.268 -1.2621 -0.1703  1.6825
 9963SOL    HW230589   2.119   0.701   3.258  1.3584  0.0926 -1.6308
 9964SOL     OW30590   0.060   6.936   4.850  0.9173 -0.1711 -0.6427
 9964SOL    HW130591   0.129   6.973   4.795  1.6962 -1.2498 -0.4123
 9964SOL    HW230592   0.102   6.864   4.898 -0.2765 -0.6329 -0.2392
 9965SOL     OW30593   1.331   4.553   2.171  0.2315  0.4959  0.1396
 9965SOL    HW130594   1.411   4.503   2.151 -0.0641 -0.4268  1.1571
 9965SOL    HW230595   1.274   4.537   2.095  0.1544 -0.7283  0.4296
 9966SOL     OW30596   1.226   7.272   2.930 -0.1535  0.3594  0.0693
 9966SOL    HW130597   1.164   7.294   2.861 -1.5987 -1.8415  0.5651
 9966SOL    HW230598   1.271   7.194   2.898  1.0609  0.8567  0.5081
 9967SOL     OW30599   0.950   7.800   5.122  0.9250  0.0771 -0.3244
 9967SOL    HW130600   0.901   7.871   5.079 -2.1633 -1.9545 -0.4542
 9967SOL    HW230601   1.038   7.835   5.132 -0.1049  3.4305 -1.5573
 9968SOL     OW30602   0.861   7.300   2.772  0.1314 -0.5692 -0.2960
 9968SOL    HW130603   0.851   7.211   2.804 -0.8332 -0.0334  0.9635
 9968SOL    HW230604   0.791   7.349   2.814 -1.5679  0.1189 -3.6209
 9969SOL     OW30605   4.131   3.593   0.079 -0.4162  0.0688 -0.7408
 9969SOL    HW130606   4.127   3.509   0.034 -0.4911 -0.2923 -0.0755
 9969SOL    HW230607   4.174   3.573   0.162 -0.0327  0.7735 -0.7663
 9970SOL     OW30608   4.534   2.035   3.964  0.3491 -0.0819 -0.1098
 9970SOL    HW130609   4.625   2.007   3.955  0.7794  0.5364  1.8423
 9970SOL    HW230610   4.538   2.131   3.966 -0.2014 -0.0714  1.1266
 9971SOL     OW30611   7.008   4.059   7.697 -0.1507  0.4797  0.3123
 9971SOL    HW130612   6.914   4.067   7.714 -0.3586 -1.5870  0.4176
 9971SOL    HW230613   7.014   4.049   7.602 -0.2887 -1.5272  0.4702
 9972SOL     OW30614   6.200   6.106   2.816 -0.4254  0.6353  0.1990
 9972SOL    HW130615   6.200   6.010   2.808  0.0332  0.7062 -0.8300
 9972SOL    HW230616   6.209   6.137   2.726  0.8499  1.6270  0.6386
 9973SOL     OW30617   0.619   0.676   0.051 -0.2421 -0.2051 -0.3723
 9973SOL    HW130618   0.565   0.608   0.011 -0.5720 -0.5283  0.5866
 9973SOL    HW230619   0.676   0.628   0.111 -0.7739  0.3831  0.6353
 9974SOL     OW30620   1.888   7.062   2.057 -0.0328 -0.0325 -0.0762
 9974SOL    HW130621   1.908   7.080   1.965  0.0083  2.1760  0.3215
 9974SOL    HW230622   1.792   7.067   2.062 -0.0641 -0.5555 -0.0550
 9975SOL     OW30623   5.845   1.890   2.793  0.4899  0.2790  0.2011
 9975SOL    HW130624   5.808   1.851   2.714 -0.3892 -1.9013  1.5965
 9975SOL    HW230625   5.928   1.845   2.806  1.2028  1.4727 -0.0879
 9976SOL     OW30626   0.280   2.543   4.877 -0.0431 -0.4318 -0.0901
 9976SOL    HW130627   0.324   2.603   4.937  2.2029  0.4050 -2.3801
 9976SOL    HW230628   0.206   2.593   4.843  0.3350  0.1371 -0.0961
 9977SOL     OW30629   6.808   4.201   4.249  0.2811  0.4828  0.0397
 9977SOL    HW130630   6.780   4.120   4.292  1.6025  0.4085  0.8214
 9977SOL    HW230631   6.730   4.232   4.204 -0.7716 -0.2290  1.2910
 9978SOL     OW30632   3.819   3.760   1.627 -1.1579  0.0008  0.4309
 9978SOL    HW130633   3.836   3.806   1.709  1.6971 -0.0620 -0.0066
 9978SOL    HW230634   3.810   3.830   1.562  1.4239  0.1128  0.0700
 9979SOL     OW30635   2.833   7.077   2.791 -0.0192 -0.2034 -0.0452
 9979SOL    HW130636   2.867   7.085   2.702  1.7201  0.0976  0.6093
 9979SOL    HW230637   2.789   6.992   2.793 -2.0029  0.6987 -1.7585
 9980SOL     OW30638   0.694   6.991   1.164  0.8029  0.3585 -0.3165
 9980SOL    HW130639   0.692   7.073   1.114  1.7640 -0.3693 -1.6444
 9980SOL    HW230640   0.612   6.991   1.213 -0.6740  0.7449 -2.5885
 9981SOL     OW30641   3.752   5.988   4.428 -0.1776  0.3633  0.8007
 9981SOL    HW130642   3.831   5.978   4.374 -0.5937  0.6229  0.1252
 9981SOL    HW230643   3.697   5.914   4.403 -0.2875  0.3674  1.0290
 9982SOL     OW30644   0.559   1.083   4.003  0.7373 -0.0094  0.3154
 9982SOL    HW130645   0.613   1.096   4.080  0.9985 -0.2194  0.1699
 9982SOL    HW230646   0.596   1.005   3.960  1.8587  1.2353 -1.0840
 9983SOL     OW30647   5.176   7.540   1.859  0.2618 -0.1673 -0.3181
 9983SOL    HW130648   5.210   7.458   1.824  1.1085 -0.3321  0.8048
 9983SOL    HW230649   5.162   7.596   1.783 -0.4376 -1.3812 -1.1070
 9984SOL     OW30650   3.742   3.749   0.844  0.4860  0.8176 -0.7595
 9984SOL    HW130651   3.725   3.657   0.827  1.1358  0.4256  0.5604
 9984SOL    HW230652   3.658   3.783   0.876  0.8874 -0.0270  1.4155
 9985SOL     OW30653   0.861   0.915   2.809 -0.2037  0.5895 -0.2978
 9985SOL    HW130654   0.895   0.888   2.724  0.7136  0.3311  0.1399
 9985SOL    HW230655   0.794   0.849   2.830  1.7053 -1.1904  0.5619
 9986SOL     OW30656   6.466   5.989   0.337  0.4592  0.1362 -0.1801
 9986SOL    HW130657   6.552   6.025   0.319 -0.9120  2.2870 -3.1646
 9986SOL    HW230658   6.472   5.897   0.311  2.0805 -0.0495  0.7312
 9987SOL     OW30659   7.085   2.315   6.719 -0.4547 -0.4342  0.6300
 9987SOL    HW130660   7.168   2.343   6.757  0.6316 -0.3549 -1.6065
 9987SOL    HW230661   7.093   2.220   6.710 -0.0247 -0.2978 -0.7305
 9988SOL     OW30662   3.257   6.538   3.780  0.8717 -0.3826  0.1259
 9988SOL    HW130663   3.334   6.487   3.756  0.6583 -0.3683 -0.6067
 9988SOL    HW230664   3.192   6.517   3.713  0.0668 -0.7738  1.0037
 9989SOL     OW30665   6.799   6.347   5.695 -0.0347  0.2898 -0.5686
 9989SOL    HW130666   6.738   6.411   5.658  1.0299  0.9335 -1.2520
 9989SOL    HW230667   6.826   6.293   5.621 -0.6263 -0.7391 -0.0646
 9990SOL     OW30668   1.413   5.186   1.707 -0.2444 -0.4258 -0.3066
 9990SOL    HW130669   1.387   5.155   1.794 -0.9209 -0.0207 -0.3571
 9990SOL    HW230670   1.436   5.106   1.659  0.7765 -0.5932  0.4406
 9991SOL     OW30671   6.267   6.000   6.247 -0.1516  0.0874 -0.0589
 9991SOL    HW130672   6.179   6.016   6.279 -0.2114 -0.3953  0.0253
 9991SOL    HW230673   6.319   5.983   6.325 -0.4378 -1.7574 -0.2240
 9992SOL     OW30674   5.590   6.554   0.441 -0.0644 -0.3746  0.3892
 9992SOL    HW130675   5.508   6.509   0.461 -0.7650  0.7980  0.2705
 9992SOL    HW230676   5.652   6.484   0.421 -1.5403 -1.2447 -1.4750
 9993SOL     OW30677   7.736   6.328   0.114  0.6797  0.1156  0.4430
 9993SOL    HW130678   7.779   6.340   0.199 -0.4515 -0.2452  1.0963
 9993SOL    HW230679   7.713   6.235   0.112 -0.4086  0.3660  0.3095
 9994SOL     OW30680   1.335   3.611   1.702 -0.2855  0.1975  0.1402
 9994SOL    HW130681   1.349   3.648   1.789  0.1474  0.1244  0.1088
 9994SOL    HW230682   1.370   3.677   1.642  3.6890 -1.5640  0.2018
 9995SOL     OW30683   7.401   4.748   3.223  0.3920  0.1286  0.0212
 9995SOL    HW130684   7.488   4.778   3.197  0.3185  0.8089  0.5466
 9995SOL    HW230685   7.341   4.802   3.172  0.2031 -2.6361 -3.0480
 9996SOL     OW30686   2.846   4.951   7.217  0.2487 -0.5885  0.4427
 9996SOL    HW130687   2.791   5.029   7.224  0.1139 -0.7283  0.9818
 9996SOL    HW230688   2.838   4.925   7.125  0.6365  0.2749  0.1453
 9997SOL     OW30689   6.727   7.192   2.052  0.4800 -0.1105 -0.4765
 9997SOL    HW130690   6.782   7.231   1.984  2.9456  0.1481  1.5221
 9997SOL    HW230691   6.781   7.193   2.131 -1.6568 -1.8502  1.1599
 9998SOL     OW30692   1.462   2.774   4.198 -0.2546 -0.2303 -0.3614
 9998SOL    HW130693   1.461   2.686   4.162 -0.3397 -1.6285  2.7364
 9998SOL    HW230694   1.547   2.781   4.242  0.1855  1.6746 -1.4039
 9999SOL     OW30695   0.490   1.769   2.660  0.3605  0.3836 -0.0562
 9999SOL    HW130696   0.454   1.718   2.587 -4.5225  2.5537  0.4478
 9999SOL    HW230697   0.447   1.733   2.737  1.0241  1.7623  0.9940
10000SOL     OW30698   7.599   2.874   2.872  0.3044 -0.5896  0.0891
10000SOL    HW130699   7.638   2.828   2.799  0.3594 -1.9998  0.9755
10000SOL    HW230700   7.508   2.843   2.875 -0.2125  0.8038 -0.4520
10001SOL     OW30701   2.404   5.761   4.062  0.6696 -0.1751  0.0475
10001SOL    HW130702   2.462   5.692   4.030  0.7852  0.9084 -2.2772
10001SOL    HW230703   2.436   5.780   4.150  3.9652  0.3844 -1.1230
10002SOL     OW30704   7.636   7.556   2.551 -0.5119 -0.1668  0.6514
10002SOL    HW130705   7.624   7.651   2.553 -1.6402 -0.2265 -1.2002
10002SOL    HW230706   7.617   7.531   2.461  0.8227 -2.0448  0.8254
10003SOL     OW30707   7.367   6.811   0.750 -0.0884  0.0996 -0.0363
10003SOL    HW130708   7.462   6.804   0.741 -0.2090  0.6366 -2.3441
10003SOL    HW230709   7.352   6.902   0.778  0.0390  0.3059 -0.6330
10004SOL     OW30710   2.518   7.902   4.518  0.5476 -0.7945 -0.1577
10004SOL    HW130711   2.457   7.939   4.454  0.3049  0.3962  0.7393
10004SOL    HW230712   2.558   7.828   4.472 -0.1667 -0.4288 -1.4217
10005SOL     OW30713   2.246   4.605   2.947  0.2363  0.4815  0.3326
10005SOL    HW130714   2.165   4.555   2.952  0.4022  0.3030  1.4799
10005SOL    HW230715   2.253   4.648   3.032  1.3951  0.4144  0.2868
10006SOL     OW30716   5.788   7.030   4.392 -0.0390  0.0150  0.1953
10006SOL    HW130717   5.699   7.018   4.358 -0.0760 -2.7975  1.0483
10006SOL    HW230718   5.844   7.022   4.314 -0.4029 -1.6259  0.0502
10007SOL     OW30719   0.185   6.750   4.992 -0.1686  0.5644 -0.5241
10007SOL    HW130720   0.256   6.811   4.974  1.2070 -0.8789 -0.1865
10007SOL    HW230721   0.223   6.664   4.976 -1.0672 -0.3993  2.1039
10008SOL     OW30722   3.967   4.924   0.866 -0.2988  0.3315  0.0450
10008SOL    HW130723   3.935   4.904   0.954 -2.4295 -0.2591 -0.7931
10008SOL    HW230724   3.919   5.003   0.840  1.4354  1.3968 -0.0497
10009SOL     OW30725   6.311   1.039   5.008  0.4562 -0.1385  0.0350
10009SOL    HW130726   6.319   0.946   4.985  1.4643 -0.4027  1.3141
10009SOL    HW230727   6.219   1.050   5.031  0.0484 -0.5107 -1.3131
10010SOL     OW30728   4.651   1.867   5.082 -0.2514 -0.4849  0.1264
10010SOL    HW130729   4.633   1.818   5.162  0.0046 -0.3552  0.2622
10010SOL    HW230730   4.664   1.957   5.112 -1.5307 -0.1626 -0.1997
10011SOL     OW30731   2.747   3.239   2.613 -0.0643  0.2578  0.4994
10011SOL    HW130732   2.657   3.249   2.643  0.3191  0.7502  1.5334
10011SOL    HW230733   2.782   3.167   2.666  0.5220  0.9254  1.0523
10012SOL     OW30734   3.730   4.941   0.167  0.1304 -0.4247  0.4538
10012SOL    HW130735   3.651   4.994   0.152  0.6016  0.2003  0.0790
10012SOL    HW230736   3.778   4.989   0.234  2.6357  2.0918 -2.8202
10013SOL     OW30737   3.523   2.277   6.387 -0.4641  0.3058 -0.6147
10013SOL    HW130738   3.596   2.278   6.449 -1.6713 -0.9234  0.8938
10013SOL    HW230739   3.545   2.208   6.325 -0.6153 -0.4610  0.1801
10014SOL     OW30740   5.669   7.509   1.067 -0.1735  0.0368  0.5574
10014SOL    HW130741   5.675   7.506   0.972  1.6783  1.4109  0.5790
10014SOL    HW230742   5.577   7.532   1.085 -0.9861 -1.9781 -0.7876
10015SOL     OW30743   4.301   6.761   5.140  0.3503  0.2412  0.7373
10015SOL    HW130744   4.396   6.758   5.143  0.3757 -2.3132 -0.1534
10015SOL    HW230745   4.274   6.765   5.232  1.2952 -0.0524  1.0328
10016SOL     OW30746   1.870   3.290   2.331 -0.1616  0.1018  0.1120
10016SOL    HW130747   1.901   3.207   2.294  1.5926  0.5943  0.3653
10016SOL    HW230748   1.946   3.325   2.378 -0.4388  2.4891 -1.0734
10017SOL     OW30749   3.759   6.241   3.559  0.3539  0.3378  0.1445
10017SOL    HW130750   3.803   6.315   3.517 -0.6725  0.3242 -1.0349
10017SOL    HW230751   3.678   6.230   3.508 -0.0468 -0.8781  1.0054
10018SOL     OW30752   7.502   4.729   6.484 -0.4184 -0.6579 -0.2089
10018SOL    HW130753   7.576   4.741   6.425  1.4975 -0.3294  2.0772
10018SOL    HW230754   7.467   4.643   6.461  1.8986 -1.6872 -0.1953
10019SOL     OW30755   4.573   7.167   3.618 -0.2680 -0.6507 -0.1440
10019SOL    HW130756   4.605   7.250   3.653  2.9069 -1.3309 -1.1058
10019SOL    HW230757   4.576   7.107   3.693  1.9760 -0.9614 -0.4160
10020SOL     OW30758   5.887   6.931   1.816 -0.7418  0.1391  0.1442
10020SOL    HW130759   5.870   6.844   1.852 -1.0228 -0.1906 -0.7534
10020SOL    HW230760   5.976   6.951   1.843 -1.3238  0.4283  2.0176
10021SOL     OW30761   7.650   1.967   7.354  0.0657 -0.3116 -0.2045
10021SOL    HW130762   7.646   1.919   7.437 -0.4999  1.1719  0.6658
10021SOL    HW230763   7.715   2.035   7.368 -2.5157  2.2183  0.3445
10022SOL     OW30764   6.545   1.078   2.232 -0.8822  0.5114 -0.0998
10022SOL    HW130765   6.474   1.014   2.229  2.1186 -3.2224 -1.4774
10022SOL    HW230766   6.586   1.063   2.318 -0.9162  1.5660  0.1048
10023SOL     OW30767   3.375   2.843   5.513 -0.2890  0.5879 -0.3057
10023SOL    HW130768   3.427   2.916   5.481 -0.1411 -0.1723 -1.8704
10023SOL    HW230769   3.427   2.806   5.585  0.4824  0.9335 -0.6782
10024SOL     OW30770   2.908   4.355   1.076 -0.2938  0.1174 -0.5615
10024SOL    HW130771   2.959   4.436   1.078  1.4432 -0.9259 -0.5000
10024SOL    HW230772   2.964   4.291   1.119 -1.5585 -1.1709 -0.7603
10025SOL     OW30773   0.686   0.370   7.556  0.3197 -0.0999 -0.2026
10025SOL    HW130774   0.757   0.374   7.619  0.3701 -0.2223 -0.2507
10025SOL    HW230775   0.668   0.277   7.546 -0.0659 -0.0564  0.0525
10026SOL     OW30776   4.468   1.319   6.475 -0.0891  0.4193  0.4668
10026SOL    HW130777   4.493   1.318   6.567 -0.0576 -2.1807  0.5012
10026SOL    HW230778   4.482   1.409   6.447 -0.6956  1.4292  3.1477
10027SOL     OW30779   4.565   1.855   6.083  0.7581  0.3225  0.7120
10027SOL    HW130780   4.595   1.778   6.035  0.4023  0.5296  0.1499
10027SOL    HW230781   4.473   1.864   6.060  0.7023  0.7046  1.0594
10028SOL     OW30782   5.235   7.580   0.120  0.3879  0.0866 -0.0752
10028SOL    HW130783   5.324   7.579   0.084  0.3926 -0.2431 -0.0596
10028SOL    HW230784   5.181   7.615   0.049  0.3202 -1.0251 -0.5917
10029SOL     OW30785   3.772   4.612   1.142 -0.0449 -0.5127  0.1690
10029SOL    HW130786   3.730   4.647   1.221 -1.5266  0.9687 -1.1640
10029SOL    HW230787   3.732   4.662   1.070  0.7802 -2.2123 -1.5761
10030SOL     OW30788   2.418   7.257   1.719  0.3507 -0.1938 -0.4849
10030SOL    HW130789   2.409   7.352   1.726  1.2294 -0.1317  0.0096
10030SOL    HW230790   2.394   7.237   1.629  2.0562  0.7645 -1.2121
10031SOL     OW30791   6.185   5.267   1.025 -0.0777  0.1262 -0.0686
10031SOL    HW130792   6.258   5.206   1.023  0.5445  0.8605 -0.1034
10031SOL    HW230793   6.221   5.349   0.991 -1.3895 -0.0064 -1.9730
10032SOL     OW30794   5.097   7.412   7.862 -0.0618  0.2034 -0.0077
10032SOL    HW130795   5.183   7.447   7.838  0.7373 -0.3430  1.9387
10032SOL    HW230796   5.038   7.448   7.795  1.7281  0.1417 -1.7208
10033SOL     OW30797   5.731   2.598   6.802  0.0958  0.3936 -0.2045
10033SOL    HW130798   5.652   2.643   6.775  0.3154 -0.7837 -3.2039
10033SOL    HW230799   5.790   2.668   6.831 -1.5683  1.3827  0.9933
10034SOL     OW30800   7.814   3.319   7.559 -0.2969 -0.3235  0.0468
10034SOL    HW130801   7.899   3.357   7.536  1.2035 -3.5030 -0.2148
10034SOL    HW230802   7.827   3.284   7.647 -0.7817 -2.1841 -0.5832
10035SOL     OW30803   4.134   5.104   0.561  0.3137 -0.3567 -0.1133
10035SOL    HW130804   4.136   5.187   0.608 -1.8127 -0.9080  1.0632
10035SOL    HW230805   4.192   5.047   0.611  1.2065  0.1768 -0.5086
10036SOL     OW30806   0.961   0.480   5.366 -0.1274  0.4260  0.0886
10036SOL    HW130807   1.016   0.534   5.423 -0.0034  0.7975 -0.3805
10036SOL    HW230808   1.023   0.424   5.319 -0.0686  1.3751 -1.0060
10037SOL     OW30809   3.941   6.750   3.908 -0.2561 -0.1382 -0.4051
10037SOL    HW130810   3.885   6.790   3.841 -0.9218 -1.1232 -0.4633
10037SOL    HW230811   3.903   6.663   3.922 -0.2400  0.0846  1.3541
10038SOL     OW30812   3.586   7.523   3.081 -0.3158  0.4012 -0.0592
10038SOL    HW130813   3.529   7.599   3.071 -1.1746 -0.2115  0.1225
10038SOL    HW230814   3.643   7.547   3.155  0.2637  1.3649 -0.7914
10039SOL     OW30815   4.297   6.998   6.647 -0.0814  0.5022  0.0816
10039SOL    HW130816   4.291   6.977   6.554 -0.9478 -0.8444  0.4201
10039SOL    HW230817   4.386   6.972   6.671 -0.3269 -0.5151 -0.0622
10040SOL     OW30818   1.717   5.859   3.617  1.1812  0.0158  0.5081
10040SOL    HW130819   1.792   5.805   3.594 -0.3955 -1.3719 -1.6797
10040SOL    HW230820   1.643   5.819   3.572 -1.0104  1.0654  2.9214
10041SOL     OW30821   5.985   3.394   0.375  0.2682 -0.3388  0.3831
10041SOL    HW130822   5.909   3.398   0.317  0.4350  0.1029  0.1848
10041SOL    HW230823   6.048   3.454   0.335  0.4858 -0.2288  0.8828
10042SOL     OW30824   7.014   2.112   0.191  0.8615  0.1209 -0.0327
10042SOL    HW130825   6.934   2.060   0.199 -0.0598  1.3088 -1.0132
10042SOL    HW230826   6.998   2.188   0.246  1.5519  0.1081  0.1885
10043SOL     OW30827   2.159   4.775   1.076  0.4870 -0.1107 -0.4727
10043SOL    HW130828   2.126   4.848   1.129  0.2793 -1.3121  1.1175
10043SOL    HW230829   2.080   4.732   1.043  0.5822 -0.2120 -0.5665
10044SOL     OW30830   1.341   0.895   1.200 -0.5236  0.1491  0.1158
10044SOL    HW130831   1.332   0.833   1.273  1.3940 -0.0973  0.2176
10044SOL    HW230832   1.302   0.850   1.125 -0.7649 -0.4258  0.5782
10045SOL     OW30833   3.846   1.705   7.724  0.5622 -0.4540 -0.0214
10045SOL    HW130834   3.858   1.780   7.783  0.7702  0.0517 -0.7040
10045SOL    HW230835   3.860   1.740   7.637 -0.1655 -1.1111 -0.4184
10046SOL     OW30836   0.466   6.518   0.715 -0.1998  0.1677  0.0058
10046SOL    HW130837   0.549   6.472   0.722 -0.3066  0.1341  1.1907
10046SOL    HW230838   0.436   6.500   0.626  0.5899 -0.6203 -0.1132
10047SOL     OW30839   0.632   3.875   2.485  0.0405  0.5194 -0.1560
10047SOL    HW130840   0.632   3.918   2.400 -0.8124 -1.2285 -1.0879
10047SOL    HW230841   0.724   3.878   2.513  0.3670  0.9202 -1.2329
10048SOL     OW30842   0.567   3.491   2.000 -0.4796  0.6616  0.1845
10048SOL    HW130843   0.660   3.482   2.020 -0.4678 -1.7289 -0.6416
10048SOL    HW230844   0.559   3.578   1.961  1.6363  0.4626 -0.8377
10049SOL     OW30845   3.700   5.892   1.108  0.0782  0.5005  0.1319
10049SOL    HW130846   3.701   5.798   1.089  0.0373  0.2508  1.2763
10049SOL    HW230847   3.685   5.934   1.023 -0.7211 -0.5553 -0.2719
10050SOL     OW30848   7.341   1.368   4.367 -0.8307 -0.1974 -0.0114
10050SOL    HW130849   7.267   1.341   4.420  0.1198 -1.0208  0.9350
10050SOL    HW230850   7.301   1.403   4.287 -2.2315 -0.3895  0.5696
10051SOL     OW30851   6.824   6.548   6.837  0.5133  0.4048 -0.4686
10051SOL    HW130852   6.820   6.639   6.867  0.3767  0.7062 -1.3681
10051SOL    HW230853   6.916   6.523   6.846  0.2788  0.0289  1.4481
10052SOL     OW30854   7.174   2.899   2.673 -0.1068 -0.8350 -0.3880
10052SOL    HW130855   7.089   2.857   2.685 -1.3952  1.8443  0.6326
10052SOL    HW230856   7.177   2.967   2.741  1.8665  0.5827 -1.7813
10053SOL     OW30857   6.280   7.752   1.926  0.5053 -0.8770  0.0633
10053SOL    HW130858   6.336   7.752   1.848  1.2166  0.6770  0.5385
10053SOL    HW230859   6.191   7.748   1.892  0.8054 -0.2000 -0.8304
10054SOL     OW30860   1.720   0.853   3.819  0.2716 -0.1561 -0.1305
10054SOL    HW130861   1.779   0.805   3.877  0.3097 -1.1794 -0.9729
10054SOL    HW230862   1.641   0.799   3.815  0.1966 -0.0062 -0.8567
10055SOL     OW30863   0.312   7.862   5.065  0.2491  0.3423 -0.0896
10055SOL    HW130864   0.326   7.855   4.970  1.7131  0.9677  0.0451
10055SOL    HW230865   0.226   7.824   5.079 -0.2059  0.6540 -1.7343
10056SOL     OW30866   3.996   3.872   2.585 -0.2970 -0.0472 -0.5527
10056SOL    HW130867   3.962   3.861   2.674 -0.7113 -1.8144 -0.8933
10056SOL    HW230868   4.075   3.926   2.596  2.2267 -3.7169  1.5462
10057SOL     OW30869   5.803   5.096   5.081  0.3178  0.3790 -0.3970
10057SOL    HW130870   5.819   5.143   4.999  1.2071 -0.5505 -0.7754
10057SOL    HW230871   5.880   5.041   5.093 -0.8606 -1.3097 -0.1946
10058SOL     OW30872   7.546   3.203   7.507 -0.1679  0.2175  0.3551
10058SOL    HW130873   7.507   3.208   7.419  0.9423  0.2209 -0.1529
10058SOL    HW230874   7.621   3.263   7.503  0.6143 -0.7050  0.9142
10059SOL     OW30875   3.872   5.184   0.788  0.3808 -0.5485  0.5791
10059SOL    HW130876   3.780   5.167   0.809  0.3559  0.7482  1.7009
10059SOL    HW230877   3.869   5.240   0.710  0.0965  1.0647  1.7012
10060SOL     OW30878   6.079   6.983   0.340  0.2261 -0.2479  0.2564
10060SOL    HW130879   6.125   7.006   0.259 -0.6427  1.5854  0.2318
10060SOL    HW230880   6.052   7.067   0.377 -2.1777 -1.1903  0.8111
10061SOL     OW30881   0.856   0.527   5.120  0.2666 -0.2843  0.5354
10061SOL    HW130882   0.920   0.596   5.103 -0.6072  0.3980 -0.0730
10061SOL    HW230883   0.881   0.492   5.205  1.7670 -0.4079  0.0839
10062SOL     OW30884   4.682   2.354   7.001  0.4465  0.3495  0.0453
10062SOL    HW130885   4.770   2.358   7.037  0.1197 -0.7070  0.9938
10062SOL    HW230886   4.648   2.443   7.012  1.6150  0.9623 -0.9793
10063SOL     OW30887   4.841   4.532   0.428 -0.1036  0.3102  0.0909
10063SOL    HW130888   4.936   4.533   0.434  0.1181  0.1653 -2.3135
10063SOL    HW230889   4.823   4.498   0.340 -2.3538  1.1409  0.1584
10064SOL     OW30890   2.928   3.906   1.825 -0.1993 -0.0265  0.1047
10064SOL    HW130891   2.904   3.815   1.808  0.4458 -0.0956 -0.4938
10064SOL    HW230892   2.844   3.953   1.828 -0.4542 -0.2959 -1.6906
10065SOL     OW30893   7.560   1.451   0.350 -1.0983  0.3481  0.3355
10065SOL    HW130894   7.568   1.356   0.340  0.6144  0.3653  1.1375
10065SOL    HW230895   7.499   1.463   0.423 -1.3284 -0.1416  0.2249
10066SOL     OW30896   3.977   2.925   6.085  0.7366 -0.3540 -0.4160
10066SOL    HW130897   3.910   2.946   6.020  0.2399 -0.2603  0.1157
10066SOL    HW230898   3.986   2.830   6.079 -0.2596 -0.5102  0.2689
10067SOL     OW30899   2.531   2.473   6.499 -0.3806  0.2920 -0.1338
10067SOL    HW130900   2.612   2.492   6.451 -0.6313  1.7310 -0.0180
10067SOL    HW230901   2.517   2.549   6.555 -0.6220 -0.9363  1.5386
10068SOL     OW30902   2.682   7.126   3.386 -0.5818 -0.0035 -0.3331
10068SOL    HW130903   2.592   7.158   3.382 -1.9226 -2.2449  4.5927
10068SOL    HW230904   2.675   7.031   3.375  1.4135 -0.1220 -1.0585
10069SOL     OW30905   4.007   7.128   6.536  0.0035  0.4650  0.0645
10069SOL    HW130906   3.916   7.122   6.507  0.9118 -0.6619 -2.9653
10069SOL    HW230907   4.028   7.040   6.565  1.2300 -0.5860 -3.4670
10070SOL     OW30908   6.602   7.931   0.565 -0.2320 -0.7816 -0.1945
10070SOL    HW130909   6.690   7.903   0.591  0.8599  1.4911 -1.2105
10070SOL    HW230910   6.592   7.898   0.476 -0.2026 -0.5809 -0.2711
10071SOL     OW30911   4.433   3.801   3.964  0.2256  0.5638 -0.0858
10071SOL    HW130912   4.403   3.811   4.054 -1.0054 -2.2269 -0.0796
10071SOL    HW230913   4.384   3.725   3.930  1.8510  0.4905 -2.5695
10072SOL     OW30914   2.732   3.416   2.866  0.1884  0.2982 -0.2280
10072SOL    HW130915   2.642   3.414   2.832  0.6782 -1.4609 -1.6222
10072SOL    HW230916   2.767   3.500   2.837 -0.5941  0.4141 -0.8730
10073SOL     OW30917   5.398   3.372   2.336  0.0716 -0.0183  0.3187
10073SOL    HW130918   5.352   3.316   2.274 -0.3889  1.1245 -0.4028
10073SOL    HW230919   5.489   3.375   2.303 -0.1548  0.5306 -0.2930
10074SOL     OW30920   3.109   0.381   5.212 -0.3918 -0.1905  0.5128
10074SOL    HW130921   3.149   0.373   5.299 -0.2544 -1.0004  0.3771
10074SOL    HW230922   3.026   0.334   5.219 -0.5635  0.0786  0.3157
10075SOL     OW30923   4.420   1.290   1.549  0.1324 -0.2358  0.6733
10075SOL    HW130924   4.378   1.253   1.627 -1.8852 -1.3025 -0.8259
10075SOL    HW230925   4.424   1.217   1.487  2.2788  0.4168 -0.0579
10076SOL     OW30926   1.324   5.795   1.835  0.1479  0.2678 -0.3344
10076SOL    HW130927   1.318   5.798   1.931 -1.1522  0.5193 -0.4005
10076SOL    HW230928   1.380   5.869   1.813 -1.3929  1.6632  0.1483
10077SOL     OW30929   0.169   6.803   4.386  0.8536 -0.1134 -0.3048
10077SOL    HW130930   0.080   6.807   4.352  0.6795  0.9731  0.2346
10077SOL    HW230931   0.187   6.892   4.417  1.8574 -0.4935  0.2544
10078SOL     OW30932   5.519   3.842   5.926 -0.2738 -0.5229  0.1192
10078SOL    HW130933   5.500   3.868   6.016  0.4398  1.3788 -0.2311
10078SOL    HW230934   5.580   3.769   5.934  1.0108  0.6036  1.2377
10079SOL     OW30935   2.355   3.298   6.383  1.1406 -0.2992 -0.0257
10079SOL    HW130936   2.435   3.246   6.379  1.4936  0.1920  0.5515
10079SOL    HW230937   2.285   3.234   6.398  1.8219 -0.4647  3.0584
10080SOL     OW30938   4.890   7.624   2.232  0.2051 -0.3536  0.6665
10080SOL    HW130939   4.938   7.548   2.265 -1.2141 -1.1309  1.0553
10080SOL    HW230940   4.905   7.623   2.138  2.1349  0.3150  0.9310
10081SOL     OW30941   7.474   1.737   0.358  0.6218 -0.1220  0.1229
10081SOL    HW130942   7.487   1.805   0.292 -1.3353 -3.4987 -4.2910
10081SOL    HW230943   7.558   1.692   0.363  0.1302 -1.4715 -2.3559
10082SOL     OW30944   1.180   4.006   5.093 -0.0956  0.2106 -0.0824
10082SOL    HW130945   1.195   3.911   5.093 -1.7542 -0.0929 -0.9161
10082SOL    HW230946   1.191   4.032   5.001 -1.0884  0.5554 -0.1149
10083SOL     OW30947   4.847   7.172   4.278  1.0810  0.2615  0.2061
10083SOL    HW130948   4.857   7.210   4.365  0.6357 -0.4199  0.5641
10083SOL    HW230949   4.878   7.082   4.286  2.5688  0.6575 -0.7547
10084SOL     OW30950   5.836   2.432   5.049  0.3273  0.8213  0.2464
10084SOL    HW130951   5.811   2.462   4.962  2.0357 -0.1123 -0.6111
10084SOL    HW230952   5.889   2.502   5.085  1.5669  0.2665 -0.4358
10085SOL     OW30953   1.422   0.166   0.288 -0.4222  0.1093 -0.2844
10085SOL    HW130954   1.505   0.187   0.331 -0.9270  1.5809  0.0228
10085SOL    HW230955   1.448   0.119   0.208  0.6220 -0.8004  0.5505
10086SOL     OW30956   7.524   1.885   0.141  0.2865  0.3892 -0.1619
10086SOL    HW130957   7.612   1.920   0.155  0.3279  2.0194 -3.4824
10086SOL    HW230958   7.478   1.954   0.092 -2.7116 -0.6213  0.9905
10087SOL     OW30959   1.487   2.410   7.686 -0.6220  0.1799 -0.0496
10087SOL    HW130960   1.420   2.396   7.619 -1.1547 -0.8565  0.6734
10087SOL    HW230961   1.542   2.480   7.651 -1.0928 -0.1078 -1.4090
10088SOL     OW30962   1.411   6.063   6.361  0.7697 -0.4412  0.5438
10088SOL    HW130963   1.355   6.123   6.411  0.1671 -1.1948  0.7822
10088SOL    HW230964   1.448   6.117   6.291  1.6069  0.6357  1.7718
10089SOL     OW30965   5.373   7.057   6.343 -0.6247  0.3806  0.2677
10089SOL    HW130966   5.446   7.016   6.297 -0.2661 -0.2019  1.3467
10089SOL    HW230967   5.301   7.054   6.279 -0.2117 -0.6479 -0.1743
10090SOL     OW30968   6.860   2.515   4.295 -0.1211 -0.2670 -0.3900
10090SOL    HW130969   6.778   2.555   4.266 -0.1577 -0.6610 -0.8301
10090SOL    HW230970   6.842   2.486   4.385  0.5585  2.6052  0.7849
10091SOL     OW30971   3.254   6.166   7.500 -0.5124 -0.0947  0.7168
10091SOL    HW130972   3.251   6.073   7.475 -0.8367 -0.0464  0.5679
10091SOL    HW230973   3.253   6.165   7.596 -0.4346 -0.2468  0.7171
10092SOL     OW30974   6.564   6.714   4.650  0.4207  0.2139  0.2896
10092SOL    HW130975   6.492   6.711   4.712 -0.0306  2.3219 -0.0305
10092SOL    HW230976   6.523   6.735   4.566  1.3109  0.6744 -0.0521
10093SOL     OW30977   6.791   1.661   2.383  0.5042 -0.4773  0.3341
10093SOL    HW130978   6.855   1.622   2.443  1.7716  0.6465 -0.2065
10093SOL    HW230979   6.746   1.727   2.436  3.5102  2.4957 -0.4037
10094SOL     OW30980   3.149   2.857   4.435  0.2384 -0.0317 -0.0792
10094SOL    HW130981   3.206   2.840   4.359  1.2976 -0.5618  0.8098
10094SOL    HW230982   3.060   2.847   4.401  0.6860 -0.0143 -1.3084
10095SOL     OW30983   1.161   5.902   2.396 -0.0308 -0.1062  0.5766
10095SOL    HW130984   1.189   5.885   2.486 -0.6863 -3.1670  0.3007
10095SOL    HW230985   1.186   5.823   2.347 -1.1589  0.7735 -1.5859
10096SOL     OW30986   0.657   0.378   3.198  0.1519 -0.0235 -0.2506
10096SOL    HW130987   0.708   0.360   3.277  0.5085  0.2324 -0.4244
10096SOL    HW230988   0.575   0.416   3.231 -1.0603 -2.7856  0.2149
10097SOL     OW30989   7.133   4.056   7.450 -0.0204 -0.4170 -0.2138
10097SOL    HW130990   7.121   4.113   7.374 -0.8320  0.1678  0.3279
10097SOL    HW230991   7.207   4.093   7.498  1.5297 -1.7047 -1.5036
10098SOL     OW30992   6.779   6.667   5.802  0.7781 -0.1978  0.3014
10098SOL    HW130993   6.841   6.607   5.843 -0.3421 -1.3423  0.3833
10098SOL    HW230994   6.694   6.627   5.816  0.2137  0.0408 -1.9345
10099SOL     OW30995   4.771   3.256   2.214 -0.2099 -0.2845  0.3415
10099SOL    HW130996   4.726   3.220   2.291  0.5714 -1.7677  0.1339
10099SOL    HW230997   4.857   3.280   2.247  0.6126 -2.1946 -0.3301
10100SOL     OW30998   4.509   3.982   3.781 -0.0018  0.2339 -0.0261
10100SOL    HW130999   4.581   3.937   3.738  0.2241  1.5241 -1.0445
10100SOL    HW231000   4.472   3.916   3.840 -1.1405 -2.1083 -3.0659
10101SOL     OW31001   4.836   6.110   6.875  0.1259 -0.1609 -0.0235
10101SOL    HW131002   4.901   6.153   6.820  0.8488 -0.4995  0.5531
10101SOL    HW231003   4.873   6.113   6.963 -1.9103  2.1660  0.8618
10102SOL     OW31004   5.758   6.524   1.654 -0.2149  0.1348  0.1678
10102SOL    HW131005   5.710   6.451   1.693  0.7973 -0.3997  0.4486
10102SOL    HW231006   5.804   6.564   1.728  0.4756  0.0825 -0.2335
10103SOL     OW31007   4.359   7.576   7.829  0.0528  0.0687  0.3232
10103SOL    HW131008   4.270   7.559   7.860  0.9602  0.6080  3.4877
10103SOL    HW231009   4.404   7.492   7.835  0.0131 -0.0204 -0.4795
10104SOL     OW31010   4.321   5.569   6.643  1.0516  0.0510  0.2204
10104SOL    HW131011   4.251   5.544   6.582 -0.1753 -1.1514  2.0136
10104SOL    HW231012   4.402   5.550   6.595  0.1451 -1.4395 -0.8282
10105SOL     OW31013   6.954   6.504   2.097 -0.5446 -0.0474  0.1974
10105SOL    HW131014   6.873   6.548   2.073 -0.9720 -1.5247 -1.2879
10105SOL    HW231015   6.994   6.481   2.013  0.6970 -0.5975  0.9110
10106SOL     OW31016   5.674   3.658   5.181 -0.5295 -0.8093 -0.6999
10106SOL    HW131017   5.693   3.665   5.088  1.4005 -2.0157 -0.4511
10106SOL    HW231018   5.618   3.733   5.200 -1.4254 -0.8454 -2.9189
10107SOL     OW31019   0.512   2.940   6.456 -0.3861  0.3764  0.4119
10107SOL    HW131020   0.491   2.846   6.458 -0.6741  0.4483  0.6629
10107SOL    HW231021   0.577   2.951   6.525  0.3841  0.1849 -0.2575
10108SOL     OW31022   6.106   3.817   6.757  0.2464  0.5618  0.5304
10108SOL    HW131023   6.185   3.763   6.747  1.8303  2.4825  1.7588
10108SOL    HW231024   6.075   3.796   6.845  0.2863  0.8761  0.6227
10109SOL     OW31025   7.487   0.838   3.678  0.2359 -0.0017  0.5942
10109SOL    HW131026   7.450   0.926   3.670 -1.3320 -0.3842  2.6960
10109SOL    HW231027   7.459   0.808   3.764  2.1114 -1.9628  0.6049
10110SOL     OW31028   4.613   1.467   1.675 -0.5021 -0.0960  0.4390
10110SOL    HW131029   4.665   1.484   1.596  0.0478  2.6113  1.2742
10110SOL    HW231030   4.559   1.391   1.652  1.6460 -1.1548 -1.5078
10111SOL     OW31031   0.075   4.219   4.943  0.1006  0.1691  0.7924
10111SOL    HW131032   0.070   4.313   4.924  0.8690 -0.0147 -0.4771
10111SOL    HW231033   0.030   4.209   5.026  0.1466  1.6911  1.0368
10112SOL     OW31034   6.848   3.659   4.619  0.7277  0.2893 -0.0683
10112SOL    HW131035   6.831   3.587   4.680 -0.7071  1.5678  1.1238
10112SOL    HW231036   6.816   3.627   4.535  1.2332 -0.9114  0.1762
10113SOL     OW31037   6.462   6.971   0.352 -0.6166 -0.4059 -0.2387
10113SOL    HW131038   6.535   6.909   0.356  1.3903  1.1419 -4.9890
10113SOL    HW231039   6.413   6.943   0.275 -2.2920  1.3382  0.1351
10114SOL     OW31040   4.229   2.539   7.256  0.4213 -0.3070 -0.1073
10114SOL    HW131041   4.135   2.553   7.267  0.1701 -1.9739  0.0629
10114SOL    HW231042   4.269   2.584   7.330 -0.2028  0.7094 -0.3730
10115SOL     OW31043   1.929   5.389   6.240 -0.0801 -0.9501 -0.2271
10115SOL    HW131044   1.858   5.427   6.291  0.1750 -0.2320 -0.3959
10115SOL    HW231045   1.970   5.463   6.196  0.4970 -1.4083 -0.4827
10116SOL     OW31046   1.337   2.944   5.806 -0.0531  0.2520 -0.8135
10116SOL    HW131047   1.243   2.953   5.823  0.0552 -0.6240  0.4704
10116SOL    HW231048   1.351   2.849   5.805  0.9948  0.3700  0.2617
10117SOL     OW31049   0.204   4.155   0.540 -0.0604 -0.0642 -0.2088
10117SOL    HW131050   0.289   4.160   0.496 -0.3606 -1.9737 -1.1212
10117SOL    HW231051   0.142   4.195   0.479  0.1326  1.2407  0.4151
10118SOL     OW31052   3.074   0.709   1.481 -0.7693 -0.1400 -0.2837
10118SOL    HW131053   3.142   0.768   1.449 -1.3927  1.0854  0.5591
10118SOL    HW231054   3.021   0.763   1.539 -0.9660 -1.7065  1.0880
10119SOL     OW31055   4.662   1.999   4.354  0.0862  0.1847  0.2039
10119SOL    HW131056   4.618   1.924   4.314 -0.2196 -0.3787  1.5592
10119SOL    HW231057   4.746   1.964   4.385  1.0865  1.0134 -1.4386
10120SOL     OW31058   7.219   7.546   0.465  0.2091 -0.7244 -0.2883
10120SOL    HW131059   7.184   7.524   0.379  0.8576 -0.3443 -0.6600
10120SOL    HW231060   7.300   7.495   0.471  0.8768  0.2854 -0.4805
10121SOL     OW31061   6.752   7.412   4.023  0.0542 -0.2606  0.2158
10121SOL    HW131062   6.802   7.332   4.006 -0.9493 -0.3325 -2.9684
10121SOL    HW231063   6.661   7.383   4.029 -0.1497  0.4654  0.8279
10122SOL     OW31064   2.525   5.728   7.156  0.1000  0.1406  0.9188
10122SOL    HW131065   2.595   5.726   7.221 -0.3013 -1.7480  1.3604
10122SOL    HW231066   2.510   5.821   7.139  3.1859  0.6077  0.2514
10123SOL     OW31067   4.470   7.311   5.075 -0.3694  0.1238 -0.1413
10123SOL    HW131068   4.529   7.353   5.013  1.3836 -0.0917  1.2903
10123SOL    HW231069   4.429   7.240   5.025  3.5400 -2.2910 -0.3703
10124SOL     OW31070   7.614   5.547   7.959  0.1849  0.1017 -0.2957
10124SOL    HW131071   7.534   5.589   7.993 -0.0615 -1.4851  1.2653
10124SOL    HW231072   7.582   5.483   7.896  0.4669  1.3222 -1.7228
10125SOL     OW31073   2.873   4.859   4.617  0.0495 -0.0804  0.3917
10125SOL    HW131074   2.905   4.771   4.637  1.0125  0.2292  0.2642
10125SOL    HW231075   2.788   4.864   4.660 -0.7775 -1.6424 -0.9432
10126SOL     OW31076   7.520   5.613   5.811  0.0951  0.4278 -0.2118
10126SOL    HW131077   7.435   5.633   5.773 -1.1167 -1.6503  1.2137
10126SOL    HW231078   7.551   5.697   5.845 -1.9802  1.0480  0.3130
10127SOL     OW31079   5.842   6.817   3.432  0.1225 -0.4250 -0.5893
10127SOL    HW131080   5.810   6.728   3.448 -1.2344  0.0645 -0.3916
10127SOL    HW231081   5.765   6.873   3.446  1.4442  1.0243  1.5809
10128SOL     OW31082   4.596   7.163   5.279 -0.0273  0.2472  0.1285
10128SOL    HW131083   4.588   7.195   5.369 -1.7147 -0.8997  0.4371
10128SOL    HW231084   4.534   7.216   5.229 -0.3142 -0.2166 -0.0156
10129SOL     OW31085   1.523   0.029   4.793  0.2760  0.1775  0.3156
10129SOL    HW131086   1.615   0.007   4.807  0.9840  1.8954 -1.1837
10129SOL    HW231087   1.523   0.123   4.776 -1.4280 -0.1505 -2.0874
10130SOL     OW31088   5.601   2.813   5.522 -0.2779  0.1070  0.3265
10130SOL    HW131089   5.632   2.731   5.560 -0.4134  1.1995  2.9904
10130SOL    HW231090   5.509   2.818   5.548  0.4317  2.4203  2.9174
10131SOL     OW31091   1.962   1.490   1.798 -0.6801 -0.0003 -0.5802
10131SOL    HW131092   1.941   1.397   1.809 -0.9137  0.1583  0.5134
10131SOL    HW231093   1.916   1.517   1.719 -1.0771 -0.6872 -0.5889
10132SOL     OW31094   5.107   2.846   0.768  0.2121  0.4086  0.0985
10132SOL    HW131095   5.175   2.827   0.703  0.2592 -1.6657  0.6759
10132SOL    HW231096   5.126   2.787   0.841 -0.2586  2.1776  1.7263
10133SOL     OW31097   2.022   3.457   1.603  0.2757 -0.4599  0.1815
10133SOL    HW131098   1.947   3.495   1.650 -1.5854 -0.9163 -2.2337
10133SOL    HW231099   2.000   3.467   1.511  3.2078 -0.7110 -0.6347
10134SOL     OW31100   3.943   3.216   2.195  0.0417  0.4757  0.2629
10134SOL    HW131101   3.867   3.171   2.157 -1.3157  2.2468  0.7699
10134SOL    HW231102   3.925   3.218   2.289 -0.9027  3.5890  0.1343
10135SOL     OW31103   3.559   6.275   6.257 -0.7760 -0.0862  0.0680
10135SOL    HW131104   3.598   6.274   6.345  0.6317 -0.5999 -0.5456
10135SOL    HW231105   3.471   6.239   6.270 -0.6836  0.0886  1.3014
10136SOL     OW31106   1.061   3.026   7.619  0.4570 -0.3925 -0.1444
10136SOL    HW131107   0.999   2.970   7.573 -0.3457 -0.4263  0.9333
10136SOL    HW231108   1.109   3.072   7.550 -0.2574 -0.9180 -1.0015
10137SOL     OW31109   4.277   1.898   3.657 -0.0461  0.1240  0.6610
10137SOL    HW131110   4.360   1.946   3.666 -0.2956  0.6731  0.1153
10137SOL    HW231111   4.225   1.926   3.733  0.3142 -0.3350  1.0862
10138SOL     OW31112   2.314   1.697   2.161  0.2237  0.1829  0.2044
10138SOL    HW131113   2.325   1.735   2.074 -0.8494  0.8445  0.3345
10138SOL    HW231114   2.376   1.624   2.163 -0.5779 -0.6253 -1.5718
10139SOL     OW31115   7.585   3.094   3.099 -0.8977  0.4610  0.4694
10139SOL    HW131116   7.544   3.158   3.042  0.3192  0.7299 -0.1457
10139SOL    HW231117   7.582   3.132   3.187  1.2212  2.1530 -0.1053
10140SOL     OW31118   6.472   4.469   6.632  0.2249  0.2382 -0.5266
10140SOL    HW131119   6.395   4.431   6.674  1.0432 -0.6236  0.2534
10140SOL    HW231120   6.499   4.402   6.569 -0.6149  1.2459 -2.0111
10141SOL     OW31121   7.388   0.456   0.794  0.0317  0.2193  0.0420
10141SOL    HW131122   7.427   0.522   0.851 -0.6063 -0.4291  1.2741
10141SOL    HW231123   7.456   0.436   0.729  1.6511 -0.6149  1.9000
10142SOL     OW31124   6.930   4.000   3.994 -0.2429 -0.0189  0.1335
10142SOL    HW131125   6.893   3.942   3.927 -2.5751  0.1838  1.1736
10142SOL    HW231126   7.001   3.950   4.032 -0.4168 -1.0775 -0.8737
10143SOL     OW31127   2.581   3.583   5.645  0.5507  0.6072  0.0285
10143SOL    HW131128   2.493   3.559   5.675  0.3121  0.0540 -1.0251
10143SOL    HW231129   2.606   3.511   5.586  1.1385  1.4270 -0.7526
10144SOL     OW31130   5.816   6.369   6.886 -0.0253 -0.4094 -0.1157
10144SOL    HW131131   5.764   6.307   6.937 -2.9362  0.5791 -1.6686
10144SOL    HW231132   5.891   6.389   6.943 -2.2947 -0.4310  3.1669
10145SOL     OW31133   3.484   4.746   1.906  0.0881 -0.4616  0.4608
10145SOL    HW131134   3.527   4.709   1.982  1.8482  0.5160 -0.0125
10145SOL    HW231135   3.544   4.732   1.834 -1.2114 -0.6921 -0.6224
10146SOL     OW31136   1.509   5.211   2.485  0.4081 -0.0562 -0.3467
10146SOL    HW131137   1.416   5.190   2.491  0.1013  1.6637  1.5399
10146SOL    HW231138   1.513   5.289   2.431  0.7635 -0.0981 -0.3857
10147SOL     OW31139   5.459   6.209   7.073 -0.3952  0.3144 -0.1123
10147SOL    HW131140   5.524   6.276   7.096 -2.3596  1.8662  1.2278
10147SOL    HW231141   5.417   6.187   7.156 -2.2532  0.0835 -1.0646
10148SOL     OW31142   3.300   2.182   1.090  0.9141  0.1116  0.0622
10148SOL    HW131143   3.218   2.232   1.084  1.2980  0.7586  0.0706
10148SOL    HW231144   3.367   2.248   1.108  1.2122 -0.6028  1.7218
10149SOL     OW31145   0.102   1.411   5.033 -0.2152 -0.5978  1.0950
10149SOL    HW131146   0.089   1.355   4.957  2.1455 -1.6589  1.3650
10149SOL    HW231147   0.014   1.439   5.058 -1.0467  0.7829 -2.6713
10150SOL     OW31148   0.851   0.350   6.835 -0.1252 -0.0490  0.3455
10150SOL    HW131149   0.858   0.341   6.930 -0.3701  1.6262  0.5507
10150SOL    HW231150   0.938   0.327   6.802  0.0650 -0.3007  1.0113
10151SOL     OW31151   7.648   5.898   5.806  0.0914  0.7291 -0.2318
10151SOL    HW131152   7.600   5.979   5.791 -1.7906 -0.2769  0.1009
10151SOL    HW231153   7.728   5.908   5.754 -0.6879  2.2638 -1.2208
10152SOL     OW31154   1.849   5.547   0.488  0.3097 -0.0951 -0.7576
10152SOL    HW131155   1.775   5.549   0.427  0.7262  1.6382 -1.2691
10152SOL    HW231156   1.901   5.624   0.464  1.1820 -0.1178  0.9443
10153SOL     OW31157   0.297   7.891   6.760  0.0186 -0.1559  0.3825
10153SOL    HW131158   0.353   7.817   6.736 -2.0279 -1.4381 -0.7030
10153SOL    HW231159   0.290   7.943   6.681  0.6208  0.6634  0.8552
10154SOL     OW31160   2.755   6.249   3.340  0.0282 -0.3465  0.2807
10154SOL    HW131161   2.688   6.226   3.276  0.6114  1.8311 -1.2103
10154SOL    HW231162   2.802   6.167   3.357 -0.1758 -1.0043 -2.0621
10155SOL     OW31163   7.955   2.110   3.266  0.1207  0.1882  0.3298
10155SOL    HW131164   7.870   2.111   3.223  0.4100  0.8388 -0.2477
10155SOL    HW231165   8.011   2.164   3.210  1.4464 -1.8302 -0.3957
10156SOL     OW31166   2.281   5.862   2.368 -0.0133 -0.0801 -0.0582
10156SOL    HW131167   2.257   5.926   2.436  2.7902  0.6396  0.3862
10156SOL    HW231168   2.265   5.908   2.286 -0.0506  0.3873  0.2032
10157SOL     OW31169   6.078   6.276   2.304  0.4856  0.0063 -0.5539
10157SOL    HW131170   6.163   6.286   2.348  0.4092 -0.5896 -0.2576
10157SOL    HW231171   6.015   6.266   2.376  0.1705  0.3981 -0.7745
10158SOL     OW31172   0.779   2.484   7.732 -0.2350  0.6314  0.2010
10158SOL    HW131173   0.694   2.510   7.767  0.1016  1.5816  0.3541
10158SOL    HW231174   0.791   2.394   7.762 -2.4343 -0.5821 -2.2242
10159SOL     OW31175   5.183   7.921   7.469  0.2843 -0.2751 -0.2938
10159SOL    HW131176   5.209   8.003   7.427 -1.1525 -0.5396 -1.7955
10159SOL    HW231177   5.138   7.949   7.549 -0.2321  0.4087 -0.8096
10160SOL     OW31178   5.160   4.761   6.583 -0.1996 -0.3274 -0.5215
10160SOL    HW131179   5.130   4.828   6.521 -0.6278 -2.7192 -3.0878
10160SOL    HW231180   5.233   4.803   6.630 -0.5063  1.9380 -1.9141
10161SOL     OW31181   1.076   2.000   2.396  0.4585  0.0142 -0.2344
10161SOL    HW131182   1.125   2.074   2.432 -1.7497  0.6810  1.6631
10161SOL    HW231183   1.019   1.973   2.468  0.0953 -2.5669 -1.4003
10162SOL     OW31184   6.912   6.281   2.618  0.0584  0.9119  0.0421
10162SOL    HW131185   7.007   6.287   2.605  0.5781 -1.7584  1.7642
10162SOL    HW231186   6.900   6.199   2.667 -2.9255  2.3335  1.9987
10163SOL     OW31187   7.467   5.671   1.691 -0.1500  0.0127 -0.3322
10163SOL    HW131188   7.485   5.588   1.646  1.1036 -0.1668  0.4322
10163SOL    HW231189   7.413   5.646   1.766  0.5553 -0.1816  0.1181
10164SOL     OW31190   7.337   0.433   3.419 -0.3142 -0.2743  0.2799
10164SOL    HW131191   7.380   0.348   3.433  0.9898 -0.1928 -2.5779
10164SOL    HW231192   7.365   0.486   3.494  0.3405 -1.7963  1.1642
10165SOL     OW31193   1.923   3.937   5.678 -0.3414  0.2750  0.5557
10165SOL    HW131194   1.940   3.848   5.710 -0.0522  0.4146  0.7898
10165SOL    HW231195   1.942   3.993   5.752  0.5782  0.6261  0.0656
10166SOL     OW31196   1.307   2.884   7.619 -0.2830  0.1335 -0.8222
10166SOL    HW131197   1.358   2.926   7.689  0.2836  0.2443 -1.2985
10166SOL    HW231198   1.227   2.935   7.614  0.4150  1.2004 -1.4196
10167SOL     OW31199   3.067   0.597   4.522 -0.7357  0.5211  0.0380
10167SOL    HW131200   3.056   0.538   4.448 -0.6449  1.0360 -0.3953
10167SOL    HW231201   3.078   0.683   4.482  3.1146  0.4044  0.4114
10168SOL     OW31202   7.833   1.877   3.015  0.0805 -0.2236  0.4433
10168SOL    HW131203   7.905   1.847   3.070 -0.6251 -0.1727  1.4227
10168SOL    HW231204   7.827   1.971   3.032  0.5906  0.0229 -0.6193
10169SOL     OW31205   1.018   2.382   0.694 -0.1864  0.5144 -0.1444
10169SOL    HW131206   1.085   2.407   0.756 -0.4855 -0.8460  0.7671
10169SOL    HW231207   0.947   2.445   0.708  0.3152  1.0719 -0.1044
10170SOL     OW31208   0.012   6.381   3.065  0.2753 -0.9326 -0.3429
10170SOL    HW131209   0.082   6.445   3.070  0.0730 -0.7437  0.0840
10170SOL    HW231210  -0.069   6.431   3.077 -0.0021 -1.0156 -1.7018
10171SOL     OW31211   4.562   3.952   0.474  0.2304 -0.2194  0.0173
10171SOL    HW131212   4.524   4.002   0.402 -0.0082 -1.3635 -0.6720
10171SOL    HW231213   4.648   3.992   0.488  0.5257 -0.3633 -1.3073
10172SOL     OW31214   6.962   1.453   6.660  0.8131  0.2265 -0.3328
10172SOL    HW131215   6.917   1.418   6.737 -0.1082 -1.2402 -1.4816
10172SOL    HW231216   7.055   1.441   6.680  0.6133  0.4238  0.7932
10173SOL     OW31217   2.424   0.880   7.337  0.2719  0.0030  0.1485
10173SOL    HW131218   2.496   0.931   7.298 -0.6657  1.5060  0.3075
10173SOL    HW231219   2.419   0.911   7.427  1.1300 -2.0342  0.9577
10174SOL     OW31220   4.977   6.913   7.545 -0.7788  0.2896 -0.8549
10174SOL    HW131221   5.014   7.000   7.533 -2.3835  1.0117 -0.7558
10174SOL    HW231222   5.034   6.856   7.493  0.5258  1.3148 -0.5978
10175SOL     OW31223   1.200   7.552   4.164 -0.4027  0.0759  0.1140
10175SOL    HW131224   1.200   7.537   4.259  0.1954 -0.3780  0.0488
10175SOL    HW231225   1.108   7.540   4.138 -0.2791 -1.7225  0.3540
10176SOL     OW31226   0.647   1.717   0.427  0.0193 -0.1032  0.4063
10176SOL    HW131227   0.557   1.686   0.420  0.5821 -1.8838  0.4351
10176SOL    HW231228   0.671   1.699   0.518  0.2285  0.9313  0.5694
10177SOL     OW31229   3.887   0.702   2.910  0.2481 -0.0042 -0.1875
10177SOL    HW131230   3.870   0.614   2.878  2.2222 -0.0904 -1.1699
10177SOL    HW231231   3.944   0.691   2.986 -0.4732  0.3874  0.4191
10178SOL     OW31232   3.665   4.566   6.022 -1.2032 -0.5849 -0.8669
10178SOL    HW131233   3.655   4.567   6.118  0.5149  1.4930 -0.6276
10178SOL    HW231234   3.712   4.485   6.004 -1.3906 -0.9196  0.0790
10179SOL     OW31235   0.427   5.359   0.389 -0.0686 -0.0382  0.5075
10179SOL    HW131236   0.387   5.306   0.320  0.9155  0.3638 -0.4041
10179SOL    HW231237   0.465   5.296   0.449  1.4647 -0.4088 -0.7834
10180SOL     OW31238   5.006   7.902   5.367 -0.1214 -0.4060 -0.0641
10180SOL    HW131239   5.032   7.876   5.455 -0.5598  0.6616  0.3861
10180SOL    HW231240   5.011   7.820   5.316  0.1065 -1.0364  0.9411
10181SOL     OW31241   3.106   5.189   3.334 -0.0001  0.2398 -0.1008
10181SOL    HW131242   3.152   5.271   3.313  1.8625 -0.4071  1.1437
10181SOL    HW231243   3.034   5.185   3.271 -0.4059  3.0146  0.0464
10182SOL     OW31244   6.098   3.784   7.093 -0.1079  0.2349 -0.4121
10182SOL    HW131245   6.137   3.802   7.178  1.7266  1.6967 -1.4900
10182SOL    HW231246   6.029   3.850   7.084  0.4119  0.7709 -0.4965
10183SOL     OW31247   7.262   1.397   5.615  0.1583 -0.0883 -0.2179
10183SOL    HW131248   7.200   1.388   5.688 -0.6669 -0.6146 -0.9589
10183SOL    HW231249   7.219   1.457   5.554 -0.1641 -1.3573 -1.2760
10184SOL     OW31250   5.142   6.474   6.352 -0.2460 -0.1026 -0.2197
10184SOL    HW131251   5.156   6.550   6.295 -0.1109  0.4559  0.5304
10184SOL    HW231252   5.190   6.403   6.310 -0.3455  0.2332 -0.9224
10185SOL     OW31253   0.251   5.943   2.879  0.0701 -0.0350 -0.0058
10185SOL    HW131254   0.160   5.919   2.861 -0.3564 -0.0487  1.9708
10185SOL    HW231255   0.250   6.038   2.887 -0.2312 -0.1586  2.0448
10186SOL     OW31256   7.413   6.194   6.160 -0.0715  0.1645 -0.3095
10186SOL    HW131257   7.372   6.158   6.082 -0.6954  0.3885 -0.0906
10186SOL    HW231258   7.367   6.152   6.233  0.8168 -0.3960 -0.0564
10187SOL     OW31259   3.593   4.232   6.716  0.2018 -0.5210  0.3950
10187SOL    HW131260   3.670   4.236   6.774  1.1985  0.0657 -0.9125
10187SOL    HW231261   3.607   4.154   6.663  0.0335 -0.2594 -0.0386
10188SOL     OW31262   3.902   2.353   0.400 -0.0908 -0.5495  0.3861
10188SOL    HW131263   3.898   2.448   0.408 -1.1587 -0.6875  1.7810
10188SOL    HW231264   3.975   2.327   0.457  2.3563 -0.3962 -2.3943
10189SOL     OW31265   5.492   2.108   1.409  0.0537 -0.5622 -0.5604
10189SOL    HW131266   5.426   2.175   1.390 -1.1954 -0.4965  3.1827
10189SOL    HW231267   5.541   2.144   1.484  2.7396 -1.7109 -1.6448
10190SOL     OW31268   2.933   4.774   5.990 -0.0502 -0.3541  0.1311
10190SOL    HW131269   2.885   4.700   6.028  4.0473 -2.3409  2.1455
10190SOL    HW231270   2.924   4.762   5.896 -0.5680 -2.7530  0.4028
10191SOL     OW31271   5.034   4.789   7.261  0.0907 -0.3843  0.1859
10191SOL    HW131272   5.127   4.797   7.241  0.0589 -2.9372 -1.3555
10191SOL    HW231273   5.031   4.733   7.338 -0.1779  1.0801  1.2926
10192SOL     OW31274   6.785   1.451   4.491  0.0960  0.1097 -0.2958
10192SOL    HW131275   6.706   1.442   4.544  0.1116 -1.4379 -0.4947
10192SOL    HW231276   6.762   1.515   4.423 -0.6470  0.4124  0.2261
10193SOL     OW31277   1.928   5.856   4.401 -0.2794 -0.1380 -0.7296
10193SOL    HW131278   1.886   5.942   4.402  0.7812  0.4739  1.7404
10193SOL    HW231279   2.014   5.872   4.363 -0.1514 -0.1387 -0.4427
10194SOL     OW31280   0.584   5.796   7.269 -0.5319 -0.2394 -0.3780
10194SOL    HW131281   0.516   5.801   7.201 -0.6240  0.0712 -0.2642
10194SOL    HW231282   0.599   5.887   7.294 -1.3329 -0.4210  0.8499
10195SOL     OW31283   0.852   5.674   2.239 -0.1215  0.0503  0.4470
10195SOL    HW131284   0.914   5.674   2.312 -0.3038  1.8613  0.6629
10195SOL    HW231285   0.859   5.762   2.202 -0.6409 -0.5667 -1.2162
10196SOL     OW31286   1.460   6.974   5.860 -0.9452 -0.2914  0.2583
10196SOL    HW131287   1.555   6.959   5.857 -1.2919 -2.9107 -0.2169
10196SOL    HW231288   1.437   6.998   5.770 -0.7165  0.7617  0.4638
10197SOL     OW31289   1.190   1.426   2.753  0.5019  0.1955 -0.9636
10197SOL    HW131290   1.187   1.490   2.824  1.7062  2.5736 -2.8928
10197SOL    HW231291   1.280   1.394   2.754  0.5550  0.3156 -1.4255
10198SOL     OW31292   3.370   3.782   2.906 -0.5324  0.7259  1.0595
10198SOL    HW131293   3.405   3.709   2.854 -1.4333  0.0979  1.3152
10198SOL    HW231294   3.447   3.824   2.944  0.2871  1.8027 -1.4990
10199SOL     OW31295   6.342   7.623   5.767  0.5589  0.2324 -0.9345
10199SOL    HW131296   6.331   7.683   5.694  1.0593  0.5606 -0.7453
10199SOL    HW231297   6.429   7.584   5.754  0.0392 -0.8434 -1.3353
10200SOL     OW31298   2.201   4.413   4.101  0.0183 -0.0744 -1.0257
10200SOL    HW131299   2.248   4.422   4.184 -0.2356 -2.4963 -0.5321
10200SOL    HW231300   2.270   4.404   4.035  0.2258  2.1499 -1.1892
10201SOL     OW31301   6.223   5.685   7.205  0.2142 -0.3237  0.0781
10201SOL    HW131302   6.257   5.773   7.219  0.4799 -0.7283  2.3606
10201SOL    HW231303   6.129   5.692   7.223 -0.2655 -0.0569 -2.1920
10202SOL     OW31304   3.333   3.711   3.434  0.2049  0.6162 -0.4651
10202SOL    HW131305   3.271   3.743   3.369  0.0011 -0.2727 -0.7156
10202SOL    HW231306   3.418   3.743   3.403 -0.0954  1.7934 -0.1454
10203SOL     OW31307   2.742   6.794   3.131 -0.2936  0.1040 -0.2676
10203SOL    HW131308   2.770   6.839   3.210 -0.5527  0.7085 -0.5163
10203SOL    HW231309   2.662   6.748   3.157 -0.2284  0.0771 -0.1117
10204SOL     OW31310   3.680   7.127   4.751 -0.6739 -0.0017  0.0104
10204SOL    HW131311   3.604   7.131   4.810  0.5392  0.3883  1.6176
10204SOL    HW231312   3.723   7.044   4.772 -0.0320  0.3023 -0.0790
10205SOL     OW31313   6.797   3.592   6.682  0.1418  0.3119  0.3389
10205SOL    HW131314   6.879   3.605   6.635  1.3607 -0.0040  2.2632
10205SOL    HW231315   6.760   3.680   6.691  1.4003  0.7818  1.3295
10206SOL     OW31316   5.495   4.825   5.469  0.4018  0.1905 -0.5073
10206SOL    HW131317   5.498   4.789   5.381  1.5835  0.6923 -0.6873
10206SOL    HW231318   5.401   4.830   5.490  0.1187 -0.1190 -1.6472
10207SOL     OW31319   2.839   4.355   4.283  0.5108  0.2762 -0.6289
10207SOL    HW131320   2.884   4.423   4.334  0.1325  0.3949 -0.4452
10207SOL    HW231321   2.879   4.273   4.312  2.0132  0.5083 -1.9321
10208SOL     OW31322   6.785   4.332   5.374 -0.0288  0.1083  0.2168
10208SOL    HW131323   6.848   4.314   5.444 -0.9692  0.9026  1.3125
10208SOL    HW231324   6.700   4.311   5.413 -0.4844 -0.7405 -1.1618
10209SOL     OW31325   2.874   5.246   5.163  0.4471 -0.0244  0.4846
10209SOL    HW131326   2.845   5.233   5.254  0.3947 -1.4005  0.2816
10209SOL    HW231327   2.804   5.297   5.123  0.5483  0.7562  1.2493
10210SOL     OW31328   0.362   1.715   6.494  0.0259 -0.1733 -0.0767
10210SOL    HW131329   0.449   1.755   6.502 -0.2455  0.2412  1.0730
10210SOL    HW231330   0.303   1.789   6.481 -0.2069 -0.4216 -0.4466
10211SOL     OW31331   2.021   0.376   6.640  0.5032  0.2885  0.3563
10211SOL    HW131332   2.001   0.466   6.615  4.5275  1.0716 -0.5851
10211SOL    HW231333   2.006   0.325   6.560 -0.1253  0.3857  0.4067
10212SOL     OW31334   1.671   6.692   6.871 -0.3005 -0.1359  0.1634
10212SOL    HW131335   1.718   6.753   6.928  2.3238 -2.0153  0.1962
10212SOL    HW231336   1.665   6.739   6.787  0.8674  0.5616  0.4379
10213SOL     OW31337   7.853   2.672   1.010  0.0475  0.7791  0.0864
10213SOL    HW131338   7.864   2.628   1.095 -2.0809  1.7779  0.9661
10213SOL    HW231339   7.891   2.758   1.023 -2.1591  1.7171  0.8254
10214SOL     OW31340   4.301   4.897   3.182  0.2825  0.2635 -0.1553
10214SOL    HW131341   4.285   4.807   3.209 -0.3714  0.2720 -0.5160
10214SOL    HW231342   4.296   4.947   3.264 -1.3833  0.2485 -0.2187
10215SOL     OW31343   2.497   6.876   2.229 -0.4158  0.3142  0.2472
10215SOL    HW131344   2.434   6.822   2.276  0.2150 -0.5461  0.1201
10215SOL    HW231345   2.540   6.817   2.167 -0.2428  1.1224 -0.4380
10216SOL     OW31346   0.035   2.072   2.090 -0.2784 -0.7901  0.5146
10216SOL    HW131347   0.068   2.024   2.165  2.0142 -1.6611 -0.9285
10216SOL    HW231348   0.025   2.162   2.121  2.2829 -0.7688  1.4760
10217SOL     OW31349   2.910   0.093   5.703  0.1050  0.2339  0.1380
10217SOL    HW131350   2.891   0.003   5.731 -0.1689 -0.0897 -1.0031
10217SOL    HW231351   2.957   0.083   5.620 -0.4255  1.1342 -0.2976
10218SOL     OW31352   4.256   6.791   5.414  0.1260 -0.6778 -0.1346
10218SOL    HW131353   4.170   6.828   5.436  0.4151  0.3068 -0.5957
10218SOL    HW231354   4.318   6.861   5.436  0.5196  0.0434 -3.1269
10219SOL     OW31355   7.964   4.173   5.197 -0.1391  0.6049  0.1904
10219SOL    HW131356   7.972   4.082   5.171  0.8153  0.9971 -0.9580
10219SOL    HW231357   8.039   4.189   5.255 -1.3752  0.1731  2.0197
10220SOL     OW31358   2.553   0.523   0.175  0.4835 -0.2287 -0.3356
10220SOL    HW131359   2.527   0.614   0.166  2.0524  0.3094  0.3674
10220SOL    HW231360   2.561   0.509   0.270  0.0571 -1.1722 -0.4184
10221SOL     OW31361   6.921   4.267   4.025  0.2091 -0.7889 -0.3870
10221SOL    HW131362   6.882   4.276   4.112  1.4600 -1.8987  0.3294
10221SOL    HW231363   6.924   4.172   4.010  2.5859 -0.7831 -0.3697
10222SOL     OW31364   7.146   5.226   2.252 -0.4671 -0.0780  0.0890
10222SOL    HW131365   7.153   5.298   2.189 -0.9312 -0.6886 -0.6824
10222SOL    HW231366   7.191   5.258   2.330 -0.5360  0.9899 -0.2904
10223SOL     OW31367   2.421   7.464   0.126  0.0813  0.1317  0.2736
10223SOL    HW131368   2.379   7.469   0.212 -0.6072 -0.3546 -0.0219
10223SOL    HW231369   2.509   7.432   0.144  0.0128  0.2383  0.8202
10224SOL     OW31370   6.674   2.408   6.129  0.1244  0.2599 -0.0738
10224SOL    HW131371   6.762   2.444   6.124  0.2946 -0.0479  0.5526
10224SOL    HW231372   6.619   2.471   6.083  0.2323  1.8818  1.8985
10225SOL     OW31373   2.241   6.391   0.839 -0.0501  0.3140 -0.4666
10225SOL    HW131374   2.274   6.327   0.901  1.6682  0.2449 -1.3800
10225SOL    HW231375   2.172   6.345   0.791  0.8949 -0.7451 -0.8451
10226SOL     OW31376   2.087   7.154   2.933  0.2045  0.0818  0.2779
10226SOL    HW131377   2.145   7.225   2.961  0.1787  0.7374 -1.2302
10226SOL    HW231378   2.015   7.199   2.888  0.2028 -0.8983 -0.7191
10227SOL     OW31379   5.817   2.227   3.755  0.1688  0.5712  0.2693
10227SOL    HW131380   5.794   2.242   3.847  0.1193  1.6432  0.0962
10227SOL    HW231381   5.905   2.188   3.759  0.4564  1.2379  0.7584
10228SOL     OW31382   6.299   6.772   0.011 -0.1182 -0.2603 -0.6951
10228SOL    HW131383   6.207   6.749  -0.008 -0.2618 -0.1168 -0.1951
10228SOL    HW231384   6.295   6.863   0.039  0.0141 -0.5745  0.4196
10229SOL     OW31385   4.931   3.753   3.072  0.4166 -0.3170 -0.1922
10229SOL    HW131386   5.021   3.749   3.104  0.3220 -2.1802 -0.0022
10229SOL    HW231387   4.936   3.804   2.991  1.1291  2.0377  1.2417
10230SOL     OW31388   2.794   4.793   2.891 -0.0171 -0.0424 -0.7143
10230SOL    HW131389   2.772   4.704   2.865  0.9935 -0.3433 -0.5895
10230SOL    HW231390   2.832   4.832   2.812  4.0728 -1.2964  0.3539
10231SOL     OW31391   3.955   7.345   1.881 -0.2842  0.2547 -0.2569
10231SOL    HW131392   3.937   7.287   1.808  0.5857  0.7261 -0.8678
10231SOL    HW231393   4.001   7.290   1.945  0.8163  0.3204 -0.9622
10232SOL     OW31394   1.404   7.304   4.885  0.6974  0.2613 -0.1608
10232SOL    HW131395   1.453   7.359   4.824 -0.0213 -0.7935 -1.7697
10232SOL    HW231396   1.469   7.242   4.918  0.9740  0.4847 -0.2725
10233SOL     OW31397   2.005   5.164   7.196  0.5502 -0.0610  0.4759
10233SOL    HW131398   2.013   5.253   7.161  0.0307 -0.2993 -0.2875
10233SOL    HW231399   1.911   5.145   7.190  0.9780 -2.1038 -3.1525
10234SOL     OW31400   1.790   1.047   0.535  0.1775 -0.1238  0.7202
10234SOL    HW131401   1.742   0.970   0.503  0.8161  0.1422 -0.9927
10234SOL    HW231402   1.778   1.113   0.467 -0.1394  1.2488  2.0355
10235SOL     OW31403   6.676   2.315   0.696 -0.1056 -0.1158 -0.1949
10235SOL    HW131404   6.645   2.295   0.785  0.6473 -1.4245 -0.1959
10235SOL    HW231405   6.767   2.341   0.707  0.8534 -2.8910 -0.7654
10236SOL     OW31406   2.824   5.158   5.406  0.1567 -1.1398  0.3305
10236SOL    HW131407   2.817   5.063   5.411  1.8060 -1.2098  2.6911
10236SOL    HW231408   2.896   5.181   5.464  0.0767  1.5457 -0.4651
10237SOL     OW31409   5.784   2.313   4.040  0.5421  0.4959 -0.1797
10237SOL    HW131410   5.807   2.403   4.016  0.3258  1.0148  1.4292
10237SOL    HW231411   5.713   2.322   4.104 -0.0991 -0.8637 -0.6593
10238SOL     OW31412   4.062   0.522   7.558  0.6758  0.2870  0.5403
10238SOL    HW131413   4.148   0.523   7.601 -0.3990  1.2245  2.8122
10238SOL    HW231414   4.082   0.530   7.465  3.0667  0.2803  0.9958
10239SOL     OW31415   2.893   3.126   4.362  0.7877 -0.7207  0.3664
10239SOL    HW131416   2.974   3.137   4.313  1.0687  0.6342  1.0754
10239SOL    HW231417   2.844   3.059   4.314  2.1325 -1.2550 -0.3031
10240SOL     OW31418   7.275   0.150   4.998  0.2444 -0.0944 -0.0441
10240SOL    HW131419   7.295   0.186   4.911 -1.7934 -0.6554 -0.8095
10240SOL    HW231420   7.355   0.163   5.048  0.8672  1.9819 -1.4259
10241SOL     OW31421   5.420   7.623   2.730 -0.2746  0.3336  0.5865
10241SOL    HW131422   5.500   7.589   2.691 -0.2177 -1.5484  2.2014
10241SOL    HW231423   5.380   7.676   2.661  2.3695  1.4296 -0.2375
10242SOL     OW31424   3.200   4.663   6.581  0.2518 -0.2091 -0.3942
10242SOL    HW131425   3.268   4.597   6.584  0.0196 -0.4277  0.5761
10242SOL    HW231426   3.136   4.630   6.519  1.0810  0.0663 -1.4215
10243SOL     OW31427   4.890   4.339   2.108 -0.0951 -0.1416 -0.1824
10243SOL    HW131428   4.966   4.281   2.120  0.0835  0.3879  1.5014
10243SOL    HW231429   4.869   4.370   2.196 -1.8980  0.2184 -0.6933
10244SOL     OW31430   3.479   3.665   1.649  0.4230 -0.8440 -0.3342
10244SOL    HW131431   3.568   3.699   1.654  0.7491 -1.7661  0.3372
10244SOL    HW231432   3.473   3.623   1.563  0.9993 -1.7639  0.0710
10245SOL     OW31433   6.696   5.180   7.614  0.7575  0.2553 -0.7703
10245SOL    HW131434   6.749   5.150   7.687  2.5361 -1.4747 -2.6460
10245SOL    HW231435   6.675   5.100   7.565 -0.8227  1.2856 -1.8988
10246SOL     OW31436   7.469   5.845   2.865  0.1675  0.0748 -0.0393
10246SOL    HW131437   7.411   5.781   2.824  1.2969 -0.0655 -1.4634
10246SOL    HW231438   7.425   5.867   2.947 -1.2447 -0.9992 -0.4688
10247SOL     OW31439   1.281   1.722   3.368 -0.6654 -0.2264 -0.1007
10247SOL    HW131440   1.358   1.776   3.388 -0.4680 -0.4156 -0.3466
10247SOL    HW231441   1.215   1.785   3.338 -0.1270 -0.2031 -1.3118
10248SOL     OW31442   3.275   0.874   1.394 -1.0395 -0.0418 -0.1016
10248SOL    HW131443   3.264   0.908   1.305 -0.0570  0.4942 -0.0332
10248SOL    HW231444   3.340   0.932   1.433  0.2667 -1.6569  0.2281
10249SOL     OW31445   7.052   7.367   6.807  0.0967  0.3862 -0.1099
10249SOL    HW131446   6.989   7.326   6.867  0.9487  0.4367  0.8371
10249SOL    HW231447   7.132   7.315   6.817  1.1929  2.1956  1.0597
10250SOL     OW31448   3.239   2.851   4.182  0.0111  0.0213 -0.2371
10250SOL    HW131449   3.262   2.794   4.108  0.7931 -1.0078  0.7610
10250SOL    HW231450   3.180   2.916   4.144 -1.1263 -1.5868 -1.3890
10251SOL     OW31451   7.544   6.638   5.734  0.4023 -0.1394  0.1734
10251SOL    HW131452   7.524   6.680   5.818  1.6341  0.6457  0.0998
10251SOL    HW231453   7.466   6.587   5.714  0.7042 -1.7251  2.6283
10252SOL     OW31454   3.600   3.355   6.512  0.4914  0.4272  1.0351
10252SOL    HW131455   3.614   3.359   6.607 -0.0672 -0.6246  1.1743
10252SOL    HW231456   3.688   3.343   6.476  0.7584  1.2549  1.3779
10253SOL     OW31457   5.984   3.344   6.871  0.0077  0.6749 -0.1790
10253SOL    HW131458   5.919   3.396   6.920 -0.0268  1.5830 -1.1459
10253SOL    HW231459   6.061   3.344   6.927 -0.8020 -0.4456  1.0063
10254SOL     OW31460   4.351   4.552   0.906 -0.0905  0.3579 -0.2598
10254SOL    HW131461   4.421   4.575   0.968 -0.7736 -1.5266  1.3024
10254SOL    HW231462   4.291   4.627   0.908  0.8941  1.1622 -0.1643
10255SOL     OW31463   6.360   1.828   6.353  0.0638 -0.1040 -0.1466
10255SOL    HW131464   6.395   1.847   6.440  3.0494 -1.1449 -0.9887
10255SOL    HW231465   6.338   1.735   6.356 -1.2475  0.1770 -0.1358
10256SOL     OW31466   5.524   5.540   2.135 -0.4122 -0.1113  0.0926
10256SOL    HW131467   5.605   5.499   2.106 -1.0961 -1.6683  0.2891
10256SOL    HW231468   5.542   5.569   2.224  0.2377  0.5044 -0.2264
10257SOL     OW31469   0.857   2.348   5.164  0.3330 -0.2933  0.4207
10257SOL    HW131470   0.948   2.319   5.156  0.6156 -0.0353  2.1982
10257SOL    HW231471   0.862   2.443   5.164  0.2974 -0.2542  2.2068
10258SOL     OW31472   5.112   0.020   4.784 -0.7219 -0.0195  0.0914
10258SOL    HW131473   5.172  -0.040   4.828 -1.9201  0.3120  2.3372
10258SOL    HW231474   5.135   0.106   4.819 -1.1887  0.3708 -0.5469
10259SOL     OW31475   6.166   3.477   3.089 -0.5418 -0.3867  0.1388
10259SOL    HW131476   6.158   3.428   3.171 -0.8867 -1.1575 -0.3394
10259SOL    HW231477   6.252   3.519   3.094 -0.0610 -1.3558  0.4131
10260SOL     OW31478   1.074   2.678   7.668  0.5121  0.4837  0.5300
10260SOL    HW131479   1.033   2.744   7.612  0.5919  0.3999  0.3729
10260SOL    HW231480   1.019   2.675   7.746 -0.4748 -0.4905 -0.1686
10261SOL     OW31481   7.193   5.923   0.005 -0.2627 -0.5415 -0.1327
10261SOL    HW131482   7.137   6.000   0.007  1.3163  0.6243  1.4104
10261SOL    HW231483   7.153   5.867  -0.063 -2.0301  1.1330 -0.5757
10262SOL     OW31484   4.847   6.453   0.169 -0.0507  0.0814  0.0723
10262SOL    HW131485   4.782   6.481   0.234 -2.1092 -0.0735 -1.8184
10262SOL    HW231486   4.931   6.466   0.213 -1.3214 -0.0601  2.7705
10263SOL     OW31487   4.880   2.114   4.078 -0.3530 -0.0212  0.7278
10263SOL    HW131488   4.914   2.166   4.005  0.4772 -2.0286 -0.4160
10263SOL    HW231489   4.813   2.169   4.118  0.0166  1.6301 -0.8054
10264SOL     OW31490   1.360   1.885   3.824  0.0802 -0.4237  0.2508
10264SOL    HW131491   1.321   1.813   3.775  0.8825  0.3506 -1.6181
10264SOL    HW231492   1.441   1.849   3.861 -0.5782 -1.0394  1.1266
10265SOL     OW31493   4.643   1.816   7.869 -0.2054 -0.6480 -0.3143
10265SOL    HW131494   4.652   1.819   7.964 -0.0116 -0.2186 -0.3465
10265SOL    HW231495   4.572   1.753   7.854 -2.0003  1.1433  0.2298
10266SOL     OW31496   2.111   6.433   4.323  0.5268  0.0559 -0.0127
10266SOL    HW131497   2.178   6.468   4.382 -0.5308  0.6835  0.8478
10266SOL    HW231498   2.040   6.497   4.327 -1.0534 -1.6639  0.8071
10267SOL     OW31499   3.823   5.500   6.191  0.3505  0.2814  0.2435
10267SOL    HW131500   3.771   5.533   6.117  3.1736  0.1076 -2.0009
10267SOL    HW231501   3.833   5.575   6.249 -1.0693  0.7183 -0.0253
10268SOL     OW31502   3.750   1.787   2.591 -0.1012 -0.3850  0.4125
10268SOL    HW131503   3.662   1.762   2.562  0.4705 -0.5377 -1.3625
10268SOL    HW231504   3.742   1.879   2.616 -0.5077  0.0269 -1.0988
10269SOL     OW31505   6.047   0.049   3.714  0.4141  0.3319 -0.1721
10269SOL    HW131506   6.107   0.106   3.764 -1.4229  1.9795  0.2782
10269SOL    HW231507   6.076   0.059   3.623  1.5198  0.2007  0.1518
10270SOL     OW31508   7.426   6.181   6.681 -0.6633 -0.4228  0.2053
10270SOL    HW131509   7.346   6.146   6.720 -0.3829 -1.1372  0.1429
10270SOL    HW231510   7.482   6.105   6.667 -0.3050 -0.0333 -0.5421
10271SOL     OW31511   6.530   2.265   0.135  0.4973 -0.0994  0.5994
10271SOL    HW131512   6.527   2.333   0.068 -0.2689  0.2903  1.0191
10271SOL    HW231513   6.510   2.184   0.088  1.6819 -0.0892  0.0483
10272SOL     OW31514   3.786   4.478   5.303  0.3116 -0.5534 -0.3015
10272SOL    HW131515   3.691   4.491   5.301  0.2015 -0.9941  1.2005
10272SOL    HW231516   3.822   4.565   5.282 -0.3997 -0.4671 -1.2410
10273SOL     OW31517   4.708   0.735   0.652  0.4594 -0.1268  0.7007
10273SOL    HW131518   4.719   0.693   0.737 -0.9549  2.3478  2.2503
10273SOL    HW231519   4.643   0.804   0.668  2.4569  2.5328 -1.5871
10274SOL     OW31520   6.668   6.510   3.468 -0.4377  0.1423 -0.3128
10274SOL    HW131521   6.628   6.500   3.554  1.6083 -3.7142  0.4487
10274SOL    HW231522   6.596   6.496   3.406 -1.4228 -0.0716  0.8425
10275SOL     OW31523   5.234   5.629   3.042 -0.0119  0.1764  0.2264
10275SOL    HW131524   5.198   5.642   3.130 -0.0821  2.6656 -0.0971
10275SOL    HW231525   5.328   5.647   3.051 -0.1014  0.9727 -0.2568
10276SOL     OW31526   7.672   0.451   4.939 -0.0451  0.3228  0.3892
10276SOL    HW131527   7.710   0.397   4.869 -0.5209 -2.5243  2.1822
10276SOL    HW231528   7.737   0.450   5.009 -2.0256 -2.3184  2.4159
10277SOL     OW31529   0.399   0.491   1.413  0.6309  0.8686  1.2177
10277SOL    HW131530   0.443   0.525   1.335  0.6310  1.8101  1.6218
10277SOL    HW231531   0.431   0.400   1.420  1.4591  1.1048  0.7351
10278SOL     OW31532   6.655   6.627   5.036 -0.5904 -0.0229  0.1608
10278SOL    HW131533   6.720   6.591   5.097 -0.9368  1.0206  1.1774
10278SOL    HW231534   6.590   6.557   5.027 -0.9042  0.0477  1.5701
10279SOL     OW31535   1.490   4.688   6.664 -0.6196  0.3137 -0.0426
10279SOL    HW131536   1.398   4.680   6.687 -0.6737  0.4328 -0.2088
10279SOL    HW231537   1.528   4.741   6.734 -0.6032 -0.0227  0.2049
10280SOL     OW31538   5.668   5.023   5.605  0.2966  0.4463 -0.2324
10280SOL    HW131539   5.588   5.075   5.593 -0.5411 -0.9556 -0.9794
10280SOL    HW231540   5.637   4.935   5.623  1.6685 -0.3100 -1.3724
10281SOL     OW31541   0.352   4.735   4.979  0.8759  0.9666  0.4774
10281SOL    HW131542   0.259   4.757   4.984  0.6498  0.4801 -0.9143
10281SOL    HW231543   0.362   4.658   5.034  0.3927  0.8698  0.4313
10282SOL     OW31544   0.556   4.822   6.547 -0.1524  0.8606 -0.1222
10282SOL    HW131545   0.519   4.742   6.583 -1.3056  1.3425 -0.1965
10282SOL    HW231546   0.506   4.837   6.466  1.5312  0.4728 -1.2966
10283SOL     OW31547   5.479   3.956   1.618  0.1001 -0.4934 -0.5495
10283SOL    HW131548   5.401   4.011   1.616  0.3711 -0.0955 -0.3756
10283SOL    HW231549   5.450   3.873   1.657 -0.3009 -0.4620 -0.7785
10284SOL     OW31550   1.802   3.284   2.011 -0.3660  0.3206  0.1340
10284SOL    HW131551   1.730   3.342   2.038 -1.1231 -0.2043 -0.7062
10284SOL    HW231552   1.827   3.238   2.091 -0.7049  0.7762  0.5095
10285SOL     OW31553   6.691   7.442   3.104  0.2565 -0.0310 -0.2239
10285SOL    HW131554   6.634   7.419   3.030 -1.5094  0.0409  1.0522
10285SOL    HW231555   6.683   7.537   3.111 -1.0662 -0.2024  1.1375
10286SOL     OW31556   5.357   5.984   7.706 -0.0535  0.5706  0.1261
10286SOL    HW131557   5.434   6.038   7.722  0.5482 -0.5198  1.0793
10286SOL    HW231558   5.364   5.913   7.770 -0.9363 -0.4929 -0.9129
10287SOL     OW31559   7.572   2.105   6.181 -0.3752  0.6139  0.0593
10287SOL    HW131560   7.579   2.011   6.193 -0.4421  0.6653  0.5644
10287SOL    HW231561   7.621   2.142   6.255 -1.7477  0.9697  0.8184
10288SOL     OW31562   7.827   5.164   0.615 -0.3751  0.0303  0.1401
10288SOL    HW131563   7.813   5.240   0.671  1.8730  1.0306 -0.5508
10288SOL    HW231564   7.830   5.090   0.675  0.5465  0.9063  1.2238
10289SOL     OW31565   3.587   5.995   2.321  0.1325  0.0279 -0.0149
10289SOL    HW131566   3.553   5.997   2.410  1.0671  1.2105  0.3409
10289SOL    HW231567   3.667   6.047   2.325 -0.8869  1.9084 -1.9664
10290SOL     OW31568   5.133   6.714   0.476 -0.0885 -0.0504 -0.3004
10290SOL    HW131569   5.214   6.734   0.524 -0.4312  2.1498 -0.5286
10290SOL    HW231570   5.063   6.741   0.535 -0.5332  1.7705 -1.5715
10291SOL     OW31571   4.545   0.827   1.437 -0.3006 -0.2896 -0.1163
10291SOL    HW131572   4.609   0.887   1.476 -0.8904 -1.0183  2.1747
10291SOL    HW231573   4.479   0.884   1.397  0.4482  0.5136 -0.2168
10292SOL     OW31574   7.371   0.030   0.561 -0.5206  0.0130  0.4639
10292SOL    HW131575   7.306  -0.031   0.597  0.0877 -1.0651 -0.2083
10292SOL    HW231576   7.332   0.116   0.572 -1.7894 -0.5653  0.6349
10293SOL     OW31577   1.631   6.936   7.520 -0.5899  1.1430 -0.9405
10293SOL    HW131578   1.641   7.030   7.533  1.0421  0.9970 -0.9557
10293SOL    HW231579   1.657   6.897   7.604 -0.0705  0.6573 -1.3213
10294SOL     OW31580   0.734   5.286   6.313  0.2240  0.1916 -0.0395
10294SOL    HW131581   0.763   5.256   6.227 -1.5078 -0.1624 -0.5337
10294SOL    HW231582   0.717   5.205   6.362  0.4977  0.3941  0.3983
10295SOL     OW31583   7.049   6.210   6.935 -0.0473 -0.1632 -0.2679
10295SOL    HW131584   6.955   6.200   6.920 -0.1752 -0.2750  0.5400
10295SOL    HW231585   7.067   6.302   6.915 -0.1920 -0.3057 -1.0760
10296SOL     OW31586   6.015   7.457   0.960 -0.5009  0.2125 -0.0557
10296SOL    HW131587   5.986   7.486   1.046  3.7626  1.0020  1.3472
10296SOL    HW231588   6.018   7.362   0.966 -2.9098  0.0602 -0.4192
10297SOL     OW31589   0.261   7.755   1.764  0.5889  0.1606 -0.6024
10297SOL    HW131590   0.255   7.688   1.696  0.9635 -0.4073 -0.0876
10297SOL    HW231591   0.214   7.718   1.839  2.2752 -0.2963  0.2750
10298SOL     OW31592   6.317   7.369   1.148 -0.4290  0.0818  0.2856
10298SOL    HW131593   6.378   7.307   1.188  0.2737  0.9242  0.5390
10298SOL    HW231594   6.235   7.356   1.196  0.1035  0.3279  1.2823
10299SOL     OW31595   7.199   6.316   2.048  0.0049 -0.3884  0.1289
10299SOL    HW131596   7.286   6.338   2.014 -0.3163  0.9424  0.1395
10299SOL    HW231597   7.144   6.307   1.970  0.1467 -1.3115  0.1177
10300SOL     OW31598   0.011   5.321   0.031 -0.2627  0.5607  0.3603
10300SOL    HW131599   0.052   5.389  -0.022 -0.4555  0.0728 -0.4364
10300SOL    HW231600  -0.069   5.360   0.064 -0.4920  0.6513 -0.2883
10301SOL     OW31601   0.753   1.254   6.613 -0.2897  0.2097  0.5796
10301SOL    HW131602   0.718   1.170   6.642  1.1721 -0.1790  1.3207
10301SOL    HW231603   0.846   1.238   6.598 -0.2836  1.3189 -0.8423
10302SOL     OW31604   1.261   1.201   3.502  0.2546  0.0035  0.6574
10302SOL    HW131605   1.301   1.228   3.584  2.2069  0.0161 -0.2443
10302SOL    HW231606   1.222   1.281   3.467  2.1582  0.7613  0.1230
10303SOL     OW31607   6.075   0.528   4.591  0.0556  0.0683 -0.0953
10303SOL    HW131608   6.051   0.509   4.501  1.9654  0.3110 -0.7092
10303SOL    HW231609   6.081   0.443   4.634 -1.5395 -0.0049  0.0169
10304SOL     OW31610   0.423   0.040   0.140  0.4994  0.2035  0.3678
10304SOL    HW131611   0.467   0.122   0.115  0.9539 -0.5564 -1.4904
10304SOL    HW231612   0.335   0.048   0.103  0.0602  0.4084  1.4061
10305SOL     OW31613   2.002   5.734   0.380  0.5611 -0.2908  0.2588
10305SOL    HW131614   2.077   5.793   0.371 -0.4900  1.0968  0.3104
10305SOL    HW231615   1.926   5.787   0.354 -0.1510 -2.4865 -2.6777
10306SOL     OW31616   4.621   0.392   0.067 -0.1153  0.2020  0.5476
10306SOL    HW131617   4.611   0.465   0.128  0.1474 -0.8251  1.8627
10306SOL    HW231618   4.660   0.322   0.119  1.4575 -0.2676 -1.1432
10307SOL     OW31619   0.682   2.027   6.998  0.3955 -0.1788  0.4492
10307SOL    HW131620   0.773   2.054   6.986  0.9702 -1.6893  1.1211
10307SOL    HW231621   0.681   1.934   6.975 -1.1845  0.0103 -0.3898
10308SOL     OW31622   4.417   6.646   7.782  0.0485  0.4685  0.3016
10308SOL    HW131623   4.359   6.634   7.857  1.2754  0.2259  1.2461
10308SOL    HW231624   4.403   6.736   7.755 -1.2800  0.2070  0.0462
10309SOL     OW31625   5.906   7.258   3.085  0.3887  0.2933 -0.3055
10309SOL    HW131626   5.913   7.162   3.078 -0.2250  0.3131 -1.3736
10309SOL    HW231627   5.884   7.287   2.997 -0.8729  1.2965  0.3002
10310SOL     OW31628   7.794   5.171   3.540  0.5425  0.3500  0.1720
10310SOL    HW131629   7.699   5.170   3.527  0.3456 -1.2328  1.4884
10310SOL    HW231630   7.806   5.219   3.622  0.5662 -2.1770  1.7361
10311SOL     OW31631   1.413   5.740   0.169  0.0058 -0.3932 -0.2114
10311SOL    HW131632   1.353   5.785   0.230 -0.7423 -1.9808  0.2823
10311SOL    HW231633   1.368   5.743   0.085  0.9215  1.5735 -0.6869
10312SOL     OW31634   3.147   5.722   4.448  0.1085 -0.0768 -0.1432
10312SOL    HW131635   3.240   5.721   4.472  0.1333  2.9468  0.1863
10312SOL    HW231636   3.124   5.814   4.442 -2.8492 -0.7262 -0.4832
10313SOL     OW31637   3.778   0.199   0.032 -0.1091 -0.2404  0.3185
10313SOL    HW131638   3.765   0.148   0.113 -3.0966 -0.2926 -0.0584
10313SOL    HW231639   3.763   0.289   0.059 -1.3432 -0.2784 -0.1438
10314SOL     OW31640   2.356   0.817   4.119 -0.6348  0.1848 -0.1685
10314SOL    HW131641   2.294   0.824   4.192 -3.2947  1.6452 -2.3847
10314SOL    HW231642   2.315   0.756   4.058  0.9684 -0.1149 -1.0118
10315SOL     OW31643   2.896   3.531   0.869  0.0141 -0.2716 -0.6754
10315SOL    HW131644   2.982   3.546   0.831  0.4154  0.2264  0.3951
10315SOL    HW231645   2.836   3.583   0.815  0.5818  0.4849 -0.5809
10316SOL     OW31646   7.036   5.088   1.002  0.2161  0.4265 -0.1228
10316SOL    HW131647   7.071   5.164   0.955 -0.2590 -1.2666 -3.5276
10316SOL    HW231648   6.942   5.093   0.989  0.2549 -1.2444 -1.3562
10317SOL     OW31649   6.903   2.934   2.191 -0.2321  0.7230 -0.4158
10317SOL    HW131650   6.912   2.864   2.127 -1.9761  0.6650 -0.6337
10317SOL    HW231651   6.985   2.931   2.241  1.9782  1.8236 -3.6151
10318SOL     OW31652   0.027   1.097   4.578 -0.3357  0.5520 -0.0792
10318SOL    HW131653   0.017   1.186   4.614  0.0606  0.6963 -0.3291
10318SOL    HW231654  -0.036   1.093   4.506 -0.8924  0.3755  0.4090
10319SOL     OW31655   0.107   6.673   2.883 -0.1159  0.0418 -0.0402
10319SOL    HW131656   0.108   6.694   2.976 -1.1145 -1.1452  0.2525
10319SOL    HW231657   0.015   6.661   2.862  0.1968 -1.1522 -0.8420
10320SOL     OW31658   6.447   1.325   6.488 -0.1186  0.2723 -0.1589
10320SOL    HW131659   6.530   1.297   6.527 -0.0873 -0.2953 -0.6112
10320SOL    HW231660   6.399   1.366   6.559  1.0667  1.7583 -0.1640
10321SOL     OW31661   5.799   2.216   3.486  0.7689  0.1511 -0.0677
10321SOL    HW131662   5.833   2.127   3.477  0.1383  0.1217 -3.8022
10321SOL    HW231663   5.819   2.241   3.576  1.6099 -3.4713  0.8910
10322SOL     OW31664   0.667   3.971   5.416 -0.4121  0.5897  0.7213
10322SOL    HW131665   0.578   3.957   5.448 -0.4827  0.9583  0.6927
10322SOL    HW231666   0.719   3.903   5.458 -0.8818 -0.2477 -0.0205
10323SOL     OW31667   7.433   0.404   1.121 -0.3537 -0.3101 -0.1940
10323SOL    HW131668   7.464   0.480   1.071  1.1169 -0.0742  1.0135
10323SOL    HW231669   7.501   0.338   1.109 -0.6495 -0.7275  0.3851
10324SOL     OW31670   1.244   1.937   0.625  0.0691 -0.2437  0.2596
10324SOL    HW131671   1.335   1.914   0.606  0.2745  1.2573 -0.6836
10324SOL    HW231672   1.240   2.032   0.618 -2.1077 -0.4030 -2.3264
10325SOL     OW31673   1.100   4.631   0.727 -0.6012  0.5933 -0.1737
10325SOL    HW131674   1.093   4.687   0.804 -2.8338 -0.3153  0.3883
10325SOL    HW231675   1.080   4.543   0.759  0.1770 -0.1004 -1.4963
10326SOL     OW31676   1.869   3.646   0.994  0.3908  0.4457  0.7336
10326SOL    HW131677   1.958   3.631   0.962 -0.5026 -2.1533 -0.8523
10326SOL    HW231678   1.828   3.701   0.928  0.0483 -0.6468  0.0180
10327SOL     OW31679   4.810   2.157   2.418 -0.2754  0.4347  0.4031
10327SOL    HW131680   4.843   2.112   2.340  0.1673  0.3075  0.6611
10327SOL    HW231681   4.877   2.221   2.440 -1.3452  1.9392 -0.5370
10328SOL     OW31682   4.336   0.767   6.897  0.1293 -0.4686  0.4269
10328SOL    HW131683   4.308   0.678   6.877  0.2550 -0.4782  0.2849
10328SOL    HW231684   4.382   0.795   6.817  2.2074 -1.1416  1.3064
10329SOL     OW31685   2.117   6.123   6.621  0.3351  0.1888 -1.0335
10329SOL    HW131686   2.102   6.089   6.533  1.0332  0.1413 -1.1423
10329SOL    HW231687   2.043   6.181   6.638  0.3985  0.5113 -1.8074
10330SOL     OW31688   3.817   2.772   7.362 -0.0422 -0.0591 -0.2249
10330SOL    HW131689   3.849   2.857   7.393  0.9697 -0.9097  1.2228
10330SOL    HW231690   3.753   2.745   7.428 -0.2526 -0.4897 -0.5982
10331SOL     OW31691   2.809   1.558   2.563 -0.6134  0.2163  0.0210
10331SOL    HW131692   2.792   1.470   2.528  0.2885 -0.1585  0.4811
10331SOL    HW231693   2.891   1.548   2.611  0.0483  1.5588 -0.7904
10332SOL     OW31694   3.328   0.709   3.565  0.2257  0.0390  0.2868
10332SOL    HW131695   3.261   0.771   3.537  0.6808  0.5514  0.3033
10332SOL    HW231696   3.371   0.681   3.484 -0.5362 -0.9303  0.1933
10333SOL     OW31697   3.028   7.477   1.046  0.9758 -0.0144 -0.2481
10333SOL    HW131698   3.071   7.467   1.131 -1.5772 -2.0049  0.9716
10333SOL    HW231699   3.041   7.392   1.003 -1.9696 -0.9414  0.4317
10334SOL     OW31700   6.162   5.719   7.795  0.4430 -0.0903 -0.4656
10334SOL    HW131701   6.087   5.676   7.837  0.4901  0.1231 -0.1607
10334SOL    HW231702   6.224   5.647   7.779  0.0544 -0.3109 -0.9875
10335SOL     OW31703   2.559   0.343   4.692 -0.1036 -0.1022  0.2928
10335SOL    HW131704   2.476   0.318   4.652  1.0627 -1.5556 -1.3916
10335SOL    HW231705   2.550   0.317   4.784 -0.5034 -3.0883 -0.4824
10336SOL     OW31706   4.612   3.573   7.516 -0.6061 -0.1190  0.2409
10336SOL    HW131707   4.539   3.512   7.517 -0.4156 -0.3473  0.2194
10336SOL    HW231708   4.672   3.539   7.582 -0.6863  0.2726  0.5195
10337SOL     OW31709   7.592   1.777   1.661 -0.2323 -0.2632  0.4214
10337SOL    HW131710   7.666   1.730   1.623  0.0529  0.8595 -0.4733
10337SOL    HW231711   7.520   1.763   1.600  0.3588  1.9581 -0.9021
10338SOL     OW31712   7.104   2.932   3.370  0.2624 -0.1062 -0.0504
10338SOL    HW131713   7.187   2.956   3.328  0.1628  1.0129  0.3526
10338SOL    HW231714   7.074   3.013   3.412 -1.1482 -0.4321 -0.3702
10339SOL     OW31715   0.136   1.573   2.939 -0.0933 -0.3090 -0.6524
10339SOL    HW131716   0.193   1.648   2.954  2.2844 -2.1434  0.2960
10339SOL    HW231717   0.047   1.608   2.943  0.7863  1.9650  2.7114
10340SOL     OW31718   6.993   4.094   2.403 -0.3111  0.3146 -0.2374
10340SOL    HW131719   7.085   4.089   2.380  0.3931  1.2921  2.0920
10340SOL    HW231720   6.965   4.180   2.372 -0.6384 -0.1853 -1.4131
10341SOL     OW31721   0.068   0.397   5.733  0.4588 -0.5739 -0.4457
10341SOL    HW131722  -0.005   0.372   5.676  0.8208  0.6916 -1.5086
10341SOL    HW231723   0.145   0.357   5.693  0.3016 -2.6643  1.1689
10342SOL     OW31724   5.675   0.832   7.159 -0.0159 -0.1875 -0.5728
10342SOL    HW131725   5.767   0.826   7.133  0.2307  1.4620 -0.1992
10342SOL    HW231726   5.677   0.871   7.247 -1.1065  1.2950 -1.1580
10343SOL     OW31727   4.559   7.526   0.223 -0.1400  0.0520 -0.7417
10343SOL    HW131728   4.582   7.511   0.132 -0.1427  0.5578 -0.8323
10343SOL    HW231729   4.629   7.583   0.256 -0.1822 -0.0618 -0.4519
10344SOL     OW31730   5.716   6.248   4.141  0.0728  0.6871  0.0203
10344SOL    HW131731   5.629   6.220   4.114  0.3007 -0.5683  0.4910
10344SOL    HW231732   5.753   6.172   4.186  0.5584  1.9055  1.8400
10345SOL     OW31733   7.544   3.053   5.565  0.2648  0.5070  0.0792
10345SOL    HW131734   7.530   3.005   5.483  0.4876  2.4945 -1.1795
10345SOL    HW231735   7.587   2.989   5.623 -0.1582 -1.0256 -1.2267
10346SOL     OW31736   4.247   0.331   3.070  0.1338  0.5270  0.2723
10346SOL    HW131737   4.328   0.380   3.083  2.1569 -2.3558 -0.2067
10346SOL    HW231738   4.236   0.328   2.975 -1.4017  2.0692  0.3608
10347SOL     OW31739   3.085   7.324   4.401  0.2340  0.1419  0.3694
10347SOL    HW131740   3.087   7.303   4.494 -1.3734  0.0422  0.4102
10347SOL    HW231741   3.124   7.410   4.395  0.1238  0.2564  1.1831
10348SOL     OW31742   7.533   0.599   4.558  0.2013 -0.4150 -0.0686
10348SOL    HW131743   7.601   0.531   4.554 -0.2060 -0.8383  0.0825
10348SOL    HW231744   7.549   0.644   4.641  0.4944 -0.3037 -0.1852
10349SOL     OW31745   7.724   2.646   5.621 -0.3374 -0.2581 -0.2911
10349SOL    HW131746   7.734   2.739   5.637 -0.1696 -0.2664 -0.3505
10349SOL    HW231747   7.689   2.641   5.532 -0.1462 -0.2603 -0.3663
10350SOL     OW31748   3.898   2.661   2.236 -0.3048 -0.4447 -0.4368
10350SOL    HW131749   3.875   2.703   2.318 -1.1727  0.4863 -1.1273
10350SOL    HW231750   3.983   2.700   2.212 -1.5769  1.8043 -1.5936
10351SOL     OW31751   6.398   0.430   0.457  0.3061 -0.0777  0.3528
10351SOL    HW131752   6.492   0.441   0.467  0.3668  1.0045 -1.0834
10351SOL    HW231753   6.388   0.349   0.406  0.3853 -0.7312  1.3435
10352SOL     OW31754   0.682   1.561   2.277  0.2831 -0.4183 -0.6417
10352SOL    HW131755   0.670   1.471   2.247 -1.2345 -0.3826 -0.2284
10352SOL    HW231756   0.594   1.597   2.281  0.3962 -0.1941  3.0739
10353SOL     OW31757   7.126   0.320   5.956 -0.1474  0.1709 -0.1819
10353SOL    HW131758   7.066   0.247   5.945 -0.3306  0.3549 -0.4093
10353SOL    HW231759   7.074   0.397   5.937 -0.0809  0.3972  0.5230
10354SOL     OW31760   0.399   0.751   4.978 -0.1601 -0.1532  0.2585
10354SOL    HW131761   0.362   0.729   5.064 -0.5992 -0.9663 -0.1290
10354SOL    HW231762   0.486   0.787   4.998 -0.9146  1.2478  1.1379
10355SOL     OW31763   1.264   2.637   3.959  0.0737  0.2181 -0.1972
10355SOL    HW131764   1.330   2.618   4.026 -1.9651 -1.2305  1.5330
10355SOL    HW231765   1.286   2.578   3.887  2.7105  2.2812 -1.2332
10356SOL     OW31766   1.264   7.134   3.751  0.6134 -0.6864  0.5888
10356SOL    HW131767   1.168   7.135   3.749  0.5711 -2.2502 -1.0293
10356SOL    HW231768   1.285   7.052   3.796  1.2425  0.4553  2.4405
10357SOL     OW31769   0.250   2.827   2.526  0.0779 -0.8163  0.3043
10357SOL    HW131770   0.294   2.742   2.520 -0.4638 -0.9991 -2.2824
10357SOL    HW231771   0.204   2.836   2.443 -2.3915  0.6784  1.6876
10358SOL     OW31772   5.808   1.361   4.918  0.7695 -0.0971  0.1632
10358SOL    HW131773   5.881   1.422   4.909 -0.2266  1.1431  0.3187
10358SOL    HW231774   5.751   1.400   4.983 -0.6312 -0.4271 -0.8146
10359SOL     OW31775   7.639   4.850   2.547  0.1528 -0.2417 -0.3400
10359SOL    HW131776   7.718   4.899   2.523 -0.4360  1.6834  1.3571
10359SOL    HW231777   7.572   4.883   2.488 -0.2600  1.1812  0.8472
10360SOL     OW31778   5.471   1.682   5.330  0.1536 -0.2705  0.1517
10360SOL    HW131779   5.381   1.713   5.319 -0.0633 -0.6933  0.6976
10360SOL    HW231780   5.497   1.715   5.416 -0.5253 -2.6383  1.3377
10361SOL     OW31781   3.151   6.040   2.666  0.3972 -0.0938 -0.6096
10361SOL    HW131782   3.118   6.068   2.751 -1.8413  0.4015 -1.5777
10361SOL    HW231783   3.074   6.008   2.620  1.4197  0.3413 -2.7366
10362SOL     OW31784   0.173   5.955   3.315  0.2422 -0.1434  0.1991
10362SOL    HW131785   0.253   5.919   3.278 -0.3200 -1.1057 -0.1037
10362SOL    HW231786   0.121   5.878   3.340 -1.1814  0.4362 -0.8864
10363SOL     OW31787   0.597   1.904   1.453  0.3703  0.0642  0.5375
10363SOL    HW131788   0.635   1.953   1.380 -0.7115  2.3120  1.3885
10363SOL    HW231789   0.537   1.966   1.494 -0.4864 -1.7734  2.1867
10364SOL     OW31790   0.716   3.013   1.589  0.1939 -0.5031  0.5285
10364SOL    HW131791   0.681   2.923   1.588  0.6308 -0.6843 -0.8342
10364SOL    HW231792   0.811   3.002   1.590  0.2802 -0.1006 -0.9762
10365SOL     OW31793   0.806   0.291   3.540  0.4282  0.4169 -0.5199
10365SOL    HW131794   0.711   0.291   3.544  0.4310 -0.9986  0.7270
10365SOL    HW231795   0.827   0.334   3.458 -1.3228 -0.0645 -1.2666
10366SOL     OW31796   4.056   5.623   0.430  0.7410  0.2027  0.2635
10366SOL    HW131797   4.119   5.554   0.409  0.5469  0.6551 -2.1277
10366SOL    HW231798   4.095   5.703   0.394 -0.7708  0.6278 -0.5249
10367SOL     OW31799   6.526   3.302   2.331 -0.1957  0.0953 -0.0448
10367SOL    HW131800   6.582   3.283   2.406 -1.7375  0.2198  1.1917
10367SOL    HW231801   6.489   3.217   2.306 -0.4295  0.1895 -0.0284
10368SOL     OW31802   1.557   5.891   3.211  0.6027 -0.3450 -0.0006
10368SOL    HW131803   1.539   5.823   3.147 -1.5018 -0.5607  0.7583
10368SOL    HW231804   1.627   5.943   3.171 -0.0035 -1.0075 -2.0451
10369SOL     OW31805   5.371   0.722   6.498 -0.1357  0.3411  0.0746
10369SOL    HW131806   5.376   0.633   6.534  2.5678  1.0419  1.6833
10369SOL    HW231807   5.433   0.721   6.424 -0.8915  0.6343 -0.5790
10370SOL     OW31808   6.262   2.725   0.624  0.2866  0.1657  0.1695
10370SOL    HW131809   6.298   2.754   0.540  0.3446  0.6290  0.3529
10370SOL    HW231810   6.304   2.640   0.639 -0.6531 -0.5076 -0.8561
10371SOL     OW31811   2.443   6.149   0.888 -0.5522 -0.0692 -0.2425
10371SOL    HW131812   2.417   6.115   0.802 -1.2633 -0.1108 -0.0240
10371SOL    HW231813   2.502   6.222   0.868 -1.0844  0.2266 -0.7835
10372SOL     OW31814   1.910   2.943   5.496  0.2717  0.1393  0.2073
10372SOL    HW131815   1.899   2.864   5.550  2.4841 -0.3666  0.0203
10372SOL    HW231816   1.841   3.002   5.525 -0.9067 -1.5362  0.9673
10373SOL     OW31817   1.457   6.277   5.793  0.0006 -1.1168 -0.1756
10373SOL    HW131818   1.465   6.366   5.825 -0.4662 -1.9973  2.6021
10373SOL    HW231819   1.366   6.270   5.762 -0.0767 -0.7374 -0.0328
10374SOL     OW31820   4.242   2.340   7.567  0.3404  0.5442  0.4115
10374SOL    HW131821   4.168   2.302   7.520 -0.4713  0.9628  1.3287
10374SOL    HW231822   4.236   2.434   7.550  0.1780  0.6732  1.1317
10375SOL     OW31823   2.855   5.115   3.950 -0.1085  0.0411 -0.4628
10375SOL    HW131824   2.942   5.078   3.938  0.2645  0.9793 -0.7226
10375SOL    HW231825   2.809   5.096   3.868 -0.1737 -0.4909 -0.3097
10376SOL     OW31826   0.973   1.827   1.511 -0.3154  0.8995 -0.4690
10376SOL    HW131827   1.066   1.818   1.493  0.6570  3.1657  2.6760
10376SOL    HW231828   0.956   1.768   1.584 -1.5095  0.1621 -1.3016
10377SOL     OW31829   1.082   2.777   5.190 -0.1758  0.0476  0.3909
10377SOL    HW131830   1.122   2.757   5.275 -0.2788 -0.6963  0.2768
10377SOL    HW231831   1.122   2.714   5.130 -0.1358  0.5419 -0.1022
10378SOL     OW31832   2.436   5.234   4.878  0.4763  0.1521  0.0537
10378SOL    HW131833   2.392   5.224   4.963  1.3276 -0.0729  0.4798
10378SOL    HW231834   2.450   5.144   4.848  1.3971  0.1997  0.3227
10379SOL     OW31835   0.810   0.513   2.984  0.5600 -0.3731  0.5569
10379SOL    HW131836   0.797   0.458   2.907  3.2423 -0.6282  0.2234
10379SOL    HW231837   0.766   0.465   3.055 -1.4185 -0.4212 -0.6339
10380SOL     OW31838   6.502   5.919   5.797  0.3967  0.2902  0.1687
10380SOL    HW131839   6.495   5.959   5.884 -0.9446  0.9302 -0.2008
10380SOL    HW231840   6.529   5.991   5.740  0.7766 -0.0091 -0.0297
10381SOL     OW31841   7.230   5.766   5.828 -0.2888  0.8536 -0.6541
10381SOL    HW131842   7.174   5.837   5.796  2.5345  3.6115  0.0441
10381SOL    HW231843   7.283   5.742   5.752 -0.4526  0.2583 -0.5849
10382SOL     OW31844   7.517   7.684   1.189 -0.3690  0.3744  0.5943
10382SOL    HW131845   7.570   7.662   1.265  1.3313  0.7276 -0.4466
10382SOL    HW231846   7.554   7.767   1.157 -0.8387  0.0667 -0.7992
10383SOL     OW31847   3.124   2.270   1.617  0.2643 -0.4789  0.0063
10383SOL    HW131848   3.091   2.360   1.623  0.0868 -0.5192 -0.3204
10383SOL    HW231849   3.211   2.274   1.657 -0.2312 -0.4330  1.0999
10384SOL     OW31850   2.730   3.637   0.674 -0.4031  1.0262  0.0299
10384SOL    HW131851   2.650   3.630   0.728 -0.0275 -3.1131  0.3405
10384SOL    HW231852   2.714   3.578   0.600  2.6243 -0.6489  0.5768
10385SOL     OW31853   2.868   1.184   3.819  0.2219  0.5830  0.1591
10385SOL    HW131854   2.934   1.136   3.867 -0.3501 -1.3683 -0.9011
10385SOL    HW231855   2.917   1.242   3.760  0.9776 -0.3260 -0.1166
10386SOL     OW31856   5.875   6.118   5.752  0.2553 -0.4560 -0.1415
10386SOL    HW131857   5.959   6.125   5.797  0.0618 -2.7242  0.7062
10386SOL    HW231858   5.867   6.200   5.704  2.0680  0.6149  1.2479
10387SOL     OW31859   7.851   1.223   2.999  0.0252  0.4879  0.5319
10387SOL    HW131860   7.925   1.180   2.956  0.6948  1.8141  0.3057
10387SOL    HW231861   7.829   1.296   2.941 -0.3201  1.1613  1.4928
10388SOL     OW31862   2.159   1.161   2.752 -0.0097 -0.2689  0.1206
10388SOL    HW131863   2.172   1.082   2.804  0.7227 -0.8139 -0.8699
10388SOL    HW231864   2.077   1.198   2.785  0.7109 -0.2669  2.0741
10389SOL     OW31865   1.442   5.428   5.127  0.3882 -0.4684 -0.1000
10389SOL    HW131866   1.380   5.366   5.166 -0.9463  2.1901  2.3467
10389SOL    HW231867   1.473   5.480   5.200  3.1850  0.3607 -1.7443
10390SOL     OW31868   4.119   4.374   4.267  0.4844 -0.8641  0.3348
10390SOL    HW131869   4.214   4.384   4.274  0.2197  3.0868  0.7356
10390SOL    HW231870   4.095   4.426   4.190 -1.6123  2.2987  2.8339
10391SOL     OW31871   0.877   0.030   4.942 -0.2327  0.8917 -0.6060
10391SOL    HW131872   0.944   0.048   4.875  0.3407 -0.7832 -0.5182
10391SOL    HW231873   0.803  -0.004   4.892  0.2596 -0.5308 -0.4249
10392SOL     OW31874   7.339   0.006   7.371 -0.0664  0.4525 -0.1691
10392SOL    HW131875   7.278  -0.056   7.329  0.5157 -0.9445  0.9460
10392SOL    HW231876   7.324  -0.007   7.465  2.5163 -0.5882  0.1817
10393SOL     OW31877   3.788   5.290   1.166 -0.3408  0.3193  0.5784
10393SOL    HW131878   3.710   5.317   1.120 -0.1667 -0.6432 -0.3294
10393SOL    HW231879   3.758   5.219   1.224 -0.2148  0.2198  0.5224
10394SOL     OW31880   6.074   2.981   1.326  0.4490 -0.0964  0.3262
10394SOL    HW131881   6.015   3.040   1.279 -0.3396  0.0290  1.4389
10394SOL    HW231882   6.152   2.977   1.271  0.1464  1.2319 -0.2467
10395SOL     OW31883   1.409   5.083   6.689 -0.1832 -0.3762 -0.3093
10395SOL    HW131884   1.460   5.097   6.609 -0.6662 -1.6253 -0.8591
10395SOL    HW231885   1.440   4.999   6.722 -1.2665 -0.7347 -0.1781
10396SOL     OW31886   2.095   0.966   0.156 -0.0430  0.1527  0.9025
10396SOL    HW131887   2.027   1.031   0.139 -0.6534 -0.6476  0.2345
10396SOL    HW231888   2.088   0.950   0.250  0.1424  1.0666  1.0871
10397SOL     OW31889   1.591   5.862   7.074 -0.5761 -0.3142 -0.3282
10397SOL    HW131890   1.528   5.790   7.071  0.0697 -1.0013  1.3206
10397SOL    HW231891   1.544   5.934   7.115 -0.1651 -1.0496  1.5668
10398SOL     OW31892   2.041   1.649   1.194 -0.5203 -0.4924 -0.1875
10398SOL    HW131893   2.128   1.615   1.219 -0.3472  0.0531 -0.0324
10398SOL    HW231894   2.033   1.628   1.101 -0.0995 -0.3045 -0.2701
10399SOL     OW31895   2.588   2.687   1.148 -0.3087  0.1524 -0.1257
10399SOL    HW131896   2.570   2.648   1.234  0.4734  0.8690  0.3838
10399SOL    HW231897   2.511   2.741   1.131 -0.1657  0.5555  0.4582
10400SOL     OW31898   2.567   1.514   4.434 -0.4426 -0.4232 -0.2635
10400SOL    HW131899   2.655   1.495   4.466 -0.4713  0.6343  0.4856
10400SOL    HW231900   2.509   1.487   4.506 -0.6269  0.2795 -0.1435
10401SOL     OW31901   5.339   4.236   2.617 -0.3841  0.0049  0.5473
10401SOL    HW131902   5.348   4.246   2.712 -1.7609  2.1726  0.5023
10401SOL    HW231903   5.285   4.310   2.590  1.8975  0.8112 -2.2803
10402SOL     OW31904   4.589   1.518   3.010  0.6603  0.0374 -0.1657
10402SOL    HW131905   4.494   1.510   3.014  0.7493 -1.1624  0.0471
10402SOL    HW231906   4.614   1.545   3.098  0.6578 -1.8227  0.4596
10403SOL     OW31907   2.026   1.034   4.398 -0.2542  0.0484 -0.6570
10403SOL    HW131908   2.050   1.122   4.427 -0.3867 -0.1288 -0.0167
10403SOL    HW231909   1.963   1.049   4.328 -0.8772  0.4494 -0.0201
10404SOL     OW31910   1.169   4.849   1.327  0.6175  0.3275 -0.2411
10404SOL    HW131911   1.107   4.785   1.293  2.2616 -1.2156 -0.4495
10404SOL    HW231912   1.117   4.904   1.386 -0.7289 -1.6036  0.4657
10405SOL     OW31913   1.183   5.628   5.035  0.4696 -0.1824 -0.4491
10405SOL    HW131914   1.104   5.589   5.072  1.4523  0.3846  2.5205
10405SOL    HW231915   1.241   5.554   5.020 -0.2767 -0.5167 -1.8858
10406SOL     OW31916   3.140   1.827   0.207 -0.0782 -0.4888 -0.6537
10406SOL    HW131917   3.105   1.751   0.162 -1.7322 -0.4248  0.4129
10406SOL    HW231918   3.063   1.879   0.229  1.0633  2.3538 -2.7583
10407SOL     OW31919   0.325   6.030   2.597  0.0725  0.2123 -0.4036
10407SOL    HW131920   0.420   6.033   2.589  0.0952 -0.0454 -0.2240
10407SOL    HW231921   0.306   5.945   2.635 -0.2239  0.3044 -0.3391
10408SOL     OW31922   7.385   2.672   1.990 -0.0477 -0.2449  0.1179
10408SOL    HW131923   7.327   2.742   2.021  0.7501  1.0016 -1.1085
10408SOL    HW231924   7.397   2.616   2.066 -2.6372 -0.4265  0.5116
10409SOL     OW31925   5.526   3.414   4.602 -0.1961 -0.0904 -0.0564
10409SOL    HW131926   5.436   3.427   4.633 -0.2774  1.6044 -0.8584
10409SOL    HW231927   5.581   3.449   4.672 -0.2704  1.0551 -0.5525
10410SOL     OW31928   6.040   3.625   5.104 -0.1486 -0.4868  0.5156
10410SOL    HW131929   6.096   3.684   5.055 -1.6684  0.9861  0.4425
10410SOL    HW231930   5.995   3.681   5.167 -2.2417 -1.3830 -0.0818
10411SOL     OW31931   5.812   0.452   4.448 -0.0339  0.4755  0.6427
10411SOL    HW131932   5.823   0.529   4.391 -0.0131  0.8155  1.0982
10411SOL    HW231933   5.758   0.392   4.397  0.6942  0.4128 -0.0808
10412SOL     OW31934   4.839   5.332   0.974 -0.1083 -0.0171  0.0532
10412SOL    HW131935   4.893   5.281   1.034 -1.9053 -1.7807  0.2952
10412SOL    HW231936   4.783   5.384   1.032 -1.1666 -0.9837 -0.0629
10413SOL     OW31937   2.699   2.297   5.521 -0.4828  0.6646 -0.1403
10413SOL    HW131938   2.757   2.229   5.487 -1.9828 -1.5391  1.4245
10413SOL    HW231939   2.688   2.357   5.447  0.2046 -1.2583 -1.9428
10414SOL     OW31940   3.537   1.063   0.106 -0.3403 -0.1628  0.3753
10414SOL    HW131941   3.525   1.045   0.200  1.9505  1.1055  0.9845
10414SOL    HW231942   3.583   0.986   0.073  1.2700  0.5071  0.9477
10415SOL     OW31943   5.582   3.136   4.542  0.0810  0.4764  0.4821
10415SOL    HW131944   5.568   3.230   4.548  0.7605  0.5319  1.3999
10415SOL    HW231945   5.597   3.108   4.633 -0.9140 -0.6459  0.3294
10416SOL     OW31946   0.364   7.565   3.555  0.0045  0.3183  0.7757
10416SOL    HW131947   0.334   7.486   3.599  0.6809  0.4057  1.4126
10416SOL    HW231948   0.344   7.550   3.462 -0.3292 -0.3796  0.9545
10417SOL     OW31949   7.108   6.748   3.175  0.1312 -0.2292  0.3953
10417SOL    HW131950   7.052   6.713   3.244  1.3232 -1.1287  0.9531
10417SOL    HW231951   7.068   6.717   3.094 -1.1577  0.6473  0.6699
10418SOL     OW31952   1.044   0.109   3.028  0.2528  0.1186  0.0120
10418SOL    HW131953   1.106   0.042   3.001  0.7150  0.4713  0.1804
10418SOL    HW231954   1.065   0.185   2.974  0.0161  0.2638  0.1225
10419SOL     OW31955   5.922   7.508   2.249 -0.4154 -0.5552  0.3879
10419SOL    HW131956   5.966   7.587   2.281  0.6565 -0.8651 -0.2454
10419SOL    HW231957   5.957   7.437   2.302 -0.8850 -0.6946  0.5191
10420SOL     OW31958   4.962   0.041   6.069 -0.0444  0.7997  0.6515
10420SOL    HW131959   4.875   0.003   6.058  0.4170 -0.1021  0.0663
10420SOL    HW231960   4.944   0.130   6.100 -1.1744  0.6262  0.5636
10421SOL     OW31961   6.426   2.112   2.543 -0.3137  0.2070  0.1935
10421SOL    HW131962   6.409   2.029   2.498 -1.2548  1.1414 -1.2384
10421SOL    HW231963   6.501   2.150   2.497  0.5026 -0.0787  1.2257
10422SOL     OW31964   2.208   6.926   6.401 -0.0476  0.1193 -0.1745
10422SOL    HW131965   2.205   6.839   6.442 -0.1587  0.0010 -0.4285
10422SOL    HW231966   2.139   6.976   6.444  0.6330  0.3849  0.6409
10423SOL     OW31967   3.929   3.388   3.117  0.2585 -0.0633 -0.0323
10423SOL    HW131968   4.022   3.388   3.096  0.4927 -3.0291  0.6013
10423SOL    HW231969   3.924   3.433   3.202  1.0583  0.3739 -0.2067
10424SOL     OW31970   4.029   1.305   6.760 -0.1046  0.3862  0.1631
10424SOL    HW131971   4.096   1.361   6.721  1.1341  0.9664  2.8794
10424SOL    HW231972   4.075   1.224   6.781 -1.2084 -0.6442 -1.1731
10425SOL     OW31973   0.195   0.138   3.504  0.5861 -0.3688  0.2157
10425SOL    HW131974   0.218   0.047   3.523 -0.2122 -1.0106 -1.7339
10425SOL    HW231975   0.179   0.177   3.590  0.9210 -2.0661  1.0800
10426SOL     OW31976   6.793   3.292   3.256 -0.1956  0.0040 -0.5087
10426SOL    HW131977   6.837   3.278   3.339 -0.9406 -0.9011 -0.2525
10426SOL    HW231978   6.839   3.236   3.194 -1.8183 -2.0927  0.0620
10427SOL     OW31979   4.606   1.083   1.175  0.6889  0.7915  0.2686
10427SOL    HW131980   4.633   1.174   1.170  0.1719  0.9110 -0.5583
10427SOL    HW231981   4.659   1.038   1.109  0.2160  0.6867 -0.0427
10428SOL     OW31982   2.818   3.740   1.143 -0.1266  0.4698  0.3195
10428SOL    HW131983   2.834   3.834   1.154  0.4820  0.4957 -0.7298
10428SOL    HW231984   2.903   3.699   1.161 -0.1634  0.1901 -0.1467
10429SOL     OW31985   5.126   1.242   6.071  0.0456  0.5663 -0.4183
10429SOL    HW131986   5.219   1.235   6.047  0.6989 -0.9583  2.1486
10429SOL    HW231987   5.082   1.182   6.012  1.0806 -0.5725 -0.0808
10430SOL     OW31988   0.681   4.443   3.897  0.5015 -0.4303 -0.1238
10430SOL    HW131989   0.639   4.399   3.823 -2.4858 -0.0472  1.1960
10430SOL    HW231990   0.760   4.482   3.860 -0.3135 -1.1328 -2.8492
10431SOL     OW31991   4.186   3.877   4.788 -0.5676 -0.9665 -0.2445
10431SOL    HW131992   4.146   3.940   4.728 -1.4786  0.0821  1.3731
10431SOL    HW231993   4.151   3.901   4.874  1.5852 -1.6385  0.9011
10432SOL     OW31994   4.643   2.629   2.179 -0.1615 -0.2512  0.3273
10432SOL    HW131995   4.698   2.695   2.136 -0.7553  0.4086  0.5551
10432SOL    HW231996   4.686   2.613   2.263 -0.5694  0.6417  0.7245
10433SOL     OW31997   1.696   4.658   3.860 -0.3553  0.3872  0.2914
10433SOL    HW131998   1.786   4.626   3.863  0.5945  2.7964  0.5172
10433SOL    HW231999   1.674   4.677   3.952 -0.3727  1.5074  0.0769
10434SOL     OW32000   4.213   1.748   4.823 -0.5630  0.6093  0.3713
10434SOL    HW132001   4.289   1.773   4.770 -0.9447  1.9711  0.4221
10434SOL    HW232002   4.250   1.715   4.905  0.0739 -2.2964 -0.9619
10435SOL     OW32003   1.557   6.170   1.889  0.6796 -0.1248 -0.3031
10435SOL    HW132004   1.540   6.261   1.864  1.9038 -0.4986 -2.6924
10435SOL    HW232005   1.620   6.177   1.961  1.1927  0.9283 -0.8310
10436SOL     OW32006   2.744   1.839   1.848  0.2817 -0.4033  0.7138
10436SOL    HW132007   2.826   1.793   1.828  0.5556 -0.3898  1.7244
10436SOL    HW232008   2.726   1.817   1.940  0.1928  1.1429  1.1047
10437SOL     OW32009   4.206   6.184   5.194 -0.1177 -0.2507 -0.3397
10437SOL    HW132010   4.219   6.279   5.190 -2.0488  0.0378 -0.5330
10437SOL    HW232011   4.280   6.148   5.146  0.2919  1.1953 -0.8397
10438SOL     OW32012   6.772   5.248   2.993  0.0360 -0.2716 -0.7068
10438SOL    HW132013   6.710   5.219   2.926 -1.0620 -0.8046  0.5163
10438SOL    HW232014   6.732   5.223   3.076  1.4156  0.2996  0.1637
10439SOL     OW32015   4.220   2.691   6.312  0.3073  0.2679 -0.0129
10439SOL    HW132016   4.244   2.616   6.366  1.7083  1.7165  1.4997
10439SOL    HW232017   4.146   2.660   6.260 -0.3030 -1.6215  1.8225
10440SOL     OW32018   2.769   7.641   3.940 -0.7803  0.1304 -0.9085
10440SOL    HW132019   2.695   7.700   3.944 -0.6613  0.2366 -0.1177
10440SOL    HW232020   2.731   7.556   3.917 -1.2109  0.0737  0.0050
10441SOL     OW32021   0.424   1.239   4.674  0.3375  0.3642 -0.2573
10441SOL    HW132022   0.406   1.287   4.593  4.2395 -0.3153 -1.7568
10441SOL    HW232023   0.516   1.260   4.694  0.0179 -0.8188  3.1104
10442SOL     OW32024   1.086   0.295   4.020 -0.1757  0.8040  0.6629
10442SOL    HW132025   1.148   0.322   3.952  1.5308 -0.6359  1.5681
10442SOL    HW232026   1.018   0.247   3.972  0.9614 -0.1294 -0.0572
10443SOL     OW32027   0.506   3.758   1.454 -0.2533 -0.4305  0.4381
10443SOL    HW132028   0.591   3.735   1.416 -0.1957 -0.7657  0.7627
10443SOL    HW232029   0.525   3.832   1.512 -0.4038  0.3247 -0.4504
10444SOL     OW32030   6.935   5.186   1.658  0.0492  0.2585 -0.5092
10444SOL    HW132031   6.941   5.263   1.601  0.2334 -0.4465 -1.4708
10444SOL    HW232032   6.854   5.142   1.631  0.8418 -0.8185 -1.1924
10445SOL     OW32033   3.394   3.205   7.255  0.2976 -0.4895  0.0719
10445SOL    HW132034   3.485   3.214   7.284  0.5845 -0.2103 -0.8695
10445SOL    HW232035   3.365   3.121   7.290  2.1556 -2.4840 -2.7788
10446SOL     OW32036   6.082   4.698   5.840 -0.2324 -0.3992 -0.3509
10446SOL    HW132037   6.086   4.608   5.806 -0.4616 -0.7849  0.6021
10446SOL    HW232038   6.148   4.700   5.909  0.3884  0.4410 -0.9516
10447SOL     OW32039   1.730   1.573   1.942  0.2694  0.1367  0.2124
10447SOL    HW132040   1.823   1.575   1.919  0.0670  1.0016 -0.5970
10447SOL    HW232041   1.728   1.552   2.035  1.3126  0.8744  0.4139
10448SOL     OW32042   2.991   0.768   7.372 -0.5700  0.2168  0.0473
10448SOL    HW132043   2.923   0.716   7.330  0.8403 -0.2904 -1.7026
10448SOL    HW232044   3.032   0.708   7.434 -0.6653  0.0420 -0.0580
10449SOL     OW32045   7.571   2.245   0.541  0.1182  0.0402 -0.4819
10449SOL    HW132046   7.503   2.264   0.476  0.8048  3.2949 -0.3987
10449SOL    HW232047   7.525   2.250   0.625 -0.0814 -0.7264 -0.5351
10450SOL     OW32048   5.962   6.337   6.276  0.1769 -0.2487  0.0032
10450SOL    HW132049   5.999   6.374   6.357 -0.9594  0.2254  0.3293
10450SOL    HW232050   5.873   6.310   6.301  0.2440 -1.2429 -0.7836
10451SOL     OW32051   7.807   3.124   6.048  0.2724  0.1241 -0.0626
10451SOL    HW132052   7.720   3.119   6.087 -0.3290 -0.3009 -1.4006
10451SOL    HW232053   7.804   3.064   5.974  1.6037  0.3607 -0.3456
10452SOL     OW32054   5.035   5.436   5.891 -0.0440 -0.4361 -0.8052
10452SOL    HW132055   5.078   5.520   5.878 -0.1512 -0.1535  0.4890
10452SOL    HW232056   5.039   5.422   5.986  1.8428 -2.8712 -1.1443
10453SOL     OW32057   1.655   6.598   6.426 -0.3168 -0.0940 -0.0297
10453SOL    HW132058   1.741   6.557   6.436  0.0398  1.0291  1.9744
10453SOL    HW232059   1.655   6.632   6.337  1.5484  0.3400  0.0970
10454SOL     OW32060   5.292   0.290   6.733  0.0947  0.1775 -1.1760
10454SOL    HW132061   5.353   0.220   6.757  0.6955  0.1266 -2.7082
10454SOL    HW232062   5.206   0.256   6.758  0.3757 -1.1049 -1.8459
10455SOL     OW32063   6.367   3.819   4.333  0.2476  0.5094  0.2012
10455SOL    HW132064   6.393   3.858   4.249 -2.1344 -0.3679 -1.0520
10455SOL    HW232065   6.281   3.856   4.351  0.8287  0.8749  2.4620
10456SOL     OW32066   7.540   4.378   5.687  0.3214  0.3907  0.1628
10456SOL    HW132067   7.628   4.357   5.719  0.1275  0.7038  0.9237
10456SOL    HW232068   7.552   4.402   5.595  1.0989  0.9309  0.4023
10457SOL     OW32069   5.914   4.209   6.621  0.1150 -0.0010  0.9712
10457SOL    HW132070   5.901   4.235   6.530  0.5785  0.4461  1.0269
10457SOL    HW232071   5.830   4.171   6.647 -0.0621 -0.0214  0.3965
10458SOL     OW32072   0.708   0.358   4.111 -0.9694 -0.1108 -0.2230
10458SOL    HW132073   0.771   0.425   4.085 -0.8531 -1.1376 -2.9499
10458SOL    HW232074   0.757   0.299   4.169 -0.4790  0.9699  0.4818
10459SOL     OW32075   2.445   6.993   3.171 -0.0928  0.0202  0.4355
10459SOL    HW132076   2.450   7.048   3.093  0.4634 -1.0258 -0.2913
10459SOL    HW232077   2.406   6.911   3.141 -0.6277 -0.1155  1.4344
10460SOL     OW32078   2.484   1.286   7.206 -0.4679 -0.0164 -0.9390
10460SOL    HW132079   2.532   1.207   7.232 -2.2054 -0.8465 -0.0942
10460SOL    HW232080   2.530   1.357   7.249  1.7160 -0.3994 -2.4771
10461SOL     OW32081   4.155   1.611   1.067 -0.1574  0.0055 -0.2689
10461SOL    HW132082   4.075   1.561   1.053 -0.6865  0.9427 -0.6501
10461SOL    HW232083   4.149   1.643   1.157  0.8770 -1.8037  0.5002
10462SOL     OW32084   5.342   1.347   5.540  0.0963 -0.3666 -0.1094
10462SOL    HW132085   5.315   1.431   5.505 -0.3494  0.2262  1.5764
10462SOL    HW232086   5.284   1.283   5.499 -1.7036  0.5162  0.9705
10463SOL     OW32087   2.008   6.298   2.179 -0.0579 -0.5947 -0.3685
10463SOL    HW132088   2.056   6.365   2.131 -1.1398 -0.4456 -1.2848
10463SOL    HW232089   2.051   6.295   2.264  1.0865  0.0518 -0.8938
10464SOL     OW32090   4.507   4.811   3.056 -0.1167  0.2070  0.2391
10464SOL    HW132091   4.461   4.764   2.987  0.7456  0.1702 -0.3332
10464SOL    HW232092   4.438   4.845   3.112 -1.0031  2.3739 -1.9943
10465SOL     OW32093   4.485   1.113   5.455  0.3841  0.0828  0.2357
10465SOL    HW132094   4.412   1.052   5.452  1.0608 -0.7376  0.0012
10465SOL    HW232095   4.445   1.199   5.470 -0.8431 -0.0114 -2.0587
10466SOL     OW32096   1.958   5.117   3.684 -0.0334 -0.4135  0.2036
10466SOL    HW132097   1.862   5.115   3.691 -0.2443 -0.6405 -2.0687
10466SOL    HW232098   1.984   5.189   3.740 -1.5827 -0.0354  0.4918
10467SOL     OW32099   7.264   6.721   6.181 -0.0409  0.3636  0.3548
10467SOL    HW132100   7.281   6.627   6.175 -1.6355  0.0160  0.7681
10467SOL    HW232101   7.188   6.728   6.239 -0.8080  1.7944 -0.7450
10468SOL     OW32102   3.188   6.643   6.176  0.4842 -0.2072 -0.0773
10468SOL    HW132103   3.129   6.593   6.119  1.7361 -2.2260  0.2964
10468SOL    HW232104   3.220   6.714   6.121 -2.4980  1.2028 -0.1932
10469SOL     OW32105   1.541   6.661   4.967  0.0086  0.4544  0.2160
10469SOL    HW132106   1.517   6.578   5.007  0.2973  0.8072  1.1471
10469SOL    HW232107   1.542   6.643   4.873 -1.5757 -0.1468  0.2937
10470SOL     OW32108   5.292   2.418   5.409  0.5781 -0.1632 -0.5242
10470SOL    HW132109   5.222   2.443   5.349  0.2924  0.7461  0.1716
10470SOL    HW232110   5.367   2.472   5.384  0.9820 -0.9651 -1.1133
10471SOL     OW32111   5.438   0.053   4.993  0.2375  0.5387 -0.0626
10471SOL    HW132112   5.416   0.140   5.025 -1.2197  1.2763 -2.8566
10471SOL    HW232113   5.428   0.058   4.898  0.7542 -2.5034 -0.3797
10472SOL     OW32114   3.587   3.901   3.044 -0.1906  0.4154 -0.3532
10472SOL    HW132115   3.638   3.839   2.992  0.6477  2.0869 -1.5851
10472SOL    HW232116   3.650   3.939   3.105 -0.4934  0.7641 -0.2556
10473SOL     OW32117   2.133   4.739   7.367  0.0837  0.0794 -0.1963
10473SOL    HW132118   2.090   4.686   7.434 -1.1401  3.0707  1.6082
10473SOL    HW232119   2.226   4.723   7.379 -0.2405 -1.4966  0.3747
10474SOL     OW32120   2.037   2.067   5.013 -0.3205 -0.9559 -0.9930
10474SOL    HW132121   2.060   2.029   5.098 -3.1729 -0.2610  0.1974
10474SOL    HW232122   1.965   2.012   4.981  0.0213 -0.5740 -2.4868
10475SOL     OW32123   1.521   0.994   4.196  0.6799 -0.4104  0.4404
10475SOL    HW132124   1.466   1.063   4.160 -1.0508 -1.7280  0.4344
10475SOL    HW232125   1.610   1.027   4.187 -0.0912  1.8093  0.4687
10476SOL     OW32126   7.815   4.648   5.632 -0.1908  0.7897 -0.1619
10476SOL    HW132127   7.800   4.558   5.660  0.6274  1.3301  2.2974
10476SOL    HW232128   7.731   4.692   5.644  0.3871  1.2813  2.9040
10477SOL     OW32129   0.544   3.854   0.308 -0.0152  0.5108 -0.0468
10477SOL    HW132130   0.561   3.859   0.402  0.3312  1.9288 -0.1655
10477SOL    HW232131   0.457   3.814   0.302  0.1337  0.0145  0.8475
10478SOL     OW32132   3.006   5.313   4.575  0.3979  0.2876 -0.4554
10478SOL    HW132133   3.066   5.290   4.504  1.9953 -1.3560  1.3183
10478SOL    HW232134   3.042   5.270   4.652 -2.6075 -0.0451  0.9058
10479SOL     OW32135   3.888   1.732   4.567  0.1340 -0.0145  0.8278
10479SOL    HW132136   3.799   1.714   4.596  0.1361  1.8231  2.1691
10479SOL    HW232137   3.878   1.779   4.485 -0.0551 -1.1643  0.1790
10480SOL     OW32138   3.128   0.337   7.301 -0.2826  0.1261  0.4403
10480SOL    HW132139   3.035   0.360   7.298 -0.7787 -1.7475 -0.9279
10480SOL    HW232140   3.163   0.364   7.216  0.7359  1.7704  1.3246
10481SOL     OW32141   5.809   3.322   0.597 -0.2320 -0.2306  0.6114
10481SOL    HW132142   5.876   3.366   0.544 -0.8879  0.1294  0.0608
10481SOL    HW232143   5.856   3.289   0.673  0.4866  0.4260  0.4618
10482SOL     OW32144   1.992   4.183   0.216  0.1675 -0.4099  0.5999
10482SOL    HW132145   1.937   4.138   0.151  0.4937 -0.1867  0.1706
10482SOL    HW232146   1.955   4.271   0.222  0.7124 -0.1346  0.0214
10483SOL     OW32147   1.331   1.701   2.504 -0.0475  0.1669  0.5381
10483SOL    HW132148   1.347   1.770   2.568 -1.0760  0.2636  0.7120
10483SOL    HW232149   1.242   1.672   2.522 -0.6948  0.7727 -1.3645
10484SOL     OW32150   3.438   6.101   4.712 -0.3073  0.0264 -0.0340
10484SOL    HW132151   3.365   6.121   4.771 -1.3826  0.8316 -1.5602
10484SOL    HW232152   3.442   6.177   4.654  0.8034 -0.6829 -0.9076
10485SOL     OW32153   2.597   3.583   4.479 -0.1464  0.2191  0.1574
10485SOL    HW132154   2.591   3.664   4.428 -0.2548  0.0950 -0.0289
10485SOL    HW232155   2.506   3.563   4.503 -0.0675  0.4379  0.6586
10486SOL     OW32156   6.474   2.266   0.539 -0.9204  0.4014  0.6281
10486SOL    HW132157   6.546   2.284   0.599 -1.3036 -0.1783  1.2869
10486SOL    HW232158   6.431   2.188   0.576  0.2851 -1.5107 -1.7043
10487SOL     OW32159   4.915   4.953   2.938 -0.3107 -0.1139 -0.0626
10487SOL    HW132160   4.866   4.879   2.975 -1.8816  0.8476 -0.1526
10487SOL    HW232161   4.862   4.983   2.865  1.2394 -0.0283 -1.1990
10488SOL     OW32162   4.910   6.542   4.860 -0.0118  0.3080  0.1386
10488SOL    HW132163   4.939   6.630   4.885 -0.0625  0.5171 -0.5268
10488SOL    HW232164   4.927   6.488   4.938 -1.2312  1.1687  1.0360
10489SOL     OW32165   5.754   2.403   1.188 -0.1118  0.2664 -0.2163
10489SOL    HW132166   5.676   2.453   1.214  0.0778  1.1382 -1.2650
10489SOL    HW232167   5.827   2.463   1.205  0.3427 -0.4941  0.6265
10490SOL     OW32168   5.223   1.821   0.855 -0.0975 -0.3559 -0.3383
10490SOL    HW132169   5.237   1.841   0.947  0.2958 -1.8374 -0.0499
10490SOL    HW232170   5.266   1.892   0.807 -0.2607  0.3930  0.6061
10491SOL     OW32171   6.185   5.172   0.725  0.3717 -0.0097  0.3833
10491SOL    HW132172   6.111   5.156   0.784  0.4199 -0.1506  0.4046
10491SOL    HW232173   6.200   5.267   0.731 -1.7831  0.5882 -1.9159
10492SOL     OW32174   2.152   2.440   7.672  0.4349  0.4557 -0.2408
10492SOL    HW132175   2.158   2.409   7.762 -1.1171  1.3613  0.2127
10492SOL    HW232176   2.079   2.502   7.672 -1.6602 -1.7762 -2.7848
10493SOL     OW32177   4.302   2.977   5.541 -0.5215  0.4071  0.0449
10493SOL    HW132178   4.382   3.008   5.583 -0.9980  0.5345  0.8794
10493SOL    HW232179   4.248   2.947   5.614 -0.7007 -0.9228 -0.6138
10494SOL     OW32180   6.234   1.494   3.782 -0.0054 -0.0151  0.2503
10494SOL    HW132181   6.309   1.481   3.723 -1.1184 -0.2709 -1.1598
10494SOL    HW232182   6.186   1.568   3.745 -0.0503  0.6629  1.5937
10495SOL     OW32183   6.742   1.340   0.104 -0.0753  0.0697 -0.2670
10495SOL    HW132184   6.739   1.285   0.025 -2.2778 -1.1492  0.5613
10495SOL    HW232185   6.770   1.426   0.073 -1.0208 -0.3284 -2.4234
10496SOL     OW32186   4.011   5.465   3.408 -0.1935 -0.8850 -0.3196
10496SOL    HW132187   4.071   5.486   3.336 -0.2471 -1.9337 -0.6880
10496SOL    HW232188   3.965   5.547   3.426  0.9778 -0.2004 -0.3816
10497SOL     OW32189   5.365   1.279   7.212 -0.0172 -0.0036 -0.0946
10497SOL    HW132190   5.388   1.267   7.120  1.1514  2.2861 -0.1692
10497SOL    HW232191   5.406   1.362   7.237 -0.0240 -0.6934  2.5887
10498SOL     OW32192   7.308   5.897   0.407 -0.1759  0.5101  0.4088
10498SOL    HW132193   7.346   5.842   0.476  0.5939  0.5680  0.0418
10498SOL    HW232194   7.213   5.889   0.420 -0.0633 -0.3393  0.7996
10499SOL     OW32195   7.839   7.218   4.788 -0.0597 -0.4007 -0.4636
10499SOL    HW132196   7.771   7.162   4.825 -1.2118  0.0669 -1.8028
10499SOL    HW232197   7.880   7.165   4.721 -1.5382  0.4834 -2.1383
10500SOL     OW32198   0.440   7.027   2.381 -0.1496 -0.1370  0.2936
10500SOL    HW132199   0.427   7.076   2.462 -1.5812 -2.8340  1.8263
10500SOL    HW232200   0.367   7.053   2.326  1.5568  2.7612 -0.8754
10501SOL     OW32201   7.167   6.071   6.756 -0.0615 -0.0110  0.6869
10501SOL    HW132202   7.119   6.091   6.676  1.7244 -2.2666 -1.0921
10501SOL    HW232203   7.124   6.124   6.824 -3.9272 -0.5940 -1.0185
10502SOL     OW32204   0.475   7.337   2.784  0.0495  0.2731  0.4628
10502SOL    HW132205   0.448   7.281   2.857  0.4986 -0.2431  0.2387
10502SOL    HW232206   0.559   7.374   2.813  0.8811 -0.9469 -0.3066
10503SOL     OW32207   2.114   3.704   4.709 -0.6074  0.5827 -0.5527
10503SOL    HW132208   2.178   3.728   4.777  0.5875  2.6065 -2.2770
10503SOL    HW232209   2.041   3.763   4.723 -1.6976 -0.9714  0.7064
10504SOL     OW32210   0.341   2.482   5.657  0.1966  0.3912  0.3731
10504SOL    HW132211   0.300   2.455   5.739 -0.6409  0.0303 -0.1573
10504SOL    HW232212   0.319   2.413   5.594 -0.0397  1.1670 -0.4197
10505SOL     OW32213   4.678   2.832   3.393 -0.1227  0.2280  0.3575
10505SOL    HW132214   4.760   2.789   3.369 -0.7196 -1.8111  1.6597
10505SOL    HW232215   4.688   2.922   3.363  2.0409 -0.3028 -0.7111
10506SOL     OW32216   5.087   1.146   0.231  0.1934 -0.0466 -0.0822
10506SOL    HW132217   5.003   1.101   0.231  1.0590 -1.7625  0.5508
10506SOL    HW232218   5.067   1.236   0.255 -1.4441 -0.4430  0.1100
10507SOL     OW32219   0.344   5.800   3.822 -0.0962  0.2324  0.3557
10507SOL    HW132220   0.330   5.705   3.812  1.2586 -0.3126  2.8890
10507SOL    HW232221   0.426   5.817   3.776  0.4230 -0.1361  1.1216
10508SOL     OW32222   6.859   6.886   6.033 -0.1612 -0.5723 -0.0561
10508SOL    HW132223   6.855   6.825   5.960 -0.3931  0.1876 -0.6842
10508SOL    HW232224   6.831   6.970   5.997  0.8745  0.0854  0.6131
10509SOL     OW32225   5.798   6.026   7.421 -0.0127  0.3409 -0.0842
10509SOL    HW132226   5.838   5.944   7.449  0.7452  0.8967  0.5089
10509SOL    HW232227   5.809   6.085   7.496 -0.2925  1.0659 -0.6030
10510SOL     OW32228   6.501   2.411   5.748  0.0082  0.1495  0.2956
10510SOL    HW132229   6.443   2.487   5.759 -0.6106 -0.1609 -0.6808
10510SOL    HW232230   6.442   2.336   5.743  0.5157 -0.2185 -0.3068
10511SOL     OW32231   6.494   6.217   5.445 -0.2130  0.1829  0.3679
10511SOL    HW132232   6.487   6.176   5.359 -0.4410  0.5579  0.2048
10511SOL    HW232233   6.406   6.211   5.482 -0.4412  1.1985  0.0256
10512SOL     OW32234   7.346   6.149   2.994 -0.0485  0.1284 -0.3269
10512SOL    HW132235   7.423   6.197   2.962  0.1333  1.2618  1.5758
10512SOL    HW232236   7.276   6.214   2.992 -0.3981 -0.2353 -0.0053
10513SOL     OW32237   4.534   1.087   4.313 -0.0286  0.5271  0.1658
10513SOL    HW132238   4.599   1.134   4.260 -1.1160  2.1772  0.2262
10513SOL    HW232239   4.483   1.037   4.249  1.8379 -1.5822  0.1995
10514SOL     OW32240   6.932   0.607   3.874  0.0084  0.5828 -0.5085
10514SOL    HW132241   7.006   0.665   3.888 -0.0437  0.6046 -0.3219
10514SOL    HW232242   6.861   0.665   3.845  0.2376  0.4814 -1.2800
10515SOL     OW32243   6.543   1.819   1.296  0.0836 -0.1525 -0.1768
10515SOL    HW132244   6.543   1.724   1.306  2.1095 -0.2193 -0.4339
10515SOL    HW232245   6.592   1.851   1.372  0.6243  0.5757 -0.8217
10516SOL     OW32246   4.945   1.828   5.757  0.2043  0.3027  0.6238
10516SOL    HW132247   5.018   1.860   5.809  1.2465 -0.5131 -0.2867
10516SOL    HW232248   4.904   1.761   5.811  1.6064 -0.9235  0.2411
10517SOL     OW32249   3.522   1.988   4.095 -0.3278 -0.0245 -0.2809
10517SOL    HW132250   3.455   2.049   4.125  0.4706  0.2772  0.9708
10517SOL    HW232251   3.559   2.030   4.017 -3.3653 -1.4627 -2.7109
10518SOL     OW32252   2.855   1.533   0.034  0.2756  0.2278  0.0064
10518SOL    HW132253   2.835   1.564   0.122  0.6684  0.8399 -0.1078
10518SOL    HW232254   2.821   1.444   0.031  0.3761  0.1525  0.8210
10519SOL     OW32255   3.998   4.222   0.070  0.8129  0.2731  0.3662
10519SOL    HW132256   4.047   4.262  -0.001  3.0268 -1.0854  1.0024
10519SOL    HW232257   3.964   4.141   0.032 -0.6285  0.9995  0.0536
10520SOL     OW32258   6.541   4.744   6.275  0.2534  0.2850  0.2088
10520SOL    HW132259   6.518   4.836   6.258  0.5579  0.5065  0.9538
10520SOL    HW232260   6.517   4.730   6.367 -2.2261 -1.1506 -0.5935
10521SOL     OW32261   0.503   6.916   3.029 -0.2257 -0.4004  0.0803
10521SOL    HW132262   0.579   6.868   3.061  1.4790  1.9854 -0.0933
10521SOL    HW232263   0.461   6.951   3.108 -1.3445 -1.8783  0.1914
10522SOL     OW32264   3.680   6.758   1.112  0.0761 -0.8805 -0.0580
10522SOL    HW132265   3.598   6.800   1.134  0.1596 -0.5205 -0.4088
10522SOL    HW232266   3.655   6.678   1.067 -0.1150  0.1598 -1.9204
10523SOL     OW32267   0.156   4.618   3.668 -0.5255 -0.1056 -0.0369
10523SOL    HW132268   0.230   4.569   3.704 -0.7193 -0.2592  0.1557
10523SOL    HW232269   0.082   4.557   3.674 -0.2968 -0.6238 -1.9312
10524SOL     OW32270   5.227   3.677   2.634 -0.5460 -0.4580 -0.2931
10524SOL    HW132271   5.279   3.751   2.603  0.1930 -0.0765  1.7088
10524SOL    HW232272   5.136   3.706   2.625 -0.3126  0.1067 -0.8912
10525SOL     OW32273   3.954   6.406   6.712  0.3121 -0.0240 -0.3940
10525SOL    HW132274   4.045   6.437   6.712 -0.2558  1.7647  0.2069
10525SOL    HW232275   3.910   6.460   6.778 -0.9334 -1.7218  0.2403
10526SOL     OW32276   7.720   3.668   0.926  0.0203 -0.3022  0.5418
10526SOL    HW132277   7.808   3.701   0.944  0.4666 -1.3349  0.3275
10526SOL    HW232278   7.688   3.722   0.853  0.7498 -0.3756  0.1610
10527SOL     OW32279   3.664   6.523   5.552 -0.0232  0.6684 -0.1821
10527SOL    HW132280   3.709   6.453   5.600 -1.5941  0.9667  1.9000
10527SOL    HW232281   3.572   6.498   5.554 -0.4385  2.0215 -0.7898
10528SOL     OW32282   2.387   2.590   5.574 -0.2338 -0.2647 -0.3152
10528SOL    HW132283   2.453   2.646   5.615 -0.1477 -0.5987  0.0009
10528SOL    HW232284   2.327   2.567   5.645 -0.6892  0.0306 -0.5977
10529SOL     OW32285   3.504   0.052   4.551 -0.7316 -0.6142  0.2264
10529SOL    HW132286   3.555   0.133   4.549 -1.8194  0.0957  0.1871
10529SOL    HW232287   3.569  -0.018   4.542  0.2699  0.2329  0.7077
10530SOL     OW32288   3.862   0.644   4.059 -0.4964  0.5313  0.1528
10530SOL    HW132289   3.894   0.729   4.090 -0.4202  0.9021 -0.8898
10530SOL    HW232290   3.785   0.627   4.113  1.1348 -0.1849  2.4219
10531SOL     OW32291   5.970   0.856   4.978  0.2900  0.3766 -0.1626
10531SOL    HW132292   5.892   0.883   4.929 -0.4295 -0.4002  0.5305
10531SOL    HW232293   5.963   0.761   4.984  1.8058  0.1865 -0.9122
10532SOL     OW32294   7.758   2.485   4.054 -0.3205 -0.2051  0.0392
10532SOL    HW132295   7.731   2.452   4.139 -1.0742  0.0456 -0.1015
10532SOL    HW232296   7.780   2.406   4.004  0.0990 -0.3531  0.4458
10533SOL     OW32297   6.526   3.238   5.551 -0.2796 -0.1882 -0.4285
10533SOL    HW132298   6.531   3.281   5.637  3.1623 -0.8070 -0.1489
10533SOL    HW232299   6.469   3.163   5.564 -0.6507  0.3175  1.0454
10534SOL     OW32300   5.032   3.148   1.934 -0.5558  0.0339  0.1078
10534SOL    HW132301   5.025   3.138   1.839  0.3159  0.2841  0.0104
10534SOL    HW232302   4.948   3.186   1.960 -0.2542  1.3495 -0.7636
10535SOL     OW32303   6.123   3.925   5.770 -0.4059 -0.3395  0.2312
10535SOL    HW132304   6.091   4.010   5.739  0.8965 -0.1326 -0.6214
10535SOL    HW232305   6.213   3.942   5.799 -0.3061 -1.3310  0.5499
10536SOL     OW32306   1.226   7.380   0.270  0.2425  0.1797  0.3966
10536SOL    HW132307   1.314   7.412   0.289 -0.4082  1.3597  1.5965
10536SOL    HW232308   1.169   7.456   0.281 -0.9199 -0.5125 -0.5299
10537SOL     OW32309   6.797   6.877   5.283 -0.3870 -0.4014  0.3657
10537SOL    HW132310   6.786   6.864   5.377  0.4826  0.1137  0.5571
10537SOL    HW232311   6.756   6.962   5.265  1.3424  0.5568  0.7099
10538SOL     OW32312   2.915   2.297   6.258 -0.2066 -0.2974 -0.3608
10538SOL    HW132313   2.858   2.250   6.320 -1.2286  0.6043 -0.5892
10538SOL    HW232314   2.894   2.389   6.272  1.0979  0.0503 -0.5753
10539SOL     OW32315   1.008   1.400   4.651 -0.1204 -0.0397  0.8840
10539SOL    HW132316   1.055   1.364   4.726 -0.3835  0.8673  1.5063
10539SOL    HW232317   1.073   1.406   4.582 -0.3442 -2.9536  0.2640
10540SOL     OW32318   2.618   6.756   7.107  0.4421  0.3031  0.1229
10540SOL    HW132319   2.693   6.715   7.064 -0.7421 -1.7690 -0.1343
10540SOL    HW232320   2.558   6.777   7.036  0.5029  1.3995  0.3766
10541SOL     OW32321   7.196   3.828   6.513 -0.4093 -0.0525  0.1130
10541SOL    HW132322   7.272   3.796   6.464 -0.6209 -0.8632  0.2943
10541SOL    HW232323   7.233   3.882   6.583 -0.0772  0.6889 -0.6128
10542SOL     OW32324   7.637   7.371   1.916  0.2730  0.9650 -0.2936
10542SOL    HW132325   7.697   7.298   1.903 -0.4304  0.4392 -0.6657
10542SOL    HW232326   7.682   7.428   1.978  0.9213  0.3244 -0.1588
10543SOL     OW32327   6.376   7.466   7.169 -0.0995 -0.1563 -0.3870
10543SOL    HW132328   6.453   7.501   7.123  0.3154  0.1546  0.5224
10543SOL    HW232329   6.307   7.530   7.151  0.5146  0.8946  0.8247
10544SOL     OW32330   0.362   0.227   6.655 -0.0521  0.3848 -0.0893
10544SOL    HW132331   0.443   0.277   6.643  1.1442 -1.7409 -1.3783
10544SOL    HW232332   0.305   0.287   6.703  2.0307  2.1986  0.3131
10545SOL     OW32333   5.596   1.627   3.630  0.4281 -0.1259 -0.2983
10545SOL    HW132334   5.616   1.671   3.548 -1.8552 -1.4715 -1.6955
10545SOL    HW232335   5.633   1.539   3.621  0.3896 -0.1997  0.2109
10546SOL     OW32336   4.414   0.929   2.073 -0.6069  0.4402 -0.1081
10546SOL    HW132337   4.336   0.902   2.120 -0.1686  1.5680  1.3771
10546SOL    HW232338   4.473   0.854   2.079 -0.5940  0.5267  1.1191
10547SOL     OW32339   1.180   2.005   2.691  0.3928 -0.0344 -0.7649
10547SOL    HW132340   1.085   1.998   2.695  0.4342 -0.3554  0.0401
10547SOL    HW232341   1.197   2.080   2.634 -0.3555  0.4249 -0.4010
10548SOL     OW32342   6.501   4.171   1.643  0.3682  0.0218  0.6709
10548SOL    HW132343   6.446   4.222   1.584  0.1806  0.8194  1.5155
10548SOL    HW232344   6.475   4.080   1.628 -1.5618  0.4039  1.4027
10549SOL     OW32345   4.195   3.430   1.567  0.1543 -0.3484  0.0977
10549SOL    HW132346   4.208   3.389   1.653  0.0675 -1.2980 -0.3307
10549SOL    HW232347   4.126   3.379   1.526 -0.6648  0.8529 -0.0761
10550SOL     OW32348   0.588   1.713   3.803 -0.0138 -0.2120 -0.0047
10550SOL    HW132349   0.603   1.796   3.758 -0.5181  0.6641  1.3604
10550SOL    HW232350   0.657   1.655   3.771  2.2570  1.6420  1.2254
10551SOL     OW32351   4.760   7.497   0.859 -0.2058 -0.2831  1.0351
10551SOL    HW132352   4.675   7.493   0.903 -0.0492  0.1736  1.3833
10551SOL    HW232353   4.800   7.413   0.879  0.0438  0.0780  2.1540
10552SOL     OW32354   4.043   0.862   3.402 -0.7839  0.1897  0.2717
10552SOL    HW132355   4.128   0.904   3.411 -0.3035 -0.2882 -1.6599
10552SOL    HW232356   4.047   0.785   3.459  0.3169 -0.1546 -0.2496
10553SOL     OW32357   0.737   7.442   5.462  0.0840 -0.2785  0.7873
10553SOL    HW132358   0.726   7.498   5.385  1.9644  0.0779  0.7535
10553SOL    HW232359   0.802   7.377   5.436  0.7271 -0.1719  2.0679
10554SOL     OW32360   6.924   2.260   6.010  0.2897  0.7113  0.5305
10554SOL    HW132361   6.867   2.204   6.062  1.5581 -0.3222  0.8601
10554SOL    HW232362   6.940   2.336   6.066 -0.9642  1.1527  0.3183
10555SOL     OW32363   6.984   1.784   4.502 -0.2124  0.8428  0.3381
10555SOL    HW132364   7.012   1.843   4.572  0.6583  2.5318 -1.3191
10555SOL    HW232365   7.065   1.759   4.458 -0.4680 -2.4059  1.4877
10556SOL     OW32366   4.862   2.647   0.166  0.0088 -0.7097 -0.5222
10556SOL    HW132367   4.953   2.624   0.188  0.2146 -0.8199 -1.4271
10556SOL    HW232368   4.813   2.566   0.180 -0.0331 -0.5216  0.4212
10557SOL     OW32369   1.898   4.540   6.432 -0.4312  0.5111 -0.3963
10557SOL    HW132370   1.877   4.622   6.387  0.6911  0.9227 -0.1891
10557SOL    HW232371   1.855   4.549   6.518 -0.5836  0.7407 -0.4941
10558SOL     OW32372   7.218   1.758   6.228 -0.0365 -0.6930 -0.4358
10558SOL    HW132373   7.132   1.724   6.251 -0.6244 -0.2776 -1.8985
10558SOL    HW232374   7.200   1.839   6.180  1.1605 -0.6610 -0.8660
10559SOL     OW32375   7.620   1.132   5.158 -0.0395 -0.5426 -0.7097
10559SOL    HW132376   7.605   1.083   5.240 -1.4677  0.9393 -0.0377
10559SOL    HW232377   7.697   1.185   5.176 -0.2472 -0.3492 -0.3899
10560SOL     OW32378   1.318   1.717   5.963 -0.4084 -0.2107 -0.5470
10560SOL    HW132379   1.365   1.742   6.043 -0.1651 -1.4973 -0.2536
10560SOL    HW232380   1.386   1.678   5.907 -1.0943 -2.1178 -0.1082
10561SOL     OW32381   7.939   4.836   6.263  0.2438 -0.6755 -0.8337
10561SOL    HW132382   7.940   4.907   6.327  2.3817 -0.5851 -0.9007
10561SOL    HW232383   7.856   4.791   6.278  0.9237 -1.0606  2.4711
10562SOL     OW32384   2.354   2.854   1.223 -0.1955  0.0444  0.3466
10562SOL    HW132385   2.338   2.943   1.191 -1.9244 -0.7759 -1.2447
10562SOL    HW232386   2.399   2.867   1.306  0.8969  2.3741 -0.5146
10563SOL     OW32387   5.208   5.308   3.148 -0.3332 -0.4602  0.2543
10563SOL    HW132388   5.211   5.351   3.233  0.2852  1.1586 -0.5358
10563SOL    HW232389   5.296   5.317   3.113 -0.6248 -0.9057 -0.6475
10564SOL     OW32390   2.913   3.101   5.029  0.4072 -0.5691 -0.4120
10564SOL    HW132391   2.930   3.121   4.937 -1.1478 -1.4980 -0.9308
10564SOL    HW232392   2.981   3.149   5.077 -0.8193  2.8845 -1.7738
10565SOL     OW32393   6.406   0.646   4.267 -0.3324 -0.5062 -0.8728
10565SOL    HW132394   6.316   0.662   4.239 -0.1865  0.3702 -0.8660
10565SOL    HW232395   6.435   0.730   4.303  0.2218 -0.9954 -0.1405
10566SOL     OW32396   2.782   6.510   6.988  0.6145  0.0159 -0.5820
10566SOL    HW132397   2.775   6.433   6.931  0.3834  0.0594 -0.6142
10566SOL    HW232398   2.783   6.474   7.077 -1.4152  0.0547 -0.4930
10567SOL     OW32399   4.430   5.452   0.836  0.1455  0.0354  0.1618
10567SOL    HW132400   4.452   5.367   0.873 -1.3773 -0.8463 -0.8217
10567SOL    HW232401   4.346   5.474   0.877 -0.1663  0.3771 -0.6459
10568SOL     OW32402   0.225   0.612   1.055 -0.1097  0.3224  0.7095
10568SOL    HW132403   0.302   0.557   1.071  0.8891  1.6052  0.4463
10568SOL    HW232404   0.247   0.696   1.095 -1.4917  0.6402  0.8557
10569SOL     OW32405   5.869   6.108   6.592 -0.3149 -0.4493 -0.2370
10569SOL    HW132406   5.899   6.019   6.612 -0.9357 -0.5364  0.3523
10569SOL    HW232407   5.776   6.098   6.572 -0.2184 -0.0310 -0.9322
10570SOL     OW32408   0.091   7.937   6.111  0.1065 -0.3173  0.2944
10570SOL    HW132409   0.150   8.011   6.126  2.1934 -1.9139  0.4571
10570SOL    HW232410   0.052   7.919   6.196  2.8892 -1.9760  1.3602
10571SOL     OW32411   2.728   3.706   3.309 -0.1295  0.2278 -0.7207
10571SOL    HW132412   2.654   3.656   3.273 -0.0403 -2.3512  2.2148
10571SOL    HW232413   2.804   3.650   3.294  0.2922  0.2906  1.0342
10572SOL     OW32414   3.417   3.381   7.822  0.4171 -0.0535 -0.0427
10572SOL    HW132415   3.363   3.454   7.854 -0.5876 -0.9006  0.2746
10572SOL    HW232416   3.354   3.321   7.782  1.4396  0.1472 -2.0870
10573SOL     OW32417   5.573   0.117   7.187 -0.0894  0.2295  0.1185
10573SOL    HW132418   5.624   0.163   7.119 -0.0423  2.7102  1.7195
10573SOL    HW232419   5.482   0.131   7.162 -0.0677  0.7311  0.3290
10574SOL     OW32420   4.547   7.200   0.149  0.1766  0.4242  0.3873
10574SOL    HW132421   4.616   7.189   0.214  0.7616 -0.0113 -0.2878
10574SOL    HW232422   4.593   7.229   0.070 -0.5764  1.3899  0.2919
10575SOL     OW32423   4.319   1.888   4.030  0.2746 -0.4842  0.0654
10575SOL    HW132424   4.395   1.941   4.006  1.2875 -1.1114  1.7042
10575SOL    HW232425   4.336   1.803   3.991  0.9404 -0.9171  1.2511
10576SOL     OW32426   5.515   7.682   2.176  0.1123  0.1036 -0.1024
10576SOL    HW132427   5.504   7.752   2.241  1.5931 -0.0430  0.3432
10576SOL    HW232428   5.431   7.679   2.130  0.1135  2.4706 -0.4237
10577SOL     OW32429   1.728   3.487   2.639 -0.1796  0.2879  0.9789
10577SOL    HW132430   1.679   3.541   2.701 -0.7406  2.0783 -0.9237
10577SOL    HW232431   1.764   3.549   2.575  2.1241 -1.2639  0.6162
10578SOL     OW32432   3.157   1.114   5.273 -0.1885 -0.0083  0.1948
10578SOL    HW132433   3.212   1.038   5.252  0.6373  0.3132  1.1131
10578SOL    HW232434   3.133   1.101   5.364  0.9967  1.4412  0.7495
10579SOL     OW32435   0.300   0.922   2.299 -0.5254  0.4227 -0.2272
10579SOL    HW132436   0.230   0.880   2.249  0.0377 -0.2318 -0.4901
10579SOL    HW232437   0.376   0.918   2.241  0.9201 -2.8511  1.5871
10580SOL     OW32438   3.666   2.976   7.766 -0.2578  0.0528 -0.1100
10580SOL    HW132439   3.634   3.065   7.753 -1.0159 -0.1057  0.6260
10580SOL    HW232440   3.688   2.971   7.859 -0.4662 -0.6087 -0.0903
10581SOL     OW32441   2.101   4.471   0.709  0.0321 -0.0480  0.7344
10581SOL    HW132442   2.019   4.473   0.759 -0.3807  2.2542  0.0537
10581SOL    HW232443   2.149   4.548   0.739  1.5178 -0.8102  0.3783
10582SOL     OW32444   5.266   2.186   7.789  0.2932 -0.1868  0.0898
10582SOL    HW132445   5.244   2.095   7.768 -0.4229  0.5475 -2.7762
10582SOL    HW232446   5.195   2.214   7.848  0.9705 -1.6575  1.6841
10583SOL     OW32447   5.947   3.127   1.152  0.0899  0.0544  0.5307
10583SOL    HW132448   5.899   3.055   1.111 -0.8134  0.6918  0.4384
10583SOL    HW232449   5.880   3.192   1.173  0.5939  0.0160  2.4754
10584SOL     OW32450   3.588   1.820   1.861  0.7995 -0.1567  0.0802
10584SOL    HW132451   3.682   1.825   1.849  0.7117  1.5992 -0.1274
10584SOL    HW232452   3.576   1.828   1.956  0.8790 -0.8056  0.1448
10585SOL     OW32453   6.838   1.250   6.825  0.4907  0.2509  0.1788
10585SOL    HW132454   6.807   1.170   6.868  1.7065 -0.4252 -0.1742
10585SOL    HW232455   6.848   1.313   6.897  0.4374 -0.2000  0.5858
10586SOL     OW32456   4.639   5.388   3.991 -0.2396  0.9779  0.5227
10586SOL    HW132457   4.716   5.427   4.033  0.0378  0.4420  0.5132
10586SOL    HW232458   4.669   5.303   3.959 -0.3135  1.5401 -1.1471
10587SOL     OW32459   5.076   3.620   5.597  0.5282 -0.6157  0.0996
10587SOL    HW132460   4.985   3.606   5.571  0.9364 -0.7200 -1.3294
10587SOL    HW232461   5.070   3.666   5.681 -0.8338 -0.2032 -0.2013
10588SOL     OW32462   1.637   0.143   3.232  0.2213 -0.1202 -0.2423
10588SOL    HW132463   1.720   0.191   3.233  0.0526  0.2279 -1.3156
10588SOL    HW232464   1.664   0.051   3.223  0.5320 -0.2284  1.4650
10589SOL     OW32465   1.911   4.973   5.438  0.5610 -0.4434  0.1160
10589SOL    HW132466   1.933   5.037   5.505 -1.3853  1.4797 -0.9548
10589SOL    HW232467   1.904   5.024   5.357 -1.0610 -1.9853 -0.7910
10590SOL     OW32468   7.501   1.535   5.765  0.8401 -0.0175 -0.7964
10590SOL    HW132469   7.416   1.496   5.746 -0.1716  0.7179  1.7943
10590SOL    HW232470   7.493   1.626   5.737  0.2262  0.4155  0.6842
10591SOL     OW32471   1.868   4.216   1.688  0.4964  0.1999 -0.2157
10591SOL    HW132472   1.854   4.175   1.773 -0.9306  1.9605  0.4528
10591SOL    HW232473   1.952   4.261   1.696  1.1900 -1.0140 -0.3548
10592SOL     OW32474   5.857   4.374   1.184  0.0075  0.1002  0.0229
10592SOL    HW132475   5.814   4.320   1.117 -1.8522  0.0027  1.2411
10592SOL    HW232476   5.929   4.417   1.137 -0.5016 -0.8671 -1.7447
10593SOL     OW32477   3.915   5.818   7.033  0.1449 -0.5414 -0.0000
10593SOL    HW132478   3.924   5.864   7.116  1.7909  1.3147 -1.0961
10593SOL    HW232479   3.968   5.739   7.043  2.2590  0.7985  0.0351
10594SOL     OW32480   3.815   4.243   2.322  0.6175 -0.0148 -0.6598
10594SOL    HW132481   3.883   4.235   2.256  1.6020 -1.7906  0.4814
10594SOL    HW232482   3.779   4.154   2.331 -0.4509  0.4695  0.2032
10595SOL     OW32483   2.467   2.516   3.361 -0.2749  0.3889 -0.4499
10595SOL    HW132484   2.417   2.435   3.373  0.9097 -0.2610  0.4052
10595SOL    HW232485   2.441   2.548   3.275 -2.1186  0.0840 -0.0474
10596SOL     OW32486   0.790   2.469   2.073  0.7748 -0.4466  0.6722
10596SOL    HW132487   0.733   2.472   2.149 -0.0374  0.8071  0.0436
10596SOL    HW232488   0.753   2.532   2.011  1.4738 -1.3309 -0.7280
10597SOL     OW32489   1.085   1.601   6.064 -0.2687 -0.0851 -0.1748
10597SOL    HW132490   1.077   1.696   6.076 -1.2582 -0.2097  0.2786
10597SOL    HW232491   1.171   1.589   6.024  0.3921  0.9110  0.8839
10598SOL     OW32492   3.391   7.652   5.811 -0.5769 -0.0837  0.7281
10598SOL    HW132493   3.415   7.561   5.797  1.0960  0.3694  0.4969
10598SOL    HW232494   3.425   7.699   5.735 -0.4050  0.8996  1.3821
10599SOL     OW32495   0.043   4.248   1.089 -1.1674  0.0426  0.6544
10599SOL    HW132496   0.035   4.316   1.022 -2.9095 -0.5496  0.2030
10599SOL    HW232497   0.129   4.262   1.127  0.0804  0.1744 -1.9807
10600SOL     OW32498   3.863   3.886   4.398  0.7038 -0.5882  0.1805
10600SOL    HW132499   3.882   3.794   4.417  1.5067 -0.4402  0.1249
10600SOL    HW232500   3.949   3.928   4.395  0.3528  0.1293  0.0187
10601SOL     OW32501   4.489   6.680   7.082  0.2724  0.3080  0.6467
10601SOL    HW132502   4.480   6.635   6.998 -0.3469  0.8587  0.4120
10601SOL    HW232503   4.451   6.620   7.146  1.6298 -0.5497  0.6948
10602SOL     OW32504   4.034   4.669   0.408  0.4479  0.3856  0.3584
10602SOL    HW132505   3.970   4.642   0.474  0.7273  1.4034  1.0681
10602SOL    HW232506   4.041   4.593   0.349 -0.0155 -0.4359  1.3263
10603SOL     OW32507   2.294   7.491   4.336  0.2763 -0.3592 -0.0043
10603SOL    HW132508   2.348   7.420   4.301  2.5842 -0.5323  3.4292
10603SOL    HW232509   2.262   7.457   4.420 -1.5774  1.4125  0.0812
10604SOL     OW32510   7.065   6.381   5.259 -0.0610 -0.2812 -0.4222
10604SOL    HW132511   7.121   6.304   5.248  0.1911 -0.3074  0.9121
10604SOL    HW232512   6.993   6.367   5.197 -0.4645 -2.0102  0.3760
10605SOL     OW32513   4.208   1.653   1.608 -0.0899 -0.5356  0.1216
10605SOL    HW132514   4.294   1.683   1.577  0.0463 -2.0263 -1.0450
10605SOL    HW232515   4.228   1.584   1.671 -0.4121 -1.5825 -0.8944
10606SOL     OW32516   6.060   6.945   3.902 -0.7099  0.0638  0.2485
10606SOL    HW132517   6.110   6.997   3.839  0.0689  0.7757  1.4210
10606SOL    HW232518   6.027   6.871   3.851 -0.9247  1.1205 -1.2071
10607SOL     OW32519   1.795   4.568   7.719  0.3203 -0.8221  0.2969
10607SOL    HW132520   1.785   4.520   7.801 -0.8284 -1.1573 -0.0263
10607SOL    HW232521   1.725   4.535   7.662  1.7182 -1.3613 -1.2057
10608SOL     OW32522   4.225   2.171   1.223  0.4920  0.0948  0.2627
10608SOL    HW132523   4.158   2.112   1.188  0.8729 -0.3624  0.2939
10608SOL    HW232524   4.230   2.242   1.160  1.3723 -0.8555 -0.7625
10609SOL     OW32525   5.433   0.312   0.267 -0.2235 -0.2220 -0.0715
10609SOL    HW132526   5.396   0.399   0.253  1.4128  0.6976  1.0133
10609SOL    HW232527   5.378   0.273   0.335 -2.4621 -1.0711 -2.2055
10610SOL     OW32528   7.094   1.063   3.583  0.3112 -0.5886  0.0295
10610SOL    HW132529   7.027   1.110   3.633  0.8877  0.1001  0.1681
10610SOL    HW232530   7.076   0.970   3.600 -0.0660 -0.3887  0.7650
10611SOL     OW32531   1.700   5.210   7.216  0.3982  0.2297  0.1064
10611SOL    HW132532   1.616   5.250   7.196 -0.3037 -1.0832  0.3285
10611SOL    HW232533   1.742   5.272   7.276 -0.1390  1.1842 -0.4881
10612SOL     OW32534   6.184   2.855   7.169  0.3439 -0.2842 -0.7444
10612SOL    HW132535   6.161   2.917   7.239  1.6581 -0.1108 -0.4373
10612SOL    HW232536   6.115   2.789   7.172 -2.0121  1.9132 -2.1074
10613SOL     OW32537   3.615   6.600   2.090  0.3513  0.4911  0.6409
10613SOL    HW132538   3.635   6.516   2.133 -0.3712  0.3925  0.8046
10613SOL    HW232539   3.519   6.601   2.085  0.3134 -1.0972 -4.0709
10614SOL     OW32540   0.920   3.316   3.072  0.5173  0.1547  0.1757
10614SOL    HW132541   0.969   3.373   3.013  2.0456  0.3391  1.5681
10614SOL    HW232542   0.924   3.359   3.157 -2.9727  0.6869  0.2113
10615SOL     OW32543   7.939   1.222   2.077  0.1951 -0.3753  0.1687
10615SOL    HW132544   7.968   1.152   2.018 -2.9555  0.1428 -2.3166
10615SOL    HW232545   7.981   1.301   2.042  0.4337 -0.4376  0.3129
10616SOL     OW32546   7.037   6.050   4.118 -0.1470  0.2176  0.3354
10616SOL    HW132547   7.111   6.103   4.091 -0.8667  0.8603 -0.4307
10616SOL    HW232548   7.053   5.963   4.080  0.0730  0.4320 -0.0609
10617SOL     OW32549   6.332   3.834   3.338  0.4961 -0.1137  0.2291
10617SOL    HW132550   6.416   3.874   3.361  0.5847 -1.5625  2.7871
10617SOL    HW232551   6.356   3.747   3.305  0.0289 -0.3367  0.4706
10618SOL     OW32552   0.049   3.662   7.044  0.1076  0.1361  0.0907
10618SOL    HW132553   0.067   3.752   7.018 -0.3338  0.7005  1.6206
10618SOL    HW232554   0.085   3.655   7.133  1.0832 -1.5230 -0.3906
10619SOL     OW32555   0.022   3.860   4.258 -0.0812 -0.3014  0.2182
10619SOL    HW132556   0.089   3.808   4.302  0.2404  0.3556  0.5188
10619SOL    HW232557   0.067   3.941   4.234 -0.9426  0.4410  1.0505
10620SOL     OW32558   7.299   1.629   2.463  0.4942 -0.6497 -0.4712
10620SOL    HW132559   7.279   1.536   2.456  0.9889 -0.7173 -1.0647
10620SOL    HW232560   7.271   1.666   2.379 -1.0748  0.0111  0.2950
10621SOL     OW32561   1.215   1.530   6.917  0.4132 -0.6694  0.0062
10621SOL    HW132562   1.164   1.567   6.845  2.3109 -0.0832 -1.1339
10621SOL    HW232563   1.271   1.465   6.875 -0.8113 -2.8175  1.5447
10622SOL     OW32564   3.635   1.762   1.170 -0.0526 -0.3629  0.5070
10622SOL    HW132565   3.709   1.807   1.129  0.1221  1.6456  2.8211
10622SOL    HW232566   3.588   1.831   1.217 -2.2482 -1.9402  0.7739
10623SOL     OW32567   4.737   0.796   7.571  0.1245 -0.4660 -0.4412
10623SOL    HW132568   4.795   0.867   7.598  1.6222 -1.9371  0.4033
10623SOL    HW232569   4.675   0.787   7.644 -0.5336  0.4353 -0.8800
10624SOL     OW32570   5.471   2.836   5.073  0.1954 -0.1847 -0.5469
10624SOL    HW132571   5.406   2.899   5.102 -0.6704 -1.6920  0.9954
10624SOL    HW232572   5.555   2.878   5.090 -0.3127 -0.0963  2.2194
10625SOL     OW32573   5.173   0.330   4.035 -0.2871  0.2460 -0.0830
10625SOL    HW132574   5.134   0.398   3.981  0.4656  0.4968 -0.3203
10625SOL    HW232575   5.245   0.295   3.982  0.3227  0.3479  0.6558
10626SOL     OW32576   4.595   0.941   2.530  0.5165 -0.4334  0.3169
10626SOL    HW132577   4.605   0.904   2.617  0.4042 -0.1910  0.4334
10626SOL    HW232578   4.502   0.930   2.509  0.4686 -0.1606  0.3796
10627SOL     OW32579   1.332   0.526   2.685 -0.2189 -0.6072 -1.0566
10627SOL    HW132580   1.346   0.620   2.698  0.9708 -0.6800 -1.7514
10627SOL    HW232581   1.392   0.501   2.615  2.7889 -2.7396  1.9724
10628SOL     OW32582   6.818   6.645   2.663  0.1626  0.0152  0.6280
10628SOL    HW132583   6.763   6.712   2.703  1.3208  0.6831  1.1497
10628SOL    HW232584   6.884   6.694   2.615 -0.4838 -0.7773 -1.1572
10629SOL     OW32585   5.958   4.710   5.227 -0.3059  0.1716 -0.2608
10629SOL    HW132586   5.963   4.765   5.305  1.4818  1.9138 -1.5241
10629SOL    HW232587   6.045   4.672   5.218 -0.2149  0.7117 -1.9015
10630SOL     OW32588   2.725   3.166   6.098  0.3678  0.7777  0.2422
10630SOL    HW132589   2.776   3.098   6.142  0.6701  1.1582  0.4957
10630SOL    HW232590   2.727   3.240   6.159 -1.7128  0.3323  0.9131
10631SOL     OW32591   6.792   7.116   0.231  0.1261 -0.1328 -0.1230
10631SOL    HW132592   6.774   7.111   0.325 -0.8202  1.1589 -0.2216
10631SOL    HW232593   6.783   7.025   0.201  0.7024 -0.6104  1.0556
10632SOL     OW32594   2.140   7.553   1.302  0.6239 -0.1129 -0.6037
10632SOL    HW132595   2.225   7.520   1.275  0.0254 -1.4271 -0.9687
10632SOL    HW232596   2.079   7.483   1.280 -0.4647  0.5216  0.2722
10633SOL     OW32597   0.303   7.744   3.299  0.1325  0.0461  0.4720
10633SOL    HW132598   0.397   7.737   3.282 -0.0167 -1.9635  0.2377
10633SOL    HW232599   0.263   7.757   3.213  0.0272 -1.7146  0.2233
10634SOL     OW32600   2.594   3.274   1.067  0.0402 -0.4330  0.2239
10634SOL    HW132601   2.529   3.341   1.045 -0.3032 -0.8838 -0.1486
10634SOL    HW232602   2.665   3.288   1.003 -0.1304 -0.5649  0.0053
10635SOL     OW32603   7.825   4.969   3.787  0.0436  0.0524  0.6496
10635SOL    HW132604   7.764   5.026   3.740 -0.2355 -0.2984  0.5850
10635SOL    HW232605   7.794   4.971   3.878 -0.3453 -0.4907  0.5329
10636SOL     OW32606   6.570   2.888   7.363  0.0906 -0.1337  0.0952
10636SOL    HW132607   6.617   2.953   7.309 -0.7097  1.0774  0.8106
10636SOL    HW232608   6.621   2.884   7.444  1.0124 -1.5862 -0.5229
10637SOL     OW32609   3.893   6.992   4.353  0.3340  0.0614  0.2777
10637SOL    HW132610   3.901   6.944   4.270 -1.0325  0.1835  0.0471
10637SOL    HW232611   3.907   6.926   4.420  0.3114 -0.2875 -0.0571
10638SOL     OW32612   5.397   5.043   2.815 -0.2856 -0.2359  0.6482
10638SOL    HW132613   5.457   5.038   2.889  0.4258 -1.3800  0.0181
10638SOL    HW232614   5.415   5.129   2.776  0.7359 -0.4361  0.6458
10639SOL     OW32615   1.278   2.607   7.514 -0.0616  0.1676 -0.3052
10639SOL    HW132616   1.211   2.605   7.582 -1.6191  1.7496 -1.7202
10639SOL    HW232617   1.322   2.691   7.527  0.4123 -0.0358 -0.5680
10640SOL     OW32618   1.270   2.044   6.015 -0.1905  0.7722 -0.0647
10640SOL    HW132619   1.304   1.977   5.955  0.6424  1.1236 -0.0065
10640SOL    HW232620   1.294   2.127   5.974  0.1191  1.0179  0.6018
10641SOL     OW32621   5.544   2.747   1.604  0.1698  0.1062 -0.0297
10641SOL    HW132622   5.451   2.769   1.595  0.2676  0.2330 -0.8623
10641SOL    HW232623   5.566   2.702   1.522  0.5642 -0.9842  0.6585
10642SOL     OW32624   3.184   5.812   0.637  0.4081 -0.2172 -0.2701
10642SOL    HW132625   3.231   5.859   0.706  0.6958 -1.1833  0.2205
10642SOL    HW232626   3.215   5.851   0.555  0.9307  0.1787  0.1113
10643SOL     OW32627   0.261   1.024   0.263  0.4384 -0.0333 -0.2518
10643SOL    HW132628   0.214   0.956   0.312  0.3609 -1.4635 -2.1872
10643SOL    HW232629   0.196   1.092   0.247 -0.1827 -0.6561 -0.4124
10644SOL     OW32630   4.424   6.758   6.155 -0.2288 -0.1787 -0.1734
10644SOL    HW132631   4.350   6.746   6.095  1.0828 -0.5160 -1.8043
10644SOL    HW232632   4.501   6.742   6.101  1.1078  1.4414  1.1569
10645SOL     OW32633   4.885   2.447   7.439  0.3594 -0.3239  0.0707
10645SOL    HW132634   4.917   2.363   7.405  2.1145  0.2343  0.3024
10645SOL    HW232635   4.921   2.513   7.380 -0.3977  0.3422  0.3258
10646SOL     OW32636   3.906   3.940   6.573  0.0896 -0.1291  0.4579
10646SOL    HW132637   3.892   3.931   6.479 -3.2451 -0.5289  0.8564
10646SOL    HW232638   3.962   4.017   6.581 -3.1948  2.8242 -1.8356
10647SOL     OW32639   3.749   6.387   4.114  0.5782  0.3834  0.6608
10647SOL    HW132640   3.697   6.454   4.071  1.1184  0.2679 -0.1870
10647SOL    HW232641   3.712   6.382   4.203 -0.3935  0.7828  0.2957
10648SOL     OW32642   3.473   3.054   1.145  0.1935 -0.4494 -0.2728
10648SOL    HW132643   3.409   3.040   1.215  2.4167 -1.5091  1.7131
10648SOL    HW232644   3.524   2.973   1.144  2.1923  0.7540 -0.9768
10649SOL     OW32645   7.814   5.238   7.780  0.0477 -0.2232 -0.4725
10649SOL    HW132646   7.811   5.178   7.706  1.4044 -0.7355 -0.1524
10649SOL    HW232647   7.764   5.195   7.849 -0.1272 -0.3552 -0.6837
10650SOL     OW32648   2.930   5.930   0.795 -0.1357  0.2512  0.1998
10650SOL    HW132649   2.901   5.947   0.884 -1.3832  1.1317 -0.3560
10650SOL    HW232650   3.026   5.930   0.800 -0.1963  0.1637  1.5433
10651SOL     OW32651   2.378   3.176   6.011 -0.0108  0.0557 -0.5767
10651SOL    HW132652   2.458   3.226   6.029  1.0445 -0.7080 -2.8366
10651SOL    HW232653   2.397   3.089   6.045 -0.9687  0.4927  1.2549
10652SOL     OW32654   1.237   6.116   1.248  0.1426 -0.0244  0.5305
10652SOL    HW132655   1.296   6.124   1.323  2.6570 -2.1173 -1.0551
10652SOL    HW232656   1.240   6.023   1.225  0.6574  0.7216 -2.9840
10653SOL     OW32657   7.818   5.564   3.488 -0.1265 -0.5006 -0.6117
10653SOL    HW132658   7.818   5.548   3.393 -0.4797 -0.5748 -0.5984
10653SOL    HW232659   7.730   5.595   3.507 -0.1940 -0.9253 -0.2312
10654SOL     OW32660   3.602   5.519   4.512  0.1525  0.3758  0.3848
10654SOL    HW132661   3.646   5.558   4.588 -0.6278  0.6677  0.7006
10654SOL    HW232662   3.522   5.571   4.502  0.7446  1.0095 -1.2977
10655SOL     OW32663   2.951   7.151   3.328 -0.5937  0.3584  0.0845
10655SOL    HW132664   2.858   7.165   3.309 -0.5373  0.4904 -0.1008
10655SOL    HW232665   2.971   7.065   3.290 -0.7234  0.1785  0.4269
10656SOL     OW32666   7.817   5.806   4.264 -0.1368 -0.5380  0.2365
10656SOL    HW132667   7.892   5.771   4.313 -0.3133 -0.0246  0.8939
10656SOL    HW232668   7.814   5.753   4.184 -0.1646 -1.7736  1.0212
10657SOL     OW32669   3.966   3.583   7.350  0.2537 -0.2684  0.1323
10657SOL    HW132670   4.014   3.658   7.386  0.7260 -1.2456  1.6162
10657SOL    HW232671   3.951   3.606   7.258 -0.3971  2.0273  0.7389
10658SOL     OW32672   6.960   7.958   3.925  0.1049 -0.0678  0.3908
10658SOL    HW132673   6.884   7.907   3.953 -0.0542  0.4947  1.0054
10658SOL    HW232674   7.031   7.928   3.982  0.3421 -0.5872 -0.1773
10659SOL     OW32675   0.825   3.179   7.681 -0.1412 -0.0878 -0.1769
10659SOL    HW132676   0.881   3.212   7.610 -0.4499  0.7569 -0.0375
10659SOL    HW232677   0.828   3.247   7.748 -1.6668  0.1737 -0.3402
10660SOL     OW32678   7.258   0.101   3.822 -0.1814  0.0046 -0.1589
10660SOL    HW132679   7.259   0.006   3.808 -0.6580  0.1312 -1.0953
10660SOL    HW232680   7.168   0.128   3.803  0.0256  0.6873 -0.2016
10661SOL     OW32681   3.317   4.846   2.919 -0.5217  0.7977 -0.1723
10661SOL    HW132682   3.316   4.775   2.855 -1.0929 -0.1871  0.8864
10661SOL    HW232683   3.259   4.912   2.882  1.0546  1.3523 -1.8124
10662SOL     OW32684   2.358   2.118   4.804 -0.4935 -0.1233 -0.1258
10662SOL    HW132685   2.323   2.163   4.881  0.4641 -1.4342  1.1518
10662SOL    HW232686   2.313   2.033   4.804 -1.0437  0.1486 -1.4945
10663SOL     OW32687   6.924   0.229   1.308 -0.1396 -0.2671  0.6575
10663SOL    HW132688   6.924   0.137   1.281 -0.2372 -0.1618  0.2817
10663SOL    HW232689   6.850   0.267   1.260 -0.1635 -0.0160  0.8925
10664SOL     OW32690   2.538   7.027   2.687  0.6274  0.1855  0.1434
10664SOL    HW132691   2.568   6.982   2.607  1.0915  0.2396  0.2841
10664SOL    HW232692   2.562   6.967   2.758  0.3214  0.1912  0.2498
10665SOL     OW32693   4.863   5.363   4.165 -0.1419  0.1296  0.4721
10665SOL    HW132694   4.918   5.285   4.168  0.9945  0.8151 -1.1056
10665SOL    HW232695   4.912   5.429   4.213  0.6286  0.8314 -1.2070
10666SOL     OW32696   0.242   3.524   0.610  0.2070  0.1383  0.1076
10666SOL    HW132697   0.325   3.510   0.657 -0.4194  0.0011  1.2148
10666SOL    HW232698   0.210   3.435   0.594  0.6597  0.1738 -1.0544
10667SOL     OW32699   0.544   3.692   6.490  0.1552  0.1163  0.3423
10667SOL    HW132700   0.478   3.689   6.421 -0.1736  0.4942  0.6374
10667SOL    HW232701   0.624   3.721   6.445 -0.1808  0.8649  0.2104
10668SOL     OW32702   6.413   5.636   3.748  0.3016  0.0638  0.3707
10668SOL    HW132703   6.461   5.711   3.783  1.7931 -1.1735  1.1357
10668SOL    HW232704   6.389   5.584   3.825 -2.9030  0.9268  0.0638
10669SOL     OW32705   5.916   0.282   1.943  0.1703 -0.6339  0.1094
10669SOL    HW132706   5.877   0.268   1.856 -0.3940 -2.4451  0.5961
10669SOL    HW232707   6.005   0.248   1.935  0.9211  1.3351 -0.3559
10670SOL     OW32708   4.264   7.154   5.323  0.4690  0.0624 -0.0970
10670SOL    HW132709   4.197   7.101   5.279  0.4809  0.6100 -0.7931
10670SOL    HW232710   4.322   7.090   5.365  1.0728 -0.5544 -1.7723
10671SOL     OW32711   3.908   6.818   0.658 -0.4777 -0.5706 -0.0019
10671SOL    HW132712   3.979   6.823   0.722  0.3243  0.2266 -0.9378
10671SOL    HW232713   3.935   6.876   0.587 -1.4324 -1.3287 -1.0053
10672SOL     OW32714   7.257   6.568   4.380 -0.4928 -0.2083 -0.0357
10672SOL    HW132715   7.168   6.603   4.376 -0.4712  0.0852  1.4056
10672SOL    HW232716   7.281   6.575   4.473  0.7238 -1.0556 -0.2667
10673SOL     OW32717   7.500   7.935   2.970 -0.3502  0.0476 -0.0506
10673SOL    HW132718   7.473   7.946   3.061  0.7696  2.0707  0.0927
10673SOL    HW232719   7.499   7.841   2.956 -1.7511 -0.2498  1.6613
10674SOL     OW32720   4.547   6.551   7.350 -0.0810 -0.0534 -0.1438
10674SOL    HW132721   4.639   6.564   7.370  0.0443  0.3477 -0.9336
10674SOL    HW232722   4.518   6.485   7.413  0.8007 -0.3594 -0.0403
10675SOL     OW32723   4.941   2.383   7.058 -0.0293 -0.0717 -0.2530
10675SOL    HW132724   4.995   2.355   6.985  0.7295 -2.4747  1.1322
10675SOL    HW232725   5.003   2.400   7.129 -0.9379 -0.9604  0.7833
10676SOL     OW32726   4.110   6.917   7.437 -0.2599 -0.0530  0.1595
10676SOL    HW132727   4.195   6.961   7.435 -0.5639  0.5681  0.4954
10676SOL    HW232728   4.046   6.989   7.437 -0.8698 -0.5032 -2.4267
10677SOL     OW32729   7.731   7.792   1.821  0.4971  0.4858  0.9216
10677SOL    HW132730   7.771   7.798   1.735  0.4556 -0.6333  0.8177
10677SOL    HW232731   7.805   7.787   1.882  0.5264  1.2845  0.9665
10678SOL     OW32732   5.769   0.007   0.798  0.0739 -0.5132 -0.5271
10678SOL    HW132733   5.705   0.013   0.869  1.3741  0.1194  0.6275
10678SOL    HW232734   5.728  -0.052   0.734 -1.6818 -0.0674  0.1294
10679SOL     OW32735   6.624   7.702   6.134 -0.1755 -0.3917  0.5446
10679SOL    HW132736   6.608   7.788   6.174 -0.2569  0.4904 -1.2459
10679SOL    HW232737   6.691   7.720   6.068  1.0721 -2.0839  1.2835
10680SOL     OW32738   7.762   7.951   3.676 -0.2387 -0.3014  0.5437
10680SOL    HW132739   7.731   7.890   3.743 -1.4597  0.9500  1.1726
10680SOL    HW232740   7.702   7.938   3.603 -1.8733  1.5529  1.4609
10681SOL     OW32741   6.866   4.720   4.475  0.2206 -0.7168 -0.3113
10681SOL    HW132742   6.938   4.683   4.525  1.4597 -0.1311 -1.6090
10681SOL    HW232743   6.871   4.677   4.389 -1.3898 -1.1415 -0.2397
10682SOL     OW32744   7.678   1.853   3.378 -0.3544  0.1668  0.0954
10682SOL    HW132745   7.587   1.881   3.382 -0.2990  0.2927  0.5545
10682SOL    HW232746   7.680   1.785   3.311 -0.8875 -0.2144  0.4623
10683SOL     OW32747   0.053   2.330   5.308  0.1328 -0.1765 -0.0127
10683SOL    HW132748   0.032   2.418   5.275  2.1475  0.6773  0.8287
10683SOL    HW232749  -0.011   2.314   5.376 -0.9002  0.1858 -0.8701
10684SOL     OW32750   7.485   0.864   3.290  0.0060  0.0156 -0.4734
10684SOL    HW132751   7.554   0.851   3.354 -0.4075  0.7647  0.1431
10684SOL    HW232752   7.468   0.959   3.291  1.0359  0.2882 -2.8030
10685SOL     OW32753   1.532   5.621   4.357 -0.1583  0.3962 -0.5074
10685SOL    HW132754   1.570   5.533   4.360 -1.2833 -0.1811 -1.7117
10685SOL    HW232755   1.438   5.606   4.369 -0.1595  1.6649  1.3330
10686SOL     OW32756   0.446   3.354   7.609 -0.4581  0.0716 -0.1007
10686SOL    HW132757   0.487   3.312   7.684 -1.7707  1.2550  1.3446
10686SOL    HW232758   0.517   3.368   7.547  0.4028 -2.2223  0.2879
10687SOL     OW32759   6.592   4.726   4.436 -0.1102 -0.2706  0.1171
10687SOL    HW132760   6.680   4.751   4.464  0.5313 -0.4382 -1.6334
10687SOL    HW232761   6.583   4.635   4.463  0.4579 -0.4054 -0.1226
10688SOL     OW32762   3.564   5.959   2.622 -0.3294  0.2982  0.1078
10688SOL    HW132763   3.569   5.867   2.648  0.7150 -0.1250 -1.4196
10688SOL    HW232764   3.589   6.008   2.700 -0.5830 -0.7174  0.8458
10689SOL     OW32765   1.882   7.152   1.028  0.6539 -0.2654  0.2119
10689SOL    HW132766   1.793   7.148   1.064  0.4927 -1.8945 -0.2458
10689SOL    HW232767   1.930   7.085   1.077  1.2828 -0.2708 -0.3986
10690SOL     OW32768   7.524   1.196   0.722  0.2094 -0.4772 -0.5014
10690SOL    HW132769   7.548   1.285   0.746 -0.9453 -0.5003  0.8778
10690SOL    HW232770   7.437   1.204   0.683 -0.4190 -1.1205  0.7392
10691SOL     OW32771   1.211   1.897   1.832 -0.2077  0.6373  0.0826
10691SOL    HW132772   1.175   1.985   1.843  3.6425  2.2791  1.3393
10691SOL    HW232773   1.205   1.857   1.920 -3.5483 -1.2773 -0.8173
10692SOL     OW32774   5.262   4.420   0.231  0.1874 -0.1546 -0.0914
10692SOL    HW132775   5.305   4.341   0.198 -0.4282 -1.0258  1.1377
10692SOL    HW232776   5.291   4.489   0.171  1.5225 -1.1129 -0.6127
10693SOL     OW32777   6.716   7.951   6.560 -0.0159 -0.2507 -0.4718
10693SOL    HW132778   6.647   7.927   6.499 -0.4965  2.5364 -1.1364
10693SOL    HW232779   6.708   7.887   6.631 -1.1607 -1.9342 -2.0243
10694SOL     OW32780   6.578   0.292   2.402 -0.0749  0.1765  0.0979
10694SOL    HW132781   6.600   0.297   2.495 -2.7480  0.4172  0.8121
10694SOL    HW232782   6.565   0.383   2.375 -1.6889  0.0049  0.1893
10695SOL     OW32783   0.104   1.037   0.710  0.1601 -0.0542 -0.2640
10695SOL    HW132784   0.041   1.004   0.774 -0.6315 -0.6812 -1.3249
10695SOL    HW232785   0.182   0.983   0.724 -0.7426 -1.7093 -1.2252
10696SOL     OW32786   4.497   1.663   7.617 -0.2811  0.5980 -0.0721
10696SOL    HW132787   4.571   1.631   7.564 -0.6898  1.4614 -1.1873
10696SOL    HW232788   4.487   1.754   7.591 -3.5429 -0.1829 -2.1050
10697SOL     OW32789   4.289   2.260   5.082  0.1229  0.1658  0.1954
10697SOL    HW132790   4.201   2.296   5.089  0.1708  0.1876  0.7575
10697SOL    HW232791   4.321   2.290   4.997 -0.1546  0.7406  0.2898
10698SOL     OW32792   1.587   2.149   6.497 -0.3612 -0.4338  0.3039
10698SOL    HW132793   1.552   2.124   6.583  0.9636 -0.2361  0.9395
10698SOL    HW232794   1.671   2.191   6.518 -1.0885  1.7525 -0.9259
10699SOL     OW32795   7.575   7.513   1.605 -0.4653  0.0286  0.7707
10699SOL    HW132796   7.512   7.547   1.669 -1.7467  1.5510 -1.1955
10699SOL    HW232797   7.611   7.591   1.563  2.8898 -0.7549  1.8048
10700SOL     OW32798   6.988   5.835   4.554 -0.5786 -0.3947  0.0945
10700SOL    HW132799   7.018   5.878   4.635  0.2667  0.2327 -0.5228
10700SOL    HW232800   6.929   5.899   4.514 -1.4893 -0.9602  0.5011
10701SOL     OW32801   3.845   6.762   6.130 -0.1699  0.0624 -0.0216
10701SOL    HW132802   3.894   6.776   6.211  3.4023 -0.8569 -1.8253
10701SOL    HW232803   3.852   6.845   6.084 -1.5135  0.3294  0.2188
10702SOL     OW32804   7.859   3.417   6.735 -0.4497  0.4476  0.4606
10702SOL    HW132805   7.900   3.417   6.822  0.3043  1.0965  0.1117
10702SOL    HW232806   7.837   3.508   6.719  0.7090  0.5554 -0.6239
10703SOL     OW32807   1.732   1.143   3.396  0.3720  0.1133 -0.2654
10703SOL    HW132808   1.744   1.158   3.490  2.9429  1.5462 -0.7177
10703SOL    HW232809   1.638   1.131   3.385  0.0654 -0.7430  2.5575
10704SOL     OW32810   7.627   6.814   4.178 -0.0439  0.5625 -0.2042
10704SOL    HW132811   7.534   6.792   4.180  0.2333 -0.8987 -1.4065
10704SOL    HW232812   7.629   6.910   4.177 -1.5205  0.6186  0.0057
10705SOL     OW32813   1.876   5.398   7.590 -0.1474  0.2899 -0.3805
10705SOL    HW132814   1.793   5.355   7.609  0.0705  0.1938  0.4274
10705SOL    HW232815   1.924   5.335   7.535 -0.7529  0.5169 -1.1844
10706SOL     OW32816   2.051   7.399   7.328 -0.6610  0.3327  0.0398
10706SOL    HW132817   1.993   7.474   7.317  1.0110  1.5405 -1.1099
10706SOL    HW232818   2.116   7.429   7.392  0.2392  0.0332 -0.7130
10707SOL     OW32819   1.180   5.117   7.073 -0.0029  0.3063 -0.4545
10707SOL    HW132820   1.230   5.144   7.150  0.3167 -0.8312 -0.2413
10707SOL    HW232821   1.199   5.024   7.063 -0.2350  0.3743 -1.7726
10708SOL     OW32822   0.812   3.428   4.963  0.2724 -0.3844  0.3865
10708SOL    HW132823   0.867   3.491   4.915  0.2169 -0.5071  0.1595
10708SOL    HW232824   0.737   3.480   4.993 -0.5808 -0.6464 -1.1561
10709SOL     OW32825   7.391   7.923   0.976  0.0150  0.0510 -0.3157
10709SOL    HW132826   7.306   7.950   0.941  0.8534  2.1937 -0.8763
10709SOL    HW232827   7.389   7.952   1.067 -0.4819 -1.5231  0.2133
10710SOL     OW32828   0.588   6.351   4.162  0.3299  0.4915 -0.3112
10710SOL    HW132829   0.677   6.316   4.169  0.6509  0.8771 -2.0617
10710SOL    HW232830   0.548   6.299   4.092 -1.0794 -0.1644  0.9455
10711SOL     OW32831   7.956   1.267   3.953 -0.2816 -0.4575  0.2745
10711SOL    HW132832   7.931   1.271   3.861  0.4622 -2.1295 -0.0481
10711SOL    HW232833   7.928   1.180   3.981  1.5840 -0.8931  0.9438
10712SOL     OW32834   1.263   6.214   4.990  0.2418  0.0187 -0.0726
10712SOL    HW132835   1.299   6.134   5.027 -0.4201  0.0329  0.6189
10712SOL    HW232836   1.339   6.273   4.983  0.4581 -0.1400  0.8496
10713SOL     OW32837   6.684   0.093   5.553 -0.9138 -0.5545  0.0618
10713SOL    HW132838   6.668   0.171   5.500 -2.2140 -0.7835  0.0743
10713SOL    HW232839   6.750   0.120   5.617 -0.7611  0.2949 -0.4428
10714SOL     OW32840   7.777   5.909   0.966 -0.2719 -0.2671 -0.2498
10714SOL    HW132841   7.716   5.900   1.040 -2.5764 -0.5167 -2.0395
10714SOL    HW232842   7.801   5.819   0.944  1.6538 -0.1338  1.0622
10715SOL     OW32843   6.675   6.166   4.752 -0.1646  0.1581 -0.4672
10715SOL    HW132844   6.733   6.238   4.779 -0.8542 -0.1660  2.1953
10715SOL    HW232845   6.589   6.206   4.747 -0.4889 -0.3585  0.6435
10716SOL     OW32846   3.312   4.657   0.690  0.7800 -0.7530 -0.3333
10716SOL    HW132847   3.288   4.672   0.599  2.3567 -1.6431 -0.9387
10716SOL    HW232848   3.402   4.689   0.697  0.3631  0.2215  1.1982
10717SOL     OW32849   7.551   0.823   2.889 -0.3569 -0.4823 -0.1520
10717SOL    HW132850   7.562   0.734   2.921  0.8527 -0.5152 -0.6175
10717SOL    HW232851   7.541   0.876   2.968  0.0405 -0.8874  0.1755
10718SOL     OW32852   7.961   7.262   0.534  0.3459 -0.4877  0.2611
10718SOL    HW132853   8.039   7.283   0.586 -0.3925 -2.7371  2.5138
10718SOL    HW232854   7.984   7.181   0.488 -0.4642 -0.9463  0.6283
10719SOL     OW32855   5.704   3.034   3.740 -0.0404 -0.4804  0.2128
10719SOL    HW132856   5.765   2.960   3.735 -0.5485 -0.9888  1.1548
10719SOL    HW232857   5.678   3.037   3.832 -0.4151  0.5643  0.0863
10720SOL     OW32858   0.999   1.557   0.190  0.5803  0.0417 -0.4437
10720SOL    HW132859   0.938   1.574   0.119 -0.6501 -0.7699  0.3778
10720SOL    HW232860   0.972   1.617   0.260  0.9914 -0.0289 -0.2219
10721SOL     OW32861   5.444   2.131   4.831 -0.1854 -0.8330 -0.0587
10721SOL    HW132862   5.504   2.156   4.760 -0.3421 -0.1932  0.0327
10721SOL    HW232863   5.482   2.051   4.866 -0.6852 -1.7837 -1.5669
10722SOL     OW32864   3.718   3.095   2.094 -0.3329  0.0122 -0.4278
10722SOL    HW132865   3.661   3.152   2.146  1.3673 -0.0139  1.5733
10722SOL    HW232866   3.730   3.142   2.012  0.7347  2.4431  1.0178
10723SOL     OW32867   4.233   6.036   7.441 -0.3109 -0.0927 -0.0970
10723SOL    HW132868   4.303   5.971   7.445  0.5161  0.8002  0.3306
10723SOL    HW232869   4.226   6.069   7.531  0.3556  1.5089 -0.6077
10724SOL     OW32870   0.622   0.450   6.177  0.7358  0.4094  0.2667
10724SOL    HW132871   0.536   0.474   6.212  0.8537  4.4381 -1.6311
10724SOL    HW232872   0.601   0.387   6.107 -0.7910  1.5514 -0.3823
10725SOL     OW32873   2.970   1.566   3.929 -0.2959 -0.6172 -0.4366
10725SOL    HW132874   2.897   1.600   3.980 -0.0561  1.4116 -1.3373
10725SOL    HW232875   3.011   1.499   3.985 -1.0544  0.3115  1.2778
10726SOL     OW32876   5.449   4.751   4.385 -0.2595  0.0853  0.2781
10726SOL    HW132877   5.478   4.835   4.351  0.4625  0.1206  0.9735
10726SOL    HW232878   5.361   4.768   4.419  0.5121  0.9628  1.9227
10727SOL     OW32879   3.439   4.433   6.531  0.0233 -0.5713 -0.0533
10727SOL    HW132880   3.512   4.386   6.571 -0.3210 -1.5060 -0.4722
10727SOL    HW232881   3.366   4.372   6.536 -0.4804 -0.0177 -0.4979
10728SOL     OW32882   5.970   0.725   7.294  0.2590 -0.3278  0.2324
10728SOL    HW132883   6.047   0.781   7.288  1.0960 -1.2136  1.9707
10728SOL    HW232884   5.949   0.703   7.203  1.4694  0.6697 -0.3229
10729SOL     OW32885   6.160   3.345   2.158  0.2190 -0.1869 -0.2737
10729SOL    HW132886   6.146   3.334   2.064 -0.0388 -0.1510 -0.2402
10729SOL    HW232887   6.072   3.350   2.195  0.3107  1.8523 -0.2559
10730SOL     OW32888   0.720   4.541   5.834 -0.6111 -0.3173 -0.1870
10730SOL    HW132889   0.765   4.472   5.883 -0.5265  0.2202  0.5113
10730SOL    HW232890   0.704   4.503   5.748 -0.4971 -1.1783  0.1627
10731SOL     OW32891   3.086   7.680   5.463 -0.3485 -0.0602  0.1184
10731SOL    HW132892   2.992   7.664   5.472 -0.6034  1.2705  0.0265
10731SOL    HW232893   3.127   7.601   5.499 -1.4711 -0.1658  1.2452
10732SOL     OW32894   3.303   4.805   0.165  0.0772 -0.0812  0.0716
10732SOL    HW132895   3.256   4.725   0.142  0.6456 -0.5682  0.5871
10732SOL    HW232896   3.326   4.844   0.081 -4.0552  1.9264 -0.3859
10733SOL     OW32897   4.099   3.250   1.374  0.1179 -0.2530  0.0973
10733SOL    HW132898   4.042   3.172   1.372 -0.3368  0.0862 -0.7515
10733SOL    HW232899   4.176   3.224   1.323  0.0201 -0.1908 -0.0836
10734SOL     OW32900   4.431   4.369   5.019  0.0438  0.1746  0.5250
10734SOL    HW132901   4.361   4.305   5.002 -0.9812  1.2636  0.5062
10734SOL    HW232902   4.499   4.348   4.955 -0.5865 -0.4332  0.0322
10735SOL     OW32903   1.388   4.269   4.528 -0.7732  0.3534  0.1583
10735SOL    HW132904   1.437   4.238   4.604 -0.9179  1.4921  0.7271
10735SOL    HW232905   1.456   4.303   4.469 -0.5677 -1.3986 -0.6769
10736SOL     OW32906   0.039   3.756   3.322 -0.3959  0.4463  1.0220
10736SOL    HW132907   0.016   3.835   3.371 -0.8101  0.2096  1.2165
10736SOL    HW232908  -0.009   3.764   3.239  0.5225  0.9788  0.5341
10737SOL     OW32909   0.081   4.894   3.645  1.0136  0.1404 -0.0584
10737SOL    HW132910   0.011   4.908   3.709 -0.6727 -1.3415 -1.4611
10737SOL    HW232911   0.086   4.799   3.637  3.8661  0.1537  0.6401
10738SOL     OW32912   4.900   0.766   3.199 -0.3015 -0.7070  0.1024
10738SOL    HW132913   4.924   0.827   3.269  1.1135 -0.1898 -0.7926
10738SOL    HW232914   4.983   0.743   3.157 -1.0801 -1.2044 -1.2501
10739SOL     OW32915   0.828   2.608   5.438 -0.1869 -0.6369  0.2114
10739SOL    HW132916   0.893   2.596   5.507 -1.2871  0.0012  1.4178
10739SOL    HW232917   0.747   2.572   5.474 -1.1203  0.9805 -0.1457
10740SOL     OW32918   0.625   1.380   1.109 -0.0141 -0.4395 -0.7388
10740SOL    HW132919   0.585   1.309   1.057  1.1854 -0.7334 -1.2854
10740SOL    HW232920   0.715   1.351   1.124 -0.0563  0.0854  0.7186
10741SOL     OW32921   1.597   0.906   2.973  0.2091  0.0915  0.1892
10741SOL    HW132922   1.622   0.883   3.063 -0.4610 -0.2595  0.2896
10741SOL    HW232923   1.643   0.989   2.956 -0.9875  1.0629  1.4715
10742SOL     OW32924   3.585   2.489   2.750 -0.6970  0.2302 -0.3096
10742SOL    HW132925   3.512   2.492   2.812  0.2223 -0.3769  0.8399
10742SOL    HW232926   3.553   2.433   2.679 -1.6682  0.7089 -0.2705
10743SOL     OW32927   4.740   3.603   4.566  0.2958  0.1036  0.2842
10743SOL    HW132928   4.703   3.638   4.485 -1.2548 -0.3374  0.7791
10743SOL    HW232929   4.711   3.663   4.634 -0.2425 -0.7175  0.7920
10744SOL     OW32930   7.968   6.353   2.015  0.1076  0.2802 -0.0810
10744SOL    HW132931   7.976   6.412   2.090 -1.5511 -0.1402  0.4613
10744SOL    HW232932   7.990   6.407   1.940 -2.1921  1.9020  0.3018
10745SOL     OW32933   6.755   3.831   1.074  0.2769  0.1832 -0.0383
10745SOL    HW132934   6.810   3.792   1.142  1.2065  0.3269 -0.6756
10745SOL    HW232935   6.765   3.772   0.999 -2.2826 -1.0487  0.5021
10746SOL     OW32936   1.796   6.212   1.020 -0.3865  0.2220  0.0317
10746SOL    HW132937   1.874   6.231   1.072  0.4384 -0.6566 -0.8399
10746SOL    HW232938   1.756   6.297   1.004 -1.0968  0.4893  2.6867
10747SOL     OW32939   3.857   2.459   2.899 -0.2669  0.1781  0.0825
10747SOL    HW132940   3.838   2.429   2.988  1.0319 -2.7835 -0.4906
10747SOL    HW232941   3.772   2.474   2.860 -0.9279 -0.3549  1.2611
10748SOL     OW32942   4.950   0.953   1.643  0.4024 -0.5205 -0.0761
10748SOL    HW132943   4.929   1.030   1.590  1.0762  1.1411  1.9308
10748SOL    HW232944   5.019   0.908   1.593 -0.2172 -0.0245 -1.4289
10749SOL     OW32945   3.276   5.294   2.494 -0.2716  0.4233 -0.2332
10749SOL    HW132946   3.333   5.335   2.560  0.6972 -1.1324 -0.0472
10749SOL    HW232947   3.202   5.261   2.543 -0.3956  0.7704 -0.1851
10750SOL     OW32948   2.717   4.147   2.260  0.2710 -0.2994 -0.5103
10750SOL    HW132949   2.750   4.209   2.196 -2.6712  2.0408 -0.0044
10750SOL    HW232950   2.707   4.199   2.340 -1.4162 -1.6488  0.2123
10751SOL     OW32951   0.208   7.126   5.148 -0.7009 -0.3356 -0.0008
10751SOL    HW132952   0.172   7.040   5.172 -0.3548 -0.5386 -0.2032
10751SOL    HW232953   0.131   7.182   5.136 -1.0040 -0.9777 -1.2567
10752SOL     OW32954   4.210   2.962   5.832  0.7971  0.3051  0.9121
10752SOL    HW132955   4.178   2.883   5.787  0.9590  0.7520 -0.0148
10752SOL    HW232956   4.136   3.022   5.830  1.1407  0.7176  0.2831
10753SOL     OW32957   7.512   1.460   0.808  0.6013 -0.3097  0.1439
10753SOL    HW132958   7.493   1.549   0.776 -0.1424  0.0711  1.5525
10753SOL    HW232959   7.439   1.440   0.866  2.1146 -0.7469  1.9825
10754SOL     OW32960   1.805   2.004   2.806 -0.0633  0.1615  0.2414
10754SOL    HW132961   1.712   2.017   2.789  0.1361  1.3519 -0.1043
10754SOL    HW232962   1.847   2.018   2.720  0.3445 -1.6787  0.0992
10755SOL     OW32963   0.055   5.594   5.421 -0.1568  0.0343 -0.4593
10755SOL    HW132964   0.139   5.618   5.382  0.7436  0.2670  1.5131
10755SOL    HW232965  -0.008   5.655   5.382  0.3140 -0.8439 -2.7864
10756SOL     OW32966   6.468   6.638   2.567  0.1218 -0.5056  0.3791
10756SOL    HW132967   6.456   6.696   2.642 -1.3058  0.2736 -0.4205
10756SOL    HW232968   6.380   6.624   2.532  0.8365  0.1956 -1.9082
10757SOL     OW32969   4.211   1.694   0.653  0.5510  0.9305  0.3174
10757SOL    HW132970   4.167   1.625   0.602 -0.9700  1.1286  1.3115
10757SOL    HW232971   4.300   1.661   0.665  0.1999 -0.3009 -0.2540
10758SOL     OW32972   3.084   2.379   3.813  0.1223  0.1813 -0.3061
10758SOL    HW132973   3.080   2.284   3.806 -0.1018  0.2998 -2.4805
10758SOL    HW232974   3.079   2.410   3.722 -1.1735  2.3287  0.4264
10759SOL     OW32975   7.200   5.251   5.798 -0.0004  0.0843 -0.3466
10759SOL    HW132976   7.174   5.275   5.709 -2.9239 -0.9030  0.1103
10759SOL    HW232977   7.149   5.172   5.817  0.9437 -0.0238  2.0236
10760SOL     OW32978   0.074   2.315   2.227 -0.1940  0.2877  0.1705
10760SOL    HW132979   0.154   2.280   2.267 -2.0477 -0.9485  3.1951
10760SOL    HW232980   0.063   2.401   2.268 -0.4916  0.3851 -0.1117
10761SOL     OW32981   3.909   6.516   3.757 -0.5965  0.0009 -0.3093
10761SOL    HW132982   3.992   6.516   3.708 -1.1825  1.6815 -1.3984
10761SOL    HW232983   3.905   6.429   3.796  1.5520 -0.2294 -0.4320
10762SOL     OW32984   3.534   4.551   5.242  0.3947 -0.0270  0.1491
10762SOL    HW132985   3.488   4.624   5.284 -0.1032 -0.5814  0.5891
10762SOL    HW232986   3.465   4.488   5.222  0.7205 -0.0789 -0.8815
10763SOL     OW32987   7.191   6.614   7.079 -0.5178 -0.3046 -0.4251
10763SOL    HW132988   7.226   6.538   7.126  0.8609 -1.3999 -3.0024
10763SOL    HW232989   7.112   6.639   7.128  1.2038 -0.7959  2.8329
10764SOL     OW32990   2.433   0.843   5.877 -0.1829  0.8004  0.0087
10764SOL    HW132991   2.416   0.897   5.954 -3.1805  1.1008 -0.7412
10764SOL    HW232992   2.402   0.897   5.804  0.5286 -0.3626 -1.1859
10765SOL     OW32993   2.888   1.036   2.934 -0.0213  0.0528 -0.1031
10765SOL    HW132994   2.810   1.091   2.932  0.3378  0.6182  0.9280
10765SOL    HW232995   2.878   0.982   3.013 -0.4463 -1.5105 -1.1652
10766SOL     OW32996   4.613   5.967   0.469  0.0955 -0.2188 -0.1163
10766SOL    HW132997   4.670   5.909   0.520 -0.0759  0.5111  0.9173
10766SOL    HW232998   4.667   6.043   0.448 -0.5381  0.5985  1.0918
10767SOL     OW32999   1.240   1.894   6.729  0.1268 -0.0168  0.3342
10767SOL    HW133000   1.335   1.897   6.715  0.1134  0.0691  0.2589
10767SOL    HW233001   1.223   1.963   6.793 -0.0072  0.6212 -0.3773
10768SOL     OW33002   4.162   3.091   6.730 -1.1286  0.8557  0.1752
10768SOL    HW133003   4.205   3.071   6.813  0.5315  1.3242 -0.5291
10768SOL    HW233004   4.099   3.020   6.718  0.5321 -0.7706  0.5288
10769SOL     OW33005   6.503   1.566   3.175  0.5914 -0.5674  0.5557
10769SOL    HW133006   6.569   1.616   3.224 -0.3290  0.0137  1.2369
10769SOL    HW233007   6.550   1.489   3.142  1.7853  0.2175  0.3770
10770SOL     OW33008   4.165   5.564   2.469 -0.4589  0.0723 -0.0449
10770SOL    HW133009   4.230   5.607   2.524 -0.6076 -1.5042  1.4643
10770SOL    HW233010   4.107   5.520   2.531 -2.9167  1.2789 -1.3378
10771SOL     OW33011   0.923   1.050   0.637  0.3081 -0.2024  0.1655
10771SOL    HW133012   1.011   1.087   0.639  0.1088  0.2669  1.5342
10771SOL    HW233013   0.893   1.064   0.547  1.5548 -0.2058 -0.2657
10772SOL     OW33014   2.372   7.896   3.693 -0.3305  0.0676 -0.0627
10772SOL    HW133015   2.293   7.880   3.744  1.4843 -0.2426  2.8551
10772SOL    HW233016   2.371   7.990   3.675 -1.9256 -0.1269 -1.1767
10773SOL     OW33017   7.887   4.785   5.905  0.0743 -0.2404 -0.1992
10773SOL    HW133018   7.947   4.803   5.833 -0.9244  2.0138 -0.5695
10773SOL    HW233019   7.907   4.853   5.969  0.1640 -1.5206  1.1772
10774SOL     OW33020   4.590   3.030   7.016  0.3924  0.0723 -0.0887
10774SOL    HW133021   4.583   2.939   6.989  1.9813  0.0947 -0.6734
10774SOL    HW233022   4.504   3.068   6.996  0.2072 -0.9295 -1.2731
10775SOL     OW33023   0.179   6.433   6.845  0.1920 -0.0953 -0.6667
10775SOL    HW133024   0.226   6.510   6.813  1.1114 -0.1734  0.4425
10775SOL    HW233025   0.170   6.378   6.767  1.4875  0.1620 -1.0350
10776SOL     OW33026   2.297   4.541   3.818  0.4803 -0.1308  0.1007
10776SOL    HW133027   2.373   4.486   3.835  1.9941  2.0676  0.9088
10776SOL    HW233028   2.310   4.617   3.874 -1.2098  1.3300 -1.3741
10777SOL     OW33029   1.202   6.655   2.088 -0.2648 -0.2496  0.0746
10777SOL    HW133030   1.274   6.653   2.025 -0.4097 -1.8046 -0.0931
10777SOL    HW233031   1.244   6.672   2.172  0.0301  0.9565 -0.2888
10778SOL     OW33032   1.204   1.176   0.644 -0.2675  0.4414 -0.0649
10778SOL    HW133033   1.232   1.266   0.657 -2.1205  0.8628  1.5157
10778SOL    HW233034   1.202   1.165   0.549  2.0530  1.3324 -0.2685
10779SOL     OW33035   4.316   4.280   3.823  0.6583  0.4364  0.3500
10779SOL    HW133036   4.239   4.228   3.846 -1.4562  2.8578 -0.7432
10779SOL    HW233037   4.337   4.253   3.734 -0.3903  1.3231 -0.1908
10780SOL     OW33038   4.372   2.881   3.357 -0.5362  0.2996  0.9121
10780SOL    HW133039   4.467   2.886   3.345 -0.7882  0.9778 -1.2891
10780SOL    HW233040   4.355   2.931   3.437  0.8556  1.3602  0.5913
10781SOL     OW33041   0.602   1.121   6.933 -0.2299  0.2036  0.2923
10781SOL    HW133042   0.623   1.087   6.846  0.7934  1.8380 -0.1562
10781SOL    HW233043   0.522   1.173   6.920 -1.1163 -1.0009  0.7319
10782SOL     OW33044   1.404   3.134   5.263 -0.7090  0.7671 -0.5343
10782SOL    HW133045   1.324   3.090   5.292 -0.8712  1.5447  0.2531
10782SOL    HW233046   1.374   3.191   5.192 -0.6453  0.2318 -0.9970
10783SOL     OW33047   4.717   7.502   3.600 -0.1095 -0.0867  0.6456
10783SOL    HW133048   4.723   7.564   3.673 -0.6762  1.0452 -0.2439
10783SOL    HW233049   4.808   7.492   3.570  0.0232  0.0811  0.9788
10784SOL     OW33050   1.442   7.613   2.551 -0.3197  0.1272  0.2889
10784SOL    HW133051   1.368   7.590   2.495 -0.3943 -0.5368  0.6517
10784SOL    HW233052   1.469   7.700   2.521 -1.0870  0.2662 -0.0091
10785SOL     OW33053   6.774   3.119   5.777  0.0806  0.4447  0.0921
10785SOL    HW133054   6.697   3.130   5.721 -0.2545  0.8301  0.6209
10785SOL    HW233055   6.745   3.148   5.863  0.7683  0.4177  0.3351
10786SOL     OW33056   6.792   6.518   4.044 -0.3421  0.3812 -0.0204
10786SOL    HW133057   6.880   6.494   4.074 -1.4810 -1.0311  2.5457
10786SOL    HW233058   6.743   6.535   4.124 -2.9231 -0.8199 -1.2158
10787SOL     OW33059   0.779   7.956   3.180 -0.1952 -0.1532  0.3892
10787SOL    HW133060   0.814   7.976   3.267 -1.3223  1.1791  0.5813
10787SOL    HW233061   0.842   7.896   3.141  0.1026 -1.1391  2.2979
10788SOL     OW33062   4.401   4.346   4.372 -1.2933 -0.1625  0.1030
10788SOL    HW133063   4.494   4.338   4.392 -1.7517 -1.1495  2.0838
10788SOL    HW233064   4.395   4.425   4.318  0.7826 -0.6258 -0.8954
10789SOL     OW33065   1.181   1.164   2.910 -0.0385  0.8883  0.6004
10789SOL    HW133066   1.237   1.114   2.851  1.3918  1.0640  1.7661
10789SOL    HW233067   1.130   1.098   2.957 -0.9903  0.7357 -0.5812
10790SOL     OW33068   1.547   2.643   0.628 -0.6487 -0.9939  0.7682
10790SOL    HW133069   1.626   2.698   0.624 -1.1170 -0.3711 -0.2023
10790SOL    HW233070   1.478   2.702   0.657 -0.9932 -1.2801  0.5280
10791SOL     OW33071   5.898   1.843   1.208  0.0865  0.4335 -0.1113
10791SOL    HW133072   5.821   1.895   1.231  0.0011  1.1687 -1.9391
10791SOL    HW233073   5.873   1.753   1.228  0.0066  0.9633  2.5240
10792SOL     OW33074   2.506   1.333   2.576 -0.4958  0.0792  0.3302
10792SOL    HW133075   2.492   1.301   2.487  0.6624  0.1337  0.1165
10792SOL    HW233076   2.421   1.368   2.603 -1.5967 -2.2851  0.2180
10793SOL     OW33077   6.516   5.687   7.448 -0.1029 -0.3225  0.0590
10793SOL    HW133078   6.569   5.609   7.466 -2.4925 -1.9656  0.5946
10793SOL    HW233079   6.517   5.695   7.353 -0.6188 -1.6834 -0.0891
10794SOL     OW33080   3.437   5.461   6.195  0.5472 -0.1220  0.0743
10794SOL    HW133081   3.497   5.386   6.198 -0.1161 -0.7378 -1.2886
10794SOL    HW233082   3.456   5.503   6.112 -0.5999 -0.0698 -0.1760
10795SOL     OW33083   4.282   1.896   6.574 -0.2177 -0.4849 -0.0298
10795SOL    HW133084   4.332   1.850   6.642  3.3842  0.3869 -1.8236
10795SOL    HW233085   4.281   1.835   6.500  0.6651  0.5354 -0.9168
10796SOL     OW33086   2.149   6.602   3.112  0.9358 -0.2700 -0.1443
10796SOL    HW133087   2.158   6.615   3.206  2.2445 -0.7596 -0.1713
10796SOL    HW233088   2.117   6.512   3.104 -0.6998  0.2737 -0.1555
10797SOL     OW33089   5.229   0.798   7.838  0.2827  0.2103 -0.1952
10797SOL    HW133090   5.177   0.719   7.854  0.1549 -0.0145 -1.5841
10797SOL    HW233091   5.278   0.811   7.919 -0.5457 -0.6431  0.4663
10798SOL     OW33092   1.348   5.092   3.689  0.0307 -0.4428 -0.3271
10798SOL    HW133093   1.420   5.055   3.638  1.7055  1.0206  0.8493
10798SOL    HW233094   1.305   5.016   3.729  1.5789 -1.2975 -0.2342
10799SOL     OW33095   1.122   0.552   1.733  0.1137 -0.0503 -0.0658
10799SOL    HW133096   1.153   0.636   1.767 -0.0015  1.2284 -2.7841
10799SOL    HW233097   1.177   0.486   1.775  0.9364  1.4750  1.3386
10800SOL     OW33098   7.167   4.634   3.594 -0.0807 -1.0549 -0.0434
10800SOL    HW133099   7.114   4.574   3.646 -0.4566  0.2839  1.1771
10800SOL    HW233100   7.110   4.657   3.520 -0.2247 -1.5880 -0.1035
10801SOL     OW33101   0.465   7.232   4.971  0.3137  0.1003  0.4479
10801SOL    HW133102   0.545   7.180   4.971  0.0315 -0.3435  1.5663
10801SOL    HW233103   0.399   7.177   5.012 -0.3230  0.8412  0.4556
10802SOL     OW33104   0.759   3.166   5.007 -0.4387 -0.4551  0.3209
10802SOL    HW133105   0.817   3.140   5.079  1.3104 -0.4768 -1.0246
10802SOL    HW233106   0.788   3.254   4.983 -2.5071  0.5041  1.0683
10803SOL     OW33107   7.795   6.697   2.863  0.0401  0.2958  0.3675
10803SOL    HW133108   7.774   6.788   2.884  0.4712  0.4475  0.1676
10803SOL    HW233109   7.762   6.646   2.937 -1.6449  0.4425 -0.2454
10804SOL     OW33110   2.319   2.349   4.342  0.1713  0.0295  0.1907
10804SOL    HW133111   2.290   2.422   4.397 -1.7890 -0.3074 -0.2917
10804SOL    HW233112   2.288   2.271   4.388 -0.7599 -0.2936 -0.9126
10805SOL     OW33113   0.294   1.944   3.335 -0.0004 -0.3017 -0.3713
10805SOL    HW133114   0.280   2.038   3.336  0.5658 -0.2069 -0.8824
10805SOL    HW233115   0.319   1.922   3.425  1.5805  0.3170 -0.6298
10806SOL     OW33116   0.721   4.192   6.289 -0.2939  0.3176 -0.4642
10806SOL    HW133117   0.798   4.214   6.237  0.4761 -1.7821 -0.2870
10806SOL    HW233118   0.692   4.276   6.326  0.8613  1.4012 -1.9076
10807SOL     OW33119   1.380   1.999   7.600 -0.3538 -0.0239  0.3841
10807SOL    HW133120   1.465   1.970   7.565  1.0632  0.6904  2.9554
10807SOL    HW233121   1.339   1.919   7.632  0.3561 -0.1285  1.0701
10808SOL     OW33122   3.246   3.476   6.863  0.6492 -0.5038 -0.8583
10808SOL    HW133123   3.340   3.492   6.869  0.8493 -1.5254 -1.1879
10808SOL    HW233124   3.238   3.393   6.817 -0.3218 -1.8038  1.4613
10809SOL     OW33125   4.831   4.404   0.185  0.5942 -0.5993 -0.1996
10809SOL    HW133126   4.768   4.368   0.123 -0.7064  0.2156  0.5887
10809SOL    HW233127   4.877   4.473   0.136 -1.2956  0.9075  0.0405
10810SOL     OW33128   6.010   6.013   6.307 -0.6531 -0.1219  0.6829
10810SOL    HW133129   5.993   6.106   6.317  0.8072  0.2993 -0.3307
10810SOL    HW233130   5.936   5.980   6.257 -0.7306  0.6996  0.2455
10811SOL     OW33131   7.806   2.997   5.376  0.5331 -0.0559 -0.6551
10811SOL    HW133132   7.874   3.061   5.356  1.2316 -0.7619 -0.5851
10811SOL    HW233133   7.854   2.918   5.401 -0.3074 -0.2459  0.4300
10812SOL     OW33134   3.670   7.870   0.876  0.1849  0.0476  0.2106
10812SOL    HW133135   3.617   7.793   0.894  0.7008 -0.4551 -0.3866
10812SOL    HW233136   3.668   7.879   0.781  1.0777  0.0815  0.1840
10813SOL     OW33137   7.057   2.770   3.969  0.0164 -0.4486  0.0195
10813SOL    HW133138   7.126   2.708   3.944  1.3864  0.3992  1.4970
10813SOL    HW233139   7.083   2.800   4.056 -1.4283  1.0427 -0.0254
10814SOL     OW33140   6.117   1.329   4.574  0.5359  0.0519  0.1097
10814SOL    HW133141   6.163   1.386   4.635  0.6956 -1.2686  1.2599
10814SOL    HW233142   6.103   1.248   4.622 -0.6283 -0.5226 -1.1275
10815SOL     OW33143   2.554   7.155   5.793 -0.9358  0.3922  0.2317
10815SOL    HW133144   2.566   7.188   5.882 -0.1005 -1.5810  0.8911
10815SOL    HW233145   2.630   7.189   5.745 -0.1627 -0.3840  0.8639
10816SOL     OW33146   3.496   0.571   0.401  0.0811 -0.1215 -0.1840
10816SOL    HW133147   3.588   0.583   0.381  0.1806  0.9456  0.8488
10816SOL    HW233148   3.466   0.505   0.338  1.1889  0.5789 -1.4776
10817SOL     OW33149   2.314   5.181   3.907 -0.5593 -0.2711 -0.0844
10817SOL    HW133150   2.393   5.205   3.955 -0.7594  0.4736 -0.1177
10817SOL    HW233151   2.256   5.256   3.916 -0.5416 -0.0314 -1.6432
10818SOL     OW33152   1.259   0.689   4.846 -0.0262  0.0788  0.1419
10818SOL    HW133153   1.336   0.695   4.903 -0.1363 -0.3443  0.3368
10818SOL    HW233154   1.294   0.694   4.757  0.4393 -2.0893  0.1606
10819SOL     OW33155   3.093   2.817   5.559 -0.5222  0.4757 -0.4528
10819SOL    HW133156   3.092   2.735   5.509 -0.5213 -0.0007  0.3159
10819SOL    HW233157   3.186   2.834   5.575 -0.4689  1.0735 -1.3106
10820SOL     OW33158   3.687   7.710   6.780 -0.3649 -0.2039  0.7019
10820SOL    HW133159   3.598   7.721   6.747  0.0175  1.0934  0.0293
10820SOL    HW233160   3.734   7.666   6.709 -0.2074  0.1224  0.6000
10821SOL     OW33161   1.731   1.630   4.381 -0.0125 -0.1922  0.3740
10821SOL    HW133162   1.694   1.689   4.447 -0.3704 -1.8343  1.7081
10821SOL    HW233163   1.767   1.557   4.432  0.7850 -0.9347 -1.1926
10822SOL     OW33164   7.778   6.137   6.366 -0.0064 -0.2281 -0.2608
10822SOL    HW133165   7.840   6.135   6.293  0.3562  0.6670  0.0110
10822SOL    HW233166   7.720   6.063   6.350  0.9839 -0.9416 -0.6522
10823SOL     OW33167   3.936   1.870   4.112  0.5773  0.1501  0.1420
10823SOL    HW133168   3.966   1.954   4.077 -1.6057  0.8729 -0.1391
10823SOL    HW233169   3.909   1.820   4.035 -0.5852  0.2369  0.4739
10824SOL     OW33170   3.559   2.448   5.708 -0.3257 -0.1347  0.1050
10824SOL    HW133171   3.476   2.490   5.732 -0.4231 -0.2573 -0.0124
10824SOL    HW233172   3.543   2.413   5.620 -0.5632 -1.2662  0.5847
10825SOL     OW33173   7.235   5.275   4.723 -0.1793  0.4648  0.2513
10825SOL    HW133174   7.318   5.273   4.770 -0.6271 -1.9992  1.0926
10825SOL    HW233175   7.224   5.366   4.697  2.0833  1.1199  1.3501
10826SOL     OW33176   1.541   5.003   3.474 -0.5210  0.2829 -0.5964
10826SOL    HW133177   1.489   4.985   3.395  0.7311 -0.3411 -1.3094
10826SOL    HW233178   1.619   5.047   3.442 -0.8454  1.7455  0.5267
10827SOL     OW33179   7.199   6.633   0.888 -0.2606 -0.0480 -0.3653
10827SOL    HW133180   7.275   6.672   0.844 -0.0792 -1.9191 -1.8437
10827SOL    HW233181   7.163   6.572   0.824 -1.8042 -0.6994  1.0542
10828SOL     OW33182   2.589   6.273   1.561  0.1061 -0.0155  0.1359
10828SOL    HW133183   2.681   6.247   1.557  0.3785  0.9009  0.1067
10828SOL    HW233184   2.588   6.345   1.625 -0.5561  0.1167 -0.0205
10829SOL     OW33185   3.018   3.967   6.065 -0.2214 -0.3744 -0.1632
10829SOL    HW133186   3.093   3.928   6.021 -0.8435 -1.0816 -0.6319
10829SOL    HW233187   3.020   3.931   6.153 -0.6074 -1.2275 -0.4970
10830SOL     OW33188   1.255   6.669   7.191 -0.0530 -0.3018 -0.5636
10830SOL    HW133189   1.208   6.731   7.247 -3.4081 -1.8485 -1.4280
10830SOL    HW233190   1.257   6.712   7.105  1.1664  0.2037 -0.3056
10831SOL     OW33191   2.564   6.137   4.575  0.2146 -0.3960  0.4537
10831SOL    HW133192   2.578   6.047   4.548 -1.1684 -0.6998  0.6655
10831SOL    HW233193   2.539   6.183   4.494 -0.7132 -0.5852  0.6204
10832SOL     OW33194   5.509   4.778   0.844  0.0801  0.7423  0.0378
10832SOL    HW133195   5.493   4.792   0.751  0.7286 -1.8029 -0.5455
10832SOL    HW233196   5.596   4.738   0.847 -0.0928  0.4301  1.6890
10833SOL     OW33197   5.075   0.726   1.023 -0.6842 -0.2195  0.7296
10833SOL    HW133198   5.127   0.647   1.009  2.2407  1.7538 -0.8544
10833SOL    HW233199   5.114   0.767   1.100  1.4426  2.0436 -1.3454
10834SOL     OW33200   0.125   3.626   4.031  0.3041 -0.2820  0.0255
10834SOL    HW133201   0.175   3.702   4.000  1.0870  0.0172  1.8730
10834SOL    HW233202   0.039   3.661   4.055  0.6811  0.0621  0.9231
10835SOL     OW33203   4.529   4.303   1.914 -0.0122  0.6685  0.2095
10835SOL    HW133204   4.526   4.219   1.961  2.8178  0.6116  0.4566
10835SOL    HW233205   4.500   4.368   1.977 -1.9216 -0.0432  0.1187
10836SOL     OW33206   1.942   6.190   5.415  0.2703 -0.0458  0.3205
10836SOL    HW133207   1.995   6.253   5.463 -0.3749  0.3642  0.5162
10836SOL    HW233208   1.938   6.113   5.473 -0.1254  0.2756  0.7298
10837SOL     OW33209   7.753   1.631   0.304  0.7342 -0.2221 -0.1256
10837SOL    HW133210   7.744   1.639   0.209  1.0223  0.7645 -0.0767
10837SOL    HW233211   7.685   1.568   0.329  0.6902 -0.5334 -0.9862
10838SOL     OW33212   2.596   2.800   3.882  0.0278 -0.0119  0.2036
10838SOL    HW133213   2.675   2.746   3.890  0.2826  0.3152 -0.0803
10838SOL    HW233214   2.544   2.756   3.816  1.0772  1.0767 -1.4301
10839SOL     OW33215   3.704   6.817   2.631  0.1774 -0.4414 -0.0997
10839SOL    HW133216   3.657   6.840   2.551 -0.6485 -0.8719  0.2587
10839SOL    HW233217   3.638   6.779   2.688  0.7464 -0.0464  0.8339
10840SOL     OW33218   0.194   0.079   7.956 -0.7710 -0.0699  0.1867
10840SOL    HW133219   0.214   0.173   7.962  0.8163 -0.4379  1.3407
10840SOL    HW233220   0.112   0.069   8.004  0.2475  0.4393  2.1692
10841SOL     OW33221   3.263   5.063   5.315 -0.2979 -0.0990 -0.0946
10841SOL    HW133222   3.270   5.121   5.391  0.3252 -0.6283  0.2638
10841SOL    HW233223   3.293   4.978   5.347 -2.5953 -1.0237 -0.1968
10842SOL     OW33224   2.603   3.825   4.343 -0.2284  0.3677  0.2040
10842SOL    HW133225   2.694   3.807   4.322  0.0712 -0.1135  1.8287
10842SOL    HW233226   2.571   3.876   4.268  2.2180  3.2842  0.9740
10843SOL     OW33227   6.916   5.167   2.116 -0.4924  0.5127  0.1713
10843SOL    HW133228   6.961   5.193   2.036 -0.7714 -0.8709 -0.4632
10843SOL    HW233229   6.980   5.181   2.185  0.9229 -1.2897 -0.6892
10844SOL     OW33230   3.486   6.589   1.332  0.2588 -0.1044  0.2776
10844SOL    HW133231   3.432   6.520   1.369 -1.6067  0.7288 -0.7494
10844SOL    HW233232   3.467   6.585   1.238  0.4872  1.4821  0.1485
10845SOL     OW33233   3.871   0.506   1.415 -0.0305 -0.1011 -0.6245
10845SOL    HW133234   3.855   0.595   1.385  1.5785  0.9456  1.3966
10845SOL    HW233235   3.788   0.460   1.399 -1.6411  2.3102  0.2573
10846SOL     OW33236   1.565   0.983   0.713 -0.7798  0.3091  0.3731
10846SOL    HW133237   1.628   1.047   0.677 -1.7374  1.7583  1.1800
10846SOL    HW233238   1.545   0.926   0.639 -0.3781  1.3320 -0.5633
10847SOL     OW33239   5.941   7.234   6.340  0.2353  0.3603  0.6971
10847SOL    HW133240   5.925   7.242   6.246 -1.4320  1.2642  1.0145
10847SOL    HW233241   5.900   7.151   6.365 -1.2108  1.1132  0.9462
10848SOL     OW33242   0.579   2.215   3.116 -0.3422 -0.1254  0.0684
10848SOL    HW133243   0.616   2.127   3.108  1.9868  0.8969 -1.8451
10848SOL    HW233244   0.647   2.266   3.161 -0.5947  1.1999 -0.9792
10849SOL     OW33245   0.157   5.173   2.824  0.6900  0.1660  0.2477
10849SOL    HW133246   0.128   5.205   2.910  0.4944 -0.7849  0.5461
10849SOL    HW233247   0.163   5.078   2.834 -0.3607 -0.0671 -1.0992
10850SOL     OW33248   5.447   3.059   6.267 -0.1851  0.3143  0.2442
10850SOL    HW133249   5.370   3.004   6.284 -0.3232  0.2228 -0.6203
10850SOL    HW233250   5.440   3.080   6.174  1.4305 -0.5964 -0.1116
10851SOL     OW33251   4.662   6.796   2.951 -0.0352  0.2008  0.4884
10851SOL    HW133252   4.626   6.725   2.897  1.5444 -0.9176  0.8230
10851SOL    HW233253   4.600   6.806   3.023  0.1851 -1.5297  0.9559
10852SOL     OW33254   7.331   2.701   7.026  0.3849 -0.1606  0.1919
10852SOL    HW133255   7.302   2.783   7.066  1.0394  1.2886 -2.1476
10852SOL    HW233256   7.424   2.694   7.049 -0.2862 -1.8525  2.8447
10853SOL     OW33257   2.000   4.432   2.434 -0.0772 -0.4321 -0.0584
10853SOL    HW133258   2.022   4.395   2.520  0.8420 -0.9472 -0.5004
10853SOL    HW233259   1.976   4.523   2.452 -2.2857 -1.1735  1.0412
10854SOL     OW33260   0.401   4.991   1.553  0.4248 -0.0626 -0.0771
10854SOL    HW133261   0.305   4.987   1.551  0.4559 -0.9332  0.0603
10854SOL    HW233262   0.426   4.947   1.634  0.8880  1.5343  0.6806
10855SOL     OW33263   6.816   1.839   7.731  0.3390  0.0696 -0.1465
10855SOL    HW133264   6.739   1.882   7.767 -1.4092 -0.5089 -2.8623
10855SOL    HW233265   6.854   1.903   7.671 -0.1083 -0.8133 -1.4232
10856SOL     OW33266   6.383   7.955   1.229 -0.1394 -0.2650 -0.0608
10856SOL    HW133267   6.298   7.929   1.194 -0.0389 -0.1892 -0.3627
10856SOL    HW233268   6.418   7.875   1.269 -0.2873 -0.3312 -0.0626
10857SOL     OW33269   0.404   2.725   5.084 -0.4320 -0.2384  0.1444
10857SOL    HW133270   0.489   2.759   5.056 -1.0341  0.4742 -0.8953
10857SOL    HW233271   0.406   2.729   5.179 -0.1818  2.0395  0.0878
10858SOL     OW33272   7.252   5.134   5.057 -0.0012 -0.1594 -0.1358
10858SOL    HW133273   7.255   5.077   4.980 -1.0035  0.7973 -0.9243
10858SOL    HW233274   7.172   5.108   5.102  0.4456 -0.5351  0.4435
10859SOL     OW33275   5.009   1.478   6.176 -0.2839  0.7007  0.8249
10859SOL    HW133276   5.024   1.504   6.267  0.4812  0.0647  0.8853
10859SOL    HW233277   5.056   1.395   6.166  0.9460  1.5145 -0.5843
10860SOL     OW33278   4.804   0.103   1.841  0.2686 -0.2924 -0.1136
10860SOL    HW133279   4.883   0.142   1.877  0.3568 -2.0155  1.7271
10860SOL    HW233280   4.733   0.161   1.869  0.7440  0.7533 -0.9950
10861SOL     OW33281   3.262   6.766   4.094 -0.1016 -0.3410  0.4032
10861SOL    HW133282   3.228   6.838   4.148 -0.9990 -0.3003 -0.1933
10861SOL    HW233283   3.190   6.744   4.035 -0.0018 -2.0308  0.8546
10862SOL     OW33284   0.782   1.273   3.362  0.0863 -0.6374 -0.2042
10862SOL    HW133285   0.703   1.224   3.384  0.1426 -1.2108 -1.2561
10862SOL    HW233286   0.761   1.364   3.384 -1.7247 -0.3906 -2.6390
10863SOL     OW33287   0.934   2.997   5.121  0.7409  0.1238 -0.6328
10863SOL    HW133288   0.995   2.924   5.122  1.1429  0.4185 -1.7480
10863SOL    HW233289   0.946   3.037   5.035 -0.1665  0.9148 -0.4140
10864SOL     OW33290   6.609   5.700   4.918 -0.0544 -0.2408 -0.0080
10864SOL    HW133291   6.613   5.662   5.006 -0.1651  0.0553  0.1246
10864SOL    HW233292   6.681   5.658   4.871 -0.6484 -1.2048 -0.0966
10865SOL     OW33293   3.493   7.541   4.644  0.7623 -0.2803  0.7288
10865SOL    HW133294   3.447   7.613   4.687  0.1845  0.3809 -0.9228
10865SOL    HW233295   3.519   7.576   4.559 -0.3838 -2.2645 -0.5296
10866SOL     OW33296   7.392   7.958   4.688  0.1395  0.0596  0.6298
10866SOL    HW133297   7.323   7.954   4.755  0.6159 -1.0459  1.0802
10866SOL    HW233298   7.359   8.021   4.624 -1.1164 -0.1326  1.0440
10867SOL     OW33299   6.728   2.060   2.402  0.1465 -0.5750 -0.1486
10867SOL    HW133300   6.791   2.004   2.356  1.4182  0.9929 -0.4024
10867SOL    HW233301   6.717   2.017   2.487  1.8826 -0.7052  0.0551
10868SOL     OW33302   5.137   6.990   2.982 -0.0814 -0.2640 -0.2134
10868SOL    HW133303   5.161   6.920   2.920 -0.4257 -0.4688 -0.1210
10868SOL    HW233304   5.140   7.070   2.929 -2.0776 -0.6331 -0.9752
10869SOL     OW33305   6.848   2.219   0.468 -0.1875 -0.1871 -0.6040
10869SOL    HW133306   6.941   2.210   0.492  0.0769  2.6833 -0.1304
10869SOL    HW233307   6.807   2.255   0.547 -1.6851 -1.2043 -0.8862
10870SOL     OW33308   6.969   1.976   6.469 -0.0822  0.2930  0.3137
10870SOL    HW133309   6.904   1.937   6.527 -3.9727  3.4529 -1.4447
10870SOL    HW233310   6.983   2.064   6.505 -0.1127  1.1782 -1.6971
10871SOL     OW33311   7.782   2.030   5.890 -0.1029 -0.5230  0.8060
10871SOL    HW133312   7.837   1.965   5.935  0.0219  1.0286  3.0566
10871SOL    HW233313   7.780   2.105   5.950 -0.7334  1.3318 -1.4221
10872SOL     OW33314   7.579   4.446   1.122 -0.2577  0.0279 -0.0093
10872SOL    HW133315   7.651   4.455   1.183 -0.0624  0.5268 -0.2994
10872SOL    HW233316   7.503   4.424   1.176 -0.1494  0.7548  0.4487
10873SOL     OW33317   4.288   1.328   5.529 -0.6427  0.3165  0.1974
10873SOL    HW133318   4.239   1.281   5.597 -0.0839  0.3659  0.6372
10873SOL    HW233319   4.226   1.334   5.456 -2.6958  3.5751  1.9332
10874SOL     OW33320   5.182   7.819   6.441  0.4816  0.2698 -0.6351
10874SOL    HW133321   5.127   7.788   6.513 -0.1598 -1.4094 -1.7930
10874SOL    HW233322   5.166   7.914   6.438 -0.2730  0.2133  0.7504
10875SOL     OW33323   4.759   6.284   5.093 -0.3948  0.0178 -0.4466
10875SOL    HW133324   4.697   6.215   5.068  0.4062 -0.5260 -0.9978
10875SOL    HW233325   4.704   6.358   5.118 -1.2671 -0.5721 -0.5777
10876SOL     OW33326   4.565   7.961   7.608  0.5421  0.0244 -0.4451
10876SOL    HW133327   4.546   7.914   7.526 -1.2181  1.2863 -0.8268
10876SOL    HW233328   4.516   7.913   7.675  1.0730 -0.3440 -0.3122
10877SOL     OW33329   3.678   5.363   2.014  0.5284  0.8683  0.3083
10877SOL    HW133330   3.670   5.394   2.104  0.4230  1.0878  0.2230
10877SOL    HW233331   3.694   5.442   1.962 -1.1525  0.9861 -0.0941
10878SOL     OW33332   6.039   6.786   7.675 -0.3514 -0.3526 -0.3891
10878SOL    HW133333   6.071   6.696   7.683 -0.9012 -0.5260 -0.0735
10878SOL    HW233334   6.017   6.811   7.764  0.5213  0.3757 -0.3671
10879SOL     OW33335   7.749   6.784   5.153 -0.0311  0.7736 -0.2731
10879SOL    HW133336   7.668   6.809   5.198 -0.5486 -2.0047  0.5426
10879SOL    HW233337   7.751   6.689   5.159  2.9396  0.6953 -0.9681
10880SOL     OW33338   4.930   6.994   5.131 -0.5395 -0.1425  0.0208
10880SOL    HW133339   4.920   7.082   5.093  2.9654  1.6117  2.5831
10880SOL    HW233340   4.882   6.999   5.214  0.6913 -0.1720  0.7524
10881SOL     OW33341   2.238   0.618   7.465 -0.3110 -0.2149  0.0477
10881SOL    HW133342   2.329   0.638   7.445 -0.6064  0.0719 -1.0714
10881SOL    HW233343   2.198   0.601   7.380 -1.3757 -0.0412  0.5017
10882SOL     OW33344   0.023   7.736   3.318 -0.0982 -0.6521  0.1953
10882SOL    HW133345   0.068   7.723   3.235  0.7409 -1.6772  0.7892
10882SOL    HW233346   0.016   7.831   3.327  0.2762 -0.5174 -0.7737
10883SOL     OW33347   7.013   0.076   3.108 -0.4734 -0.7805  0.0937
10883SOL    HW133348   7.082   0.062   3.174  0.7068 -2.4267 -1.3913
10883SOL    HW233349   7.060   0.112   3.032 -1.8377  1.2732  0.1573
10884SOL     OW33350   7.736   2.298   7.290 -0.0701 -0.2390  0.4706
10884SOL    HW133351   7.643   2.285   7.272  0.2530 -0.1862 -1.3880
10884SOL    HW233352   7.764   2.216   7.331 -1.1592  0.1847  2.1981
10885SOL     OW33353   4.824   2.645   2.600  0.7349 -0.2927  0.3980
10885SOL    HW133354   4.856   2.701   2.530 -0.5984 -0.6975 -0.5814
10885SOL    HW233355   4.888   2.574   2.606  0.0900 -1.0816 -1.5032
10886SOL     OW33356   0.884   4.652   7.325  0.5860 -0.0869 -0.5129
10886SOL    HW133357   0.878   4.600   7.245 -0.4997  2.0168 -1.8885
10886SOL    HW233358   0.966   4.624   7.366  1.4976 -0.8029 -2.6710
10887SOL     OW33359   4.584   0.970   0.738  0.1033 -0.4116 -0.4484
10887SOL    HW133360   4.625   0.995   0.821  0.2995 -0.0851 -0.6429
10887SOL    HW233361   4.577   1.052   0.689 -1.2107 -0.3682 -0.2344
10888SOL     OW33362   6.050   4.931   5.402 -0.1086  0.0016  0.7997
10888SOL    HW133363   6.089   4.936   5.489  1.4262 -0.7931  0.1940
10888SOL    HW233364   6.110   4.980   5.346  0.3114 -1.6032 -0.2293
10889SOL     OW33365   2.994   1.849   5.804  0.8830 -0.0747  0.1415
10889SOL    HW133366   2.959   1.780   5.747  1.0115  0.9516 -1.2100
10889SOL    HW233367   3.086   1.825   5.816  0.8711 -0.2631 -0.1249
10890SOL     OW33368   5.343   5.581   5.246 -0.2202  0.6227 -0.4725
10890SOL    HW133369   5.303   5.588   5.160 -0.9983 -2.5241 -0.4715
10890SOL    HW233370   5.276   5.610   5.307 -1.0968 -0.7631 -0.7377
10891SOL     OW33371   7.696   6.165   3.228  0.0991  0.4659 -0.3421
10891SOL    HW133372   7.692   6.211   3.145 -0.7709  2.0607  0.5406
10891SOL    HW233373   7.718   6.232   3.293 -0.9230 -0.3888  0.9532
10892SOL     OW33374   0.458   0.336   2.910  0.0812  0.3213 -0.0873
10892SOL    HW133375   0.374   0.308   2.946 -0.0510  1.0441  0.1801
10892SOL    HW233376   0.484   0.265   2.851 -0.8735  0.2349 -0.4179
10893SOL     OW33377   1.935   4.265   1.281  0.3179 -0.5700  0.6708
10893SOL    HW133378   2.024   4.239   1.259  0.1144 -1.1019  0.4737
10893SOL    HW233379   1.941   4.359   1.297  0.9603 -0.6433  0.8943
10894SOL     OW33380   1.188   2.700   6.324  0.0469 -0.2076  0.2048
10894SOL    HW133381   1.105   2.665   6.360 -0.3603  1.9760  1.5809
10894SOL    HW233382   1.256   2.656   6.375 -0.3756 -0.3834  0.6303
10895SOL     OW33383   2.425   0.510   7.281  0.0436  0.0303 -0.4084
10895SOL    HW133384   2.440   0.430   7.231 -1.3342 -0.5542  0.0419
10895SOL    HW233385   2.414   0.578   7.215  0.7119 -0.2508 -0.8151
10896SOL     OW33386   4.244   5.645   0.714 -0.5733 -0.3792 -0.9228
10896SOL    HW133387   4.209   5.727   0.747 -0.3849 -0.5335 -0.3338
10896SOL    HW233388   4.322   5.671   0.664 -0.8905 -0.1435 -1.3072
10897SOL     OW33389   4.656   4.906   5.946  0.2102  0.2447  0.6427
10897SOL    HW133390   4.587   4.873   5.888  0.2457  1.1867  0.0426
10897SOL    HW233391   4.623   4.989   5.978  1.0106  0.6546  0.4391
10898SOL     OW33392   2.915   6.461   5.371 -0.6178  0.4255  0.3889
10898SOL    HW133393   2.837   6.507   5.339 -0.0566  1.3697  0.3744
10898SOL    HW233394   2.886   6.370   5.379 -1.3730  0.5282 -0.8343
10899SOL     OW33395   5.415   5.497   2.778  0.1707 -0.0334  0.4173
10899SOL    HW133396   5.421   5.496   2.683 -0.5081 -1.5386  0.3682
10899SOL    HW233397   5.453   5.414   2.806 -0.8750 -0.2264  1.3693
10900SOL     OW33398   1.631   3.499   1.752 -0.2460 -0.1592 -0.5053
10900SOL    HW133399   1.547   3.497   1.799 -0.3218  1.2000 -0.5646
10900SOL    HW233400   1.610   3.537   1.667  0.3777 -0.1235 -0.6480
10901SOL     OW33401   2.329   0.216   0.227 -0.3076  0.0441  0.1892
10901SOL    HW133402   2.255   0.248   0.175 -0.3640  0.1408  0.3273
10901SOL    HW233403   2.368   0.147   0.174 -1.6340 -1.3134  0.9151
10902SOL     OW33404   7.108   6.265   1.600 -0.0812 -0.5152  0.0144
10902SOL    HW133405   7.066   6.218   1.529 -1.3602  1.6363 -0.7412
10902SOL    HW233406   7.198   6.280   1.570 -0.0259 -1.3786 -0.2544
10903SOL     OW33407   4.306   1.263   4.341  0.0102  0.2779 -0.3578
10903SOL    HW133408   4.328   1.260   4.248  1.1150 -1.6587 -0.0747
10903SOL    HW233409   4.389   1.274   4.385 -0.5807  2.0087  0.4344
10904SOL     OW33410   6.350   0.689   3.022 -0.1905  0.6130  0.1707
10904SOL    HW133411   6.312   0.635   2.952 -0.2814  0.3468  0.4207
10904SOL    HW233412   6.368   0.626   3.093 -1.3013  1.0727  0.8826
10905SOL     OW33413   6.071   6.947   4.953  0.2066  0.5477  0.1386
10905SOL    HW133414   6.011   6.969   4.881 -0.6385 -2.0418 -0.0369
10905SOL    HW233415   6.151   6.994   4.931 -0.5213  1.0529 -1.6947
10906SOL     OW33416   1.530   0.271   4.693 -0.8862 -0.4326 -0.5086
10906SOL    HW133417   1.513   0.361   4.720 -0.8439 -1.7245  5.0099
10906SOL    HW233418   1.609   0.276   4.639 -0.1626  2.7970  0.6515
10907SOL     OW33419   6.604   5.513   0.080 -0.2859 -0.1050  0.2140
10907SOL    HW133420   6.604   5.561   0.163 -1.9842  0.7062 -0.2333
10907SOL    HW233421   6.625   5.423   0.105 -0.6798  0.1459  1.5207
10908SOL     OW33422   7.096   1.928   5.705  0.3272 -0.3172 -0.1065
10908SOL    HW133423   7.115   2.010   5.751  0.8056 -0.0969 -0.6872
10908SOL    HW233424   7.078   1.865   5.775 -1.7259  0.6664  0.3161
10909SOL     OW33425   6.270   0.716   4.567 -0.1081 -0.0239  0.6639
10909SOL    HW133426   6.352   0.667   4.573 -0.0410 -0.4441 -2.2404
10909SOL    HW233427   6.202   0.650   4.570 -0.0337 -0.4337 -2.7410
10910SOL     OW33428   5.456   6.825   1.220  0.6300  0.5552  0.1310
10910SOL    HW133429   5.528   6.830   1.157 -0.3887 -0.6600 -1.1948
10910SOL    HW233430   5.489   6.871   1.298  2.8665 -0.0752 -0.3777
10911SOL     OW33431   4.020   2.234   4.720 -0.0959 -0.4624 -0.0155
10911SOL    HW133432   4.023   2.144   4.753  0.9848 -0.2639  0.4897
10911SOL    HW233433   4.112   2.261   4.716 -0.4274  0.8521  0.5024
10912SOL     OW33434   0.020   2.443   3.127  0.2043 -0.1144  0.2429
10912SOL    HW133435   0.104   2.466   3.169  0.4193  0.4104 -0.4492
10912SOL    HW233436   0.044   2.382   3.057  0.1003  0.5391 -0.3766
10913SOL     OW33437   6.448   3.334   7.770 -0.3405 -0.1429  0.1104
10913SOL    HW133438   6.467   3.377   7.687 -1.2035  1.7296  0.8438
10913SOL    HW233439   6.532   3.332   7.816 -0.1925  0.2890 -0.1393
10914SOL     OW33440   6.122   2.749   3.977 -0.6194  0.3664  0.1224
10914SOL    HW133441   6.036   2.715   3.953 -0.4878 -0.8033  1.1738
10914SOL    HW233442   6.180   2.720   3.907 -1.1076  1.3576 -0.7075
10915SOL     OW33443   7.514   6.061   1.982  0.4780  0.7220  0.0129
10915SOL    HW133444   7.496   6.055   1.888 -0.0323 -3.6162  0.1536
10915SOL    HW233445   7.566   5.983   2.001 -2.0392 -0.3386  3.7840
10916SOL     OW33446   4.471   0.961   7.115  0.0445 -0.2133 -0.4858
10916SOL    HW133447   4.447   0.878   7.073  1.8195 -0.7966 -0.4232
10916SOL    HW233448   4.541   0.937   7.176  1.7193  1.5540 -1.6063
10917SOL     OW33449   7.269   2.038   2.635 -0.2380 -0.3022  0.1511
10917SOL    HW133450   7.325   1.964   2.658  0.5118  0.2437  0.1221
10917SOL    HW233451   7.181   2.001   2.632  0.0515 -1.0701  0.7051
10918SOL     OW33452   3.464   5.572   5.961  0.5019 -0.3287 -0.7191
10918SOL    HW133453   3.405   5.643   5.936  0.2328  0.0158  0.7744
10918SOL    HW233454   3.492   5.533   5.878 -0.8868  0.2575 -1.4914
10919SOL     OW33455   2.923   2.430   2.790  0.0103 -0.3641  0.7000
10919SOL    HW133456   2.938   2.421   2.696 -0.2046  0.1531  0.6126
10919SOL    HW233457   2.850   2.372   2.808  0.9594 -1.5512  0.8100
10920SOL     OW33458   1.517   4.579   4.663  0.0988 -0.5361  0.1111
10920SOL    HW133459   1.589   4.577   4.600  0.7660  2.1161  0.6653
10920SOL    HW233460   1.540   4.512   4.727  0.7317 -1.4766 -1.0482
10921SOL     OW33461   7.255   7.562   2.582 -0.3019 -0.2758  0.0863
10921SOL    HW133462   7.252   7.586   2.489  1.0514  0.3341  0.1646
10921SOL    HW233463   7.220   7.639   2.627 -0.1552 -0.2313  0.1236
10922SOL     OW33464   4.994   6.317   6.779  0.2989 -0.5063 -0.0871
10922SOL    HW133465   5.056   6.244   6.774  2.1782  0.8265  1.7091
10922SOL    HW233466   5.027   6.381   6.717  2.1757  1.1031  2.3655
10923SOL     OW33467   5.394   5.831   4.084  0.0537  0.2665 -0.1021
10923SOL    HW133468   5.309   5.794   4.106  1.2429 -1.6775  1.5482
10923SOL    HW233469   5.441   5.761   4.040  0.8490  1.2856 -0.9338
10924SOL     OW33470   2.180   5.999   4.239 -0.2502  0.6200 -0.3344
10924SOL    HW133471   2.151   6.077   4.192  1.0573  1.5755  0.3537
10924SOL    HW233472   2.275   5.999   4.228 -0.1752 -0.5467  0.1769
10925SOL     OW33473   0.778   3.861   1.677 -0.0490 -0.0953  0.4968
10925SOL    HW133474   0.794   3.767   1.678 -0.7005 -0.2085  1.2344
10925SOL    HW233475   0.778   3.886   1.769  1.4658  0.8723  0.2541
10926SOL     OW33476   6.879   7.384   6.593  0.2412  0.3259 -0.3261
10926SOL    HW133477   6.897   7.452   6.528 -0.2565  0.7836  0.0058
10926SOL    HW233478   6.951   7.390   6.655  1.2049 -0.7153 -1.3104
10927SOL     OW33479   0.476   6.801   6.938  0.1917  0.3303  0.4693
10927SOL    HW133480   0.571   6.812   6.947  0.0063  2.4688  0.2851
10927SOL    HW233481   0.464   6.766   6.850  0.7972  0.1643  0.4480
10928SOL     OW33482   6.266   7.243   1.674 -0.0774 -0.2270 -0.1132
10928SOL    HW133483   6.234   7.234   1.763  0.9853  1.0698  0.4378
10928SOL    HW233484   6.338   7.179   1.667 -0.1009 -0.2637 -0.0145
10929SOL     OW33485   4.700   4.840   6.653 -0.4243  0.2128 -0.8788
10929SOL    HW133486   4.748   4.761   6.633  1.0045  0.9097 -0.3398
10929SOL    HW233487   4.765   4.898   6.693 -1.4675  1.5951 -1.1240
10930SOL     OW33488   2.960   6.897   1.601 -0.7286  0.4314 -0.1751
10930SOL    HW133489   2.987   6.815   1.559  1.1088  1.0029 -0.2208
10930SOL    HW233490   2.903   6.869   1.673 -1.1592 -0.7863 -0.9496
10931SOL     OW33491   5.727   0.816   5.725  0.5827  0.4910 -0.2260
10931SOL    HW133492   5.805   0.796   5.674  2.4421  0.2009  2.5258
10931SOL    HW233493   5.709   0.908   5.705  0.4092  0.0586 -2.3347
10932SOL     OW33494   3.258   3.269   5.894 -0.2547 -0.0735  0.2964
10932SOL    HW133495   3.353   3.258   5.888 -0.2184 -0.0426  0.7639
10932SOL    HW233496   3.241   3.356   5.858  0.1147  0.7120  1.9195
10933SOL     OW33497   5.407   6.384   0.613  0.2117 -0.1897 -0.1358
10933SOL    HW133498   5.314   6.404   0.619  0.2980 -0.2711  2.8762
10933SOL    HW233499   5.411   6.288   0.614  0.3301 -0.1891  1.0746
10934SOL     OW33500   7.289   5.886   3.087  0.0143  0.1562 -0.2890
10934SOL    HW133501   7.292   5.976   3.054  0.2597 -0.1070 -1.0136
10934SOL    HW233502   7.317   5.892   3.178  0.4257  0.7588 -0.4553
10935SOL     OW33503   5.732   5.400   2.035  0.4620  0.0772 -0.2774
10935SOL    HW133504   5.821   5.369   2.052  0.6752 -0.4679 -2.1849
10935SOL    HW233505   5.679   5.320   2.031 -0.6149  0.4586  2.9303
10936SOL     OW33506   6.103   4.529   1.357  0.5711 -0.2788 -0.4576
10936SOL    HW133507   6.075   4.527   1.448  1.6732  2.0046  0.0110
10936SOL    HW233508   6.030   4.491   1.308 -1.2919  1.0672  1.1211
10937SOL     OW33509   1.529   7.018   2.918 -0.5469 -0.2407 -0.3963
10937SOL    HW133510   1.457   6.955   2.919 -1.0674  0.3045  1.9404
10937SOL    HW233511   1.589   6.988   2.985  0.8784 -0.0461 -1.5387
10938SOL     OW33512   4.132   4.565   3.557  0.1472 -0.1737  0.1662
10938SOL    HW133513   4.120   4.627   3.629 -1.3226  0.0572 -0.2516
10938SOL    HW233514   4.055   4.508   3.561  0.1383 -0.2842 -1.0774
10939SOL     OW33515   5.111   7.971   0.101 -0.6061 -0.0352 -0.8779
10939SOL    HW133516   5.157   8.049   0.072  0.3432 -0.5563 -0.8339
10939SOL    HW233517   5.136   7.903   0.038 -0.0780 -0.6928  0.0044
10940SOL     OW33518   6.737   3.557   4.370 -0.2858 -0.2370 -0.3009
10940SOL    HW133519   6.787   3.554   4.289 -0.7390 -0.6182 -0.5739
10940SOL    HW233520   6.698   3.470   4.377  0.5408 -0.5286  0.8394
10941SOL     OW33521   0.825   1.845   7.710  0.0073 -0.1249 -0.4554
10941SOL    HW133522   0.885   1.770   7.707  0.7344  0.4269 -0.1674
10941SOL    HW233523   0.775   1.832   7.790  1.3006  0.5442  0.5021
10942SOL     OW33524   2.079   5.662   5.490 -0.1457  0.0541 -0.0492
10942SOL    HW133525   2.007   5.664   5.428  0.3802  0.0209 -0.6738
10942SOL    HW233526   2.067   5.740   5.544  0.0472  0.7155 -0.9539
10943SOL     OW33527   4.615   2.122   7.181 -0.1413  0.1240 -0.5845
10943SOL    HW133528   4.602   2.209   7.144  0.5748  0.8521  0.8011
10943SOL    HW233529   4.562   2.121   7.260  1.6994  0.1976  0.7067
10944SOL     OW33530   7.542   5.594   3.552  0.3083 -0.1866 -0.4343
10944SOL    HW133531   7.474   5.657   3.575  2.3772  1.9753  0.1823
10944SOL    HW233532   7.581   5.570   3.636  1.1535 -0.3829 -0.8753
10945SOL     OW33533   4.033   5.604   7.125 -0.3537  0.4044 -0.6438
10945SOL    HW133534   4.120   5.571   7.148  0.0284  1.2550 -0.8626
10945SOL    HW233535   3.990   5.619   7.209  0.1855  1.2270 -0.5052
10946SOL     OW33536   0.666   0.880   5.086 -0.1713 -0.2834  0.0338
10946SOL    HW133537   0.652   0.850   5.176  0.3390  1.5709  0.7968
10946SOL    HW233538   0.644   0.973   5.089 -0.5076 -0.2634 -1.8733
10947SOL     OW33539   6.224   3.016   6.968 -0.2489 -0.0231  0.2179
10947SOL    HW133540   6.220   2.938   7.023 -0.0752 -0.2345 -0.0675
10947SOL    HW233541   6.196   3.087   7.026 -1.1967 -0.4097  0.2562
10948SOL     OW33542   2.282   0.998   5.695  0.4329  0.8649  0.1561
10948SOL    HW133543   2.293   1.037   5.609 -2.2379  1.6670  0.0765
10948SOL    HW233544   2.256   1.071   5.752 -0.9795 -0.1312  0.8670
10949SOL     OW33545   4.922   0.986   3.389  0.2213  0.4549 -0.0972
10949SOL    HW133546   4.986   1.052   3.415  1.2432 -0.1886 -0.9070
10949SOL    HW233547   4.838   1.020   3.421  0.8326  1.7501  0.1946
10950SOL     OW33548   3.368   4.012   4.175  0.0186 -0.0979  0.3264
10950SOL    HW133549   3.385   4.105   4.158 -1.2943 -0.1118 -1.4287
10950SOL    HW233550   3.453   3.970   4.168  0.4938  0.8659  0.2289
10951SOL     OW33551   7.384   7.974   4.296  0.5468  0.0676  1.0002
10951SOL    HW133552   7.412   7.887   4.323  1.3741  0.8026  2.6270
10951SOL    HW233553   7.362   8.019   4.378 -0.8700  1.0754  0.1250
10952SOL     OW33554   4.411   5.865   4.330  0.0825 -0.1300 -0.0588
10952SOL    HW133555   4.426   5.887   4.238 -3.4620 -1.8992 -1.2749
10952SOL    HW233556   4.324   5.901   4.350 -0.5156 -2.2247  1.6035
10953SOL     OW33557   2.517   7.071   6.486  0.3238  0.2486 -0.2249
10953SOL    HW133558   2.465   7.118   6.551 -0.5774 -1.4128  0.3012
10953SOL    HW233559   2.604   7.063   6.527  0.5832  1.6608 -0.4481
10954SOL     OW33560   7.165   4.375   4.520  0.0067 -0.1221  0.2665
10954SOL    HW133561   7.075   4.353   4.498  0.0027 -1.0676  1.1433
10954SOL    HW233562   7.176   4.465   4.489 -0.9788 -0.2666 -0.5693
10955SOL     OW33563   4.699   7.852   6.378  0.6498  0.6493 -0.1736
10955SOL    HW133564   4.664   7.925   6.326  2.1615  2.3061  0.9976
10955SOL    HW233565   4.720   7.891   6.463  0.5193 -1.4304  0.8777
10956SOL     OW33566   7.393   1.506   0.565 -0.4854  0.9157 -0.0248
10956SOL    HW133567   7.300   1.504   0.586 -0.7351 -3.3881 -0.4698
10956SOL    HW233568   7.437   1.506   0.650 -1.0045  0.2873  0.2537
10957SOL     OW33569   4.126   1.584   5.440  0.1238 -0.0360 -0.7373
10957SOL    HW133570   4.134   1.676   5.413  1.6805 -0.4670 -1.8435
10957SOL    HW233571   4.135   1.534   5.359 -0.6344 -1.1987 -0.1392
10958SOL     OW33572   2.077   2.282   1.964  0.0035  0.1670  0.4009
10958SOL    HW133573   2.151   2.325   1.921 -0.5524 -0.4631 -1.2687
10958SOL    HW233574   2.000   2.332   1.936 -0.6508 -1.7857 -1.5544
10959SOL     OW33575   5.518   2.208   3.574  0.4421 -0.4455 -0.2812
10959SOL    HW133576   5.607   2.203   3.539  0.6737 -0.7750  0.3346
10959SOL    HW233577   5.477   2.280   3.526  0.6082 -1.1394 -1.5114
10960SOL     OW33578   7.555   6.567   5.404 -0.8432 -0.2137  0.0668
10960SOL    HW133579   7.559   6.655   5.441  1.9201 -0.7446  1.2858
10960SOL    HW233580   7.629   6.562   5.344 -0.6523 -1.8268  0.3811
10961SOL     OW33581   1.840   7.517   2.248  0.3293 -0.4956  0.3069
10961SOL    HW133582   1.851   7.496   2.341 -0.5073 -0.5774  0.3991
10961SOL    HW233583   1.755   7.562   2.244  1.5246  1.8482 -0.0546
10962SOL     OW33584   6.450   7.946   5.664 -0.3882  0.0969 -0.0648
10962SOL    HW133585   6.405   8.028   5.647  0.2784  0.7103  1.0258
10962SOL    HW233586   6.538   7.958   5.627 -0.7876 -0.7435 -1.3459
10963SOL     OW33587   7.288   5.653   2.803  0.4785  0.1528  0.1124
10963SOL    HW133588   7.340   5.594   2.857  1.1873  1.0236  0.3967
10963SOL    HW233589   7.203   5.658   2.847  0.1831 -1.1557 -0.2724
10964SOL     OW33590   3.377   7.548   0.409 -0.2111  0.2568  0.2918
10964SOL    HW133591   3.433   7.624   0.423 -0.6334  0.7652 -0.6975
10964SOL    HW233592   3.295   7.570   0.452 -0.1184  0.0986  0.5481
10965SOL     OW33593   3.589   6.892   6.137  0.4085 -0.3014  0.4224
10965SOL    HW133594   3.613   6.820   6.195 -0.8432 -2.1512 -1.2298
10965SOL    HW233595   3.494   6.893   6.138  0.3658  0.0378 -1.0602
10966SOL     OW33596   4.955   6.362   7.887  0.2768  0.3916  0.2988
10966SOL    HW133597   4.902   6.417   7.945  0.4816  1.4459 -0.4956
10966SOL    HW233598   4.897   6.343   7.814  0.8443  1.1874 -0.3672
10967SOL     OW33599   0.173   2.260   4.659  0.2932  0.0475  0.2719
10967SOL    HW133600   0.253   2.266   4.606  0.7753 -0.3450  0.9444
10967SOL    HW233601   0.204   2.245   4.748 -0.5525 -0.9184  0.4269
10968SOL     OW33602   3.813   7.707   0.117  0.1195 -0.4189  0.0104
10968SOL    HW133603   3.742   7.655   0.156  0.6567 -1.4983 -0.4376
10968SOL    HW233604   3.893   7.667   0.149  0.5502  0.1605 -0.3222
10969SOL     OW33605   6.085   3.019   7.713  0.4137 -0.1273 -0.4268
10969SOL    HW133606   6.043   3.011   7.628 -0.1772  0.0530 -0.1551
10969SOL    HW233607   6.168   3.063   7.695  0.4177 -0.3439 -0.9450
10970SOL     OW33608   1.629   2.450   1.622  0.2883  0.2266  0.0060
10970SOL    HW133609   1.652   2.486   1.536  0.0769  3.4253  1.1527
10970SOL    HW233610   1.698   2.481   1.680  0.3994 -1.8356  1.0907
10971SOL     OW33611   6.098   5.148   6.455  0.4021 -0.2882  0.1834
10971SOL    HW133612   6.172   5.121   6.509  0.0852 -1.0420  0.2546
10971SOL    HW233613   6.138   5.186   6.377  0.8578  0.6869  0.8848
10972SOL     OW33614   4.879   0.804   1.312  0.4086 -0.1167 -0.1246
10972SOL    HW133615   4.841   0.891   1.322 -0.4891 -0.7061  2.4630
10972SOL    HW233616   4.854   0.776   1.224  0.6575  2.1590 -0.9875
10973SOL     OW33617   3.507   4.715   4.559 -0.0671 -0.3387  0.2133
10973SOL    HW133618   3.488   4.770   4.482 -1.0755  0.1663  0.7966
10973SOL    HW233619   3.582   4.757   4.601  1.7939 -1.7205 -1.5205
10974SOL     OW33620   2.680   2.836   6.974  1.0294 -0.3167  0.1796
10974SOL    HW133621   2.595   2.840   7.017  1.3750  0.9104  0.8027
10974SOL    HW233622   2.742   2.817   7.045  1.2639 -1.4769 -0.3096
10975SOL     OW33623   5.177   1.837   7.559 -0.3133  0.5667  0.3081
10975SOL    HW133624   5.240   1.807   7.625  0.1689  1.0182  0.0603
10975SOL    HW233625   5.171   1.764   7.498 -2.9076 -1.0509  2.2837
10976SOL     OW33626   0.749   0.107   7.511  0.2046 -0.2732 -0.2898
10976SOL    HW133627   0.830   0.125   7.559 -1.0853  4.1109  0.7871
10976SOL    HW233628   0.776   0.091   7.421  2.3299 -1.4987  0.5064
10977SOL     OW33629   0.824   4.198   4.909  0.2653  0.1335 -0.2838
10977SOL    HW133630   0.733   4.189   4.879  0.6040 -0.1391 -1.2527
10977SOL    HW233631   0.876   4.199   4.829  1.1463  0.0320  0.2755
10978SOL     OW33632   3.795   2.110   6.719 -0.2652  0.0154 -0.1293
10978SOL    HW133633   3.786   2.082   6.627 -2.5328 -2.9092  0.8229
10978SOL    HW233634   3.724   2.172   6.732 -1.1802 -1.0453  0.0819
10979SOL     OW33635   3.790   1.403   5.352  0.0552 -0.0421  0.1114
10979SOL    HW133636   3.730   1.439   5.287  0.2347  1.1029  0.5567
10979SOL    HW233637   3.746   1.415   5.436 -0.9700 -3.0969  0.1555
10980SOL     OW33638   6.016   6.604   0.250  0.6994 -0.1891  0.3871
10980SOL    HW133639   5.994   6.642   0.335  1.3691  0.2189  0.3901
10980SOL    HW233640   5.977   6.664   0.186 -0.6095 -0.9979  0.3965
10981SOL     OW33641   2.371   0.512   0.643 -0.3575 -0.8982  0.2140
10981SOL    HW133642   2.458   0.524   0.682 -0.2969  0.6593 -0.3109
10981SOL    HW233643   2.386   0.459   0.565  0.1002 -0.8140  0.2443
10982SOL     OW33644   4.665   0.748   2.049 -0.0200  0.8584  0.0939
10982SOL    HW133645   4.703   0.771   1.964 -0.4669 -1.4969 -0.8453
10982SOL    HW233646   4.723   0.787   2.113 -0.2007  3.5504 -1.2429
10983SOL     OW33647   5.683   5.650   2.624 -0.0578 -0.4509 -0.6393
10983SOL    HW133648   5.681   5.644   2.720  2.3742  1.4826 -0.3765
10983SOL    HW233649   5.705   5.741   2.606 -1.6154 -0.4811 -3.1214
10984SOL     OW33650   5.029   6.178   3.467 -0.4509 -0.1961 -0.5188
10984SOL    HW133651   5.080   6.134   3.535 -0.1016 -0.3944 -0.9024
10984SOL    HW233652   4.974   6.240   3.515  1.7720  1.6719 -0.1987
10985SOL     OW33653   2.673   7.854   2.248  0.2059 -0.2358 -0.4729
10985SOL    HW133654   2.764   7.875   2.231  0.3083  0.3313  0.6988
10985SOL    HW233655   2.649   7.909   2.323 -0.6434 -1.5197  0.2250
10986SOL     OW33656   2.828   1.810   1.186  0.6911  0.5155 -0.1433
10986SOL    HW133657   2.850   1.898   1.218  1.8438  2.0779 -4.5185
10986SOL    HW233658   2.867   1.751   1.250  1.0632  3.1365  2.2793
10987SOL     OW33659   4.512   2.662   1.049 -0.2077  0.4322  0.5600
10987SOL    HW133660   4.497   2.605   1.125 -1.4687  1.5961  1.2250
10987SOL    HW233661   4.506   2.751   1.084  0.9619  0.9939 -0.5953
10988SOL     OW33662   4.605   2.466   2.907  0.8412 -0.3244 -0.1110
10988SOL    HW133663   4.600   2.464   2.812 -0.2690  1.7891 -0.1532
10988SOL    HW233664   4.515   2.455   2.937  1.3439 -2.6061  0.8241
10989SOL     OW33665   5.948   2.390   7.290  0.0102  0.3550  0.1106
10989SOL    HW133666   5.910   2.301   7.289 -0.9939  0.7441  1.2262
10989SOL    HW233667   6.042   2.376   7.293  0.0070 -0.6574 -2.3092
10990SOL     OW33668   0.828   0.609   6.344 -0.0628  0.0041  0.4171
10990SOL    HW133669   0.744   0.571   6.317  0.3582 -2.2326  1.9776
10990SOL    HW233670   0.822   0.615   6.439  1.6938 -0.6783  0.6075
10991SOL     OW33671   7.958   3.664   6.058 -0.2138  0.3778 -0.2738
10991SOL    HW133672   7.896   3.599   6.027 -0.0925  0.5966 -0.9880
10991SOL    HW233673   8.044   3.624   6.045 -0.1847  0.2209  0.3713
10992SOL     OW33674   3.269   4.327   5.086  0.4932 -0.0261 -0.0742
10992SOL    HW133675   3.255   4.396   5.022  1.4041 -0.8780 -1.2308
10992SOL    HW233676   3.221   4.251   5.051 -0.3760 -0.0482  1.0979
10993SOL     OW33677   3.699   7.163   4.191  0.9266  0.1261  0.0623
10993SOL    HW133678   3.783   7.119   4.201  0.0850 -0.9602  3.7169
10993SOL    HW233679   3.721   7.253   4.169  2.8897 -0.6602 -1.4925
10994SOL     OW33680   6.659   3.611   7.837 -0.0675  0.7086 -0.5956
10994SOL    HW133681   6.583   3.637   7.786 -0.8080  2.4679  1.2607
10994SOL    HW233682   6.632   3.624   7.928  1.9208 -0.1989  0.1882
10995SOL     OW33683   7.646   7.797   7.331  0.3685  0.2539 -0.2886
10995SOL    HW133684   7.609   7.884   7.316  1.5294  0.5995 -1.2830
10995SOL    HW233685   7.580   7.737   7.297 -0.9957  0.6501  1.5137
10996SOL     OW33686   7.792   6.834   2.245 -0.4244  0.1977  0.0962
10996SOL    HW133687   7.716   6.841   2.302  0.3286  1.3115  1.0016
10996SOL    HW233688   7.860   6.796   2.300 -0.9023 -3.1028 -1.3371
10997SOL     OW33689   2.192   4.970   1.567 -0.1232 -0.4364 -0.1916
10997SOL    HW133690   2.268   5.027   1.579 -0.6697  0.1319  0.6892
10997SOL    HW233691   2.228   4.881   1.565  0.6435 -0.1206 -0.6954
10998SOL     OW33692   6.028   7.543   0.687 -0.3010 -0.4099  0.1108
10998SOL    HW133693   6.024   7.454   0.651  3.4942 -0.5687 -0.3856
10998SOL    HW233694   6.026   7.530   0.782  2.6233 -1.4398  0.1520
10999SOL     OW33695   2.339   5.530   6.202 -0.4871 -0.1659  0.3359
10999SOL    HW133696   2.391   5.514   6.281 -0.0403 -0.6723 -0.0508
10999SOL    HW233697   2.375   5.469   6.137 -0.9588  0.1270 -0.2093
11000SOL     OW33698   7.741   7.722   0.719  0.8625  0.2309  0.3549
11000SOL    HW133699   7.662   7.692   0.674  1.8717 -2.2052  0.0370
11000SOL    HW233700   7.713   7.798   0.769 -1.4747 -0.0433 -0.4308
11001SOL     OW33701   0.038   3.075   7.399 -0.1968  0.6167 -0.1219
11001SOL    HW133702   0.120   3.067   7.448 -0.7659  0.9372  0.9243
11001SOL    HW233703   0.013   2.985   7.379 -0.2145  0.4461  0.6387
11002SOL     OW33704   6.124   1.950   6.693 -0.0587 -0.0147  0.0078
11002SOL    HW133705   6.142   2.015   6.626 -0.4106  2.2238  1.9457
11002SOL    HW233706   6.029   1.951   6.703  0.0778  0.7752  1.4988
11003SOL     OW33707   5.865   1.262   1.137 -0.6562  0.3216  0.4510
11003SOL    HW133708   5.941   1.243   1.192 -0.0946 -0.7245 -0.6266
11003SOL    HW233709   5.896   1.331   1.078 -0.5155 -0.1275 -0.0093
11004SOL     OW33710   5.323   3.853   2.980  0.3233 -0.0761  0.3602
11004SOL    HW133711   5.298   3.913   3.051 -0.1722  0.5486 -0.3300
11004SOL    HW233712   5.257   3.868   2.912 -0.3905 -2.0905  0.5356
11005SOL     OW33713   3.683   5.281   6.447 -0.3644  0.0674 -0.3319
11005SOL    HW133714   3.704   5.358   6.500  0.8588 -0.4843  0.0127
11005SOL    HW233715   3.638   5.222   6.507  2.4532 -1.2465  0.6265
11006SOL     OW33716   6.100   0.525   7.453  0.4239  0.1765 -0.3360
11006SOL    HW133717   6.183   0.508   7.408 -0.0751 -1.5876 -0.6506
11006SOL    HW233718   6.062   0.599   7.405  0.3996 -0.9828 -2.1858
11007SOL     OW33719   2.708   2.742   1.603 -0.0036  0.1455 -0.0437
11007SOL    HW133720   2.667   2.714   1.685  4.4140 -0.1480  2.3916
11007SOL    HW233721   2.727   2.835   1.617 -0.8781  0.6063 -1.6414
11008SOL     OW33722   5.759   4.596   5.098  0.1823  0.7072  0.4716
11008SOL    HW133723   5.713   4.668   5.055 -0.5850  0.2067  0.4333
11008SOL    HW233724   5.829   4.638   5.147  0.5479  1.3650 -0.5953
11009SOL     OW33725   3.442   4.102   2.151 -0.0348  0.1380  0.3435
11009SOL    HW133726   3.391   4.183   2.146 -0.0113  0.1158 -0.2695
11009SOL    HW233727   3.420   4.054   2.071 -0.2968 -0.6109  0.8509
11010SOL     OW33728   0.378   3.097   2.187  0.1004  0.5147 -0.0802
11010SOL    HW133729   0.450   3.155   2.211  0.4333  0.2280 -0.3859
11010SOL    HW233730   0.327   3.148   2.123  1.4300 -0.1974 -1.7949
11011SOL     OW33731   4.207   4.592   7.947  0.1576  0.3523 -0.4343
11011SOL    HW133732   4.221   4.647   7.871 -0.7699  2.4713  0.8363
11011SOL    HW233733   4.145   4.525   7.918 -0.2447  1.1735 -1.5103
11012SOL     OW33734   3.775   0.094   1.005  0.2866  0.8110  0.0667
11012SOL    HW133735   3.734   0.029   0.948  0.8796 -1.6491  2.2389
11012SOL    HW233736   3.702   0.143   1.043 -0.5415 -1.3942  1.4885
11013SOL     OW33737   0.621   0.118   1.747  0.2717  0.2782 -0.4515
11013SOL    HW133738   0.589   0.029   1.733  0.6213  0.2527 -1.1483
11013SOL    HW233739   0.695   0.108   1.807 -1.2913  0.3948  1.6220
11014SOL     OW33740   6.146   7.378   7.629  0.4229  0.3189 -0.7023
11014SOL    HW133741   6.073   7.319   7.646  0.4786  0.5532  0.4805
11014SOL    HW233742   6.119   7.461   7.668  1.1066  0.5537 -0.7168
11015SOL     OW33743   6.278   4.120   0.995  0.0341  0.0886 -0.0724
11015SOL    HW133744   6.342   4.053   1.018  0.1909 -0.7054 -2.4713
11015SOL    HW233745   6.199   4.095   1.043  1.1132  0.3827  1.9692
11016SOL     OW33746   6.751   5.291   5.509 -0.3574 -0.2763 -0.0050
11016SOL    HW133747   6.808   5.354   5.553  0.1985  0.5250 -1.7565
11016SOL    HW233748   6.769   5.207   5.552  1.4009  0.1561  0.1612
11017SOL     OW33749   5.647   4.422   4.494  0.4178 -0.1998  0.9313
11017SOL    HW133750   5.722   4.406   4.436  0.8439  0.7399  1.1957
11017SOL    HW233751   5.655   4.356   4.563 -0.9953 -2.4021 -0.8631
11018SOL     OW33752   3.871   5.886   2.446 -0.2714 -0.4757 -0.8918
11018SOL    HW133753   3.785   5.917   2.475  0.2030  0.5986 -0.6069
11018SOL    HW233754   3.865   5.791   2.452 -0.8458 -0.3570  0.8585
11019SOL     OW33755   3.841   1.691   2.859  0.1179 -1.2371  0.2959
11019SOL    HW133756   3.821   1.751   2.787 -1.2779 -1.1342  0.7496
11019SOL    HW233757   3.771   1.626   2.856 -1.2899 -0.0124  2.8740
11020SOL     OW33758   5.895   3.481   3.552  0.2958 -0.2209  0.0549
11020SOL    HW133759   5.958   3.442   3.491 -1.5442  0.2217 -2.2370
11020SOL    HW233760   5.864   3.407   3.605  1.0085 -0.8356 -0.3580
11021SOL     OW33761   3.234   5.411   5.249 -0.4475  0.1840 -0.3036
11021SOL    HW133762   3.179   5.339   5.216  1.0008 -0.9213 -0.4321
11021SOL    HW233763   3.206   5.424   5.339 -0.2790 -1.0505 -0.0524
11022SOL     OW33764   2.506   4.461   1.810 -0.2013  0.0752  0.0124
11022SOL    HW133765   2.432   4.401   1.810  1.8141 -2.5997  1.0474
11022SOL    HW233766   2.559   4.435   1.734  0.7093  0.5362  0.4665
11023SOL     OW33767   4.222   4.837   5.032 -0.7333  0.0241 -1.0795
11023SOL    HW133768   4.293   4.773   5.042 -1.2337 -0.3886 -0.0793
11023SOL    HW233769   4.161   4.794   4.972 -2.1487 -1.4531  1.2777
11024SOL     OW33770   6.665   0.381   3.729  0.4144 -0.4251 -0.4561
11024SOL    HW133771   6.661   0.314   3.660  0.8377 -0.1198 -0.7830
11024SOL    HW233772   6.661   0.464   3.682  2.6176 -0.1763 -0.2774
11025SOL     OW33773   5.993   4.479   0.186 -0.0356  0.4187 -0.2206
11025SOL    HW133774   6.019   4.398   0.142  2.0792 -0.9657  3.1787
11025SOL    HW233775   5.921   4.453   0.244  0.2128  1.1101  0.4147
11026SOL     OW33776   4.374   1.583   5.584  0.4940 -0.3670 -0.2438
11026SOL    HW133777   4.294   1.589   5.533  0.5999  0.6516 -0.3098
11026SOL    HW233778   4.420   1.507   5.549 -0.1006 -0.5123 -0.7023
11027SOL     OW33779   2.807   5.159   6.312  0.0522 -0.5653 -0.4278
11027SOL    HW133780   2.751   5.166   6.390  0.9691 -0.1207  0.2050
11027SOL    HW233781   2.787   5.237   6.261  2.8190  1.7178  1.6594
11028SOL     OW33782   0.347   5.145   3.493  0.1206 -0.1366  0.1886
11028SOL    HW133783   0.384   5.080   3.552 -0.0279  0.1463  0.6014
11028SOL    HW233784   0.277   5.099   3.446 -0.2148 -0.1878  0.7303
11029SOL     OW33785   6.592   2.380   3.489  0.1857 -0.0200  0.3735
11029SOL    HW133786   6.565   2.424   3.570  1.0180  1.0645  0.0915
11029SOL    HW233787   6.529   2.410   3.424  0.0568 -0.1774  0.4248
11030SOL     OW33788   1.296   7.801   5.403  0.2135 -0.1158 -0.4477
11030SOL    HW133789   1.384   7.772   5.378  1.1035  1.0795  1.0367
11030SOL    HW233790   1.266   7.735   5.465  0.1248 -0.4566 -0.8532
11031SOL     OW33791   3.086   3.173   3.147  0.0585  0.0318 -0.0541
11031SOL    HW133792   3.179   3.189   3.133 -0.1642 -0.2875 -2.0794
11031SOL    HW233793   3.042   3.219   3.076 -1.3291 -0.1231  0.6588
11032SOL     OW33794   3.040   7.766   2.647 -0.2338  0.2610 -0.2434
11032SOL    HW133795   3.132   7.765   2.674 -0.3107 -0.2387  0.0147
11032SOL    HW233796   3.022   7.859   2.630  0.3328  0.3578 -0.3625
11033SOL     OW33797   2.538   1.602   0.063 -0.0119 -0.0735 -0.0214
11033SOL    HW133798   2.629   1.592   0.088  0.0237 -0.1725 -0.1928
11033SOL    HW233799   2.489   1.566   0.138  0.0942 -0.3567 -0.0854
11034SOL     OW33800   4.920   0.183   0.941 -0.5518 -0.5532  0.0431
11034SOL    HW133801   4.903   0.159   1.032 -1.4027 -1.8683 -0.4289
11034SOL    HW233802   4.930   0.099   0.896 -0.9380  0.0581 -1.2117
11035SOL     OW33803   1.561   6.033   1.321  0.6453 -0.2320  0.2721
11035SOL    HW133804   1.573   6.020   1.227  1.1081  0.5764  0.2063
11035SOL    HW233805   1.606   6.116   1.339  1.6754 -0.9989  1.4308
11036SOL     OW33806   1.735   1.156   5.352 -0.2894  0.1099  0.0798
11036SOL    HW133807   1.800   1.211   5.396  0.5942 -0.6476 -0.2323
11036SOL    HW233808   1.658   1.160   5.407  1.0026 -1.4058  2.1800
11037SOL     OW33809   1.405   3.805   3.155 -0.4161 -0.1286 -0.4172
11037SOL    HW133810   1.383   3.713   3.167 -0.9569 -0.0955 -1.0696
11037SOL    HW233811   1.488   3.804   3.107 -0.4496 -0.2750 -0.4718
11038SOL     OW33812   2.747   4.001   6.705  0.1961 -0.5033  0.5177
11038SOL    HW133813   2.661   4.016   6.744 -0.0764  0.0513 -0.2903
11038SOL    HW233814   2.746   3.909   6.679 -1.5272  0.3178 -2.7530
11039SOL     OW33815   7.275   5.563   5.039 -0.2574 -0.4576  0.4245
11039SOL    HW133816   7.326   5.503   5.094  1.7145 -2.0603 -2.8751
11039SOL    HW233817   7.341   5.617   4.995 -1.7121  0.5666 -0.5811
11040SOL     OW33818   1.669   7.837   1.418  0.0488  0.0862 -0.7934
11040SOL    HW133819   1.670   7.806   1.327  0.4757  1.1958 -1.1830
11040SOL    HW233820   1.758   7.823   1.449  0.4456  1.5243 -1.2063
11041SOL     OW33821   1.856   6.578   2.572 -0.7071 -0.0266  0.2976
11041SOL    HW133822   1.872   6.673   2.572 -0.6036  0.1318 -3.8513
11041SOL    HW233823   1.761   6.571   2.563 -0.6284 -0.2595 -0.3905
11042SOL     OW33824   4.970   3.436   3.576  0.5664  0.0707 -0.3667
11042SOL    HW133825   4.997   3.513   3.526  0.5863  0.3795  0.1157
11042SOL    HW233826   4.989   3.458   3.667  1.6579 -0.9539 -0.3147
11043SOL     OW33827   6.656   0.461   5.780 -0.9688  0.1137  0.2370
11043SOL    HW133828   6.703   0.410   5.714 -2.9724 -2.3347  0.5556
11043SOL    HW233829   6.659   0.407   5.859 -2.8241  0.6579  0.7239
11044SOL     OW33830   6.436   4.153   2.305 -0.1460  0.1020  0.2482
11044SOL    HW133831   6.491   4.207   2.360 -0.2613  0.2032  0.2640
11044SOL    HW233832   6.377   4.214   2.261  0.6444  0.1246 -0.7958
11045SOL     OW33833   5.451   3.226   1.802 -0.1024 -0.1512 -0.5925
11045SOL    HW133834   5.379   3.169   1.779 -0.1615 -0.0385 -0.6890
11045SOL    HW233835   5.525   3.167   1.819 -0.2499 -0.2729 -0.3720
11046SOL     OW33836   7.711   2.541   2.932 -0.0846 -0.0642 -0.1265
11046SOL    HW133837   7.742   2.548   2.841  1.1177  0.6105  0.3178
11046SOL    HW233838   7.748   2.617   2.976 -1.6774  0.2878  0.6634
11047SOL     OW33839   2.651   6.209   6.133  0.1246  0.4807 -0.2983
11047SOL    HW133840   2.629   6.281   6.074 -0.4519  0.0021 -0.6925
11047SOL    HW233841   2.694   6.144   6.077  0.8755  0.6212  0.1042
11048SOL     OW33842   3.530   1.322   7.709 -0.0412 -0.0546 -0.1914
11048SOL    HW133843   3.560   1.407   7.741 -0.1052  0.0772 -0.4813
11048SOL    HW233844   3.608   1.267   7.713 -0.5523 -0.7272  2.4498
11049SOL     OW33845   3.949   7.919   5.672 -0.0275 -0.1129  0.4041
11049SOL    HW133846   3.960   7.849   5.607  0.5793  1.2444 -0.9979
11049SOL    HW233847   3.864   7.900   5.713 -1.3757  0.0362 -2.1259
11050SOL     OW33848   1.601   3.799   2.094 -0.3099 -0.6637 -0.0446
11050SOL    HW133849   1.610   3.883   2.049  1.2656 -0.0074  1.3966
11050SOL    HW233850   1.541   3.748   2.038  2.1112 -0.2183 -3.3448
11051SOL     OW33851   7.444   3.474   3.480 -0.5335 -0.4081  0.3666
11051SOL    HW133852   7.442   3.437   3.568 -1.0367 -0.1743  0.4627
11051SOL    HW233853   7.368   3.533   3.478 -1.0812 -1.1271 -0.5349
11052SOL     OW33854   7.006   0.100   6.755  0.1721 -0.1282 -0.2764
11052SOL    HW133855   7.015   0.047   6.677 -0.1602  1.0962 -1.1780
11052SOL    HW233856   6.929   0.065   6.800  0.1761 -0.6308 -0.6603
11053SOL     OW33857   4.817   7.805   1.299 -0.6113 -0.1771  0.4499
11053SOL    HW133858   4.747   7.812   1.363 -0.7609 -0.7261  0.3502
11053SOL    HW233859   4.813   7.714   1.269  0.0626 -0.1802  0.3551
11054SOL     OW33860   4.209   0.941   6.449 -0.1071 -0.4445 -0.5888
11054SOL    HW133861   4.163   0.858   6.439 -0.3934 -0.5778  1.4121
11054SOL    HW233862   4.198   0.985   6.364  0.7553 -2.7491 -1.9723
11055SOL     OW33863   6.226   1.482   4.790  0.0698  0.2378 -0.4450
11055SOL    HW133864   6.283   1.558   4.777  0.7611 -0.4116 -1.2532
11055SOL    HW233865   6.251   1.447   4.875  0.5588  0.2233 -0.5949
11056SOL     OW33866   7.649   4.137   0.645  0.4279 -0.2963  0.3387
11056SOL    HW133867   7.598   4.116   0.723 -4.0194  2.0185 -1.5083
11056SOL    HW233868   7.704   4.211   0.671 -1.0576  0.5154  1.3527
11057SOL     OW33869   7.665   1.389   3.506 -0.2409 -0.4409 -0.7460
11057SOL    HW133870   7.690   1.393   3.414  0.3155 -0.9850 -0.6265
11057SOL    HW233871   7.640   1.479   3.528  0.2563 -0.1681 -1.2539
11058SOL     OW33872   6.337   4.488   4.943 -0.3564 -0.4335  0.6314
11058SOL    HW133873   6.426   4.463   4.968 -0.2023 -1.6714 -0.9993
11058SOL    HW233874   6.285   4.410   4.958 -0.9793 -0.0069  0.6962
11059SOL     OW33875   6.455   1.304   0.589 -0.0702 -0.3699 -0.1040
11059SOL    HW133876   6.378   1.257   0.556 -1.0358  0.5001  0.8306
11059SOL    HW233877   6.419   1.366   0.652  1.4304 -0.0409  0.4526
11060SOL     OW33878   5.221   1.294   7.454 -0.1515 -0.5688 -0.1615
11060SOL    HW133879   5.298   1.293   7.510  0.1637  0.2240 -0.5548
11060SOL    HW233880   5.248   1.247   7.375 -0.1019 -0.3836 -0.2557
11061SOL     OW33881   2.838   0.848   2.724  0.2069  0.3899  0.4317
11061SOL    HW133882   2.915   0.833   2.669 -0.7726 -1.8439 -0.4749
11061SOL    HW233883   2.871   0.900   2.798  2.2681  0.6569 -0.5954
11062SOL     OW33884   3.450   5.693   1.956  0.0097 -0.4872  0.3674
11062SOL    HW133885   3.454   5.646   2.039 -1.7644 -0.5814  0.4371
11062SOL    HW233886   3.429   5.625   1.891  1.5706 -0.4496 -0.2233
11063SOL     OW33887   1.364   6.751   5.610 -0.5667  0.2837  0.2568
11063SOL    HW133888   1.453   6.739   5.577 -0.3283  0.1674  0.9260
11063SOL    HW233889   1.363   6.839   5.645 -0.7111  0.2743  0.2763
11064SOL     OW33890   7.721   5.559   1.299  0.0944 -0.4827 -0.2515
11064SOL    HW133891   7.749   5.643   1.336  0.8145  0.6467 -3.0751
11064SOL    HW233892   7.789   5.497   1.326 -0.8881 -0.4476  2.5853
11065SOL     OW33893   4.659   5.226   2.110  0.0029  0.7902 -0.0092
11065SOL    HW133894   4.729   5.254   2.051  1.3933  0.5499  1.4713
11065SOL    HW233895   4.673   5.277   2.190  0.0687 -1.1267  1.2582
11066SOL     OW33896   7.924   3.523   7.751  0.2059  0.0567 -0.0742
11066SOL    HW133897   7.890   3.606   7.718 -0.3154 -1.0575 -2.5679
11066SOL    HW233898   8.004   3.507   7.701  0.5300 -0.7466  0.6692
11067SOL     OW33899   3.770   4.224   6.908 -0.3056 -0.1642 -0.5910
11067SOL    HW133900   3.691   4.252   6.954 -0.8360  1.3151 -2.2510
11067SOL    HW233901   3.830   4.198   6.977 -1.5213  0.6499  0.8409
11068SOL     OW33902   2.554   4.759   1.059  0.4631 -0.3354 -0.2121
11068SOL    HW133903   2.546   4.711   0.977  0.6338  2.5011 -2.0192
11068SOL    HW233904   2.464   4.765   1.092 -0.2640  1.7868 -2.3131
11069SOL     OW33905   4.181   2.194   2.474 -0.0946  0.4585 -0.3026
11069SOL    HW133906   4.183   2.155   2.387 -1.1824 -0.0791 -0.1008
11069SOL    HW233907   4.098   2.241   2.478  0.6819  1.8957 -0.1339
11070SOL     OW33908   4.604   0.700   6.109  0.2790 -0.1032 -0.1831
11070SOL    HW133909   4.525   0.668   6.153  0.1366 -0.7278 -0.8511
11070SOL    HW233910   4.627   0.629   6.049  2.0438 -0.4484  0.8305
11071SOL     OW33911   5.536   5.950   4.346  0.2226 -0.0996 -0.5057
11071SOL    HW133912   5.520   5.909   4.261  2.4411 -2.2015 -0.0286
11071SOL    HW233913   5.631   5.946   4.357  0.0043  0.0382  2.0934
11072SOL     OW33914   4.660   4.432   6.045  0.0754  0.1038  0.0771
11072SOL    HW133915   4.645   4.447   5.952  2.3922  1.6243 -0.1403
11072SOL    HW233916   4.696   4.344   6.050 -1.3787 -0.5303 -0.2653
11073SOL     OW33917   6.937   0.291   1.701 -0.2968  0.0996 -0.4121
11073SOL    HW133918   6.990   0.359   1.743 -1.0145 -0.3795  1.3532
11073SOL    HW233919   6.925   0.224   1.769 -1.1115 -0.9480 -1.5441
11074SOL     OW33920   1.315   1.059   0.894 -0.4397 -0.0810 -0.1931
11074SOL    HW133921   1.276   1.102   0.818 -0.1557  0.2654 -0.1484
11074SOL    HW233922   1.251   1.072   0.964 -1.1262 -1.2085 -0.5970
11075SOL     OW33923   1.683   5.509   1.718 -0.0144 -0.2186 -0.1052
11075SOL    HW133924   1.739   5.583   1.692  1.6026 -1.4177 -0.1816
11075SOL    HW233925   1.642   5.538   1.800 -0.5522  1.3117 -0.8810
11076SOL     OW33926   4.375   0.138   7.268  0.2218  0.0897 -0.0536
11076SOL    HW133927   4.288   0.104   7.289  0.2631  0.6669  1.1023
11076SOL    HW233928   4.429   0.059   7.255 -0.0968 -0.2899  0.8497
11077SOL     OW33929   2.186   7.724   5.038 -0.2695  0.5391  0.4735
11077SOL    HW133930   2.221   7.675   4.964 -2.8659  1.3960 -1.4938
11077SOL    HW233931   2.193   7.816   5.011 -2.7888  0.8052  0.3974
11078SOL     OW33932   1.237   2.208   7.654  0.1079  0.2084  0.6737
11078SOL    HW133933   1.276   2.136   7.605  1.9098 -0.1652  2.5099
11078SOL    HW233934   1.145   2.185   7.663  0.6080 -1.8048  1.0624
11079SOL     OW33935   4.482   3.961   7.957 -0.0522 -0.0593  0.0980
11079SOL    HW133936   4.567   3.942   7.918  0.4020 -3.1978  2.2630
11079SOL    HW233937   4.431   3.881   7.944 -2.8799  1.8055 -1.3496
11080SOL     OW33938   1.230   4.218   3.228  0.3822  0.5212 -0.3616
11080SOL    HW133939   1.319   4.187   3.247  0.6386  0.1695 -1.9410
11080SOL    HW233940   1.235   4.248   3.137 -1.1582  0.3179 -0.5339
11081SOL     OW33941   2.731   0.072   3.604  0.6672 -0.6565  0.3384
11081SOL    HW133942   2.673   0.008   3.563  1.1055 -1.0508  0.3273
11081SOL    HW233943   2.737   0.043   3.695  0.2589 -0.1891  0.5190
11082SOL     OW33944   2.177   0.293   3.193 -0.4295  0.5930 -0.2090
11082SOL    HW133945   2.212   0.235   3.260 -0.4922  1.3600  0.4914
11082SOL    HW233946   2.157   0.234   3.119  0.2545 -0.1573  0.1865
11083SOL     OW33947   3.169   2.056   3.530  0.0785  0.1533 -0.0372
11083SOL    HW133948   3.195   1.966   3.509  1.2866  0.5652 -0.3810
11083SOL    HW233949   3.240   2.110   3.495  0.2719  1.1284  1.7304
11084SOL     OW33950   4.281   4.778   6.574  0.3343 -0.0956  0.2400
11084SOL    HW133951   4.250   4.695   6.537  0.2022  0.6971 -1.5126
11084SOL    HW233952   4.275   4.841   6.502  1.0726  1.2993  1.3344
11085SOL     OW33953   1.110   5.803   5.292 -0.1385 -0.0977 -0.4171
11085SOL    HW133954   1.114   5.728   5.232 -0.0437 -0.7045  0.3369
11085SOL    HW233955   1.017   5.822   5.301 -0.4284 -2.1550  1.8318
11086SOL     OW33956   4.057   3.045   3.832  0.1675  0.2239  0.5345
11086SOL    HW133957   3.999   3.036   3.907 -0.4118  1.0899  0.2034
11086SOL    HW233958   4.106   2.963   3.829 -1.9909 -1.1142 -0.0076
11087SOL     OW33959   1.530   0.172   1.713 -0.0632  0.1248  0.2767
11087SOL    HW133960   1.581   0.163   1.633  0.0858 -0.1175  0.3988
11087SOL    HW233961   1.595   0.191   1.781 -0.0089 -1.2055  0.6251
11088SOL     OW33962   0.081   0.460   5.414  0.1415  0.2418 -0.0850
11088SOL    HW133963   0.014   0.528   5.410  0.2961  0.4973  1.2056
11088SOL    HW233964   0.159   0.506   5.445  0.5988 -0.2821 -0.4474
11089SOL     OW33965   2.357   4.050   4.376  0.0975  0.1999  0.0421
11089SOL    HW133966   2.287   4.083   4.320  0.9161  2.2099  0.1126
11089SOL    HW233967   2.434   4.049   4.319  0.5405  0.4996  0.6272
11090SOL     OW33968   7.095   1.385   7.461  0.3678 -0.2512  0.2256
11090SOL    HW133969   7.040   1.346   7.394  1.9479 -0.6072 -0.9331
11090SOL    HW233970   7.152   1.314   7.490  1.6784  0.5830 -0.2009
11091SOL     OW33971   2.117   4.305   5.601  0.3220 -0.1205 -0.0777
11091SOL    HW133972   2.091   4.278   5.513  0.3698  0.9742 -0.4530
11091SOL    HW233973   2.081   4.394   5.609  0.7372 -0.0308  0.8197
11092SOL     OW33974   3.834   3.989   1.466  0.1517 -0.1645 -0.3938
11092SOL    HW133975   3.914   3.969   1.417 -0.0508 -0.6840 -0.5211
11092SOL    HW233976   3.858   4.061   1.524  0.9661 -0.8992  0.2081
11093SOL     OW33977   2.763   2.329   4.222  0.0996  0.2731 -0.8274
11093SOL    HW133978   2.832   2.371   4.171  1.9881 -0.6120  0.8834
11093SOL    HW233979   2.705   2.400   4.248  1.4424  1.3334 -0.6716
11094SOL     OW33980   4.749   3.948   3.246 -0.3591 -0.5509 -0.4288
11094SOL    HW133981   4.662   3.920   3.218 -0.8931 -0.4365  1.0459
11094SOL    HW233982   4.809   3.886   3.205 -0.8782  0.7620 -3.4359
11095SOL     OW33983   2.589   1.633   4.789  0.2241 -0.5748 -0.1892
11095SOL    HW133984   2.549   1.704   4.840 -0.2271 -0.2685 -0.9508
11095SOL    HW233985   2.674   1.669   4.761  0.8077 -1.0208  0.9619
11096SOL     OW33986   6.456   1.157   1.983 -0.0090  0.0254 -0.0293
11096SOL    HW133987   6.473   1.127   2.073  0.5775  1.6425  0.4354
11096SOL    HW233988   6.540   1.146   1.939 -0.5514 -1.7387 -0.7227
11097SOL     OW33989   0.405   2.762   6.956 -0.1556  0.2715 -0.3118
11097SOL    HW133990   0.418   2.669   6.935 -0.3736 -0.1786  1.3802
11097SOL    HW233991   0.314   2.767   6.985 -0.8012  1.4471 -2.2998
11098SOL     OW33992   2.200   1.618   5.807  0.0753  0.6218  0.0000
11098SOL    HW133993   2.172   1.590   5.720  0.0091 -2.6422  0.9108
11098SOL    HW233994   2.125   1.664   5.843 -0.9996 -0.5639 -0.6483
11099SOL     OW33995   1.193   4.410   7.811  0.0466 -0.6029 -0.3312
11099SOL    HW133996   1.138   4.374   7.880  1.8554  2.1097  2.7632
11099SOL    HW233997   1.131   4.454   7.752 -1.3873  1.8476  2.6866
11100SOL     OW33998   7.721   3.877   4.765  0.0685 -0.0566 -0.0605
11100SOL    HW133999   7.780   3.952   4.758 -2.0133  1.6903 -0.0838
11100SOL    HW234000   7.689   3.864   4.676  2.3023 -2.7283 -0.5922
11101SOL     OW34001   7.564   7.214   2.799  0.2183 -0.3163  0.6873
11101SOL    HW134002   7.604   7.230   2.885  0.6521  1.3381  0.2022
11101SOL    HW234003   7.510   7.292   2.783  0.7710 -0.2372 -0.8917
11102SOL     OW34004   4.666   7.322   0.465  0.6205  0.2501  0.1598
11102SOL    HW134005   4.758   7.342   0.449  0.6227 -0.5080 -0.8691
11102SOL    HW234006   4.619   7.377   0.401  0.4052  0.0048  0.1076
11103SOL     OW34007   4.439   6.298   5.946 -0.5923 -0.2005 -0.0572
11103SOL    HW134008   4.483   6.213   5.938 -1.4477 -0.6016 -0.8108
11103SOL    HW234009   4.376   6.285   6.017  0.1075  0.1991  0.6494
11104SOL     OW34010   6.489   5.463   1.247 -0.0487  0.1656 -0.0376
11104SOL    HW134011   6.502   5.439   1.338 -2.2050 -2.9625 -0.4120
11104SOL    HW234012   6.396   5.445   1.230  0.2442  0.8060 -2.8140
11105SOL     OW34013   1.666   5.971   6.752  0.5961 -1.0341 -0.4908
11105SOL    HW134014   1.613   5.903   6.793  0.2958 -0.7749 -0.4519
11105SOL    HW234015   1.736   5.922   6.707  0.7044 -1.3353  0.0009
11106SOL     OW34016   5.654   5.700   7.171  0.4893 -0.0278 -0.2171
11106SOL    HW134017   5.575   5.648   7.182  0.3092  0.1644 -0.5745
11106SOL    HW234018   5.625   5.790   7.182  0.8922 -0.0203  0.9150
11107SOL     OW34019   7.340   3.267   3.373  0.3815  0.1043 -0.3611
11107SOL    HW134020   7.334   3.196   3.437  0.2046 -0.6162 -1.1631
11107SOL    HW234021   7.398   3.331   3.414 -1.2238  0.5511  1.3481
11108SOL     OW34022   6.000   6.267   7.321 -0.3677  0.1012  0.4183
11108SOL    HW134023   6.054   6.216   7.382 -2.2005 -1.3434  0.9298
11108SOL    HW234024   5.936   6.310   7.377 -0.8779  0.3133 -0.3219
11109SOL     OW34025   3.212   3.866   0.098 -0.3429 -0.0858  1.0141
11109SOL    HW134026   3.284   3.904   0.149  0.4871 -0.9089  0.4754
11109SOL    HW234027   3.135   3.878   0.154  0.3951 -0.1891  2.0938
11110SOL     OW34028   2.561   0.337   3.486  0.3196 -0.1430  0.1840
11110SOL    HW134029   2.488   0.302   3.538  0.0026 -0.0537 -0.1905
11110SOL    HW234030   2.629   0.357   3.550  0.5353 -1.5110  0.4065
11111SOL     OW34031   3.738   2.254   2.037  0.3344  0.3649  0.2472
11111SOL    HW134032   3.788   2.319   2.086  1.3818  1.0698 -1.6492
11111SOL    HW234033   3.797   2.178   2.029  0.2466  0.3228 -0.0411
11112SOL     OW34034   0.023   2.404   7.337  0.3879 -0.0269 -0.1219
11112SOL    HW134035  -0.062   2.376   7.302  0.1601  1.0967 -0.5173
11112SOL    HW234036   0.078   2.416   7.260  0.6453  0.0744  0.0781
11113SOL     OW34037   4.913   2.894   4.714 -0.1587  0.0749 -0.5962
11113SOL    HW134038   4.918   2.987   4.694  2.0200  1.0548  3.3999
11113SOL    HW234039   4.830   2.883   4.760  0.7202  0.6971  1.2179
11114SOL     OW34040   1.648   0.288   7.975  0.1381  0.0078 -0.0806
11114SOL    HW134041   1.740   0.288   7.951 -0.1785  0.2448 -1.3305
11114SOL    HW234042   1.624   0.380   7.980  0.2898 -0.0038  1.6379
11115SOL     OW34043   6.679   3.452   4.810 -0.5942 -0.1664  0.1214
11115SOL    HW134044   6.717   3.376   4.766 -1.5259 -0.8626  0.5009
11115SOL    HW234045   6.690   3.434   4.903  1.2518  1.2443  0.2412
11116SOL     OW34046   1.191   5.850   2.970  0.1181  0.5788  0.4373
11116SOL    HW134047   1.185   5.945   2.979  0.4615  1.0939 -3.0668
11116SOL    HW234048   1.283   5.835   2.948  0.4678 -0.8474  2.6083
11117SOL     OW34049   6.127   0.066   7.924  0.5765  0.4309 -0.1178
11117SOL    HW134050   6.220   0.088   7.918  0.4163  1.2144  0.1107
11117SOL    HW234051   6.116  -0.009   7.865  1.1911  0.8663 -0.8112
11118SOL     OW34052   3.838   4.305   7.271  0.0838 -0.1566 -0.4855
11118SOL    HW134053   3.752   4.283   7.234  0.3642 -1.6371 -0.3162
11118SOL    HW234054   3.876   4.220   7.295  0.8941  0.5954  1.0144
11119SOL     OW34055   5.456   6.229   5.225  0.1562  0.0886 -0.4348
11119SOL    HW134056   5.490   6.252   5.138 -2.1126 -0.8842 -1.6828
11119SOL    HW234057   5.461   6.133   5.228  0.4240  0.1227  0.6304
11120SOL     OW34058   1.200   5.574   6.420 -0.3584 -0.4428  0.6798
11120SOL    HW134059   1.255   5.514   6.470 -0.5137 -1.4677 -0.3448
11120SOL    HW234060   1.110   5.550   6.443 -0.4224 -0.6666  0.1998
11121SOL     OW34061   3.703   7.133   7.575  0.5892 -0.1069  0.7041
11121SOL    HW134062   3.736   7.069   7.638 -0.5479 -0.3861  1.0396
11121SOL    HW234063   3.614   7.153   7.605 -0.8785 -1.9502 -2.0246
11122SOL     OW34064   1.399   6.922   6.803 -0.6384 -0.3144  0.2627
11122SOL    HW134065   1.448   6.950   6.880  0.1226  1.1687 -0.7256
11122SOL    HW234066   1.463   6.873   6.751 -0.2952  1.2000 -0.7928
11123SOL     OW34067   0.035   6.183   6.174 -0.0073 -0.1694 -0.1179
11123SOL    HW134068   0.025   6.133   6.093  0.8937 -0.4880 -0.0501
11123SOL    HW234069   0.015   6.273   6.150 -2.9769 -0.6776  0.0359
11124SOL     OW34070   6.430   7.296   2.568  0.0829  0.1138  0.8790
11124SOL    HW134071   6.461   7.286   2.477 -0.7995  2.2682  0.2797
11124SOL    HW234072   6.424   7.390   2.580 -3.0941 -0.1417  2.0305
11125SOL     OW34073   5.587   2.139   1.699  0.5059 -0.6142 -0.0883
11125SOL    HW134074   5.589   2.044   1.688 -0.3907 -0.5755 -0.7009
11125SOL    HW234075   5.605   2.153   1.792  2.2450 -1.2880 -0.2812
11126SOL     OW34076   3.769   2.427   6.274  0.2654 -0.1656 -0.9632
11126SOL    HW134077   3.736   2.487   6.341 -0.0175 -0.1568 -1.1121
11126SOL    HW234078   3.789   2.347   6.323 -0.1090 -0.2204 -0.8944
11127SOL     OW34079   2.769   7.901   0.188 -0.3531  0.6134 -0.5676
11127SOL    HW134080   2.697   7.882   0.248 -0.1213  0.5088 -0.3180
11127SOL    HW234081   2.768   7.830   0.125  0.0974  0.1215 -0.0278
11128SOL     OW34082   3.863   2.956   2.322  0.0716  0.6882 -0.1365
11128SOL    HW134083   3.827   2.996   2.401  0.3943 -0.2986  0.5267
11128SOL    HW234084   3.793   2.964   2.257 -0.3299  1.1915  0.3515
11129SOL     OW34085   2.493   5.284   7.928 -0.2662  0.5865 -0.0175
11129SOL    HW134086   2.511   5.363   7.978 -1.9537  1.0875 -0.1419
11129SOL    HW234087   2.423   5.309   7.868 -1.5411 -1.2237  0.6138
11130SOL     OW34088   5.137   0.511   2.042 -0.3236  0.6880 -0.3541
11130SOL    HW134089   5.075   0.454   2.088  0.0390  0.5361 -0.0497
11130SOL    HW234090   5.083   0.583   2.009 -1.0348 -0.5107 -1.9186
11131SOL     OW34091   4.119   4.192   6.000 -0.1243 -0.3509 -0.6346
11131SOL    HW134092   4.089   4.104   5.977  0.9336 -0.5621 -1.2380
11131SOL    HW234093   4.055   4.250   5.957  1.0736 -0.7603 -3.1575
11132SOL     OW34094   5.108   3.463   1.907 -0.3076  0.3783  0.3108
11132SOL    HW134095   5.200   3.483   1.890  0.2855 -0.7802  1.9574
11132SOL    HW234096   5.098   3.371   1.885 -0.9837  0.3832  0.5591
11133SOL     OW34097   4.667   0.344   7.640  0.8394 -0.6738 -0.3954
11133SOL    HW134098   4.601   0.276   7.654  2.6049 -2.3156  0.4420
11133SOL    HW234099   4.687   0.339   7.547  0.2210 -0.5727 -0.5385
11134SOL     OW34100   6.143   4.920   6.939  0.3726 -0.1821  0.5492
11134SOL    HW134101   6.132   4.988   6.872 -2.1876 -0.9784  0.0348
11134SOL    HW234102   6.215   4.951   6.994  0.6981  1.8661 -0.9196
11135SOL     OW34103   2.978   1.829   6.095 -0.7559  0.1593 -0.2516
11135SOL    HW134104   2.936   1.846   6.011  0.2411 -1.6623 -1.1884
11135SOL    HW234105   3.067   1.801   6.072 -0.6128 -0.8569  1.3760
11136SOL     OW34106   2.641   1.081   3.491 -0.5391  0.0998 -0.2416
11136SOL    HW134107   2.642   1.110   3.582 -2.3721  1.3594 -0.5762
11136SOL    HW234108   2.617   0.988   3.496  2.0460 -0.6074  0.6438
11137SOL     OW34109   0.304   6.598   4.533 -0.8785 -1.0244 -0.2106
11137SOL    HW134110   0.261   6.668   4.484 -0.0716 -1.1641 -1.1684
11137SOL    HW234111   0.349   6.547   4.466  2.4372  0.2600  0.8438
11138SOL     OW34112   6.373   6.077   4.715  0.3145  0.3046  0.1742
11138SOL    HW134113   6.374   6.124   4.631  0.0645  0.8156  0.4535
11138SOL    HW234114   6.292   6.026   4.711  0.3654  0.2307  0.0544
11139SOL     OW34115   4.224   5.173   4.875  0.4885 -0.0836  0.3682
11139SOL    HW134116   4.176   5.090   4.866  2.1488 -1.1492  0.8731
11139SOL    HW234117   4.281   5.176   4.799  1.6239 -0.2330  1.1969
11140SOL     OW34118   6.603   5.146   5.777  0.0230  0.3435 -0.2116
11140SOL    HW134119   6.554   5.142   5.859 -0.2922 -0.2074 -0.4182
11140SOL    HW234120   6.673   5.209   5.793  0.2385 -0.1033  0.6306
11141SOL     OW34121   2.258   3.786   0.285 -0.0262  0.1761 -0.2097
11141SOL    HW134122   2.315   3.757   0.356  0.0494  0.5359 -0.1211
11141SOL    HW234123   2.317   3.828   0.222 -0.0744 -0.2510 -0.5519
11142SOL     OW34124   7.044   7.488   1.165 -0.4249 -0.4295 -0.3248
11142SOL    HW134125   7.123   7.477   1.218 -0.3051  2.1835  0.1829
11142SOL    HW234126   7.063   7.441   1.084  0.9047 -1.3631  0.4796
11143SOL     OW34127   3.813   2.412   3.228  0.0143  0.1854  0.8962
11143SOL    HW134128   3.904   2.394   3.251  0.2924 -0.4659 -0.6114
11143SOL    HW234129   3.793   2.493   3.274  2.8604  3.0174 -2.3180
11144SOL     OW34130   7.427   7.485   3.781 -0.6788  0.7112 -0.0504
11144SOL    HW134131   7.459   7.435   3.855 -0.9589 -0.5092 -0.7251
11144SOL    HW234132   7.355   7.432   3.745 -1.2710  1.8040 -0.5285
11145SOL     OW34133   0.427   4.614   2.308  0.1375  0.1405 -0.4817
11145SOL    HW134134   0.417   4.542   2.246  1.3954  0.1429 -0.7109
11145SOL    HW234135   0.381   4.687   2.266  0.0413 -0.1482 -0.8915
11146SOL     OW34136   5.682   5.899   3.457  0.8995 -0.0098 -0.0266
11146SOL    HW134137   5.712   5.843   3.528  1.7681  1.1309  0.5414
11146SOL    HW234138   5.698   5.989   3.488 -0.1114  0.5526 -1.0480
11147SOL     OW34139   4.049   7.345   2.889  0.3626  0.5426  0.1366
11147SOL    HW134140   4.001   7.323   2.809 -2.4054  1.6680  1.3718
11147SOL    HW234141   3.985   7.334   2.960  1.4433  3.5925  1.7737
11148SOL     OW34142   7.802   6.921   3.099  0.3514 -0.3169 -0.6615
11148SOL    HW134143   7.862   6.990   3.126  2.0165 -1.3944 -1.4602
11148SOL    HW234144   7.746   6.905   3.175 -0.3302  2.1222 -0.5881
11149SOL     OW34145   0.241   2.981   7.206  0.4865 -0.4547  0.2964
11149SOL    HW134146   0.329   2.964   7.240  0.0616  1.9128  2.8420
11149SOL    HW234147   0.182   2.963   7.280 -0.8710  1.0691 -0.3591
11150SOL     OW34148   5.334   5.036   4.036  0.6673 -0.1936 -0.5120
11150SOL    HW134149   5.385   4.988   4.101  0.4359 -0.2042 -0.3339
11150SOL    HW234150   5.320   5.122   4.075 -1.5960 -0.9658  0.6043
11151SOL     OW34151   5.326   4.972   3.330 -0.2903 -0.0869  0.6753
11151SOL    HW134152   5.268   4.990   3.256  0.9423 -0.4352 -0.4091
11151SOL    HW234153   5.317   5.049   3.386 -0.2723  0.7955 -0.4840
11152SOL     OW34154   1.876   4.903   2.114 -0.3157 -0.0284 -0.6464
11152SOL    HW134155   1.787   4.937   2.110 -0.5206 -0.4260  0.1665
11152SOL    HW234156   1.870   4.828   2.174  1.0164  1.4560  1.4647
11153SOL     OW34157   0.618   5.440   4.042 -0.1425 -0.1000 -0.2231
11153SOL    HW134158   0.586   5.406   4.125  1.0712 -0.7145  0.0152
11153SOL    HW234159   0.576   5.385   3.976  0.8879 -1.3504  0.1141
11154SOL     OW34160   1.023   2.172   3.919 -0.5008  0.4575 -0.3757
11154SOL    HW134161   1.055   2.129   3.840  1.2274  1.2919 -0.1936
11154SOL    HW234162   1.030   2.105   3.987  1.1302  0.6617 -0.3053
11155SOL     OW34163   0.224   3.518   6.014 -0.1662 -0.1023  0.1064
11155SOL    HW134164   0.319   3.533   6.016 -0.0411 -0.9166  0.8062
11155SOL    HW234165   0.204   3.481   6.100 -0.8994 -1.1614 -0.4999
11156SOL     OW34166   1.656   1.397   5.570  0.0500  0.3886  0.1385
11156SOL    HW134167   1.594   1.363   5.635  0.3679  0.7133  0.6196
11156SOL    HW234168   1.713   1.456   5.620 -0.9873  2.2834 -0.8258
11157SOL     OW34169   1.939   7.141   5.205  0.6177 -0.6999  0.7515
11157SOL    HW134170   1.845   7.153   5.222  0.3162  0.3527 -1.3995
11157SOL    HW234171   1.963   7.066   5.260 -0.7825  0.7624  3.5668
11158SOL     OW34172   7.951   5.876   5.701  0.4357  0.3903 -0.2400
11158SOL    HW134173   7.910   5.792   5.677  0.2626  0.1048  0.9784
11158SOL    HW234174   7.975   5.916   5.618  1.7202 -1.4627 -0.8106
11159SOL     OW34175   1.262   2.856   3.743  0.0185  0.4837  0.1031
11159SOL    HW134176   1.280   2.780   3.799 -1.1715 -1.0296 -1.4801
11159SOL    HW234177   1.240   2.926   3.804  1.7650 -0.2093  1.6432
11160SOL     OW34178   4.118   7.080   4.194  0.1547 -0.3606  0.3384
11160SOL    HW134179   4.147   7.014   4.258 -0.3472 -0.6738  0.2510
11160SOL    HW234180   4.069   7.143   4.245  1.8938  0.7983  0.6856
11161SOL     OW34181   4.785   7.288   7.783  0.1174 -0.8426  0.1935
11161SOL    HW134182   4.844   7.213   7.781  0.7115 -0.3902  0.3319
11161SOL    HW234183   4.761   7.303   7.692 -1.8039 -2.5686  0.3546
11162SOL     OW34184   7.541   3.778   2.014  0.1529  0.4893 -0.0542
11162SOL    HW134185   7.582   3.779   2.101  1.6306 -1.2242 -0.6528
11162SOL    HW234186   7.478   3.706   2.018 -0.6126  1.1523 -0.0643
11163SOL     OW34187   2.920   2.355   3.204  0.2396 -0.1193  0.3146
11163SOL    HW134188   2.858   2.392   3.267  0.2595  0.5004 -0.0214
11163SOL    HW234189   2.899   2.262   3.202 -0.8791  0.1287 -0.0202
11164SOL     OW34190   7.065   2.486   5.738  0.5337  0.0643  0.7832
11164SOL    HW134191   7.156   2.486   5.709  0.4231 -0.5477  0.4142
11164SOL    HW234192   7.033   2.398   5.717 -0.4630  0.6135 -0.1246
11165SOL     OW34193   4.357   7.317   4.201 -0.0880  0.1919 -0.9923
11165SOL    HW134194   4.424   7.255   4.230  0.4279  1.1855  0.0134
11165SOL    HW234195   4.351   7.303   4.106  0.6283 -0.7829 -0.9119
11166SOL     OW34196   1.812   7.902   5.765 -0.2347 -0.3939  0.0973
11166SOL    HW134197   1.892   7.932   5.721 -0.5652 -0.8798 -0.8515
11166SOL    HW234198   1.844   7.849   5.838  0.3397  1.2438  1.1013
11167SOL     OW34199   6.897   3.582   1.621  0.1882  0.0411  0.0886
11167SOL    HW134200   6.939   3.593   1.707  1.5656 -2.1673 -0.2441
11167SOL    HW234201   6.804   3.600   1.638  0.4607 -0.1301  2.0059
11168SOL     OW34202   5.952   6.165   4.459 -0.1238 -0.1265 -0.2525
11168SOL    HW134203   5.911   6.100   4.400 -0.1469  0.0677 -0.4517
11168SOL    HW234204   5.882   6.191   4.518 -0.6667  1.1560 -1.3951
11169SOL     OW34205   7.139   0.076   0.886 -0.1964  0.4795  0.5734
11169SOL    HW134206   7.166   0.166   0.903 -0.0909  0.9479 -1.8096
11169SOL    HW234207   7.086   0.081   0.807  0.5100 -1.6565 -0.1047
11170SOL     OW34208   2.092   3.791   7.128 -0.0485  0.4575 -0.8828
11170SOL    HW134209   2.170   3.843   7.147  1.5395 -2.2988  0.8166
11170SOL    HW234210   2.126   3.713   7.084 -1.7585 -0.9618  0.1946
11171SOL     OW34211   0.841   3.810   5.872  0.2041 -0.5144  0.0148
11171SOL    HW134212   0.791   3.887   5.899 -2.1257 -1.4577 -1.3340
11171SOL    HW234213   0.923   3.816   5.921 -0.7653  1.7116  1.4989
11172SOL     OW34214   2.840   6.352   0.961  0.0777  0.2120 -0.0381
11172SOL    HW134215   2.898   6.428   0.963 -1.2209  1.2300  1.1085
11172SOL    HW234216   2.899   6.276   0.969  1.3733  1.0727 -0.9447
11173SOL     OW34217   2.200   0.041   4.599  0.2439  0.0166  0.0793
11173SOL    HW134218   2.238   0.127   4.582  1.6018 -0.8705 -1.6939
11173SOL    HW234219   2.185   0.003   4.513 -0.2448 -1.5776  0.8167
11174SOL     OW34220   4.871   3.375   2.484 -0.2231 -0.0854  0.0520
11174SOL    HW134221   4.952   3.418   2.512  1.1266 -0.5021 -2.7760
11174SOL    HW234222   4.889   3.282   2.495  1.3021 -0.4445 -3.9104
11175SOL     OW34223   0.741   3.919   7.760  0.6705 -0.0916  0.4630
11175SOL    HW134224   0.697   3.960   7.835  0.7045  0.1050  0.3764
11175SOL    HW234225   0.675   3.861   7.722  0.0016  1.2864 -0.5467
11176SOL     OW34226   3.926   7.452   0.980 -0.0365  0.8760  0.7755
11176SOL    HW134227   3.901   7.442   0.888 -1.0933  2.4475  0.8539
11176SOL    HW234228   4.004   7.397   0.990 -0.6905 -0.3903 -0.7060
11177SOL     OW34229   1.523   4.024   0.013 -0.4702 -1.1019  0.4495
11177SOL    HW134230   1.545   3.991   0.100 -2.1191 -2.1003  0.5258
11177SOL    HW234231   1.439   3.982  -0.009 -0.0930 -0.9024 -1.6320
11178SOL     OW34232   5.312   3.326   3.937  0.0800 -0.0094  0.0572
11178SOL    HW134233   5.388   3.321   3.995  2.4203 -0.9886 -2.8513
11178SOL    HW234234   5.325   3.256   3.874 -1.9047  1.4227 -2.0901
11179SOL     OW34235   1.579   2.322   3.889  0.3174 -0.1511  0.8426
11179SOL    HW134236   1.666   2.283   3.883  0.2928 -0.3618  1.7410
11179SOL    HW234237   1.531   2.284   3.815  0.8262 -0.4439  0.6581
11180SOL     OW34238   3.264   0.155   2.893  0.2524  0.0391 -0.0822
11180SOL    HW134239   3.229   0.243   2.906 -1.2355 -0.3472 -1.2007
11180SOL    HW234240   3.195   0.096   2.926  0.5939 -0.7258 -0.6922
11181SOL     OW34241   1.589   5.847   3.880 -0.7055 -0.3300  0.0562
11181SOL    HW134242   1.514   5.797   3.847  0.3148 -1.3775 -0.7803
11181SOL    HW234243   1.645   5.858   3.803  0.7113 -0.9063  0.9728
11182SOL     OW34244   1.772   2.848   1.060  0.2240 -0.4476 -0.0066
11182SOL    HW134245   1.801   2.885   1.143 -0.1684  0.7419 -0.3833
11182SOL    HW234246   1.832   2.776   1.043  1.2167  0.2245  0.5933
11183SOL     OW34247   1.340   2.122   0.282  0.0235  0.2849 -0.0462
11183SOL    HW134248   1.408   2.118   0.349  1.0019  2.1099 -0.8341
11183SOL    HW234249   1.260   2.145   0.329  0.9037  2.5801  0.4328
11184SOL     OW34250   3.915   6.833   3.176 -0.4578  0.6418 -0.5911
11184SOL    HW134251   3.841   6.877   3.134 -1.5029  0.2025  0.7210
11184SOL    HW234252   3.936   6.760   3.118 -1.4344  0.4415 -0.6997
11185SOL     OW34253   3.680   0.425   3.591 -0.4501  0.4879  0.1290
11185SOL    HW134254   3.616   0.439   3.521 -0.2916 -0.6176 -0.2572
11185SOL    HW234255   3.636   0.366   3.652  0.4171 -0.8227 -0.4741
11186SOL     OW34256   2.582   6.111   2.442  0.1523 -1.1183 -0.8042
11186SOL    HW134257   2.604   6.128   2.534 -2.8400 -0.5856 -0.0831
11186SOL    HW234258   2.643   6.043   2.415  0.9561 -1.4712  1.6656
11187SOL     OW34259   4.329   7.497   5.730  0.4784 -0.1930 -0.2271
11187SOL    HW134260   4.303   7.446   5.653 -1.5089  0.3513  0.0338
11187SOL    HW234261   4.256   7.557   5.745  0.9746 -0.0235  1.8692
11188SOL     OW34262   5.958   2.225   5.582 -0.2568  0.0662 -0.2912
11188SOL    HW134263   5.978   2.243   5.674  0.2901 -0.6873 -0.2531
11188SOL    HW234264   5.999   2.296   5.534 -1.6143  1.1727  0.1186
11189SOL     OW34265   6.557   7.302   3.326  0.1539  0.3248 -0.1538
11189SOL    HW134266   6.523   7.375   3.376  0.1401 -0.3781  0.8920
11189SOL    HW234267   6.585   7.341   3.243  0.5290  1.5837  0.5347
11190SOL     OW34268   2.596   5.138   2.974 -0.1929  0.3650 -0.3563
11190SOL    HW134269   2.640   5.134   2.889 -0.6931  0.4939 -0.6272
11190SOL    HW234270   2.604   5.049   3.010 -1.5137 -0.1944 -1.3438
11191SOL     OW34271   7.609   1.238   1.404  0.0226 -0.4009  0.0349
11191SOL    HW134272   7.696   1.210   1.373 -0.5235 -1.7492 -0.3399
11191SOL    HW234273   7.565   1.157   1.429 -0.7165  0.3835  1.3578
11192SOL     OW34274   3.804   0.582   5.153  0.4039 -0.4501  0.8900
11192SOL    HW134275   3.870   0.513   5.163  0.8015 -0.4172 -1.1960
11192SOL    HW234276   3.720   0.535   5.154  0.6539 -0.9505 -0.0978
11193SOL     OW34277   4.565   1.884   0.213 -0.0546 -0.0421  0.0592
11193SOL    HW134278   4.503   1.908   0.144 -0.4069 -1.6870 -0.2304
11193SOL    HW234279   4.541   1.938   0.287  1.0065  2.5803 -1.3698
11194SOL     OW34280   4.579   4.249   2.285  0.2433  0.1587  0.4046
11194SOL    HW134281   4.585   4.224   2.378 -0.0071 -0.5998  0.2280
11194SOL    HW234282   4.653   4.206   2.244  1.2618  1.7482  0.4892
11195SOL     OW34283   0.922   1.403   6.843  0.3183 -0.1288  0.5260
11195SOL    HW134284   0.886   1.340   6.905 -0.9361  0.1535  0.1139
11195SOL    HW234285   0.987   1.353   6.794  0.1762 -0.7893  0.9971
11196SOL     OW34286   5.777   7.444   6.563 -0.4663  0.2895  0.1899
11196SOL    HW134287   5.860   7.397   6.573 -1.5093 -1.4248  1.3426
11196SOL    HW234288   5.723   7.387   6.509 -1.2766  0.8562  0.3838
11197SOL     OW34289   7.635   3.609   5.655 -0.5968 -0.0010 -0.2538
11197SOL    HW134290   7.605   3.612   5.746 -0.5999  0.1076 -0.2581
11197SOL    HW234291   7.682   3.526   5.647 -2.4870 -1.0646 -0.7512
11198SOL     OW34292   1.968   2.689   3.365 -0.4496 -0.5365  0.4723
11198SOL    HW134293   1.932   2.609   3.326  0.4624 -0.5624 -0.3523
11198SOL    HW234294   2.020   2.658   3.439 -1.0582 -0.5999  0.8819
11199SOL     OW34295   6.691   4.257   5.774  0.1613 -0.1383 -0.2362
11199SOL    HW134296   6.644   4.232   5.853  0.8237 -1.0758 -0.1216
11199SOL    HW234297   6.784   4.246   5.796  0.3884  0.4164 -0.8683
11200SOL     OW34298   1.293   1.161   2.140  0.5254 -0.0148  0.5765
11200SOL    HW134299   1.252   1.241   2.108 -0.8336 -1.2181 -0.9209
11200SOL    HW234300   1.382   1.187   2.165 -0.2306  2.1394  1.2292
11201SOL     OW34301   1.687   0.330   5.048  0.5963  0.4253  0.0868
11201SOL    HW134302   1.616   0.268   5.064 -0.0551  1.4279  1.2105
11201SOL    HW234303   1.738   0.290   4.977 -1.7759  0.2638 -1.6726
11202SOL     OW34304   3.160   7.925   5.821  0.2366 -0.2507 -0.4820
11202SOL    HW134305   3.207   8.004   5.848 -1.7634  0.2711  1.8649
11202SOL    HW234306   3.190   7.857   5.880 -1.8437  0.1199  1.1411
11203SOL     OW34307   3.153   0.134   1.907 -0.1564  0.1733 -0.5668
11203SOL    HW134308   3.126   0.042   1.909  0.3673  0.0337  0.2691
11203SOL    HW234309   3.224   0.140   1.971  1.1742  0.7295 -2.0308
11204SOL     OW34310   3.588   1.874   3.069 -0.0352 -0.1420 -0.6268
11204SOL    HW134311   3.534   1.895   2.993 -0.2345 -2.0837 -1.0729
11204SOL    HW234312   3.623   1.787   3.050  3.5378  1.1259 -0.4908
11205SOL     OW34313   7.158   0.716   4.619  0.2034 -0.3531  0.3547
11205SOL    HW134314   7.098   0.779   4.659  0.9085  0.6798 -0.1778
11205SOL    HW234315   7.219   0.769   4.568  0.8070 -1.4707 -0.1349
11206SOL     OW34316   3.317   3.886   1.192 -1.0481 -0.1837  0.0550
11206SOL    HW134317   3.308   3.914   1.283 -2.7380  0.2361 -0.2019
11206SOL    HW234318   3.403   3.918   1.165 -0.2374 -0.8852  1.6702
11207SOL     OW34319   4.895   6.604   7.627 -0.0246 -0.7235 -0.2244
11207SOL    HW134320   4.930   6.609   7.538 -1.4513 -0.3824 -0.7847
11207SOL    HW234321   4.961   6.648   7.681  0.5801 -0.4140 -1.1889
11208SOL     OW34322   0.060   0.479   4.191  0.3630 -0.3244 -0.4330
11208SOL    HW134323   0.002   0.519   4.257  0.7679  0.4005 -0.5176
11208SOL    HW234324   0.010   0.404   4.159  0.2109 -0.7807  0.8009
11209SOL     OW34325   7.375   3.098   7.714 -0.3500  0.4894  0.4514
11209SOL    HW134326   7.390   3.004   7.705 -0.8499  0.2699  1.7330
11209SOL    HW234327   7.432   3.137   7.647  0.6376 -0.6637  0.5702
11210SOL     OW34328   4.410   6.171   7.659 -0.1119  0.3670 -0.2458
11210SOL    HW134329   4.372   6.200   7.742 -0.4297 -0.3439 -0.1322
11210SOL    HW234330   4.417   6.251   7.606 -0.5913  0.7082  0.1994
11211SOL     OW34331   6.557   0.843   7.726  0.3867  0.2013  0.2830
11211SOL    HW134332   6.573   0.882   7.812  0.8991  1.0918 -0.2128
11211SOL    HW234333   6.573   0.913   7.664  0.7825 -0.6557 -0.6003
11212SOL     OW34334   2.728   4.104   3.774 -0.0277 -0.0262 -0.0893
11212SOL    HW134335   2.811   4.060   3.791 -0.0170  0.1677  0.3953
11212SOL    HW234336   2.749   4.174   3.713  0.3413  0.6094  0.7544
11213SOL     OW34337   7.442   1.511   2.821 -0.0291  0.5499  0.0631
11213SOL    HW134338   7.401   1.590   2.787 -1.0841 -0.2025 -0.4400
11213SOL    HW234339   7.406   1.501   2.909 -0.3304  0.3278 -0.0830
11214SOL     OW34340   1.049   3.594   2.345 -0.1061 -0.0009  0.0827
11214SOL    HW134341   0.962   3.606   2.382  0.2544 -0.5515  1.1301
11214SOL    HW234342   1.054   3.501   2.322  0.2271  0.0140  0.0809
11215SOL     OW34343   5.441   3.243   2.903  0.4799 -0.3008  0.3867
11215SOL    HW134344   5.528   3.266   2.936 -0.5739  3.4860  1.0116
11215SOL    HW234345   5.456   3.215   2.813  2.4151 -0.8698  0.8365
11216SOL     OW34346   2.745   0.608   1.442 -0.8796  0.2254  0.7174
11216SOL    HW134347   2.720   0.520   1.469  0.6161 -0.3967  0.2068
11216SOL    HW234348   2.821   0.595   1.384 -0.1489  1.8898  1.2199
11217SOL     OW34349   1.639   2.698   7.647 -0.1927 -0.0328  0.4621
11217SOL    HW134350   1.661   2.789   7.630  0.0617 -0.2108 -0.1779
11217SOL    HW234351   1.609   2.697   7.738 -0.2053  0.6869  0.4679
11218SOL     OW34352   3.473   4.591   7.863  0.0392  0.0573 -0.3929
11218SOL    HW134353   3.561   4.615   7.891  0.8499 -0.8176 -2.0806
11218SOL    HW234354   3.474   4.495   7.857 -0.2442  0.1443 -2.7340
11219SOL     OW34355   6.112   1.466   1.233  0.2636 -0.4954 -0.4299
11219SOL    HW134356   6.161   1.412   1.171 -0.0940 -0.2654 -0.9176
11219SOL    HW234357   6.069   1.403   1.290  1.6215 -0.7024  0.4102
11220SOL     OW34358   5.054   4.346   0.023  0.0658  0.3525 -0.0746
11220SOL    HW134359   5.023   4.436   0.031  2.0753  1.0297  0.5875
11220SOL    HW234360   5.003   4.298   0.089 -0.1145  1.2535  0.4592
11221SOL     OW34361   4.984   6.782   4.973 -0.2652 -0.1261  0.7055
11221SOL    HW134362   5.069   6.805   4.934 -0.6027  0.0271  0.0569
11221SOL    HW234363   4.955   6.862   5.016 -0.8509  0.3289 -0.4855
11222SOL     OW34364   3.661   3.079   3.348  0.8322  0.0781  0.9926
11222SOL    HW134365   3.738   3.037   3.387 -0.3626 -3.7872 -0.3573
11222SOL    HW234366   3.587   3.041   3.396 -0.4187 -0.4840 -1.2758
11223SOL     OW34367   1.024   3.606   4.825  0.0667  0.2586  0.4701
11223SOL    HW134368   0.994   3.696   4.837 -0.5645  0.1685 -0.3317
11223SOL    HW234369   0.992   3.582   4.738  0.8217 -0.5122  0.4009
11224SOL     OW34370   1.187   2.354   7.892  0.6115 -0.1128  0.0291
11224SOL    HW134371   1.254   2.310   7.944 -0.0255 -4.1367 -2.1164
11224SOL    HW234372   1.230   2.372   7.808 -0.2712 -0.3679 -0.4910
11225SOL     OW34373   6.892   4.348   7.099 -0.3241 -0.0787 -0.3409
11225SOL    HW134374   6.973   4.321   7.141 -0.5511 -1.5448 -0.7987
11225SOL    HW234375   6.902   4.321   7.008 -0.0626  2.5593 -1.1700
11226SOL     OW34376   4.103   2.088   6.069  0.1148 -0.8307  0.1528
11226SOL    HW134377   4.029   2.138   6.033  0.6472  1.8720  2.4948
11226SOL    HW234378   4.068   1.999   6.080 -2.7487  0.2837  0.9432
11227SOL     OW34379   4.884   0.560   4.584  0.0205 -0.4571  0.7643
11227SOL    HW134380   4.932   0.489   4.542 -1.1177  0.1811 -1.8115
11227SOL    HW234381   4.797   0.523   4.601  0.0175 -0.2449  1.2300
11228SOL     OW34382   5.681   1.110   3.621 -0.3519  0.1161 -0.0371
11228SOL    HW134383   5.680   1.057   3.542 -1.3776  0.1279 -0.0465
11228SOL    HW234384   5.759   1.081   3.669 -1.5520 -2.3042  0.5670
11229SOL     OW34385   0.642   2.343   0.616 -0.0479  0.6435 -0.2412
11229SOL    HW134386   0.576   2.393   0.663 -0.4854 -2.6535  3.0790
11229SOL    HW234387   0.721   2.350   0.669  1.0416  0.9516 -1.8148
11230SOL     OW34388   2.576   6.062   1.770 -0.5817  0.5840 -0.3093
11230SOL    HW134389   2.656   6.110   1.790 -1.0036  0.8960  0.6617
11230SOL    HW234390   2.580   5.984   1.825 -0.0047 -0.4350 -1.7157
11231SOL     OW34391   1.438   3.994   6.582  0.0561 -0.1324 -0.4320
11231SOL    HW134392   1.380   3.994   6.658  0.7049 -0.1955  0.0749
11231SOL    HW234393   1.521   3.958   6.615 -0.1247 -1.6978 -1.5403
11232SOL     OW34394   3.315   3.929   4.468 -0.5068  0.1076 -0.6049
11232SOL    HW134395   3.224   3.952   4.490 -0.4317 -1.9683  2.4854
11232SOL    HW234396   3.308   3.848   4.419 -0.3573 -0.5802  0.4684
11233SOL     OW34397   4.864   3.893   1.880 -0.3468 -0.6158  0.6489
11233SOL    HW134398   4.822   3.938   1.807  0.7927  0.5976  0.7003
11233SOL    HW234399   4.799   3.892   1.949 -0.7566  0.0091  0.2766
11234SOL     OW34400   6.061   6.009   4.019 -0.3199  0.2373  0.4182
11234SOL    HW134401   6.075   6.101   4.042 -1.6009  0.3087  0.9728
11234SOL    HW234402   5.994   5.978   4.080 -0.2716 -0.9278 -0.0910
11235SOL     OW34403   6.900   0.292   7.965 -0.3437 -0.4991  0.0829
11235SOL    HW134404   6.954   0.362   7.928  0.4444 -0.9438  0.3632
11235SOL    HW234405   6.864   0.330   8.045  0.1781 -0.4438  0.2988
11236SOL     OW34406   1.001   0.496   2.159  0.2103  0.0936 -0.0003
11236SOL    HW134407   0.972   0.579   2.197 -1.5168  0.2216 -1.4785
11236SOL    HW234408   0.924   0.440   2.163  0.7094 -0.6893 -1.0557
11237SOL     OW34409   0.141   2.293   3.503  0.2857  0.1648 -0.2633
11237SOL    HW134410   0.134   2.322   3.594 -3.6076 -0.4467 -0.2315
11237SOL    HW234411   0.128   2.373   3.451  1.4221  0.3304 -0.3181
11238SOL     OW34412   6.086   0.778   0.134 -0.3836 -0.5339 -0.1739
11238SOL    HW134413   6.161   0.756   0.190  0.5769  0.2294 -1.1146
11238SOL    HW234414   6.009   0.757   0.187  0.4487  1.4656  2.0320
11239SOL     OW34415   2.286   7.664   3.437 -0.3724 -0.0101 -0.3327
11239SOL    HW134416   2.205   7.625   3.471 -0.3155 -0.2592 -0.4763
11239SOL    HW234417   2.323   7.596   3.381  0.9563 -0.6805  1.2742
11240SOL     OW34418   2.841   1.160   0.335 -0.5048 -0.1159 -0.1982
11240SOL    HW134419   2.818   1.151   0.242 -0.1999 -0.3195 -0.2552
11240SOL    HW234420   2.870   1.072   0.361 -3.6455 -0.9178  0.9470
11241SOL     OW34421   4.003   3.251   7.190  0.2760 -0.1692 -0.2378
11241SOL    HW134422   3.913   3.229   7.214 -0.0609  0.7755 -0.5789
11241SOL    HW234423   4.048   3.265   7.273  0.5416 -2.1741  0.0033
11242SOL     OW34424   4.932   2.719   5.932  0.2892 -0.0214  0.1548
11242SOL    HW134425   4.841   2.715   5.962  0.0912 -0.0282 -0.4361
11242SOL    HW234426   4.983   2.690   6.008 -0.1386  0.7702  0.7647
11243SOL     OW34427   3.981   7.887   4.607  0.1343 -0.3041 -0.0620
11243SOL    HW134428   4.062   7.906   4.559 -0.1906 -0.9579 -0.8971
11243SOL    HW234429   3.991   7.797   4.636 -0.8650 -0.8692 -1.3879
11244SOL     OW34430   6.759   1.367   7.485 -0.1188 -0.3438  0.2513
11244SOL    HW134431   6.759   1.463   7.488  1.8275 -0.3408  1.2448
11244SOL    HW234432   6.795   1.346   7.399  0.2875 -0.1685  0.3748
11245SOL     OW34433   0.044   2.052   0.770  0.3547  0.4885 -0.4280
11245SOL    HW134434  -0.044   2.036   0.735  0.4386 -0.4381 -0.2343
11245SOL    HW234435   0.091   2.093   0.698  0.0350  0.1336 -0.8430
11246SOL     OW34436   4.764   6.129   4.285 -0.3535 -0.0980  0.0302
11246SOL    HW134437   4.828   6.195   4.311 -1.3690  1.3859 -1.0381
11246SOL    HW234438   4.791   6.102   4.197 -2.0622  1.8546 -1.2037
11247SOL     OW34439   1.565   1.498   1.333 -0.4486  0.0658  0.3125
11247SOL    HW134440   1.643   1.553   1.339 -1.0624  0.8357  2.0688
11247SOL    HW234441   1.590   1.417   1.378 -0.4213 -0.0018  0.1769
11248SOL     OW34442   7.371   1.161   2.401 -0.0002 -0.1815  0.1470
11248SOL    HW134443   7.380   1.076   2.359  2.1986  0.3059 -0.4718
11248SOL    HW234444   7.455   1.176   2.444 -0.9009  0.9909  1.5949
11249SOL     OW34445   3.495   0.190   7.580 -0.0854  0.1732 -0.1113
11249SOL    HW134446   3.571   0.167   7.632  0.0515 -0.4812 -0.5795
11249SOL    HW234447   3.478   0.112   7.527 -0.8204  0.4648 -0.3190
11250SOL     OW34448   7.737   0.396   6.774  0.1438 -0.0428  0.4009
11250SOL    HW134449   7.771   0.442   6.850  2.2121  1.1427 -1.1352
11250SOL    HW234450   7.806   0.336   6.748 -0.5963 -0.5713 -0.4264
11251SOL     OW34451   5.776   1.036   4.621  0.9429 -0.3076  0.8402
11251SOL    HW134452   5.850   0.978   4.606  1.5770  0.8247 -0.5704
11251SOL    HW234453   5.791   1.111   4.563 -0.8104  0.3965  1.2267
11252SOL     OW34454   2.022   4.555   4.512 -0.1304 -0.2673 -0.2130
11252SOL    HW134455   2.045   4.615   4.582  3.4123 -0.1822 -1.2740
11252SOL    HW234456   2.057   4.470   4.541 -1.2187 -0.8930 -0.6520
11253SOL     OW34457   0.556   7.142   3.417  0.8465 -0.8859 -0.5965
11253SOL    HW134458   0.601   7.074   3.466 -0.0266 -1.2740 -0.3095
11253SOL    HW234459   0.571   7.222   3.467  1.2261 -1.0054 -0.5188
11254SOL     OW34460   2.466   3.358   3.899 -0.1858 -0.1337 -0.0767
11254SOL    HW134461   2.377   3.371   3.933 -0.2648 -0.5656 -0.1138
11254SOL    HW234462   2.522   3.367   3.976 -0.4257 -1.9089  0.3424
11255SOL     OW34463   0.949   2.906   1.959 -0.3559  0.0071 -0.1780
11255SOL    HW134464   1.038   2.919   1.928 -0.6983 -0.9799 -1.6332
11255SOL    HW234465   0.958   2.890   2.053  0.8689  1.1612 -0.0780
11256SOL     OW34466   2.701   0.634   5.394  0.3873  0.6160  0.1667
11256SOL    HW134467   2.643   0.699   5.433  0.8737  0.6868  0.7903
11256SOL    HW234468   2.743   0.591   5.469 -0.5636 -1.0339 -0.1903
11257SOL     OW34469   2.768   0.088   1.835 -0.4193 -0.3594 -0.0892
11257SOL    HW134470   2.775   0.002   1.794  0.8109  0.8711 -2.7395
11257SOL    HW234471   2.677   0.094   1.863 -1.2240 -1.5921 -2.2227
11258SOL     OW34472   4.089   6.322   1.172  0.6589  0.3202  0.7770
11258SOL    HW134473   4.126   6.252   1.117 -0.8439 -0.7489  1.0576
11258SOL    HW234474   4.112   6.403   1.126  1.8862 -0.3894  0.0897
11259SOL     OW34475   3.636   0.153   6.104 -0.4257  0.3929 -0.5013
11259SOL    HW134476   3.572   0.220   6.078 -0.7978 -0.0842 -0.8410
11259SOL    HW234477   3.720   0.188   6.074 -0.9385 -0.5779 -3.3848
11260SOL     OW34478   7.518   3.365   2.569 -0.0078  0.3430  0.0733
11260SOL    HW134479   7.441   3.319   2.536  0.6765 -0.6343 -0.2025
11260SOL    HW234480   7.580   3.295   2.592  1.3358  1.1138 -1.0192
11261SOL     OW34481   1.938   3.239   3.386 -0.0707  0.4541  0.1341
11261SOL    HW134482   1.848   3.271   3.398 -0.3599  0.0134 -0.8034
11261SOL    HW234483   1.989   3.288   3.450 -0.3021  3.6028 -1.9201
11262SOL     OW34484   1.254   2.002   1.225  0.3552 -0.1522 -0.0838
11262SOL    HW134485   1.250   1.928   1.285 -1.2971  0.1595  0.2312
11262SOL    HW234486   1.261   2.079   1.282  2.3334 -0.0322 -0.4116
11263SOL     OW34487   0.604   5.065   1.243 -0.4149 -0.5739 -0.0198
11263SOL    HW134488   0.572   4.982   1.277 -0.2449 -0.2679  0.9102
11263SOL    HW234489   0.526   5.120   1.238 -0.4771 -0.6855 -0.3604
11264SOL     OW34490   4.205   2.314   0.947 -0.2303 -0.1704 -0.3811
11264SOL    HW134491   4.283   2.332   0.895  0.4285 -0.9694  0.3001
11264SOL    HW234492   4.191   2.394   0.998 -0.4484  0.3385 -1.2280
11265SOL     OW34493   3.197   3.281   7.442  0.0823 -0.3212 -1.1874
11265SOL    HW134494   3.206   3.261   7.349  1.9416 -0.7668 -0.9574
11265SOL    HW234495   3.233   3.369   7.452  1.2597 -0.8269 -0.7090
11266SOL     OW34496   3.235   0.450   5.938  0.0375  0.5817  0.0122
11266SOL    HW134497   3.172   0.389   5.977  0.0781  0.0918 -0.6561
11266SOL    HW234498   3.182   0.524   5.909 -0.0702  0.6819  0.4520
11267SOL     OW34499   7.623   2.829   2.405 -0.2294 -0.2332 -0.2384
11267SOL    HW134500   7.699   2.845   2.348 -0.4383 -0.5079 -0.5998
11267SOL    HW234501   7.592   2.742   2.379 -1.5673  0.4645 -1.1352
11268SOL     OW34502   0.497   4.157   7.057  0.0023 -0.8315 -0.3341
11268SOL    HW134503   0.460   4.095   7.121 -1.6880 -0.9061 -1.3154
11268SOL    HW234504   0.541   4.101   6.993 -0.6922 -0.9823 -0.6973
11269SOL     OW34505   0.971   4.042   3.653  0.5811 -0.5601 -0.3454
11269SOL    HW134506   0.974   3.949   3.632 -0.4395 -0.4083 -1.2378
11269SOL    HW234507   0.960   4.045   3.748  1.3435 -1.3244 -0.2176
11270SOL     OW34508   1.124   0.945   4.773  0.7863 -0.1910  0.2820
11270SOL    HW134509   1.030   0.961   4.770  0.8438  0.0867 -0.1085
11270SOL    HW234510   1.132   0.849   4.775  0.5146 -0.2462 -0.6460
11271SOL     OW34511   6.521   6.096   4.329  0.4304  0.4947  0.4095
11271SOL    HW134512   6.521   6.146   4.248 -2.0677  0.0987  0.0935
11271SOL    HW234513   6.431   6.101   4.361  1.2381  0.2875  2.9556
11272SOL     OW34514   2.509   6.105   4.834  0.2387  1.2583  0.0704
11272SOL    HW134515   2.433   6.047   4.838 -1.4324  3.3343  0.4920
11272SOL    HW234516   2.508   6.140   4.745  1.6936  0.0966 -0.4226
11273SOL     OW34517   7.223   7.529   5.031 -0.0210  0.3474 -0.1855
11273SOL    HW134518   7.259   7.509   4.945 -0.4439  1.6617 -0.6852
11273SOL    HW234519   7.128   7.526   5.019 -0.0835  0.4500  0.2649
11274SOL     OW34520   1.482   6.730   4.271  0.0396  0.2475  0.0867
11274SOL    HW134521   1.467   6.772   4.186  0.1680 -0.5452 -0.3427
11274SOL    HW234522   1.515   6.800   4.327 -0.2712  0.8325 -0.4535
11275SOL     OW34523   1.849   3.627   3.932 -0.1665  0.3452  0.0264
11275SOL    HW134524   1.821   3.718   3.943 -2.6515 -0.4949  1.4404
11275SOL    HW234525   1.914   3.614   4.001  0.3336  1.0649 -0.2931
11276SOL     OW34526   2.544   5.262   5.576 -0.8610  0.6647  0.0403
11276SOL    HW134527   2.544   5.350   5.539 -1.1216  0.2649 -0.9459
11276SOL    HW234528   2.636   5.238   5.581 -0.8092  0.8393 -0.0703
11277SOL     OW34529   7.733   4.814   1.591 -0.3220  0.2042 -0.0628
11277SOL    HW134530   7.737   4.718   1.589 -1.8150  0.1282 -1.4588
11277SOL    HW234531   7.751   4.837   1.682  2.9141 -1.1975 -0.2125
11278SOL     OW34532   3.271   2.332   6.472 -0.3130 -0.3676 -0.1876
11278SOL    HW134533   3.238   2.263   6.415 -0.0142 -0.6540 -0.0179
11278SOL    HW234534   3.362   2.345   6.444 -1.1226  1.9214 -2.1218
11279SOL     OW34535   4.638   2.674   1.556 -0.4652  0.1350 -0.1792
11279SOL    HW134536   4.702   2.653   1.625 -2.1554  0.2530  1.5270
11279SOL    HW234537   4.690   2.687   1.477  1.7361  1.3143  1.3550
11280SOL     OW34538   2.784   2.543   6.349  0.0531  0.4060 -0.0253
11280SOL    HW134539   2.815   2.632   6.329 -2.0970  0.9269 -1.2514
11280SOL    HW234540   2.719   2.524   6.282 -1.1099 -1.2576  1.4759
11281SOL     OW34541   7.190   0.451   5.157 -0.0991 -0.1840  0.0611
11281SOL    HW134542   7.224   0.393   5.089  1.1924  1.7293 -1.0168
11281SOL    HW234543   7.267   0.488   5.198 -0.7562  2.7895 -1.1261
11282SOL     OW34544   4.680   4.481   1.009 -0.2856 -0.0643 -0.8496
11282SOL    HW134545   4.616   4.457   1.077  1.1201  0.0210  0.5777
11282SOL    HW234546   4.677   4.408   0.947 -0.4649 -0.9653  0.1715
11283SOL     OW34547   4.994   0.133   4.143 -0.2809  0.2564 -1.3738
11283SOL    HW134548   4.910   0.177   4.132  0.3451  2.0551  0.3634
11283SOL    HW234549   5.059   0.202   4.129  0.7527 -0.0722  1.2947
11284SOL     OW34550   6.340   7.338   6.652 -0.2616 -0.1929 -0.1465
11284SOL    HW134551   6.320   7.391   6.729 -1.4293 -0.4635 -0.2525
11284SOL    HW234552   6.304   7.251   6.672  2.0011 -1.1318  0.2135
11285SOL     OW34553   5.563   0.313   1.474 -0.6360  0.4538  0.3015
11285SOL    HW134554   5.658   0.325   1.478 -0.6628  0.3314  1.6621
11285SOL    HW234555   5.549   0.227   1.512 -1.4754  1.5377  2.6442
11286SOL     OW34556   3.440   3.729   6.126  0.0811 -0.0723  0.2218
11286SOL    HW134557   3.498   3.684   6.189  0.5050 -1.8283 -1.3393
11286SOL    HW234558   3.352   3.706   6.154  0.2414 -0.2756  0.5681
11287SOL     OW34559   1.435   4.754   6.389  0.1628 -0.8478 -0.5487
11287SOL    HW134560   1.445   4.706   6.471 -1.9306  2.3331  1.8084
11287SOL    HW234561   1.518   4.801   6.379  0.3419 -1.0595 -0.0949
11288SOL     OW34562   0.145   3.053   6.961 -0.2604 -0.0070  0.0612
11288SOL    HW134563   0.059   3.089   6.982  0.7671  3.8173 -1.4544
11288SOL    HW234564   0.192   3.054   7.045 -0.9510  0.1315  0.4526
11289SOL     OW34565   2.906   2.616   6.873  0.6848  0.2069  0.0655
11289SOL    HW134566   2.843   2.664   6.820 -0.2908  0.1905  1.1646
11289SOL    HW234567   2.886   2.524   6.857  1.7764  0.1424 -1.1223
11290SOL     OW34568   2.262   4.961   4.302  0.3661 -0.2502  0.5803
11290SOL    HW134569   2.252   4.952   4.207  0.0116 -2.7480  0.7956
11290SOL    HW234570   2.356   4.975   4.314  0.2880  1.1596 -0.1481
11291SOL     OW34571   0.086   3.340   7.373  0.1955  0.2893  0.1921
11291SOL    HW134572   0.127   3.319   7.289 -2.6280  1.1823 -1.5154
11291SOL    HW234573   0.031   3.264   7.392 -0.4232  0.7888  0.4090
11292SOL     OW34574   4.850   6.053   4.030 -0.1713 -0.3858  0.4041
11292SOL    HW134575   4.835   6.069   3.936  0.6007  0.8601  0.4528
11292SOL    HW234576   4.854   5.958   4.038 -1.1697 -0.5446 -0.6690
11293SOL     OW34577   3.073   3.634   2.004 -0.1211 -0.1949  0.1512
11293SOL    HW134578   3.096   3.724   2.025  1.7507 -0.6169  0.0414
11293SOL    HW234579   2.984   3.640   1.967 -0.4207  1.4559  1.0486
11294SOL     OW34580   3.471   4.318   5.941  0.4905 -0.3690 -0.2166
11294SOL    HW134581   3.561   4.333   5.912  0.8577 -0.3690  0.9087
11294SOL    HW234582   3.451   4.230   5.910  0.7147 -0.2067 -0.8501
11295SOL     OW34583   4.520   7.506   3.946 -0.5404  0.7498  0.2256
11295SOL    HW134584   4.574   7.441   3.900 -0.6363  1.0453 -0.3122
11295SOL    HW234585   4.572   7.529   4.023  0.8620  2.1984 -1.0831
11296SOL     OW34586   6.383   4.770   4.269 -0.6750 -0.3094 -0.0956
11296SOL    HW134587   6.456   4.773   4.331 -0.7369 -0.2358 -0.0268
11296SOL    HW234588   6.305   4.781   4.322 -0.7017  0.2131 -0.2359
11297SOL     OW34589   1.415   3.956   4.426 -0.0197  0.2517 -0.9913
11297SOL    HW134590   1.393   3.969   4.334  0.7197  1.1852 -1.0535
11297SOL    HW234591   1.333   3.926   4.466 -0.3005 -0.3439 -1.9766
11298SOL     OW34592   5.299   5.121   7.110 -0.6870 -0.7348 -0.1159
11298SOL    HW134593   5.257   5.129   7.024 -1.4864  0.0924  0.3411
11298SOL    HW234594   5.278   5.203   7.155  0.5210 -0.7603  0.5303
11299SOL     OW34595   6.215   2.409   5.496 -0.3582  0.2509 -0.0614
11299SOL    HW134596   6.198   2.415   5.590 -1.3628  0.0609 -0.2185
11299SOL    HW234597   6.283   2.343   5.488 -1.7445 -1.2949  0.3973
11300SOL     OW34598   7.091   0.786   6.697 -0.3175 -0.3738 -0.2572
11300SOL    HW134599   7.168   0.825   6.737  1.1598 -0.5694 -2.6673
11300SOL    HW234600   7.043   0.861   6.660 -0.7831 -0.3324  0.4266
11301SOL     OW34601   2.571   2.312   0.267  0.0077 -0.1375  0.9265
11301SOL    HW134602   2.652   2.263   0.266 -0.2748 -0.6022  0.5168
11301SOL    HW234603   2.518   2.275   0.197 -0.7952 -0.2424  1.5596
11302SOL     OW34604   4.426   6.009   5.661  0.5347 -0.0827 -0.5559
11302SOL    HW134605   4.491   5.941   5.641  1.6498 -0.1161  2.5906
11302SOL    HW234606   4.345   5.962   5.675  0.3174 -0.2822 -2.2666
11303SOL     OW34607   3.874   5.279   2.426 -0.1237 -0.1962 -0.3204
11303SOL    HW134608   3.866   5.339   2.351  0.5855 -0.3302 -0.5149
11303SOL    HW234609   3.916   5.201   2.390 -0.0764 -0.3907  0.1493
11304SOL     OW34610   2.348   3.564   1.178 -0.4716 -0.0272  0.1458
11304SOL    HW134611   2.368   3.502   1.248  0.2097  0.3890  0.3303
11304SOL    HW234612   2.344   3.511   1.098 -1.0338 -0.4723  0.4603
11305SOL     OW34613   1.879   4.045   5.394 -0.3885  0.1273  0.5626
11305SOL    HW134614   1.944   4.115   5.399 -1.0368  0.6857  1.2943
11305SOL    HW234615   1.857   4.039   5.301 -0.7926  1.3308  0.5722
11306SOL     OW34616   3.161   6.597   2.911  0.6273  0.2119  0.2557
11306SOL    HW134617   3.230   6.544   2.872 -0.3601 -0.7774 -0.1915
11306SOL    HW234618   3.183   6.601   3.004  2.9239  2.4689 -0.2580
11307SOL     OW34619   3.384   5.586   6.425  0.0714  0.2003  0.1328
11307SOL    HW134620   3.313   5.628   6.375  1.3158  0.5100 -1.4560
11307SOL    HW234621   3.444   5.554   6.358  1.5068  0.0695  1.4441
11308SOL     OW34622   2.524   7.829   0.314  0.2312  0.1503 -0.3491
11308SOL    HW134623   2.505   7.777   0.392 -0.9508  0.2177 -0.5698
11308SOL    HW234624   2.441   7.831   0.266  0.7361  0.7545 -1.2255
11309SOL     OW34625   6.966   1.547   0.114 -0.0963  0.0083  0.2519
11309SOL    HW134626   7.004   1.634   0.106 -0.5674  0.2232  0.2769
11309SOL    HW234627   6.883   1.553   0.065 -0.2637 -0.3390  0.4915
11310SOL     OW34628   6.039   0.722   6.094 -0.1732 -0.3123 -0.0010
11310SOL    HW134629   6.062   0.646   6.147 -0.1564 -1.1554 -1.1956
11310SOL    HW234630   6.098   0.719   6.019  0.7219  1.6262  0.5536
11311SOL     OW34631   0.350   1.812   4.678 -0.0371 -0.2927 -0.5292
11311SOL    HW134632   0.412   1.742   4.698 -1.4634 -1.5364 -0.3318
11311SOL    HW234633   0.364   1.877   4.747 -0.2468 -1.4286  0.6043
11312SOL     OW34634   3.444   6.788   0.366 -0.0086 -0.4746 -0.2398
11312SOL    HW134635   3.392   6.798   0.445  0.7943 -0.6974  0.3265
11312SOL    HW234636   3.484   6.701   0.373  0.5428 -0.2586 -0.5924
11313SOL     OW34637   2.879   0.241   5.240 -0.1773  0.0536 -0.1518
11313SOL    HW134638   2.889   0.241   5.335  0.9796  0.7678 -0.2484
11313SOL    HW234639   2.824   0.165   5.222  0.9265 -1.0847  0.9805
11314SOL     OW34640   6.322   2.110   0.742  0.7939 -0.3299  0.4445
11314SOL    HW134641   6.334   2.107   0.836  2.2674 -1.6928  0.2439
11314SOL    HW234642   6.333   2.019   0.713 -1.0474 -0.1932 -0.8955
11315SOL     OW34643   4.230   6.476   6.703  0.4141 -0.1240  0.4871
11315SOL    HW134644   4.263   6.469   6.792  0.9992  0.4129  0.3231
11315SOL    HW234645   4.286   6.417   6.652  1.1378  0.7604  0.2150
11316SOL     OW34646   3.961   5.169   5.456  0.0247  0.0780  0.7773
11316SOL    HW134647   4.029   5.114   5.495  0.5897  0.2540  0.0686
11316SOL    HW234648   4.010   5.235   5.406 -0.6270  1.2849  1.6722
11317SOL     OW34649   5.353   1.096   3.385  0.2612 -0.3402  0.1085
11317SOL    HW134650   5.434   1.044   3.390  0.3029 -0.2046  1.2902
11317SOL    HW234651   5.382   1.184   3.361  0.5064 -0.2348  0.7631
11318SOL     OW34652   1.110   4.995   6.221  0.5687  0.1212 -0.0062
11318SOL    HW134653   1.067   5.033   6.297  0.0261 -0.3505 -0.0684
11318SOL    HW234654   1.109   4.900   6.238  1.5927  0.0983 -0.0048
11319SOL     OW34655   5.786   0.576   3.547  0.3033 -0.3316  0.4202
11319SOL    HW134656   5.830   0.657   3.571 -0.7028  0.5792 -0.6695
11319SOL    HW234657   5.812   0.560   3.456  0.0140 -0.9000  0.4322
11320SOL     OW34658   4.647   6.479   3.368  0.0667 -0.4993  0.2160
11320SOL    HW134659   4.617   6.570   3.368 -0.3576 -0.5955  1.7603
11320SOL    HW234660   4.621   6.446   3.454  1.3028 -1.7176  0.1583
11321SOL     OW34661   0.103   1.107   7.174  0.0237  0.3342  0.1877
11321SOL    HW134662   0.167   1.078   7.109 -0.3958  0.2174 -0.1748
11321SOL    HW234663   0.132   1.066   7.256 -0.1869 -0.5787 -0.1871
11322SOL     OW34664   7.907   7.271   7.718  0.5212  0.1880  0.2087
11322SOL    HW134665   7.867   7.287   7.804  1.2353 -0.2809  0.6350
11322SOL    HW234666   7.844   7.307   7.655 -0.7823 -0.9173  0.8410
11323SOL     OW34667   7.460   6.094   1.681  0.4977 -0.4677  0.0751
11323SOL    HW134668   7.424   6.174   1.643 -0.6344 -1.2343 -0.5515
11323SOL    HW234669   7.554   6.110   1.687  0.1336  1.4393  1.3112
11324SOL     OW34670   5.964   3.045   4.318 -0.1497  0.0462 -0.1218
11324SOL    HW134671   6.032   2.978   4.326  1.3251  1.5725  0.9073
11324SOL    HW234672   6.006   3.125   4.350 -1.8043  1.4996 -1.3977
11325SOL     OW34673   7.045   3.820   4.935  0.4208  0.2322 -0.1680
11325SOL    HW134674   7.079   3.735   4.907  1.6175  0.0421  1.6635
11325SOL    HW234675   7.034   3.869   4.853 -1.7173 -2.1049 -1.4258
11326SOL     OW34676   1.069   6.573   4.759  0.1242  0.1767 -0.2634
11326SOL    HW134677   1.145   6.630   4.747  0.2124  0.1411  0.1156
11326SOL    HW234678   1.099   6.487   4.731  0.3026  0.1114  0.1232
11327SOL     OW34679   1.186   0.007   5.208 -0.1795  0.2452  0.8291
11327SOL    HW134680   1.257   0.010   5.144 -0.9793  0.1477 -0.0815
11327SOL    HW234681   1.222  -0.045   5.281  0.6694  0.1816  0.3797
11328SOL     OW34682   1.992   1.330   6.972  0.0831  0.1444 -0.2750
11328SOL    HW134683   2.055   1.389   7.015 -0.2422 -0.2478  0.7611
11328SOL    HW234684   2.006   1.345   6.879 -0.3714  2.2860 -0.0552
11329SOL     OW34685   0.139   3.460   6.272 -0.3434  0.5572  0.4777
11329SOL    HW134686   0.123   3.384   6.216 -0.3770  0.9941 -0.1149
11329SOL    HW234687   0.140   3.425   6.361 -0.5848 -0.1002  0.2237
11330SOL     OW34688   0.863   0.897   2.518 -0.4276 -0.3844  0.2797
11330SOL    HW134689   0.779   0.862   2.489  0.8592 -3.0908 -0.5272
11330SOL    HW234690   0.863   0.988   2.488 -2.3556 -0.8360 -1.2780
11331SOL     OW34691   1.109   1.162   7.232  0.3507 -0.1396 -0.4673
11331SOL    HW134692   1.154   1.106   7.170 -2.0014 -0.7048 -1.7546
11331SOL    HW234693   1.120   1.251   7.197 -1.4591 -0.5051 -2.1109
11332SOL     OW34694   2.583   3.327   3.557  0.2451 -0.0114  0.1879
11332SOL    HW134695   2.581   3.250   3.501  2.2339  0.7325 -1.0017
11332SOL    HW234696   2.561   3.294   3.644  1.6759 -2.0588 -0.1443
11333SOL     OW34697   1.625   3.802   6.652  0.2351  0.4034 -0.2687
11333SOL    HW134698   1.666   3.743   6.715  1.4097 -0.1641 -1.5133
11333SOL    HW234699   1.695   3.863   6.628 -0.0089  0.2091 -1.4985
11334SOL     OW34700   1.408   6.425   1.062 -0.3597 -0.1269  0.1149
11334SOL    HW134701   1.390   6.519   1.073  1.1658  0.2580 -0.3417
11334SOL    HW234702   1.326   6.388   1.030 -0.4639  1.4018 -1.5163
11335SOL     OW34703   0.835   5.362   3.058 -0.0696 -0.1675  0.3383
11335SOL    HW134704   0.846   5.414   2.979 -0.5930  0.5961  0.7555
11335SOL    HW234705   0.758   5.307   3.040  0.1898 -0.4464  0.0818
11336SOL     OW34706   1.809   6.862   1.394 -0.0794  0.8117  0.1974
11336SOL    HW134707   1.766   6.891   1.474 -1.0487 -1.7638  0.6921
11336SOL    HW234708   1.903   6.877   1.410 -0.0419 -1.3352  2.6480
11337SOL     OW34709   6.934   7.547   2.830  0.1303 -0.6077  0.4946
11337SOL    HW134710   6.975   7.462   2.849  1.2381 -0.7121 -1.9570
11337SOL    HW234711   6.856   7.524   2.779 -0.2856 -0.1942  0.9422
11338SOL     OW34712   2.142   1.748   7.876 -0.0302  0.3841  0.2965
11338SOL    HW134713   2.145   1.656   7.903  0.2615  0.2905 -0.0433
11338SOL    HW234714   2.078   1.749   7.805 -1.7557  0.8468  1.7633
11339SOL     OW34715   4.760   0.177   2.240 -0.0711 -0.4168 -0.1159
11339SOL    HW134716   4.740   0.223   2.322  0.0045 -1.1878  0.3424
11339SOL    HW234717   4.679   0.182   2.189  0.5496  2.1051 -1.0232
11340SOL     OW34718   3.235   5.416   3.235  0.0488  0.3410 -0.0642
11340SOL    HW134719   3.247   5.437   3.143  0.3347  1.2764  0.1735
11340SOL    HW234720   3.309   5.458   3.280  0.6322 -1.1873  0.4589
11341SOL     OW34721   4.653   1.180   3.017 -0.0829 -0.1550  0.3078
11341SOL    HW134722   4.582   1.165   3.079  0.3093 -1.5948  0.4433
11341SOL    HW234723   4.654   1.275   3.004 -0.3646  0.1555  2.2820
11342SOL     OW34724   7.363   2.724   1.721  0.6090  0.4577  0.9355
11342SOL    HW134725   7.398   2.661   1.658 -3.0706 -0.3209 -0.5455
11342SOL    HW234726   7.380   2.685   1.806 -0.1765 -1.8366  0.1146
11343SOL     OW34727   4.502   5.380   3.456  0.0248  0.4545  0.1521
11343SOL    HW134728   4.505   5.312   3.523  3.4812  1.9952  1.8313
11343SOL    HW234729   4.560   5.348   3.387 -0.6386  0.4682 -0.4213
11344SOL     OW34730   5.309   3.808   4.517 -0.2295  0.2184  0.4286
11344SOL    HW134731   5.327   3.795   4.424  2.5898 -1.0180  1.0429
11344SOL    HW234732   5.304   3.903   4.528 -0.4189  0.3808 -0.9392
11345SOL     OW34733   4.558   3.093   5.005 -0.1065 -0.1175  0.5101
11345SOL    HW134734   4.591   3.183   5.005 -0.0390 -0.1418  0.6115
11345SOL    HW234735   4.531   3.078   5.096 -0.9376  0.0980  0.3116
11346SOL     OW34736   2.154   4.380   7.717  0.4543 -0.1331  0.1379
11346SOL    HW134737   2.245   4.406   7.729  0.5171  0.2821 -1.1279
11346SOL    HW234738   2.115   4.385   7.805  1.5871 -0.1090  0.6469
11347SOL     OW34739   0.823   6.308   4.887 -0.3278 -0.8316  0.3410
11347SOL    HW134740   0.913   6.286   4.866 -0.1447  0.5131 -0.3909
11347SOL    HW234741   0.828   6.351   4.972  0.3128  2.6254 -1.2642
11348SOL     OW34742   6.915   3.331   0.984 -0.2754  0.1969  0.1631
11348SOL    HW134743   6.848   3.303   0.921 -0.5313  3.0569 -1.0132
11348SOL    HW234744   6.973   3.388   0.933  2.1115 -0.8273  1.5738
11349SOL     OW34745   1.849   2.185   0.667 -0.3701 -0.3759 -0.2585
11349SOL    HW134746   1.858   2.182   0.763  0.4213  0.8013 -0.2752
11349SOL    HW234747   1.796   2.262   0.651  1.0925  0.5503 -0.8363
11350SOL     OW34748   0.068   7.957   6.861  0.2558 -0.2811  0.7310
11350SOL    HW134749   0.075   7.902   6.939  0.8706 -1.3419 -0.0473
11350SOL    HW234750   0.148   7.939   6.812  0.2002  0.9037  0.1898
11351SOL     OW34751   0.478   0.516   5.298 -0.5409 -0.5299  0.4773
11351SOL    HW134752   0.396   0.478   5.268  0.6121 -0.9951 -2.4599
11351SOL    HW234753   0.545   0.453   5.272  0.8200 -0.0088  2.4763
11352SOL     OW34754   4.447   4.007   6.799  0.0024  0.4053  0.2254
11352SOL    HW134755   4.505   4.032   6.728  1.0021 -0.1363  0.8357
11352SOL    HW234756   4.457   4.077   6.864  1.4764 -0.6268  1.1721
11353SOL     OW34757   3.351   2.882   3.150 -0.1205  0.1147 -0.1977
11353SOL    HW134758   3.376   2.900   3.240 -0.0844 -0.9905  0.0282
11353SOL    HW234759   3.427   2.836   3.113 -0.2276  0.3525 -0.7178
11354SOL     OW34760   2.789   7.783   6.768  0.4496 -0.0124 -0.0596
11354SOL    HW134761   2.773   7.732   6.688  1.7714 -0.0481 -0.3220
11354SOL    HW234762   2.713   7.840   6.775 -0.6594 -1.4147 -0.2303
11355SOL     OW34763   5.499   5.668   3.188  0.6233 -0.2738 -0.1124
11355SOL    HW134764   5.472   5.759   3.181 -0.9471 -0.7916 -1.8196
11355SOL    HW234765   5.451   5.634   3.263 -0.3564 -0.1609 -0.6695
11356SOL     OW34766   4.402   2.875   5.302  0.1392  0.5182  0.1237
11356SOL    HW134767   4.489   2.916   5.297  0.4326 -0.1278 -0.1835
11356SOL    HW234768   4.371   2.897   5.390 -1.1809  4.2963 -1.0585
11357SOL     OW34769   4.820   4.718   4.843 -0.6986  0.1042  0.2292
11357SOL    HW134770   4.838   4.648   4.781 -2.1540 -1.1967  1.2176
11357SOL    HW234771   4.731   4.747   4.822 -0.7484  0.4800  0.9261
11358SOL     OW34772   5.409   5.982   6.903  0.5435  0.1334 -0.5196
11358SOL    HW134773   5.481   5.940   6.857  0.8079 -0.4704  0.4304
11358SOL    HW234774   5.442   6.069   6.925  1.1568 -0.3078  0.3268
11359SOL     OW34775   4.110   1.102   0.342 -0.6847 -0.0241 -0.1257
11359SOL    HW134776   4.108   1.022   0.395 -1.9753 -1.5200 -2.2850
11359SOL    HW234777   4.095   1.173   0.405  0.0193 -1.4867  1.7838
11360SOL     OW34778   4.678   0.880   2.805  0.2379 -0.4783  0.0027
11360SOL    HW134779   4.636   0.898   2.889  1.0725  0.4876  0.2335
11360SOL    HW234780   4.766   0.915   2.815  1.5353 -3.4228 -0.0637
11361SOL     OW34781   1.238   7.362   1.203  0.1542  0.5176 -0.0429
11361SOL    HW134782   1.188   7.336   1.281  0.2628  0.1126 -0.1023
11361SOL    HW234783   1.296   7.432   1.233  2.7621 -1.9492  1.1437
11362SOL     OW34784   0.147   2.445   1.180  0.0790  0.3431 -0.3776
11362SOL    HW134785   0.073   2.503   1.193  0.9613  1.3726  0.2319
11362SOL    HW234786   0.141   2.382   1.252 -0.0487  0.5748 -0.1866
11363SOL     OW34787   2.598   4.895   3.037 -0.0442 -0.2340  0.3404
11363SOL    HW134788   2.573   4.833   3.106 -1.3407 -1.7085 -1.3866
11363SOL    HW234789   2.673   4.853   2.993  1.7453  1.3696  1.6585
11364SOL     OW34790   5.714   3.578   1.977 -0.1243 -0.6169 -0.4934
11364SOL    HW134791   5.706   3.490   2.014 -3.3258  0.2730  1.3593
11364SOL    HW234792   5.738   3.634   2.051 -0.0487  0.3481 -1.2158
11365SOL     OW34793   6.482   2.857   5.232  0.0774  0.0849  0.5374
11365SOL    HW134794   6.513   2.824   5.316  0.6489 -1.4809 -0.2534
11365SOL    HW234795   6.451   2.946   5.251  1.9670  0.4923  2.0289
11366SOL     OW34796   4.739   7.564   5.313 -0.0548 -0.0197 -0.1506
11366SOL    HW134797   4.659   7.528   5.275  0.5429 -1.8224  0.2104
11366SOL    HW234798   4.760   7.504   5.385  1.6070  0.4298 -0.2283
11367SOL     OW34799   1.522   0.049   4.426  0.0866 -0.2230  0.2456
11367SOL    HW134800   1.526   0.102   4.346  1.1461 -1.1488 -0.3494
11367SOL    HW234801   1.429   0.027   4.437  0.0205 -0.7780 -1.2233
11368SOL     OW34802   1.216   4.897   2.619 -0.1754  0.1056 -0.8401
11368SOL    HW134803   1.122   4.909   2.612 -0.3088  0.4112  1.1208
11368SOL    HW234804   1.227   4.816   2.668  0.5604  0.5437 -0.2606
11369SOL     OW34805   1.665   2.329   4.719 -0.1582  0.3678 -0.1071
11369SOL    HW134806   1.622   2.395   4.665 -0.8312 -0.3594 -0.4784
11369SOL    HW234807   1.664   2.366   4.807  1.4232  1.7998 -0.6308
11370SOL     OW34808   6.249   7.859   2.791  0.0537  0.0852 -0.4269
11370SOL    HW134809   6.330   7.893   2.752 -1.6672  2.3112 -2.3520
11370SOL    HW234810   6.181   7.920   2.762 -2.4166 -1.9339  0.7337
11371SOL     OW34811   1.836   4.629   3.454  0.0558 -0.6695 -0.5665
11371SOL    HW134812   1.800   4.670   3.533 -0.7909 -0.3847 -1.0918
11371SOL    HW234813   1.806   4.685   3.383  2.1853  0.0441 -0.9819
11372SOL     OW34814   3.900   0.836   3.665 -0.2204  0.3989 -0.3349
11372SOL    HW134815   3.960   0.859   3.736 -0.7692 -0.6961  0.5149
11372SOL    HW234816   3.891   0.741   3.672 -0.5320  0.3148 -1.6876
11373SOL     OW34817   2.741   0.903   4.359  0.2776 -0.4970 -0.1787
11373SOL    HW134818   2.824   0.938   4.327 -0.5395  1.8175  0.0655
11373SOL    HW234819   2.677   0.926   4.292 -0.4747 -0.6850  0.4501
11374SOL     OW34820   3.904   0.105   4.280 -0.1464  0.0282 -0.7161
11374SOL    HW134821   3.995   0.109   4.310 -0.1279 -0.3956 -0.6995
11374SOL    HW234822   3.906   0.039   4.210 -0.4764 -0.1313 -0.5759
11375SOL     OW34823   1.459   2.554   1.090 -0.8298  0.1308 -1.0018
11375SOL    HW134824   1.457   2.646   1.062 -1.2160  1.4281  2.6213
11375SOL    HW234825   1.547   2.543   1.128 -1.2043 -0.5680 -0.3027
11376SOL     OW34826   2.775   5.337   3.122  0.3979 -0.4610  0.2582
11376SOL    HW134827   2.692   5.381   3.110  1.1175  0.4378 -1.8497
11376SOL    HW234828   2.759   5.246   3.096  0.4431  0.0969 -1.8547
11377SOL     OW34829   3.381   1.004   2.377 -0.2309  0.5580  0.0491
11377SOL    HW134830   3.473   1.016   2.400  0.1950 -1.1031 -0.6769
11377SOL    HW234831   3.336   0.997   2.461  0.3981  0.6866  0.4011
11378SOL     OW34832   0.333   6.019   6.628  0.0154 -0.4205  0.6433
11378SOL    HW134833   0.373   5.938   6.658 -3.1944 -1.8175  1.5894
11378SOL    HW234834   0.310   6.002   6.537  0.5118 -0.0474  0.4429
11379SOL     OW34835   5.278   7.518   7.636  0.1167 -0.7650 -0.0038
11379SOL    HW134836   5.370   7.493   7.633  0.5531  0.8125 -0.9007
11379SOL    HW234837   5.277   7.610   7.609 -1.7159 -0.7324  0.0448
11380SOL     OW34838   1.100   1.454   5.756  0.2128 -0.1537 -1.1107
11380SOL    HW134839   1.078   1.417   5.670  0.3813 -3.7107  0.2307
11380SOL    HW234840   1.176   1.405   5.785 -0.5597  0.0922  1.5892
11381SOL     OW34841   3.964   0.463   6.125  0.2031 -0.4197 -0.6702
11381SOL    HW134842   3.924   0.551   6.126  2.2058  0.5367 -0.4985
11381SOL    HW234843   3.907   0.412   6.067 -1.8893  0.5337  0.4433
11382SOL     OW34844   7.922   5.388   5.758  0.0797 -0.8453 -0.5320
11382SOL    HW134845   7.927   5.473   5.800  0.3276 -0.7486 -0.7519
11382SOL    HW234846   8.012   5.355   5.758  0.2480 -0.4576 -1.7522
11383SOL     OW34847   6.485   6.448   4.815  0.5529 -0.2059 -0.1185
11383SOL    HW134848   6.427   6.524   4.827 -0.2768 -0.7771 -0.4081
11383SOL    HW234849   6.480   6.430   4.721  0.8329 -0.5487 -0.0656
11384SOL     OW34850   0.586   7.351   1.217  0.0295 -0.0151  0.3593
11384SOL    HW134851   0.593   7.436   1.261 -0.3598 -0.1472  0.6815
11384SOL    HW234852   0.661   7.348   1.158  0.4007  0.2850  0.8114
11385SOL     OW34853   2.476   1.018   3.013  0.5034 -0.0786  0.6667
11385SOL    HW134854   2.389   0.990   3.041  0.5435 -0.1796  0.6923
11385SOL    HW234855   2.461   1.098   2.963  0.1726 -1.1713 -1.1006
11386SOL     OW34856   3.952   3.059   1.225 -0.1997  0.4964 -0.0381
11386SOL    HW134857   3.953   3.140   1.174 -0.6075 -0.8458 -2.3391
11386SOL    HW234858   3.864   3.056   1.263 -0.0386  1.3126  0.4317
11387SOL     OW34859   6.868   1.154   7.636  0.2326  0.1205 -0.0480
11387SOL    HW134860   6.921   1.124   7.562 -0.8895  0.8340 -1.1641
11387SOL    HW234861   6.839   1.242   7.612 -0.0296  0.4296  1.3137
11388SOL     OW34862   1.867   1.524   5.693  0.3764  0.0145  0.2959
11388SOL    HW134863   1.935   1.497   5.632 -0.1290  2.5416 -1.5170
11388SOL    HW234864   1.913   1.571   5.762  0.6986 -0.5971  0.5026
11389SOL     OW34865   3.584   7.413   5.729 -0.0587 -0.1619  0.5228
11389SOL    HW134866   3.553   7.359   5.802 -1.7159  0.2153  0.1269
11389SOL    HW234867   3.679   7.397   5.727 -0.2043 -1.4152  1.7352
11390SOL     OW34868   2.355   2.795   5.276 -0.0254 -0.1521 -0.1491
11390SOL    HW134869   2.401   2.838   5.349  0.8423  0.2807 -0.9282
11390SOL    HW234870   2.425   2.767   5.217 -0.7479  0.6402 -1.4326
11391SOL     OW34871   2.022   4.476   3.343  0.3809 -0.3508 -0.3815
11391SOL    HW134872   1.951   4.523   3.387  1.9669  1.4453  0.3927
11391SOL    HW234873   1.991   4.386   3.336 -2.3628  0.5518 -0.9509
11392SOL     OW34874   2.240   6.174   4.647 -0.9872  0.7467 -0.2312
11392SOL    HW134875   2.272   6.104   4.589 -1.9472  2.6691 -3.2742
11392SOL    HW234876   2.240   6.133   4.734  1.0923 -2.1445 -1.3947
11393SOL     OW34877   6.250   0.461   0.917 -0.7686 -0.3744  0.7983
11393SOL    HW134878   6.230   0.521   0.845 -0.5800 -1.4018 -0.1544
11393SOL    HW234879   6.216   0.503   0.995 -2.9398 -0.1904 -0.1904
11394SOL     OW34880   2.557   4.807   7.403  0.0746  0.1165 -0.3448
11394SOL    HW134881   2.533   4.840   7.489  1.2239  1.6472 -0.5622
11394SOL    HW234882   2.496   4.736   7.386 -1.6766  1.2896  0.7458
11395SOL     OW34883   3.929   2.397   2.484 -0.1422  0.0492  0.1574
11395SOL    HW134884   3.916   2.337   2.558  1.3170  0.3364  0.6755
11395SOL    HW234885   3.942   2.483   2.524  0.0388  0.3154 -0.4591
11396SOL     OW34886   0.374   5.561   1.289  0.4259  0.3271 -0.4377
11396SOL    HW134887   0.325   5.621   1.232  0.1963  0.5712  0.0099
11396SOL    HW234888   0.426   5.508   1.229  0.0179  0.4304 -0.8873
11397SOL     OW34889   4.807   3.608   2.158  0.5018 -0.1065 -0.0535
11397SOL    HW134890   4.892   3.653   2.156  1.1915 -1.3280  0.7998
11397SOL    HW234891   4.813   3.548   2.232 -0.0040 -2.3487 -1.7218
11398SOL     OW34892   5.545   7.079   1.830  0.3927  0.2281 -0.4001
11398SOL    HW134893   5.595   7.161   1.831 -0.5012  0.8037 -0.5120
11398SOL    HW234894   5.515   7.069   1.921  0.9854 -0.2975 -0.2565
11399SOL     OW34895   1.653   5.627   4.688 -0.5362  0.4601 -0.6336
11399SOL    HW134896   1.652   5.575   4.608 -0.3096 -0.9201  0.2174
11399SOL    HW234897   1.619   5.568   4.756  1.3800  0.7887  0.7182
11400SOL     OW34898   7.833   1.643   4.009  0.1204 -0.2596  0.6304
11400SOL    HW134899   7.907   1.633   3.948 -0.3178 -0.5787  0.1478
11400SOL    HW234900   7.770   1.696   3.962 -1.0321 -2.0633  0.0458
11401SOL     OW34901   2.969   0.523   1.301 -0.4183 -0.6751 -0.2256
11401SOL    HW134902   3.015   0.578   1.364  0.3620 -1.0458 -0.4583
11401SOL    HW234903   3.036   0.499   1.237 -1.5211  0.8961 -2.0556
11402SOL     OW34904   7.081   0.455   5.688  0.0178  0.4500  0.1239
11402SOL    HW134905   7.029   0.391   5.736  0.9632  0.7238  1.5936
11402SOL    HW234906   7.017   0.507   5.640 -1.0785  0.7109  1.7891
11403SOL     OW34907   2.029   7.163   3.765 -0.0035  0.2116 -0.2323
11403SOL    HW134908   2.028   7.080   3.717 -0.4183 -0.0518  0.2215
11403SOL    HW234909   2.102   7.212   3.727 -0.8550  0.3723 -1.7596
11404SOL     OW34910   5.797   7.914   2.505  0.0987 -0.2111  0.2736
11404SOL    HW134911   5.713   7.922   2.550 -1.0326 -0.4129 -1.6895
11404SOL    HW234912   5.810   7.999   2.463 -0.3345 -0.8874 -1.3313
11405SOL     OW34913   0.961   3.995   0.258 -0.1837  0.2160  0.0962
11405SOL    HW134914   0.980   4.078   0.302 -0.5418  0.5824 -0.4270
11405SOL    HW234915   0.995   4.007   0.169  1.1442 -0.7581  0.4399
11406SOL     OW34916   4.308   2.854   0.556 -0.2884  0.2267 -0.2578
11406SOL    HW134917   4.288   2.823   0.645  1.1420 -0.9679 -0.3259
11406SOL    HW234918   4.397   2.889   0.562 -0.5040  0.9399 -1.0400
11407SOL     OW34919   0.485   5.312   4.309  0.3831  0.1225 -0.1666
11407SOL    HW134920   0.562   5.267   4.343 -1.4465 -1.2153  2.4964
11407SOL    HW234921   0.466   5.381   4.373 -0.2802  0.8777 -1.1342
11408SOL     OW34922   0.043   7.914   2.867 -0.4618  0.1033 -0.9966
11408SOL    HW134923  -0.032   7.971   2.881  0.3991  1.3114 -1.1516
11408SOL    HW234924   0.023   7.868   2.786 -1.0638  0.3375 -0.9885
11409SOL     OW34925   6.741   0.481   6.857  0.2196  0.0666  0.4533
11409SOL    HW134926   6.781   0.565   6.879  0.5834  0.2720 -0.9021
11409SOL    HW234927   6.773   0.461   6.769 -2.9289  0.4042 -0.9011
11410SOL     OW34928   4.596   0.854   7.343 -0.4173 -0.2368 -0.9752
11410SOL    HW134929   4.541   0.776   7.337 -2.6741  1.2898 -1.5788
11410SOL    HW234930   4.657   0.835   7.414 -1.5454 -2.1335 -0.4239
11411SOL     OW34931   7.539   0.890   5.397 -0.6039  0.5139 -0.0599
11411SOL    HW134932   7.527   0.873   5.304  2.9543 -3.2462 -0.0718
11411SOL    HW234933   7.479   0.829   5.441  1.1475 -1.2317 -0.0031
11412SOL     OW34934   5.632   3.524   4.865 -0.4962  0.4990  0.0463
11412SOL    HW134935   5.667   3.459   4.926  1.2602  3.2996  2.2702
11412SOL    HW234936   5.708   3.558   4.818 -1.1026  2.0259  0.0968
11413SOL     OW34937   1.258   4.175   6.093 -0.3414  0.6479  0.1445
11413SOL    HW134938   1.310   4.101   6.124 -1.0316  0.3813  0.6846
11413SOL    HW234939   1.323   4.239   6.063  0.2599 -0.5365 -1.2132
11414SOL     OW34940   1.103   1.287   6.252 -0.2515  0.1984 -0.3898
11414SOL    HW134941   1.030   1.345   6.276 -0.0356  0.0835  0.5932
11414SOL    HW234942   1.078   1.202   6.287 -0.3771 -0.2162 -1.4714
11415SOL     OW34943   1.283   6.921   0.470  0.5626  0.2003 -0.0871
11415SOL    HW134944   1.234   6.841   0.492 -1.0129  0.7889 -1.3060
11415SOL    HW234945   1.220   6.992   0.484  1.1196  0.9991 -1.4743
11416SOL     OW34946   0.847   1.359   2.990  0.3587 -0.2270  0.1429
11416SOL    HW134947   0.775   1.386   3.047  0.0221 -2.0120  0.6492
11416SOL    HW234948   0.873   1.438   2.944 -2.5807  0.3357 -0.7717
11417SOL     OW34949   0.744   0.673   4.347  0.8800 -0.8270  0.4038
11417SOL    HW134950   0.793   0.681   4.429  2.1456 -0.6558 -0.3318
11417SOL    HW234951   0.810   0.646   4.283  0.0871 -0.1597 -0.7359
11418SOL     OW34952   1.040   0.727   5.045  0.0599  0.5060  0.5807
11418SOL    HW134953   1.087   0.665   4.989 -0.1092  0.4460  0.5053
11418SOL    HW234954   0.978   0.770   4.986  0.1919  0.7642  0.6259
11419SOL     OW34955   0.789   3.082   3.128  0.3795  0.5037 -0.4256
11419SOL    HW134956   0.795   3.043   3.216 -0.1161 -0.7086 -0.9026
11419SOL    HW234957   0.842   3.161   3.133  0.1574  0.5895  1.0432
11420SOL     OW34958   6.218   0.847   0.550 -0.2299 -0.2052  0.2766
11420SOL    HW134959   6.233   0.887   0.636  0.1401 -0.2564  0.2384
11420SOL    HW234960   6.128   0.815   0.553 -0.5712  0.7251  0.2715
11421SOL     OW34961   6.863   5.880   2.270 -0.1032 -0.0459  0.6072
11421SOL    HW134962   6.782   5.932   2.273 -1.4727 -2.0709  0.7887
11421SOL    HW234963   6.898   5.897   2.182  0.6789  2.7623  1.3596
11422SOL     OW34964   0.703   1.578   6.437  0.4993 -0.5379 -0.4025
11422SOL    HW134965   0.676   1.523   6.363  1.0080 -0.5275 -0.6036
11422SOL    HW234966   0.692   1.668   6.405 -0.4104 -0.5184 -0.0447
11423SOL     OW34967   2.102   5.814   1.361  0.0579  0.4607 -0.2981
11423SOL    HW134968   2.134   5.875   1.428 -0.7738  0.8759 -0.2689
11423SOL    HW234969   2.160   5.738   1.368 -0.5691  0.0990  1.5304
11424SOL     OW34970   5.480   7.672   0.725  0.1605 -0.4566  0.1881
11424SOL    HW134971   5.571   7.701   0.730  0.3806 -1.2733  1.2005
11424SOL    HW234972   5.434   7.745   0.683  0.5511  1.6549  3.1535
11425SOL     OW34973   0.668   3.086   4.361 -0.0539  0.4868  0.4536
11425SOL    HW134974   0.695   3.160   4.307 -0.6184  1.6998  1.7653
11425SOL    HW234975   0.748   3.057   4.404  0.1998  0.2108 -0.1928
11426SOL     OW34976   5.869   0.778   1.008 -0.1596 -0.3571 -0.0736
11426SOL    HW134977   5.848   0.859   0.963  0.6256 -0.1639 -0.1190
11426SOL    HW234978   5.901   0.806   1.094  1.4055 -0.4961 -0.5616
11427SOL     OW34979   1.901   7.474   0.620 -0.6479  0.3870  0.4321
11427SOL    HW134980   1.865   7.444   0.703 -0.5297 -0.2331  0.2649
11427SOL    HW234981   1.995   7.461   0.628 -0.5961  0.7056  0.3507
11428SOL     OW34982   0.685   3.760   7.327 -0.0795  0.1308  0.1360
11428SOL    HW134983   0.596   3.774   7.357  0.1700  1.2519  0.4021
11428SOL    HW234984   0.710   3.674   7.362 -0.9215 -0.0304  0.3475
11429SOL     OW34985   5.975   2.886   6.305  0.0077  0.1822 -0.6654
11429SOL    HW134986   5.884   2.905   6.282 -0.5741 -0.1136  1.2203
11429SOL    HW234987   5.992   2.941   6.382  1.5661  0.5152 -1.2126
11430SOL     OW34988   3.754   6.530   0.656 -0.1438  0.3304  0.1607
11430SOL    HW134989   3.777   6.515   0.748 -0.4627 -1.6140 -0.0379
11430SOL    HW234990   3.752   6.625   0.647  0.5778  0.5549  1.9915
11431SOL     OW34991   3.285   4.580   4.680  0.1714 -0.1004 -0.4666
11431SOL    HW134992   3.306   4.487   4.671  0.1635 -0.0373 -1.2047
11431SOL    HW234993   3.362   4.625   4.647  0.4497  0.1693  0.5281
11432SOL     OW34994   0.844   3.350   5.982  0.1303 -0.1171  0.0572
11432SOL    HW134995   0.772   3.294   6.010  0.1785 -1.0951 -1.6795
11432SOL    HW234996   0.802   3.424   5.939  0.1337  0.2439  0.6537
11433SOL     OW34997   1.137   3.857   2.273 -0.1783 -0.3990  0.2495
11433SOL    HW134998   1.051   3.866   2.232 -0.5353 -0.6825  0.9081
11433SOL    HW234999   1.137   3.767   2.307  0.6552 -0.6396 -0.3534
11434SOL     OW35000   3.124   5.701   2.312 -0.5405 -0.3376  0.1274
11434SOL    HW135001   3.091   5.666   2.394  0.5984  0.2326  0.8619
11434SOL    HW235002   3.176   5.777   2.337 -1.9951  1.2328 -1.3156
11435SOL     OW35003   6.198   0.945   0.824 -0.2930 -0.8326 -0.0956
11435SOL    HW135004   6.268   1.007   0.846  1.2603 -1.8527 -1.8819
11435SOL    HW235005   6.118   0.998   0.825  0.5022  0.4268  1.7352
11436SOL     OW35006   4.538   1.359   6.052  0.2257 -0.1796  0.1918
11436SOL    HW135007   4.496   1.414   5.986  0.1580 -1.7063 -1.1055
11436SOL    HW235008   4.607   1.414   6.089  1.0224  0.3665 -1.9722
11437SOL     OW35009   6.441   0.019   3.103 -0.7594  0.0041  0.0471
11437SOL    HW135010   6.405   0.108   3.101 -1.3976 -0.2544 -0.3903
11437SOL    HW235011   6.491   0.011   3.021  1.2088  0.7118  1.1211
11438SOL     OW35012   2.353   7.867   4.795  0.4579  0.1715  0.0571
11438SOL    HW135013   2.435   7.817   4.789  1.9169  2.4242  0.0465
11438SOL    HW235014   2.325   7.877   4.704  0.0524 -0.7230  0.0692
11439SOL     OW35015   1.022   1.171   3.778 -0.0685  0.4304  0.8197
11439SOL    HW135016   0.948   1.137   3.727  1.5615 -1.3690 -0.5110
11439SOL    HW235017   1.041   1.256   3.740 -0.1903  0.0104 -0.2022
11440SOL     OW35018   3.714   1.179   0.527 -0.3526 -0.3631  0.2087
11440SOL    HW135019   3.633   1.156   0.483  0.0124  1.8087 -1.7617
11440SOL    HW235020   3.692   1.176   0.621 -2.5818 -0.1960 -0.2631
11441SOL     OW35021   3.914   5.387   1.838  0.3941 -0.2735 -0.2361
11441SOL    HW135022   3.842   5.448   1.822  0.1098 -0.7808 -0.8937
11441SOL    HW235023   3.992   5.442   1.839  0.3945 -0.1184 -2.8743
11442SOL     OW35024   6.869   1.999   6.212 -0.2364  0.7834 -0.4975
11442SOL    HW135025   6.905   1.994   6.300 -0.4882 -1.6486 -0.4803
11442SOL    HW235026   6.783   2.041   6.224 -0.2234  0.5704  0.3987
11443SOL     OW35027   5.426   6.633   6.616 -0.0760  0.0247  0.3676
11443SOL    HW135028   5.395   6.723   6.626 -2.0062 -0.6020  0.3212
11443SOL    HW235029   5.465   6.631   6.528 -3.7865 -0.1353 -1.4658
11444SOL     OW35030   4.725   4.872   7.787 -0.5777  0.9566  0.3036
11444SOL    HW135031   4.753   4.953   7.745 -0.5028  1.2059  0.8253
11444SOL    HW235032   4.653   4.841   7.733  1.2559 -0.2027 -1.6308
11445SOL     OW35033   3.141   5.411   2.300 -0.1400  0.3666  0.5175
11445SOL    HW135034   3.173   5.377   2.384 -0.4061  1.0484  0.9018
11445SOL    HW235035   3.154   5.505   2.306 -1.5617  0.5809  0.3932
11446SOL     OW35036   2.802   3.432   1.725 -0.5667  0.2842  0.4896
11446SOL    HW135037   2.762   3.406   1.808  0.7779  0.2319  1.1336
11446SOL    HW235038   2.880   3.377   1.717 -1.0760 -0.2654 -1.2015
11447SOL     OW35039   5.165   1.190   7.058 -0.0090  0.3324 -0.0124
11447SOL    HW135040   5.215   1.208   7.137  1.4864 -0.9344 -0.6245
11447SOL    HW235041   5.187   1.262   6.999 -0.0245  0.5324  0.2247
11448SOL     OW35042   7.575   5.853   3.716  0.1318 -0.2921  0.0395
11448SOL    HW135043   7.648   5.909   3.744  0.7933 -1.1286  0.0317
11448SOL    HW235044   7.497   5.900   3.744  0.6511  0.8004 -0.2612
11449SOL     OW35045   4.835   6.545   0.588 -0.1571  0.4069 -0.2128
11449SOL    HW135046   4.765   6.532   0.523 -1.1155 -0.4545  0.9538
11449SOL    HW235047   4.890   6.467   0.578 -0.9466 -0.3043  0.7454
11450SOL     OW35048   3.552   6.852   2.041 -0.1992 -0.6156 -0.2785
11450SOL    HW135049   3.503   6.842   1.960  0.7407  0.2833 -0.9841
11450SOL    HW235050   3.602   6.771   2.049 -0.8275 -1.0025 -0.2142
11451SOL     OW35051   5.334   1.651   2.276 -0.1341 -0.1152 -0.2342
11451SOL    HW135052   5.415   1.657   2.326  0.3978  1.2709 -1.1960
11451SOL    HW235053   5.271   1.613   2.337  1.5467 -2.6739  0.0927
11452SOL     OW35054   4.901   4.293   1.268  0.5714  0.1043 -0.5514
11452SOL    HW135055   4.819   4.248   1.289  0.8513  0.4237  1.3434
11452SOL    HW235056   4.929   4.254   1.185 -0.9377 -0.7717 -0.6817
11453SOL     OW35057   6.445   5.202   5.512 -0.2278  0.6543 -0.2091
11453SOL    HW135058   6.502   5.127   5.493 -0.2957  1.0750 -2.3072
11453SOL    HW235059   6.493   5.251   5.579  2.0854  1.1006 -2.0251
11454SOL     OW35060   5.580   0.935   3.356 -0.1094 -0.1509  0.3491
11454SOL    HW135061   5.630   0.853   3.363  1.9520  1.0321  0.2778
11454SOL    HW235062   5.635   0.992   3.302 -2.7417  0.4232 -1.9110
11455SOL     OW35063   7.370   1.300   7.180  0.2987  0.0190  0.0210
11455SOL    HW135064   7.397   1.233   7.243 -2.7813 -0.3353  1.0957
11455SOL    HW235065   7.275   1.291   7.174  0.2575  1.3569 -3.2473
11456SOL     OW35066   1.557   1.097   2.176  0.0405  0.8082  0.3622
11456SOL    HW135067   1.581   1.078   2.085 -0.6332  1.6095 -0.0001
11456SOL    HW235068   1.552   1.011   2.218  3.6173  0.5178  0.5333
11457SOL     OW35069   3.789   3.605   6.214 -0.6818  0.0290  0.6696
11457SOL    HW135070   3.716   3.611   6.276  0.1236 -0.1577  1.6639
11457SOL    HW235071   3.845   3.537   6.251  0.6556  1.0794  0.6202
11458SOL     OW35072   0.658   5.191   4.484  0.1962 -0.7098 -0.5510
11458SOL    HW135073   0.712   5.251   4.535 -1.0895  0.6952 -0.7640
11458SOL    HW235074   0.582   5.173   4.540 -0.8859  0.2867 -1.6312
11459SOL     OW35075   3.741   7.062   2.073  0.2988 -0.1561 -0.0083
11459SOL    HW135076   3.676   6.992   2.078  1.3569 -1.1175  1.4197
11459SOL    HW235077   3.690   7.142   2.071 -0.9717 -0.9437 -2.5501
11460SOL     OW35078   5.120   3.638   0.236  0.3464  0.1876  0.1214
11460SOL    HW135079   5.035   3.679   0.228 -0.2225 -0.9903 -0.1224
11460SOL    HW235080   5.113   3.558   0.183  1.5336 -0.0256  0.2573
11461SOL     OW35081   7.084   3.747   6.136 -0.2800 -0.1682  0.5976
11461SOL    HW135082   7.075   3.678   6.202  0.4258  0.1682  1.0553
11461SOL    HW235083   7.030   3.717   6.063 -1.0011 -0.5894  1.2901
11462SOL     OW35084   6.223   1.877   2.086  0.0272  0.1749  0.5388
11462SOL    HW135085   6.215   1.956   2.139 -0.6143  0.0674  0.6053
11462SOL    HW235086   6.184   1.808   2.140 -0.4825  0.0347 -0.0103
11463SOL     OW35087   6.467   6.483   3.274  0.2864  0.2466  0.5975
11463SOL    HW135088   6.415   6.444   3.203 -0.6583 -1.3641  2.0912
11463SOL    HW235089   6.429   6.570   3.286  0.3728  0.4944 -0.7583
11464SOL     OW35090   2.048   7.500   3.525 -0.5407  0.0120  0.6769
11464SOL    HW135091   1.986   7.532   3.590 -2.3741 -0.5434 -0.6813
11464SOL    HW235092   1.998   7.436   3.474  1.0648 -0.2321 -0.6969
11465SOL     OW35093   6.742   3.905   2.310  0.2241  0.3510  0.1968
11465SOL    HW135094   6.829   3.937   2.287  0.6699 -0.9292 -0.0132
11465SOL    HW235095   6.748   3.881   2.402  0.8216 -1.8748 -0.3652
11466SOL     OW35096   0.536   5.741   0.112  0.5020  0.2511  0.1744
11466SOL    HW135097   0.487   5.776   0.186 -0.7243  0.2498 -0.6004
11466SOL    HW235098   0.505   5.651   0.104  1.2205  0.0045  0.1502
11467SOL     OW35099   7.583   3.378   7.039 -0.1823 -0.0501  0.1913
11467SOL    HW135100   7.660   3.435   7.029  0.3768 -1.0039 -1.1909
11467SOL    HW235101   7.582   3.325   6.960 -0.6557 -2.0078  1.4482
11468SOL     OW35102   0.322   4.999   3.719 -0.0154  0.2951  0.7943
11468SOL    HW135103   0.238   4.969   3.682  1.1711 -0.9247 -1.0750
11468SOL    HW235104   0.337   4.941   3.794  0.0809 -0.8618 -0.0818
11469SOL     OW35105   5.266   1.026   0.401  0.3484 -0.2494 -0.6932
11469SOL    HW135106   5.246   0.933   0.415 -2.6630  0.5866  1.8917
11469SOL    HW235107   5.185   1.063   0.366 -0.3580  2.1284  2.9215
11470SOL     OW35108   1.746   2.895   0.775 -0.7880 -0.0229  0.1728
11470SOL    HW135109   1.669   2.952   0.771 -0.6821  0.0373 -2.6568
11470SOL    HW235110   1.750   2.868   0.867 -1.9954  2.9091  1.2132
11471SOL     OW35111   3.549   2.719   1.609  0.0201 -0.3135 -0.2944
11471SOL    HW135112   3.517   2.719   1.699  1.9978  0.0362  0.4541
11471SOL    HW235113   3.592   2.634   1.599 -0.6179 -0.5523 -1.0847
11472SOL     OW35114   7.453   3.662   6.751  0.3757  0.1702 -0.4010
11472SOL    HW135115   7.471   3.739   6.696  0.7880  1.0644  0.9457
11472SOL    HW235116   7.438   3.698   6.838  2.2722 -1.3924  0.6325
11473SOL     OW35117   4.091   7.660   3.195  0.0671  0.0804  0.8571
11473SOL    HW135118   4.183   7.660   3.168 -0.7565  2.2509 -2.6513
11473SOL    HW235119   4.072   7.752   3.216 -1.3859 -0.2567  1.1293
11474SOL     OW35120   2.142   3.424   0.643  0.6521 -0.1123  0.0557
11474SOL    HW135121   2.135   3.510   0.601  1.2057 -0.1435 -0.0977
11474SOL    HW235122   2.183   3.369   0.577  2.0812 -0.0164  0.8486
11475SOL     OW35123   4.887   5.202   6.180  0.4431  0.3947  0.1934
11475SOL    HW135124   4.914   5.202   6.272  0.3562 -1.0017  0.2455
11475SOL    HW235125   4.968   5.186   6.131  0.6923  2.3156 -0.0750
11476SOL     OW35126   2.331   6.167   3.499 -0.3292  0.5235  0.0749
11476SOL    HW135127   2.352   6.168   3.405 -0.5968  0.4468  0.0115
11476SOL    HW235128   2.236   6.152   3.501 -0.2280 -0.1116  0.3670
11477SOL     OW35129   3.964   1.848   3.384 -0.5983 -0.2211 -0.2870
11477SOL    HW135130   3.896   1.784   3.362 -1.3711  0.5932 -0.3462
11477SOL    HW235131   3.947   1.921   3.324  1.1006 -0.4855 -1.1609
11478SOL     OW35132   1.809   6.910   6.973  0.3876 -0.4515 -0.0663
11478SOL    HW135133   1.721   6.948   6.972 -0.0768 -1.3415  1.9210
11478SOL    HW235134   1.854   6.956   7.044  1.4286 -0.2567 -0.8347
11479SOL     OW35135   6.285   2.229   1.448 -0.1078 -0.2555 -0.2701
11479SOL    HW135136   6.249   2.186   1.370  0.6082  0.7548 -1.1838
11479SOL    HW235137   6.361   2.175   1.472 -1.3984 -1.6393  0.8826
11480SOL     OW35138   7.356   1.242   2.997  0.1303 -0.5229  0.1131
11480SOL    HW135139   7.446   1.209   2.998  1.1654  1.2909 -4.6170
11480SOL    HW235140   7.363   1.332   3.029  0.4363  0.1316 -1.6483
11481SOL     OW35141   7.651   3.536   0.185 -0.0772 -0.4651 -0.3147
11481SOL    HW135142   7.655   3.487   0.103  1.2498  0.4409 -0.8199
11481SOL    HW235143   7.582   3.493   0.235  0.0325 -1.9074 -1.3368
11482SOL     OW35144   7.204   5.162   3.444 -0.0386 -0.2264 -0.6241
11482SOL    HW135145   7.155   5.094   3.489  0.5008 -0.4658 -0.3861
11482SOL    HW235146   7.296   5.143   3.465  0.1238  0.5055 -0.6431
11483SOL     OW35147   1.089   2.219   5.078  0.1010  0.1445 -0.3858
11483SOL    HW135148   1.076   2.126   5.092 -0.6286  0.2546 -0.3262
11483SOL    HW235149   1.147   2.246   5.149  0.2264 -0.2373 -0.3402
11484SOL     OW35150   0.797   3.234   5.666 -0.0477 -0.1437  0.7219
11484SOL    HW135151   0.796   3.159   5.725  0.2933  0.8571  2.0644
11484SOL    HW235152   0.752   3.304   5.714 -0.9396  0.3549 -0.7499
11485SOL     OW35153   7.815   4.871   7.935 -0.4780 -0.2383  0.2766
11485SOL    HW135154   7.733   4.915   7.960 -0.6611 -0.3404 -0.1432
11485SOL    HW235155   7.799   4.839   7.846  0.8972  1.9944 -0.8794
11486SOL     OW35156   1.023   6.601   5.200  0.4306 -0.0305  0.3295
11486SOL    HW135157   0.971   6.673   5.166  1.3572  0.2236 -0.6016
11486SOL    HW235158   1.011   6.530   5.138  0.8077 -0.1338  0.3721
11487SOL     OW35159   5.428   6.786   2.060 -0.4369  0.2060 -0.1524
11487SOL    HW135160   5.519   6.761   2.042 -0.0655  0.8860  0.6367
11487SOL    HW235161   5.436   6.872   2.102 -1.4007 -0.0488  0.5807
11488SOL     OW35162   4.008   5.296   0.377  0.6969 -0.2342 -0.4790
11488SOL    HW135163   4.041   5.207   0.378  0.3823 -0.3611 -0.8798
11488SOL    HW235164   4.078   5.347   0.336  0.5573 -0.4340 -0.9719
11489SOL     OW35165   6.884   6.896   1.278 -0.7999  0.3424 -0.4226
11489SOL    HW135166   6.848   6.957   1.214  0.5918  0.5808 -1.0208
11489SOL    HW235167   6.963   6.939   1.311  0.4083 -1.2233 -1.1005
11490SOL     OW35168   3.801   3.753   0.253 -0.1866  0.7658  0.1199
11490SOL    HW135169   3.791   3.740   0.159 -2.1851  0.6259  0.3129
11490SOL    HW235170   3.812   3.847   0.264  2.4112  0.6090 -0.3700
11491SOL     OW35171   7.445   0.347   5.307  0.0051  0.5030  0.5415
11491SOL    HW135172   7.383   0.364   5.378  1.2201  0.6174  1.6238
11491SOL    HW235173   7.523   0.397   5.332 -0.2156  2.2784 -1.9314
11492SOL     OW35174   7.143   0.337   2.280  0.0374  0.4215  0.6083
11492SOL    HW135175   7.129   0.431   2.295 -1.6975  0.1428  0.9813
11492SOL    HW235176   7.101   0.320   2.195 -0.9784 -0.2599  1.2202
11493SOL     OW35177   7.323   3.623   2.011 -0.2802 -0.4328  0.1274
11493SOL    HW135178   7.246   3.578   2.046 -0.4999  0.0985  0.3381
11493SOL    HW235179   7.348   3.572   1.934 -1.3544 -0.1179 -0.4375
11494SOL     OW35180   0.067   0.511   1.645  0.4888  0.1225 -0.4091
11494SOL    HW135181   0.100   0.423   1.628  0.2879  0.4912 -3.2036
11494SOL    HW235182   0.142   0.559   1.677  1.1892 -0.5311 -1.0144
11495SOL     OW35183   0.137   0.516   3.415  0.7017 -0.1910 -0.1404
11495SOL    HW135184   0.170   0.569   3.343  1.1685  0.6954  0.7056
11495SOL    HW235185   0.052   0.484   3.384  0.6792  0.5634 -0.8907
11496SOL     OW35186   6.243   7.182   7.102 -0.4516 -0.2326 -0.5924
11496SOL    HW135187   6.210   7.093   7.087 -1.4724  0.0198  0.0099
11496SOL    HW235188   6.184   7.218   7.168 -0.0064  0.8721 -0.7744
11497SOL     OW35189   7.439   2.490   1.610  0.3191 -0.3618  0.8329
11497SOL    HW135190   7.487   2.511   1.530  1.3726 -1.2195  1.2159
11497SOL    HW235191   7.499   2.435   1.660 -1.5894 -2.7135  0.6932
11498SOL     OW35192   4.117   5.275   4.467  0.5810  0.3768  0.4874
11498SOL    HW135193   4.076   5.285   4.553 -0.7039  0.0208 -0.0619
11498SOL    HW235194   4.209   5.298   4.482  0.8152 -1.4400  2.3647
11499SOL     OW35195   3.087   1.504   1.395 -0.0772  0.5988 -0.5179
11499SOL    HW135196   3.024   1.479   1.327 -1.5538  0.7435  0.7319
11499SOL    HW235197   3.033   1.516   1.474  1.8551 -2.9693  1.6188
11500SOL     OW35198   0.876   0.645   0.551  0.0508 -0.7065 -0.0335
11500SOL    HW135199   0.863   0.570   0.610  0.2102  0.3034  1.3375
11500SOL    HW235200   0.799   0.701   0.566  0.8704  0.3340  0.4322
11501SOL     OW35201   5.418   2.491   7.843  0.2363  0.1323 -0.0245
11501SOL    HW135202   5.440   2.456   7.929 -0.8695  1.1087  0.6935
11501SOL    HW235203   5.425   2.416   7.784  3.0419 -0.1236  0.4945
11502SOL     OW35204   3.448   0.830   0.278  0.0949  0.0327  0.2433
11502SOL    HW135205   3.508   0.805   0.208  2.0047  1.7039  1.1947
11502SOL    HW235206   3.461   0.764   0.346  3.5560  2.1000  1.8694
11503SOL     OW35207   3.506   3.878   0.172 -0.0598  0.1784 -0.4911
11503SOL    HW135208   3.520   3.784   0.168  0.2128  0.1835  0.2143
11503SOL    HW235209   3.548   3.905   0.254 -0.5295  0.8406 -0.4602
11504SOL     OW35210   0.044   4.476   4.890  0.1322 -0.2945  0.6228
11504SOL    HW135211   0.003   4.545   4.837  0.0561 -0.8820 -0.0933
11504SOL    HW235212   0.045   4.512   4.979  0.8418  0.9722  0.1377
11505SOL     OW35213   6.774   7.705   4.333  0.0705 -0.8212  0.1044
11505SOL    HW135214   6.759   7.770   4.402 -0.1104  0.7542 -1.3520
11505SOL    HW235215   6.857   7.730   4.294 -0.4252 -0.9115 -1.0511
11506SOL     OW35216   5.946   3.132   6.161  0.0373 -0.2920 -0.0838
11506SOL    HW135217   5.872   3.077   6.186 -0.1460 -0.8106 -1.6819
11506SOL    HW235218   6.021   3.093   6.205 -0.3888 -0.6572  0.3324
11507SOL     OW35219   0.688   7.012   6.730  0.2060  0.5084 -0.1919
11507SOL    HW135220   0.596   6.994   6.715 -0.2733  0.9518  2.0070
11507SOL    HW235221   0.713   6.957   6.804  0.9541  2.3854  1.0344
11508SOL     OW35222   5.594   7.064   6.766  0.0437  0.0588  0.5103
11508SOL    HW135223   5.587   7.103   6.853 -1.2815  0.4571  0.2511
11508SOL    HW235224   5.590   6.970   6.781  1.3387  0.0560  0.9817
11509SOL     OW35225   7.279   7.646   2.315 -0.0444 -0.1542 -0.1517
11509SOL    HW135226   7.327   7.719   2.276 -0.3032 -0.6190 -1.3963
11509SOL    HW235227   7.187   7.672   2.307 -0.0734  0.1341  0.9853
11510SOL     OW35228   6.485   0.055   6.991 -0.1084  0.5244  0.1597
11510SOL    HW135229   6.493   0.150   6.983 -0.7022  0.6634  1.0349
11510SOL    HW235230   6.413   0.042   7.053  0.5556 -0.4777  0.7639
11511SOL     OW35231   5.697   2.710   2.091  0.2241 -0.4273 -0.5198
11511SOL    HW135232   5.757   2.696   2.165 -0.7545 -0.7869  0.2334
11511SOL    HW235233   5.620   2.658   2.113 -0.3242 -0.0572 -1.5168
11512SOL     OW35234   5.302   5.964   5.200 -0.2323 -0.3262 -0.1613
11512SOL    HW135235   5.265   5.875   5.204 -2.2575  0.3687 -1.7304
11512SOL    HW235236   5.230   6.021   5.229  0.7701  0.8794  0.0469
11513SOL     OW35237   1.488   0.355   4.204 -0.4265  0.3247 -0.2627
11513SOL    HW135238   1.570   0.404   4.201 -1.2265  1.6514 -1.5898
11513SOL    HW235239   1.503   0.278   4.149  0.4599 -0.3732  0.9101
11514SOL     OW35240   1.244   5.852   1.179  0.2245  0.1658 -0.2945
11514SOL    HW135241   1.190   5.773   1.181  1.0239 -0.3939  0.6783
11514SOL    HW235242   1.315   5.831   1.119  1.4235 -0.5774  1.3132
11515SOL     OW35243   0.329   2.084   4.391  0.1989 -0.4109  0.8061
11515SOL    HW135244   0.288   2.001   4.367  0.9811 -1.1495  1.9363
11515SOL    HW235245   0.345   2.077   4.485  1.9744  0.2581  0.5877
11516SOL     OW35246   2.432   6.083   4.215  0.4105  0.2214  0.0540
11516SOL    HW135247   2.442   6.151   4.281 -0.4744 -0.6745  1.1752
11516SOL    HW235248   2.466   6.121   4.134  1.0709  1.5272  0.9211
11517SOL     OW35249   6.243   7.618   0.084 -0.2728  0.4778  0.0787
11517SOL    HW135250   6.235   7.524   0.095 -0.6706  0.4197 -0.6600
11517SOL    HW235251   6.258   7.651   0.173 -0.9855 -0.1966  0.4685
11518SOL     OW35252   2.006   5.003   1.761  0.1091  0.3482  0.1871
11518SOL    HW135253   2.011   5.097   1.782  1.2216 -0.2492  3.0591
11518SOL    HW235254   2.061   4.993   1.684 -1.2470  2.2399 -1.1169
11519SOL     OW35255   3.021   6.882   2.948 -0.6763 -0.1842 -0.1004
11519SOL    HW135256   3.065   6.803   2.981 -0.4571  0.2446  0.6604
11519SOL    HW235257   2.953   6.900   3.013  0.8498  1.6428  1.0910
11520SOL     OW35258   0.381   4.536   1.929 -0.1298 -0.3947  0.2225
11520SOL    HW135259   0.473   4.563   1.929 -0.1370 -0.3681  0.3565
11520SOL    HW235260   0.371   4.485   2.009 -0.7065  1.2564  1.2556
11521SOL     OW35261   2.499   6.167   6.938  0.5863  0.1829 -0.2810
11521SOL    HW135262   2.568   6.217   6.895  0.2493  0.7502 -0.1851
11521SOL    HW235263   2.505   6.192   7.030  1.4057 -1.1475  0.0406
11522SOL     OW35264   0.887   5.583   6.061 -0.3894  0.3022  1.0349
11522SOL    HW135265   0.950   5.629   6.006 -1.1256 -2.2445 -2.2749
11522SOL    HW235266   0.940   5.538   6.127  1.4902 -1.9290 -1.7637
11523SOL     OW35267   3.668   2.029   7.757 -0.4542  0.0382  0.5403
11523SOL    HW135268   3.689   2.121   7.741 -0.5340  0.1083  0.8249
11523SOL    HW235269   3.734   2.000   7.820 -1.0934  0.2187  1.3234
11524SOL     OW35270   5.993   2.037   0.793  0.3378 -0.4732 -0.5619
11524SOL    HW135271   5.964   2.076   0.875 -0.7455  0.1632 -1.2180
11524SOL    HW235272   6.041   2.106   0.748  0.4224 -0.6306 -0.7167
11525SOL     OW35273   4.474   5.902   4.728  0.0895  0.5281 -0.2246
11525SOL    HW135274   4.511   5.969   4.670  1.6453 -0.0353  0.0714
11525SOL    HW235275   4.460   5.826   4.672  1.7624 -0.0775  0.1019
11526SOL     OW35276   3.596   7.281   0.148  0.0612  0.1522 -0.5699
11526SOL    HW135277   3.555   7.246   0.228 -0.8485  1.6350 -0.3576
11526SOL    HW235278   3.558   7.229   0.077  0.3466 -0.7025 -0.1226
11527SOL     OW35279   5.632   5.852   7.760  0.1421 -0.2219  0.4496
11527SOL    HW135280   5.555   5.855   7.818  0.0641 -1.3376  0.4269
11527SOL    HW235281   5.606   5.793   7.689 -0.4701  2.5828 -1.8279
11528SOL     OW35282   6.497   6.804   1.852 -0.3436 -0.3358  0.4892
11528SOL    HW135283   6.516   6.871   1.918 -1.9797  2.4902 -1.6567
11528SOL    HW235284   6.420   6.759   1.886 -2.6002  2.6077 -0.2788
11529SOL     OW35285   7.711   5.832   1.718  0.4320 -0.0366 -0.1281
11529SOL    HW135286   7.743   5.799   1.802  1.8002  2.6020  0.5285
11529SOL    HW235287   7.633   5.781   1.699 -0.9148  0.3634  3.6138
11530SOL     OW35288   2.629   7.402   4.357  0.0887  0.5074 -0.4725
11530SOL    HW135289   2.710   7.354   4.340 -0.0180 -0.0030  0.4267
11530SOL    HW235290   2.571   7.378   4.284  0.4701  0.2621 -0.6961
11531SOL     OW35291   0.377   2.837   1.072  0.1656 -0.0484  0.6415
11531SOL    HW135292   0.348   2.923   1.042 -0.6558 -0.4097  0.3551
11531SOL    HW235293   0.389   2.787   0.992 -0.0107 -0.3971  0.8307
11532SOL     OW35294   4.294   3.598   5.712 -0.1859  0.4774  0.2633
11532SOL    HW135295   4.374   3.577   5.760 -0.7135  1.5187  1.6563
11532SOL    HW235296   4.277   3.520   5.658  1.4213  0.0153  0.3865
11533SOL     OW35297   2.253   4.240   2.410 -0.5185  0.2198 -0.0871
11533SOL    HW135298   2.295   4.277   2.332 -0.9974 -1.9147 -1.4413
11533SOL    HW235299   2.169   4.285   2.416 -0.4838  0.3917 -0.8091
11534SOL     OW35300   5.452   4.795   2.001  0.2486  0.2554 -0.1322
11534SOL    HW135301   5.377   4.807   1.942 -0.0260  0.2013  0.2013
11534SOL    HW235302   5.458   4.700   2.012  0.4146  0.2563 -0.2198
11535SOL     OW35303   4.023   0.118   6.887 -0.3041  0.0543  0.1621
11535SOL    HW135304   3.954   0.177   6.917 -0.3202  0.1481 -0.0533
11535SOL    HW235305   3.978   0.036   6.866 -0.0916 -0.5266  1.8117
11536SOL     OW35306   0.078   4.075   2.828 -0.3722  0.2448 -0.3893
11536SOL    HW135307   0.149   4.130   2.862 -1.6215  1.3498  0.5561
11536SOL    HW235308   0.007   4.137   2.810 -1.8288 -1.0232  0.6906
11537SOL     OW35309   3.788   0.456   2.164  0.0969  0.5796  0.3088
11537SOL    HW135310   3.811   0.392   2.097  2.9255  1.1500  0.6131
11537SOL    HW235311   3.872   0.487   2.198 -1.1915  3.0805  1.4989
11538SOL     OW35312   1.000   4.097   1.994 -0.0166 -0.2955 -0.3376
11538SOL    HW135313   0.976   4.014   2.035  0.9980  0.0387  1.0030
11538SOL    HW235314   1.001   4.160   2.066  0.3884  0.6350 -1.1338
11539SOL     OW35315   6.808   7.182   0.747  0.7156 -0.1676 -0.3598
11539SOL    HW135316   6.846   7.216   0.828  2.0653 -1.6675 -0.3101
11539SOL    HW235317   6.723   7.147   0.773  0.6692  0.3326  0.1789
11540SOL     OW35318   7.946   4.116   4.475 -0.1211 -0.1195 -0.4888
11540SOL    HW135319   7.933   4.105   4.569  0.4296  0.3179 -0.3571
11540SOL    HW235320   7.939   4.028   4.439  0.6239 -0.4155  0.0812
11541SOL     OW35321   3.194   1.811   6.778  0.2357 -0.4688 -0.6921
11541SOL    HW135322   3.119   1.868   6.797 -0.4639 -1.4824 -0.3467
11541SOL    HW235323   3.182   1.786   6.687 -1.6479 -3.1286  0.1521
11542SOL     OW35324   7.398   3.763   6.270  0.5069 -0.1375 -0.4407
11542SOL    HW135325   7.367   3.811   6.193 -0.5362 -0.7594 -0.4398
11542SOL    HW235326   7.390   3.670   6.245  1.3091 -0.3287 -0.0083
11543SOL     OW35327   1.968   3.119   2.603  0.0397  1.0227 -0.0310
11543SOL    HW135328   1.922   3.036   2.592  2.0303 -0.0904 -0.6652
11543SOL    HW235329   1.935   3.155   2.685 -0.4505 -0.7014  0.5738
11544SOL     OW35330   7.638   7.636   7.568  0.1409 -0.1217  0.1188
11544SOL    HW135331   7.595   7.700   7.624  0.9476  0.2800  0.2926
11544SOL    HW235332   7.667   7.685   7.491 -2.9277 -1.0667 -1.8060
11545SOL     OW35333   6.375   3.337   1.758  0.6943  0.2908  0.1142
11545SOL    HW135334   6.458   3.338   1.806  1.8904  0.1500 -1.8605
11545SOL    HW235335   6.391   3.391   1.681 -0.2471 -1.6073 -1.5133
11546SOL     OW35336   3.662   2.787   2.759 -0.5000  0.1565 -0.1670
11546SOL    HW135337   3.602   2.720   2.725 -0.7471  0.7596 -0.9733
11546SOL    HW235338   3.635   2.867   2.714  0.5415  0.5587 -0.0960
11547SOL     OW35339   5.326   7.782   4.146  0.3293 -0.1787 -0.3763
11547SOL    HW135340   5.304   7.693   4.172 -0.4238  0.2025  0.3355
11547SOL    HW235341   5.418   7.792   4.171  0.4393 -0.7675 -0.5177
11548SOL     OW35342   3.848   3.261   2.451  0.4423 -0.3146  0.0526
11548SOL    HW135343   3.847   3.353   2.478  0.8022  0.6787 -2.9569
11548SOL    HW235344   3.772   3.222   2.496  2.2732  0.4107  4.2402
11549SOL     OW35345   2.314   7.323   6.975  0.3701 -0.2871 -0.6249
11549SOL    HW135346   2.251   7.392   6.996  0.4712 -0.6679  1.1353
11549SOL    HW235347   2.261   7.250   6.942 -0.2687 -0.8435  1.4413
11550SOL     OW35348   6.842   1.246   1.268 -0.3190  0.1617  0.3741
11550SOL    HW135349   6.827   1.177   1.334  0.0386  0.6154  0.9415
11550SOL    HW235350   6.884   1.200   1.195 -2.6059 -0.7577 -0.4468
11551SOL     OW35351   7.138   1.422   3.294 -0.1591 -0.2873 -0.2249
11551SOL    HW135352   7.108   1.434   3.384  0.0668 -0.3010 -0.1478
11551SOL    HW235353   7.178   1.335   3.294 -0.6596 -0.5245 -0.4765
11552SOL     OW35354   0.941   4.214   3.147 -0.9157 -0.1871 -0.0362
11552SOL    HW135355   1.007   4.170   3.093 -0.8590  1.1063 -1.0882
11552SOL    HW235356   0.857   4.186   3.111 -0.8886  0.0649 -0.3015
11553SOL     OW35357   3.437   2.369   5.451 -0.0587  0.4343 -0.0086
11553SOL    HW135358   3.397   2.308   5.389 -0.3846  0.0959  0.5264
11553SOL    HW235359   3.516   2.400   5.406 -0.1233 -0.0429 -0.4656
11554SOL     OW35360   7.451   4.550   2.322 -0.4090  0.7477 -0.3507
11554SOL    HW135361   7.485   4.640   2.326 -0.8314  0.9178 -0.4117
11554SOL    HW235362   7.366   4.559   2.278 -1.5129  0.6691  1.6241
11555SOL     OW35363   4.364   7.968   1.865 -0.5551 -0.0181  0.9815
11555SOL    HW135364   4.384   7.964   1.771  0.6750  1.9632  1.1118
11555SOL    HW235365   4.350   7.877   1.890  1.8994 -0.8995 -0.5321
11556SOL     OW35366   5.453   7.929   2.284 -0.3181  0.1764  0.3209
11556SOL    HW135367   5.379   7.989   2.270 -0.5204  0.5051  2.5630
11556SOL    HW235368   5.530   7.980   2.260 -0.7161  0.0934 -1.2628
11557SOL     OW35369   3.413   4.729   3.549 -0.1965 -0.5354  0.6484
11557SOL    HW135370   3.497   4.739   3.504  0.1029  0.3937  1.3863
11557SOL    HW235371   3.348   4.758   3.484  0.0058 -1.5591 -0.0356
11558SOL     OW35372   0.085   0.879   7.705 -0.0899 -0.2264 -0.0044
11558SOL    HW135373   0.061   0.904   7.616  0.7843 -0.8246 -0.4201
11558SOL    HW235374   0.151   0.810   7.694  1.3883  0.9332  1.0689
11559SOL     OW35375   6.724   4.523   6.820 -0.2820  0.0788  0.4269
11559SOL    HW135376   6.649   4.580   6.841 -0.0758 -0.0489  1.6144
11559SOL    HW235377   6.707   4.443   6.870  1.0533  0.3741  1.4217
11560SOL     OW35378   4.334   1.165   1.778  0.1891 -0.6163  0.0838
11560SOL    HW135379   4.373   1.081   1.802 -1.5386 -1.3571  0.5045
11560SOL    HW235380   4.328   1.213   1.861  0.6297 -0.3142 -0.0575
11561SOL     OW35381   0.934   2.071   6.572 -0.5501  0.0671  0.0638
11561SOL    HW135382   0.974   2.042   6.490  0.4214 -0.2943  0.6559
11561SOL    HW235383   0.867   2.005   6.590 -0.0873 -0.4137  0.0681
11562SOL     OW35384   1.294   4.777   4.742 -0.4392  0.0986  0.1577
11562SOL    HW135385   1.356   4.706   4.726  0.3311  0.7454  0.2491
11562SOL    HW235386   1.347   4.856   4.747 -1.2927  0.7062 -0.0201
11563SOL     OW35387   2.135   5.347   0.947 -0.1467  0.6229 -0.5161
11563SOL    HW135388   2.176   5.426   0.982  0.5560  0.0885 -0.1132
11563SOL    HW235389   2.051   5.377   0.911  0.8054  1.8490 -1.8446
11564SOL     OW35390   6.694   2.332   2.355  0.2981 -0.9957  0.1838
11564SOL    HW135391   6.713   2.239   2.364 -0.4401 -1.0834  0.9097
11564SOL    HW235392   6.776   2.370   2.322  0.4829 -1.9511 -0.4785
11565SOL     OW35393   2.468   1.278   2.302 -0.1459  0.4094  0.0038
11565SOL    HW135394   2.489   1.199   2.253  1.0116  0.9204 -0.3779
11565SOL    HW235395   2.451   1.344   2.235 -1.2842  0.4495  0.3197
11566SOL     OW35396   5.240   6.949   7.794 -0.2221  0.8422  0.3093
11566SOL    HW135397   5.297   6.921   7.866 -1.0755  3.3074  2.0988
11566SOL    HW235398   5.158   6.901   7.809 -0.3425  1.2229  0.9441
11567SOL     OW35399   7.683   3.142   4.279 -0.7904  0.1331 -0.2526
11567SOL    HW135400   7.737   3.211   4.317  0.7179 -1.2439  0.2479
11567SOL    HW235401   7.676   3.076   4.348 -1.9259 -0.3664 -0.8143
11568SOL     OW35402   7.855   1.517   2.461 -0.0316 -0.2715 -0.2259
11568SOL    HW135403   7.861   1.586   2.395 -0.0325 -0.2964 -0.2524
11568SOL    HW235404   7.762   1.513   2.483 -0.4746 -2.0012 -2.1057
11569SOL     OW35405   6.859   2.688   0.970  0.1788 -0.4139 -0.1661
11569SOL    HW135406   6.921   2.711   1.039  0.3285  2.1663 -1.0596
11569SOL    HW235407   6.901   2.716   0.889 -1.6564  0.4426 -0.8909
11570SOL     OW35408   3.878   5.735   0.644 -0.2272 -0.4001  0.0591
11570SOL    HW135409   3.946   5.672   0.620 -0.6658 -1.5091  1.5608
11570SOL    HW235410   3.905   5.767   0.730  0.0652  1.6400 -0.7351
11571SOL     OW35411   1.694   5.152   4.021  0.1227 -0.0332 -0.2445
11571SOL    HW135412   1.789   5.145   4.018  0.0681 -0.8195 -0.5372
11571SOL    HW235413   1.673   5.232   3.973  0.7060  0.8860  0.9951
11572SOL     OW35414   0.818   4.452   2.966 -0.4703 -0.0597 -0.1912
11572SOL    HW135415   0.767   4.498   2.899 -2.7016 -1.0161  0.7384
11572SOL    HW235416   0.760   4.450   3.042  0.9862 -1.2340  0.9342
11573SOL     OW35417   4.015   5.702   1.101 -0.8466  0.1109 -0.1660
11573SOL    HW135418   4.063   5.778   1.134 -0.3329 -0.9075  1.5358
11573SOL    HW235419   4.015   5.640   1.173 -0.7850 -1.7406 -1.6718
11574SOL     OW35420   0.224   0.165   0.599  0.0512  0.2329 -0.3363
11574SOL    HW135421   0.259   0.210   0.676  0.9753  0.6661 -0.9896
11574SOL    HW235422   0.271   0.082   0.596 -1.5841 -0.7987  0.8115
11575SOL     OW35423   4.877   2.602   1.311  0.1147  0.0435 -0.3967
11575SOL    HW135424   4.835   2.665   1.252 -1.1545 -0.4634 -0.0635
11575SOL    HW235425   4.855   2.517   1.275  0.1917 -0.2503  0.2349
11576SOL     OW35426   7.566   4.803   3.909  0.3362  0.6028 -0.7757
11576SOL    HW135427   7.483   4.793   3.862 -0.8345 -0.7335  1.3642
11576SOL    HW235428   7.561   4.890   3.948  0.7894  1.2433 -2.0956
11577SOL     OW35429   7.199   3.570   2.506 -0.0094  0.2651 -0.2777
11577SOL    HW135430   7.143   3.640   2.472 -0.0818  1.3014  1.8281
11577SOL    HW235431   7.155   3.490   2.480 -1.8661  1.0549  0.2623
11578SOL     OW35432   6.695   2.425   6.741  0.4413 -0.5341 -0.4768
11578SOL    HW135433   6.761   2.400   6.677  1.4855 -1.9058  1.0433
11578SOL    HW235434   6.679   2.518   6.724  1.5269 -0.5750 -1.9546
11579SOL     OW35435   2.585   5.344   6.283 -1.0466  0.0768 -1.2872
11579SOL    HW135436   2.558   5.269   6.336 -0.0969 -0.0500 -0.9597
11579SOL    HW235437   2.611   5.410   6.348 -1.0651  0.3839 -1.5893
11580SOL     OW35438   6.590   6.798   4.021  0.0351  0.6031  0.2466
11580SOL    HW135439   6.501   6.808   4.055 -0.6299 -1.9941 -0.5007
11580SOL    HW235440   6.589   6.843   3.937 -0.6370  0.4922  0.1875
11581SOL     OW35441   4.891   4.311   5.083  0.2875 -0.1510 -0.0014
11581SOL    HW135442   4.938   4.230   5.103 -1.5453 -1.2252  0.1290
11581SOL    HW235443   4.811   4.306   5.136 -0.4810  1.1174 -0.9990
11582SOL     OW35444   0.655   0.887   6.051  0.5311  0.1619  0.0381
11582SOL    HW135445   0.565   0.855   6.058  0.4563  0.6165  1.5059
11582SOL    HW235446   0.696   0.830   5.986 -0.0900 -1.7599  1.2431
11583SOL     OW35447   3.879   2.110   0.236 -0.1642 -0.4908  0.2475
11583SOL    HW135448   3.822   2.069   0.301  0.0667 -0.2655  0.5958
11583SOL    HW235449   3.902   2.195   0.275  3.2060 -1.8945  1.7430
11584SOL     OW35450   1.624   5.206   4.322  0.0185  0.0051  0.2283
11584SOL    HW135451   1.670   5.122   4.311  1.7859  0.8352  0.8280
11584SOL    HW235452   1.684   5.271   4.286 -1.6490  0.9747 -0.9261
11585SOL     OW35453   0.590   1.854   7.861  0.2385 -0.3553 -0.3404
11585SOL    HW135454   0.507   1.824   7.899  0.2964  0.8881  0.8064
11585SOL    HW235455   0.564   1.911   7.788  0.0712  0.2844  0.2146
11586SOL     OW35456   7.019   1.435   4.362 -0.3243  0.0301 -0.6722
11586SOL    HW135457   7.060   1.464   4.443 -0.2466 -1.8922  0.0294
11586SOL    HW235458   6.928   1.419   4.385 -1.1623  2.5785 -1.8038
11587SOL     OW35459   5.495   4.427   5.886 -0.1735  0.5676 -0.4595
11587SOL    HW135460   5.455   4.347   5.920  2.8884 -1.1520 -0.5704
11587SOL    HW235461   5.481   4.422   5.791 -0.5927  0.5604 -0.4025
11588SOL     OW35462   4.972   3.628   7.089 -0.4458  0.1059  0.1032
11588SOL    HW135463   4.973   3.593   7.000  2.9161  1.6130 -0.5918
11588SOL    HW235464   4.964   3.550   7.145 -4.3663 -0.7655 -1.3448
11589SOL     OW35465   6.849   7.440   5.479  0.1193 -0.0079  0.5617
11589SOL    HW135466   6.815   7.360   5.438 -1.5097  0.6098  0.6241
11589SOL    HW235467   6.910   7.476   5.415 -0.2246 -0.5588 -0.0859
11590SOL     OW35468   5.477   5.160   6.105  0.1529 -0.3325 -0.3052
11590SOL    HW135469   5.453   5.125   6.020  0.1057  1.7413 -1.2094
11590SOL    HW235470   5.562   5.120   6.125  0.8902  0.2732 -2.0494
11591SOL     OW35471   1.577   7.883   6.204  0.3515  0.2960  0.2143
11591SOL    HW135472   1.640   7.810   6.209  0.7128  0.3555 -2.3625
11591SOL    HW235473   1.596   7.926   6.121 -3.1847  0.2218 -0.8024
11592SOL     OW35474   6.443   2.142   5.194  0.0958 -0.0508  0.5067
11592SOL    HW135475   6.527   2.159   5.153 -0.5581  0.0356 -0.8586
11592SOL    HW235476   6.378   2.169   5.128 -0.9962  0.0678  1.5920
11593SOL     OW35477   6.573   4.693   1.463 -0.5126 -0.4873  0.0836
11593SOL    HW135478   6.576   4.605   1.501  2.2265  0.2625  1.8876
11593SOL    HW235479   6.514   4.742   1.519 -0.2105 -0.6100  0.5176
11594SOL     OW35480   5.363   0.377   0.824 -0.4935  0.0562  0.0694
11594SOL    HW135481   5.442   0.404   0.778  0.4537 -2.0228  0.3526
11594SOL    HW235482   5.363   0.282   0.817 -1.2633 -0.2326  2.7750
11595SOL     OW35483   5.146   0.809   3.100  0.0703  0.1573  0.7043
11595SOL    HW135484   5.241   0.799   3.107  0.4662 -0.0791 -2.9846
11595SOL    HW235485   5.130   0.901   3.122  1.6609  1.0324 -1.4263
11596SOL     OW35486   2.688   6.271   4.055  0.2835 -0.1955 -0.3334
11596SOL    HW135487   2.634   6.214   4.001 -1.2116 -0.2077  1.1012
11596SOL    HW235488   2.633   6.347   4.075  1.5033  0.7635 -0.4669
11597SOL     OW35489   4.875   5.706   7.919 -0.0101  0.6451 -0.5353
11597SOL    HW135490   4.899   5.694   8.011 -0.5819  0.2074 -0.4397
11597SOL    HW235491   4.782   5.726   7.921 -0.2760 -0.4383 -1.0816
11598SOL     OW35492   0.420   4.380   4.297 -0.2566 -0.1891  0.1530
11598SOL    HW135493   0.454   4.298   4.334 -0.4819 -1.1711 -1.6795
11598SOL    HW235494   0.326   4.376   4.312 -0.2835 -0.3326 -0.0516
11599SOL     OW35495   2.115   6.987   7.671  0.1004 -0.1546 -0.4727
11599SOL    HW135496   2.078   7.044   7.604  1.2925 -0.9500 -1.8753
11599SOL    HW235497   2.107   7.036   7.752 -1.9788  0.5727 -1.0677
11600SOL     OW35498   7.796   4.443   2.372 -0.1464  0.2865  0.5236
11600SOL    HW135499   7.819   4.418   2.461  1.9599 -0.9047 -0.2916
11600SOL    HW235500   7.704   4.417   2.362  0.5946 -2.9883  1.2382
11601SOL     OW35501   1.358   4.211   1.071  0.7710  0.0142 -0.8355
11601SOL    HW135502   1.284   4.226   1.130  1.5846 -0.8333  0.4333
11601SOL    HW235503   1.318   4.179   0.990 -0.2404 -0.6692 -0.0812
11602SOL     OW35504   1.522   7.849   1.776 -0.9264 -0.1384  0.0385
11602SOL    HW135505   1.479   7.779   1.727 -1.1103 -0.7532  1.0445
11602SOL    HW235506   1.596   7.875   1.722 -1.8141  0.0491 -1.1279
11603SOL     OW35507   1.199   3.859   4.590 -0.1599  0.1513 -0.0826
11603SOL    HW135508   1.116   3.907   4.580  0.1772  0.8241  0.2298
11603SOL    HW235509   1.203   3.839   4.683 -0.7579 -1.3768 -0.3545
11604SOL     OW35510   3.901   0.023   7.311  0.2560 -0.2224 -0.0658
11604SOL    HW135511   3.880   0.100   7.257 -2.3047 -0.6155  0.2687
11604SOL    HW235512   3.852   0.036   7.392 -0.4193 -2.3058 -0.0979
11605SOL     OW35513   2.118   4.485   2.158 -0.0104 -0.7470 -0.3551
11605SOL    HW135514   2.203   4.523   2.133 -0.2926  0.2209  0.1086
11605SOL    HW235515   2.072   4.557   2.200 -1.0645 -1.2725 -0.5910
11606SOL     OW35516   1.625   6.298   1.243 -0.4807  0.3096  0.4401
11606SOL    HW135517   1.622   6.345   1.327  1.4552 -1.2383  1.4855
11606SOL    HW235518   1.619   6.366   1.177 -0.8109  1.7208  1.8550
11607SOL     OW35519   6.123   6.372   0.102  0.2833 -0.0466  0.2530
11607SOL    HW135520   6.072   6.293   0.119 -0.1837  0.4847  1.3730
11607SOL    HW235521   6.098   6.433   0.171 -0.3145  1.5656 -1.2968
11608SOL     OW35522   1.493   4.468   1.526 -0.0171 -0.1113 -0.4892
11608SOL    HW135523   1.529   4.444   1.441 -0.2681 -1.1880 -0.3108
11608SOL    HW235524   1.410   4.511   1.506 -0.0169 -0.2560 -0.8014
11609SOL     OW35525   3.043   1.991   1.597 -0.0974  0.3176 -0.1356
11609SOL    HW135526   3.031   1.959   1.508 -0.0043 -1.7092  0.5176
11609SOL    HW235527   3.085   2.076   1.587  0.0097  0.0868 -2.0136
11610SOL     OW35528   5.463   2.980   7.459  0.0198  0.3922  0.5679
11610SOL    HW135529   5.382   2.961   7.411 -1.5811 -1.6548  3.6995
11610SOL    HW235530   5.457   3.074   7.480 -1.7750  0.2220  1.0004
11611SOL     OW35531   3.204   6.114   4.866 -0.3665  0.3415  0.2852
11611SOL    HW135532   3.252   6.150   4.941  1.5664  0.0490 -0.7395
11611SOL    HW235533   3.148   6.046   4.903  0.8190 -0.0490  1.4276
11612SOL     OW35534   2.956   4.133   6.878  0.0691 -0.1635 -0.0433
11612SOL    HW135535   2.906   4.169   6.804  0.5012  2.2009  0.7094
11612SOL    HW235536   2.893   4.130   6.950 -0.0505 -1.3122 -0.1899
11613SOL     OW35537   0.925   2.395   2.549 -0.3650  0.4397 -0.5133
11613SOL    HW135538   0.832   2.375   2.538 -0.0590 -1.7374  0.2692
11613SOL    HW235539   0.957   2.326   2.608  1.5891  1.5753 -0.1714
11614SOL     OW35540   0.181   1.429   2.713 -0.0216  0.0346 -0.0159
11614SOL    HW135541   0.173   1.481   2.793  0.5448 -1.8252  1.3392
11614SOL    HW235542   0.106   1.369   2.716  0.7725 -0.9978 -0.1064
11615SOL     OW35543   3.250   4.741   2.208  0.4131  0.6090 -0.6118
11615SOL    HW135544   3.281   4.719   2.296 -0.4880  0.1559 -0.3970
11615SOL    HW235545   3.181   4.806   2.223  0.1939  0.4605 -0.9789
11616SOL     OW35546   1.334   3.810   6.393 -0.2283  0.3317 -0.2200
11616SOL    HW135547   1.372   3.728   6.423 -0.2166  0.9109  1.4731
11616SOL    HW235548   1.353   3.873   6.463 -1.9641  1.2814 -0.5212
11617SOL     OW35549   1.497   0.729   4.263 -0.8683  0.1023 -0.6104
11617SOL    HW135550   1.528   0.817   4.243 -0.2197 -0.3218 -1.6002
11617SOL    HW235551   1.578   0.679   4.279 -1.2749  0.0030  1.4823
11618SOL     OW35552   7.411   2.359   3.651  0.4123  0.0538  0.4645
11618SOL    HW135553   7.476   2.426   3.673 -0.0005  1.1826 -1.4652
11618SOL    HW235554   7.463   2.280   3.637  1.1635  0.4891  0.6881
11619SOL     OW35555   4.921   6.146   7.514 -0.1484 -0.4974 -0.1398
11619SOL    HW135556   4.985   6.128   7.583  0.3033  1.1445 -0.0883
11619SOL    HW235557   4.899   6.238   7.525 -0.9694 -0.5101 -1.4553
11620SOL     OW35558   0.030   5.888   7.024  0.3590  0.4068  0.3269
11620SOL    HW135559   0.111   5.853   6.987  0.9138 -0.6589  2.4309
11620SOL    HW235560  -0.038   5.858   6.964  1.1391 -1.9078  0.5136
11621SOL     OW35561   5.295   7.477   6.458 -0.1386 -0.1265  0.6021
11621SOL    HW135562   5.355   7.458   6.531  0.1375  0.4891  0.5503
11621SOL    HW235563   5.342   7.542   6.406 -0.2816 -0.6599 -0.2027
11622SOL     OW35564   1.912   5.806   1.882  0.0391  0.6424 -0.0897
11622SOL    HW135565   1.938   5.896   1.861 -1.7342  1.4285  0.8688
11622SOL    HW235566   1.919   5.759   1.798 -2.1840  2.5015 -1.4337
11623SOL     OW35567   7.222   7.062   7.053  0.6370  0.0638  0.0788
11623SOL    HW135568   7.182   7.011   6.982  0.3825  2.3631 -1.5668
11623SOL    HW235569   7.222   7.003   7.128 -0.2545 -2.0768 -1.4929
11624SOL     OW35570   3.259   4.759   3.174 -1.1080  0.4151 -0.4266
11624SOL    HW135571   3.166   4.740   3.167 -1.4313  1.7652 -0.0822
11624SOL    HW235572   3.281   4.803   3.092 -0.3514 -1.4415 -1.2603
11625SOL     OW35573   2.636   1.249   1.547  0.5152  0.6020 -0.3000
11625SOL    HW135574   2.609   1.222   1.459 -1.1312  0.7570  0.1232
11625SOL    HW235575   2.576   1.320   1.569  0.0087 -0.3128  1.4647
11626SOL     OW35576   3.964   0.004   2.583 -0.2881  0.1692  0.6265
11626SOL    HW135577   3.904  -0.032   2.648  1.5190 -1.3296  1.5317
11626SOL    HW235578   3.943  -0.042   2.502 -1.5295  0.9661  0.4601
11627SOL     OW35579   2.282   2.843   0.702  0.0310  0.0207 -0.0781
11627SOL    HW135580   2.293   2.926   0.657  0.2255  0.2664  0.4172
11627SOL    HW235581   2.359   2.835   0.759 -0.7209  0.2293  1.0043
11628SOL     OW35582   6.506   2.844   0.769  0.3813 -0.6409  0.1696
11628SOL    HW135583   6.442   2.889   0.824  0.0725 -0.1045 -0.6130
11628SOL    HW235584   6.458   2.770   0.732  0.6467 -1.1238  0.7597
11629SOL     OW35585   4.333   4.806   7.390  0.0594 -0.2483 -0.0234
11629SOL    HW135586   4.251   4.766   7.362 -0.2817  1.1435 -1.1096
11629SOL    HW235587   4.327   4.897   7.360  0.8386  0.6252  2.2882
11630SOL     OW35588   3.578   2.332   7.054  0.0489  0.4914 -0.3153
11630SOL    HW135589   3.649   2.348   7.117 -0.1512 -0.3033  0.1337
11630SOL    HW235590   3.498   2.343   7.106 -0.1182 -0.1645 -0.4184
11631SOL     OW35591   0.576   6.076   2.422 -0.0859 -0.4248 -0.2678
11631SOL    HW135592   0.600   5.983   2.416 -1.3253 -0.7579 -0.1987
11631SOL    HW235593   0.636   6.111   2.489  0.2954 -1.2026 -0.1856
11632SOL     OW35594   3.220   6.230   3.064 -0.6463 -0.2826  0.2370
11632SOL    HW135595   3.163   6.158   3.038  0.2730 -0.1994 -2.2407
11632SOL    HW235596   3.304   6.188   3.083 -0.0625  0.1096 -1.3660
11633SOL     OW35597   5.297   6.134   1.760 -0.1069  0.5334 -0.7086
11633SOL    HW135598   5.342   6.173   1.834 -0.0349  0.6197 -0.7989
11633SOL    HW235599   5.270   6.047   1.791  1.3221 -0.0783 -1.0923
11634SOL     OW35600   7.545   2.557   5.026  0.3274  0.1087 -0.3605
11634SOL    HW135601   7.622   2.577   5.079  1.0741  0.4978 -1.5397
11634SOL    HW235602   7.482   2.626   5.046  0.2761 -0.2200  0.6250
11635SOL     OW35603   0.405   0.990   1.859  0.5577 -0.4298  0.5921
11635SOL    HW135604   0.392   0.948   1.774 -0.3030  0.6273  0.1709
11635SOL    HW235605   0.464   1.063   1.840 -1.1928  1.0238  0.4659
11636SOL     OW35606   6.577   5.045   4.423 -0.0455  0.0194 -0.0848
11636SOL    HW135607   6.625   5.104   4.482  0.5233 -1.0913  0.6146
11636SOL    HW235608   6.493   5.031   4.466 -0.4847  0.8876 -0.6287
11637SOL     OW35609   4.042   3.009   0.913  0.0757  0.0305  0.5094
11637SOL    HW135610   4.056   3.082   0.975  1.6942 -0.7550  1.1490
11637SOL    HW235611   4.113   3.019   0.850  0.6566 -1.2871  0.9278
11638SOL     OW35612   0.325   0.119   5.451  0.0259  0.2426 -0.1457
11638SOL    HW135613   0.328   0.178   5.376  0.8459  0.3738 -0.0194
11638SOL    HW235614   0.240   0.137   5.492  0.3391  1.4854  0.0086
11639SOL     OW35615   5.922   6.542   2.266  0.3467  0.2580  0.4842
11639SOL    HW135616   6.013   6.521   2.286  0.4949  0.0129 -0.3831
11639SOL    HW235617   5.903   6.621   2.316  1.2849  0.7548  0.0620
11640SOL     OW35618   6.908   5.700   4.928  0.6782  0.0433  0.1230
11640SOL    HW135619   6.953   5.705   5.012  0.6257  1.2315  0.0886
11640SOL    HW235620   6.944   5.772   4.876  0.8888 -0.8217 -0.9713
11641SOL     OW35621   2.032   7.820   3.258  0.1644 -0.0346 -0.0980
11641SOL    HW135622   1.983   7.756   3.309  0.6014  0.0933  0.4892
11641SOL    HW235623   2.087   7.866   3.322  1.2253 -0.3357 -0.7671
11642SOL     OW35624   1.644   2.813   7.190  0.1094 -0.1796 -0.2721
11642SOL    HW135625   1.672   2.899   7.219  0.6859 -0.1252 -0.9523
11642SOL    HW235626   1.593   2.778   7.263  0.6721  0.3484  0.3926
11643SOL     OW35627   5.457   4.711   2.380  0.4339 -0.2418  0.2902
11643SOL    HW135628   5.495   4.753   2.457  0.2964 -0.0766  0.2680
11643SOL    HW235629   5.518   4.641   2.358 -1.4585 -2.9827  2.9669
11644SOL     OW35630   0.384   7.469   2.184 -0.7894 -0.0499 -0.0182
11644SOL    HW135631   0.405   7.434   2.271  2.2035 -1.6478 -1.2548
11644SOL    HW235632   0.367   7.391   2.131  3.0413  0.3058 -2.1135
11645SOL     OW35633   4.298   0.034   0.677 -1.0108 -0.5969  0.1405
11645SOL    HW135634   4.350   0.109   0.647  1.1864 -2.0250  0.1159
11645SOL    HW235635   4.300   0.041   0.773 -2.0579  0.1240  0.1314
11646SOL     OW35636   4.866   0.570   1.482 -0.3843 -0.6074 -0.0274
11646SOL    HW135637   4.800   0.591   1.548  1.1648 -0.2088  1.4910
11646SOL    HW235638   4.862   0.642   1.420 -1.5434 -0.7336 -0.1245
11647SOL     OW35639   3.536   6.518   3.092  0.0514  0.3172  0.3304
11647SOL    HW135640   3.579   6.578   3.152 -0.3734  0.9564  0.0151
11647SOL    HW235641   3.448   6.508   3.128  0.1017 -0.0685  0.3469
11648SOL     OW35642   7.773   3.272   7.285  0.7309 -0.0761 -0.0418
11648SOL    HW135643   7.678   3.285   7.283  0.8465  0.9830  0.2735
11648SOL    HW235644   7.799   3.304   7.372  1.5687  1.2815 -0.7582
11649SOL     OW35645   0.489   6.155   6.197  0.2469 -0.5085  0.0849
11649SOL    HW135646   0.484   6.062   6.219 -1.3413 -0.9787 -1.9589
11649SOL    HW235647   0.414   6.170   6.140 -1.2078  2.7199  2.5296
11650SOL     OW35648   4.332   6.312   7.898  0.3826 -0.1574  0.0720
11650SOL    HW135649   4.296   6.400   7.910  0.3558 -0.2668  0.8571
11650SOL    HW235650   4.416   6.314   7.945  0.3975 -0.5384  0.0643
11651SOL     OW35651   0.838   3.138   6.709  0.0068  0.4888 -0.5344
11651SOL    HW135652   0.771   3.081   6.746 -0.3808  0.7604 -0.8098
11651SOL    HW235653   0.795   3.223   6.702  0.8678  1.0768  0.7938
11652SOL     OW35654   7.169   2.584   5.115 -0.3462 -0.5410 -0.1272
11652SOL    HW135655   7.196   2.572   5.206 -1.8056  1.2584  0.6169
11652SOL    HW235656   7.122   2.668   5.115  1.4542  0.6319 -2.9706
11653SOL     OW35657   3.864   7.217   5.493 -0.4113  0.1508  0.3254
11653SOL    HW135658   3.822   7.259   5.568  0.5934 -0.7052  1.4172
11653SOL    HW235659   3.910   7.289   5.449 -2.7407  1.0618 -0.7788
11654SOL     OW35660   5.399   0.891   2.398 -0.1516 -1.1227  0.0428
11654SOL    HW135661   5.415   0.870   2.306  0.4550 -0.3447 -0.0392
11654SOL    HW235662   5.482   0.926   2.429 -0.6419 -0.4372  0.6149
11655SOL     OW35663   6.893   1.572   0.930  0.2345  0.0007 -0.2614
11655SOL    HW135664   6.806   1.534   0.945  0.1712  0.3876  0.3776
11655SOL    HW235665   6.875   1.665   0.914  0.3710 -0.2188 -1.9590
11656SOL     OW35666   2.189   1.789   6.799  0.3778 -0.7710 -0.1709
11656SOL    HW135667   2.176   1.837   6.717  1.2849 -0.1195  0.0506
11656SOL    HW235668   2.206   1.857   6.864  1.0593 -1.3523  0.2763
11657SOL     OW35669   3.253   2.933   7.844  0.2939 -0.5530 -0.5581
11657SOL    HW135670   3.294   2.976   7.769  2.0399 -0.4071  0.4522
11657SOL    HW235671   3.172   2.982   7.858  1.3620  1.2744 -0.5514
11658SOL     OW35672   0.589   6.167   4.840 -0.7627 -0.2545  0.0868
11658SOL    HW135673   0.663   6.222   4.863  0.2366 -1.3214 -0.4563
11658SOL    HW235674   0.621   6.077   4.854 -1.7390 -0.7502 -0.7365
11659SOL     OW35675   4.745   1.216   4.981 -0.2439 -0.4381  0.4691
11659SOL    HW135676   4.782   1.281   5.041 -0.9525 -0.8024  1.3153
11659SOL    HW235677   4.651   1.224   4.993 -0.3427 -1.6320  0.6002
11660SOL     OW35678   6.765   6.651   3.818 -0.2894 -0.0492  0.0112
11660SOL    HW135679   6.701   6.632   3.887 -1.6365 -0.7443 -1.3558
11660SOL    HW235680   6.828   6.579   3.823 -1.4437 -1.1470 -0.6505
11661SOL     OW35681   5.482   6.568   3.447  0.2076  0.5743 -0.6074
11661SOL    HW135682   5.518   6.603   3.365 -0.4671  0.8170 -0.8151
11661SOL    HW235683   5.558   6.543   3.498  0.6424  0.3540 -1.3422
11662SOL     OW35684   3.172   6.117   6.661  0.0411 -0.0884 -0.3865
11662SOL    HW135685   3.166   6.027   6.630 -0.2285 -0.0289 -0.5087
11662SOL    HW235686   3.250   6.118   6.717  0.8477 -0.0711 -1.4812
11663SOL     OW35687   6.343   5.963   2.316  0.0461 -0.0035 -0.2163
11663SOL    HW135688   6.275   6.026   2.341  0.0299 -0.7776  1.8566
11663SOL    HW235689   6.306   5.915   2.242 -1.0609  0.5653 -0.0445
11664SOL     OW35690   0.355   7.729   0.783 -0.6418  0.3598  0.7973
11664SOL    HW135691   0.363   7.635   0.800  0.3788  0.1744 -0.5112
11664SOL    HW235692   0.261   7.744   0.774 -0.7543 -0.8328 -0.3541
11665SOL     OW35693   1.220   0.961   2.324 -0.7234  0.1255  0.1102
11665SOL    HW135694   1.250   1.040   2.278 -1.0834  1.5818  2.2262
11665SOL    HW235695   1.293   0.900   2.316 -0.9483  0.0882 -2.7349
11666SOL     OW35696   7.828   7.317   2.464 -0.1843 -0.3960  0.1309
11666SOL    HW135697   7.772   7.269   2.404  0.5674  0.6218 -1.4549
11666SOL    HW235698   7.768   7.371   2.515 -0.8514 -1.4193  0.4500
11667SOL     OW35699   2.020   3.473   0.115  0.3798  0.0603 -0.2871
11667SOL    HW135700   2.080   3.419   0.065  0.0777  0.2955 -0.9175
11667SOL    HW235701   2.059   3.560   0.114  0.2763  0.1076 -0.2702
11668SOL     OW35702   4.045   5.958   6.811  0.3050  0.3839 -0.9450
11668SOL    HW135703   3.995   5.935   6.889  0.7911  3.8691  0.6093
11668SOL    HW235704   4.129   5.914   6.823  0.5478  1.2334  0.8285
11669SOL     OW35705   6.409   1.298   4.130  0.8392  0.1867  0.2874
11669SOL    HW135706   6.500   1.308   4.160  1.1601 -0.2308 -0.5173
11669SOL    HW235707   6.356   1.334   4.201  1.5577 -1.2668  1.6374
11670SOL     OW35708   3.326   6.411   4.316 -0.0997  0.3744  0.0492
11670SOL    HW135709   3.412   6.447   4.336 -0.1489  1.4788 -1.5577
11670SOL    HW235710   3.328   6.395   4.221 -1.3249 -0.5256  0.1449
11671SOL     OW35711   0.106   3.084   3.900 -0.0311 -0.4942  0.1134
11671SOL    HW135712   0.134   3.161   3.949 -0.7951  0.0523 -0.2882
11671SOL    HW235713   0.011   3.080   3.914 -0.2214 -0.5030 -1.0578
11672SOL     OW35714   3.084   4.924   3.919  0.4242 -0.8161 -0.6509
11672SOL    HW135715   3.138   4.937   3.840  0.4647 -0.8116 -0.6228
11672SOL    HW235716   3.143   4.945   3.991  0.2050 -0.2198 -0.6428
11673SOL     OW35717   6.634   5.019   1.783 -0.4279  0.2643 -0.3386
11673SOL    HW135718   6.630   5.056   1.871  0.0613  0.8331 -0.5481
11673SOL    HW235719   6.701   4.951   1.788 -1.1335 -0.4165 -0.0199
11674SOL     OW35720   5.590   2.409   5.230 -0.6014 -0.3767  0.2614
11674SOL    HW135721   5.630   2.422   5.316 -0.6099  1.9529 -0.0212
11674SOL    HW235722   5.657   2.438   5.168 -0.7377 -1.6715 -0.5255
11675SOL     OW35723   4.692   3.483   3.674 -0.4145 -0.0745 -0.2120
11675SOL    HW135724   4.727   3.504   3.760 -0.5606  0.9897 -0.4005
11675SOL    HW235725   4.769   3.468   3.619 -0.2957  0.4327 -0.1842
11676SOL     OW35726   3.558   3.285   0.493 -0.1010  0.3715  0.2602
11676SOL    HW135727   3.527   3.204   0.452 -1.3946  0.5475  0.8110
11676SOL    HW235728   3.583   3.259   0.582  1.0057  0.3069 -0.0567
11677SOL     OW35729   5.910   6.795   0.453  0.1805  0.2328 -0.4114
11677SOL    HW135730   5.975   6.863   0.437 -0.6167  0.9985 -0.4503
11677SOL    HW235731   5.834   6.822   0.403  0.5062 -1.7646 -2.1249
11678SOL     OW35732   2.998   5.950   6.174  0.3445  0.5403  0.5248
11678SOL    HW135733   3.058   6.004   6.123  0.6891 -1.0556 -0.8700
11678SOL    HW235734   2.955   6.011   6.233  1.6523  2.1040 -0.0525
11679SOL     OW35735   2.725   0.783   1.062  0.3594  0.5095  0.6935
11679SOL    HW135736   2.810   0.818   1.087  0.2645  0.1913  1.4897
11679SOL    HW235737   2.672   0.787   1.142  0.0076 -0.4289  0.5254
11680SOL     OW35738   0.638   0.283   1.003 -0.2512  0.3731  0.1550
11680SOL    HW135739   0.727   0.295   1.037  0.5986  1.2626 -2.1882
11680SOL    HW235740   0.603   0.210   1.054  1.0836  1.2318  2.4732
11681SOL     OW35741   3.568   4.007   2.730  0.1665 -0.6739  0.6571
11681SOL    HW135742   3.642   3.977   2.678 -0.1623 -1.5714  0.6892
11681SOL    HW235743   3.553   3.937   2.793  0.0482  0.0334  1.4420
11682SOL     OW35744   4.723   3.965   4.407 -0.1517 -0.0284 -0.3520
11682SOL    HW135745   4.730   3.987   4.500  1.3142 -0.3310 -0.3655
11682SOL    HW235746   4.725   4.049   4.362  0.0683  0.0793 -0.1469
11683SOL     OW35747   4.239   1.478   7.460 -0.2021  0.2595  0.0989
11683SOL    HW135748   4.147   1.475   7.433 -0.5129  1.7726  0.9072
11683SOL    HW235749   4.236   1.478   7.556  0.7288 -1.1483  0.1682
11684SOL     OW35750   7.057   4.862   7.699  0.3788 -0.2161  0.2748
11684SOL    HW135751   7.044   4.871   7.605  3.1012  2.8408  0.0232
11684SOL    HW235752   7.046   4.768   7.716  0.2401 -0.9399 -3.1556
11685SOL     OW35753   0.519   1.552   5.846  0.3148  0.0426 -0.5845
11685SOL    HW135754   0.494   1.615   5.779  0.5528 -0.5921 -1.2749
11685SOL    HW235755   0.609   1.576   5.870 -0.1600  0.9831  0.3554
11686SOL     OW35756   3.316   3.409   3.417  0.0193  0.2730 -0.0031
11686SOL    HW135757   3.246   3.364   3.464 -1.0271 -0.4643 -2.1449
11686SOL    HW235758   3.304   3.501   3.440 -1.9004  0.2137 -0.5607
11687SOL     OW35759   1.432   1.977   5.785  0.5885 -0.0597  0.3783
11687SOL    HW135760   1.425   2.049   5.721  0.2223  0.8879  1.4496
11687SOL    HW235761   1.375   1.909   5.749 -0.7923  1.0307  0.4024
11688SOL     OW35762   5.409   0.895   3.117  0.2160 -0.3419  0.4973
11688SOL    HW135763   5.452   0.913   3.201 -1.7983 -2.3810  2.0805
11688SOL    HW235764   5.473   0.842   3.068  0.9241 -0.2233  1.2703
11689SOL     OW35765   7.672   0.113   7.139 -0.5214  0.4277  0.2622
11689SOL    HW135766   7.645   0.175   7.206 -0.3815  1.1085 -0.2959
11689SOL    HW235767   7.710   0.167   7.069 -0.4610 -0.2752 -0.2706
11690SOL     OW35768   0.476   0.480   1.128  0.3665 -0.4542 -0.7216
11690SOL    HW135769   0.527   0.407   1.093  0.5390  0.0048 -1.4422
11690SOL    HW235770   0.542   0.541   1.163  0.1818 -1.2854  1.2510
11691SOL     OW35771   7.772   6.480   4.582  0.2896 -0.0220  0.1695
11691SOL    HW135772   7.701   6.463   4.643 -1.4187  2.3298 -1.0031
11691SOL    HW235773   7.737   6.453   4.497  1.6335 -0.8176 -0.1548
11692SOL     OW35774   4.348   7.671   3.191 -0.1214  0.0177  0.5637
11692SOL    HW135775   4.413   7.660   3.122 -0.1117  1.4716  0.2960
11692SOL    HW235776   4.393   7.645   3.271  0.1441 -0.8653  0.1419
11693SOL     OW35777   6.027   3.963   6.288  0.0864  0.4622  0.0421
11693SOL    HW135778   5.993   4.030   6.347  1.1437  1.0418  0.0122
11693SOL    HW235779   5.972   3.886   6.304 -0.4916  1.0278  0.8021
11694SOL     OW35780   3.942   2.843   3.459 -0.0284 -0.3842 -0.1545
11694SOL    HW135781   3.920   2.918   3.515  1.4512  0.1895 -0.2948
11694SOL    HW235782   4.018   2.802   3.501  2.4024  1.2110 -2.6150
11695SOL     OW35783   0.628   4.293   0.589 -0.2525 -0.4801  0.1741
11695SOL    HW135784   0.711   4.322   0.627 -0.8513  0.7334  0.6273
11695SOL    HW235785   0.571   4.278   0.664 -0.4941 -1.1811 -0.1401
11696SOL     OW35786   1.251   7.162   5.199  0.1517 -0.1079 -0.9590
11696SOL    HW135787   1.262   7.212   5.118  0.5871 -0.1261 -0.9126
11696SOL    HW235788   1.157   7.147   5.205  0.0058  0.7471 -0.9470
11697SOL     OW35789   5.049   6.046   5.607  0.0329 -0.1403 -0.0454
11697SOL    HW135790   4.965   6.002   5.624  0.2115 -0.2652  0.5250
11697SOL    HW235791   5.085   5.999   5.532 -1.0374  0.7914 -1.1980
11698SOL     OW35792   4.238   7.379   6.985 -0.1311 -0.6352  0.6025
11698SOL    HW135793   4.211   7.382   7.077  0.4051 -1.2272  0.7870
11698SOL    HW235794   4.331   7.358   6.988  0.7634  2.7263  0.0270
11699SOL     OW35795   1.753   6.839   1.143 -0.8124 -0.2743  0.6946
11699SOL    HW135796   1.770   6.841   1.237  1.1473  0.0852  0.3790
11699SOL    HW235797   1.719   6.926   1.123 -3.1740 -0.9659  1.3237
11700SOL     OW35798   5.054   5.287   1.710 -0.3218  0.1811 -0.4241
11700SOL    HW135799   4.986   5.287   1.778  0.2635  0.5298  0.1763
11700SOL    HW235800   5.112   5.359   1.735  0.6738 -0.5763 -0.5104
11701SOL     OW35801   3.218   1.678   6.122 -0.0390 -0.3238 -0.3435
11701SOL    HW135802   3.311   1.701   6.127 -0.1103  0.0342 -0.6078
11701SOL    HW235803   3.209   1.602   6.179  0.2264  0.2502  0.4891
11702SOL     OW35804   6.448   6.745   7.755  0.5023 -0.2742 -0.0328
11702SOL    HW135805   6.388   6.755   7.829  1.2205  0.4591  0.4674
11702SOL    HW235806   6.447   6.652   7.736  1.1236 -0.6524  1.6099
11703SOL     OW35807   4.389   6.646   0.199  0.2643  0.5242  0.0130
11703SOL    HW135808   4.433   6.678   0.278  0.2061 -0.3739  0.4220
11703SOL    HW235809   4.414   6.554   0.194  2.0124  1.0234 -2.1903
11704SOL     OW35810   3.487   4.776   5.435 -0.3005  0.7312 -0.1198
11704SOL    HW135811   3.536   4.839   5.488 -1.8038  1.7604  0.1338
11704SOL    HW235812   3.479   4.699   5.491  0.1975  0.9126  0.2105
11705SOL     OW35813   5.678   7.329   7.242 -0.0556  0.5809  0.3232
11705SOL    HW135814   5.672   7.415   7.284 -0.2983 -0.0724  1.6923
11705SOL    HW235815   5.603   7.281   7.276  1.0945 -0.7632  1.0235
11706SOL     OW35816   6.077   6.736   5.156 -0.0359  0.3068  0.2002
11706SOL    HW135817   6.044   6.651   5.127  0.5492 -0.3987  1.5372
11706SOL    HW235818   6.069   6.792   5.079 -0.6701 -0.8865 -0.6305
11707SOL     OW35819   5.999   4.294   7.844  0.1144 -0.5861  0.4525
11707SOL    HW135820   6.009   4.367   7.783 -0.9793  1.2083  2.2648
11707SOL    HW235821   6.088   4.262   7.858  0.4996 -0.3482 -1.2089
11708SOL     OW35822   5.696   7.607   5.228  0.5457 -0.0019 -0.0136
11708SOL    HW135823   5.684   7.691   5.184 -0.9868 -0.0029  0.3507
11708SOL    HW235824   5.789   7.587   5.216  1.0653  1.9679  0.3177
11709SOL     OW35825   6.801   7.661   7.477  0.0470  0.4769  0.2801
11709SOL    HW135826   6.815   7.685   7.386  1.2465  1.6506  0.7328
11709SOL    HW235827   6.861   7.588   7.493 -0.2758  0.1684  0.1060
11710SOL     OW35828   0.797   3.102   2.209 -0.4256  0.5758  0.1653
11710SOL    HW135829   0.792   3.008   2.189  1.3429  0.3483  0.5881
11710SOL    HW235830   0.738   3.114   2.284  1.6929 -0.9003  2.2364
11711SOL     OW35831   2.249   2.230   5.043 -0.4001  0.3995  0.0663
11711SOL    HW135832   2.244   2.323   5.065  0.0862  0.8423 -1.5900
11711SOL    HW235833   2.158   2.204   5.026 -0.5214  0.5998  0.4015
11712SOL     OW35834   4.602   3.706   4.342 -0.2552  0.0435 -0.0203
11712SOL    HW135835   4.510   3.682   4.328 -0.7823  0.7899  1.7371
11712SOL    HW235836   4.598   3.797   4.372  1.0312 -0.0165  0.4002
11713SOL     OW35837   0.560   0.338   0.700 -0.0175  0.2304 -0.1489
11713SOL    HW135838   0.569   0.308   0.790  0.4044 -2.8303 -1.0811
11713SOL    HW235839   0.570   0.258   0.647 -1.8071  1.6224 -2.8384
11714SOL     OW35840   2.350   0.633   7.877 -0.2713 -0.3416 -0.2335
11714SOL    HW135841   2.329   0.601   7.964  1.5066 -0.1838  0.2980
11714SOL    HW235842   2.376   0.724   7.890 -1.6570  0.2352 -1.2059
11715SOL     OW35843   7.762   0.178   7.827 -0.0869  0.5560 -0.2226
11715SOL    HW135844   7.774   0.223   7.911  1.2356 -0.6178  0.2606
11715SOL    HW235845   7.847   0.140   7.808 -1.4791 -3.3078  0.3554
11716SOL     OW35846   5.594   1.725   2.322  0.8087 -0.5581 -0.3566
11716SOL    HW135847   5.607   1.776   2.243 -0.2647 -0.8196 -0.7099
11716SOL    HW235848   5.655   1.652   2.314  0.4205 -0.7989 -1.1339
11717SOL     OW35849   5.681   6.127   5.978 -0.7860  0.5345  0.2926
11717SOL    HW135850   5.596   6.152   5.941 -1.5068 -1.0206  0.7801
11717SOL    HW235851   5.744   6.142   5.908 -1.6536  0.5201 -0.5053
11718SOL     OW35852   7.264   2.585   6.011  0.2561 -0.0960  0.4256
11718SOL    HW135853   7.238   2.665   5.965 -0.3137 -1.1533 -1.1646
11718SOL    HW235854   7.243   2.603   6.103 -2.5581  0.5558 -0.2403
11719SOL     OW35855   0.180   1.650   2.189  0.3034  0.5305  0.0367
11719SOL    HW135856   0.208   1.684   2.103  0.6620 -0.1344 -0.1149
11719SOL    HW235857   0.236   1.574   2.204  0.1369  0.5519  0.7982
11720SOL     OW35858   1.881   4.024   2.068 -0.6817 -0.0346 -0.0105
11720SOL    HW135859   1.909   4.106   2.027 -0.9738  0.4617  0.7730
11720SOL    HW235860   1.924   3.956   2.016  1.0106  0.6606  0.4181
11721SOL     OW35861   7.081   3.512   7.351 -1.0208  0.1414 -0.0890
11721SOL    HW135862   7.154   3.535   7.408 -0.2854  0.1795 -1.0194
11721SOL    HW235863   7.013   3.481   7.410  0.6965 -2.4943  0.6758
11722SOL     OW35864   4.793   6.272   3.627 -0.2487 -0.1430  0.0285
11722SOL    HW135865   4.710   6.319   3.627 -1.4475 -1.9351  3.2115
11722SOL    HW235866   4.854   6.332   3.670 -0.1741  0.7043 -1.2118
11723SOL     OW35867   7.035   3.495   6.281 -0.1676 -0.2071  0.1912
11723SOL    HW135868   7.069   3.469   6.195  1.4017 -0.3572  0.8115
11723SOL    HW235869   7.012   3.412   6.323 -1.4290 -0.0977 -0.2641
11724SOL     OW35870   2.661   3.004   5.848 -0.2991 -0.2764 -0.0743
11724SOL    HW135871   2.745   2.979   5.809  0.0909  0.2568  0.4004
11724SOL    HW235872   2.683   3.072   5.911 -1.4627  2.2413 -2.2092
11725SOL     OW35873   4.345   5.708   0.171 -0.0267 -0.3659 -0.1815
11725SOL    HW135874   4.282   5.718   0.242  0.9201  1.8016  0.4242
11725SOL    HW235875   4.305   5.753   0.097 -0.2300 -1.1011 -0.5309
11726SOL     OW35876   2.216   3.151   3.706 -0.9061  0.1354 -0.5856
11726SOL    HW135877   2.266   3.142   3.788 -0.9251 -0.1847 -0.6079
11726SOL    HW235878   2.267   3.101   3.642 -1.3761 -0.3910 -0.5568
11727SOL     OW35879   6.961   7.374   0.319 -0.5740 -0.3670  0.2404
11727SOL    HW135880   6.869   7.374   0.295 -0.6366 -0.6067  0.4778
11727SOL    HW235881   7.000   7.443   0.266 -0.9876  0.0729  0.5007
11728SOL     OW35882   1.782   5.341   6.013 -0.1805 -0.3188  0.0364
11728SOL    HW135883   1.841   5.359   6.086 -0.2735  0.0887  0.0124
11728SOL    HW235884   1.725   5.271   6.044 -0.4159  0.0561  0.4670
11729SOL     OW35885   3.363   1.500   1.433 -0.3144  0.7338  0.7583
11729SOL    HW135886   3.268   1.503   1.417 -0.2641 -1.0601 -0.1698
11729SOL    HW235887   3.383   1.583   1.476 -2.0943  1.7063 -0.1654
11730SOL     OW35888   7.370   4.229   7.545  0.6791  0.4499 -0.2508
11730SOL    HW135889   7.395   4.151   7.595 -0.6849  0.7253  0.9292
11730SOL    HW235890   7.445   4.288   7.553  1.1856 -0.2134 -0.0320
11731SOL     OW35891   5.966   1.751   3.764  0.1300 -0.4598  0.2201
11731SOL    HW135892   5.891   1.808   3.779 -0.1785 -0.3071 -1.6872
11731SOL    HW235893   5.933   1.663   3.781 -1.4334 -0.7213 -3.4120
11732SOL     OW35894   4.849   3.741   0.211 -0.5568  0.1406 -0.3922
11732SOL    HW135895   4.814   3.827   0.187  0.2609  0.5653 -0.0737
11732SOL    HW235896   4.830   3.732   0.304 -0.3823  0.0947 -0.3610
11733SOL     OW35897   7.172   6.243   0.980 -0.2880 -0.0728 -0.8392
11733SOL    HW135898   7.232   6.176   1.013  0.8461  1.5738  0.6302
11733SOL    HW235899   7.113   6.261   1.053  0.5419  1.7174 -0.5440
11734SOL     OW35900   2.796   3.238   0.191  0.1512  0.0975 -0.3464
11734SOL    HW135901   2.712   3.229   0.144  0.1729 -1.5674 -0.1104
11734SOL    HW235902   2.841   3.155   0.175  1.3133  0.5650  0.4212
11735SOL     OW35903   4.849   1.062   4.079  0.1302 -0.8212  0.2985
11735SOL    HW135904   4.847   0.989   4.141  0.5474  0.6781  2.1772
11735SOL    HW235905   4.940   1.091   4.079 -0.2374  0.3795  0.4643
11736SOL     OW35906   6.956   3.566   3.246  0.1432 -0.7466 -0.2107
11736SOL    HW135907   6.949   3.524   3.332 -1.3839 -0.3139 -0.0923
11736SOL    HW235908   6.865   3.578   3.218  0.5527  1.5103 -0.7241
11737SOL     OW35909   7.381   1.017   7.959  0.3896 -0.5393  0.2742
11737SOL    HW135910   7.398   0.971   8.041 -0.8483 -0.0131  0.8588
11737SOL    HW235911   7.372   1.109   7.985  2.0553 -0.0339 -0.7625
11738SOL     OW35912   1.095   0.004   7.343 -0.4146  0.4316 -0.3209
11738SOL    HW135913   1.137   0.064   7.281  0.6725 -1.2187 -1.2594
11738SOL    HW235914   1.160  -0.007   7.413 -1.5583  2.1360  1.1091
11739SOL     OW35915   0.714   3.589   6.949 -0.0379  0.0759  0.0734
11739SOL    HW135916   0.655   3.588   6.874  0.3209  3.0263 -0.3538
11739SOL    HW235917   0.790   3.640   6.920  1.4261 -1.0996  1.5790
11740SOL     OW35918   0.264   6.516   3.102 -0.1978  0.7149 -0.5531
11740SOL    HW135919   0.359   6.513   3.087 -0.0304 -1.0444  0.5496
11740SOL    HW235920   0.255   6.535   3.196 -1.0203  3.2086 -1.0764
11741SOL     OW35921   5.019   4.224   0.601 -0.0287  0.0537  0.0215
11741SOL    HW135922   5.101   4.197   0.643  0.3239 -0.6809 -1.0942
11741SOL    HW235923   4.977   4.281   0.665  0.4567 -1.0793  1.3963
11742SOL     OW35924   0.887   6.720   7.258 -0.1114  0.1449  0.0281
11742SOL    HW135925   0.815   6.767   7.217 -0.9958 -0.3339  0.9762
11742SOL    HW235926   0.894   6.758   7.346 -0.4374 -1.0160  0.5920
11743SOL     OW35927   4.889   1.508   4.027  0.1491 -0.1294  0.4736
11743SOL    HW135928   4.978   1.529   4.052 -0.4734  3.2807  0.2604
11743SOL    HW235929   4.889   1.511   3.931 -0.4483  1.3757  0.4967
11744SOL     OW35930   1.841   5.605   0.163 -0.8896  0.3071 -0.5609
11744SOL    HW135931   1.924   5.588   0.208 -0.6173 -1.3674 -1.6004
11744SOL    HW235932   1.865   5.663   0.090 -0.8345  0.6948 -0.2399
11745SOL     OW35933   0.939   2.682   3.309 -0.4123  1.1016  0.3809
11745SOL    HW135934   0.902   2.732   3.381 -1.3181 -0.0824  0.7821
11745SOL    HW235935   0.866   2.672   3.247 -0.0389  0.9233 -0.0376
11746SOL     OW35936   0.479   1.148   0.940  0.2572  0.6957  0.2468
11746SOL    HW135937   0.542   1.080   0.915 -0.6839 -0.1814  0.1648
11746SOL    HW235938   0.400   1.099   0.962 -0.6376  1.8030 -0.3969
11747SOL     OW35939   2.148   4.291   3.777 -0.3804 -0.3557 -0.4217
11747SOL    HW135940   2.212   4.251   3.719 -0.3346 -1.7943  0.5606
11747SOL    HW235941   2.175   4.383   3.782  0.9216 -0.6776 -0.9295
11748SOL     OW35942   6.001   1.192   0.233  0.4308  0.1274 -0.2267
11748SOL    HW135943   5.943   1.121   0.259  0.3186  0.2599 -0.1198
11748SOL    HW235944   6.089   1.155   0.243  0.3573 -0.2514 -0.8885
11749SOL     OW35945   6.214   7.473   1.511  0.6203 -0.3888  0.4856
11749SOL    HW135946   6.238   7.407   1.576  2.4477 -0.2658 -0.0095
11749SOL    HW235947   6.290   7.479   1.453  0.2262  1.6361  0.0808
11750SOL     OW35948   1.662   7.187   7.873  0.5100  0.6349 -0.7020
11750SOL    HW135949   1.579   7.203   7.916  1.0031  1.0399  0.1212
11750SOL    HW235950   1.708   7.271   7.877  0.4407  0.7780 -2.3277
11751SOL     OW35951   2.586   1.003   4.145  0.4261  0.0240 -0.7635
11751SOL    HW135952   2.499   0.981   4.112 -0.5781  1.1711  1.0018
11751SOL    HW235953   2.595   1.097   4.128  0.7941  0.1722  0.2054
11752SOL     OW35954   2.017   2.110   4.669 -0.4563  0.2912  0.1121
11752SOL    HW135955   1.929   2.079   4.650 -0.7196  0.3596  1.1887
11752SOL    HW235956   2.042   2.067   4.751 -0.2360  1.7048  0.8335
11753SOL     OW35957   1.902   5.482   2.599  0.4839  0.2419  0.6215
11753SOL    HW135958   1.888   5.401   2.648 -0.6144 -0.6575 -1.0404
11753SOL    HW235959   1.995   5.482   2.577  0.6687 -0.1159  1.3961
11754SOL     OW35960   1.067   3.816   7.250 -0.2913 -0.1266 -0.1084
11754SOL    HW135961   0.981   3.779   7.267  0.0061 -0.2477  1.2134
11754SOL    HW235962   1.122   3.785   7.322  0.6748  0.5574 -0.5243
11755SOL     OW35963   0.653   3.455   6.156 -0.0014 -0.0198  0.0968
11755SOL    HW135964   0.629   3.379   6.104  2.5768 -0.1525 -1.0877
11755SOL    HW235965   0.743   3.438   6.183  0.2873  2.1316  0.6988
11756SOL     OW35966   0.241   5.647   2.094  0.4782  0.4577 -0.4666
11756SOL    HW135967   0.218   5.554   2.104  1.0403  0.1855 -1.5632
11756SOL    HW235968   0.167   5.694   2.132  0.1737 -0.4331  0.0779
11757SOL     OW35969   2.568   6.394   5.455 -0.1080 -0.2453  0.6118
11757SOL    HW135970   2.623   6.323   5.421 -0.3996 -0.1231 -0.1252
11757SOL    HW235971   2.483   6.382   5.412 -0.0350  0.7990  0.1467
11758SOL     OW35972   5.334   7.973   0.403  0.4408 -0.6214 -0.3531
11758SOL    HW135973   5.416   7.923   0.400  2.5747  2.6007 -1.0930
11758SOL    HW235974   5.311   7.984   0.311  0.2180  0.0334 -0.2185
11759SOL     OW35975   5.492   7.380   1.486  0.4883  0.1415 -0.4889
11759SOL    HW135976   5.498   7.350   1.395  0.7784 -0.4196 -0.2896
11759SOL    HW235977   5.572   7.348   1.527  0.6721  0.9531 -0.1919
11760SOL     OW35978   1.899   0.443   5.231 -0.2065 -0.5062  0.6160
11760SOL    HW135979   1.826   0.413   5.178 -1.1114  1.3463  0.7081
11760SOL    HW235980   1.896   0.539   5.223  2.2865 -0.3673  0.5321
11761SOL     OW35981   4.114   1.353   2.787  0.1142  0.1267 -0.1559
11761SOL    HW135982   4.173   1.291   2.744 -0.4323 -0.2622 -0.3733
11761SOL    HW235983   4.037   1.300   2.809 -0.2926  0.6952 -0.1913
11762SOL     OW35984   1.726   0.931   2.382  0.0756 -0.1827  0.6037
11762SOL    HW135985   1.817   0.951   2.405  0.2102  1.4958 -1.1360
11762SOL    HW235986   1.675   0.979   2.448  0.3936 -1.8666  2.1470
11763SOL     OW35987   1.177   5.499   5.636  0.2013  1.0030 -0.2769
11763SOL    HW135988   1.200   5.471   5.725 -0.5788  0.7684 -0.1419
11763SOL    HW235989   1.082   5.485   5.630  0.3109  0.6381 -1.2825
11764SOL     OW35990   2.427   7.614   7.279 -0.3065  0.1184  0.7224
11764SOL    HW135991   2.485   7.540   7.259  1.8563  2.3278 -2.2746
11764SOL    HW235992   2.401   7.647   7.193 -1.5751  2.5502  1.9468
11765SOL     OW35993   4.780   5.913   5.449  0.3785 -0.2815  0.0013
11765SOL    HW135994   4.777   5.920   5.545  1.0357 -0.3735  0.0314
11765SOL    HW235995   4.816   5.826   5.433 -1.0248 -0.8272 -0.3429
11766SOL     OW35996   4.892   2.738   7.900  0.0598 -0.2314 -0.4560
11766SOL    HW135997   4.889   2.675   7.829 -2.0957 -1.5503  0.7004
11766SOL    HW235998   4.857   2.691   7.976  2.1348  1.1305  1.5087
11767SOL     OW35999   4.687   2.850   2.726 -0.2252 -0.1147 -0.2100
11767SOL    HW136000   4.721   2.768   2.690 -0.6987 -1.0612  1.3699
11767SOL    HW236001   4.603   2.826   2.765  0.3943  0.6964  1.7962
11768SOL     OW36002   7.626   6.777   0.754 -0.3079 -0.3139 -0.0331
11768SOL    HW136003   7.680   6.833   0.810 -0.5870  1.1868 -1.1683
11768SOL    HW236004   7.637   6.689   0.789 -0.1497  0.4931  2.0831
11769SOL     OW36005   0.293   6.243   0.931  0.4216  0.1197 -0.4019
11769SOL    HW136006   0.375   6.204   0.900 -0.2080 -0.7690 -0.9896
11769SOL    HW236007   0.236   6.168   0.949  0.6239  0.5931  2.6107
11770SOL     OW36008   4.723   1.618   7.490 -0.4290 -0.0652 -0.4235
11770SOL    HW136009   4.689   1.590   7.405 -1.7379  0.5103 -0.1092
11770SOL    HW236010   4.818   1.623   7.477 -0.5056 -1.0466 -1.5247
11771SOL     OW36011   6.732   1.633   6.338  0.2638 -0.0171  0.6241
11771SOL    HW136012   6.769   1.548   6.361  0.1333  0.2310  1.7902
11771SOL    HW236013   6.660   1.613   6.278  0.2423 -0.7254  0.8831
11772SOL     OW36014   5.176   4.277   0.981 -0.5833 -0.1295  0.4395
11772SOL    HW136015   5.257   4.234   1.006 -0.5388  0.1826  0.8549
11772SOL    HW236016   5.192   4.370   0.999 -1.2802 -0.1507  1.2436
11773SOL     OW36017   4.988   5.970   7.067  1.0762  0.2216 -0.6130
11773SOL    HW136018   4.969   5.878   7.048  0.0465 -0.0479  1.4861
11773SOL    HW236019   5.034   5.968   7.151 -2.4619  1.7863  1.5425
11774SOL     OW36020   0.019   6.965   0.346  0.0508 -0.1497 -0.4570
11774SOL    HW136021   0.025   6.874   0.375  1.3676 -0.0411 -0.3094
11774SOL    HW236022  -0.075   6.982   0.336 -0.2151 -1.4399 -0.2395
11775SOL     OW36023   4.583   0.054   2.081  0.0236  0.2421 -0.0958
11775SOL    HW136024   4.572   0.076   1.989 -0.2351 -0.2334 -0.1808
11775SOL    HW236025   4.578  -0.041   2.084  0.7904  0.2062  0.3117
11776SOL     OW36026   4.951   2.704   3.249  0.1994 -0.6074 -0.5014
11776SOL    HW136027   5.020   2.765   3.222  0.7342  0.4423  2.7196
11776SOL    HW236028   4.965   2.626   3.196  2.5638  0.3456 -1.4090
11777SOL     OW36029   4.530   7.629   3.405 -0.0812 -0.2755 -0.1834
11777SOL    HW136030   4.587   7.575   3.460 -0.4716 -0.3304  0.1732
11777SOL    HW236031   4.588   7.694   3.367  0.6906 -1.8261 -1.7931
11778SOL     OW36032   0.734   7.745   5.642 -0.0774 -0.5510  0.0773
11778SOL    HW136033   0.642   7.716   5.637 -0.4221  0.6914 -2.8174
11778SOL    HW236034   0.728   7.840   5.645  1.0821 -0.4038 -1.3319
11779SOL     OW36035   0.668   0.006   1.502 -0.7812 -0.7241 -0.5160
11779SOL    HW136036   0.578   0.022   1.474 -1.3382 -1.5861  0.6635
11779SOL    HW236037   0.682   0.069   1.573  0.3854  0.9965 -2.1908
11780SOL     OW36038   0.971   3.112   3.491 -0.3351  1.1135 -0.2748
11780SOL    HW136039   0.919   3.185   3.525 -0.0054  1.8194 -1.2530
11780SOL    HW236040   1.026   3.086   3.565 -1.6304  0.7485  0.5937
11781SOL     OW36041   1.877   1.802   4.731 -0.3396  0.0077  0.5617
11781SOL    HW136042   1.840   1.847   4.806 -1.5312 -0.1757  0.1029
11781SOL    HW236043   1.869   1.709   4.752  0.6479 -0.0297  0.8171
11782SOL     OW36044   6.477   2.158   2.811 -0.3455 -0.5895  0.5706
11782SOL    HW136045   6.410   2.142   2.877 -2.3334 -0.0088 -1.1996
11782SOL    HW236046   6.433   2.143   2.728  1.9826 -0.9781 -0.6708
11783SOL     OW36047   6.095   0.125   2.689 -0.3410  0.9295 -0.9773
11783SOL    HW136048   6.100   0.148   2.596 -1.3792 -0.1153 -1.3099
11783SOL    HW236049   6.002   0.111   2.706 -0.0260 -0.3305 -0.1447
11784SOL     OW36050   4.806   4.893   0.729  0.4595  0.3624  0.1255
11784SOL    HW136051   4.743   4.928   0.792 -1.7680  0.4581 -2.0201
11784SOL    HW236052   4.818   4.963   0.665 -0.3851 -1.0618 -1.6619
11785SOL     OW36053   2.556   3.130   6.705  0.1678  0.4920 -0.2179
11785SOL    HW136054   2.515   3.047   6.681 -0.8285  0.7880  0.3965
11785SOL    HW236055   2.545   3.136   6.800 -0.8112  1.8539 -0.3811
11786SOL     OW36056   0.840   0.598   4.597  0.0909 -0.0985  0.6013
11786SOL    HW136057   0.932   0.622   4.583  0.5069 -0.2664  2.7418
11786SOL    HW236058   0.838   0.563   4.686 -1.8692 -1.1203  0.1969
11787SOL     OW36059   1.841   5.949   7.056 -0.3434  0.3539  0.6152
11787SOL    HW136060   1.759   5.915   7.091 -0.6850  0.8208  0.2736
11787SOL    HW236061   1.816   6.027   7.007  0.2493  0.2541  0.1400
11788SOL     OW36062   7.411   4.410   0.290 -0.3204 -0.0422 -0.1450
11788SOL    HW136063   7.386   4.323   0.321  1.8698 -0.8178 -0.4095
11788SOL    HW236064   7.405   4.466   0.367  2.1896 -1.3296  1.1026
11789SOL     OW36065   5.934   6.994   0.686  0.9806 -0.5524 -1.0609
11789SOL    HW136066   5.920   6.900   0.696  1.5759 -0.5501 -0.0201
11789SOL    HW236067   5.982   7.019   0.765 -0.5543  0.9208 -0.5514
11790SOL     OW36068   1.741   0.205   1.917  0.4281  0.1422 -0.0589
11790SOL    HW136069   1.822   0.164   1.945  0.8502 -0.1448 -1.6120
11790SOL    HW236070   1.717   0.264   1.989  0.2510 -2.1284  1.8452
11791SOL     OW36071   0.097   6.023   4.274  0.2065  0.3440 -0.3362
11791SOL    HW136072   0.028   5.979   4.224  1.5502  0.9220 -2.8497
11791SOL    HW236073   0.095   6.114   4.243 -0.1441  1.2740  2.1463
11792SOL     OW36074   0.732   6.789   3.085 -0.3351 -0.1636  0.3616
11792SOL    HW136075   0.730   6.760   2.994  1.4003 -1.2646  0.6245
11792SOL    HW236076   0.813   6.753   3.120 -0.4838  1.0413  2.0957
11793SOL     OW36077   2.407   5.716   4.329  0.0952 -0.1398 -0.1616
11793SOL    HW136078   2.352   5.666   4.390 -0.0786 -1.6369 -1.4832
11793SOL    HW236079   2.495   5.678   4.339 -0.2038 -1.3897 -1.7815
11794SOL     OW36080   2.612   2.968   2.942 -0.0037 -0.2265 -0.6370
11794SOL    HW136081   2.611   3.060   2.968 -1.4555 -0.3953 -0.0350
11794SOL    HW236082   2.590   2.919   3.022  0.4477 -1.0876 -1.0181
11795SOL     OW36083   1.089   7.279   0.994  0.4225 -0.2182 -0.1256
11795SOL    HW136084   1.148   7.319   1.058 -1.4459 -0.1578  1.6680
11795SOL    HW236085   1.076   7.190   1.025 -1.4524  0.1684  0.3335
11796SOL     OW36086   2.956   3.931   3.801  0.1558  0.6707  0.7882
11796SOL    HW136087   3.048   3.955   3.799  0.2406  0.3261  0.2294
11796SOL    HW236088   2.952   3.848   3.753 -0.8262  2.1083 -1.8705
11797SOL     OW36089   4.542   1.169   2.077 -0.1876 -0.2478  0.3233
11797SOL    HW136090   4.638   1.167   2.072 -0.2531 -1.6848 -1.5155
11797SOL    HW236091   4.516   1.077   2.069 -1.7544  0.2191 -0.2146
11798SOL     OW36092   0.485   3.309   4.014  0.0637 -0.0512  0.1447
11798SOL    HW136093   0.389   3.311   4.010  0.0646  1.3133  0.4544
11798SOL    HW236094   0.513   3.367   3.943  0.6587 -0.2057  0.2525
11799SOL     OW36095   5.784   2.021   2.227  0.2902 -0.1336  0.5004
11799SOL    HW136096   5.720   1.973   2.174 -1.2505  1.4076  0.8733
11799SOL    HW236097   5.825   2.082   2.166 -0.0012  0.2136  0.6470
11800SOL     OW36098   3.758   5.789   5.211  0.2227  0.5651  0.0942
11800SOL    HW136099   3.705   5.709   5.203  0.2382  0.2414  2.5809
11800SOL    HW236100   3.697   5.860   5.189 -0.3567 -0.0026 -0.1705
11801SOL     OW36101   0.378   4.253   3.729  0.7014  0.1465 -0.0697
11801SOL    HW136102   0.299   4.260   3.783  0.2214 -1.3205 -0.5420
11801SOL    HW236103   0.373   4.328   3.669  0.2133  0.6532  0.5868
11802SOL     OW36104   7.575   5.063   1.817 -0.0036 -0.0679  0.0209
11802SOL    HW136105   7.616   5.120   1.751  0.5124 -0.4098  0.0369
11802SOL    HW236106   7.632   4.986   1.820  0.2518  0.1527  1.2163
11803SOL     OW36107   3.798   6.584   6.898 -0.5170 -0.6212 -0.1620
11803SOL    HW136108   3.753   6.601   6.816  0.1398  0.4082 -0.3348
11803SOL    HW236109   3.835   6.669   6.923  2.2920 -1.5870 -0.6310
11804SOL     OW36110   1.864   6.751   2.033  0.0014  0.5714 -0.1617
11804SOL    HW136111   1.946   6.717   2.068  0.7657  0.3915 -2.0018
11804SOL    HW236112   1.874   6.846   2.035  0.6330  0.5451 -1.1305
11805SOL     OW36113   6.413   2.186   7.022  0.2761  0.1075 -0.0759
11805SOL    HW136114   6.360   2.177   6.942 -0.2128 -0.8461  0.3343
11805SOL    HW236115   6.475   2.113   7.018  0.9748  0.6991 -0.1106
11806SOL     OW36116   4.585   0.733   7.784  0.2282 -0.1166 -0.3088
11806SOL    HW136117   4.498   0.701   7.809  0.0681 -0.1179 -0.8365
11806SOL    HW236118   4.642   0.657   7.791  1.0344  0.6411  3.6901
11807SOL     OW36119   4.335   7.400   2.883  0.4607 -0.3845  0.0002
11807SOL    HW136120   4.248   7.415   2.845  0.4285 -2.4915 -0.8515
11807SOL    HW236121   4.393   7.454   2.830 -0.2741  1.1071  0.6233
11808SOL     OW36122   4.982   7.536   1.359 -0.5606 -0.3980 -0.3009
11808SOL    HW136123   5.065   7.576   1.333 -0.3298 -0.4271  0.3631
11808SOL    HW236124   4.952   7.590   1.433 -0.8427 -0.7309 -0.1695
11809SOL     OW36125   7.506   3.962   1.591  0.2300  0.3817 -0.1191
11809SOL    HW136126   7.586   3.972   1.538  0.8076 -0.3000  0.5873
11809SOL    HW236127   7.437   3.945   1.527  0.8753 -0.2074 -0.6799
11810SOL     OW36128   1.708   6.176   1.596  0.1667  0.1211 -0.1049
11810SOL    HW136129   1.770   6.185   1.524  0.2036  0.1452 -0.0707
11810SOL    HW236130   1.679   6.265   1.615 -0.9789 -0.0188 -1.0685
11811SOL     OW36131   2.799   4.441   6.839  0.4017  0.6593 -0.3988
11811SOL    HW136132   2.785   4.454   6.933  1.4668 -1.4055  0.1118
11811SOL    HW236133   2.878   4.492   6.819 -1.4032  3.4718 -0.8969
11812SOL     OW36134   3.109   3.087   1.499  0.5077 -0.1939  0.2733
11812SOL    HW136135   3.029   3.038   1.520  0.9262 -0.2479  1.7860
11812SOL    HW236136   3.088   3.178   1.521 -0.0788  0.2879 -2.0170
11813SOL     OW36137   1.999   0.733   4.927 -0.0660  0.5864 -0.4595
11813SOL    HW136138   1.911   0.747   4.961 -0.2496 -3.8176  1.5002
11813SOL    HW236139   1.986   0.705   4.836 -0.8789 -1.3251  0.2094
11814SOL     OW36140   0.769   6.717   4.082  0.1015 -0.3586  0.0311
11814SOL    HW136141   0.789   6.666   4.160 -0.9947  0.2265  0.7194
11814SOL    HW236142   0.676   6.702   4.067 -0.3542  1.6933  0.4918
11815SOL     OW36143   0.949   6.255   3.257  0.3001 -0.2839  0.2035
11815SOL    HW136144   0.945   6.159   3.254  1.2519 -0.3151 -0.4773
11815SOL    HW236145   1.041   6.275   3.270  0.8539  0.5493 -3.5838
11816SOL     OW36146   3.901   3.221   3.430  0.0467 -0.1714  0.5463
11816SOL    HW136147   3.884   3.183   3.516  1.0952  1.9965  1.7958
11816SOL    HW236148   3.816   3.255   3.402 -0.2682 -0.7254  0.8077
11817SOL     OW36149   4.159   2.129   0.180 -0.1207 -0.4233 -0.0596
11817SOL    HW136150   4.167   2.208   0.233  1.8050 -1.3788  1.2056
11817SOL    HW236151   4.084   2.082   0.217  0.1620 -0.2672  0.7278
11818SOL     OW36152   2.896   0.479   6.326 -0.0682 -0.7567 -0.0149
11818SOL    HW136153   2.929   0.569   6.320  1.9870 -1.4462  0.2026
11818SOL    HW236154   2.827   0.475   6.260 -0.6276  1.1397  0.3864
11819SOL     OW36155   0.933   7.921   6.519 -0.2905  0.6240  0.1921
11819SOL    HW136156   0.866   7.981   6.553  0.1211  1.1434  0.1140
11819SOL    HW236157   0.931   7.935   6.424  0.2580  1.0127  0.2299
11820SOL     OW36158   4.667   0.891   6.632 -0.2210  0.2209  0.0105
11820SOL    HW136159   4.662   0.949   6.709  2.1060 -1.5387  1.6290
11820SOL    HW236160   4.756   0.902   6.600 -0.9356  0.3629 -2.0676
11821SOL     OW36161   7.464   1.716   6.500  0.7329 -0.2732  0.3981
11821SOL    HW136162   7.547   1.706   6.547  1.0709  0.7674  0.0624
11821SOL    HW236163   7.415   1.779   6.553  0.8513  0.4024 -0.2851
11822SOL     OW36164   3.721   6.420   2.915 -0.4760  0.3236 -0.2456
11822SOL    HW136165   3.792   6.484   2.913  0.2864 -0.5025 -0.2838
11822SOL    HW236166   3.648   6.467   2.956 -0.4342  1.6775 -1.6218
11823SOL     OW36167   4.358   2.533   2.449  0.4268  0.6158 -0.2070
11823SOL    HW136168   4.398   2.620   2.444  0.7087  0.7876  3.0033
11823SOL    HW236169   4.264   2.550   2.444  0.2026  1.7185  3.9086
11824SOL     OW36170   6.446   0.800   5.323  0.4608 -0.3387  0.5776
11824SOL    HW136171   6.534   0.767   5.338  0.4532  0.1948  1.8624
11824SOL    HW236172   6.393   0.721   5.310  0.7442 -0.7659  1.9265
11825SOL     OW36173   5.850   2.653   2.316  0.2767  0.0311 -0.1379
11825SOL    HW136174   5.807   2.650   2.402  0.4392  1.2746  0.0046
11825SOL    HW236175   5.883   2.564   2.303 -0.4380 -0.3832  0.7273
11826SOL     OW36176   5.725   1.904   2.486  0.5419 -0.5547 -0.0805
11826SOL    HW136177   5.652   1.846   2.464 -0.3477  0.0769  1.1386
11826SOL    HW236178   5.761   1.930   2.401 -0.7933 -0.6888 -0.7136
11827SOL     OW36179   6.164   3.789   2.383  0.0465 -0.0537 -0.0785
11827SOL    HW136180   6.239   3.756   2.334  1.3270 -0.7757  2.2114
11827SOL    HW236181   6.112   3.711   2.403  0.3254 -0.0082  0.8989
11828SOL     OW36182   5.051   7.045   5.740 -0.5677  0.1672  0.1110
11828SOL    HW136183   5.109   6.973   5.766 -1.5979 -0.9064 -0.4546
11828SOL    HW236184   5.037   7.096   5.820  0.8741  0.2617  0.3263
11829SOL     OW36185   6.054   3.312   5.541  0.5819 -0.2337 -0.2730
11829SOL    HW136186   6.126   3.357   5.585  0.4964 -1.5485  1.2831
11829SOL    HW236187   5.991   3.381   5.522  0.1763  0.2985  2.5730
11830SOL     OW36188   7.797   1.402   4.304  0.1488 -0.7906 -0.1722
11830SOL    HW136189   7.736   1.474   4.288 -0.0773 -0.9184  0.1030
11830SOL    HW236190   7.868   1.417   4.242  1.1182  0.8344  1.2662
11831SOL     OW36191   3.164   2.397   0.839  0.0992 -0.6123  0.0737
11831SOL    HW136192   3.084   2.402   0.892 -0.6519 -1.3783 -0.9385
11831SOL    HW236193   3.191   2.305   0.845  0.8250 -0.3916  0.2841
11832SOL     OW36194   2.547   4.530   6.457  0.0134 -0.0827 -0.2089
11832SOL    HW136195   2.465   4.543   6.505  0.2269 -2.5301  0.9668
11832SOL    HW236196   2.520   4.525   6.365 -0.9855  0.3493  0.0501
11833SOL     OW36197   4.512   6.919   1.145  0.2991 -0.2415 -0.0713
11833SOL    HW136198   4.607   6.924   1.158  0.4990 -0.5852 -1.3256
11833SOL    HW236199   4.492   6.993   1.088 -0.5317  1.1042  1.8588
11834SOL     OW36200   3.352   4.550   6.290 -0.6853  0.2564  0.0461
11834SOL    HW136201   3.390   4.508   6.368 -1.1036 -0.8244 -0.3109
11834SOL    HW236202   3.268   4.506   6.278  0.2080 -1.0183 -2.1482
11835SOL     OW36203   6.236   4.797   1.325 -0.2537 -0.0276 -0.0527
11835SOL    HW136204   6.327   4.805   1.297 -0.9766  0.6187 -2.5149
11835SOL    HW236205   6.221   4.703   1.332  0.3090 -0.1745 -0.7323
11836SOL     OW36206   0.311   4.054   7.235 -0.0754 -0.0766  0.3777
11836SOL    HW136207   0.337   4.130   7.288 -2.0135 -0.5059  2.0946
11836SOL    HW236208   0.220   4.039   7.259 -0.6404 -1.1649 -2.1653
11837SOL     OW36209   4.223   4.629   3.291  0.2413 -0.2087  0.4542
11837SOL    HW136210   4.174   4.547   3.283 -0.0288 -0.2366  2.1197
11837SOL    HW236211   4.230   4.644   3.385 -0.6326  2.2141  0.2040
11838SOL     OW36212   5.693   5.960   4.690 -0.0925  0.5357  0.0413
11838SOL    HW136213   5.616   5.964   4.634  1.0831 -1.7579 -1.9428
11838SOL    HW236214   5.735   6.045   4.681 -0.4699  0.5583 -1.8121
11839SOL     OW36215   6.162   1.506   5.459 -0.3943  0.4913  0.3224
11839SOL    HW136216   6.190   1.452   5.532 -1.3730 -1.2098 -0.4871
11839SOL    HW236217   6.067   1.510   5.467 -0.3533  1.9914  0.2643
11840SOL     OW36218   7.774   5.940   4.979  0.2351 -0.2678 -0.2317
11840SOL    HW136219   7.748   5.852   5.006  1.1874 -0.9071 -1.3278
11840SOL    HW236220   7.855   5.928   4.930  0.3230  1.2159 -0.5115
11841SOL     OW36221   1.851   7.125   1.776  0.1137  0.2061 -0.1904
11841SOL    HW136222   1.769   7.171   1.759 -0.6109 -0.2500  1.7872
11841SOL    HW236223   1.917   7.195   1.783 -0.6931  0.8654  1.2493
11842SOL     OW36224   6.417   5.428   3.224  0.3699  0.2625  1.1261
11842SOL    HW136225   6.367   5.353   3.255 -1.6983  0.8701 -0.5017
11842SOL    HW236226   6.488   5.439   3.288  0.3534 -2.6398  1.7459
11843SOL     OW36227   0.590   7.170   7.239 -0.1794 -0.5487 -0.4258
11843SOL    HW136228   0.596   7.075   7.253 -2.6209 -1.5010 -4.4009
11843SOL    HW236229   0.595   7.181   7.144  1.0839  3.5044 -0.0776
11844SOL     OW36230   3.504   1.567   7.265 -0.4327  0.7816 -0.5058
11844SOL    HW136231   3.500   1.596   7.357 -1.8055 -0.3190 -0.1826
11844SOL    HW236232   3.542   1.479   7.270 -0.3528  0.7860 -1.0233
11845SOL     OW36233   6.979   0.323   3.584 -0.0356  0.8121 -0.3834
11845SOL    HW136234   7.064   0.301   3.622 -0.1388  1.0054 -0.0349
11845SOL    HW236235   6.986   0.416   3.562 -1.0873  1.6045  2.2391
11846SOL     OW36236   4.032   4.784   5.215 -0.1094  0.4718  0.5704
11846SOL    HW136237   4.086   4.806   5.139 -1.8337  0.8767 -0.5835
11846SOL    HW236238   4.008   4.869   5.253 -0.2949  0.3098  0.8173
11847SOL     OW36239   0.956   4.196   5.150 -0.0863 -0.2419 -0.1585
11847SOL    HW136240   0.917   4.202   5.062  1.3041  0.7914 -0.7486
11847SOL    HW236241   1.032   4.140   5.137  0.3145  0.1918  0.3099
11848SOL     OW36242   7.102   5.559   3.334  0.6713  0.2132 -0.4118
11848SOL    HW136243   7.037   5.624   3.304 -0.9018  0.1126  2.4000
11848SOL    HW236244   7.155   5.606   3.398  0.6676 -0.7863  0.3505
11849SOL     OW36245   1.959   7.437   3.162  0.1956 -0.3870 -0.2276
11849SOL    HW136246   1.907   7.485   3.226 -0.6401 -1.2844 -0.2130
11849SOL    HW236247   1.995   7.363   3.211  0.8640 -0.2092 -0.4277
11850SOL     OW36248   6.390   0.321   1.695  0.5630 -0.2004 -1.0096
11850SOL    HW136249   6.341   0.261   1.640  0.7152 -1.3784  0.0928
11850SOL    HW236250   6.343   0.322   1.778  1.0520  0.5414 -0.7279
11851SOL     OW36251   4.772   4.208   6.342 -0.2165  0.6332  0.3304
11851SOL    HW136252   4.738   4.192   6.254 -0.5344 -0.7410  0.6683
11851SOL    HW236253   4.845   4.269   6.330  0.6852 -0.6499 -1.0775
11852SOL     OW36254   4.961   5.503   2.707  0.0452  0.3384 -0.0434
11852SOL    HW136255   4.982   5.434   2.645 -0.6075  0.8090 -0.8048
11852SOL    HW236256   5.025   5.493   2.777  1.2912  0.2785 -1.1595
11853SOL     OW36257   2.906   7.159   5.043  0.0820 -0.3647  0.1745
11853SOL    HW136258   2.906   7.136   4.950  1.3025  0.8950 -0.1623
11853SOL    HW236259   2.990   7.203   5.057 -1.0379  1.5194  1.3615
11854SOL     OW36260   2.226   1.509   4.335 -0.5759 -0.3908  0.4839
11854SOL    HW136261   2.142   1.532   4.295 -0.6138  0.2685  0.9203
11854SOL    HW236262   2.280   1.480   4.261 -1.4908 -1.7912  0.3312
11855SOL     OW36263   7.191   3.490   5.456  0.0639 -1.0083 -0.3562
11855SOL    HW136264   7.193   3.580   5.425  0.0127 -1.2935 -1.2002
11855SOL    HW236265   7.201   3.497   5.551  2.1254 -0.2231 -0.5891
11856SOL     OW36266   6.357   5.666   3.087 -0.2828 -0.2228 -0.0126
11856SOL    HW136267   6.426   5.724   3.056  0.8081 -0.7564  1.3439
11856SOL    HW236268   6.402   5.584   3.108 -1.3073 -0.5578  0.9700
11857SOL     OW36269   5.520   4.451   7.361  0.1121 -0.1189  0.0221
11857SOL    HW136270   5.461   4.407   7.301  0.0923  0.6785 -0.5511
11857SOL    HW236271   5.573   4.508   7.306  0.7044 -0.0455  0.6532
11858SOL     OW36272   1.505   7.614   3.645 -0.1939  0.5710  0.6223
11858SOL    HW136273   1.570   7.617   3.575 -1.0028 -1.2027 -0.2708
11858SOL    HW236274   1.534   7.680   3.708  1.8068  0.6280 -0.2936
11859SOL     OW36275   3.136   1.435   4.111  0.4937 -0.1993 -0.3544
11859SOL    HW136276   3.230   1.425   4.126  0.5736  1.5386  0.4968
11859SOL    HW236277   3.098   1.438   4.199 -0.4989 -1.7091 -0.6844
11860SOL     OW36278   2.091   6.050   5.791 -0.0244 -0.8352 -0.2766
11860SOL    HW136279   2.174   6.082   5.826 -2.0153  1.7033  2.6667
11860SOL    HW236280   2.036   6.129   5.784 -2.6081 -2.5598 -0.8318
11861SOL     OW36281   3.924   0.213   5.687 -0.4899 -0.8480 -0.6101
11861SOL    HW136282   3.961   0.125   5.684  1.7121 -0.0139 -0.2917
11861SOL    HW236283   3.947   0.252   5.603  0.3315  0.0438  0.0020
11862SOL     OW36284   1.474   2.126   4.065 -0.1309 -0.2871  0.3661
11862SOL    HW136285   1.505   2.203   4.017  0.1741 -0.8459 -0.3486
11862SOL    HW236286   1.546   2.103   4.124  1.4442 -2.3317 -2.1650
11863SOL     OW36287   2.499   0.539   6.674 -0.1231  0.1084  0.4219
11863SOL    HW136288   2.494   0.584   6.590  1.6361 -1.1762 -0.4185
11863SOL    HW236289   2.585   0.564   6.710 -0.9408  0.8357  1.9953
11864SOL     OW36290   2.142   0.341   0.508  0.3110  0.1259 -0.0747
11864SOL    HW136291   2.100   0.423   0.533 -0.6432 -0.3444 -0.1052
11864SOL    HW236292   2.234   0.354   0.529  0.2273  1.3222 -0.3697
11865SOL     OW36293   7.818   6.483   7.717  0.6158  1.0322 -0.6395
11865SOL    HW136294   7.744   6.504   7.659 -0.0452  0.7357  0.0803
11865SOL    HW236295   7.812   6.546   7.788 -0.3179 -0.4070  0.6024
11866SOL     OW36296   5.658   4.457   1.657 -0.1518  0.6866 -0.4480
11866SOL    HW136297   5.705   4.451   1.574 -1.2047 -1.3747 -0.9581
11866SOL    HW236298   5.589   4.521   1.642  1.5113  2.6480 -0.1375
11867SOL     OW36299   3.347   7.651   7.363  0.2129  0.1046  0.5588
11867SOL    HW136300   3.263   7.626   7.325  0.1838 -0.1767  0.8067
11867SOL    HW236301   3.352   7.746   7.350 -0.1418  0.1235  0.5474
11868SOL     OW36302   4.055   5.008   4.745 -0.0501 -0.3161 -0.9432
11868SOL    HW136303   3.969   5.050   4.754  0.9112  1.4624  0.4755
11868SOL    HW236304   4.064   4.993   4.651 -1.7053 -0.1266 -1.1732
11869SOL     OW36305   4.738   2.358   4.164  0.0079 -0.5762  0.7763
11869SOL    HW136306   4.795   2.400   4.099  0.4624 -3.3309 -0.7696
11869SOL    HW236307   4.659   2.336   4.115 -0.2562 -1.3952  1.5486
11870SOL     OW36308   7.195   3.863   4.700  0.4091  0.2476  0.4695
11870SOL    HW136309   7.204   3.912   4.619  0.5848  0.2621  0.4962
11870SOL    HW236310   7.138   3.789   4.678 -0.6280  0.9828  0.6689
11871SOL     OW36311   5.262   7.459   6.844  0.0478 -0.1731 -0.0720
11871SOL    HW136312   5.292   7.538   6.888  1.0031 -0.9388  0.7172
11871SOL    HW236313   5.331   7.439   6.780 -0.7641  0.2773 -1.1204
11872SOL     OW36314   1.809   1.804   6.465 -0.0940 -0.6697  0.1460
11872SOL    HW136315   1.794   1.813   6.559 -2.4704  1.2908 -0.3295
11872SOL    HW236316   1.784   1.713   6.446 -3.2210 -0.1018  0.9301
11873SOL     OW36317   0.780   3.453   7.183  0.1017 -0.2982  0.5501
11873SOL    HW136318   0.766   3.494   7.098  0.9080 -0.0527  0.5279
11873SOL    HW236319   0.870   3.419   7.180  0.6207  0.8647  1.7569
11874SOL     OW36320   0.665   4.483   5.483 -0.2115  0.0726  0.1563
11874SOL    HW136321   0.580   4.450   5.514 -0.8786  1.9093  0.4205
11874SOL    HW236322   0.643   4.535   5.406  0.6075  0.9808  0.5185
11875SOL     OW36323   1.438   0.675   6.065  0.0565  0.0918 -0.3500
11875SOL    HW136324   1.389   0.707   6.141  0.2872  0.6621 -0.4347
11875SOL    HW236325   1.392   0.711   5.989 -0.8150 -1.3611 -0.5459
11876SOL     OW36326   6.414   3.566   3.208  0.1282  0.2178 -0.0531
11876SOL    HW136327   6.462   3.509   3.267  0.1518 -0.4671 -0.7285
11876SOL    HW236328   6.481   3.613   3.159  0.1469 -1.3141 -1.5560
11877SOL     OW36329   0.730   1.697   0.688  0.3941 -0.4259 -0.0497
11877SOL    HW136330   0.703   1.697   0.780 -0.6475  0.3180 -0.3358
11877SOL    HW236331   0.822   1.670   0.689  0.0957 -1.4892  1.1131
11878SOL     OW36332   6.594   2.858   4.980  0.6039  0.2640  0.1993
11878SOL    HW136333   6.598   2.770   4.944  3.2473  0.8072 -1.1192
11878SOL    HW236334   6.566   2.846   5.070 -0.1809 -1.7847 -0.2638
11879SOL     OW36335   6.234   1.028   0.330 -0.4715  1.3832  0.3075
11879SOL    HW136336   6.222   0.953   0.388 -0.6367  1.3329  0.2097
11879SOL    HW236337   6.235   1.104   0.388 -1.4483  1.4098  0.3171
11880SOL     OW36338   6.891   1.777   5.259 -0.2224  0.0124 -0.0812
11880SOL    HW136339   6.840   1.848   5.221 -0.7226 -1.5732 -2.6444
11880SOL    HW236340   6.982   1.809   5.258 -0.8465  2.7362  4.2328
11881SOL     OW36341   6.674   3.511   0.271 -0.1769 -0.2142  0.1074
11881SOL    HW136342   6.612   3.569   0.226 -0.4405  0.6005  1.4590
11881SOL    HW236343   6.623   3.472   0.342  0.7123  0.0614  0.9220
11882SOL     OW36344   0.627   1.929   3.573  0.0235  0.3134 -0.2253
11882SOL    HW136345   0.632   2.011   3.524  1.5229  1.2369  1.3445
11882SOL    HW236346   0.534   1.914   3.586 -0.3253  1.0065 -1.7726
11883SOL     OW36347   4.084   4.131   1.950 -0.2164 -0.4644  0.4829
11883SOL    HW136348   4.076   4.083   2.033  0.6391 -1.5557 -0.0396
11883SOL    HW236349   4.090   4.063   1.884 -0.9973  0.3949 -0.5118
11884SOL     OW36350   2.639   1.021   7.638  0.0732  0.0838 -0.3407
11884SOL    HW136351   2.608   0.967   7.711 -0.5416 -0.2071 -0.8103
11884SOL    HW236352   2.559   1.053   7.596  0.3630 -1.4004 -2.1211
11885SOL     OW36353   5.625   0.848   0.262 -0.0499  0.3773  0.3937
11885SOL    HW136354   5.594   0.816   0.347 -1.0577  1.1859  0.3606
11885SOL    HW236355   5.557   0.910   0.234  0.4042  0.3340 -0.8752
11886SOL     OW36356   1.709   1.933   1.685  0.0879 -0.3525  0.2581
11886SOL    HW136357   1.715   2.029   1.686  2.7981 -0.4321  0.6757
11886SOL    HW236358   1.716   1.908   1.777 -1.4488 -0.9634  0.2321
11887SOL     OW36359   1.744   2.069   0.250 -0.5449  0.0147 -0.4703
11887SOL    HW136360   1.733   2.044   0.158  0.7913  0.0587 -0.6511
11887SOL    HW236361   1.783   2.156   0.248 -1.7361  0.6011  0.1660
11888SOL     OW36362   0.962   7.837   6.881  0.1096  0.3800  0.3632
11888SOL    HW136363   0.888   7.898   6.881  0.3110  0.7031 -1.9054
11888SOL    HW236364   1.039   7.892   6.870  0.3755 -0.1714 -0.7216
11889SOL     OW36365   1.426   3.560   1.246  0.4367 -0.1515 -0.1817
11889SOL    HW136366   1.351   3.618   1.237 -0.9634 -1.5634  1.6276
11889SOL    HW236367   1.392   3.473   1.226  2.1612 -0.5748 -1.5050
11890SOL     OW36368   7.315   4.369   2.510 -0.2210 -0.2470 -0.2791
11890SOL    HW136369   7.279   4.417   2.435 -1.0064 -1.0334 -0.4331
11890SOL    HW236370   7.367   4.299   2.470  0.1216 -0.1103 -0.0748
11891SOL     OW36371   3.641   4.996   5.239 -0.2958  0.3423  0.2634
11891SOL    HW136372   3.646   4.932   5.168 -0.5304 -0.5970  1.0733
11891SOL    HW236373   3.667   4.947   5.317 -4.7454 -0.1397  1.7531
11892SOL     OW36374   5.530   0.504   4.861  0.2392 -0.0039 -0.0587
11892SOL    HW136375   5.592   0.477   4.794  1.9563 -0.6010  1.6690
11892SOL    HW236376   5.558   0.593   4.884 -0.0062 -0.0028  0.2358
11893SOL     OW36377   0.740   7.849   1.200  0.2632  0.0094 -0.0113
11893SOL    HW136378   0.756   7.775   1.259  0.4093  1.6993  2.1886
11893SOL    HW236379   0.815   7.907   1.212  0.6095  0.1653 -2.3862
11894SOL     OW36380   4.709   5.532   2.611 -1.0966 -0.4326  0.3844
11894SOL    HW136381   4.790   5.515   2.658 -1.4552 -2.6044  0.2850
11894SOL    HW236382   4.703   5.628   2.608  1.7698 -0.1914 -0.1765
11895SOL     OW36383   3.587   6.378   7.030 -0.5210  0.8590  0.4019
11895SOL    HW136384   3.681   6.365   7.041 -0.2473  0.9359 -1.4568
11895SOL    HW236385   3.547   6.327   7.100  0.7873 -2.9610 -1.3770
11896SOL     OW36386   0.147   2.737   4.528  0.2382 -0.0951 -0.5216
11896SOL    HW136387   0.093   2.694   4.462  2.0847 -2.0256 -0.8820
11896SOL    HW236388   0.231   2.691   4.525  1.6800  2.2426  0.5465
11897SOL     OW36389   1.225   6.552   2.410  0.1661  0.0724 -0.6788
11897SOL    HW136390   1.225   6.562   2.505 -0.5986 -2.6875 -0.3172
11897SOL    HW236391   1.274   6.628   2.379  2.9993 -0.4217  2.0815
11898SOL     OW36392   3.239   1.954   0.951 -0.0305 -0.1137  0.7507
11898SOL    HW136393   3.266   2.022   1.013  0.6333  1.1352 -0.8332
11898SOL    HW236394   3.172   1.995   0.897  0.9437 -0.3959 -0.7562
11899SOL     OW36395   5.158   3.891   6.888  0.2920 -0.1852 -0.2796
11899SOL    HW136396   5.252   3.884   6.871  0.6373  3.7348 -0.9867
11899SOL    HW236397   5.151   3.890   6.984  1.1145 -0.1140 -0.2131
11900SOL     OW36398   3.515   5.837   4.517 -0.2930 -0.1390 -0.2241
11900SOL    HW136399   3.483   5.768   4.575 -0.2381 -0.2000 -0.2668
11900SOL    HW236400   3.472   5.917   4.548 -0.9992 -0.3273 -0.6882
11901SOL     OW36401   1.698   7.916   2.310  0.0363  0.1869 -0.0651
11901SOL    HW136402   1.673   7.889   2.222 -0.4778 -0.6793  0.3340
11901SOL    HW236403   1.693   7.836   2.362 -1.1353  0.9561  1.0763
11902SOL     OW36404   5.695   3.953   4.990  0.7672 -0.2969  0.7188
11902SOL    HW136405   5.704   4.013   4.916 -0.4620 -0.6184  0.2901
11902SOL    HW236406   5.754   3.988   5.057 -0.3687  1.7670  0.7270
11903SOL     OW36407   7.088   0.021   5.523  0.2207  0.4664 -0.0566
11903SOL    HW136408   7.069   0.104   5.480 -2.2659 -0.6895 -1.4452
11903SOL    HW236409   7.076   0.039   5.616  1.8024  2.1026 -0.1227
11904SOL     OW36410   4.845   7.273   4.569 -0.1491 -0.3719  0.6000
11904SOL    HW136411   4.752   7.264   4.548  0.1875 -1.4521 -0.5213
11904SOL    HW236412   4.861   7.368   4.566 -0.7582 -0.2882 -1.3195
11905SOL     OW36413   3.967   5.110   1.858  0.0574 -0.1830  0.1642
11905SOL    HW136414   4.055   5.092   1.888 -0.3866 -0.0692  1.5968
11905SOL    HW236415   3.962   5.206   1.855 -0.1383 -0.1828  0.4678
11906SOL     OW36416   4.937   2.622   2.924 -0.2348 -0.3401  0.1897
11906SOL    HW136417   4.850   2.583   2.910 -0.6690  0.4075  0.7000
11906SOL    HW236418   4.922   2.716   2.914  1.0396 -0.3292 -2.3811
11907SOL     OW36419   2.798   6.089   6.319  0.3881 -0.1774 -0.3716
11907SOL    HW136420   2.762   6.147   6.252  0.7119  0.4700  0.0086
11907SOL    HW236421   2.815   6.146   6.394  0.6520 -0.7750  0.0322
11908SOL     OW36422   6.594   6.653   0.916  0.0649  0.2568  0.2245
11908SOL    HW136423   6.688   6.637   0.909  0.2899  1.8175 -0.8959
11908SOL    HW236424   6.556   6.605   0.843  0.1494  0.6406 -0.0761
11909SOL     OW36425   3.086   5.878   6.583 -0.2217  0.4608  0.0187
11909SOL    HW136426   3.117   5.792   6.612 -0.2535  0.6855  0.7503
11909SOL    HW236427   3.005   5.860   6.535 -0.9697  0.1763  1.3182
11910SOL     OW36428   0.932   6.528   2.242  0.2664 -0.3404 -0.1857
11910SOL    HW136429   0.981   6.455   2.281 -0.0819 -0.9687 -0.8966
11910SOL    HW236430   0.961   6.531   2.151 -1.7842 -1.4480 -0.9320
11911SOL     OW36431   6.308   7.078   4.896  0.2779  0.7356  0.3828
11911SOL    HW136432   6.373   7.134   4.855  0.2449  0.3234 -0.2501
11911SOL    HW236433   6.359   7.015   4.947  0.4991 -0.5887 -1.3643
11912SOL     OW36434   6.252   0.394   7.002 -0.8727 -0.5236  0.3442
11912SOL    HW136435   6.333   0.367   6.960 -0.8089 -0.2692  0.3019
11912SOL    HW236436   6.273   0.478   7.043 -1.3254 -0.0594 -0.3373
11913SOL     OW36437   5.131   0.389   3.288  0.4896 -0.4461  0.1049
11913SOL    HW136438   5.219   0.387   3.326  0.6159  0.1519 -0.1387
11913SOL    HW236439   5.080   0.443   3.349  1.6005  3.8381 -2.3080
11914SOL     OW36440   2.877   0.850   2.354 -0.0234  0.3298 -0.4449
11914SOL    HW136441   2.852   0.854   2.262  1.2212  2.0256 -0.7539
11914SOL    HW236442   2.969   0.826   2.352 -0.2426 -0.6446  0.4285
11915SOL     OW36443   4.842   1.113   1.357  0.3747  0.3139 -0.0285
11915SOL    HW136444   4.754   1.151   1.346  0.4618  0.7754  0.7882
11915SOL    HW236445   4.900   1.176   1.314  0.2562 -0.3639 -1.2393
11916SOL     OW36446   0.648   0.345   6.455  0.6921  0.1702 -0.0704
11916SOL    HW136447   0.612   0.257   6.465 -1.0650  0.6254 -1.7308
11916SOL    HW236448   0.585   0.390   6.399  1.6692  2.4269  0.5331
11917SOL     OW36449   1.496   1.689   4.736 -0.1169 -0.2169 -0.1155
11917SOL    HW136450   1.470   1.599   4.755  2.3506 -1.0663 -0.5272
11917SOL    HW236451   1.542   1.717   4.815 -0.3741  0.5168 -0.2196
11918SOL     OW36452   5.718   4.681   4.435  0.7535 -0.0128 -0.5908
11918SOL    HW136453   5.627   4.709   4.425  0.3930 -0.2285  1.5361
11918SOL    HW236454   5.712   4.593   4.473  1.8307  0.1923  0.1094
11919SOL     OW36455   5.935   1.896   6.398 -0.1746  0.0448 -1.1688
11919SOL    HW136456   6.018   1.942   6.381  0.9631 -1.8622 -1.0839
11919SOL    HW236457   5.871   1.942   6.344  1.2799  0.5559 -2.5444
11920SOL     OW36458   4.027   5.318   4.714 -0.4356  0.0212 -0.0164
11920SOL    HW136459   4.098   5.307   4.778  0.2111  0.3957 -0.6598
11920SOL    HW236460   3.955   5.265   4.749 -0.2663  0.6101  1.2896
11921SOL     OW36461   4.571   2.789   4.608  0.3738 -0.1426 -0.0742
11921SOL    HW136462   4.477   2.805   4.611  0.1669 -1.3142  0.1909
11921SOL    HW236463   4.607   2.864   4.561 -0.7372  0.1309 -0.5151
11922SOL     OW36464   1.526   7.916   7.066  0.1675  0.3128  0.6846
11922SOL    HW136465   1.534   7.882   7.155  0.3316  0.3449  0.6829
11922SOL    HW236466   1.449   7.872   7.030 -0.5995  1.1754  1.2357
11923SOL     OW36467   0.077   6.276   4.127 -0.3509 -0.0645  0.4630
11923SOL    HW136468  -0.008   6.255   4.088 -0.2717 -1.2460  0.8670
11923SOL    HW236469   0.126   6.319   4.057 -1.2555  0.5670  0.2069
11924SOL     OW36470   2.382   5.633   5.008  0.3052  0.0333 -0.6115
11924SOL    HW136471   2.471   5.621   4.975  0.1630  1.3876 -1.5751
11924SOL    HW236472   2.383   5.719   5.049  0.4481 -1.5076  3.0301
11925SOL     OW36473   3.403   0.882   6.846  0.4183  0.2416  0.0386
11925SOL    HW136474   3.317   0.875   6.886  1.1903 -0.5681  1.6453
11925SOL    HW236475   3.458   0.922   6.913  1.6573 -0.7560 -0.3465
11926SOL     OW36476   0.974   4.049   2.895  0.4014  0.5848 -0.3487
11926SOL    HW136477   0.897   4.027   2.843 -0.5933 -2.2720  2.0325
11926SOL    HW236478   1.047   4.010   2.847 -0.6011 -2.8485  0.5993
11927SOL     OW36479   0.980   1.184   5.681  0.6315 -0.7254 -0.4803
11927SOL    HW136480   0.993   1.106   5.627  0.0618  0.6301 -2.7288
11927SOL    HW236481   0.993   1.257   5.621 -0.1286  0.9029  1.2277
11928SOL     OW36482   2.374   2.012   3.242  0.0795 -0.0755  0.6705
11928SOL    HW136483   2.449   2.014   3.183 -1.1971 -1.0102 -1.0629
11928SOL    HW236484   2.404   1.962   3.318  0.7778 -1.8099 -0.6820
11929SOL     OW36485   6.835   7.446   2.408 -0.0711 -0.2421 -0.1897
11929SOL    HW136486   6.894   7.387   2.361  1.1316  1.3906 -0.7871
11929SOL    HW236487   6.833   7.410   2.497  1.4135 -0.6497 -0.2897
11930SOL     OW36488   4.141   4.370   0.944 -0.3343 -0.5648 -0.1119
11930SOL    HW136489   4.210   4.424   0.906 -0.6301 -0.2088 -0.1484
11930SOL    HW236490   4.064   4.385   0.888 -0.7485 -0.1081  0.5621
11931SOL     OW36491   3.483   7.908   5.071 -0.3235  0.1472  0.4161
11931SOL    HW136492   3.398   7.950   5.072 -0.5330 -0.0833 -2.0855
11931SOL    HW236493   3.504   7.898   4.978  1.9694 -0.7279  0.9622
11932SOL     OW36494   0.702   0.045   5.584  0.0763  0.2509  0.1246
11932SOL    HW136495   0.707   0.060   5.489  0.5898  0.4444  0.1788
11932SOL    HW236496   0.615   0.006   5.597  0.4150 -0.7757 -0.5579
11933SOL     OW36497   7.250   0.924   0.453  0.5175 -0.5519 -0.2931
11933SOL    HW136498   7.166   0.955   0.486  1.1050  0.5664  0.1802
11933SOL    HW236499   7.264   0.841   0.498 -0.1934 -0.6131 -0.1674
11934SOL     OW36500   3.199   3.974   1.770  0.1570 -0.4009  0.5951
11934SOL    HW136501   3.148   3.895   1.789  0.9280 -0.8965  0.6542
11934SOL    HW236502   3.135   4.045   1.774 -0.4501 -0.9572  1.0740
11935SOL     OW36503   3.769   7.924   3.851  0.1318 -0.1904  0.1753
11935SOL    HW136504   3.678   7.936   3.825  0.3225 -0.0053 -0.4199
11935SOL    HW236505   3.820   7.967   3.781  0.6724 -0.3657  0.4583
11936SOL     OW36506   1.173   2.173   6.360  0.1438 -0.1716 -0.4040
11936SOL    HW136507   1.193   2.080   6.372 -0.4500 -0.1112  1.3426
11936SOL    HW236508   1.080   2.175   6.337 -0.1843  0.0288  0.8561
11937SOL     OW36509   3.115   1.019   7.888 -0.3925  0.4702 -0.5863
11937SOL    HW136510   3.138   0.946   7.946 -0.2183  0.3116 -0.8566
11937SOL    HW236511   3.195   1.073   7.886 -0.2718  0.2794 -0.9775
11938SOL     OW36512   5.234   3.167   2.140  0.1218  0.2626 -0.2182
11938SOL    HW136513   5.177   3.151   2.065 -1.3269  1.1806  0.6150
11938SOL    HW236514   5.178   3.150   2.216  0.7223  1.8522  0.6462
11939SOL     OW36515   3.459   0.323   5.630  0.3120  0.0452  0.1397
11939SOL    HW136516   3.533   0.308   5.571  0.6725  1.5857  0.1388
11939SOL    HW236517   3.455   0.419   5.639 -2.0435  0.0609 -0.3229
11940SOL     OW36518   1.103   7.783   0.866  0.0423  0.3063  0.2613
11940SOL    HW136519   1.036   7.729   0.907 -0.4180  1.0658  0.5374
11940SOL    HW236520   1.072   7.797   0.777 -0.2663  0.8027  0.4409
11941SOL     OW36521   5.817   2.767   1.624  0.2826 -0.0527 -0.7167
11941SOL    HW136522   5.727   2.801   1.627  0.0602 -0.6632  1.5877
11941SOL    HW236523   5.852   2.784   1.711  1.6242 -1.8549 -0.8405
11942SOL     OW36524   2.153   7.395   2.706 -0.9819  0.0562 -0.3855
11942SOL    HW136525   2.180   7.486   2.715  3.1151 -1.0144  0.3482
11942SOL    HW236526   2.207   7.361   2.635 -1.3928 -2.1163  0.2725
11943SOL     OW36527   5.174   3.903   4.120  0.1708 -0.3098  0.2123
11943SOL    HW136528   5.186   3.825   4.175  0.6572  1.1183  2.2313
11943SOL    HW236529   5.121   3.962   4.172 -0.3600  0.6831 -1.3666
11944SOL     OW36530   3.612   0.457   6.777 -0.1051 -0.5299 -0.2160
11944SOL    HW136531   3.551   0.466   6.704  1.5275  2.0398 -1.4023
11944SOL    HW236532   3.649   0.369   6.767  0.6359  0.0064 -3.0399
11945SOL     OW36533   0.758   1.789   3.367  0.4994 -0.2585 -0.0800
11945SOL    HW136534   0.686   1.801   3.305  0.6120  0.4494 -0.0901
11945SOL    HW236535   0.729   1.835   3.447  1.1479  0.5049 -0.2631
11946SOL     OW36536   5.153   2.998   5.863 -0.2930 -0.1951 -0.9991
11946SOL    HW136537   5.107   3.002   5.779  1.5588  0.5875 -2.0222
11946SOL    HW236538   5.246   2.990   5.840  0.4231  1.6420  0.9306
11947SOL     OW36539   4.560   2.018   5.462 -0.4493  0.4827  0.1551
11947SOL    HW136540   4.561   1.949   5.396 -0.1309  1.0005 -0.3916
11947SOL    HW236541   4.647   2.058   5.456  0.7724 -1.4403  3.0195
11948SOL     OW36542   6.978   6.187   7.581  0.6131 -0.4768  0.2623
11948SOL    HW136543   6.970   6.280   7.601 -0.0518 -0.1546 -1.3536
11948SOL    HW236544   6.934   6.143   7.654  2.3597  0.3530  1.8843
11949SOL     OW36545   1.113   7.433   5.415 -0.1329  0.1088  0.1226
11949SOL    HW136546   1.158   7.448   5.332  0.2229 -2.2799 -0.1908
11949SOL    HW236547   1.031   7.390   5.389 -0.1706 -0.3505  0.9815
11950SOL     OW36548   3.391   6.071   4.273  0.3645  0.0983  0.4238
11950SOL    HW136549   3.312   6.060   4.326 -1.0549  3.4736 -0.6872
11950SOL    HW236550   3.453   6.114   4.332  0.3115  0.1047  0.4755
11951SOL     OW36551   1.362   3.996   2.942  0.4540 -0.4426 -0.9221
11951SOL    HW136552   1.394   3.930   3.003  0.0952 -0.3448 -0.6255
11951SOL    HW236553   1.280   3.960   2.908  0.2375 -0.1358 -0.7288
11952SOL     OW36554   0.236   0.326   0.829 -0.2210  0.5577  0.2718
11952SOL    HW136555   0.282   0.408   0.847  0.0670  0.2870  0.8147
11952SOL    HW236556   0.148   0.352   0.802  0.8758  1.2200 -3.1616
11953SOL     OW36557   3.977   2.031   7.617  0.0696  0.6960 -0.2901
11953SOL    HW136558   3.982   1.951   7.565 -1.2039 -0.2108  0.9105
11953SOL    HW236559   3.902   2.079   7.581  0.6677  1.2578 -0.8331
11954SOL     OW36560   2.469   7.714   6.122 -0.0918 -0.0969 -0.2065
11954SOL    HW136561   2.540   7.777   6.107  0.1196  0.2609  1.9281
11954SOL    HW236562   2.398   7.766   6.159 -0.0050 -1.0221  1.3744
11955SOL     OW36563   4.139   6.136   5.773 -0.5677 -0.1398  0.0785
11955SOL    HW136564   4.118   6.220   5.732  1.1819  0.7970  0.9708
11955SOL    HW236565   4.215   6.104   5.724  1.0790  0.6335  1.9339
11956SOL     OW36566   1.526   2.961   1.654  0.6624  0.1036  0.2633
11956SOL    HW136567   1.570   3.039   1.619  1.4177 -0.1364  0.6379
11956SOL    HW236568   1.520   2.901   1.580 -0.9583  0.9359 -0.3165
11957SOL     OW36569   0.171   2.615   6.279 -0.0491 -0.1094  0.5535
11957SOL    HW136570   0.096   2.639   6.333 -1.1454  0.2751 -1.0459
11957SOL    HW236571   0.198   2.698   6.239  0.0174 -0.5468 -0.3264
11958SOL     OW36572   2.657   7.738   4.733 -0.6723 -0.7312 -0.1923
11958SOL    HW136573   2.648   7.650   4.696  1.8174 -1.3454  0.4777
11958SOL    HW236574   2.626   7.796   4.664 -1.4342 -2.0762 -1.0359
11959SOL     OW36575   1.593   2.232   7.182 -0.3124  0.2444  0.5002
11959SOL    HW136576   1.499   2.217   7.197 -0.2459  0.9323  1.7748
11959SOL    HW236577   1.611   2.315   7.226  0.6437  0.8001 -0.8698
11960SOL     OW36578   2.054   7.584   6.271 -0.2808 -0.2133  0.5701
11960SOL    HW136579   2.035   7.564   6.363  0.3566  0.4989  0.8631
11960SOL    HW236580   2.088   7.502   6.236  0.8150 -0.1128  1.3435
11961SOL     OW36581   7.109   4.144   3.557 -0.5450 -0.1065 -0.1735
11961SOL    HW136582   7.027   4.191   3.571  0.2654  1.6270 -0.9954
11961SOL    HW236583   7.171   4.210   3.527  0.5227 -1.7763 -1.9428
11962SOL     OW36584   1.414   7.288   1.673  0.2647  0.0596  0.2981
11962SOL    HW136585   1.428   7.290   1.768  0.1865  2.9803  0.3349
11962SOL    HW236586   1.377   7.374   1.652  1.4374 -0.0214 -2.5587
11963SOL     OW36587   5.095   0.114   6.830 -0.0259 -0.3861  0.6395
11963SOL    HW136588   5.071   0.075   6.914 -1.1957 -1.1768 -0.0299
11963SOL    HW236589   5.022   0.173   6.809 -0.6029 -1.4964 -0.6042
11964SOL     OW36590   5.689   4.847   5.027  0.2296 -0.5039 -0.4837
11964SOL    HW136591   5.716   4.938   5.044  0.8826 -0.2013 -2.7988
11964SOL    HW236592   5.622   4.855   4.959 -1.1260 -1.6831  0.6486
11965SOL     OW36593   4.567   5.892   2.528  0.2142  0.0367  0.3982
11965SOL    HW136594   4.478   5.913   2.500 -0.3077 -1.2953  0.9510
11965SOL    HW236595   4.605   5.975   2.556 -0.5484  0.7599 -0.6540
11966SOL     OW36596   7.335   2.774   6.616  0.1183 -0.6626 -0.4425
11966SOL    HW136597   7.411   2.736   6.572 -0.3026 -1.0521 -0.8440
11966SOL    HW236598   7.371   2.848   6.666  0.7890 -0.9744 -0.4504
11967SOL     OW36599   5.947   7.766   2.316  0.7051  0.0237 -0.3623
11967SOL    HW136600   5.890   7.800   2.385 -0.8076 -1.3645 -0.8695
11967SOL    HW236601   5.933   7.825   2.242  2.7681  1.8662  0.6024
11968SOL     OW36602   2.147   7.254   5.370  0.0821 -0.0844 -0.0881
11968SOL    HW136603   2.183   7.329   5.323  0.2690 -0.0487  0.1134
11968SOL    HW236604   2.080   7.219   5.311  0.9368 -0.5932 -0.7870
11969SOL     OW36605   2.226   4.312   4.579  0.0985  0.5294 -0.0330
11969SOL    HW136606   2.261   4.331   4.491  0.6255 -0.4471 -0.0488
11969SOL    HW236607   2.270   4.375   4.636  1.2459 -0.1040 -0.1879
11970SOL     OW36608   5.039   2.861   0.377 -1.0558  0.4016  0.1536
11970SOL    HW136609   5.096   2.936   0.391 -1.3209  0.5957  0.2123
11970SOL    HW236610   5.027   2.856   0.282 -0.3407 -0.0952  0.0871
11971SOL     OW36611   4.101   0.556   5.026  0.0684 -0.5012 -0.2031
11971SOL    HW136612   4.102   0.474   4.976  0.0624  0.5640 -2.0395
11971SOL    HW236613   4.191   0.567   5.056 -0.3801 -2.2637  2.0077
11972SOL     OW36614   6.729   3.860   3.780  0.0804  0.1083  0.2514
11972SOL    HW136615   6.647   3.823   3.812 -1.1737  1.8777 -0.7204
11972SOL    HW236616   6.715   3.955   3.783  2.3361  0.4828  0.6133
11973SOL     OW36617   3.526   7.176   1.532  0.4900  0.4854 -0.5388
11973SOL    HW136618   3.435   7.153   1.514  0.3366 -0.9616  1.7491
11973SOL    HW236619   3.523   7.232   1.610  1.5985 -0.6452  0.3581
11974SOL     OW36620   3.402   7.488   3.768  0.1099  0.1586  0.6168
11974SOL    HW136621   3.401   7.418   3.834 -0.1924  2.3738  3.1691
11974SOL    HW236622   3.309   7.509   3.755  0.2353  1.9295  2.1327
11975SOL     OW36623   6.947   6.642   7.181 -0.1884  0.2082 -0.1510
11975SOL    HW136624   6.927   6.555   7.215 -0.0155  0.7899  1.5484
11975SOL    HW236625   6.938   6.700   7.257 -0.4313  1.6964 -1.2753
11976SOL     OW36626   4.728   3.839   4.109  0.4531 -0.2089  0.4742
11976SOL    HW136627   4.676   3.900   4.056 -0.1418 -0.2756  0.9628
11976SOL    HW236628   4.676   3.826   4.189  0.5878 -1.3233  0.3984
11977SOL     OW36629   0.764   4.241   2.677  0.4883 -0.1343  0.3582
11977SOL    HW136630   0.774   4.148   2.698  1.6303 -0.1993 -0.3748
11977SOL    HW236631   0.732   4.241   2.587  1.9314  0.1642 -0.1863
11978SOL     OW36632   6.696   3.337   6.690 -0.0648  0.3118 -0.3448
11978SOL    HW136633   6.786   3.306   6.695 -0.2325 -0.6685 -2.4448
11978SOL    HW236634   6.704   3.430   6.666  0.4944 -0.5773 -4.2318
11979SOL     OW36635   3.435   1.933   7.855  0.2133  0.9395 -0.1249
11979SOL    HW136636   3.514   1.970   7.816  0.7245  0.6163  0.5661
11979SOL    HW236637   3.443   1.953   7.948 -0.5010  0.8564 -0.0408
11980SOL     OW36638   7.293   6.669   3.428  0.3532 -0.1372  0.4515
11980SOL    HW136639   7.352   6.730   3.472  2.3732 -0.6385 -1.3944
11980SOL    HW236640   7.211   6.675   3.477  1.4825  1.6487  2.2623
11981SOL     OW36641   4.018   7.472   5.940 -0.1525  0.6802  0.2414
11981SOL    HW136642   4.080   7.401   5.925 -0.8790  0.0583  0.1715
11981SOL    HW236643   4.047   7.542   5.880  0.5696  0.4539  0.3229
11982SOL     OW36644   1.960   6.949   5.373 -0.4678 -1.0418  0.0670
11982SOL    HW136645   1.916   6.867   5.351 -1.8462 -0.2217 -0.3809
11982SOL    HW236646   1.936   6.966   5.464  0.6930 -1.6473  0.5047
11983SOL     OW36647   3.412   7.506   5.519  0.4781 -0.5785  0.1709
11983SOL    HW136648   3.478   7.462   5.573 -0.2223 -2.0734 -0.1481
11983SOL    HW236649   3.408   7.595   5.554  0.1166 -1.4541  2.5714
11984SOL     OW36650   4.321   7.111   5.839 -0.3692  0.3056  0.0472
11984SOL    HW136651   4.273   7.059   5.904  0.3301  0.9971  1.1500
11984SOL    HW236652   4.410   7.115   5.874 -0.5635  2.8863  0.4079
11985SOL     OW36653   6.014   4.800   6.184 -0.3931  0.0347  0.7348
11985SOL    HW136654   5.937   4.822   6.131 -0.0830  0.2660  0.3727
11985SOL    HW236655   5.999   4.844   6.268 -1.2441 -0.9556  1.1278
11986SOL     OW36656   7.446   5.152   6.185 -0.4694 -0.9908 -0.3889
11986SOL    HW136657   7.527   5.189   6.150 -1.4412 -0.1164 -1.8640
11986SOL    HW236658   7.450   5.059   6.161  0.9023 -1.3831  1.1991
11987SOL     OW36659   1.956   4.747   4.335 -0.7230 -0.0877  0.8970
11987SOL    HW136660   1.993   4.671   4.379 -1.0819 -0.5621  0.3894
11987SOL    HW236661   2.023   4.815   4.343 -0.1002 -0.6707  0.7238
11988SOL     OW36662   7.962   0.740   2.960  0.3777 -0.3088  0.6523
11988SOL    HW136663   7.946   0.829   2.993 -0.5457 -0.3580  0.3338
11988SOL    HW236664   7.877   0.697   2.965  0.3771 -0.5521 -1.0971
11989SOL     OW36665   6.770   0.813   3.789 -0.0523 -0.6688 -0.0212
11989SOL    HW136666   6.694   0.802   3.846 -0.5072 -1.8706 -0.8074
11989SOL    HW236667   6.795   0.904   3.800 -1.5542 -0.2642  0.3396
11990SOL     OW36668   0.603   2.688   2.473 -0.0005  0.3622 -0.0391
11990SOL    HW136669   0.574   2.758   2.414 -1.0846  0.8154  0.9756
11990SOL    HW236670   0.618   2.733   2.557 -0.5716 -0.5926  0.5888
11991SOL     OW36671   2.943   6.802   6.637 -0.0514  0.0780  0.0810
11991SOL    HW136672   3.032   6.831   6.615 -0.7133  1.0721 -1.4487
11991SOL    HW236673   2.949   6.773   6.728  2.2102 -1.4717 -0.4764
11992SOL     OW36674   2.444   2.820   0.021  0.1244  0.3559  0.4851
11992SOL    HW136675   2.490   2.808  -0.062 -0.6398  1.3814 -0.1249
11992SOL    HW236676   2.353   2.796   0.001  0.2846 -1.3328  1.5756
11993SOL     OW36677   6.045   0.585   1.368  0.3058  0.2869  0.0295
11993SOL    HW136678   6.125   0.567   1.319 -0.0549 -1.0452 -0.0974
11993SOL    HW236679   5.983   0.616   1.302  0.1569 -0.4534 -0.1819
11994SOL     OW36680   5.814   4.778   0.289 -0.0173 -0.4255 -0.2294
11994SOL    HW136681   5.762   4.858   0.290 -0.4732 -0.7093 -0.7041
11994SOL    HW236682   5.865   4.783   0.208  2.6918  1.0851  1.4349
11995SOL     OW36683   4.017   3.372   0.286  0.0099  0.5002 -0.2111
11995SOL    HW136684   4.047   3.437   0.350 -1.0493  0.2895  0.5247
11995SOL    HW236685   4.095   3.349   0.237  0.4804  2.0592 -0.2365
11996SOL     OW36686   1.262   4.773   4.449 -0.2532 -0.1342  0.1064
11996SOL    HW136687   1.296   4.858   4.421  2.6987 -1.3130 -0.2930
11996SOL    HW236688   1.272   4.773   4.544 -0.7374  0.1384  0.1594
11997SOL     OW36689   3.216   7.739   0.768 -0.5825 -0.2948 -0.6437
11997SOL    HW136690   3.272   7.792   0.712 -0.0999 -0.1769 -0.0505
11997SOL    HW236691   3.172   7.679   0.707  0.3947 -0.5823 -1.0832
11998SOL     OW36692   7.695   1.212   0.000  0.4920  0.1001  0.1202
11998SOL    HW136693   7.713   1.120  -0.018 -2.4848 -1.0583  2.2048
11998SOL    HW236694   7.719   1.223   0.092 -1.1658  0.7560  0.5125
11999SOL     OW36695   5.166   1.049   2.337  0.8712  0.0139  0.2071
11999SOL    HW136696   5.250   1.003   2.351  0.3037 -1.3468 -0.6301
11999SOL    HW236697   5.170   1.078   2.246  1.2094  1.6796  0.7203
12000SOL     OW36698   2.091   6.407   7.404  0.0822 -0.2532 -0.5361
12000SOL    HW136699   2.012   6.460   7.417  1.2495  1.5305 -0.4184
12000SOL    HW236700   2.093   6.349   7.479  0.2537  1.5125  0.8843
12001SOL     OW36701   2.137   2.286   2.453 -0.3642  0.2046 -0.6605
12001SOL    HW136702   2.163   2.196   2.434  0.0265  0.6260 -2.2949
12001SOL    HW236703   2.165   2.336   2.376 -1.4839  1.5567 -0.2395
12002SOL     OW36704   4.710   6.847   7.649 -0.4794 -0.1790 -0.3389
12002SOL    HW136705   4.798   6.813   7.635 -0.3640 -0.7479  1.4772
12002SOL    HW236706   4.663   6.825   7.569  0.5073 -1.6090 -0.5758
12003SOL     OW36707   5.018   1.746   6.750 -0.4339  0.5759 -0.1572
12003SOL    HW136708   4.949   1.689   6.718  0.4128  0.3117 -1.5938
12003SOL    HW236709   4.999   1.832   6.712  0.4684  0.3069 -1.2698
12004SOL     OW36710   0.190   3.802   0.190 -0.5012  0.5349 -0.5401
12004SOL    HW136711   0.230   3.729   0.237  0.7240  1.2242 -0.4693
12004SOL    HW236712   0.096   3.781   0.188 -0.1066 -1.3601 -1.1118
12005SOL     OW36713   7.228   3.206   6.797  0.0122  0.1209  0.5432
12005SOL    HW136714   7.249   3.295   6.770  2.5111 -0.8524 -1.1142
12005SOL    HW236715   7.133   3.203   6.799 -0.1389  2.6687  0.0975
12006SOL     OW36716   7.236   6.388   7.275  0.3570  0.1137 -0.0085
12006SOL    HW136717   7.169   6.321   7.288 -2.7283  2.9936 -0.0017
12006SOL    HW236718   7.235   6.439   7.356  1.1052  1.4493 -0.8162
12007SOL     OW36719   2.712   6.663   7.371  0.8506 -0.1014  0.1245
12007SOL    HW136720   2.697   6.713   7.451  0.9486  0.6241 -0.3080
12007SOL    HW236721   2.669   6.713   7.302  0.5847 -0.8311 -0.2535
12008SOL     OW36722   7.307   2.972   0.508 -0.1992  1.0111  0.0366
12008SOL    HW136723   7.212   2.976   0.508 -0.3942 -1.6694 -0.5218
12008SOL    HW236724   7.335   3.045   0.454 -1.9485  1.5816 -0.1469
12009SOL     OW36725   1.886   6.767   6.085 -0.1548 -0.1668  0.1560
12009SOL    HW136726   1.979   6.744   6.081 -0.0981  0.1516 -0.4926
12009SOL    HW236727   1.848   6.730   6.005 -0.5175  0.0127  0.2408
12010SOL     OW36728   1.411   4.626   5.010 -0.0370  0.0045  0.3640
12010SOL    HW136729   1.335   4.583   4.970 -0.7497 -0.6671  2.3155
12010SOL    HW236730   1.384   4.717   5.021  0.6498  0.5243 -1.7497
12011SOL     OW36731   7.066   5.441   6.973  0.2249 -0.5781 -0.1259
12011SOL    HW136732   6.994   5.377   6.972  0.5770 -0.9908 -1.3084
12011SOL    HW236733   7.104   5.435   6.885  0.4194  1.1008 -0.1863
12012SOL     OW36734   1.893   6.719   0.279  0.1150 -0.0834 -0.2263
12012SOL    HW136735   1.907   6.814   0.287  1.2766  0.1498 -3.4869
12012SOL    HW236736   1.806   6.711   0.240  0.6105 -0.2017 -1.3688
12013SOL     OW36737   6.127   6.535   4.682 -0.1972  0.3925 -0.3756
12013SOL    HW136738   6.039   6.506   4.707 -0.4173  2.2335  1.2178
12013SOL    HW236739   6.123   6.630   4.686  2.4005  0.5433  1.9053
12014SOL     OW36740   4.837   4.723   6.062 -0.0290  0.1750 -0.1900
12014SOL    HW136741   4.772   4.778   6.020  0.9208  0.8806 -0.7906
12014SOL    HW236742   4.868   4.664   5.993  0.6077  0.4581 -0.1550
12015SOL     OW36743   1.807   3.817   0.778  0.4042  0.3928 -1.1024
12015SOL    HW136744   1.873   3.882   0.754 -0.2032  0.5520 -2.4619
12015SOL    HW236745   1.810   3.753   0.706 -1.4099  0.7973 -1.5841
12016SOL     OW36746   4.060   1.336   0.479  0.1542  0.0455  0.2587
12016SOL    HW136747   4.012   1.289   0.546  0.7218  0.0432  0.6724
12016SOL    HW236748   4.053   1.428   0.504  0.6725  0.0152  0.5300
12017SOL     OW36749   7.278   0.930   5.235 -0.2779 -0.5568  0.7135
12017SOL    HW136750   7.279   0.930   5.330 -1.8479 -0.3568  0.7574
12017SOL    HW236751   7.186   0.946   5.212 -0.5040 -3.4664 -0.8119
12018SOL     OW36752   2.454   5.493   6.478  0.0171 -0.3617  0.2012
12018SOL    HW136753   2.371   5.540   6.484  0.4920  0.6105 -0.7136
12018SOL    HW236754   2.484   5.486   6.569 -1.1164 -0.8567  0.5588
12019SOL     OW36755   0.812   3.432   6.701 -0.1430  0.2526  0.1741
12019SOL    HW136756   0.763   3.464   6.777 -0.2385  0.1142  0.1708
12019SOL    HW236757   0.898   3.473   6.710  0.5401 -1.3613  1.4963
12020SOL     OW36758   5.278   7.506   4.970  0.3587 -0.6974  0.2574
12020SOL    HW136759   5.327   7.444   4.916 -1.8796 -0.3118 -2.4920
12020SOL    HW236760   5.319   7.502   5.056  3.9052 -1.7626 -1.3013
12021SOL     OW36761   5.611   5.982   7.183 -0.1560 -0.5347 -0.0659
12021SOL    HW136762   5.697   6.023   7.191 -0.5014  0.0346  0.8860
12021SOL    HW236763   5.562   6.040   7.125  0.1547 -0.9717 -0.7815
12022SOL     OW36764   3.600   5.093   0.790  0.3266  0.3869 -0.0483
12022SOL    HW136765   3.590   5.067   0.882  2.4077  1.8224  0.6525
12022SOL    HW236766   3.590   5.011   0.741  0.2029 -0.5902  1.5436
12023SOL     OW36767   3.170   3.361   4.973  0.2035  0.0968  0.5346
12023SOL    HW136768   3.130   3.321   5.050  0.9395 -1.3750  0.1804
12023SOL    HW236769   3.104   3.422   4.941 -0.2629  0.4660  2.1072
12024SOL     OW36770   7.977   5.918   2.818 -0.2187 -0.2963 -0.3059
12024SOL    HW136771   7.932   5.915   2.903  1.1993  0.4083  0.5233
12024SOL    HW236772   7.955   6.005   2.783 -0.5567 -0.4666 -0.5153
12025SOL     OW36773   3.021   4.657   3.116 -0.1298  0.5130 -0.5596
12025SOL    HW136774   3.024   4.561   3.111 -0.0167  0.2914  2.1570
12025SOL    HW236775   2.931   4.679   3.089 -0.2587 -0.3779 -0.8972
12026SOL     OW36776   2.982   7.492   3.087 -0.8348  0.1688  0.0925
12026SOL    HW136777   2.974   7.507   2.993  1.8864  0.7410 -0.1214
12026SOL    HW236778   3.038   7.415   3.095  1.4102  1.8031  1.1633
12027SOL     OW36779   4.422   2.158   0.692  0.3099 -0.0615  0.3212
12027SOL    HW136780   4.477   2.086   0.660 -1.3112 -0.9835 -0.5288
12027SOL    HW236781   4.428   2.152   0.787  2.0788  0.2155  0.2587
12028SOL     OW36782   2.394   3.016   3.895 -0.1960 -0.2420  0.1007
12028SOL    HW136783   2.380   3.048   3.984  0.4566 -0.7629  0.3974
12028SOL    HW236784   2.430   2.927   3.907  0.4449 -0.0944 -0.6665
12029SOL     OW36785   1.198   5.244   6.803 -0.6627  0.0501 -0.3229
12029SOL    HW136786   1.262   5.187   6.760  0.9865  1.2659  0.4331
12029SOL    HW236787   1.179   5.201   6.886 -0.9044 -0.3394 -0.5727
12030SOL     OW36788   5.303   3.592   5.167 -0.1435 -0.4026 -0.1378
12030SOL    HW136789   5.245   3.650   5.217 -0.2642 -1.1279  0.5877
12030SOL    HW236790   5.364   3.558   5.232 -0.1615 -1.1948 -0.5297
12031SOL     OW36791   6.324   6.447   2.808  0.1858  0.3266 -0.6813
12031SOL    HW136792   6.397   6.501   2.838 -0.1549  2.6867 -3.6502
12031SOL    HW236793   6.365   6.367   2.776  0.8384 -0.7182  2.3748
12032SOL     OW36794   2.749   4.150   0.497 -0.0463  0.2524 -0.4998
12032SOL    HW136795   2.678   4.096   0.532  0.3028  0.6582  0.8959
12032SOL    HW236796   2.829   4.107   0.528  0.2809  0.5589 -0.9075
12033SOL     OW36797   4.953   4.683   7.504  0.1613 -0.1086  0.0339
12033SOL    HW136798   4.987   4.719   7.586  0.8470 -0.0480 -0.2692
12033SOL    HW236799   4.985   4.592   7.502  1.0469  0.2077 -0.6617
12034SOL     OW36800   1.471   0.423   1.344  0.3667  0.1900  0.2423
12034SOL    HW136801   1.393   0.413   1.289  0.8471  1.9296 -0.8621
12034SOL    HW236802   1.545   0.411   1.283  0.9763 -0.9384  1.1656
12035SOL     OW36803   3.928   2.541   3.959  0.5822  0.6791 -0.2448
12035SOL    HW136804   3.856   2.602   3.972 -0.2400 -0.3360  0.1801
12035SOL    HW236805   3.908   2.468   4.019  1.3579 -0.1304 -0.9480
12036SOL     OW36806   0.010   4.903   3.181  0.3181  0.0275 -0.2072
12036SOL    HW136807  -0.059   4.946   3.230 -0.8709  0.3077 -2.0355
12036SOL    HW236808   0.086   4.904   3.240 -0.4717  2.0689  0.8652
12037SOL     OW36809   6.860   2.514   0.002 -0.0492  0.2420  0.0621
12037SOL    HW136810   6.886   2.599   0.039 -1.2149  0.9626 -0.6956
12037SOL    HW236811   6.850   2.457   0.078 -1.5961  1.4640  0.8439
12038SOL     OW36812   6.376   3.112   7.906 -0.0577 -0.1685  0.0041
12038SOL    HW136813   6.393   3.201   7.874 -0.3958  1.7492  4.3935
12038SOL    HW236814   6.290   3.119   7.948 -0.4496 -2.8851 -0.1947
12039SOL     OW36815   7.373   6.846   4.442  0.0730 -0.3149  0.0509
12039SOL    HW136816   7.462   6.874   4.465 -0.1034  0.5440 -0.2965
12039SOL    HW236817   7.343   6.797   4.519  0.0765  1.1834  1.0417
12040SOL     OW36818   1.816   5.000   4.368 -0.3715  0.2340 -0.7128
12040SOL    HW136819   1.880   5.072   4.361 -0.0848  0.0943  0.3021
12040SOL    HW236820   1.868   4.924   4.392 -0.9990  0.3033  0.9988
12041SOL     OW36821   7.405   7.764   0.421 -0.3718  0.0032 -0.5902
12041SOL    HW136822   7.358   7.691   0.460  1.0805 -1.0150 -0.6886
12041SOL    HW236823   7.366   7.842   0.462 -0.6790 -0.9101  0.9057
12042SOL     OW36824   5.295   4.023   2.183  1.2605  0.0238  0.1246
12042SOL    HW136825   5.340   3.941   2.166 -0.2127 -1.0472  1.1284
12042SOL    HW236826   5.347   4.066   2.251  1.1035 -0.9452  0.8888
12043SOL     OW36827   0.971   6.514   0.898 -0.2849  0.0575  0.0126
12043SOL    HW136828   0.969   6.607   0.877 -0.7470 -0.0676 -0.5109
12043SOL    HW236829   1.032   6.476   0.835  2.7910  0.5216  2.4481
12044SOL     OW36830   0.174   1.323   3.074  0.0262  0.0977 -0.1318
12044SOL    HW136831   0.172   1.360   3.162 -1.2697 -1.7141  0.6636
12044SOL    HW236832   0.145   1.394   3.017 -0.4415  0.8938  1.0637
12045SOL     OW36833   5.556   2.310   6.983 -0.1700 -0.3433  0.1053
12045SOL    HW136834   5.552   2.221   7.018  0.6723 -1.0624 -1.5282
12045SOL    HW236835   5.487   2.313   6.917 -0.4308  0.3429  0.4054
12046SOL     OW36836   2.544   4.016   5.289  0.8466  0.5192  1.1746
12046SOL    HW136837   2.461   4.005   5.242  0.3282 -0.3323  2.2414
12046SOL    HW236838   2.611   3.999   5.223  0.2124  1.7116  0.1637
12047SOL     OW36839   4.164   6.497   6.302 -0.0780 -0.4610 -0.2205
12047SOL    HW136840   4.246   6.481   6.349  1.0825  2.3239 -1.0607
12047SOL    HW236841   4.119   6.563   6.355 -0.6461 -0.2412 -0.9627
12048SOL     OW36842   0.310   6.059   3.966 -0.3654  0.0050  0.2424
12048SOL    HW136843   0.342   5.971   3.945 -2.1025 -0.8434  0.9905
12048SOL    HW236844   0.252   6.047   4.041 -1.9732  1.5322 -0.6669
12049SOL     OW36845   6.913   6.397   0.373 -0.1245 -0.2705 -0.0429
12049SOL    HW136846   6.833   6.413   0.322  0.8508  0.7317 -1.3399
12049SOL    HW236847   6.958   6.482   0.373  1.9011 -1.2829 -1.0862
12050SOL     OW36848   5.988   6.265   2.914  0.2684 -0.2171  0.1343
12050SOL    HW136849   6.063   6.224   2.872  0.1380 -0.0958 -0.2212
12050SOL    HW236850   6.006   6.257   3.008  1.4891  1.2225  0.0495
12051SOL     OW36851   3.094   6.560   0.564  0.4456  0.2306  0.0942
12051SOL    HW136852   3.143   6.534   0.642 -1.3140  1.0076  1.5359
12051SOL    HW236853   3.126   6.502   0.495  3.3313  0.6940  0.9109
12052SOL     OW36854   5.608   2.227   4.626  0.4302 -0.3109  0.0945
12052SOL    HW136855   5.541   2.185   4.572  1.4152 -1.0024 -0.6489
12052SOL    HW236856   5.642   2.298   4.571 -0.7825  1.1015  1.1009
12053SOL     OW36857   7.663   4.801   0.236 -0.5176 -0.3136 -0.0040
12053SOL    HW136858   7.703   4.743   0.301 -0.8712 -0.7732 -0.1871
12053SOL    HW236859   7.718   4.792   0.159 -1.5755 -1.8361 -0.6404
12054SOL     OW36860   3.732   2.252   0.051  0.2060  0.0489  0.2577
12054SOL    HW136861   3.780   2.174   0.078  0.4804  0.0943 -0.0959
12054SOL    HW236862   3.709   2.296   0.133  0.9869  0.1613  0.4194
12055SOL     OW36863   4.806   4.835   6.304 -0.6468  0.1000 -0.5299
12055SOL    HW136864   4.787   4.827   6.211 -1.1020 -1.0223 -0.3489
12055SOL    HW236865   4.726   4.872   6.342 -1.5196 -1.9954 -0.1966
12056SOL     OW36866   7.141   5.793   2.268  0.3634  0.2945  0.3506
12056SOL    HW136867   7.048   5.781   2.250  0.3792  1.4666 -0.6489
12056SOL    HW236868   7.175   5.836   2.190  1.8345 -0.4673  0.5407
12057SOL     OW36869   3.931   5.005   7.818 -0.7576 -0.3109 -0.1333
12057SOL    HW136870   3.872   4.948   7.868 -1.8573 -1.2356 -2.3320
12057SOL    HW236871   3.965   4.950   7.749  1.6551  0.6136  0.2225
12058SOL     OW36872   7.121   2.189   0.551  0.3800 -0.0593 -0.6543
12058SOL    HW136873   7.146   2.119   0.611  2.6611 -0.3778 -1.8669
12058SOL    HW236874   7.158   2.268   0.590 -0.2574  0.1413 -0.4337
12059SOL     OW36875   0.650   2.529   4.998  0.1453 -0.2614  0.2658
12059SOL    HW136876   0.615   2.451   5.041 -0.4371  0.3817  0.9728
12059SOL    HW236877   0.712   2.566   5.061 -0.1226  0.2531  0.2277
12060SOL     OW36878   6.226   4.069   2.709 -0.4972 -0.2198 -0.2590
12060SOL    HW136879   6.214   3.990   2.761  2.2291 -0.1741  0.5618
12060SOL    HW236880   6.256   4.038   2.623 -2.3122 -0.1482 -0.9756
12061SOL     OW36881   6.871   7.382   4.952  0.6786  0.3210 -0.9046
12061SOL    HW136882   6.833   7.431   5.025  1.9484  0.0273 -0.0159
12061SOL    HW236883   6.834   7.423   4.873  1.2785  2.3442 -0.1731
12062SOL     OW36884   5.256   6.177   1.494 -0.6925 -0.1691 -0.0645
12062SOL    HW136885   5.261   6.160   1.588  0.3624 -0.1596 -0.1110
12062SOL    HW236886   5.300   6.262   1.483  1.3848 -1.2783 -0.8450
12063SOL     OW36887   0.255   1.718   5.817 -0.2347  0.2587  0.0855
12063SOL    HW136888   0.314   1.706   5.742 -0.0835  2.3746 -0.1823
12063SOL    HW236889   0.189   1.650   5.807 -0.1842  0.4673 -1.9450
12064SOL     OW36890   1.914   2.498   0.634 -0.4519 -0.1618 -0.0959
12064SOL    HW136891   1.946   2.589   0.629  1.2146 -0.7566 -1.3054
12064SOL    HW236892   1.882   2.479   0.546  1.5794 -1.5098 -0.6028
12065SOL     OW36893   7.579   0.121   6.252 -0.1855 -0.3440  0.7818
12065SOL    HW136894   7.628   0.193   6.291  0.8445 -0.5614 -0.0584
12065SOL    HW236895   7.489   0.133   6.283  0.0922  0.9430  1.1295
12066SOL     OW36896   2.434   1.420   4.693  0.3041  0.5375 -0.0278
12066SOL    HW136897   2.485   1.499   4.713  0.7658  0.4480 -0.8095
12066SOL    HW236898   2.430   1.373   4.776  0.2493  1.2536  0.3871
12067SOL     OW36899   3.463   0.244   1.039 -0.2670  0.1769  0.1381
12067SOL    HW136900   3.519   0.310   0.998 -0.7625 -1.1004 -2.9004
12067SOL    HW236901   3.385   0.242   0.984 -0.8458 -1.9646  0.9480
12068SOL     OW36902   7.723   0.591   3.014  0.2230  0.2844  0.0359
12068SOL    HW136903   7.655   0.619   3.075  0.2615 -0.0171  0.2222
12068SOL    HW236904   7.789   0.549   3.070 -0.6584 -1.7819 -0.3887
12069SOL     OW36905   6.141   6.295   4.324  0.7013  0.0576  0.5524
12069SOL    HW136906   6.077   6.274   4.392  0.6790  1.2534  0.9143
12069SOL    HW236907   6.099   6.265   4.243 -0.7695  1.6744  0.6640
12070SOL     OW36908   7.715   6.246   7.294 -0.2916  0.0997  0.5102
12070SOL    HW136909   7.733   6.209   7.207  0.9552 -1.2728  1.3081
12070SOL    HW236910   7.685   6.171   7.346 -0.6220  0.8180  1.3849
12071SOL     OW36911   6.834   6.787   7.004 -0.1660 -0.1478 -0.4086
12071SOL    HW136912   6.820   6.872   7.046  0.1124  0.0590 -0.7279
12071SOL    HW236913   6.907   6.748   7.053  2.1773  1.3287 -2.4452
12072SOL     OW36914   3.951   2.408   2.203 -0.0522 -0.7318 -0.5249
12072SOL    HW136915   3.957   2.388   2.296 -0.0352 -0.2591 -0.4247
12072SOL    HW236916   3.911   2.495   2.199 -0.1675 -0.8020 -0.9610
12073SOL     OW36917   0.089   1.585   1.477 -0.2680  0.0320  0.9153
12073SOL    HW136918   0.037   1.563   1.401  0.1517  1.6695  0.0915
12073SOL    HW236919   0.149   1.511   1.489 -1.3393 -0.9057  0.5974
12074SOL     OW36920   3.258   1.187   0.242  0.2914 -0.4239  0.3378
12074SOL    HW136921   3.248   1.220   0.152  1.9398 -0.4737  0.1135
12074SOL    HW236922   3.216   1.101   0.240 -1.1228  0.2392  0.0616
12075SOL     OW36923   6.038   2.261   7.662 -0.5620  0.4499  0.7416
12075SOL    HW136924   6.121   2.240   7.705 -0.7787 -0.8009  0.5807
12075SOL    HW236925   6.063   2.292   7.575 -0.2702 -0.0961  0.6302
12076SOL     OW36926   0.228   1.875   2.955 -0.2768 -0.0751  0.4577
12076SOL    HW136927   0.286   1.951   2.943 -1.5402  0.8275 -0.1196
12076SOL    HW236928   0.192   1.860   2.868 -1.2621 -0.3360  0.9052
12077SOL     OW36929   0.299   6.648   5.641 -0.6380 -0.5311  0.0965
12077SOL    HW136930   0.320   6.739   5.623 -0.9752 -0.9166 -2.6145
12077SOL    HW236931   0.380   6.600   5.624 -1.2244 -1.0282 -1.4272
12078SOL     OW36932   7.545   0.477   7.900 -0.3552  0.2495 -0.3512
12078SOL    HW136933   7.532   0.414   7.830  0.0995 -0.2998  0.0567
12078SOL    HW236934   7.474   0.460   7.962 -1.1901  1.2123 -1.0081
12079SOL     OW36935   0.820   4.604   7.035 -0.4139  0.2125 -0.4798
12079SOL    HW136936   0.817   4.576   6.943 -0.0720  0.6119 -0.6162
12079SOL    HW236937   0.730   4.626   7.056 -0.1462  2.6159 -1.5177
12080SOL     OW36938   5.860   1.952   3.454  0.2552 -0.5820 -0.4572
12080SOL    HW136939   5.766   1.932   3.459 -0.1842  0.8173 -1.9399
12080SOL    HW236940   5.902   1.867   3.441 -0.8295 -1.2150  0.0476
12081SOL     OW36941   5.440   2.325   0.807 -0.2079  0.0630  0.4595
12081SOL    HW136942   5.534   2.316   0.790 -0.2613 -3.7207  1.2265
12081SOL    HW236943   5.403   2.360   0.726  1.7150  0.4681 -0.2892
12082SOL     OW36944   0.811   1.076   2.098 -0.3898 -0.4595  0.3008
12082SOL    HW136945   0.809   1.087   2.193 -1.0089  0.4460  0.1875
12082SOL    HW236946   0.897   1.038   2.081  0.1366  0.3115  1.1359
12083SOL     OW36947   5.347   3.765   7.578  0.1111 -0.2094 -0.2809
12083SOL    HW136948   5.411   3.735   7.513  0.0932  1.8377 -1.3489
12083SOL    HW236949   5.398   3.776   7.658  0.6480 -0.5875 -0.5605
12084SOL     OW36950   2.156   0.299   2.348 -0.1113  0.0043 -0.4243
12084SOL    HW136951   2.200   0.314   2.263 -0.5061  0.8896 -0.4841
12084SOL    HW236952   2.083   0.241   2.327  0.4640 -0.7027 -0.4913
12085SOL     OW36953   1.262   6.255   6.478  0.3286 -0.1212  0.2723
12085SOL    HW136954   1.286   6.348   6.481 -4.1903  1.2611  1.0091
12085SOL    HW236955   1.235   6.235   6.568 -0.9719 -1.4018 -0.3733
12086SOL     OW36956   2.841   5.588   7.674 -0.8312  0.2531 -0.1342
12086SOL    HW136957   2.766   5.647   7.681 -1.0654 -0.1911  1.7503
12086SOL    HW236958   2.817   5.525   7.607 -1.1324  1.4986 -1.2279
12087SOL     OW36959   3.202   3.556   5.855  0.2842 -0.7410 -0.0281
12087SOL    HW136960   3.110   3.530   5.849 -0.1929  0.3257  1.8404
12087SOL    HW236961   3.225   3.583   5.766 -1.3246 -0.7316 -0.4664
12088SOL     OW36962   1.580   2.306   0.915 -0.2160 -0.0038  0.6998
12088SOL    HW136963   1.655   2.255   0.947  2.4937  2.4537 -1.2255
12088SOL    HW236964   1.582   2.387   0.966 -0.9265  0.5313 -0.0931
12089SOL     OW36965   1.649   3.801   1.194 -0.2687  0.6835 -0.7790
12089SOL    HW136966   1.594   3.727   1.216 -1.2744  1.8703  0.9335
12089SOL    HW236967   1.596   3.854   1.134  1.3536 -1.0489 -4.0750
12090SOL     OW36968   4.941   2.180   3.221  0.0841 -0.5836 -0.9347
12090SOL    HW136969   4.856   2.164   3.180 -0.5332  0.0408  0.0499
12090SOL    HW236970   5.003   2.134   3.165 -0.8343 -0.6234 -1.9710
12091SOL     OW36971   3.755   5.391   2.633  0.1073 -0.3594  0.5797
12091SOL    HW136972   3.789   5.350   2.712  0.5948 -0.9062  0.1031
12091SOL    HW236973   3.795   5.341   2.561 -1.8147 -1.1546 -0.0201
12092SOL     OW36974   3.734   5.602   2.447 -0.5090  0.2282  0.4030
12092SOL    HW136975   3.735   5.542   2.521  0.5735 -0.1879  0.0695
12092SOL    HW236976   3.722   5.546   2.371  0.3594  0.4277  0.1048
12093SOL     OW36977   4.079   3.624   5.466 -0.2183  0.1803  0.1750
12093SOL    HW136978   4.167   3.618   5.428 -0.6483  0.4343 -0.8786
12093SOL    HW236979   4.031   3.552   5.427 -0.1491 -0.7244  1.7015
12094SOL     OW36980   7.456   1.744   2.155 -0.4210  0.0889  0.0628
12094SOL    HW136981   7.533   1.754   2.211 -0.8837  0.1157  0.7117
12094SOL    HW236982   7.482   1.780   2.071 -0.1970  1.4583  0.6963
12095SOL     OW36983   7.738   7.236   1.253 -0.1734  0.3422  0.4000
12095SOL    HW136984   7.806   7.253   1.189  0.0752  1.3438  0.9032
12095SOL    HW236985   7.779   7.179   1.318 -0.1027  0.1936  0.2257
12096SOL     OW36986   2.763   5.298   4.736 -0.1171  0.1586  0.9327
12096SOL    HW136987   2.749   5.246   4.816 -0.3425  0.3615  1.0258
12096SOL    HW236988   2.856   5.289   4.717 -0.1467 -0.2510  0.9725
12097SOL     OW36989   1.136   4.649   3.205 -0.8208  0.5608 -0.2399
12097SOL    HW136990   1.111   4.589   3.134  0.0184 -0.4182  0.2659
12097SOL    HW236991   1.069   4.717   3.204 -3.6292 -1.9924  1.1328
12098SOL     OW36992   6.969   7.918   7.616  0.2063  0.1886 -0.4998
12098SOL    HW136993   6.957   7.990   7.678  1.8036  0.8266 -0.8885
12098SOL    HW236994   6.881   7.880   7.606 -0.2968  0.7931  1.2511
12099SOL     OW36995   3.177   6.415   2.548 -0.1148 -0.6456  0.0884
12099SOL    HW136996   3.186   6.452   2.460 -1.0080  0.8099  0.5758
12099SOL    HW236997   3.252   6.356   2.557  0.3039 -0.3901 -1.4330
12100SOL     OW36998   1.111   5.840   3.946  0.1330  0.0054 -0.4520
12100SOL    HW136999   1.057   5.821   4.022 -0.2261  1.2225 -0.3898
12100SOL    HW237000   1.154   5.756   3.926 -0.6175 -0.6033  0.3962
12101SOL     OW37001   7.378   7.815   1.401 -0.0079 -0.3522  0.3095
12101SOL    HW137002   7.446   7.827   1.468 -0.3598 -0.6577  0.7342
12101SOL    HW237003   7.426   7.795   1.321  0.3962 -1.1328  0.7290
12102SOL     OW37004   0.945   1.979   5.144  0.4542 -0.1329 -0.1210
12102SOL    HW137005   0.915   1.996   5.055  2.8749  0.9862 -0.7920
12102SOL    HW237006   0.865   1.961   5.193 -1.0745  0.6034 -2.2163
12103SOL     OW37007   2.150   3.746   2.290 -0.0731  0.4500  0.1761
12103SOL    HW137008   2.092   3.756   2.366  0.1613  2.6639  0.1395
12103SOL    HW237009   2.129   3.821   2.234 -0.0678 -0.9988 -1.8688
12104SOL     OW37010   7.617   7.807   6.510  0.0681 -0.0254 -0.0187
12104SOL    HW137011   7.634   7.837   6.420 -0.0642  0.1978  0.0326
12104SOL    HW237012   7.702   7.815   6.554  0.3425 -0.9464 -0.3587
12105SOL     OW37013   3.152   4.302   1.716 -0.2902 -0.2326  0.3525
12105SOL    HW137014   3.116   4.241   1.651  0.6720 -0.4987  0.0619
12105SOL    HW237015   3.236   4.330   1.679  0.5090 -0.7707  1.7109
12106SOL     OW37016   4.568   5.223   1.285 -0.3310  0.3208  0.3058
12106SOL    HW137017   4.542   5.314   1.300 -1.2786 -0.2171  2.2841
12106SOL    HW237018   4.663   5.224   1.290 -0.1850  1.4987 -1.8056
12107SOL     OW37019   5.308   4.505   4.579  0.2168 -0.3078  0.0297
12107SOL    HW137020   5.375   4.522   4.512 -1.5346 -0.8825 -2.0006
12107SOL    HW237021   5.311   4.411   4.592  1.3918 -0.0657  1.7745
12108SOL     OW37022   3.108   3.806   5.396  0.1159  0.3253 -0.6075
12108SOL    HW137023   3.063   3.798   5.481 -0.8555 -1.1001 -1.1999
12108SOL    HW237024   3.160   3.886   5.403  1.2664 -0.5328  1.8863
12109SOL     OW37025   4.713   6.085   4.702 -0.0295  0.5528 -0.5737
12109SOL    HW137026   4.757   6.044   4.627 -1.0787  0.0254 -0.9333
12109SOL    HW237027   4.748   6.174   4.706  0.7380  0.2836 -1.1000
12110SOL     OW37028   7.231   0.787   1.123  0.3437 -0.3583 -0.3814
12110SOL    HW137029   7.295   0.832   1.178 -1.1241 -0.1279  1.2326
12110SOL    HW237030   7.242   0.827   1.037  0.2037  1.9870  0.6074
12111SOL     OW37031   0.346   1.188   2.695  0.0003  0.3503  0.9720
12111SOL    HW137032   0.304   1.272   2.715  2.1297  1.9082 -0.5715
12111SOL    HW237033   0.346   1.184   2.599 -0.2152 -1.5332  1.0283
12112SOL     OW37034   2.858   7.136   3.633 -1.1017 -0.2941 -0.1956
12112SOL    HW137035   2.841   7.108   3.543 -1.9664  1.6617 -0.6941
12112SOL    HW237036   2.935   7.193   3.626 -0.7473 -0.6797  0.4344
12113SOL     OW37037   4.211   3.342   4.958 -0.2093  0.2810  0.2124
12113SOL    HW137038   4.193   3.305   4.872 -0.7334 -0.3853  0.6019
12113SOL    HW237039   4.186   3.434   4.950 -0.8297  0.0848 -0.1649
12114SOL     OW37040   1.068   3.939   6.490  0.4912  0.1327 -0.2916
12114SOL    HW137041   1.024   4.001   6.432 -0.0018  2.1916  2.0748
12114SOL    HW237042   1.139   3.903   6.438 -0.2047  1.4690 -2.2949
12115SOL     OW37043   1.119   6.297   4.748  0.0547  0.1224  0.5364
12115SOL    HW137044   1.199   6.279   4.798  1.7363  1.5523 -1.4685
12115SOL    HW237045   1.106   6.219   4.694 -1.5929 -1.2962  2.7704
12116SOL     OW37046   1.008   5.664   1.176 -0.3314 -0.3208  0.4530
12116SOL    HW137047   1.046   5.587   1.134  3.1272  1.7293 -0.6244
12116SOL    HW237048   1.047   5.665   1.263 -0.6096  0.0339  0.5757
12117SOL     OW37049   2.566   2.898   6.302 -0.0402 -0.3970  0.0551
12117SOL    HW137050   2.523   2.897   6.216  0.8453  0.2343 -0.4145
12117SOL    HW237051   2.562   2.990   6.329 -0.7449 -0.6754  0.9222
12118SOL     OW37052   2.332   4.187   3.597  0.0074  0.0513  0.1524
12118SOL    HW137053   2.367   4.097   3.599 -0.2131 -0.0739 -1.0349
12118SOL    HW237054   2.391   4.234   3.538 -1.4185 -0.0032 -1.3758
12119SOL     OW37055   0.367   2.369   5.366  1.0041  0.2244 -0.5365
12119SOL    HW137056   0.272   2.376   5.368  0.9761  0.5353 -2.0208
12119SOL    HW237057   0.385   2.277   5.349  0.9589  0.2356 -0.6438
12120SOL     OW37058   7.193   5.287   6.101 -0.2087 -0.0311  0.2695
12120SOL    HW137059   7.182   5.353   6.032 -0.2794 -0.6813 -0.3534
12120SOL    HW237060   7.284   5.259   6.092  0.0447  0.5082  1.0259
12121SOL     OW37061   5.367   4.505   5.206  0.5134  0.2875 -0.0482
12121SOL    HW137062   5.375   4.592   5.167 -0.0412  0.5144  0.3320
12121SOL    HW237063   5.377   4.520   5.300  1.1600 -0.1623 -0.0425
12122SOL     OW37064   4.474   2.516   1.270  0.0938 -0.3682 -0.3116
12122SOL    HW137065   4.427   2.585   1.316 -1.0806 -1.8253  0.7884
12122SOL    HW237066   4.450   2.436   1.317  1.7325 -1.4789 -1.2807
12123SOL     OW37067   5.715   2.104   5.563  0.4559 -0.3016 -0.6254
12123SOL    HW137068   5.786   2.167   5.550  1.8227 -1.7484 -0.4577
12123SOL    HW237069   5.725   2.077   5.654 -0.6957 -0.1025 -0.4302
12124SOL     OW37070   1.975   0.514   4.727  0.4445 -0.0667  0.0479
12124SOL    HW137071   1.893   0.513   4.776 -0.0167 -0.5789 -0.7216
12124SOL    HW237072   2.032   0.453   4.775 -0.6560 -2.1304 -1.0930
12125SOL     OW37073   1.239   0.426   0.655  0.1769 -0.8902  0.2776
12125SOL    HW137074   1.222   0.518   0.634  0.9493 -0.4618  1.4059
12125SOL    HW237075   1.166   0.378   0.615  0.0167  0.1490 -0.7429
12126SOL     OW37076   3.017   1.135   1.809  0.5500 -0.5972  0.1396
12126SOL    HW137077   3.095   1.179   1.841  0.7735 -0.9056  0.0289
12126SOL    HW237078   2.980   1.194   1.744  0.7120 -0.4671  0.1663
12127SOL     OW37079   1.381   6.623   4.677  0.0479  0.4379  0.7589
12127SOL    HW137080   1.360   6.575   4.597 -1.5294 -0.4930  1.6820
12127SOL    HW237081   1.387   6.714   4.649  0.4147  0.0374 -0.5600
12128SOL     OW37082   3.736   6.391   0.432 -0.1402 -0.5022 -0.0427
12128SOL    HW137083   3.725   6.431   0.519 -0.1320  2.1756 -1.1555
12128SOL    HW237084   3.828   6.406   0.410 -0.5079  0.3158 -1.1254
12129SOL     OW37085   0.560   4.995   4.273  0.3191  0.1121  0.2882
12129SOL    HW137086   0.557   5.050   4.351  1.1179  1.7003 -0.7320
12129SOL    HW237087   0.476   4.950   4.272  0.9283 -1.2685  2.9137
12130SOL     OW37088   2.570   2.455   4.555  0.6130  0.6907  0.4883
12130SOL    HW137089   2.626   2.523   4.519  0.5879  0.8018  0.6605
12130SOL    HW237090   2.484   2.497   4.566  0.0971  0.1406 -1.1108
12131SOL     OW37091   3.007   6.900   3.232 -1.3324 -0.1857 -0.5436
12131SOL    HW137092   2.993   6.806   3.216 -0.1603 -0.3302 -0.8307
12131SOL    HW237093   3.097   6.905   3.263 -0.4938  1.0967 -2.9527
12132SOL     OW37094   5.494   2.444   1.165  0.3638  0.4038 -0.2458
12132SOL    HW137095   5.461   2.427   1.077 -0.1199  2.5582 -0.5213
12132SOL    HW237096   5.426   2.410   1.223 -1.0357  2.1863 -0.7788
12133SOL     OW37097   0.139   7.303   7.883 -0.1713 -0.2723  0.3241
12133SOL    HW137098   0.154   7.395   7.904 -1.3341  0.0088  0.0053
12133SOL    HW237099   0.100   7.305   7.796  0.1881 -1.0969  0.1406
12134SOL     OW37100   3.499   6.841   1.448 -0.1451 -0.6101  0.1715
12134SOL    HW137101   3.579   6.852   1.499 -0.3000  3.0107 -0.1142
12134SOL    HW237102   3.513   6.761   1.398  2.8190 -0.6857  0.9465
12135SOL     OW37103   3.105   0.931   5.500 -0.4252 -0.5409 -0.2863
12135SOL    HW137104   3.015   0.942   5.469 -1.1434 -0.6154  1.6354
12135SOL    HW237105   3.103   0.962   5.590  1.5615 -0.2917 -0.2895
12136SOL     OW37106   0.902   1.908   5.851 -0.6865  0.1932 -0.0382
12136SOL    HW137107   0.961   1.850   5.804 -0.1475  0.2368  0.5783
12136SOL    HW237108   0.852   1.952   5.782  0.7154  0.9350 -0.6193
12137SOL     OW37109   4.952   6.182   3.078 -0.5281 -0.2001  0.5347
12137SOL    HW137110   4.868   6.223   3.098 -0.1203 -0.6876  3.7692
12137SOL    HW237111   5.016   6.231   3.131  0.7304 -1.8169  0.5943
12138SOL     OW37112   1.351   4.976   5.560  0.9704  0.2173 -0.3882
12138SOL    HW137113   1.291   4.956   5.632 -0.8708 -1.8455 -2.3514
12138SOL    HW237114   1.429   5.010   5.604 -1.6205  3.4391  2.3149
12139SOL     OW37115   5.166   1.326   5.803  0.3121 -0.3326 -0.7113
12139SOL    HW137116   5.215   1.317   5.722  0.0244 -1.8021 -0.7419
12139SOL    HW237117   5.126   1.240   5.818  0.5789 -0.1893  1.1312
12140SOL     OW37118   1.309   3.790   7.389 -0.2632 -0.5317 -0.2719
12140SOL    HW137119   1.285   3.796   7.481 -2.0551 -3.0520 -0.4554
12140SOL    HW237120   1.350   3.874   7.368 -2.2365  1.1505  2.1281
12141SOL     OW37121   4.009   3.693   5.744 -0.1755 -0.5102 -0.0007
12141SOL    HW137122   4.076   3.676   5.677  0.8374 -0.9065  1.0908
12141SOL    HW237123   4.030   3.779   5.779 -1.0179 -0.0714 -0.5094
12142SOL     OW37124   2.705   6.641   1.640 -0.1735  0.0565 -0.1229
12142SOL    HW137125   2.795   6.634   1.608 -0.0632 -0.9661  0.3779
12142SOL    HW237126   2.709   6.708   1.708  0.1929  0.0786 -0.1639
12143SOL     OW37127   4.769   2.385   5.595  0.0202  0.0893 -0.1712
12143SOL    HW137128   4.835   2.324   5.628  0.5760  0.2306 -0.9870
12143SOL    HW237129   4.795   2.401   5.504  0.2600  2.0176  0.1883
12144SOL     OW37130   6.771   7.438   4.320  0.5710 -0.9350 -0.5543
12144SOL    HW137131   6.788   7.531   4.335 -0.8282 -0.7210 -0.1739
12144SOL    HW237132   6.756   7.430   4.226  1.0795 -0.8489 -0.6438
12145SOL     OW37133   3.289   1.179   7.602  0.3122  0.5336 -0.3762
12145SOL    HW137134   3.228   1.106   7.608 -1.1795  1.7914  0.5783
12145SOL    HW237135   3.324   1.188   7.691  1.3524  0.2791 -0.7517
12146SOL     OW37136   4.493   5.557   6.881 -0.0015 -0.4897  0.6091
12146SOL    HW137137   4.426   5.596   6.937  0.6775 -0.5994  1.5292
12146SOL    HW237138   4.449   5.542   6.798 -0.8505  0.3136  0.8953
12147SOL     OW37139   3.461   7.783   5.567  0.1775  0.4625  0.2531
12147SOL    HW137140   3.530   7.799   5.503  0.5505 -0.9379  0.2731
12147SOL    HW237141   3.393   7.847   5.546  0.0238 -0.3109 -1.9366
12148SOL     OW37142   0.803   5.856   5.619 -0.3880 -0.3090  0.4273
12148SOL    HW137143   0.723   5.900   5.648 -1.0555  0.3976 -2.2515
12148SOL    HW237144   0.822   5.793   5.689 -1.7843  1.2939  2.3568
12149SOL     OW37145   7.141   3.924   0.919 -0.0951 -0.0993  0.2170
12149SOL    HW137146   7.143   4.018   0.902  1.7343 -0.4027 -1.6994
12149SOL    HW237147   7.117   3.917   1.011 -0.5957  2.2136  0.3312
12150SOL     OW37148   5.921   3.359   5.241  0.4093 -0.0089  0.0342
12150SOL    HW137149   6.013   3.381   5.224  0.7484 -0.7921  0.7729
12150SOL    HW237150   5.906   3.388   5.331 -0.4159  1.1571 -0.4590
12151SOL     OW37151   6.032   4.723   4.703 -0.1069  0.1853  0.1388
12151SOL    HW137152   6.098   4.653   4.708  0.4551  0.4032 -2.6174
12151SOL    HW237153   6.076   4.799   4.741  1.2320  0.2704 -1.4638
12152SOL     OW37154   2.856   0.547   5.615  0.2854  0.0646  0.3883
12152SOL    HW137155   2.946   0.559   5.585  0.7973 -0.9703  1.4482
12152SOL    HW237156   2.828   0.635   5.642  1.4498  0.1872  1.2779
12153SOL     OW37157   7.713   0.956   0.517  0.2513 -0.7937  0.0473
12153SOL    HW137158   7.785   1.001   0.561  0.0213 -1.7204  1.4199
12153SOL    HW237159   7.641   1.019   0.519  0.0233 -1.0748  1.6767
12154SOL     OW37160   5.923   6.791   3.708  0.1990 -0.3569 -0.1399
12154SOL    HW137161   5.884   6.704   3.715 -2.0153  0.5088 -0.6519
12154SOL    HW237162   5.919   6.811   3.614 -1.8518  1.2765  0.2068
12155SOL     OW37163   5.484   7.731   5.903 -0.0592  0.0731 -0.6478
12155SOL    HW137164   5.548   7.743   5.973  0.1604 -3.1131 -0.1276
12155SOL    HW237165   5.399   7.734   5.946 -0.0223 -0.0210 -0.5684
12156SOL     OW37166   6.152   1.644   7.589  0.1252 -0.1589  0.1050
12156SOL    HW137167   6.080   1.704   7.609 -0.3979 -0.7542  0.0281
12156SOL    HW237168   6.159   1.646   7.494  0.8965  0.6806  0.1673
12157SOL     OW37169   7.291   7.566   5.509 -0.0307  0.4869  0.1840
12157SOL    HW137170   7.385   7.549   5.513  0.0275  0.7536 -0.0472
12157SOL    HW237171   7.251   7.479   5.505  0.2364  0.3885 -0.3937
12158SOL     OW37172   5.475   1.274   4.232 -0.3891 -0.0503 -0.1843
12158SOL    HW137173   5.546   1.213   4.252 -0.7794 -0.3783  0.2206
12158SOL    HW237174   5.507   1.359   4.265  0.0345 -0.0864 -0.4925
12159SOL     OW37175   1.100   5.742   5.929 -0.1550  0.6347  0.4584
12159SOL    HW137176   1.102   5.758   6.023 -0.0147  2.8941  0.1118
12159SOL    HW237177   1.192   5.740   5.902 -0.0582 -2.4546  0.6652
12160SOL     OW37178   0.834   2.617   5.174 -0.6102 -0.1757  0.4463
12160SOL    HW137179   0.906   2.677   5.154 -1.0558  0.4281  0.6252
12160SOL    HW237180   0.826   2.620   5.269  0.5753 -1.9546  0.6512
12161SOL     OW37181   2.598   6.337   7.969 -0.3204 -0.2441 -0.7502
12161SOL    HW137182   2.617   6.246   7.991 -0.5476 -0.0525  0.2712
12161SOL    HW237183   2.585   6.381   8.053 -0.9818  0.5683 -1.2504
12162SOL     OW37184   2.425   7.544   1.875  1.0142  0.0423 -0.2528
12162SOL    HW137185   2.408   7.470   1.933 -0.0246  0.3824 -0.0989
12162SOL    HW237186   2.503   7.585   1.912  0.6460 -0.0271  0.6483
12163SOL     OW37187   3.906   1.092   4.524  0.0804 -0.2435 -0.5905
12163SOL    HW137188   3.996   1.124   4.533  0.2784 -0.1116 -2.5138
12163SOL    HW237189   3.883   1.113   4.433 -1.7447 -0.6752 -0.2611
12164SOL     OW37190   5.313   5.695   6.235 -0.0166 -0.0147 -0.0660
12164SOL    HW137191   5.255   5.750   6.182  0.2869 -0.9218 -1.3620
12164SOL    HW237192   5.352   5.756   6.298 -2.0186  0.7085  0.5856
12165SOL     OW37193   4.636   1.700   1.252  0.1651  0.0227  0.3858
12165SOL    HW137194   4.710   1.759   1.244  2.5868 -2.8643 -0.5895
12165SOL    HW237195   4.603   1.690   1.163  0.8634 -1.2337  0.2322
12166SOL     OW37196   5.553   4.847   2.642 -0.2889 -0.2683 -0.6103
12166SOL    HW137197   5.517   4.925   2.600  1.2210  1.9314  1.8620
12166SOL    HW237198   5.490   4.825   2.710  1.5554  2.0876  2.0875
12167SOL     OW37199   5.032   2.502   2.164  0.2754  0.1335  0.4857
12167SOL    HW137200   4.951   2.464   2.197  0.4444 -0.7737 -0.1020
12167SOL    HW237201   5.074   2.431   2.116  1.1329  0.7636  0.2714
12168SOL     OW37202   7.383   1.078   3.679  0.3612 -0.1241  0.2083
12168SOL    HW137203   7.388   1.120   3.765  1.3724 -0.2755  0.2370
12168SOL    HW237204   7.293   1.093   3.650  0.5259  1.5948  0.4494
12169SOL     OW37205   1.384   1.790   1.638  0.3427  0.0279 -0.0889
12169SOL    HW137206   1.439   1.715   1.660 -1.4229 -1.5084 -0.6103
12169SOL    HW237207   1.338   1.810   1.720 -0.6879 -0.8310 -0.4280
12170SOL     OW37208   3.277   7.684   3.991 -0.2311 -0.2478  0.0636
12170SOL    HW137209   3.253   7.652   3.904  2.2419 -0.8252 -0.4939
12170SOL    HW237210   3.194   7.691   4.038 -1.6356  0.1073 -2.3260
12171SOL     OW37211   0.935   5.801   0.721  0.3601 -0.6536 -0.2424
12171SOL    HW137212   0.985   5.878   0.747 -0.6215  0.2560 -0.9705
12171SOL    HW237213   0.941   5.800   0.625 -0.6827 -0.7379 -0.3238
12172SOL     OW37214   0.786   6.505   3.404 -0.3086 -0.1855  0.0582
12172SOL    HW137215   0.741   6.457   3.334 -1.6031  1.2588 -0.1414
12172SOL    HW237216   0.730   6.580   3.423  1.5559  1.2054  0.4479
12173SOL     OW37217   5.526   1.003   1.616  0.6988  0.2867 -0.1657
12173SOL    HW137218   5.601   0.945   1.626  0.1008 -0.8254 -1.7393
12173SOL    HW237219   5.451   0.951   1.646 -0.0250 -0.3214 -2.7864
12174SOL     OW37220   4.274   0.058   2.116  0.1611 -0.1306  0.1760
12174SOL    HW137221   4.311  -0.008   2.175  0.5300  0.4832  0.6491
12174SOL    HW237222   4.335   0.061   2.042 -0.2248 -0.8014 -0.1722
12175SOL     OW37223   7.241   0.580   7.565  1.2009 -0.2795  0.0842
12175SOL    HW137224   7.186   0.655   7.585  2.3689  0.5228  0.3606
12175SOL    HW237225   7.313   0.616   7.514  1.3252 -1.3648 -0.5466
12176SOL     OW37226   0.976   5.165   2.549 -0.4531  0.2937  0.2479
12176SOL    HW137227   0.932   5.249   2.562 -1.3638 -0.0663 -0.4034
12176SOL    HW237228   0.930   5.105   2.608  0.0001  0.1870  0.4942
12177SOL     OW37229   0.610   1.813   4.270  0.3780  0.8783  0.0912
12177SOL    HW137230   0.662   1.843   4.196  1.6701 -2.4696 -0.5480
12177SOL    HW237231   0.650   1.853   4.347  1.8674  0.9198 -0.6835
12178SOL     OW37232   5.213   0.547   5.107  0.6828 -0.0356  0.1934
12178SOL    HW137233   5.218   0.641   5.126 -0.9376  0.3060 -0.8946
12178SOL    HW237234   5.137   0.538   5.049  0.8077 -2.0256  0.2732
12179SOL     OW37235   2.612   2.132   7.068  0.0893  0.1064 -0.0644
12179SOL    HW137236   2.686   2.190   7.050  1.7082 -1.2326  1.8574
12179SOL    HW237237   2.574   2.166   7.149 -0.4369 -0.1429 -0.1996
12180SOL     OW37238   0.025   7.017   5.458 -0.1340 -0.0218  0.0292
12180SOL    HW137239  -0.063   7.055   5.456  0.4151  1.3359 -2.1180
12180SOL    HW237240   0.031   6.967   5.376 -0.0526 -3.0981  1.7658
12181SOL     OW37241   6.009   1.170   3.270  0.5720  0.0222 -0.8791
12181SOL    HW137242   6.095   1.182   3.309  0.4085 -0.7980 -0.2419
12181SOL    HW237243   6.015   1.088   3.221 -0.2653 -0.8572  0.4224
12182SOL     OW37244   7.682   1.078   1.866  0.0970  0.2874  0.5645
12182SOL    HW137245   7.748   1.143   1.842  0.6387  0.1270  1.5323
12182SOL    HW237246   7.641   1.113   1.945 -1.6702  0.8357 -0.5661
12183SOL     OW37247   6.992   2.746   7.055 -0.3532  0.1849 -0.1596
12183SOL    HW137248   7.078   2.706   7.068 -0.6127 -0.6290 -0.8331
12183SOL    HW237249   7.003   2.805   6.980 -1.1481 -2.5678 -2.6329
12184SOL     OW37250   6.404   0.216   5.465  0.1474  0.3069  0.2724
12184SOL    HW137251   6.475   0.273   5.435  0.0122  0.5943  0.4957
12184SOL    HW237252   6.342   0.275   5.508  0.1436 -0.0483  0.7544
12185SOL     OW37253   5.646   4.259   2.937 -0.7103 -0.3171 -0.4028
12185SOL    HW137254   5.560   4.259   2.980  0.4134 -1.6527  2.0672
12185SOL    HW237255   5.633   4.209   2.857 -2.1007 -1.1154  0.2828
12186SOL     OW37256   5.080   6.308   1.833 -0.2393  0.8170  0.3356
12186SOL    HW137257   5.078   6.302   1.929  2.5070  0.7605  0.4709
12186SOL    HW237258   5.172   6.323   1.812 -0.9392  2.1289 -2.2522
12187SOL     OW37259   5.678   6.671   7.561  0.2549  0.1878  0.0874
12187SOL    HW137260   5.701   6.628   7.644  0.9974 -1.3933 -0.8871
12187SOL    HW237261   5.715   6.759   7.569  0.8092 -0.1236  1.2181
12188SOL     OW37262   7.358   7.383   3.197  0.2345 -0.0608 -0.1467
12188SOL    HW137263   7.351   7.302   3.147  2.4637 -0.5397  0.1913
12188SOL    HW237264   7.368   7.451   3.131 -1.4758 -0.0363 -0.4283
12189SOL     OW37265   1.379   2.060   1.565 -0.0597  0.2091 -0.4452
12189SOL    HW137266   1.386   2.124   1.635 -0.6622  0.0723 -0.2500
12189SOL    HW237267   1.395   1.976   1.608  1.9005  0.2996 -0.9150
12190SOL     OW37268   2.277   7.923   6.534  0.3086  0.2275 -0.4684
12190SOL    HW137269   2.255   7.980   6.608  0.4452  0.2176 -0.4209
12190SOL    HW237270   2.253   7.835   6.563  1.4368  0.0660  0.0011
12191SOL     OW37271   6.411   7.065   3.182  0.6217 -0.1317  0.4798
12191SOL    HW137272   6.316   7.076   3.175  0.3946 -0.8725  2.0469
12191SOL    HW237273   6.442   7.147   3.219  0.1816 -0.9382  2.7730
12192SOL     OW37274   4.469   1.800   1.021 -0.0575 -0.4081  0.0199
12192SOL    HW137275   4.388   1.849   1.009  0.0894  0.3458  1.8013
12192SOL    HW237276   4.483   1.755   0.938 -2.4461 -0.7793 -0.2436
12193SOL     OW37277   4.372   6.302   1.541  0.4588  0.1487  0.0605
12193SOL    HW137278   4.297   6.284   1.599  0.3738 -1.8418 -0.5711
12193SOL    HW237279   4.342   6.373   1.484 -0.3058  0.5486  0.9330
12194SOL     OW37280   5.517   5.912   7.445 -0.1378 -0.2068  0.8211
12194SOL    HW137281   5.579   5.926   7.373 -1.1427  0.5860  0.0758
12194SOL    HW237282   5.542   5.827   7.482  0.8733 -0.2775  0.0264
12195SOL     OW37283   4.876   3.621   1.026 -0.4513  0.1854 -0.0644
12195SOL    HW137284   4.860   3.624   0.932  1.5256 -0.3248 -0.4609
12195SOL    HW237285   4.837   3.538   1.054 -0.4866  0.0323 -0.5519
12196SOL     OW37286   0.330   0.298   5.720 -0.1013  0.2915  0.7385
12196SOL    HW137287   0.395   0.286   5.650 -1.2896 -2.0593 -0.0752
12196SOL    HW237288   0.378   0.277   5.800  0.7346  0.9384  0.4291
12197SOL     OW37289   7.869   5.985   6.585 -0.0410  0.5300 -0.0424
12197SOL    HW137290   7.886   6.052   6.520  0.6090  0.1353 -0.2838
12197SOL    HW237291   7.775   5.968   6.579 -0.1052  1.0094 -0.3729
12198SOL     OW37292   7.227   1.971   0.288 -0.2692 -0.1994 -0.8853
12198SOL    HW137293   7.209   1.963   0.381  1.4704  0.6393 -0.4434
12198SOL    HW237294   7.155   2.026   0.255  0.8277  2.3253  0.6357
12199SOL     OW37295   0.247   6.302   0.244  0.0722  0.5609  0.2602
12199SOL    HW137296   0.257   6.292   0.149  0.7223  0.4217  0.3371
12199SOL    HW237297   0.160   6.266   0.263  0.7707 -1.3885 -0.0081
12200SOL     OW37298   5.815   4.955   4.474  0.2699  0.5782  0.0069
12200SOL    HW137299   5.821   4.969   4.569 -1.1455 -0.4225  0.2742
12200SOL    HW237300   5.794   4.862   4.464  0.5427  0.6339 -1.3052
12201SOL     OW37301   0.630   3.412   3.805 -0.2009 -0.2191 -0.7958
12201SOL    HW137302   0.685   3.333   3.807  0.3514  0.1605  1.2175
12201SOL    HW237303   0.617   3.429   3.712  0.9822 -1.7773 -1.3039
12202SOL     OW37304   5.950   4.849   0.066  0.0159  0.2755 -0.1027
12202SOL    HW137305   6.034   4.803   0.067 -0.3037 -0.3320 -0.7162
12202SOL    HW237306   5.953   4.904  -0.012  0.4693  1.4569  0.7242
12203SOL     OW37307   6.658   2.761   5.451  0.3367  0.2724  0.1221
12203SOL    HW137308   6.683   2.853   5.454  0.5709  0.3396 -2.1674
12203SOL    HW237309   6.715   2.718   5.515 -0.4485  1.8061  1.9488
12204SOL     OW37310   5.639   0.301   1.958 -0.2186  0.3296  0.1736
12204SOL    HW137311   5.577   0.294   1.886 -0.5810 -0.1452  0.5229
12204SOL    HW237312   5.720   0.262   1.924 -0.0635  1.0626 -0.3236
12205SOL     OW37313   6.409   0.319   3.552  0.7389  0.4797  0.1394
12205SOL    HW137314   6.492   0.355   3.519  0.6748  1.1202  0.6634
12205SOL    HW237315   6.369   0.391   3.600 -0.8127  0.6337 -1.2857
12206SOL     OW37316   5.221   0.277   4.888  0.0259  0.1338  0.1089
12206SOL    HW137317   5.179   0.349   4.839  1.3365  0.7200 -0.1862
12206SOL    HW237318   5.212   0.303   4.980 -1.8304 -0.6372  0.1947
12207SOL     OW37319   5.609   0.769   1.919  0.3203  0.0049 -0.1539
12207SOL    HW137320   5.679   0.709   1.944 -0.0668 -0.0468  0.8455
12207SOL    HW237321   5.542   0.712   1.880  0.2944 -0.1140  0.0609
12208SOL     OW37322   2.854   2.683   3.881  0.2376 -0.2261 -0.1505
12208SOL    HW137323   2.868   2.694   3.787  0.7268  0.7329  0.0236
12208SOL    HW237324   2.841   2.589   3.893 -0.7740 -0.2528 -1.2967
12209SOL     OW37325   5.383   6.340   2.546  0.2582 -0.4261  0.1618
12209SOL    HW137326   5.356   6.397   2.618  0.5923 -0.5652  0.4014
12209SOL    HW237327   5.318   6.270   2.546 -1.6820  1.2278 -1.7553
12210SOL     OW37328   7.782   4.170   2.125 -0.1337  0.3936  0.2183
12210SOL    HW137329   7.750   4.213   2.046  0.2113 -0.4408 -0.3742
12210SOL    HW237330   7.876   4.164   2.114 -0.1831 -0.6167  0.2338
12211SOL     OW37331   3.768   0.745   5.387  0.1479  0.4971  0.3331
12211SOL    HW137332   3.726   0.676   5.335 -0.2300  1.1085 -0.1899
12211SOL    HW237333   3.702   0.814   5.393  0.7117  1.0440  0.3813
12212SOL     OW37334   3.724   1.380   3.759 -0.5904 -0.2102 -0.2321
12212SOL    HW137335   3.795   1.320   3.782  0.0297 -0.3207 -2.1800
12212SOL    HW237336   3.687   1.408   3.842  1.7756 -0.1123  0.8674
12213SOL     OW37337   7.192   7.364   0.959  0.0079 -0.6136  0.2739
12213SOL    HW137338   7.214   7.457   0.958 -1.7839 -0.1552  0.4621
12213SOL    HW237339   7.247   7.325   0.891 -1.2517  1.0838 -1.8117
12214SOL     OW37340   3.387   5.754   0.938 -0.3139  0.1215 -0.0783
12214SOL    HW137341   3.378   5.689   0.868  1.5815  0.5907 -0.7978
12214SOL    HW237342   3.384   5.703   1.019  0.2830 -0.7551 -0.6001
12215SOL     OW37343   5.155   6.874   0.765 -0.2261  0.1549 -0.2260
12215SOL    HW137344   5.237   6.834   0.795 -0.2500  1.0046  1.0648
12215SOL    HW237345   5.104   6.801   0.731  1.8742 -0.1262 -3.1056
12216SOL     OW37346   3.938   2.673   5.968 -0.1815 -0.3091 -0.0208
12216SOL    HW137347   3.898   2.750   5.928 -0.2965 -0.5592 -0.3909
12216SOL    HW237348   3.900   2.599   5.921  0.6165 -0.5556 -0.2944
12217SOL     OW37349   1.086   4.178   6.792 -0.4409 -0.4151  0.0710
12217SOL    HW137350   1.000   4.213   6.770 -1.2556 -1.9532  0.6993
12217SOL    HW237351   1.074   4.136   6.878  1.3093  0.6757  0.9282
12218SOL     OW37352   3.062   7.815   4.722  0.2353 -0.0111  0.3648
12218SOL    HW137353   3.007   7.871   4.776  0.9284  0.5179  0.5302
12218SOL    HW237354   3.000   7.757   4.678 -0.4440  0.4861  0.6429
12219SOL     OW37355   7.724   3.818   3.582 -0.1864 -0.0554 -0.2792
12219SOL    HW137356   7.629   3.834   3.583  0.0179  1.2286  0.2542
12219SOL    HW237357   7.757   3.873   3.512  0.4135  1.1683  0.9214
12220SOL     OW37358   7.342   5.489   4.126 -0.2043  0.2329 -0.1348
12220SOL    HW137359   7.423   5.497   4.177 -0.6475 -0.9793  0.8419
12220SOL    HW237360   7.292   5.568   4.146 -0.2472 -0.0953  1.1495
12221SOL     OW37361   4.025   3.638   4.314  0.0565  0.7668  0.4770
12221SOL    HW137362   3.982   3.553   4.319 -1.2158  1.3951  0.7267
12221SOL    HW237363   4.075   3.645   4.395  0.0160  0.3349  0.5411
12222SOL     OW37364   3.507   5.031   3.948  0.3245  0.3220  0.0676
12222SOL    HW137365   3.597   5.057   3.968  0.3256  0.9505 -0.7238
12222SOL    HW237366   3.513   4.937   3.929  0.5447  0.0158  1.5608
12223SOL     OW37367   6.156   4.236   0.129 -0.0752  0.1616  0.5089
12223SOL    HW137368   6.169   4.255   0.222  2.2178  0.5209  0.1912
12223SOL    HW237369   6.244   4.216   0.097 -0.5434  1.6290 -1.9290
12224SOL     OW37370   7.955   4.850   4.225 -0.3609 -0.4208  0.5308
12224SOL    HW137371   7.980   4.929   4.177 -0.7299 -1.2185 -1.0563
12224SOL    HW237372   7.983   4.866   4.315  0.9632  0.8859 -0.0730
12225SOL     OW37373   0.469   3.452   7.866  0.3724 -0.3221  0.4998
12225SOL    HW137374   0.463   3.380   7.930 -0.4367 -1.2293 -0.5640
12225SOL    HW237375   0.562   3.474   7.864  0.4769 -0.5762  1.6522
12226SOL     OW37376   2.239   1.941   0.062  0.5499 -0.3358 -0.0195
12226SOL    HW137377   2.220   1.908   0.150 -0.4113 -3.0420 -1.1234
12226SOL    HW237378   2.200   1.876   0.004 -0.6560  2.3709 -2.4985
12227SOL     OW37379   3.000   2.200   7.527 -0.0571 -0.1360  0.1141
12227SOL    HW137380   2.965   2.158   7.448  0.0853  0.3441 -0.2089
12227SOL    HW237381   2.968   2.290   7.522  1.7641  0.5187 -0.5534
12228SOL     OW37382   7.931   1.788   1.635 -0.1245 -0.5109 -0.6040
12228SOL    HW137383   7.978   1.737   1.570  2.7487  0.2494  0.7191
12228SOL    HW237384   7.940   1.737   1.716 -2.0069 -0.5389 -0.3731
12229SOL     OW37385   4.909   0.964   6.495  0.5158  0.3923 -0.5344
12229SOL    HW137386   4.831   0.964   6.440 -1.1016 -0.5214  1.5679
12229SOL    HW237387   4.962   0.891   6.463 -0.2187  0.1027 -1.1015
12230SOL     OW37388   4.033   6.055   2.592 -0.0361  0.3987  0.4021
12230SOL    HW137389   4.032   6.017   2.680 -1.6868  0.5586  0.4927
12230SOL    HW237390   3.981   5.993   2.540 -1.0314  1.4661  0.0923
12231SOL     OW37391   3.921   6.224   1.923 -0.1403  0.1820 -0.2786
12231SOL    HW137392   3.828   6.200   1.918  0.3065 -1.4411 -1.9456
12231SOL    HW237393   3.967   6.145   1.895  1.7953  0.7576  1.1273
12232SOL     OW37394   1.012   7.849   2.664 -0.3786  0.2797  0.1762
12232SOL    HW137395   1.017   7.849   2.568 -0.7497  1.7082  0.1393
12232SOL    HW237396   1.081   7.910   2.691 -1.5943  1.4665  0.7127
12233SOL     OW37397   7.663   6.673   6.224 -0.5043  0.7260  0.0673
12233SOL    HW137398   7.623   6.587   6.216 -0.8642  0.5383  2.9239
12233SOL    HW237399   7.757   6.657   6.217 -0.5591  0.0489  0.7262
12234SOL     OW37400   4.661   3.892   1.620 -0.0317 -0.8380 -0.4781
12234SOL    HW137401   4.624   3.828   1.558 -0.4226 -0.2668 -0.8551
12234SOL    HW237402   4.600   3.891   1.694  1.0381 -2.3441  0.4449
12235SOL     OW37403   5.170   2.741   3.947  0.0307  0.6543 -0.1844
12235SOL    HW137404   5.248   2.779   3.987 -0.4013  0.6472  0.6956
12235SOL    HW237405   5.098   2.796   3.976 -0.3845  0.2303 -0.3833
12236SOL     OW37406   1.338   2.651   6.101 -0.1196 -0.0196 -0.0384
12236SOL    HW137407   1.379   2.568   6.126  0.2949  0.0966 -0.3139
12236SOL    HW237408   1.273   2.667   6.169  0.0550 -0.3823  0.2202
12237SOL     OW37409   7.566   2.935   3.449 -0.1439 -0.2150  0.0176
12237SOL    HW137410   7.602   3.023   3.443 -2.0791  0.7827  1.5855
12237SOL    HW237411   7.498   2.941   3.516 -1.3101 -2.5789 -0.8004
12238SOL     OW37412   2.937   3.797   6.458  0.1044  0.1047  0.0386
12238SOL    HW137413   2.915   3.866   6.521  2.7381  1.1399 -0.0329
12238SOL    HW237414   2.964   3.723   6.512  1.1118  0.5477  0.1720
12239SOL     OW37415   4.099   2.093   6.956  0.1338 -0.2071  0.0616
12239SOL    HW137416   4.101   2.145   7.037  1.5474 -0.2150  0.0553
12239SOL    HW237417   4.177   2.038   6.961  0.2835 -0.1570 -1.3529
12240SOL     OW37418   0.607   7.965   5.911 -0.4792  0.0338 -0.2569
12240SOL    HW137419   0.567   8.051   5.921 -0.7531 -0.1299  0.0746
12240SOL    HW237420   0.560   7.925   5.838 -1.7498 -0.6126  0.8642
12241SOL     OW37421   0.951   0.250   6.414 -0.4590 -0.2652 -0.2764
12241SOL    HW137422   0.883   0.312   6.384  0.1751  0.6452  0.1206
12241SOL    HW237423   0.983   0.211   6.333 -0.0337  0.8281 -0.6592
12242SOL     OW37424   0.831   6.771   6.648  0.4609 -0.4474  0.1941
12242SOL    HW137425   0.919   6.791   6.616  0.2678 -0.0955 -0.1108
12242SOL    HW237426   0.775   6.838   6.609 -0.0058 -0.9069  0.0687
12243SOL     OW37427   5.080   3.912   2.379 -0.7455  0.0233  0.4209
12243SOL    HW137428   5.087   3.898   2.285 -1.3777 -2.9835  0.7053
12243SOL    HW237429   5.167   3.892   2.413 -0.9116 -0.4453  0.5843
12244SOL     OW37430   4.664   4.463   2.534 -0.0884  0.2048  0.0279
12244SOL    HW137431   4.652   4.388   2.593  0.0406  0.3287  0.2121
12244SOL    HW237432   4.599   4.527   2.564  0.3302  0.4754  0.3752
12245SOL     OW37433   4.563   7.706   1.804 -0.0897  0.0186 -0.0241
12245SOL    HW137434   4.585   7.613   1.809 -1.7171 -0.4767 -1.2380
12245SOL    HW237435   4.498   7.719   1.872 -0.5381  0.0447 -0.4506
12246SOL     OW37436   1.274   7.042   7.363  0.3570 -0.8964  0.2646
12246SOL    HW137437   1.182   7.035   7.390  0.7000 -0.5557  1.5501
12246SOL    HW237438   1.287   7.136   7.346 -0.3676 -1.2553 -3.1025
12247SOL     OW37439   7.291   4.768   3.806 -0.3242  0.0850  0.4049
12247SOL    HW137440   7.232   4.732   3.740  0.3574  0.3039 -0.3563
12247SOL    HW237441   7.251   4.851   3.832 -1.3703 -0.7198  1.4020
12248SOL     OW37442   1.418   7.369   3.553 -0.5945  0.0915 -0.0913
12248SOL    HW137443   1.466   7.427   3.614 -0.4649  1.5148 -1.4891
12248SOL    HW237444   1.327   7.398   3.559 -0.6022  0.1503 -0.4684
12249SOL     OW37445   3.362   4.628   6.040  0.5606  0.0575  0.0666
12249SOL    HW137446   3.453   4.615   6.013  0.5033 -4.2780  1.2447
12249SOL    HW237447   3.362   4.612   6.134 -1.2106  1.9214  0.4632
12250SOL     OW37448   7.851   0.468   1.869 -0.3878  0.0747  0.7637
12250SOL    HW137449   7.880   0.526   1.940 -0.0173  0.6025  0.1883
12250SOL    HW237450   7.918   0.477   1.801 -1.4744  0.6900 -0.2570
12251SOL     OW37451   5.461   4.436   7.090 -0.0403 -0.0689  0.3191
12251SOL    HW137452   5.403   4.360   7.090 -0.7308  0.4014 -1.5833
12251SOL    HW237453   5.483   4.449   6.997 -1.0505  2.8706  0.3958
12252SOL     OW37454   0.801   2.717   0.946 -0.5462 -0.0553  0.4594
12252SOL    HW137455   0.829   2.791   0.892 -0.5957 -0.2898  0.1128
12252SOL    HW237456   0.767   2.758   1.026  1.4504  0.2174  1.2315
12253SOL     OW37457   3.907   6.090   0.870 -0.0366  0.2761  1.1899
12253SOL    HW137458   3.981   6.145   0.895 -1.1350  1.5323  1.8332
12253SOL    HW237459   3.830   6.136   0.905 -1.2936 -0.0657 -0.9262
12254SOL     OW37460   5.459   2.519   5.974 -0.0529  0.1250 -0.8659
12254SOL    HW137461   5.478   2.572   6.052  1.4827  0.9637 -1.7660
12254SOL    HW237462   5.431   2.434   6.009  2.6465 -0.2394  0.6564
12255SOL     OW37463   6.256   2.120   2.226 -0.2407 -0.0548 -0.1378
12255SOL    HW137464   6.218   2.125   2.313 -0.4532 -1.6698 -0.1086
12255SOL    HW237465   6.321   2.190   2.223 -2.5972  2.2996  0.0962
12256SOL     OW37466   4.304   5.022   5.243 -0.2333  0.0877  0.1526
12256SOL    HW137467   4.314   4.968   5.165  0.4840  1.2703 -0.6032
12256SOL    HW237468   4.306   4.959   5.316  1.6593 -0.8321 -0.6289
12257SOL     OW37469   2.731   2.415   7.877 -0.1740 -0.2168  0.2792
12257SOL    HW137470   2.646   2.372   7.888  1.3804 -3.0918  2.1339
12257SOL    HW237471   2.792   2.344   7.858  1.7741  1.8483 -1.9083
12258SOL     OW37472   0.673   4.328   7.870  0.5643  0.1406  0.4277
12258SOL    HW137473   0.636   4.243   7.894  0.7381  0.3724  1.6199
12258SOL    HW237474   0.602   4.391   7.886  0.7629  0.3333  0.5656
12259SOL     OW37475   4.596   1.060   5.864 -0.1672 -0.3021 -0.4696
12259SOL    HW137476   4.546   1.093   5.938  0.3352 -0.9575  0.1693
12259SOL    HW237477   4.664   1.126   5.849  0.4308 -0.7132  0.3866
12260SOL     OW37478   3.112   3.053   2.647  0.2456 -0.7781 -0.2905
12260SOL    HW137479   3.111   2.981   2.584 -1.2208  0.5793 -1.9078
12260SOL    HW237480   3.024   3.053   2.685 -0.5019  1.3157 -1.8097
12261SOL     OW37481   5.749   2.716   4.455  0.1398  0.1324 -0.4871
12261SOL    HW137482   5.783   2.636   4.416 -0.8333 -0.1408 -0.8104
12261SOL    HW237483   5.733   2.774   4.380 -0.7188  0.0060 -0.4105
12262SOL     OW37484   1.097   3.142   5.306  0.3529 -0.5592 -0.1191
12262SOL    HW137485   1.043   3.100   5.239 -0.9063  0.4412  0.2214
12262SOL    HW237486   1.072   3.099   5.388  0.1511 -0.1748  0.0240
12263SOL     OW37487   5.331   0.486   4.665  0.2331  0.3575  0.2697
12263SOL    HW137488   5.392   0.489   4.739  1.8959 -1.0712 -0.9375
12263SOL    HW237489   5.386   0.504   4.589 -0.9845 -0.3147 -0.8012
12264SOL     OW37490   1.542   2.419   6.137  0.5390 -0.4384 -0.0032
12264SOL    HW137491   1.633   2.392   6.130  0.5525 -0.3250 -0.2612
12264SOL    HW237492   1.503   2.355   6.197  1.0739  0.2267  1.0872
12265SOL     OW37493   0.459   3.411   6.460  0.1514  0.5164 -0.0303
12265SOL    HW137494   0.523   3.433   6.392  0.7577 -1.6778 -0.2267
12265SOL    HW237495   0.440   3.495   6.503  3.6941  1.1759  0.5251
12266SOL     OW37496   1.115   1.723   5.764 -0.2461  0.0791  0.2323
12266SOL    HW137497   1.171   1.733   5.840  0.3377  0.9270 -0.2818
12266SOL    HW237498   1.088   1.631   5.765  1.6231 -0.5067  0.1713
12267SOL     OW37499   3.307   2.190   0.619  0.1076 -0.7109 -0.2469
12267SOL    HW137500   3.313   2.096   0.601 -0.8389 -0.6102 -1.1796
12267SOL    HW237501   3.375   2.206   0.684 -0.0799 -2.1478  0.3456
12268SOL     OW37502   1.720   4.201   1.446 -0.0844  0.9291  0.3589
12268SOL    HW137503   1.764   4.222   1.528  0.2878 -0.9729  0.6786
12268SOL    HW237504   1.791   4.196   1.382 -0.0391 -0.2335  0.4832
12269SOL     OW37505   3.530   3.271   2.180  0.0967  0.7611 -0.4084
12269SOL    HW137506   3.560   3.361   2.171  0.3121  0.6698 -0.5954
12269SOL    HW237507   3.435   3.278   2.190  0.1829  1.0534  0.2465
12270SOL     OW37508   2.250   3.574   3.059  0.0857  0.1418 -0.1132
12270SOL    HW137509   2.179   3.613   3.008 -0.8709 -0.5639  0.6423
12270SOL    HW237510   2.255   3.484   3.027  0.1566 -0.0108  0.3212
12271SOL     OW37511   6.845   2.915   3.851  0.0855 -0.0422 -0.2104
12271SOL    HW137512   6.908   2.986   3.842  1.3422 -1.0488  0.2839
12271SOL    HW237513   6.898   2.839   3.877 -1.2251 -1.1253 -0.5755
12272SOL     OW37514   0.775   7.901   2.879 -0.2747  0.0029 -0.3629
12272SOL    HW137515   0.863   7.895   2.843 -0.5157  1.8372 -1.3928
12272SOL    HW237516   0.786   7.950   2.961 -0.4883  2.0679 -1.4806
12273SOL     OW37517   0.648   2.917   0.631  0.0061  0.0383  0.5938
12273SOL    HW137518   0.710   2.872   0.573 -0.4802 -0.3599  0.3625
12273SOL    HW237519   0.692   2.920   0.716  0.7204  0.6059  0.2158
12274SOL     OW37520   4.664   2.499   3.617 -0.0094 -0.1212  0.1998
12274SOL    HW137521   4.615   2.532   3.541 -0.6032 -2.0121 -0.3017
12274SOL    HW237522   4.737   2.560   3.626 -0.0413  0.2967 -1.7743
12275SOL     OW37523   7.754   1.781   2.637 -0.4814 -0.3348 -0.3553
12275SOL    HW137524   7.765   1.847   2.568 -1.5631  1.1939  0.8537
12275SOL    HW237525   7.688   1.721   2.602 -0.4003 -0.0682 -0.9864
12276SOL     OW37526   5.958   1.949   0.514 -0.0771  0.5421  0.1018
12276SOL    HW137527   5.954   1.898   0.433  0.8483  1.4675 -0.5363
12276SOL    HW237528   5.878   1.924   0.561  0.9587 -2.5977  0.4907
12277SOL     OW37529   1.814   3.376   5.660 -0.4038 -0.1622 -0.0938
12277SOL    HW137530   1.755   3.452   5.660 -0.9898 -0.5995  0.7249
12277SOL    HW237531   1.832   3.360   5.753  0.0857 -0.7559 -0.2820
12278SOL     OW37532   3.163   5.242   2.982 -0.3551  0.2825 -0.6651
12278SOL    HW137533   3.162   5.332   2.951 -0.9019  0.8566  0.9078
12278SOL    HW237534   3.254   5.225   3.006 -0.3833  0.6797 -0.2728
12279SOL     OW37535   4.311   0.167   3.756 -0.1993  0.1829 -0.1463
12279SOL    HW137536   4.403   0.186   3.735  0.5356 -0.1640  2.4218
12279SOL    HW237537   4.315   0.097   3.820 -2.1086  1.7177  1.7918
12280SOL     OW37538   3.287   4.498   7.468 -0.3918 -0.1129 -0.1910
12280SOL    HW137539   3.318   4.539   7.549  2.1859 -0.5393 -0.8475
12280SOL    HW237540   3.342   4.537   7.400 -0.7692 -1.6041 -1.3833
12281SOL     OW37541   0.123   5.048   0.793  0.2798 -0.3205 -0.5631
12281SOL    HW137542   0.147   5.106   0.721 -1.2086  3.8341  1.9325
12281SOL    HW237543   0.203   5.035   0.843  0.4789  0.3100 -0.7159
12282SOL     OW37544   2.293   7.917   1.645 -0.5539  0.2207  0.2428
12282SOL    HW137545   2.219   7.933   1.703 -0.6295  0.1782  0.1584
12282SOL    HW237546   2.266   7.953   1.561 -0.6948 -0.2792  0.0708
12283SOL     OW37547   4.554   0.210   1.848 -0.4005 -0.0147  0.7512
12283SOL    HW137548   4.469   0.168   1.859 -0.8927  0.4081 -1.1602
12283SOL    HW237549   4.543   0.297   1.886 -1.6194  0.9089 -1.5050
12284SOL     OW37550   6.509   7.729   1.359  0.2961 -0.1698 -0.4718
12284SOL    HW137551   6.493   7.635   1.365 -0.7597 -0.0343 -0.9382
12284SOL    HW237552   6.476   7.765   1.442 -0.0311 -0.1144 -0.6271
12285SOL     OW37553   6.159   3.284   3.668  0.2929  0.2529 -0.4551
12285SOL    HW137554   6.151   3.355   3.731 -0.2798 -0.4779  0.3197
12285SOL    HW237555   6.150   3.327   3.583  1.5580  1.3153 -0.0900
12286SOL     OW37556   2.396   6.722   1.127 -0.1752 -0.2664  0.2610
12286SOL    HW137557   2.456   6.648   1.121 -1.5691 -1.5155  1.0908
12286SOL    HW237558   2.319   6.694   1.078 -0.8609  0.4969  0.8803
12287SOL     OW37559   3.863   0.860   6.662  0.1950  0.1203 -0.1377
12287SOL    HW137560   3.808   0.842   6.738  0.5440  2.6360  0.8235
12287SOL    HW237561   3.842   0.951   6.639  1.8136  0.1756 -1.5788
12288SOL     OW37562   7.011   7.743   4.232  0.8032  0.2072 -0.0770
12288SOL    HW137563   7.048   7.654   4.233 -0.1694 -0.2205 -0.6351
12288SOL    HW237564   7.074   7.794   4.181  0.6008 -0.5269 -1.1015
12289SOL     OW37565   3.650   3.087   3.863 -0.1250  0.2064 -0.4619
12289SOL    HW137566   3.581   3.039   3.908  0.6788 -0.6373 -0.1008
12289SOL    HW237567   3.603   3.146   3.804 -1.1971  1.0521  1.1590
12290SOL     OW37568   5.258   4.358   5.679  0.2078 -0.7534 -0.6598
12290SOL    HW137569   5.175   4.375   5.632  0.7606  0.1247 -1.3623
12290SOL    HW237570   5.231   4.330   5.766 -0.8567  1.5058 -0.1923
12291SOL     OW37571   4.703   1.051   5.619  0.5424  0.8113 -0.3665
12291SOL    HW137572   4.627   1.057   5.560  1.0044 -1.0163 -1.2410
12291SOL    HW237573   4.664   1.044   5.706 -0.3337 -0.1562 -0.8057
12292SOL     OW37574   3.176   2.276   2.493  0.0975  0.4884 -0.2264
12292SOL    HW137575   3.182   2.209   2.425  0.2924 -0.5147  0.7410
12292SOL    HW237576   3.083   2.300   2.495  0.0804  0.4743 -0.7860
12293SOL     OW37577   3.504   5.356   1.016 -0.4057 -0.2794 -0.0525
12293SOL    HW137578   3.551   5.376   0.935 -0.6058 -0.2631 -0.1656
12293SOL    HW237579   3.436   5.294   0.990  0.3010 -1.2367  0.3179
12294SOL     OW37580   7.832   6.471   3.793  0.0105 -0.0587 -0.0852
12294SOL    HW137581   7.909   6.417   3.809 -0.6533 -0.4170  2.4293
12294SOL    HW237582   7.865   6.561   3.789  1.0160 -0.4671 -3.4619
12295SOL     OW37583   1.810   0.707   5.264 -0.3029 -0.3019  0.9686
12295SOL    HW137584   1.715   0.714   5.257 -0.3005 -1.3495 -0.7353
12295SOL    HW237585   1.825   0.660   5.345 -1.2090  0.1969  1.4407
12296SOL     OW37586   2.607   6.775   6.653  0.0312 -0.1820  0.1515
12296SOL    HW137587   2.635   6.709   6.591 -2.0135  0.0795 -1.1026
12296SOL    HW237588   2.664   6.850   6.635  0.9669 -0.8685  0.1822
12297SOL     OW37589   1.977   3.507   4.576  0.0985 -0.1373 -0.6861
12297SOL    HW137590   2.012   3.586   4.616 -0.7888  0.6031 -1.3373
12297SOL    HW237591   2.028   3.497   4.495  0.4654 -0.4546 -0.4211
12298SOL     OW37592   5.476   4.777   1.423  0.2162  0.5180  0.3164
12298SOL    HW137593   5.427   4.748   1.500  0.4290  0.3296  0.3807
12298SOL    HW237594   5.568   4.768   1.447  0.3210 -1.2635 -0.5730
12299SOL     OW37595   3.975   1.487   1.361  0.9316 -0.1897  0.4164
12299SOL    HW137596   3.962   1.530   1.445 -0.2045  1.0420 -0.3644
12299SOL    HW237597   4.070   1.493   1.346  1.0177  0.4576  1.1438
12300SOL     OW37598   7.857   6.656   1.335  0.1058  0.3097 -0.0144
12300SOL    HW137599   7.904   6.647   1.418  1.5959 -3.2181 -1.0556
12300SOL    HW237600   7.911   6.715   1.283  1.0065 -0.1321  0.3906
12301SOL     OW37601   1.727   7.194   6.341 -0.0792 -0.8007 -0.3904
12301SOL    HW137602   1.811   7.148   6.333 -0.0741 -0.5753 -1.8677
12301SOL    HW237603   1.676   7.163   6.267 -1.2197 -0.7262  0.3434
12302SOL     OW37604   0.858   7.328   3.238 -0.4241  0.7658  0.4059
12302SOL    HW137605   0.811   7.290   3.163  0.0850 -0.2942  0.6086
12302SOL    HW237606   0.950   7.317   3.218 -0.2691  1.3196  0.7763
12303SOL     OW37607   0.307   2.501   0.979  0.3656 -0.3241  0.2486
12303SOL    HW137608   0.247   2.551   0.924 -0.0064 -2.0234 -0.9620
12303SOL    HW237609   0.266   2.501   1.065 -0.4759  0.0134 -0.1404
12304SOL     OW37610   6.164   1.625   0.002  0.8454 -0.7192  0.1136
12304SOL    HW137611   6.184   1.691   0.069 -1.4318  1.0153 -0.7831
12304SOL    HW237612   6.190   1.666  -0.080 -2.0554 -0.0983 -0.6316
12305SOL     OW37613   0.033   0.630   2.019  0.3953 -0.4432  0.0283
12305SOL    HW137614   0.053   0.672   2.103  2.2846  1.2852 -1.1970
12305SOL    HW237615   0.094   0.670   1.957 -2.0230 -0.4182 -2.5292
12306SOL     OW37616   3.091   4.295   2.469 -0.4028 -0.1313  0.1044
12306SOL    HW137617   3.178   4.258   2.453 -0.0517  0.8501 -0.3316
12306SOL    HW237618   3.075   4.280   2.562  1.2104  1.6682  0.7294
12307SOL     OW37619   3.721   7.814   5.778 -0.1866 -0.1207 -0.3124
12307SOL    HW137620   3.637   7.787   5.740 -0.3859  2.0659 -1.5777
12307SOL    HW237621   3.727   7.763   5.859 -2.0393 -1.3972 -0.8971
12308SOL     OW37622   6.594   2.771   3.867 -0.2998 -0.7458 -0.2025
12308SOL    HW137623   6.522   2.818   3.826 -0.4603 -0.3313  0.5569
12308SOL    HW237624   6.664   2.836   3.876 -0.1962 -0.8859  0.0084
12309SOL     OW37625   6.631   0.060   2.898 -0.0067 -0.1624  0.8220
12309SOL    HW137626   6.707   0.006   2.873 -0.3661 -0.6657  0.8075
12309SOL    HW237627   6.667   0.124   2.959  1.0470  1.5650 -1.4924
12310SOL     OW37628   7.139   7.612   5.748 -0.9733  0.1175  0.6989
12310SOL    HW137629   7.200   7.616   5.673  1.5183 -2.1931  2.3984
12310SOL    HW237630   7.053   7.628   5.709  0.1966 -0.7698 -2.6582
12311SOL     OW37631   6.290   0.567   5.227  0.1361 -0.5610  0.3745
12311SOL    HW137632   6.225   0.572   5.297 -1.6319  1.4920 -1.2982
12311SOL    HW237633   6.254   0.504   5.165  1.0842 -1.4174  0.6632
12312SOL     OW37634   5.712   2.967   2.197  0.4090  0.4669 -0.1939
12312SOL    HW137635   5.681   2.877   2.184 -0.6663  0.5679  1.3909
12312SOL    HW237636   5.648   3.021   2.150  0.2381  0.4868  0.0642
12313SOL     OW37637   5.164   2.516   3.037 -0.2057 -0.0490 -0.6076
12313SOL    HW137638   5.202   2.603   3.051 -0.5144  0.0963 -0.6592
12313SOL    HW237639   5.078   2.534   2.999  0.6235 -0.3950 -2.8446
12314SOL     OW37640   1.436   6.564   5.830 -0.2706  0.3049  0.3172
12314SOL    HW137641   1.402   6.583   5.743 -1.7820  1.1277  1.0486
12314SOL    HW237642   1.359   6.557   5.886  0.6848  0.9022  1.8019
12315SOL     OW37643   0.511   2.648   0.536 -0.4178  0.1209  0.2854
12315SOL    HW137644   0.444   2.678   0.474 -0.3096  0.3643  0.2852
12315SOL    HW237645   0.478   2.676   0.622  0.1268  1.0753  0.2005
12316SOL     OW37646   0.559   1.462   6.717 -0.1374  0.4328  0.4696
12316SOL    HW137647   0.506   1.542   6.711 -1.6092 -0.4376  1.3242
12316SOL    HW237648   0.496   1.391   6.710  1.1275 -0.6742 -0.0248
12317SOL     OW37649   1.422   4.353   5.645  0.2067 -0.5600  0.0578
12317SOL    HW137650   1.503   4.393   5.676  0.4050  0.0383 -1.1441
12317SOL    HW237651   1.437   4.338   5.551 -1.4503  0.6127 -0.4528
12318SOL     OW37652   1.145   3.762   1.937  0.1411 -0.3319  0.0304
12318SOL    HW137653   1.062   3.790   1.975  0.4029 -0.3375  0.6272
12318SOL    HW237654   1.188   3.843   1.910  1.1466 -0.0231  2.2668
12319SOL     OW37655   4.083   7.239   0.653  0.4868  0.1082 -0.6687
12319SOL    HW137656   4.124   7.284   0.727  0.5200 -2.5520  1.0617
12319SOL    HW237657   3.990   7.242   0.672  0.4092  0.2723 -1.0608
12320SOL     OW37658   0.090   3.390   5.272 -0.1936  0.0963 -0.3139
12320SOL    HW137659   0.069   3.297   5.279 -1.1009  0.3939  1.8205
12320SOL    HW237660   0.014   3.428   5.228 -1.0210  0.1478  1.0881
12321SOL     OW37661   2.540   1.763   5.977 -0.6771  0.5478  0.1512
12321SOL    HW137662   2.459   1.798   6.013 -1.4638 -0.2225 -0.7967
12321SOL    HW237663   2.609   1.813   6.020 -1.5803  0.2469  2.0565
12322SOL     OW37664   7.664   0.931   7.937  0.5496 -0.2155  0.1072
12322SOL    HW137665   7.658   0.849   7.889  1.1892  0.6506 -1.5599
12322SOL    HW237666   7.579   0.974   7.922  0.7797  0.0921 -0.3447
12323SOL     OW37667   5.890   6.097   1.891  0.4053  0.0492  0.1411
12323SOL    HW137668   5.909   6.089   1.798  1.3320  1.6601  0.1471
12323SOL    HW237669   5.975   6.086   1.934  0.4098  1.6419  0.5985
12324SOL     OW37670   5.363   3.724   3.586  0.1371  0.5475  0.4438
12324SOL    HW137671   5.432   3.784   3.615  2.2681 -1.1468 -0.8252
12324SOL    HW237672   5.362   3.655   3.652  0.2181  0.1723  0.0554
12325SOL     OW37673   7.861   4.091   4.782 -0.3323  0.8197  0.0673
12325SOL    HW137674   7.944   4.118   4.823  0.1603  0.4588 -0.6631
12325SOL    HW237675   7.795   4.144   4.826  0.1251  0.2470  1.5294
12326SOL     OW37676   4.953   1.043   4.612  0.3324  0.1421  0.0779
12326SOL    HW137677   4.895   1.050   4.535 -1.2643 -0.0033  1.2172
12326SOL    HW237678   4.969   1.134   4.637  0.4248  0.1788 -0.1085
12327SOL     OW37679   7.291   3.476   6.698  0.7715 -0.5892  0.1746
12327SOL    HW137680   7.355   3.543   6.720  0.6279 -0.2025 -0.5331
12327SOL    HW237681   7.214   3.526   6.668  0.4908 -1.0615  0.1028
12328SOL     OW37682   5.526   5.250   2.685 -0.0205  0.1533 -0.4287
12328SOL    HW137683   5.620   5.267   2.693 -0.0799  0.0182  0.8235
12328SOL    HW237684   5.501   5.291   2.603  0.9669  1.0051 -0.3276
12329SOL     OW37685   3.399   4.623   5.666 -0.2733  0.0614 -0.0286
12329SOL    HW137686   3.321   4.646   5.718 -0.7142 -0.3932 -0.4663
12329SOL    HW237687   3.473   4.643   5.723 -0.7068  0.6763  0.3293
12330SOL     OW37688   6.954   4.235   5.899  0.0127 -0.0952 -0.1634
12330SOL    HW137689   7.047   4.226   5.917 -0.1494 -1.8710 -0.0393
12330SOL    HW237690   6.918   4.272   5.980  0.3319 -1.3344  0.5781
12331SOL     OW37691   4.052   2.445   1.960  0.4215  0.0485 -0.1309
12331SOL    HW137692   4.055   2.410   2.049  0.1490 -0.1906 -0.2155
12331SOL    HW237693   3.962   2.475   1.948  1.1116  2.6698  0.6477
12332SOL     OW37694   3.435   3.793   3.914 -0.0310 -0.0707  0.0997
12332SOL    HW137695   3.379   3.737   3.860 -0.4857 -1.2294  1.7175
12332SOL    HW237696   3.376   3.832   3.978  0.8004 -0.2740  1.0077
12333SOL     OW37697   7.228   4.585   0.699  0.4440  0.3581 -0.3375
12333SOL    HW137698   7.290   4.589   0.626  2.4507 -0.0583  1.2503
12333SOL    HW237699   7.181   4.503   0.686  2.2224 -0.7447 -0.1107
12334SOL     OW37700   2.127   2.536   3.702  0.2038  0.6613  0.2091
12334SOL    HW137701   2.219   2.555   3.721  0.0418  2.2515 -0.4561
12334SOL    HW237702   2.128   2.499   3.613  0.3165 -0.6604  0.7389
12335SOL     OW37703   0.492   7.629   1.342  0.8800 -0.1501 -0.5540
12335SOL    HW137704   0.534   7.712   1.316  0.9267 -0.4770 -1.5521
12335SOL    HW237705   0.409   7.628   1.295  1.4566 -1.2688 -1.6044
12336SOL     OW37706   5.082   2.616   1.483 -0.4201 -0.2376  0.2479
12336SOL    HW137707   5.129   2.537   1.456 -2.2920 -0.9171 -1.3140
12336SOL    HW237708   5.004   2.618   1.427 -1.8497  1.2493  2.1239
12337SOL     OW37709   2.426   2.065   5.207  0.2041 -0.2262 -0.1956
12337SOL    HW137710   2.377   2.104   5.134 -0.9797 -0.4046  0.4771
12337SOL    HW237711   2.517   2.084   5.187 -0.0899 -0.3187 -1.7570
12338SOL     OW37712   4.946   3.403   5.821 -0.3351  0.3428  0.6893
12338SOL    HW137713   4.871   3.354   5.854 -0.4345 -1.7370 -2.2625
12338SOL    HW237714   4.913   3.492   5.809 -2.0383 -0.2910  0.4157
12339SOL     OW37715   0.316   0.731   6.255 -0.1126 -0.0001  0.3398
12339SOL    HW137716   0.328   0.808   6.198 -0.1808  0.4915  0.9789
12339SOL    HW237717   0.315   0.657   6.194  1.5948  0.3361 -0.1551
12340SOL     OW37718   2.697   3.817   3.993  0.0816 -0.0472  0.1473
12340SOL    HW137719   2.739   3.861   3.920  0.5293  1.3547  1.2142
12340SOL    HW237720   2.678   3.729   3.961  1.1855  0.2225 -1.3027
12341SOL     OW37721   1.152   1.617   5.325 -1.0074 -0.1361  0.5564
12341SOL    HW137722   1.200   1.624   5.242 -2.5191 -0.1555 -0.3494
12341SOL    HW237723   1.181   1.693   5.376 -2.1972  1.5588 -1.1633
12342SOL     OW37724   5.113   0.925   7.436 -0.3603 -0.3210  0.3035
12342SOL    HW137725   5.193   0.958   7.477  0.0100 -0.1050 -0.5664
12342SOL    HW237726   5.042   0.970   7.482  0.0902  0.7685 -0.0423
12343SOL     OW37727   2.497   7.050   0.210  0.0588 -0.0913  0.6888
12343SOL    HW137728   2.429   7.001   0.164 -0.0106 -1.4204  2.1204
12343SOL    HW237729   2.462   7.062   0.299  1.3542 -0.0936  1.2268
12344SOL     OW37730   2.079   2.904   4.138 -0.2671  0.0785 -0.0678
12344SOL    HW137731   2.093   2.858   4.220  1.6698 -3.4845 -2.1367
12344SOL    HW237732   1.985   2.899   4.123 -0.5422  0.0537  1.4876
12345SOL     OW37733   5.300   5.407   2.073 -0.4855  0.4053  0.3916
12345SOL    HW137734   5.301   5.336   2.137  0.0205 -1.7191 -1.8151
12345SOL    HW237735   5.377   5.460   2.095 -0.3789 -0.2121  1.5858
12346SOL     OW37736   4.471   5.445   5.878 -0.1596  0.3600 -0.9469
12346SOL    HW137737   4.472   5.397   5.795  0.1915  0.3169 -0.9186
12346SOL    HW237738   4.532   5.397   5.934 -1.0739 -0.1431 -0.3581
12347SOL     OW37739   4.576   6.715   4.989 -0.1623  0.5784 -0.1372
12347SOL    HW137740   4.594   6.795   5.039 -1.3609  1.3622 -0.8972
12347SOL    HW237741   4.599   6.644   5.049  0.6523  1.4818  0.6647
12348SOL     OW37742   2.354   6.502   4.988  0.2338  0.3737 -0.0453
12348SOL    HW137743   2.336   6.410   5.010  1.2630  0.3210  0.6438
12348SOL    HW237744   2.334   6.550   5.068 -0.0386  0.7320 -0.3221
12349SOL     OW37745   2.746   1.010   2.534  0.6109  0.3656 -0.1278
12349SOL    HW137746   2.762   0.952   2.608 -0.0308  0.5362  0.1474
12349SOL    HW237747   2.819   0.993   2.474  1.1894  0.2921  0.5785
12350SOL     OW37748   4.827   2.825   7.010  0.1735 -0.0460 -0.3440
12350SOL    HW137749   4.874   2.758   6.961 -0.4648 -0.9231  0.2242
12350SOL    HW237750   4.756   2.778   7.054 -0.0145  0.9281  0.4267
12351SOL     OW37751   5.856   2.512   6.124 -0.9422 -0.2736  0.0899
12351SOL    HW137752   5.940   2.537   6.161 -1.4347 -2.4084  2.9135
12351SOL    HW237753   5.802   2.592   6.130  0.3498  0.6454 -0.2248
12352SOL     OW37754   4.830   5.494   6.273 -0.6195 -0.5199  0.5865
12352SOL    HW137755   4.908   5.521   6.225 -1.3779  0.2295 -0.2600
12352SOL    HW237756   4.852   5.409   6.310  0.9413  0.1177  1.1952
12353SOL     OW37757   3.496   5.030   6.587  0.0500  0.0342  0.7346
12353SOL    HW137758   3.589   5.009   6.593  0.1757  0.1760 -0.4815
12353SOL    HW237759   3.468   4.991   6.504 -0.8972  0.2995  0.9182
12354SOL     OW37760   6.254   3.898   0.831  0.1005 -0.7217 -0.5930
12354SOL    HW137761   6.250   3.989   0.802  0.9663 -0.1191  1.0731
12354SOL    HW237762   6.163   3.877   0.854  0.1484  0.3474  0.7359
12355SOL     OW37763   4.098   1.688   6.160 -0.3684  0.0038 -0.3632
12355SOL    HW137764   4.036   1.750   6.121 -1.5130 -0.1469  1.1516
12355SOL    HW237765   4.120   1.628   6.089 -0.1493  1.4257 -1.5408
12356SOL     OW37766   4.555   6.891   6.890 -0.5406  0.0994  0.0797
12356SOL    HW137767   4.632   6.913   6.943  0.6141 -2.4800 -0.3572
12356SOL    HW237768   4.488   6.868   6.954  0.1195 -0.7664  0.4869
12357SOL     OW37769   5.033   4.695   5.619  0.0811 -0.6278  0.0929
12357SOL    HW137770   4.952   4.745   5.611  0.7454  0.9702  2.4552
12357SOL    HW237771   5.092   4.735   5.556 -0.0560  0.1884  0.4716
12358SOL     OW37772   1.651   5.679   1.936  0.0215 -0.0298 -0.1935
12358SOL    HW137773   1.619   5.762   1.900 -1.4279 -0.5387 -0.1504
12358SOL    HW237774   1.744   5.695   1.954 -0.0508  1.3389 -0.8782
12359SOL     OW37775   2.150   7.717   0.600  0.1812  0.2383  0.3712
12359SOL    HW137776   2.098   7.729   0.521  1.9260  1.2833 -0.7047
12359SOL    HW237777   2.150   7.804   0.642 -0.4834 -0.2310  1.3792
12360SOL     OW37778   3.625   5.049   3.223  0.4667  0.1071 -0.0552
12360SOL    HW137779   3.632   4.998   3.143  0.5715  0.7500 -0.4675
12360SOL    HW237780   3.714   5.082   3.238  0.2245  0.9227 -0.3187
12361SOL     OW37781   2.399   2.750   7.433 -0.0985  0.6099  0.0385
12361SOL    HW137782   2.392   2.801   7.352 -0.6848 -0.3039 -0.5028
12361SOL    HW237783   2.403   2.659   7.404  0.2037  0.2961  1.0211
12362SOL     OW37784   6.766   5.176   4.569  0.5018 -0.4274 -0.1411
12362SOL    HW137785   6.753   5.232   4.645  1.8147 -0.4572  0.1379
12362SOL    HW237786   6.843   5.213   4.525  0.7325 -1.3584 -0.5607
12363SOL     OW37787   4.023   3.951   5.922 -0.1533 -0.1369 -0.2380
12363SOL    HW137788   3.957   3.890   5.955  1.6762 -3.3585 -2.0470
12363SOL    HW237789   4.104   3.924   5.964  0.8266  0.6383 -1.5501
12364SOL     OW37790   3.288   1.710   3.273  0.6929  0.7859 -0.1459
12364SOL    HW137791   3.223   1.774   3.247  1.1569  0.2918 -2.8158
12364SOL    HW237792   3.349   1.758   3.329 -1.8643  1.2364  2.5171
12365SOL     OW37793   6.245   6.108   0.448  0.1812 -0.2151 -0.2234
12365SOL    HW137794   6.210   6.023   0.472 -0.7242  0.2492  0.1417
12365SOL    HW237795   6.330   6.089   0.409  0.6319 -1.1802  1.1412
12366SOL     OW37796   7.056   0.514   0.674  0.1777  0.4009  0.1287
12366SOL    HW137797   7.044   0.445   0.739 -2.4975  0.1773 -0.4708
12366SOL    HW237798   7.056   0.595   0.725  0.0474  0.1192  0.5871
12367SOL     OW37799   5.557   5.946   3.796  0.0034  0.2144  0.6456
12367SOL    HW137800   5.477   5.915   3.838 -0.3270 -1.0040 -0.7894
12367SOL    HW237801   5.527   6.011   3.732  0.3948  1.2670  1.4929
12368SOL     OW37802   3.471   1.781   5.114 -0.1026  0.7920 -0.2170
12368SOL    HW137803   3.394   1.770   5.059  0.2394 -0.3827 -0.4882
12368SOL    HW237804   3.498   1.872   5.100 -0.8840  0.9411 -0.8273
12369SOL     OW37805   7.074   7.309   2.919 -0.1520  0.3867  0.2921
12369SOL    HW137806   7.109   7.291   3.007 -0.4016  1.6960  0.6802
12369SOL    HW237807   7.148   7.293   2.860  0.2583  0.2966  0.8188
12370SOL     OW37808   7.139   1.946   6.067  0.0207  0.0584  0.3447
12370SOL    HW137809   7.074   2.010   6.098  1.0957  1.1424  0.4251
12370SOL    HW237810   7.115   1.929   5.976  0.8889  2.1223 -0.3051
12371SOL     OW37811   5.448   4.275   4.051 -0.0601 -0.4707 -0.2894
12371SOL    HW137812   5.403   4.196   4.079 -1.1558  0.7099  1.4985
12371SOL    HW237813   5.418   4.343   4.112 -0.1970  1.6444 -2.5252
12372SOL     OW37814   2.801   2.656   2.888  0.0603  0.7614 -0.2629
12372SOL    HW137815   2.758   2.677   2.805 -0.0025 -0.4258 -0.5381
12372SOL    HW237816   2.840   2.570   2.875  1.8180  1.4393  0.2708
12373SOL     OW37817   7.423   2.352   1.280  0.9249 -0.6508  0.7104
12373SOL    HW137818   7.477   2.430   1.294 -1.2699  1.2889 -0.7873
12373SOL    HW237819   7.426   2.305   1.363  1.4612  1.6383  2.0743
12374SOL     OW37820   2.233   6.277   0.522 -0.3804  0.4396 -0.1224
12374SOL    HW137821   2.251   6.364   0.489 -0.1655  0.3240 -0.3098
12374SOL    HW237822   2.190   6.291   0.606 -0.3119  0.7238 -0.1364
12375SOL     OW37823   4.429   3.662   7.009 -0.2324 -0.2533 -0.4585
12375SOL    HW137824   4.479   3.619   6.939 -1.5920 -1.8101 -0.5144
12375SOL    HW237825   4.427   3.598   7.080 -0.5681  0.5318  0.2530
12376SOL     OW37826   7.604   5.773   7.235 -0.3339 -0.1440 -0.0721
12376SOL    HW137827   7.622   5.734   7.320 -0.0245 -0.8925 -0.4692
12376SOL    HW237828   7.511   5.795   7.238 -0.5836 -1.1803  0.0642
12377SOL     OW37829   6.769   4.643   6.046 -0.0201  0.1548 -0.0258
12377SOL    HW137830   6.761   4.599   5.961 -1.5235 -0.7954  0.5613
12377SOL    HW237831   6.740   4.733   6.029  0.8671  0.3153 -0.7576
12378SOL     OW37832   3.496   1.303   1.560  0.3650 -0.1260 -0.1161
12378SOL    HW137833   3.446   1.357   1.500 -0.8278 -0.8927  0.1539
12378SOL    HW237834   3.587   1.332   1.549 -0.1117  1.2100 -0.6994
12379SOL     OW37835   1.921   5.701   5.780  0.0359 -0.0588 -0.8319
12379SOL    HW137836   1.889   5.774   5.834  0.1489 -1.3115  0.9978
12379SOL    HW237837   2.010   5.686   5.810  0.4823 -0.1466 -2.1125
12380SOL     OW37838   5.740   5.790   1.820 -0.4691 -0.3217  0.2082
12380SOL    HW137839   5.679   5.862   1.837  0.7602  1.0141 -0.7714
12380SOL    HW237840   5.755   5.794   1.726  0.9384 -0.7487  0.3917
12381SOL     OW37841   3.888   0.912   1.558 -0.0869 -0.7112 -0.4668
12381SOL    HW137842   3.875   0.836   1.614  0.3112 -1.1495 -0.9576
12381SOL    HW237843   3.949   0.967   1.606 -0.2206 -0.7924 -0.2001
12382SOL     OW37844   7.101   1.959   7.809  0.4795  0.0552  0.1043
12382SOL    HW137845   7.084   1.868   7.786  3.4929 -0.5589 -0.0574
12382SOL    HW237846   7.120   2.002   7.726  1.4810  0.2257  0.4089
12383SOL     OW37847   6.218   1.329   1.468 -0.2348 -0.8158 -0.1748
12383SOL    HW137848   6.314   1.334   1.462 -0.2467 -1.5897 -1.2164
12383SOL    HW237849   6.195   1.393   1.536  0.8645  0.6917 -1.1624
12384SOL     OW37850   4.156   1.500   7.740  0.0802 -0.3982  0.3563
12384SOL    HW137851   4.154   1.457   7.826  2.1075 -2.1051 -0.3791
12384SOL    HW237852   4.192   1.587   7.758  1.8425 -1.2316  1.1179
12385SOL     OW37853   2.245   3.996   6.236 -0.1853 -0.3443 -0.0510
12385SOL    HW137854   2.208   4.076   6.198 -1.1595 -0.4532  0.6532
12385SOL    HW237855   2.329   4.024   6.273  0.4256 -0.0709 -1.5400
12386SOL     OW37856   1.039   5.758   3.187 -0.2399  0.0324 -0.7367
12386SOL    HW137857   1.121   5.794   3.153  0.8750 -0.9768  0.7842
12386SOL    HW237858   1.052   5.663   3.187 -0.9569 -0.0868  0.5841
12387SOL     OW37859   3.012   4.134   0.080 -0.2157  0.7466 -0.0191
12387SOL    HW137860   2.920   4.106   0.083  0.3205 -1.1520 -0.3594
12387SOL    HW237861   3.052   4.093   0.157  0.7862 -0.1921 -1.0037
12388SOL     OW37862   1.695   4.844   1.578 -0.2825 -0.0805  0.7021
12388SOL    HW137863   1.722   4.931   1.546  2.3060 -2.0411 -3.2656
12388SOL    HW237864   1.748   4.830   1.656 -0.1795  1.5955  0.9794
12389SOL     OW37865   2.510   0.942   7.868  0.4139 -0.4076 -0.2172
12389SOL    HW137866   2.551   0.910   7.948  1.4967 -1.2670 -1.0757
12389SOL    HW237867   2.416   0.940   7.886  0.5137 -2.6619  0.3232
12390SOL     OW37868   1.241   4.601   6.749  0.1662 -0.0045 -0.2743
12390SOL    HW137869   1.173   4.591   6.682  0.4161 -2.5383 -0.2461
12390SOL    HW237870   1.195   4.641   6.824 -0.4159  1.6316 -1.4326
12391SOL     OW37871   0.069   7.002   4.114  0.0358  0.1622  0.2692
12391SOL    HW137872   0.115   7.048   4.185  0.6300 -0.6344  0.4185
12391SOL    HW237873   0.016   6.936   4.158  1.9573 -1.7117 -0.0691
12392SOL     OW37874   1.985   3.635   2.872 -0.2740  0.0765 -0.5356
12392SOL    HW137875   1.890   3.651   2.877 -0.5174 -1.2850 -0.5323
12392SOL    HW237876   2.008   3.654   2.781 -0.3017  1.5941 -0.2541
12393SOL     OW37877   0.290   0.823   4.398  0.1350 -0.3587 -0.4218
12393SOL    HW137878   0.274   0.729   4.407 -1.4889 -0.0516  0.1185
12393SOL    HW237879   0.327   0.849   4.483  2.1971 -0.7697 -1.1279
12394SOL     OW37880   4.480   3.047   7.950 -0.1575  0.2624 -0.4198
12394SOL    HW137881   4.529   3.130   7.949 -0.2120  0.2901 -0.8012
12394SOL    HW237882   4.525   2.992   7.887 -0.0621 -0.0389 -0.0928
12395SOL     OW37883   1.747   2.407   3.495  0.3628  0.1223  0.3823
12395SOL    HW137884   1.805   2.336   3.521  0.0525  0.0117  0.7869
12395SOL    HW237885   1.771   2.426   3.405  0.6723 -0.2721  0.3785
12396SOL     OW37886   1.704   6.550   2.015  0.7232 -0.4777  0.0369
12396SOL    HW137887   1.713   6.550   1.920 -1.0374 -0.3827 -0.1657
12396SOL    HW237888   1.754   6.627   2.044  0.6877 -0.1000 -0.8852
12397SOL     OW37889   2.999   6.370   2.247  0.2086  0.0153  0.4330
12397SOL    HW137890   3.003   6.393   2.154 -1.3203  0.9132  0.5642
12397SOL    HW237891   3.072   6.417   2.286  0.5683  0.0215 -0.2198
12398SOL     OW37892   4.766   6.531   1.510  0.8148  0.2864 -0.3265
12398SOL    HW137893   4.836   6.496   1.565 -0.2473  0.3742  1.1115
12398SOL    HW237894   4.686   6.514   1.559 -0.1174  0.8602 -1.6039
12399SOL     OW37895   4.189   5.063   1.579 -0.1381  0.2088 -0.3435
12399SOL    HW137896   4.265   5.098   1.626  1.1689 -1.3967 -1.1567
12399SOL    HW237897   4.223   4.987   1.532 -2.3383 -0.7871 -0.4436
12400SOL     OW37898   7.261   0.472   3.175 -0.4415  0.4917  0.3221
12400SOL    HW137899   7.186   0.529   3.189 -1.9281 -1.5023  0.8434
12400SOL    HW237900   7.289   0.447   3.263 -0.4262 -0.3669  0.0797
12401SOL     OW37901   5.327   5.591   0.396  0.8195 -0.0343  0.3014
12401SOL    HW137902   5.238   5.587   0.432  0.4931 -0.0464 -0.4753
12401SOL    HW237903   5.383   5.604   0.472  0.1882 -0.4175  0.8500
12402SOL     OW37904   0.237   4.173   6.900  0.1559 -0.5743 -0.0299
12402SOL    HW137905   0.315   4.174   6.955  0.7324 -2.3080 -0.7432
12402SOL    HW237906   0.261   4.120   6.824 -2.0148 -2.1442  0.2629
12403SOL     OW37907   0.884   2.213   5.993 -0.1881 -0.4991  0.0422
12403SOL    HW137908   0.878   2.304   5.963 -0.2369 -0.2704  0.7294
12403SOL    HW237909   0.964   2.181   5.952  1.2816  0.6644  1.8224
12404SOL     OW37910   2.654   3.379   6.988 -0.3017 -0.1603 -0.4448
12404SOL    HW137911   2.700   3.308   7.033  0.5712  0.0015 -1.0584
12404SOL    HW237912   2.662   3.454   7.047 -1.4426 -0.6069  0.3221
12405SOL     OW37913   3.135   5.977   5.501  0.5855  0.0940  0.1455
12405SOL    HW137914   3.221   5.941   5.522  0.7461  0.2325 -0.2717
12405SOL    HW237915   3.118   5.949   5.412  0.8615  1.3235 -0.3140
12406SOL     OW37916   2.790   5.623   3.602  0.4342  0.2402  0.1351
12406SOL    HW137917   2.836   5.542   3.580  0.0332  0.0090  0.1616
12406SOL    HW237918   2.836   5.690   3.550  0.0264 -0.1739 -0.7830
12407SOL     OW37919   1.032   0.982   6.587  0.0435  0.1401 -0.6042
12407SOL    HW137920   1.047   1.000   6.495 -0.6711  0.4435 -0.6682
12407SOL    HW237921   0.951   0.931   6.589  0.1470 -0.0157 -0.1625
12408SOL     OW37922   6.421   6.863   0.973  0.0092  0.5126  0.4843
12408SOL    HW137923   6.472   6.788   0.944  2.0385  2.8128 -2.5419
12408SOL    HW237924   6.359   6.878   0.901 -0.4010  1.6554  1.0575
12409SOL     OW37925   7.671   7.866   6.210  0.3634 -0.1460 -0.7891
12409SOL    HW137926   7.585   7.827   6.195  0.1748 -0.5709  1.0461
12409SOL    HW237927   7.653   7.960   6.218 -0.0551 -0.2936  0.1889
12410SOL     OW37928   5.126   6.533   6.633 -0.1963  0.4360  0.2012
12410SOL    HW137929   5.089   6.621   6.643  0.9744  1.0296 -0.4658
12410SOL    HW237930   5.141   6.524   6.539  3.3466  1.1360  0.5530
12411SOL     OW37931   7.595   2.115   2.851 -0.1998 -0.0259 -0.1548
12411SOL    HW137932   7.606   2.026   2.818  0.2241 -0.2978  0.7006
12411SOL    HW237933   7.502   2.134   2.838 -0.0624 -0.1351 -1.4445
12412SOL     OW37934   1.819   5.147   1.545 -0.3052  0.3544 -0.5370
12412SOL    HW137935   1.893   5.165   1.487  1.0572 -0.8619  0.7148
12412SOL    HW237936   1.844   5.189   1.628 -0.5122 -0.9322  0.2008
12413SOL     OW37937   3.563   3.937   1.125  0.1615 -0.1143  0.0190
12413SOL    HW137938   3.620   4.014   1.124  2.0490 -1.4136 -2.2094
12413SOL    HW237939   3.589   3.889   1.204  1.0311  0.0974 -0.1344
12414SOL     OW37940   4.327   4.825   1.123  0.6518  0.4295 -0.0108
12414SOL    HW137941   4.409   4.818   1.075  1.3601 -0.2264  1.2377
12414SOL    HW237942   4.341   4.898   1.184  0.1169  0.6382 -0.1285
12415SOL     OW37943   2.013   7.710   5.720 -0.3917 -0.6171  0.4908
12415SOL    HW137944   1.944   7.674   5.664 -1.4629  0.8659  0.7879
12415SOL    HW237945   1.978   7.704   5.809  0.7200 -1.6906  0.8753
12416SOL     OW37946   1.590   2.856   6.889  0.0471  0.6167  0.5950
12416SOL    HW137947   1.634   2.776   6.860 -0.7431  0.0566  0.8733
12416SOL    HW237948   1.561   2.836   6.978 -0.8359  0.9247  0.3874
12417SOL     OW37949   7.649   3.742   4.528  0.1076 -0.1467  0.1254
12417SOL    HW137950   7.572   3.689   4.551 -0.4072  0.7499  0.5370
12417SOL    HW237951   7.633   3.769   4.438 -2.0398  3.1931  1.3041
12418SOL     OW37952   3.182   6.445   5.845 -0.1297  0.2319  0.0672
12418SOL    HW137953   3.131   6.383   5.896  1.0640  0.2100  1.2974
12418SOL    HW237954   3.265   6.401   5.828  1.2514  1.8418  2.0524
12419SOL     OW37955   5.842   5.041   4.051  0.2535 -0.5292 -0.1019
12419SOL    HW137956   5.873   4.951   4.059  0.7926 -0.3534 -0.1863
12419SOL    HW237957   5.781   5.040   3.977  1.6863 -0.4496 -1.3198
12420SOL     OW37958   4.328   6.349   3.773  0.0294 -0.0254  0.3403
12420SOL    HW137959   4.307   6.409   3.844 -0.4921 -0.4525  0.5582
12420SOL    HW237960   4.278   6.382   3.698 -0.0818 -0.0583  0.3997
12421SOL     OW37961   6.335   0.854   2.582 -0.3464  0.5815  0.2142
12421SOL    HW137962   6.418   0.820   2.615 -0.0642  0.6206 -0.4485
12421SOL    HW237963   6.345   0.854   2.487 -0.9468  0.9910  0.1461
12422SOL     OW37964   2.875   6.468   7.909 -0.3892  0.1557 -0.3341
12422SOL    HW137965   2.781   6.451   7.919  0.0018 -2.5641 -0.5457
12422SOL    HW237966   2.883   6.511   7.824 -1.4457  0.4161 -0.3130
12423SOL     OW37967   7.460   6.994   1.348  0.4520  0.3622 -0.3545
12423SOL    HW137968   7.429   7.011   1.259 -0.9873  1.3803  0.3004
12423SOL    HW237969   7.435   7.072   1.397  0.8091 -0.3749  1.0582
12424SOL     OW37970   3.150   4.954   4.879 -0.2928 -0.2749 -0.1441
12424SOL    HW137971   3.234   4.979   4.841 -1.1486  2.7213 -0.2949
12424SOL    HW237972   3.173   4.915   4.964  1.2926 -0.5070 -0.6468
12425SOL     OW37973   4.478   1.588   0.346  0.2502 -0.2556 -0.1369
12425SOL    HW137974   4.436   1.522   0.402 -1.0066  0.7035  0.0938
12425SOL    HW237975   4.543   1.629   0.402 -0.2371 -0.0557  0.2871
12426SOL     OW37976   3.095   5.394   3.651 -0.0186  0.2507 -1.0981
12426SOL    HW137977   3.188   5.381   3.632  0.1733 -1.4027  0.6300
12426SOL    HW237978   3.094   5.434   3.738 -0.8914 -1.6810 -0.1622
12427SOL     OW37979   3.925   1.929   4.368  0.1322  0.5412 -0.5878
12427SOL    HW137980   4.020   1.937   4.377  0.1093 -0.1425  0.3797
12427SOL    HW237981   3.911   1.907   4.276  1.1972 -3.0664 -0.0441
12428SOL     OW37982   2.951   4.705   7.935 -0.1415 -0.8727 -0.3650
12428SOL    HW137983   3.038   4.668   7.954 -0.9142 -2.1389  0.8750
12428SOL    HW237984   2.942   4.696   7.840  2.0197  1.5070 -0.9098
12429SOL     OW37985   7.588   7.103   0.529 -0.2699 -0.0191 -0.3232
12429SOL    HW137986   7.495   7.086   0.545  0.1937 -0.2351  2.6543
12429SOL    HW237987   7.626   7.017   0.513 -0.3017 -0.1648  0.3478
12430SOL     OW37988   6.132   0.006   5.008  0.1106 -0.7745 -0.0389
12430SOL    HW137989   6.043  -0.001   5.040 -0.0928 -1.5855 -0.7315
12430SOL    HW237990   6.186  -0.031   5.078 -0.1732 -1.0427  0.0384
12431SOL     OW37991   6.599   4.465   3.822  0.0509  0.0816  0.1871
12431SOL    HW137992   6.615   4.539   3.763  0.1489  0.8343  1.1385
12431SOL    HW237993   6.505   4.468   3.839 -0.2707 -1.1019 -1.1547
12432SOL     OW37994   4.948   5.639   1.398 -0.4168  0.2086 -0.0008
12432SOL    HW137995   5.020   5.666   1.340 -0.6211  0.0299 -0.3441
12432SOL    HW237996   4.905   5.568   1.350 -2.0467  1.6191 -0.7136
12433SOL     OW37997   4.686   1.132   3.485 -0.2846 -0.1438  0.5646
12433SOL    HW137998   4.626   1.165   3.552  1.1265  1.5561  1.0869
12433SOL    HW237999   4.634   1.132   3.404 -1.9714 -2.0896  1.5521
12434SOL     OW38000   1.101   4.036   0.027  0.2398 -0.4961 -0.2360
12434SOL    HW138001   1.120   4.130   0.030  2.4384 -0.8714 -0.9032
12434SOL    HW238002   1.052   4.024  -0.055 -0.2261  0.0634 -0.0485
12435SOL     OW38003   3.485   6.449   3.698  0.3351  0.0603 -0.5847
12435SOL    HW138004   3.549   6.520   3.693  1.7540 -1.1695 -0.5493
12435SOL    HW238005   3.500   6.397   3.619 -0.6861 -0.2201 -0.6119
12436SOL     OW38006   6.210   3.284   7.586  0.0760 -0.2725  0.0943
12436SOL    HW138007   6.266   3.335   7.643 -1.4178  0.3207  1.0903
12436SOL    HW238008   6.188   3.344   7.514  1.0028 -0.6375 -0.5159
12437SOL     OW38009   4.605   5.638   7.272 -0.4390  0.0679 -0.1362
12437SOL    HW138010   4.533   5.602   7.324 -1.3598  0.4324 -1.1144
12437SOL    HW238011   4.618   5.726   7.308  0.1388 -0.3258  0.6328
12438SOL     OW38012   0.276   7.580   2.866 -0.6682 -0.3760  0.3411
12438SOL    HW138013   0.356   7.630   2.880  0.0054 -1.4542  0.3991
12438SOL    HW238014   0.286   7.542   2.779 -0.9108 -0.9034  0.5407
12439SOL     OW38015   3.354   7.314   6.961 -0.4388 -0.2483 -0.1112
12439SOL    HW138016   3.268   7.308   7.002 -0.0366 -0.9397  0.6719
12439SOL    HW238017   3.375   7.407   6.963 -0.3136 -0.2763  1.5458
12440SOL     OW38018   3.378   4.018   6.374 -0.2060 -0.2370 -0.5518
12440SOL    HW138019   3.378   4.085   6.306 -1.2134 -0.0562 -0.3798
12440SOL    HW238020   3.294   3.973   6.364  0.2125 -1.0986 -0.2966
12441SOL     OW38021   5.233   1.081   4.727  0.8068  0.0609 -0.1054
12441SOL    HW138022   5.149   1.077   4.680  0.5087  1.6735  0.2450
12441SOL    HW238023   5.228   1.008   4.789 -1.0383  1.0574  1.0062
12442SOL     OW38024   6.054   3.966   4.581 -0.0502  0.3548  0.0947
12442SOL    HW138025   6.071   3.900   4.515 -1.4762  1.1911 -1.1699
12442SOL    HW238026   5.996   3.923   4.644 -1.1853  0.4260 -0.8592
12443SOL     OW38027   1.870   6.255   3.490  0.0875 -0.3674 -0.5532
12443SOL    HW138028   1.787   6.207   3.492  0.6691 -1.4512 -1.3542
12443SOL    HW238029   1.931   6.200   3.540  0.8644 -0.6969 -1.8214
12444SOL     OW38030   5.145   6.604   3.012  0.1349 -0.7114  0.0734
12444SOL    HW138031   5.105   6.646   2.936 -1.5952  0.5567  1.5763
12444SOL    HW238032   5.095   6.524   3.025 -0.5200 -0.2294  0.6467
12445SOL     OW38033   1.310   4.351   1.684  0.1997 -0.2031  0.5082
12445SOL    HW138034   1.398   4.387   1.687 -0.3619  1.1397  2.5908
12445SOL    HW238035   1.295   4.333   1.591  1.9041  1.4753 -0.1482
12446SOL     OW38036   2.547   1.333   6.065 -0.0899  0.1265 -0.1037
12446SOL    HW138037   2.623   1.383   6.093 -1.2429  2.6118 -1.0807
12446SOL    HW238038   2.524   1.369   5.980 -2.3322 -0.5461  0.1406
12447SOL     OW38039   6.634   1.925   4.543 -0.3946 -0.3715  0.2951
12447SOL    HW138040   6.597   1.998   4.593  0.9901  1.4510 -1.2042
12447SOL    HW238041   6.574   1.913   4.470  1.3019  2.0495 -1.6849
12448SOL     OW38042   4.685   5.768   6.271 -0.0081  0.3702  0.1583
12448SOL    HW138043   4.669   5.839   6.334 -0.4313 -0.2371  0.7506
12448SOL    HW238044   4.617   5.704   6.290 -1.7298  1.2252 -2.5431
12449SOL     OW38045   5.459   0.969   6.579  0.1642  0.2771  0.2941
12449SOL    HW138046   5.431   0.881   6.553  2.3789 -1.4224  3.1062
12449SOL    HW238047   5.523   0.994   6.512 -0.7361 -0.0533 -0.7195
12450SOL     OW38048   5.372   6.690   4.912 -0.8586 -0.2291 -0.5474
12450SOL    HW138049   5.339   6.725   4.995 -2.0246 -0.4152 -0.9116
12450SOL    HW238050   5.372   6.765   4.852  0.6051  0.0567 -0.2304
12451SOL     OW38051   7.864   5.236   1.878  0.0236 -0.0239  0.1191
12451SOL    HW138052   7.792   5.225   1.940 -0.6483 -1.3839 -0.8664
12451SOL    HW238053   7.923   5.162   1.894 -1.1438 -1.5557 -2.0908
12452SOL     OW38054   7.652   5.144   0.375 -0.1269  0.7038  0.5489
12452SOL    HW138055   7.608   5.184   0.451 -0.7524 -1.4472  1.3816
12452SOL    HW238056   7.582   5.101   0.326  0.8290 -2.0740  1.4473
12453SOL     OW38057   0.894   4.366   0.702  0.5232  0.0421 -0.4043
12453SOL    HW138058   0.985   4.367   0.733 -0.1134  1.6258  1.6734
12453SOL    HW238059   0.857   4.286   0.737  0.3508  0.8717  1.4266
12454SOL     OW38060   4.235   5.096   0.294  0.5712 -0.4963  0.7257
12454SOL    HW138061   4.231   5.103   0.389  2.0047 -3.5147  1.1231
12454SOL    HW238062   4.191   5.013   0.274  2.9493 -1.4914 -0.8541
12455SOL     OW38063   0.846   0.828   4.885  0.0478 -0.2940 -0.0479
12455SOL    HW138064   0.775   0.838   4.948 -0.3715 -1.3507 -0.3164
12455SOL    HW238065   0.805   0.843   4.800  0.7120  1.5935 -0.0714
12456SOL     OW38066   0.775   6.346   3.715 -0.1537  0.3705 -0.2406
12456SOL    HW138067   0.740   6.275   3.770  0.2787  0.5650  0.3015
12456SOL    HW238068   0.753   6.426   3.762  0.9457  0.5020  0.0940
12457SOL     OW38069   5.842   2.810   1.894  0.1123 -0.1692  0.3163
12457SOL    HW138070   5.932   2.783   1.912 -0.4666 -1.7654  1.0319
12457SOL    HW238071   5.792   2.775   1.967 -1.1321  0.5324 -0.1741
12458SOL     OW38072   2.650   6.870   1.217  0.3836 -0.2246  0.4089
12458SOL    HW138073   2.703   6.803   1.261 -0.8027 -1.7575 -0.4384
12458SOL    HW238074   2.571   6.825   1.189  0.1662  1.1902 -1.4719
12459SOL     OW38075   5.849   6.740   2.764 -0.6294  0.2779  0.0457
12459SOL    HW138076   5.852   6.825   2.806 -1.9243  0.1939  0.3610
12459SOL    HW238077   5.832   6.678   2.835  0.4854 -0.2724 -0.1532
12460SOL     OW38078   3.047   0.209   6.775  0.0654 -0.9549 -0.2502
12460SOL    HW138079   3.062   0.173   6.687  1.2079  0.1686 -0.5416
12460SOL    HW238080   2.970   0.265   6.765  0.6980 -0.1454 -0.7669
12461SOL     OW38081   0.445   3.949   7.640 -0.2805  0.4135  0.0351
12461SOL    HW138082   0.417   3.894   7.567 -1.2484  1.1149 -0.1454
12461SOL    HW238083   0.471   3.887   7.708 -0.9136 -0.2693 -0.3286
12462SOL     OW38084   6.227   3.745   4.930  0.0247  0.2039 -0.0742
12462SOL    HW138085   6.262   3.655   4.928  0.7775  0.4773  0.3325
12462SOL    HW238086   6.272   3.789   4.859 -1.9354 -0.2758 -1.7101
12463SOL     OW38087   4.869   5.620   5.255  0.9784 -0.0767 -0.1231
12463SOL    HW138088   4.918   5.563   5.196  1.0716  1.3638 -1.5140
12463SOL    HW238089   4.931   5.644   5.324  1.1024 -1.1793  0.1578
12464SOL     OW38090   4.368   4.818   3.864 -0.1404 -0.1578  0.2550
12464SOL    HW138091   4.292   4.768   3.835  0.3838 -0.4497 -0.6522
12464SOL    HW238092   4.340   4.910   3.859  0.3026 -0.0878 -2.4789
12465SOL     OW38093   5.168   1.763   5.310  0.3366 -0.3329  0.1747
12465SOL    HW138094   5.195   1.843   5.267  0.3861 -0.7001 -0.4928
12465SOL    HW238095   5.163   1.698   5.240 -4.2309  0.1347 -0.2008
12466SOL     OW38096   7.699   2.205   1.623  0.3592 -0.3508  0.0527
12466SOL    HW138097   7.778   2.153   1.641  1.1500  1.5017  2.5644
12466SOL    HW238098   7.627   2.148   1.650  0.8209 -1.7445 -1.4458
12467SOL     OW38099   5.134   5.403   2.900  0.3770 -0.1700  0.3331
12467SOL    HW138100   5.199   5.473   2.897  0.1359  0.0822  0.7493
12467SOL    HW238101   5.146   5.362   2.986  0.3742 -0.5006  0.1795
12468SOL     OW38102   5.333   5.457   7.445  0.5578 -0.0521 -0.6316
12468SOL    HW138103   5.332   5.363   7.463  0.7330 -0.1809 -1.2443
12468SOL    HW238104   5.267   5.494   7.504  2.3358 -0.1818  1.5289
12469SOL     OW38105   0.442   0.326   1.841  0.1846  1.0051  0.2595
12469SOL    HW138106   0.356   0.341   1.803 -1.4062 -0.7449  2.8314
12469SOL    HW238107   0.473   0.246   1.798 -1.1478 -0.3914  1.7678
12470SOL     OW38108   1.942   6.331   6.638  0.1593  0.1887 -0.0313
12470SOL    HW138109   1.968   6.405   6.583  0.4078  0.0897 -0.0497
12470SOL    HW238110   1.894   6.371   6.711  0.1056  0.3485 -0.1549
12471SOL     OW38111   0.104   7.796   7.335  0.6315 -0.6397 -0.2793
12471SOL    HW138112   0.034   7.738   7.365  0.4698 -0.6667 -0.7112
12471SOL    HW238113   0.118   7.856   7.408  0.1940 -0.6622 -0.1755
12472SOL     OW38114   6.980   1.208   2.261 -0.1188  0.0765  0.2937
12472SOL    HW138115   6.993   1.295   2.224  1.0307  0.8219  2.3320
12472SOL    HW238116   7.035   1.151   2.206 -2.1088  0.2727 -2.0576
12473SOL     OW38117   3.608   1.321   7.229 -0.1252  0.0592 -0.4104
12473SOL    HW138118   3.591   1.272   7.310  1.2674 -0.1356 -0.2115
12473SOL    HW238119   3.661   1.262   7.176 -2.2282 -0.4010 -2.1509
12474SOL     OW38120   3.593   4.372   1.814 -0.4018 -0.7124  0.2731
12474SOL    HW138121   3.580   4.467   1.816 -0.7291 -0.7522  0.0035
12474SOL    HW238122   3.531   4.340   1.749 -2.4479 -1.4564  2.4230
12475SOL     OW38123   0.101   1.494   6.856  0.1351 -1.1592  0.6614
12475SOL    HW138124   0.005   1.484   6.862  0.1039 -0.3123  1.9268
12475SOL    HW238125   0.127   1.526   6.942  1.3689  0.2027 -0.1740
12476SOL     OW38126   6.485   3.860   5.299  0.3282  0.2008 -0.0059
12476SOL    HW138127   6.491   3.858   5.204  1.2601 -0.0493  0.0483
12476SOL    HW238128   6.454   3.948   5.320  2.7029  1.2023 -0.4325
12477SOL     OW38129   3.743   2.688   7.105 -0.5731 -0.0507  0.2851
12477SOL    HW138130   3.754   2.737   7.186 -1.0937  0.9950 -0.2606
12477SOL    HW238131   3.653   2.655   7.108 -0.5035 -0.2487  0.2527
12478SOL     OW38132   4.277   6.136   6.599 -0.8062 -0.2793  0.1599
12478SOL    HW138133   4.340   6.087   6.653  0.8418  0.5697 -0.8912
12478SOL    HW238134   4.211   6.071   6.574  2.2178 -2.6431 -2.7131
12479SOL     OW38135   2.044   2.193   0.952  0.2000 -0.0657 -0.0203
12479SOL    HW138136   2.123   2.167   1.000  0.3732  0.3556 -0.0753
12479SOL    HW238137   2.076   2.242   0.876 -0.0874 -0.4747 -0.4091
12480SOL     OW38138   2.801   4.325   3.622 -0.5458 -0.0556 -0.0102
12480SOL    HW138139   2.869   4.356   3.682  0.5123 -1.0476 -0.6537
12480SOL    HW238140   2.729   4.388   3.631  1.2593  2.2290 -0.8421
12481SOL     OW38141   3.235   4.266   3.379  0.0782  0.8009 -0.5302
12481SOL    HW138142   3.247   4.334   3.446  0.9670  0.2133 -0.0582
12481SOL    HW238143   3.161   4.296   3.327 -0.5274  1.3640  0.6174
12482SOL     OW38144   5.172   7.749   0.786  0.0022  0.1462  0.5753
12482SOL    HW138145   5.136   7.684   0.847  0.6047 -1.1778 -0.4329
12482SOL    HW238146   5.163   7.708   0.700  0.1113  1.5467 -0.1288
12483SOL     OW38147   1.789   2.027   6.112  0.4116  0.0784 -0.1848
12483SOL    HW138148   1.718   2.017   6.176  0.3409 -1.1370 -0.4313
12483SOL    HW238149   1.865   1.988   6.155  0.1076 -1.7951 -1.2292
12484SOL     OW38150   7.493   6.725   4.878  0.6252 -0.3438  0.1219
12484SOL    HW138151   7.582   6.732   4.912  0.9142  0.7254 -0.7668
12484SOL    HW238152   7.470   6.814   4.853 -0.8779 -0.5301  0.7348
12485SOL     OW38153   2.336   1.006   3.542  0.3453  0.5070  0.3479
12485SOL    HW138154   2.344   1.100   3.556  0.3325  0.5300  0.2064
12485SOL    HW238155   2.385   0.966   3.613  2.5574  0.6428 -1.0025
12486SOL     OW38156   7.888   4.528   7.711 -0.0931  0.5510  0.2926
12486SOL    HW138157   7.907   4.448   7.761 -0.4458 -0.8222 -1.6501
12486SOL    HW238158   7.925   4.598   7.764 -0.8488 -0.7291  2.7018
12487SOL     OW38159   1.105   5.787   1.666 -0.3502  0.1392 -0.6402
12487SOL    HW138160   1.184   5.811   1.714  1.2593  0.5601 -3.3013
12487SOL    HW238161   1.048   5.747   1.731  1.2224  1.6281  1.7834
12488SOL     OW38162   5.571   4.458   3.471 -0.2142 -0.4043 -0.1426
12488SOL    HW138163   5.577   4.524   3.402 -0.5499 -0.9508 -0.7062
12488SOL    HW238164   5.479   4.459   3.497  0.2081  0.9811  1.5054
12489SOL     OW38165   5.414   7.277   4.887 -0.1339 -0.4619 -0.2559
12489SOL    HW138166   5.387   7.189   4.911  0.7490 -0.5701  0.4006
12489SOL    HW238167   5.505   7.284   4.919  0.2397  0.2468 -1.4166
12490SOL     OW38168   4.910   0.193   7.912  0.5497  0.0293  0.5723
12490SOL    HW138169   4.874   0.274   7.875  0.9320  0.1655  0.4920
12490SOL    HW238170   4.997   0.218   7.943  1.3248 -0.7026 -0.8968
12491SOL     OW38171   1.758   2.226   1.986 -0.2244  0.0327  0.1939
12491SOL    HW138172   1.671   2.245   2.021 -0.4189 -0.4724 -0.0059
12491SOL    HW238173   1.803   2.181   2.058 -1.4744 -3.3398 -0.9457
12492SOL     OW38174   0.017   1.101   5.575 -0.1436  0.3630  0.2592
12492SOL    HW138175   0.055   1.014   5.584  0.2387  0.4381 -0.5904
12492SOL    HW238176   0.004   1.113   5.481 -0.4210  1.1298  0.3829
12493SOL     OW38177   6.557   5.582   2.573 -0.3092  0.0091  0.7338
12493SOL    HW138178   6.626   5.620   2.518  1.3890 -1.0027  2.0786
12493SOL    HW238179   6.482   5.640   2.561  1.2513  2.0583  0.3870
12494SOL     OW38180   4.205   3.457   3.066  0.0343 -0.2494 -0.0301
12494SOL    HW138181   4.257   3.533   3.041 -0.7664  0.5037  0.5310
12494SOL    HW238182   4.269   3.393   3.096  0.7256  0.1900 -0.5426
12495SOL     OW38183   7.751   1.575   2.000 -0.7696 -0.2045 -0.3550
12495SOL    HW138184   7.802   1.545   1.925 -0.7073 -1.9090  0.3289
12495SOL    HW238185   7.696   1.646   1.965 -0.9967 -1.1803 -2.1018
12496SOL     OW38186   3.849   3.985   7.956  0.3521  0.0676 -0.0091
12496SOL    HW138187   3.822   3.894   7.941  2.2077 -0.7903  1.5261
12496SOL    HW238188   3.785   4.019   8.019  1.4990 -1.2765  1.9751
12497SOL     OW38189   0.383   4.712   5.612 -0.0423 -0.0869 -0.0689
12497SOL    HW138190   0.466   4.725   5.566  0.0087  1.0455  0.3081
12497SOL    HW238191   0.388   4.771   5.687 -1.3143  0.2213 -0.2100
12498SOL     OW38192   3.594   6.848   4.657  0.2015 -0.8676  0.5490
12498SOL    HW138193   3.521   6.909   4.670  0.1828 -1.1381  1.8522
12498SOL    HW238194   3.555   6.773   4.613 -0.1127 -0.6263  0.4105
12499SOL     OW38195   0.788   4.871   2.139  0.4638 -0.3340  0.2336
12499SOL    HW138196   0.769   4.788   2.183  1.7284 -0.9807 -0.3735
12499SOL    HW238197   0.809   4.932   2.209 -1.6178 -0.1705  0.7689
12500SOL     OW38198   2.949   3.331   1.520  0.0927  0.0459 -0.3532
12500SOL    HW138199   2.913   3.261   1.466 -1.3663 -0.9997  1.8233
12500SOL    HW238200   2.975   3.399   1.458 -1.4360 -1.1061 -2.3537
12501SOL     OW38201   0.183   5.032   5.716  0.0904  0.2548  0.4435
12501SOL    HW138202   0.265   5.010   5.761  0.0708 -0.6134  0.0768
12501SOL    HW238203   0.130   4.952   5.723 -0.7883  0.8561  0.7995
12502SOL     OW38204   5.992   7.588   5.216  0.5127  0.0076  0.3232
12502SOL    HW138205   6.043   7.643   5.156  1.5613 -1.6971 -0.4577
12502SOL    HW238206   6.055   7.561   5.283  0.0439 -0.2673  0.6592
12503SOL     OW38207   2.829   0.105   7.616  0.3411 -0.6416 -0.7959
12503SOL    HW138208   2.743   0.134   7.585  0.8676  0.1414 -1.5957
12503SOL    HW238209   2.879   0.186   7.625  1.7148 -1.2295 -2.5856
12504SOL     OW38210   5.372   7.682   6.273  0.2278  0.0857 -0.0003
12504SOL    HW138211   5.380   7.748   6.342  1.6984  0.3148 -0.3516
12504SOL    HW238212   5.284   7.694   6.238  0.2202  1.3996  0.4140
12505SOL     OW38213   5.713   5.448   6.648 -0.4576 -0.2450 -0.2205
12505SOL    HW138214   5.805   5.475   6.651 -0.0363 -1.6282 -0.0056
12505SOL    HW238215   5.676   5.497   6.574  0.8471 -0.8188 -1.2992
12506SOL     OW38216   3.383   5.720   3.830  0.0938  0.4359  0.4674
12506SOL    HW138217   3.347   5.763   3.752 -0.1504 -0.3085  0.1568
12506SOL    HW238218   3.439   5.651   3.795 -0.4175 -0.2338  0.9464
12507SOL     OW38219   5.611   1.974   7.258  0.1575 -0.6410  0.6011
12507SOL    HW138220   5.573   1.976   7.170 -2.5072  0.1548  1.6551
12507SOL    HW238221   5.537   1.994   7.316  1.9069 -0.7226  3.0032
12508SOL     OW38222   7.327   3.686   2.700  0.6458 -0.1667 -0.7559
12508SOL    HW138223   7.269   3.687   2.776  2.2149 -1.2044  0.5302
12508SOL    HW238224   7.281   3.633   2.635 -0.1427 -0.3696 -0.0506
12509SOL     OW38225   0.436   4.916   5.795 -0.1955  0.8015 -0.0869
12509SOL    HW138226   0.452   4.990   5.852  0.8803  0.9339 -0.5346
12509SOL    HW238227   0.462   4.946   5.708 -1.8558  0.6301 -0.6803
12510SOL     OW38228   7.828   2.022   5.358 -0.0758 -0.5270  0.2425
12510SOL    HW138229   7.747   2.065   5.330  0.5028  0.9868  0.7782
12510SOL    HW238230   7.813   2.001   5.450 -0.1228 -0.9197  0.1468
12511SOL     OW38231   0.891   7.108   0.501 -0.0267  0.1492  0.0212
12511SOL    HW138232   0.980   7.140   0.517 -0.5000  1.4792  0.0733
12511SOL    HW238233   0.901   7.047   0.428  1.3534 -1.9943  1.8254
12512SOL     OW38234   6.393   6.310   5.813  0.0329 -0.1597 -0.7145
12512SOL    HW138235   6.445   6.235   5.784  0.8020  1.2915 -3.3194
12512SOL    HW238236   6.359   6.283   5.899  1.4817 -2.8718 -0.8855
12513SOL     OW38237   6.288   5.758   5.896  0.0031 -0.0755  0.1531
12513SOL    HW138238   6.227   5.750   5.823  0.7725 -2.2180 -0.3495
12513SOL    HW238239   6.348   5.828   5.871  0.2593 -0.7866 -1.3028
12514SOL     OW38240   1.371   3.533   3.189 -0.0362  0.1861  0.5014
12514SOL    HW138241   1.346   3.490   3.108  1.4143  0.6444 -0.2317
12514SOL    HW238242   1.297   3.520   3.248 -1.4006  0.4069 -1.1015
12515SOL     OW38243   3.335   1.369   2.510 -0.2759 -0.1591 -0.5362
12515SOL    HW138244   3.357   1.310   2.582  0.2264  1.4889  0.7309
12515SOL    HW238245   3.267   1.323   2.460 -0.4557 -1.4513  0.8468
12516SOL     OW38246   3.410   3.225   3.708 -0.1069  0.2198 -0.0424
12516SOL    HW138247   3.318   3.249   3.701  0.2304  1.7641  0.3005
12516SOL    HW238248   3.418   3.142   3.661 -1.8575 -0.4731  0.7936
12517SOL     OW38249   2.029   6.926   1.119  1.0677  0.0605 -0.3969
12517SOL    HW138250   1.943   6.886   1.110  0.9320  0.4314 -0.8168
12517SOL    HW238251   2.061   6.897   1.204  0.4135  0.1368 -0.1190
12518SOL     OW38252   4.221   0.372   3.546 -0.2600 -0.3747 -0.0196
12518SOL    HW138253   4.317   0.372   3.538 -0.1430 -0.8704  1.1268
12518SOL    HW238254   4.199   0.281   3.566 -0.9940 -0.2958 -0.4583
12519SOL     OW38255   7.838   6.209   7.646  0.6977  0.0383 -0.2728
12519SOL    HW138256   7.796   6.199   7.561 -0.4635 -1.8832  0.4377
12519SOL    HW238257   7.827   6.301   7.668 -0.8621  0.1298 -1.2919
12520SOL     OW38258   1.695   1.198   4.096 -0.3782  0.0581 -0.4079
12520SOL    HW138259   1.664   1.260   4.163  0.6706 -0.1742  0.3233
12520SOL    HW238260   1.630   1.203   4.026 -0.9699  1.0575  0.1936
12521SOL     OW38261   4.762   7.532   4.101 -0.1301  0.0883 -0.2627
12521SOL    HW138262   4.839   7.565   4.147 -0.4732 -0.0012  0.3834
12521SOL    HW238263   4.732   7.458   4.154 -0.5261 -0.0239 -0.6364
12522SOL     OW38264   7.633   2.777   6.587  0.5337  0.1155 -0.4401
12522SOL    HW138265   7.657   2.853   6.641  1.0369  0.3770 -1.0269
12522SOL    HW238266   7.701   2.772   6.521  0.9776 -1.3621  0.0901
12523SOL     OW38267   7.021   3.438   5.077  0.1584  0.3408  0.0549
12523SOL    HW138268   7.080   3.411   5.147  0.5229  1.3782  0.1650
12523SOL    HW238269   6.995   3.356   5.034  1.0824 -0.1823  0.4706
12524SOL     OW38270   3.712   1.324   0.300  0.8034 -0.0782 -0.3510
12524SOL    HW138271   3.724   1.277   0.383 -0.2251  0.7604  0.3015
12524SOL    HW238272   3.700   1.255   0.235 -1.2243 -0.7615  0.6744
12525SOL     OW38273   7.111   2.821   5.847  0.4407 -0.4913  0.5980
12525SOL    HW138274   7.017   2.817   5.829  0.7478 -2.1303 -0.9743
12525SOL    HW238275   7.148   2.860   5.768  1.0800  0.1419  1.2117
12526SOL     OW38276   5.381   4.755   3.490 -0.3672  0.2833 -0.1017
12526SOL    HW138277   5.311   4.727   3.549 -0.0858 -1.4531 -0.5263
12526SOL    HW238278   5.345   4.831   3.444 -2.5963 -1.4123 -1.3741
12527SOL     OW38279   2.034   0.375   1.559 -0.5324  0.1132 -0.2137
12527SOL    HW138280   2.021   0.469   1.542  1.1801  0.1580 -1.6339
12527SOL    HW238281   2.105   0.372   1.622 -0.5750 -0.2291 -0.1819
12528SOL     OW38282   6.142   7.294   4.104 -0.5043  0.2166 -0.5042
12528SOL    HW138283   6.049   7.273   4.107 -0.3409 -0.4221  1.9907
12528SOL    HW238284   6.186   7.209   4.101  0.0573  0.5151 -2.1135
12529SOL     OW38285   7.153   0.783   6.389 -0.3316 -0.2463  0.1872
12529SOL    HW138286   7.228   0.741   6.430 -0.7710 -1.6676 -0.3784
12529SOL    HW238287   7.150   0.746   6.300 -1.5351 -0.0262  0.1102
12530SOL     OW38288   0.607   5.343   0.756  0.3946  0.6202 -0.3855
12530SOL    HW138289   0.552   5.419   0.742 -0.6568  0.2736  1.4515
12530SOL    HW238290   0.652   5.361   0.839  2.1305  0.3576 -1.2335
12531SOL     OW38291   6.521   7.204   0.009  0.0463 -0.0898  0.5796
12531SOL    HW138292   6.478   7.260  -0.056 -0.5781 -0.9479  0.2354
12531SOL    HW238293   6.548   7.126  -0.040 -0.9797 -1.0275  1.4461
12532SOL     OW38294   5.392   7.539   5.213  0.1755 -0.7435  0.3910
12532SOL    HW138295   5.487   7.532   5.226  0.2338  1.3499  1.5610
12532SOL    HW238296   5.355   7.507   5.295 -0.0377 -0.0274  0.5842
12533SOL     OW38297   0.812   4.132   0.808  0.4006 -0.9021 -0.5129
12533SOL    HW138298   0.738   4.088   0.851  0.3909 -0.8434 -0.4688
12533SOL    HW238299   0.872   4.061   0.785  0.1531 -0.9886 -0.8921
12534SOL     OW38300   6.096   4.480   6.580  0.5471 -0.1052  0.5704
12534SOL    HW138301   6.090   4.575   6.585  1.0863  0.0458 -1.0115
12534SOL    HW238302   6.007   4.449   6.597  0.2117  0.7329  0.3738
12535SOL     OW38303   2.231   7.884   5.721 -0.4200  0.5125 -0.5612
12535SOL    HW138304   2.157   7.822   5.720  0.3181 -0.4278  0.2872
12535SOL    HW238305   2.214   7.942   5.647 -0.7193 -1.2288 -1.9403
12536SOL     OW38306   3.400   5.185   4.970  0.4414  0.1767  0.3574
12536SOL    HW138307   3.388   5.272   4.932  2.3223  0.7933  1.0582
12536SOL    HW238308   3.328   5.176   5.032  0.3407  1.3335  0.4311
12537SOL     OW38309   5.242   3.546   7.043 -0.4163  0.1109  0.2416
12537SOL    HW138310   5.154   3.511   7.052 -1.1130  1.7164 -0.1433
12537SOL    HW238311   5.248   3.575   6.952  0.8551 -0.8416 -0.0160
12538SOL     OW38312   2.463   5.458   2.520 -0.0420 -0.0833  0.1777
12538SOL    HW138313   2.443   5.382   2.465  0.4455  0.7777 -1.2671
12538SOL    HW238314   2.524   5.425   2.586 -0.4910 -1.1123  0.0975
12539SOL     OW38315   5.339   2.235   5.904 -0.1473  0.5308 -0.4275
12539SOL    HW138316   5.302   2.298   5.843  0.3534 -0.9582 -2.3591
12539SOL    HW238317   5.378   2.168   5.849 -0.6216 -1.4750  1.5133
12540SOL     OW38318   5.068   2.521   6.598  0.3500 -0.2891 -0.0939
12540SOL    HW138319   5.070   2.615   6.578 -0.8170 -0.0866  0.6690
12540SOL    HW238320   5.083   2.478   6.514 -0.4026  0.5757 -0.6779
12541SOL     OW38321   4.461   1.387   7.311 -0.0983 -0.1533  0.1020
12541SOL    HW138322   4.392   1.431   7.360 -0.7570 -1.0187 -0.0056
12541SOL    HW238323   4.428   1.297   7.300 -0.2938  0.1672 -2.4810
12542SOL     OW38324   3.054   2.483   2.168 -0.5781 -0.0836  0.1829
12542SOL    HW138325   3.103   2.486   2.085 -1.6099  1.1680 -0.4263
12542SOL    HW238326   3.064   2.393   2.198  1.7439 -0.0036 -0.0925
12543SOL     OW38327   4.712   7.624   7.022  0.2284 -0.1391 -0.3643
12543SOL    HW138328   4.714   7.546   7.077  0.0888  0.2042  0.1316
12543SOL    HW238329   4.751   7.693   7.076  0.2794  0.1546 -0.7708
12544SOL     OW38330   5.084   0.509   7.869  0.2084 -0.2513  0.2408
12544SOL    HW138331   5.030   0.454   7.812 -0.3035 -2.3718  2.5401
12544SOL    HW238332   5.024   0.577   7.901  0.4899  0.9205 -1.5971
12545SOL     OW38333   4.682   3.921   2.844 -0.3641 -0.0152  0.0505
12545SOL    HW138334   4.686   3.845   2.785 -1.6095 -0.6983  0.7912
12545SOL    HW238335   4.747   3.982   2.810 -0.0442 -1.0004 -1.1640
12546SOL     OW38336   5.186   0.246   5.206 -0.0897 -0.0494  0.3042
12546SOL    HW138337   5.142   0.162   5.194 -1.2499  0.6523 -0.5842
12546SOL    HW238338   5.117   0.311   5.193  1.4388  1.1771 -2.6875
12547SOL     OW38339   0.230   6.908   3.912  0.1016 -0.0462  0.9190
12547SOL    HW138340   0.163   6.940   3.972  0.1825 -1.3254  1.7322
12547SOL    HW238341   0.311   6.949   3.942  0.1549 -0.7311  1.7569
12548SOL     OW38342   2.735   7.975   6.150 -0.6162 -0.5323  0.3682
12548SOL    HW138343   2.805   8.034   6.122 -1.8031  0.3963 -0.7775
12548SOL    HW238344   2.767   7.887   6.128  0.5902 -0.2258  0.8066
12549SOL     OW38345   0.695   1.054   1.122  0.0979  0.3530  0.0220
12549SOL    HW138346   0.703   1.053   1.027 -2.6528 -0.1228 -0.2867
12549SOL    HW238347   0.745   1.131   1.150 -0.7608  1.7146 -2.0092
12550SOL     OW38348   4.149   3.619   4.704 -0.1528  0.0786  0.1007
12550SOL    HW138349   4.072   3.596   4.756 -1.5390 -0.0667 -1.8983
12550SOL    HW238350   4.164   3.712   4.722 -1.0661  0.2140  0.1798
12551SOL     OW38351   4.242   1.866   1.324 -0.3861 -0.2112  0.1110
12551SOL    HW138352   4.258   1.948   1.372  0.7519 -0.5630  0.3758
12551SOL    HW238353   4.167   1.885   1.268  0.0846  1.1438 -0.1139
12552SOL     OW38354   2.736   1.170   0.062  0.2227 -0.1462  0.5947
12552SOL    HW138355   2.765   1.083   0.035  1.0878  0.2614  0.1632
12552SOL    HW238356   2.749   1.224  -0.016 -1.4761  0.1179  0.4651
12553SOL     OW38357   6.705   6.470   4.496  0.6497  0.1287 -0.3729
12553SOL    HW138358   6.728   6.535   4.562  0.9822 -0.2682 -0.0933
12553SOL    HW238359   6.666   6.520   4.424 -2.0171  0.4026  1.1092
12554SOL     OW38360   1.918   1.737   2.815  0.0271 -0.3096 -0.5130
12554SOL    HW138361   1.978   1.727   2.741  0.6625  1.2113 -0.2579
12554SOL    HW238362   1.886   1.827   2.807 -0.6147 -0.4292  0.5328
12555SOL     OW38363   4.610   2.284   3.925  0.0167 -0.1331  0.7867
12555SOL    HW138364   4.548   2.352   3.898  0.9380  0.4136 -0.0176
12555SOL    HW238365   4.687   2.298   3.869  1.0222 -0.5473  2.0143
12556SOL     OW38366   6.154   2.080   4.911  0.0683  0.1109 -0.8700
12556SOL    HW138367   6.236   2.122   4.883  0.3802  0.0022 -0.1207
12556SOL    HW238368   6.105   2.149   4.954 -0.2385  0.1734 -1.3115
12557SOL     OW38369   6.438   2.439   6.563 -0.0187  0.3377 -0.7503
12557SOL    HW138370   6.492   2.480   6.630 -0.5543  0.1140 -0.1689
12557SOL    HW238371   6.403   2.360   6.605 -1.0579  0.6500 -0.9964
12558SOL     OW38372   3.705   5.153   4.319  0.6449 -0.2629 -0.3705
12558SOL    HW138373   3.627   5.100   4.302 -0.3339  1.2705 -0.9406
12558SOL    HW238374   3.683   5.203   4.397  0.9707  0.3333 -0.6572
12559SOL     OW38375   1.668   3.663   2.845  0.5534  0.2708  0.1416
12559SOL    HW138376   1.603   3.717   2.799 -1.1666 -1.9716 -0.2087
12559SOL    HW238377   1.673   3.702   2.932 -1.5061  0.3697  0.2747
12560SOL     OW38378   6.341   6.424   7.347 -0.3769 -0.4005  0.0296
12560SOL    HW138379   6.406   6.462   7.406 -0.9344 -0.5038  0.7226
12560SOL    HW238380   6.272   6.490   7.342 -0.3662 -0.4209 -0.4630
12561SOL     OW38381   3.726   4.968   6.200  0.1075 -0.0493 -0.0924
12561SOL    HW138382   3.792   5.037   6.211 -1.4823  1.1134  3.9122
12561SOL    HW238383   3.643   5.014   6.190 -0.6486 -1.4283 -0.5112
12562SOL     OW38384   3.885   2.205   5.974  0.0580 -0.7290 -0.2058
12562SOL    HW138385   3.833   2.172   5.900  1.8898  0.4852 -2.1607
12562SOL    HW238386   3.852   2.295   5.987 -1.9795 -1.7128  2.2420
12563SOL     OW38387   7.424   1.883   2.918  0.5061  0.0593  0.1541
12563SOL    HW138388   7.373   1.814   2.875  0.3269  0.7697 -0.8213
12563SOL    HW238389   7.474   1.838   2.986 -0.2146 -0.8978  0.0644
12564SOL     OW38390   6.083   0.106   5.475 -0.1325  0.0531  0.7190
12564SOL    HW138391   6.083   0.164   5.398  0.0435  1.1243  1.5011
12564SOL    HW238392   6.175   0.080   5.485  0.0305  0.7818  1.1872
12565SOL     OW38393   4.008   5.730   4.056  0.0606 -0.1304 -0.0589
12565SOL    HW138394   3.998   5.736   3.961  1.5283  1.6531 -0.1682
12565SOL    HW238395   3.930   5.773   4.091  0.4696  1.0670 -0.5430
12566SOL     OW38396   6.564   6.459   7.520  0.3303  0.1182 -0.7549
12566SOL    HW138397   6.578   6.411   7.601 -1.5956  0.0452 -0.4228
12566SOL    HW238398   6.606   6.544   7.535  0.5689 -0.1352  0.0600
12567SOL     OW38399   3.429   5.258   2.029 -0.1158  0.0532 -0.2954
12567SOL    HW138400   3.444   5.230   2.119  1.0072 -1.8079 -1.0203
12567SOL    HW238401   3.511   5.298   2.002 -0.4068  0.4892 -0.5471
12568SOL     OW38402   7.178   5.494   5.919  0.1410  1.0762  0.0486
12568SOL    HW138403   7.187   5.435   5.844  0.1011  0.3720  0.5797
12568SOL    HW238404   7.208   5.579   5.887  2.5247  0.2639 -0.0934
12569SOL     OW38405   2.929   0.748   3.901 -0.3085 -0.0867 -0.0784
12569SOL    HW138406   2.844   0.765   3.941  0.4893  0.4275  1.4740
12569SOL    HW238407   2.934   0.809   3.827 -1.7633 -0.9634 -0.9366
12570SOL     OW38408   3.521   5.962   0.863  0.9476  0.3823  0.3414
12570SOL    HW138409   3.496   5.955   0.771 -0.6435  1.8496  0.6106
12570SOL    HW238410   3.491   5.881   0.903 -1.7367  1.2520  0.2462
12571SOL     OW38411   5.542   4.027   7.389 -0.5374  0.4168  0.5893
12571SOL    HW138412   5.525   3.936   7.416  0.1522  0.0011 -0.2909
12571SOL    HW238413   5.634   4.041   7.414 -0.0244  0.1721 -1.0762
12572SOL     OW38414   4.713   2.254   3.057 -0.1791 -0.2327  0.6251
12572SOL    HW138415   4.693   2.330   3.002  1.0999 -0.0193  0.4051
12572SOL    HW238416   4.666   2.269   3.139  1.3869  1.6920  1.2483
12573SOL     OW38417   5.268   2.062   1.092 -0.0628 -0.2853 -0.1796
12573SOL    HW138418   5.269   1.968   1.113 -0.3868 -0.2482  0.0252
12573SOL    HW238419   5.359   2.084   1.074 -0.2739 -1.1525 -2.6148
12574SOL     OW38420   6.198   7.424   2.850 -0.1006 -0.4963 -0.1535
12574SOL    HW138421   6.159   7.352   2.800  1.3704 -0.9957 -0.6426
12574SOL    HW238422   6.190   7.500   2.792 -0.0845 -0.6601 -0.3707
12575SOL     OW38423   6.106   5.493   3.087  0.6023 -0.2632 -0.3092
12575SOL    HW138424   6.144   5.415   3.128  1.8969  1.0667  1.1213
12575SOL    HW238425   6.180   5.550   3.069 -0.4837  1.7683  1.1419
12576SOL     OW38426   6.305   1.028   4.071 -0.0548 -0.3698 -0.1994
12576SOL    HW138427   6.373   0.991   4.014  2.0984  1.1509  1.1940
12576SOL    HW238428   6.322   1.123   4.068 -0.6192 -0.1641  2.0098
12577SOL     OW38429   3.732   2.364   5.192  0.3751  0.1779 -0.3147
12577SOL    HW138430   3.771   2.359   5.105  0.9233  0.3718 -0.0835
12577SOL    HW238431   3.758   2.450   5.225 -1.3732  0.8886 -0.6806
12578SOL     OW38432   4.366   5.980   1.868  0.4768 -0.0100 -0.6205
12578SOL    HW138433   4.453   5.994   1.907  0.6426  0.9213 -1.2848
12578SOL    HW238434   4.319   5.926   1.932  1.9925 -1.7162 -0.8487
12579SOL     OW38435   2.880   7.698   3.697 -0.2284  0.3911 -0.1390
12579SOL    HW138436   2.853   7.704   3.789 -0.9072  0.5162 -0.3422
12579SOL    HW238437   2.867   7.786   3.663  1.1087  0.6329 -0.0719
12580SOL     OW38438   5.791   1.678   3.416 -0.0544 -0.2047  0.0261
12580SOL    HW138439   5.796   1.585   3.393 -0.1489 -0.5913  1.4568
12580SOL    HW238440   5.731   1.716   3.352  0.7845 -0.9046 -1.2170
12581SOL     OW38441   0.805   3.991   1.210 -0.1289  0.0575 -0.0654
12581SOL    HW138442   0.886   3.992   1.261 -1.4075  1.5161  2.0900
12581SOL    HW238443   0.765   3.906   1.230 -0.8811  0.8150  1.9771
12582SOL     OW38444   5.498   4.694   7.672  0.0339  0.0160 -0.3620
12582SOL    HW138445   5.447   4.614   7.672  1.1595 -0.7287 -1.0587
12582SOL    HW238446   5.509   4.716   7.765 -1.0638 -0.0961 -0.1949
12583SOL     OW38447   2.255   4.059   0.556  0.5846 -0.0700 -0.4119
12583SOL    HW138448   2.203   4.009   0.494  1.9634 -1.5338 -0.4663
12583SOL    HW238449   2.243   4.150   0.531 -0.7466 -0.4774 -1.3217
12584SOL     OW38450   4.129   3.054   5.360  0.0314 -0.3245 -0.3787
12584SOL    HW138451   4.193   3.023   5.424  0.0907 -1.0654 -0.7858
12584SOL    HW238452   4.170   3.131   5.321  0.8240 -0.9628 -0.8456
12585SOL     OW38453   3.255   1.675   0.993 -0.1535  0.3267  0.2275
12585SOL    HW138454   3.241   1.769   0.981 -1.4241  0.2352  0.7675
12585SOL    HW238455   3.171   1.635   0.968 -0.5896 -0.4009  2.5819
12586SOL     OW38456   2.367   1.581   6.780  0.4183  0.0723 -0.3562
12586SOL    HW138457   2.316   1.501   6.764  1.2369 -0.9070  1.5767
12586SOL    HW238458   2.303   1.652   6.773  0.2509 -0.2014 -5.5984
12587SOL     OW38459   7.304   4.290   0.651  0.2619 -0.0861 -0.3772
12587SOL    HW138460   7.372   4.309   0.716  0.6916  0.5371 -0.9868
12587SOL    HW238461   7.353   4.262   0.574 -0.3073 -2.6183  0.1079
12588SOL     OW38462   1.317   3.294   5.045 -0.8402  0.7374 -0.0439
12588SOL    HW138463   1.250   3.346   5.087 -1.4354  0.7590 -0.9840
12588SOL    HW238464   1.355   3.352   4.978  1.6886  1.5135  1.8979
12589SOL     OW38465   6.641   0.243   5.015 -0.2147 -0.6790  0.4353
12589SOL    HW138466   6.671   0.327   5.049 -1.4582  0.8729 -2.0054
12589SOL    HW238467   6.637   0.256   4.921 -1.5127 -3.1298  0.0865
12590SOL     OW38468   4.342   0.166   5.308 -0.7401  0.0941  0.4097
12590SOL    HW138469   4.346   0.172   5.403  0.0498  2.2372  0.2874
12590SOL    HW238470   4.249   0.152   5.289 -1.2486  1.8070  1.4374
12591SOL     OW38471   1.638   1.851   5.919  0.1283 -0.3846  0.2365
12591SOL    HW138472   1.674   1.901   5.992 -0.1145 -0.1523  0.2006
12591SOL    HW238473   1.575   1.911   5.879 -0.0824 -0.6829  0.1241
12592SOL     OW38474   3.315   7.939   6.399  0.2035 -0.0125  0.8549
12592SOL    HW138475   3.347   7.971   6.314  0.4926 -0.5216  0.7635
12592SOL    HW238476   3.233   7.985   6.413  0.5815  0.7173  0.7026
12593SOL     OW38477   3.427   4.263   1.637  0.5150 -0.0063  1.1474
12593SOL    HW138478   3.406   4.171   1.623 -0.3135  0.0462  1.9745
12593SOL    HW238479   3.487   4.285   1.566 -0.7506 -0.6738 -0.1569
12594SOL     OW38480   1.731   6.930   1.650  0.0202  0.6569 -0.5810
12594SOL    HW138481   1.775   6.996   1.703 -0.5943  0.2951  0.3933
12594SOL    HW238482   1.638   6.952   1.656 -0.2588 -0.6462  0.2738
12595SOL     OW38483   4.848   0.062   1.189 -0.6447 -0.4908 -0.0538
12595SOL    HW138484   4.852  -0.034   1.192  0.9663 -0.6089 -2.5551
12595SOL    HW238485   4.758   0.081   1.165 -0.6493 -1.4983 -0.9469
12596SOL     OW38486   4.799   1.460   4.505  1.1626 -0.0732 -0.2157
12596SOL    HW138487   4.760   1.522   4.566 -1.4399 -0.4719 -1.3370
12596SOL    HW238488   4.834   1.514   4.434  0.7048  0.2018 -0.2321
12597SOL     OW38489   4.097   5.098   2.374 -0.3170  0.1823  0.3770
12597SOL    HW138490   4.053   5.018   2.406  0.6666 -0.2652  0.6458
12597SOL    HW238491   4.114   5.080   2.282 -3.2912  1.5325 -0.5688
12598SOL     OW38492   5.826   5.297   6.430 -0.4078 -0.4667 -0.5368
12598SOL    HW138493   5.912   5.257   6.441 -0.3391 -0.3348 -0.5996
12598SOL    HW238494   5.796   5.314   6.519 -0.7778 -1.3820 -0.4714
12599SOL     OW38495   6.430   1.205   6.241 -0.0507  0.3617 -0.0550
12599SOL    HW138496   6.426   1.245   6.328  0.7062 -1.0854  0.6763
12599SOL    HW238497   6.427   1.111   6.258  1.6099  0.0011 -1.4874
12600SOL     OW38498   0.314   4.951   2.517  0.5047  0.4268 -0.0702
12600SOL    HW138499   0.287   4.990   2.434  1.4948  0.6372 -0.3053
12600SOL    HW238500   0.310   4.857   2.503  0.4424  0.4612 -0.2753
12601SOL     OW38501   1.461   2.857   1.078  0.1129 -0.7324 -0.0878
12601SOL    HW138502   1.441   2.904   1.159  1.1952  0.2307 -0.3574
12601SOL    HW238503   1.553   2.876   1.061 -0.2559 -0.3566 -1.8940
12602SOL     OW38504   5.006   2.948   7.144  0.2388  0.5182 -0.4232
12602SOL    HW138505   4.940   2.895   7.098 -0.3636  1.0228 -0.1550
12602SOL    HW238506   5.088   2.901   7.130 -0.2213 -0.2836 -0.5180
12603SOL     OW38507   7.811   1.338   7.120 -0.0184 -0.2079 -0.1025
12603SOL    HW138508   7.718   1.343   7.098 -0.1365 -0.6667  0.2747
12603SOL    HW238509   7.856   1.366   7.040 -0.4846  0.5210 -0.1148
12604SOL     OW38510   5.656   6.621   1.418  0.1805 -0.4522 -0.6085
12604SOL    HW138511   5.748   6.619   1.391  0.8144  1.1722  1.2316
12604SOL    HW238512   5.657   6.598   1.510 -1.1257  0.5418 -0.3084
12605SOL     OW38513   5.546   4.175   3.580 -0.6515 -0.2183 -0.1026
12605SOL    HW138514   5.472   4.173   3.640 -1.2645 -0.1803 -0.8473
12605SOL    HW238515   5.550   4.265   3.549  0.6173  0.1565  1.0217
12606SOL     OW38516   3.205   5.112   7.188  0.4999 -1.2832  0.1640
12606SOL    HW138517   3.150   5.087   7.261 -0.0322 -0.8804 -0.0975
12606SOL    HW238518   3.215   5.207   7.195 -1.3500 -0.8947 -1.4900
12607SOL     OW38519   3.464   0.703   7.319  0.1849 -0.1401  0.3376
12607SOL    HW138520   3.459   0.608   7.310 -0.6584  0.0502 -1.7907
12607SOL    HW238521   3.375   0.734   7.306  0.4867  0.9608  0.7439
12608SOL     OW38522   1.070   4.649   5.816 -0.9802  0.1687 -0.4066
12608SOL    HW138523   1.024   4.567   5.832  1.1832 -0.8911  0.9253
12608SOL    HW238524   1.098   4.643   5.724 -3.4463  0.8816 -1.2672
12609SOL     OW38525   5.324   6.199   4.634  0.5730 -0.5162 -0.3294
12609SOL    HW138526   5.404   6.220   4.682  0.7297  1.6484 -1.4326
12609SOL    HW238527   5.259   6.186   4.703  1.0662  1.3290  0.5568
12610SOL     OW38528   4.221   5.625   3.322 -0.1883 -0.3635 -0.1922
12610SOL    HW138529   4.215   5.625   3.226  1.1565  0.0584 -0.3047
12610SOL    HW238530   4.315   5.629   3.339 -0.4746  1.3947  1.1472
12611SOL     OW38531   3.481   0.894   3.037 -0.4535  0.0770 -0.1475
12611SOL    HW138532   3.423   0.836   2.987 -2.5162  1.2519  0.7426
12611SOL    HW238533   3.498   0.846   3.118 -0.1455 -0.3027 -0.4372
12612SOL     OW38534   3.819   4.391   1.952  0.4559  0.6168  0.3235
12612SOL    HW138535   3.733   4.362   1.922  0.5199  0.0511  0.6702
12612SOL    HW238536   3.864   4.310   1.979  0.6526  1.0297  1.2652
12613SOL     OW38537   3.558   1.375   6.237 -0.1796  0.4123  0.1892
12613SOL    HW138538   3.577   1.387   6.330  0.0837  0.2213  0.1610
12613SOL    HW238539   3.466   1.350   6.235  0.0570 -0.5573  0.4856
12614SOL     OW38540   4.328   6.242   4.609  0.2540  0.2343 -0.4118
12614SOL    HW138541   4.378   6.221   4.688  0.1239 -1.1921 -0.6814
12614SOL    HW238542   4.388   6.223   4.537  0.3246  1.4013 -0.6787
12615SOL     OW38543   2.339   1.232   6.871 -0.2801 -0.6618 -0.3176
12615SOL    HW138544   2.296   1.157   6.911  1.0528 -2.0093 -1.3106
12615SOL    HW238545   2.427   1.232   6.909 -0.0311 -0.0220 -0.8717
12616SOL     OW38546   7.936   0.801   2.675 -0.3020  0.2318 -0.0724
12616SOL    HW138547   8.031   0.811   2.671 -0.4267  1.4050 -0.7476
12616SOL    HW238548   7.915   0.805   2.768  0.3412 -0.4199  0.1046
12617SOL     OW38549   5.575   0.425   5.466 -0.0511 -0.4736 -0.1125
12617SOL    HW138550   5.534   0.503   5.428  0.5255 -0.0587  0.0990
12617SOL    HW238551   5.516   0.353   5.443 -0.1371 -0.1110 -1.0866
12618SOL     OW38552   3.611   6.085   2.850 -0.0833  0.4689 -0.2224
12618SOL    HW138553   3.523   6.070   2.885 -0.4145 -0.5034 -1.4138
12618SOL    HW238554   3.670   6.052   2.919 -0.7423 -3.2433 -1.2112
12619SOL     OW38555   4.982   1.512   3.045  0.0155  0.4192  0.1508
12619SOL    HW138556   4.916   1.541   3.108  0.2040  0.0347  0.5282
12619SOL    HW238557   5.059   1.567   3.064 -0.4978  1.5895 -0.9619
12620SOL     OW38558   0.696   1.966   6.661  0.1277  0.1960  0.4091
12620SOL    HW138559   0.626   1.976   6.596  0.1474  1.5124  0.5785
12620SOL    HW238560   0.663   2.011   6.739  0.6778 -0.2069  0.8853
12621SOL     OW38561   0.663   0.996   6.661  0.6145  0.2235 -0.6877
12621SOL    HW138562   0.583   0.951   6.631  0.3511 -0.3381  0.7625
12621SOL    HW238563   0.729   0.927   6.663  0.0404 -0.3497  2.2081
12622SOL     OW38564   4.856   2.571   6.776 -0.6287 -0.0112  0.3289
12622SOL    HW138565   4.917   2.560   6.703  0.0237  0.8424  0.7298
12622SOL    HW238566   4.880   2.504   6.839 -1.1102 -0.6668 -0.1711
12623SOL     OW38567   7.123   1.767   6.719 -0.0816  0.2518 -0.2736
12623SOL    HW138568   7.152   1.694   6.664 -0.9942 -0.1079 -0.3057
12623SOL    HW238569   7.028   1.770   6.706 -0.2572  0.4578  0.9004
12624SOL     OW38570   3.957   1.629   5.173  0.1426  0.0779  0.2835
12624SOL    HW138571   3.910   1.641   5.090  0.3484  1.4712  0.3410
12624SOL    HW238572   3.888   1.609   5.236 -0.2175  0.6444  0.0792
12625SOL     OW38573   4.761   3.363   6.439 -0.0710  0.4300 -0.3240
12625SOL    HW138574   4.773   3.419   6.363  0.2678  3.2344  1.6583
12625SOL    HW238575   4.704   3.413   6.497  0.1231 -1.3608  1.5185
12626SOL     OW38576   4.474   6.204   2.148 -0.0812 -0.0279 -0.2887
12626SOL    HW138577   4.403   6.155   2.191 -1.5009  0.6350 -1.7378
12626SOL    HW238578   4.528   6.137   2.107  0.6167 -0.5922  1.4627
12627SOL     OW38579   3.979   0.861   4.190 -0.1952  0.3712 -0.1231
12627SOL    HW138580   3.907   0.892   4.245 -0.9842 -2.3565  0.5376
12627SOL    HW238581   4.047   0.927   4.200 -1.7646  1.9020  1.0391
12628SOL     OW38582   1.609   7.638   2.238 -0.1156  0.2025 -0.7830
12628SOL    HW138583   1.523   7.609   2.265  0.4661 -1.6999 -0.8341
12628SOL    HW238584   1.598   7.665   2.146 -0.7761  0.6422 -0.5781
12629SOL     OW38585   6.879   2.090   3.979 -0.5382 -0.3197 -0.0101
12629SOL    HW138586   6.867   2.184   3.988  0.0672 -0.1461 -0.8570
12629SOL    HW238587   6.909   2.078   3.888 -2.0614 -1.4737 -0.4097
12630SOL     OW38588   3.913   3.981   3.160 -0.5830 -0.2660  0.1266
12630SOL    HW138589   3.908   4.046   3.231  3.0274  0.2146  0.1422
12630SOL    HW238590   4.007   3.967   3.148 -1.1486 -4.5269 -0.8309
12631SOL     OW38591   7.508   0.284   7.712 -0.7984  0.4028  0.0740
12631SOL    HW138592   7.583   0.234   7.741 -1.0102 -0.0963 -0.2267
12631SOL    HW238593   7.515   0.285   7.616 -0.5103  1.3907  0.0933
12632SOL     OW38594   3.227   6.362   6.878  0.1697 -0.1367  0.3789
12632SOL    HW138595   3.165   6.349   6.806  2.0748 -0.9953 -1.2002
12632SOL    HW238596   3.263   6.450   6.863  0.3235 -0.1812  0.4847
12633SOL     OW38597   4.690   7.518   6.786 -0.3304 -0.0292 -0.0305
12633SOL    HW138598   4.765   7.531   6.727  0.2836 -3.5771 -0.2923
12633SOL    HW238599   4.714   7.564   6.866  1.9123 -0.5737 -0.3248
12634SOL     OW38600   5.117   5.870   0.791  0.1385  0.8406 -0.0129
12634SOL    HW138601   5.048   5.881   0.726 -1.3714  1.7950  1.6545
12634SOL    HW238602   5.071   5.850   0.872  1.6702  2.8934  1.4787
12635SOL     OW38603   1.247   3.842   7.038 -0.4882  0.0745 -0.5223
12635SOL    HW138604   1.206   3.828   7.124 -0.1830  1.1525 -0.1864
12635SOL    HW238605   1.279   3.755   7.013 -0.3443 -0.2095  0.5741
12636SOL     OW38606   0.648   5.802   2.451 -0.7810 -0.3320  0.1785
12636SOL    HW138607   0.705   5.735   2.489  0.4557  0.5628 -0.0273
12636SOL    HW238608   0.685   5.818   2.364 -0.3737  1.3849  0.6399
12637SOL     OW38609   5.582   0.711   2.975  0.3387  0.1650 -0.5593
12637SOL    HW138610   5.677   0.697   2.980  0.4453 -0.4293 -2.9767
12637SOL    HW238611   5.547   0.626   2.948 -1.3779 -0.6455  3.4519
12638SOL     OW38612   4.877   3.059   2.569 -0.7727 -0.1495 -0.0933
12638SOL    HW138613   4.791   3.041   2.607 -1.3187  2.5150  0.1729
12638SOL    HW238614   4.929   3.092   2.642 -0.2647  0.3881 -0.6823
12639SOL     OW38615   3.837   0.772   1.338 -0.1999 -0.3490 -0.1904
12639SOL    HW138616   3.770   0.821   1.290 -0.8427 -1.1584 -0.1355
12639SOL    HW238617   3.862   0.830   1.410 -1.7007 -0.5071  0.4848
12640SOL     OW38618   2.996   6.186   4.681 -0.1018 -0.4369 -0.3606
12640SOL    HW138619   3.058   6.160   4.749  1.2700  0.1185 -1.3531
12640SOL    HW238620   3.048   6.236   4.618 -1.7237  0.8292 -0.7980
12641SOL     OW38621   3.381   6.761   5.551 -0.4728  0.1219  0.2799
12641SOL    HW138622   3.380   6.746   5.645 -1.8646  0.5261  0.3611
12641SOL    HW238623   3.312   6.826   5.536 -0.1619  0.2003 -0.9959
12642SOL     OW38624   1.892   6.634   4.298 -0.1170 -0.2851 -0.1278
12642SOL    HW138625   1.833   6.577   4.348 -0.8999 -0.8028 -1.5576
12642SOL    HW238626   1.841   6.657   4.220  0.9104  0.7996 -0.5010
12643SOL     OW38627   0.127   3.834   1.825  0.2646 -0.4175  0.2053
12643SOL    HW138628   0.079   3.857   1.904  0.9164  1.1115  0.1938
12643SOL    HW238629   0.147   3.741   1.835 -0.6852 -0.5231  1.2717
12644SOL     OW38630   3.287   2.816   7.132 -0.0597 -0.2569 -0.3083
12644SOL    HW138631   3.337   2.869   7.070 -0.6555  0.7274  0.0267
12644SOL    HW238632   3.207   2.794   7.084  0.0217 -0.5362 -0.3154
12645SOL     OW38633   4.468   5.683   2.321  0.0208  0.6572  0.2688
12645SOL    HW138634   4.561   5.695   2.301 -0.5548  0.3847 -3.2530
12645SOL    HW238635   4.445   5.601   2.277 -1.7887  0.4562  1.5027
12646SOL     OW38636   4.846   2.369   1.176 -0.3840  0.1812 -0.2605
12646SOL    HW138637   4.934   2.342   1.152 -0.5975  0.1809 -1.0957
12646SOL    HW238638   4.817   2.304   1.240  0.1116  0.0196 -0.1992
12647SOL     OW38639   4.628   7.014   1.632  0.5728  0.5807 -0.4054
12647SOL    HW138640   4.608   7.079   1.565 -1.2953 -1.1373 -1.6597
12647SOL    HW238641   4.658   6.937   1.582  0.0195 -0.4457  0.7835
12648SOL     OW38642   2.369   6.150   1.425 -0.2558 -0.4816  0.4510
12648SOL    HW138643   2.321   6.113   1.499  0.7883 -0.7905  0.9905
12648SOL    HW238644   2.451   6.183   1.463 -1.3288  2.9356  0.1095
12649SOL     OW38645   2.998   3.736   5.653 -0.1248 -0.4425 -0.8312
12649SOL    HW138646   2.917   3.728   5.703 -0.5074 -1.1554 -1.5453
12649SOL    HW238647   3.044   3.810   5.693 -0.7121 -0.5928  0.1548
12650SOL     OW38648   0.968   4.983   3.671 -0.2242 -0.4866  0.3379
12650SOL    HW138649   0.886   4.953   3.711 -1.4814  1.9184 -0.2264
12650SOL    HW238650   1.036   4.932   3.714 -2.0052 -2.6381  0.7794
12651SOL     OW38651   2.868   1.769   2.408  0.1104 -0.1094  0.2777
12651SOL    HW138652   2.777   1.794   2.393  0.0872 -0.2626  0.1585
12651SOL    HW238653   2.863   1.675   2.430  0.5484 -1.0466 -3.0956
12652SOL     OW38654   3.111   3.037   0.959 -0.1795  0.0900  0.1435
12652SOL    HW138655   3.140   3.104   0.897  0.4283  0.1338  0.4689
12652SOL    HW238656   3.138   3.070   1.045 -2.5827  0.8775  0.6664
12653SOL     OW38657   2.335   4.708   1.257  0.0023  0.1949  0.2944
12653SOL    HW138658   2.369   4.797   1.267 -0.5553  0.4677 -0.2288
12653SOL    HW238659   2.269   4.715   1.189  2.2820 -1.2202 -2.2866
12654SOL     OW38660   1.520   5.649   5.676  0.2100  0.0397 -0.3977
12654SOL    HW138661   1.527   5.562   5.716  0.4007  0.6068  0.8395
12654SOL    HW238662   1.581   5.703   5.725 -1.6834  1.4682  0.5296
12655SOL     OW38663   3.743   7.363   2.067  0.1041  0.3330 -0.5362
12655SOL    HW138664   3.785   7.355   1.982 -0.3694 -0.0537 -0.7352
12655SOL    HW238665   3.735   7.458   2.080  0.6099  0.4018 -0.7020
12656SOL     OW38666   1.514   7.790   4.612 -0.1835 -0.1505  0.3698
12656SOL    HW138667   1.516   7.863   4.674  0.7652 -0.9311  1.3014
12656SOL    HW238668   1.540   7.830   4.529 -1.2349  0.8675  0.5074
12657SOL     OW38669   1.535   7.735   7.870 -0.0919  0.4785 -0.8241
12657SOL    HW138670   1.557   7.643   7.886  0.0937  0.6270 -0.2332
12657SOL    HW238671   1.454   7.749   7.919 -1.1165  0.1589 -2.3290
12658SOL     OW38672   7.501   4.828   3.588  0.0680  0.2220 -1.0413
12658SOL    HW138673   7.455   4.785   3.516 -2.4458 -0.2483  0.7113
12658SOL    HW238674   7.449   4.806   3.666  3.9569 -1.3983  1.4137
12659SOL     OW38675   5.244   5.369   5.694  0.4566 -0.2045 -0.0775
12659SOL    HW138676   5.245   5.464   5.708 -0.3622  0.0003 -1.2996
12659SOL    HW238677   5.172   5.337   5.748 -1.0068  0.2438 -1.6881
12660SOL     OW38678   6.198   3.385   2.817 -0.2658 -0.1891 -0.2774
12660SOL    HW138679   6.269   3.426   2.767  0.2790 -0.2518  0.4335
12660SOL    HW238680   6.223   3.395   2.909 -1.0998 -0.3563 -0.0160
12661SOL     OW38681   1.596   7.549   0.703  0.3690 -0.1156 -0.1864
12661SOL    HW138682   1.689   7.545   0.681  0.3347 -0.5890 -0.2525
12661SOL    HW238683   1.557   7.602   0.634  0.6314  0.3201 -0.0077
12662SOL     OW38684   3.675   4.860   0.685 -0.4846  0.9151  0.0293
12662SOL    HW138685   3.731   4.908   0.625 -0.1214  0.5427  0.0652
12662SOL    HW238686   3.663   4.774   0.643 -1.8404  1.3179 -0.4682
12663SOL     OW38687   0.029   2.096   5.143  0.1043 -0.1219  0.1024
12663SOL    HW138688  -0.031   2.071   5.214  1.7168 -0.7255  1.3081
12663SOL    HW238689   0.071   2.176   5.175  0.8211 -0.3813 -0.1800
12664SOL     OW38690   1.092   6.733   5.673  0.0753 -0.0741  0.1985
12664SOL    HW138691   1.059   6.805   5.726  1.7143 -0.1472  1.3603
12664SOL    HW238692   1.170   6.767   5.630 -0.2336 -0.5714 -0.8115
12665SOL     OW38693   4.358   6.418   5.363  0.0763  0.0194 -0.0010
12665SOL    HW138694   4.399   6.389   5.445  0.5873  0.9175  0.0664
12665SOL    HW238695   4.373   6.512   5.361 -1.5910  0.3052 -0.2026
12666SOL     OW38696   6.994   7.382   0.612 -0.1471  0.7395 -0.0447
12666SOL    HW138697   7.010   7.382   0.517 -0.2077  1.7737 -0.0711
12666SOL    HW238698   6.948   7.300   0.629 -1.2545  1.0979 -1.1296
12667SOL     OW38699   0.762   2.660   6.079 -0.3676  0.0052 -0.0637
12667SOL    HW138700   0.696   2.727   6.061 -0.4845 -0.5694 -1.9920
12667SOL    HW238701   0.829   2.705   6.130 -0.3736  1.6652 -1.4335
12668SOL     OW38702   3.888   6.902   2.807  0.0794  0.4460 -0.1071
12668SOL    HW138703   3.823   6.873   2.743  0.5469  0.0481 -0.4011
12668SOL    HW238704   3.844   6.972   2.855  0.3600  2.1090 -2.1227
12669SOL     OW38705   4.966   3.770   2.623  0.1166 -0.0461  0.0829
12669SOL    HW138706   4.895   3.710   2.647 -0.5693  0.7074 -0.0094
12669SOL    HW238707   4.926   3.831   2.561  0.6095  0.9243  0.6981
12670SOL     OW38708   7.719   7.842   0.112 -0.0780  0.0243  0.2507
12670SOL    HW138709   7.666   7.899   0.055 -0.8326 -0.8902  0.0048
12670SOL    HW238710   7.808   7.875   0.103 -0.4015  0.7527 -0.3963
12671SOL     OW38711   1.033   1.217   2.624 -0.2489  0.5561 -0.9022
12671SOL    HW138712   0.943   1.221   2.654  0.3311 -1.5722  1.4467
12671SOL    HW238713   1.082   1.268   2.688  0.4091  0.4548 -1.3074
12672SOL     OW38714   2.016   6.234   4.127  0.3698  0.2507 -0.4891
12672SOL    HW138715   1.927   6.253   4.157  0.3999 -0.3817  0.0157
12672SOL    HW238716   2.071   6.296   4.175  0.3446 -0.3041  0.2823
12673SOL     OW38717   1.595   5.901   2.146  0.5099  0.1110 -0.6275
12673SOL    HW138718   1.576   5.959   2.073  2.9581 -0.6252 -1.9707
12673SOL    HW238719   1.685   5.923   2.172  0.8282 -1.7595  0.0445
12674SOL     OW38720   6.406   4.786   2.556  0.0224 -0.2525  0.1639
12674SOL    HW138721   6.476   4.834   2.512 -0.1124 -0.7736 -0.6477
12674SOL    HW238722   6.430   4.786   2.648  2.3072 -2.3681 -0.3227
12675SOL     OW38723   2.527   6.647   7.890 -0.7119  0.5374 -0.4575
12675SOL    HW138724   2.439   6.674   7.916 -0.0925  1.0671  1.2515
12675SOL    HW238725   2.533   6.671   7.797 -1.5096  2.8493  0.0264
12676SOL     OW38726   0.717   6.856   1.606 -0.1407  0.3386 -0.1107
12676SOL    HW138727   0.702   6.766   1.634  1.3418 -0.3193 -1.2866
12676SOL    HW238728   0.789   6.886   1.660 -1.0507  1.0799  0.7293
12677SOL     OW38729   0.319   0.125   0.988 -0.1659  0.0294 -0.7914
12677SOL    HW138730   0.396   0.090   0.943  0.2151 -0.0011 -0.1295
12677SOL    HW238731   0.277   0.182   0.924  1.7993  2.0841 -0.3840
12678SOL     OW38732   4.702   0.560   5.878  0.1495  0.5626 -0.7438
12678SOL    HW138733   4.757   0.493   5.837 -1.6828 -1.2125 -0.4646
12678SOL    HW238734   4.667   0.610   5.804 -1.5293 -1.3209 -1.2976
12679SOL     OW38735   3.147   7.582   4.967  0.0924 -0.1172 -0.7396
12679SOL    HW138736   3.080   7.613   5.027  0.4354  0.5605 -0.6957
12679SOL    HW238737   3.228   7.579   5.019  0.0627 -1.1920 -0.7151
12680SOL     OW38738   0.992   3.173   6.974 -0.1751  0.2086  0.0826
12680SOL    HW138739   1.040   3.103   6.930 -0.1981 -0.7468  1.5298
12680SOL    HW238740   0.903   3.141   6.981 -0.3905  0.7670 -0.0262
12681SOL     OW38741   4.846   5.378   1.434  0.4695  0.0053  0.0702
12681SOL    HW138742   4.883   5.290   1.433  0.8849  0.1728 -1.7959
12681SOL    HW238743   4.826   5.394   1.527  2.5807 -1.1222  0.7849
12682SOL     OW38744   1.558   0.806   5.261 -0.7406  0.9646  0.4993
12682SOL    HW138745   1.468   0.772   5.262  0.7052 -3.4290  2.3055
12682SOL    HW238746   1.574   0.835   5.350  0.3615 -0.7925  0.9217
12683SOL     OW38747   2.108   6.183   2.428 -0.3770 -0.2848  0.1005
12683SOL    HW138748   2.089   6.265   2.474 -0.0456  0.1957 -0.6000
12683SOL    HW238749   2.038   6.124   2.454  0.5883 -0.5191  2.4072
12684SOL     OW38750   5.410   3.327   7.246 -0.0792 -0.6596 -0.3580
12684SOL    HW138751   5.383   3.413   7.215 -1.1891 -1.0294 -0.4709
12684SOL    HW238752   5.369   3.318   7.332  0.7583 -0.7280  0.0428
12685SOL     OW38753   1.832   4.105   4.701  0.1120  0.1969 -0.9835
12685SOL    HW138754   1.804   4.153   4.622 -0.1359  1.0982 -0.3600
12685SOL    HW238755   1.840   4.172   4.768  1.0145 -0.4642 -0.4091
12686SOL     OW38756   5.020   1.066   1.070  0.4648  0.3291  0.3994
12686SOL    HW138757   5.010   1.158   1.095 -1.0067  0.2176  0.3030
12686SOL    HW238758   4.972   1.018   1.138 -0.7832 -0.1976 -0.8145
12687SOL     OW38759   1.128   6.451   6.933 -0.0594 -0.0546  0.1243
12687SOL    HW138760   1.207   6.413   6.972  0.7327 -0.6573 -1.9560
12687SOL    HW238761   1.149   6.544   6.922  0.1677 -0.1151  0.0445
12688SOL     OW38762   1.326   3.968   1.842  0.5406 -0.2874 -0.2026
12688SOL    HW138763   1.400   4.027   1.826 -0.1938  0.1342 -2.5477
12688SOL    HW238764   1.254   4.006   1.792 -0.4908 -2.1310 -0.2200
12689SOL     OW38765   0.320   6.310   1.867 -0.9594 -0.3959 -0.0210
12689SOL    HW138766   0.298   6.313   1.960 -2.1127 -0.9573 -0.2582
12689SOL    HW238767   0.267   6.239   1.831  0.0138 -0.6823 -0.9826
12690SOL     OW38768   2.399   7.522   1.173  0.2815 -0.0605 -0.3214
12690SOL    HW138769   2.433   7.592   1.228  1.4621  0.8577 -2.0963
12690SOL    HW238770   2.459   7.449   1.187 -1.3745 -1.0699  2.0913
12691SOL     OW38771   7.495   2.685   3.985 -0.1997  0.9189 -0.1220
12691SOL    HW138772   7.513   2.689   4.079 -0.5472 -0.9333  0.0717
12691SOL    HW238773   7.458   2.770   3.964 -0.5023  1.2304  1.5113
12692SOL     OW38774   6.710   1.784   3.137  0.0928  0.0319 -0.0345
12692SOL    HW138775   6.762   1.722   3.188 -0.4693 -0.0916  0.3990
12692SOL    HW238776   6.772   1.851   3.109  1.0092 -1.3881 -1.6236
12693SOL     OW38777   3.634   6.216   0.234  0.0208 -0.1846  0.0615
12693SOL    HW138778   3.650   6.235   0.142 -2.1851  0.6509 -0.2031
12693SOL    HW238779   3.705   6.261   0.281  0.2189  0.7581 -1.1149
12694SOL     OW38780   2.782   4.685   6.540  0.4223  0.6442 -1.0393
12694SOL    HW138781   2.708   4.633   6.507 -0.1806  1.7441 -1.4976
12694SOL    HW238782   2.767   4.692   6.634  1.4626 -1.4490 -0.6605
12695SOL     OW38783   0.303   7.051   3.663  0.0509 -0.1218 -0.0964
12695SOL    HW138784   0.274   7.142   3.659  1.1289  0.2795  0.6611
12695SOL    HW238785   0.279   7.022   3.752 -0.8413 -0.7875 -0.5358
12696SOL     OW38786   2.066   2.941   7.491 -0.4535 -0.1666 -0.3439
12696SOL    HW138787   2.007   2.879   7.448 -0.4798  0.1446 -0.7683
12696SOL    HW238788   2.109   2.890   7.559 -1.7221 -0.2441  0.4458
12697SOL     OW38789   7.175   0.743   3.034 -0.5868  0.0318 -0.4721
12697SOL    HW138790   7.187   0.837   3.019  0.3364 -0.1675 -1.0608
12697SOL    HW238791   7.211   0.727   3.121 -0.9194  0.2459 -0.2914
12698SOL     OW38792   2.167   7.851   2.274 -0.0875 -0.8031  0.3092
12698SOL    HW138793   2.116   7.914   2.224 -1.9983 -1.0443  1.7863
12698SOL    HW238794   2.199   7.901   2.349 -0.4453 -1.2498  0.7675
12699SOL     OW38795   3.847   5.441   2.223  0.1833 -0.9935  0.2865
12699SOL    HW138796   3.904   5.517   2.217 -2.1777  0.8257 -0.6855
12699SOL    HW238797   3.860   5.394   2.141 -0.5802  0.1098 -0.4919
12700SOL     OW38798   2.022   6.052   0.028 -0.4628 -0.2059 -0.0546
12700SOL    HW138799   2.034   6.145   0.013  0.2986 -0.4124 -0.7994
12700SOL    HW238800   2.108   6.020   0.057 -0.3428 -0.8991 -1.0917
12701SOL     OW38801   3.516   0.487   2.170  0.0116  0.5552  0.2980
12701SOL    HW138802   3.511   0.582   2.183  1.7906  0.6290  0.5985
12701SOL    HW238803   3.609   0.466   2.179 -0.3985 -1.2818  0.6259
12702SOL     OW38804   2.660   3.085   1.880  0.4848  0.0577  0.5443
12702SOL    HW138805   2.674   3.112   1.789  1.7291  0.0222  0.7081
12702SOL    HW238806   2.691   2.994   1.883 -1.1480 -0.5440  0.6253
12703SOL     OW38807   0.404   1.917   7.401 -0.4512 -0.0191 -0.1256
12703SOL    HW138808   0.368   1.904   7.314 -0.4461 -0.6269 -0.0396
12703SOL    HW238809   0.376   2.006   7.426 -1.1097 -0.1400 -0.4243
12704SOL     OW38810   3.241   2.544   0.624 -0.1613 -0.2115 -0.2737
12704SOL    HW138811   3.197   2.491   0.690 -0.2449  0.1814 -0.0083
12704SOL    HW238812   3.334   2.535   0.643 -0.2058  0.2875  0.2022
12705SOL     OW38813   1.930   4.138   0.992 -0.2310  0.3203  0.1962
12705SOL    HW138814   1.999   4.199   1.019 -2.3586  2.3294  1.4884
12705SOL    HW238815   1.936   4.066   1.055 -0.1954  1.1954  1.2284
12706SOL     OW38816   1.370   4.374   6.879 -0.1867  0.3265  0.4444
12706SOL    HW138817   1.313   4.371   6.957 -0.9376  2.0822  0.0084
12706SOL    HW238818   1.318   4.420   6.813  0.0453 -1.9614 -1.4783
12707SOL     OW38819   5.318   4.140   5.079 -0.0526  0.1686 -0.1263
12707SOL    HW138820   5.351   4.127   4.990 -0.7378 -1.1897 -0.2059
12707SOL    HW238821   5.386   4.193   5.122  0.3542  0.7327 -1.3954
12708SOL     OW38822   1.422   7.293   2.284 -0.4469 -0.3387 -0.3653
12708SOL    HW138823   1.396   7.385   2.279 -1.6608 -0.5264  1.5770
12708SOL    HW238824   1.491   7.290   2.350 -0.2323 -0.8004 -0.6041
12709SOL     OW38825   6.632   2.063   4.134 -0.0719  0.0099  0.2247
12709SOL    HW138826   6.714   2.070   4.085  0.1876 -0.3932  0.5983
12709SOL    HW238827   6.565   2.091   4.072  0.3257  0.1399 -0.1498
12710SOL     OW38828   7.111   4.508   0.315 -0.1915 -0.3253 -0.3765
12710SOL    HW138829   7.063   4.483   0.236 -0.2733  0.2193 -0.5037
12710SOL    HW238830   7.133   4.425   0.357 -0.6743 -0.5990 -0.6576
12711SOL     OW38831   6.734   4.144   4.816  0.5005 -0.1433 -0.0340
12711SOL    HW138832   6.791   4.067   4.827 -1.0058 -1.3625 -0.3292
12711SOL    HW238833   6.646   4.110   4.831 -0.2541  1.4520 -0.6626
12712SOL     OW38834   1.188   2.666   1.701  0.2427  0.4474  0.4032
12712SOL    HW138835   1.240   2.635   1.627 -2.2001  2.3073 -2.3299
12712SOL    HW238836   1.107   2.615   1.697 -1.0321  2.3879  0.0297
12713SOL     OW38837   7.473   0.614   7.351 -0.2771 -0.4137 -0.0206
12713SOL    HW138838   7.458   0.574   7.265  1.1172 -0.5899 -0.2037
12713SOL    HW238839   7.419   0.692   7.352  2.1055  1.4327 -2.4011
12714SOL     OW38840   0.198   6.774   2.096  0.5705 -0.2451 -0.3682
12714SOL    HW138841   0.132   6.842   2.086 -0.1194 -0.5634  1.5058
12714SOL    HW238842   0.282   6.820   2.095  0.3542  0.1978 -2.4682
12715SOL     OW38843   5.146   6.049   2.885 -0.1541  0.1978 -0.5156
12715SOL    HW138844   5.116   5.959   2.895  1.5455 -0.4327 -0.7002
12715SOL    HW238845   5.100   6.097   2.954 -0.2489 -1.0307  0.3181
12716SOL     OW38846   5.423   5.888   2.656 -0.0790 -0.3755  0.1184
12716SOL    HW138847   5.437   5.837   2.736 -0.0843 -0.3329  0.1469
12716SOL    HW238848   5.453   5.976   2.679  2.2609 -0.8954 -0.6886
12717SOL     OW38849   4.188   0.207   2.322 -0.2036  0.5219  0.4405
12717SOL    HW138850   4.131   0.274   2.283 -2.7820 -1.2543  0.8831
12717SOL    HW238851   4.212   0.151   2.248 -0.3080  0.4159  0.4862
12718SOL     OW38852   0.141   1.326   4.343 -0.2752 -0.0762  0.6619
12718SOL    HW138853   0.053   1.314   4.379 -0.4937  0.1977  0.2275
12718SOL    HW238854   0.196   1.345   4.419 -0.0025 -3.1383  1.3475
12719SOL     OW38855   5.631   2.169   1.956  0.1822  0.0619  0.0137
12719SOL    HW138856   5.715   2.141   1.991 -0.4575 -0.8203  0.9094
12719SOL    HW238857   5.641   2.264   1.942  2.0392 -0.3456 -2.0505
12720SOL     OW38858   3.208   0.493   1.169 -0.1386 -0.1336  0.4320
12720SOL    HW138859   3.253   0.433   1.109  2.3135  0.3664  1.6443
12720SOL    HW238860   3.238   0.467   1.256  0.7118  2.5437  1.0189
12721SOL     OW38861   5.566   7.310   0.000  0.5763  0.4008 -0.1563
12721SOL    HW138862   5.562   7.281  -0.091  1.6519  0.7849 -0.3433
12721SOL    HW238863   5.549   7.231   0.052 -1.0365  0.3689 -0.6679
12722SOL     OW38864   1.112   3.289   0.196  0.3153 -0.5368  0.2418
12722SOL    HW138865   1.041   3.298   0.259 -0.9689  1.4999 -1.3527
12722SOL    HW238866   1.085   3.216   0.140  0.4454 -1.0035  0.7769
12723SOL     OW38867   3.776   4.954   6.904  0.1849 -0.1580  0.0571
12723SOL    HW138868   3.695   5.003   6.890 -0.0137 -0.8429 -1.5170
12723SOL    HW238869   3.752   4.884   6.965 -1.0838 -1.7430 -2.1061
12724SOL     OW38870   7.238   4.387   0.078 -0.1302 -0.2501  0.3737
12724SOL    HW138871   7.195   4.310   0.114 -0.1433  0.0104  0.9120
12724SOL    HW238872   7.309   4.406   0.139 -1.0080  1.0285  1.0551
12725SOL     OW38873   1.838   3.610   0.626  0.6154  0.0987  0.0802
12725SOL    HW138874   1.842   3.515   0.640 -0.2642 -0.1689 -1.2760
12725SOL    HW238875   1.920   3.631   0.583  0.9972  0.0265  0.7680
12726SOL     OW38876   0.385   4.852   3.443 -0.0158 -0.2483  0.0093
12726SOL    HW138877   0.386   4.833   3.537  1.4640 -0.5613 -0.0453
12726SOL    HW238878   0.328   4.785   3.405 -3.0570  1.6031  0.9599
12727SOL     OW38879   4.101   5.611   6.804  0.2100 -0.9734 -0.3993
12727SOL    HW138880   4.103   5.610   6.899  0.6080 -0.4110 -0.3925
12727SOL    HW238881   4.191   5.591   6.778  0.4907  0.4564 -0.6206
12728SOL     OW38882   2.721   2.259   2.851  0.2521 -0.0514 -0.1222
12728SOL    HW138883   2.684   2.201   2.785  0.8286  0.0784 -0.5676
12728SOL    HW238884   2.775   2.202   2.905 -2.2704 -0.7019  1.9360
12729SOL     OW38885   4.241   2.172   4.183  0.3686  0.0835 -0.2003
12729SOL    HW138886   4.285   2.107   4.128  1.5788  2.2153 -1.9362
12729SOL    HW238887   4.304   2.191   4.253  1.0321  1.0259 -1.0274
12730SOL     OW38888   4.496   0.597   3.868  0.1327  0.0043 -0.7452
12730SOL    HW138889   4.548   0.547   3.805 -2.7096  0.2098 -3.5192
12730SOL    HW238890   4.434   0.534   3.904  0.5837  0.2766  0.5639
12731SOL     OW38891   7.670   4.315   7.037 -0.4686  0.2660 -0.1619
12731SOL    HW138892   7.584   4.357   7.046  0.7292  2.8874  0.0218
12731SOL    HW238893   7.732   4.381   7.066  1.5844 -2.0297  1.0564
12732SOL     OW38894   7.609   6.742   1.822 -0.4778  0.2422 -0.4183
12732SOL    HW138895   7.669   6.791   1.766  0.4949  0.4396  0.7598
12732SOL    HW238896   7.603   6.656   1.781  5.1086 -1.8599  2.1817
12733SOL     OW38897   4.343   3.749   0.522 -0.7562  0.3557  0.3664
12733SOL    HW138898   4.406   3.820   0.507  0.4289 -0.2333  2.2562
12733SOL    HW238899   4.269   3.792   0.564 -0.0992  0.5402  1.3802
12734SOL     OW38900   6.822   6.675   2.319  0.8257 -0.1207  0.4458
12734SOL    HW138901   6.811   6.608   2.251  0.3615 -1.6460  1.9502
12734SOL    HW238902   6.751   6.658   2.380  1.0086  1.4701  1.1201
12735SOL     OW38903   0.006   5.284   2.314  0.3362 -0.1791  0.4647
12735SOL    HW138904   0.019   5.258   2.406  0.8355  1.0039  0.7464
12735SOL    HW238905  -0.086   5.311   2.309 -0.0186 -1.3717  0.3161
12736SOL     OW38906   4.766   5.722   0.828 -0.2306  0.8277 -0.3019
12736SOL    HW138907   4.801   5.757   0.746  0.0147 -0.5361 -0.8164
12736SOL    HW238908   4.820   5.644   0.845  0.2622  1.5246  1.5915
12737SOL     OW38909   3.602   7.703   4.434 -0.5339  0.4617  0.3320
12737SOL    HW138910   3.640   7.784   4.470  0.1715  0.7561 -1.0136
12737SOL    HW238911   3.548   7.732   4.361 -2.0092 -0.1261  1.1475
12738SOL     OW38912   3.240   1.612   2.647 -0.0228 -0.0608 -0.6231
12738SOL    HW138913   3.263   1.528   2.606  0.6712  0.1537 -0.6831
12738SOL    HW238914   3.145   1.610   2.652 -0.0409 -0.6717 -1.0181
12739SOL     OW38915   5.750   7.182   2.282 -0.1021  0.3892  0.1640
12739SOL    HW138916   5.712   7.269   2.268 -1.0516  0.0525  0.5894
12739SOL    HW238917   5.819   7.196   2.348  0.6527  1.0306 -0.7329
12740SOL     OW38918   5.855   2.014   7.566  0.3115  0.0046  0.5328
12740SOL    HW138919   5.780   2.016   7.626  1.0348 -1.5232  1.5578
12740SOL    HW238920   5.890   2.103   7.568 -0.5529  0.3431  1.2424
12741SOL     OW38921   5.937   6.145   1.577  0.3451  0.7460 -0.0420
12741SOL    HW138922   5.888   6.205   1.521  0.2301  0.2035 -0.5200
12741SOL    HW238923   5.975   6.202   1.645  1.7315  1.6386 -1.4966
12742SOL     OW38924   2.958   6.078   4.104  0.3738  0.0065 -0.0864
12742SOL    HW138925   2.932   6.095   4.194 -0.0503 -0.9729 -0.0156
12742SOL    HW238926   2.995   6.161   4.074  0.5280  0.3421  0.9850
12743SOL     OW38927   0.920   0.056   0.677  0.2539 -0.2501  0.2433
12743SOL    HW138928   0.988   0.002   0.637  0.4451 -0.7052  1.1418
12743SOL    HW238929   0.930   0.040   0.771  0.3083  1.3500  0.5428
12744SOL     OW38930   0.367   5.336   2.813 -0.1150 -0.5531  0.1189
12744SOL    HW138931   0.376   5.397   2.741 -0.6602  0.5131  0.9244
12744SOL    HW238932   0.301   5.273   2.784 -1.7195  0.9324  0.3478
12745SOL     OW38933   2.667   5.366   3.756  0.2028  0.4457 -0.7195
12745SOL    HW138934   2.676   5.271   3.762  0.8325  0.5186 -0.4978
12745SOL    HW238935   2.728   5.392   3.688 -0.3134  0.6432 -1.1090
12746SOL     OW38936   6.121   4.062   1.199 -0.1523  0.2319 -0.7991
12746SOL    HW138937   6.120   4.091   1.290 -1.5934  3.0783 -1.5731
12746SOL    HW238938   6.045   4.005   1.191 -1.5263  1.9322 -0.6518
12747SOL     OW38939   3.475   3.663   4.407 -0.2068  0.0148 -0.0053
12747SOL    HW138940   3.548   3.650   4.346 -0.6589  2.7840 -1.3218
12747SOL    HW238941   3.512   3.714   4.479 -0.3174 -0.7742  0.6262
12748SOL     OW38942   2.090   4.204   3.058  0.3259 -0.0654 -0.1788
12748SOL    HW138943   2.089   4.111   3.040 -0.9181 -0.3668  1.2104
12748SOL    HW238944   2.169   4.218   3.110  0.9988 -0.1661 -1.1678
12749SOL     OW38945   7.319   1.070   4.692  0.3778  0.2819 -0.0258
12749SOL    HW138946   7.385   1.098   4.756 -0.1541 -2.2158  1.7552
12749SOL    HW238947   7.369   1.035   4.619  1.1755 -2.1624  1.5582
12750SOL     OW38948   7.033   2.328   4.136 -0.1996  0.3264  0.0489
12750SOL    HW138949   6.988   2.393   4.190  0.5659  0.0523  1.0495
12750SOL    HW238950   7.122   2.360   4.130  0.1167 -0.4708  0.3122
12751SOL     OW38951   7.658   7.227   3.753  0.9199  0.6194  0.4995
12751SOL    HW138952   7.641   7.288   3.681  0.6733 -0.7381 -0.6519
12751SOL    HW238953   7.752   7.212   3.749  0.6459 -1.0203 -0.9251
12752SOL     OW38954   1.803   7.378   0.879  0.3648  0.2655 -0.2278
12752SOL    HW138955   1.838   7.311   0.939 -2.6893 -0.2453  1.1971
12752SOL    HW238956   1.762   7.327   0.809  0.3325  0.7394 -0.5532
12753SOL     OW38957   4.454   4.473   3.261  0.0189  0.2230  0.1753
12753SOL    HW138958   4.405   4.555   3.267  3.4119  2.3592  2.3114
12753SOL    HW238959   4.479   4.454   3.351  1.5837 -1.6886 -0.5946
12754SOL     OW38960   2.851   4.393   5.631 -0.1794 -0.5987 -0.3397
12754SOL    HW138961   2.947   4.388   5.632 -0.0580  1.1475 -0.7145
12754SOL    HW238962   2.823   4.303   5.649  1.5330 -1.5473 -1.9171
12755SOL     OW38963   4.014   3.520   1.080 -0.5209 -0.8629 -0.2370
12755SOL    HW138964   3.998   3.614   1.081  0.8525 -0.6154 -0.2769
12755SOL    HW238965   4.090   3.508   1.024  0.7986 -1.7256  1.6294
12756SOL     OW38966   7.195   1.668   6.968 -0.2229 -0.9193  0.6758
12756SOL    HW138967   7.163   1.723   6.895 -0.6602 -0.7579  0.9824
12756SOL    HW238968   7.123   1.608   6.986 -0.3112 -0.6406  1.2912
12757SOL     OW38969   1.542   1.608   6.819 -0.1937  0.3559 -0.4382
12757SOL    HW138970   1.468   1.624   6.760  0.2448  2.5984 -0.4696
12757SOL    HW238971   1.550   1.689   6.869  2.3837  0.2918 -0.6263
12758SOL     OW38972   6.400   4.758   5.684  0.5348 -0.3067 -0.4065
12758SOL    HW138973   6.433   4.716   5.763  0.9308 -0.2782 -0.5536
12758SOL    HW238974   6.328   4.813   5.714 -0.0104 -1.0993 -0.2114
12759SOL     OW38975   6.327   5.138   1.821  0.5480 -0.1564  0.2702
12759SOL    HW138976   6.339   5.119   1.728 -0.3835 -0.6634  0.2420
12759SOL    HW238977   6.412   5.121   1.860  0.9118 -0.0858 -0.4638
12760SOL     OW38978   6.423   0.819   5.616 -0.3247 -0.7836 -0.3043
12760SOL    HW138979   6.480   0.743   5.621  0.2168 -0.4413 -1.0663
12760SOL    HW238980   6.401   0.827   5.523  1.2700  1.1498 -0.5830
12761SOL     OW38981   0.476   0.219   4.497  0.3035  0.2568 -0.0780
12761SOL    HW138982   0.539   0.159   4.459 -0.0798 -1.1287  1.3717
12761SOL    HW238983   0.490   0.302   4.451  1.0452 -0.8442 -1.9257
12762SOL     OW38984   6.580   6.933   2.075  0.0350 -0.1910 -0.3855
12762SOL    HW138985   6.604   6.889   2.157 -0.6043  1.7889  0.9318
12762SOL    HW238986   6.640   7.007   2.069  0.9420 -1.0084 -2.4486
12763SOL     OW38987   0.615   7.090   5.601 -0.4828 -0.3887  0.4805
12763SOL    HW138988   0.576   7.056   5.520  1.3842 -0.7565 -0.3301
12763SOL    HW238989   0.632   7.183   5.582 -0.1255 -0.4551  0.4564
12764SOL     OW38990   4.875   7.579   3.232 -0.3205  0.4373  0.6530
12764SOL    HW138991   4.945   7.561   3.295 -0.2010  0.5109  0.5424
12764SOL    HW238992   4.812   7.632   3.282  0.0846  1.0451  0.5334
12765SOL     OW38993   4.529   1.921   2.186 -0.3927 -0.2766  0.3030
12765SOL    HW138994   4.614   1.964   2.171 -1.5498  2.1599  0.2180
12765SOL    HW238995   4.534   1.891   2.277 -0.5507  2.9212  1.5238
12766SOL     OW38996   2.224   2.382   7.963 -0.1180  0.3030 -0.6563
12766SOL    HW138997   2.227   2.415   8.053 -0.9397  2.3747 -1.3169
12766SOL    HW238998   2.159   2.312   7.965 -0.2504  0.4435  0.3208
12767SOL     OW38999   6.635   1.156   0.994 -0.3284 -0.3596 -0.5190
12767SOL    HW139000   6.598   1.068   0.998 -0.4368 -0.4458 -2.4381
12767SOL    HW239001   6.715   1.145   0.941  0.0114  0.5926 -0.2203
12768SOL     OW39002   3.033   2.665   0.135  0.3719 -0.4351 -0.4389
12768SOL    HW139003   2.982   2.691   0.058 -0.2589  0.5047  0.2775
12768SOL    HW239004   3.090   2.596   0.103  1.1008  0.8492 -2.1045
12769SOL     OW39005   3.392   1.123   3.395 -0.4912 -0.2911 -0.1221
12769SOL    HW139006   3.391   1.174   3.476 -0.9066 -0.8201  0.2167
12769SOL    HW239007   3.346   1.178   3.331  1.0315  0.7227 -0.3901
12770SOL     OW39008   7.001   5.532   1.579  0.0365  0.4567  0.2544
12770SOL    HW139009   7.092   5.516   1.603  0.3143  1.3100 -0.1895
12770SOL    HW239010   6.993   5.499   1.489 -0.1955  0.0413  0.4243
12771SOL     OW39011   5.231   0.144   1.154  0.4400  0.4272 -0.4120
12771SOL    HW139012   5.187   0.075   1.203 -1.9285  2.4038  0.4364
12771SOL    HW239013   5.295   0.097   1.100  1.9993 -2.0555  3.1756
12772SOL     OW39014   1.172   7.959   6.727  0.6927  0.0961 -0.3231
12772SOL    HW139015   1.112   7.906   6.673 -0.6042  0.2060  0.9487
12772SOL    HW239016   1.132   8.046   6.728  0.1918 -0.1143  1.5011
12773SOL     OW39017   7.518   6.911   6.231 -0.1213  0.1462  0.2294
12773SOL    HW139018   7.549   6.951   6.312 -0.1327  0.0703  0.2717
12773SOL    HW239019   7.541   6.818   6.240 -0.5984  0.0402  0.3814
12774SOL     OW39020   7.474   7.161   3.997  0.3096  0.1405 -0.0125
12774SOL    HW139021   7.544   7.167   3.932  0.6317  1.7816  0.4352
12774SOL    HW239022   7.393   7.167   3.946  0.5493  0.7803 -0.3258
12775SOL     OW39023   1.304   1.091   3.202  0.8493 -0.0945 -0.2527
12775SOL    HW139024   1.352   1.091   3.119 -0.9335 -2.1147 -1.3892
12775SOL    HW239025   1.348   1.157   3.255  2.5109  0.7662 -2.5336
12776SOL     OW39026   6.956   0.697   0.839  0.2820  0.2179 -0.1802
12776SOL    HW139027   6.934   0.709   0.932  1.0121 -0.9834  0.1656
12776SOL    HW239028   6.943   0.783   0.800 -1.5886  0.3798  0.7062
12777SOL     OW39029   6.496   7.739   3.995  0.2550  0.2053  0.5064
12777SOL    HW139030   6.471   7.829   4.011 -1.2034  0.0281 -0.6368
12777SOL    HW239031   6.425   7.702   3.943  1.8766 -0.9595 -1.0261
12778SOL     OW39032   6.412   5.505   4.290 -0.0302 -0.2905 -0.1911
12778SOL    HW139033   6.499   5.543   4.277 -0.4408  0.9318  0.4931
12778SOL    HW239034   6.354   5.561   4.237 -0.6982  0.2800  1.1147
12779SOL     OW39035   7.774   1.338   3.763  0.2520 -0.4265  0.3244
12779SOL    HW139036   7.777   1.431   3.787  2.4784 -0.2920 -0.2505
12779SOL    HW239037   7.706   1.332   3.696  0.6125  0.9573 -0.1911
12780SOL     OW39038   7.193   2.585   4.762  0.6753  0.3517  0.3561
12780SOL    HW139039   7.148   2.505   4.735  0.9834  0.9911 -2.4295
12780SOL    HW239040   7.282   2.557   4.783  0.5680 -0.1532  0.1509
12781SOL     OW39041   0.638   7.537   6.468 -0.8605 -0.5677 -0.4241
12781SOL    HW139042   0.718   7.582   6.496 -1.0195 -0.7339  0.3150
12781SOL    HW239043   0.610   7.488   6.546 -0.6265 -2.0230 -1.2269
12782SOL     OW39044   6.612   0.749   5.007 -0.2646 -0.0361 -0.5898
12782SOL    HW139045   6.518   0.746   5.023 -0.3505  0.6896 -0.9244
12782SOL    HW239046   6.624   0.824   4.948  0.7022  0.8625  0.7141
12783SOL     OW39047   2.755   4.024   0.093  0.0032  0.5515 -0.6661
12783SOL    HW139048   2.738   4.106   0.140  1.8886 -0.5094  2.1119
12783SOL    HW239049   2.674   4.006   0.046 -2.0052  1.8646  2.0453
12784SOL     OW39050   2.264   7.136   1.926 -0.4459 -0.1995 -0.0695
12784SOL    HW139051   2.321   7.132   1.849 -0.1784 -0.4696  0.1381
12784SOL    HW239052   2.211   7.214   1.912 -1.0679 -0.7628 -0.9947
12785SOL     OW39053   0.488   7.226   3.820  0.0967  0.1976 -0.2232
12785SOL    HW139054   0.549   7.265   3.757 -0.2274  2.0016  0.5498
12785SOL    HW239055   0.401   7.240   3.782  0.0457 -1.3841 -0.7815
12786SOL     OW39056   7.489   4.374   3.154  0.5967  0.0192 -0.0904
12786SOL    HW139057   7.565   4.340   3.202  1.1297  0.4988 -0.5810
12786SOL    HW239058   7.501   4.342   3.065  0.0394 -0.1783 -0.0983
12787SOL     OW39059   1.799   2.098   7.322  0.4309 -1.1140 -0.0340
12787SOL    HW139060   1.744   2.153   7.267  0.8120 -0.1853  0.4904
12787SOL    HW239061   1.807   2.016   7.273 -2.0882 -1.6083  0.2616
12788SOL     OW39062   7.071   6.158   1.332 -0.4748  0.2783 -0.3538
12788SOL    HW139063   7.091   6.067   1.353  0.1473  0.8905  2.0075
12788SOL    HW239064   6.975   6.160   1.324 -0.6753 -0.2351  1.5667
12789SOL     OW39065   2.972   0.883   3.662  0.2816 -0.0328  0.4721
12789SOL    HW139066   3.003   0.973   3.656  0.0410 -0.0212 -1.1239
12789SOL    HW239067   3.006   0.841   3.583  1.0774 -1.5752  1.5962
12790SOL     OW39068   2.346   6.292   3.074 -0.3747  0.0004  0.9945
12790SOL    HW139069   2.254   6.264   3.071 -0.5230  0.5184  0.5180
12790SOL    HW239070   2.342   6.388   3.066  0.2562 -0.0503 -0.0799
12791SOL     OW39071   4.009   4.945   4.461  0.0448 -0.0455  0.4518
12791SOL    HW139072   4.031   5.003   4.387 -0.1545 -0.7739 -0.1949
12791SOL    HW239073   3.924   4.909   4.438  0.5130 -1.1922  0.4665
12792SOL     OW39074   7.640   4.024   5.357  0.3023  0.2977  0.6195
12792SOL    HW139075   7.638   3.997   5.449  0.9298 -0.4827  0.4161
12792SOL    HW239076   7.686   4.108   5.358  0.0817  0.4159  1.0453
12793SOL     OW39077   6.654   4.759   4.969  1.0230  0.1223  0.4530
12793SOL    HW139078   6.671   4.691   4.904  1.3563  1.0070 -0.4075
12793SOL    HW239079   6.658   4.713   5.053  0.3854 -1.0758 -0.1477
12794SOL     OW39080   2.233   3.384   6.823  0.1096  0.1590 -0.2624
12794SOL    HW139081   2.158   3.379   6.765 -0.3670  1.0800  0.2420
12794SOL    HW239082   2.303   3.419   6.769  0.0271 -0.1841 -0.5969
12795SOL     OW39083   4.999   3.350   6.604  0.5990 -0.2181 -0.1298
12795SOL    HW139084   5.004   3.442   6.630  0.5586  0.1674 -1.3821
12795SOL    HW239085   4.915   3.343   6.557  0.0557 -1.1742  0.9309
12796SOL     OW39086   3.104   0.112   4.214  0.0686 -0.3754  0.0023
12796SOL    HW139087   3.032   0.105   4.276 -0.3639  0.1942 -0.4241
12796SOL    HW239088   3.182   0.095   4.267 -0.3957 -1.5447  0.3605
12797SOL     OW39089   3.516   3.423   6.080  0.4646  0.3188 -0.3170
12797SOL    HW139090   3.567   3.450   6.157  0.1025  1.3970 -0.4289
12797SOL    HW239091   3.533   3.492   6.015 -1.7711  1.2061 -0.0551
12798SOL     OW39092   2.219   0.327   1.732 -0.5219  0.6685 -0.2936
12798SOL    HW139093   2.213   0.260   1.800 -0.4391  1.6146  0.6798
12798SOL    HW239094   2.313   0.340   1.720 -0.4955 -0.5025 -1.6529
12799SOL     OW39095   3.116   3.056   6.580  0.3839 -0.1641 -0.1543
12799SOL    HW139096   3.108   3.097   6.494  2.0486 -1.6823 -1.0980
12799SOL    HW239097   3.095   2.964   6.565  1.5690 -0.6288  0.8601
12800SOL     OW39098   1.142   7.585   7.792 -0.2495  0.0204  0.1100
12800SOL    HW139099   1.095   7.556   7.713 -1.3799 -0.4602  0.9331
12800SOL    HW239100   1.235   7.578   7.768 -0.5719  0.1121 -1.2520
12801SOL     OW39101   7.651   2.383   2.314  0.3600  0.1219  0.3097
12801SOL    HW139102   7.654   2.376   2.410  0.4630 -0.4813  0.2648
12801SOL    HW239103   7.578   2.327   2.288 -0.1180  0.8316  0.0788
12802SOL     OW39104   1.665   2.360   5.730  0.2045  0.8043  0.0133
12802SOL    HW139105   1.737   2.351   5.792 -0.6651 -1.1506  0.8041
12802SOL    HW239106   1.662   2.277   5.683 -0.1564  1.6702 -1.5934
12803SOL     OW39107   3.478   2.498   1.394 -0.3941 -0.1185  0.1433
12803SOL    HW139108   3.472   2.449   1.476 -3.3638 -3.8985 -1.9798
12803SOL    HW239109   3.571   2.491   1.370 -0.0347 -1.6951  1.6861
12804SOL     OW39110   7.500   1.172   3.455  0.0552 -0.0684 -0.0529
12804SOL    HW139111   7.468   1.146   3.542 -2.5633  0.0419 -0.8863
12804SOL    HW239112   7.578   1.224   3.473 -0.3374 -0.1319  2.2338
12805SOL     OW39113   2.751   0.270   3.242 -0.1497  0.3237 -0.2754
12805SOL    HW139114   2.714   0.313   3.318  0.6644  0.6649 -0.0667
12805SOL    HW239115   2.829   0.225   3.275  0.1863  0.4424 -0.8961
12806SOL     OW39116   4.717   5.377   3.223  0.4270 -0.1683 -0.0990
12806SOL    HW139117   4.714   5.426   3.141  1.5287  0.0919  0.0029
12806SOL    HW239118   4.783   5.309   3.208 -0.6750 -1.3081 -0.0494
12807SOL     OW39119   5.870   7.706   4.131  0.5688 -0.0633 -0.2233
12807SOL    HW139120   5.790   7.740   4.170  0.5244 -2.0396  1.6243
12807SOL    HW239121   5.840   7.654   4.055  0.0744 -0.7491  0.4266
12808SOL     OW39122   1.907   4.042   7.974 -0.4888 -0.1669  0.1315
12808SOL    HW139123   1.984   4.002   7.934  1.4960  1.2044  2.2898
12808SOL    HW239124   1.856   4.076   7.900  1.4900 -0.2504 -1.3518
12809SOL     OW39125   0.216   1.992   5.940  0.8675  0.2856 -0.2802
12809SOL    HW139126   0.272   1.948   6.005  0.8453  0.4439 -0.1516
12809SOL    HW239127   0.141   1.934   5.930  2.3781 -1.4093 -2.6320
12810SOL     OW39128   1.372   3.032   2.386  0.1919  0.3638  0.6202
12810SOL    HW139129   1.330   3.077   2.460  2.2144  0.2940  1.8747
12810SOL    HW239130   1.355   2.939   2.402  1.3194  0.2906  1.4768
12811SOL     OW39131   5.210   0.250   7.735 -0.0787  0.0192 -0.4343
12811SOL    HW139132   5.185   0.260   7.827  0.3291  2.2977 -0.5046
12811SOL    HW239133   5.132   0.277   7.687  0.3029  0.6233 -0.7222
12812SOL     OW39134   3.094   1.195   4.521 -0.1353  0.1985  0.1749
12812SOL    HW139135   3.052   1.146   4.592 -0.5112 -0.4372 -0.4696
12812SOL    HW239136   3.112   1.129   4.454  1.0374  0.6247  0.0401
12813SOL     OW39137   4.845   5.239   7.683  0.3438 -0.2552 -0.3879
12813SOL    HW139138   4.831   5.241   7.778  0.7360 -0.4395 -0.3254
12813SOL    HW239139   4.758   5.228   7.647 -0.0948  1.9746 -0.1357
12814SOL     OW39140   0.046   6.221   0.675 -0.5470  0.0296 -0.4820
12814SOL    HW139141   0.015   6.246   0.762 -1.7057 -0.1122 -0.8238
12814SOL    HW239142   0.037   6.301   0.623  0.3339  0.1681 -0.4297
12815SOL     OW39143   0.877   3.011   0.296  0.2544 -0.2573  0.2635
12815SOL    HW139144   0.886   3.040   0.205 -2.7677  0.0882 -0.0227
12815SOL    HW239145   0.953   2.954   0.310  1.6784  0.9331 -1.9234
12816SOL     OW39146   5.770   3.037   7.704 -0.4148 -0.1027  0.2765
12816SOL    HW139147   5.854   3.000   7.732 -1.0920 -1.2885  0.8102
12816SOL    HW239148   5.727   2.965   7.657 -0.2687  1.1215 -1.9056
12817SOL     OW39149   2.736   4.820   1.655 -0.3815 -0.1864  0.0842
12817SOL    HW139150   2.761   4.818   1.748 -0.4454 -2.8207  0.1085
12817SOL    HW239151   2.801   4.877   1.614  0.4247 -0.0151  1.5243
12818SOL     OW39152   2.723   0.703   6.552 -0.5592 -0.6111  0.0378
12818SOL    HW139153   2.780   0.776   6.578  1.4512 -2.3519  0.8095
12818SOL    HW239154   2.641   0.745   6.526  0.0879  1.8244  1.5954
12819SOL     OW39155   7.520   1.562   4.387  0.6289  0.1635 -0.2758
12819SOL    HW139156   7.436   1.518   4.404  0.4523  1.2225  1.8882
12819SOL    HW239157   7.499   1.626   4.319  0.1202 -0.7673 -1.0324
12820SOL     OW39158   5.199   7.161   2.087  0.3466  0.2927  0.1709
12820SOL    HW139159   5.117   7.201   2.117  1.0106  0.2015  2.2819
12820SOL    HW239160   5.266   7.227   2.108  0.9063  0.1281 -1.0019
12821SOL     OW39161   5.701   1.250   0.386  0.1229 -0.3252  0.7726
12821SOL    HW139162   5.641   1.201   0.329 -2.3477  2.6422  0.5589
12821SOL    HW239163   5.737   1.318   0.329  1.7469 -0.4947  1.5590
12822SOL     OW39164   3.537   2.595   0.991 -0.0283 -0.6023 -0.0701
12822SOL    HW139165   3.502   2.593   0.902  0.2345  1.4582 -0.2909
12822SOL    HW239166   3.630   2.612   0.979 -0.0839  0.2393  0.5799
12823SOL     OW39167   4.858   2.353   5.890  0.1755 -0.3323 -0.1953
12823SOL    HW139168   4.783   2.395   5.848  0.5296 -1.1039 -1.6827
12823SOL    HW239169   4.890   2.291   5.825  1.0121 -1.3169  1.0965
12824SOL     OW39170   6.846   3.093   4.114  0.0116  0.5677 -0.3795
12824SOL    HW139171   6.766   3.112   4.162  1.5895 -1.3064  3.4516
12824SOL    HW239172   6.828   3.011   4.068 -0.2558  0.0899  0.5621
12825SOL     OW39173   0.714   7.053   2.290  0.2255 -0.3555 -0.2083
12825SOL    HW139174   0.618   7.042   2.290 -0.0041  0.6929 -3.2747
12825SOL    HW239175   0.747   6.976   2.244  0.9319 -0.7796  0.9537
12826SOL     OW39176   5.109   2.526   0.036  0.1148 -0.8053  0.3555
12826SOL    HW139177   5.192   2.487   0.011 -0.0839 -0.6185 -0.6386
12826SOL    HW239178   5.048   2.498  -0.032 -0.4315 -0.2173  0.5934
12827SOL     OW39179   6.138   5.461   0.114  0.0513  0.3269 -0.6042
12827SOL    HW139180   6.049   5.431   0.095 -0.0587  0.0834  0.2571
12827SOL    HW239181   6.185   5.382   0.140  0.1130  0.6784  0.3936
12828SOL     OW39182   7.202   1.321   7.763  0.0710  0.3762  0.1988
12828SOL    HW139183   7.263   1.394   7.771 -1.1460  1.7973 -2.2629
12828SOL    HW239184   7.236   1.269   7.690 -1.2171  0.7998 -0.7389
12829SOL     OW39185   1.523   4.138   1.796  0.3708  0.2951 -0.5098
12829SOL    HW139186   1.534   4.232   1.782 -0.0430  0.6165  1.1347
12829SOL    HW239187   1.583   4.117   1.867 -0.4397 -0.4312 -0.0265
12830SOL     OW39188   7.198   1.365   2.492 -0.2544 -0.1877 -0.0927
12830SOL    HW139189   7.147   1.341   2.414 -1.2996  0.8087  0.2481
12830SOL    HW239190   7.270   1.302   2.494 -1.5062 -1.7022 -0.5656
12831SOL     OW39191   3.697   3.768   7.632  0.0954 -0.9877  0.0920
12831SOL    HW139192   3.733   3.843   7.584 -0.1809 -1.8723 -1.5589
12831SOL    HW239193   3.753   3.760   7.709  0.8092  0.2293 -0.2671
12832SOL     OW39194   4.736   3.229   5.892  0.7042 -0.1923  0.2052
12832SOL    HW139195   4.760   3.156   5.835 -0.7842 -0.8893  0.4202
12832SOL    HW239196   4.695   3.188   5.968 -3.4939  0.8241 -1.1917
12833SOL     OW39197   6.827   6.209   1.707 -0.1377 -0.4543 -0.1512
12833SOL    HW139198   6.920   6.217   1.728 -0.7291  2.0631  1.9902
12833SOL    HW239199   6.800   6.297   1.681 -1.6262 -1.4880 -2.5571
12834SOL     OW39200   1.580   5.887   4.353  0.1400 -0.5129  0.2334
12834SOL    HW139201   1.562   5.794   4.365  1.7541 -0.6112  3.0945
12834SOL    HW239202   1.674   5.891   4.337 -0.4249  0.5078 -4.1164
12835SOL     OW39203   3.568   5.950   5.086  0.2821  0.2507  0.0921
12835SOL    HW139204   3.578   5.946   4.991  1.5748 -1.5978  0.2431
12835SOL    HW239205   3.632   6.016   5.114  1.1369 -0.4244 -0.2132
12836SOL     OW39206   4.672   3.864   7.816 -0.1487  0.1878 -0.3214
12836SOL    HW139207   4.633   3.777   7.819 -0.7466  0.4613  0.0983
12836SOL    HW239208   4.760   3.853   7.853 -0.9141  0.1068  1.5916
12837SOL     OW39209   2.181   5.236   3.535 -0.1381 -0.2328  0.4117
12837SOL    HW139210   2.143   5.306   3.588 -0.1454  0.2164 -0.1828
12837SOL    HW239211   2.117   5.164   3.541 -0.8133  0.3093 -0.1006
12838SOL     OW39212   0.272   1.573   7.836 -0.1915  0.2289 -0.3573
12838SOL    HW139213   0.339   1.576   7.767  0.3823  0.9700  0.2129
12838SOL    HW239214   0.316   1.532   7.910 -0.4767  0.4110 -0.0873
12839SOL     OW39215   4.110   1.334   5.342  0.2780  0.0729 -0.0597
12839SOL    HW139216   4.088   1.352   5.251 -1.7679 -0.1857  0.3457
12839SOL    HW239217   4.026   1.332   5.388  1.2475  0.1795  1.8428
12840SOL     OW39218   6.141   5.129   4.540 -0.1688 -0.0951  0.1121
12840SOL    HW139219   6.216   5.183   4.515 -0.2109  0.4561  1.1535
12840SOL    HW239220   6.069   5.191   4.552 -0.1040 -0.3027  1.7621
12841SOL     OW39221   3.259   1.982   3.024  0.0426 -0.4420 -0.5442
12841SOL    HW139222   3.339   1.965   2.974 -0.1111 -1.0343 -0.6040
12841SOL    HW239223   3.280   2.058   3.078  0.1443  0.3128 -1.6290
12842SOL     OW39224   5.866   5.273   1.265 -0.4034 -0.3511  0.2142
12842SOL    HW139225   5.853   5.287   1.171 -0.2791 -2.8805 -0.2516
12842SOL    HW239226   5.852   5.179   1.277 -2.1844  0.1521  3.0399
12843SOL     OW39227   0.264   4.903   2.873 -0.4479  0.5899 -0.4147
12843SOL    HW139228   0.231   4.815   2.852  2.0007 -0.2603 -0.9724
12843SOL    HW239229   0.328   4.921   2.805  1.4426  1.4372  1.4921
12844SOL     OW39230   6.721   5.747   5.315  0.0352  0.2809 -0.3042
12844SOL    HW139231   6.687   5.659   5.335  2.7648 -0.8298 -0.1729
12844SOL    HW239232   6.815   5.741   5.333  0.3987  3.0806 -0.8894
12845SOL     OW39233   5.239   3.060   4.623 -0.5255 -0.0295  0.6158
12845SOL    HW139234   5.269   3.080   4.711  0.8425  1.3055 -0.0916
12845SOL    HW239235   5.185   3.136   4.598  0.4679  0.4119 -0.2669
12846SOL     OW39236   2.382   5.640   0.306 -0.1172  0.2739  0.0864
12846SOL    HW139237   2.379   5.736   0.301 -0.6124  0.2523 -0.1317
12846SOL    HW239238   2.354   5.611   0.219 -0.0364 -0.0735  0.1741
12847SOL     OW39239   3.481   5.389   7.291 -0.5713 -0.5491 -0.8504
12847SOL    HW139240   3.386   5.381   7.298 -0.8862  0.7655 -2.8248
12847SOL    HW239241   3.510   5.414   7.379 -2.1363 -0.1812 -0.4193
12848SOL     OW39242   4.302   5.979   6.124 -0.8354  0.0183  0.4564
12848SOL    HW139243   4.283   6.069   6.150 -1.2140  0.3729 -0.9242
12848SOL    HW239244   4.232   5.957   6.062 -0.3605 -0.9794  0.2516
12849SOL     OW39245   7.073   5.406   2.691  0.3874  0.0278 -0.1438
12849SOL    HW139246   6.990   5.455   2.684 -0.9142 -1.9872  0.3503
12849SOL    HW239247   7.063   5.353   2.769  2.6857  0.5758  0.6003
12850SOL     OW39248   5.593   1.878   2.072  0.3416 -0.0504 -0.5054
12850SOL    HW139249   5.560   1.793   2.044 -0.5126  0.8199 -2.2657
12850SOL    HW239250   5.592   1.932   1.993  0.3410  1.7685  0.6780
12851SOL     OW39251   7.027   6.169   0.030  0.4318 -0.2726 -0.1713
12851SOL    HW139252   7.025   6.158   0.125  2.3817 -3.2496 -0.3183
12851SOL    HW239253   7.064   6.256   0.016  2.1057 -0.5769  1.8775
12852SOL     OW39254   3.794   7.270   3.374 -0.2282 -0.0577 -0.3828
12852SOL    HW139255   3.780   7.365   3.375 -2.2435 -0.3103 -0.6876
12852SOL    HW239256   3.836   7.252   3.458 -2.2718  0.8338  0.9197
12853SOL     OW39257   6.103   0.596   1.998  0.8736 -0.0232 -0.4591
12853SOL    HW139258   6.164   0.540   2.047 -0.4738 -1.0854  0.0596
12853SOL    HW239259   6.062   0.652   2.064  1.1355  0.5602 -0.7820
12854SOL     OW39260   3.100   7.656   7.243  0.3584  0.1493  0.1035
12854SOL    HW139261   3.011   7.640   7.211  0.0035  1.9056  0.1276
12854SOL    HW239262   3.091   7.729   7.304  1.7987  0.2500  0.2289
12855SOL     OW39263   5.000   6.646   4.284  0.8187  0.3569  0.3051
12855SOL    HW139264   4.955   6.729   4.295 -0.6694 -0.2009 -1.1359
12855SOL    HW239265   5.000   6.607   4.372 -0.5572  0.8713  0.5556
12856SOL     OW39266   4.470   0.941   0.440 -1.0205 -0.0568  0.3590
12856SOL    HW139267   4.535   0.980   0.499 -1.7084  1.2918  0.2647
12856SOL    HW239268   4.430   1.016   0.396 -1.8907 -0.9307 -0.3806
12857SOL     OW39269   4.878   0.119   5.245 -0.2151  0.2860  0.0277
12857SOL    HW139270   4.911   0.062   5.314 -0.1113  3.1642  2.5180
12857SOL    HW239271   4.785   0.098   5.238 -0.4820  0.7062  1.8944
12858SOL     OW39272   3.120   1.734   0.483 -0.4888  0.0027 -0.5291
12858SOL    HW139273   3.149   1.767   0.398  2.2206  1.0850  0.7106
12858SOL    HW239274   3.055   1.667   0.462 -0.1383  0.4470 -3.4135
12859SOL     OW39275   2.250   5.364   7.796 -0.1841 -0.2024  0.1507
12859SOL    HW139276   2.215   5.284   7.757  0.6800 -0.8488  0.6429
12859SOL    HW239277   2.174   5.410   7.831 -0.6602 -1.0036  0.1907
12860SOL     OW39278   4.969   7.257   2.180 -0.0767 -0.2692 -0.1561
12860SOL    HW139279   4.948   7.166   2.201 -0.1866 -0.4146 -0.8676
12860SOL    HW239280   4.941   7.306   2.257  0.3566 -0.8780  0.4039
12861SOL     OW39281   7.864   7.513   3.245  0.2198 -0.0632  0.0640
12861SOL    HW139282   7.909   7.595   3.265  1.1557 -0.4645 -0.3168
12861SOL    HW239283   7.934   7.448   3.243 -0.5109 -0.8712  0.3637
12862SOL     OW39284   4.185   2.266   2.864 -0.1338  0.0956  0.1008
12862SOL    HW139285   4.251   2.324   2.902  0.2605 -1.0329  1.2052
12862SOL    HW239286   4.127   2.245   2.938 -0.5159 -0.5813 -0.3827
12863SOL     OW39287   2.988   7.117   2.288 -0.1944 -0.3209 -0.1788
12863SOL    HW139288   2.934   7.103   2.211 -1.3965  3.1147 -0.0982
12863SOL    HW239289   3.067   7.160   2.255  1.1254 -2.3391  0.1333
12864SOL     OW39290   4.780   1.436   6.440 -0.2907 -0.0922 -0.7484
12864SOL    HW139291   4.823   1.358   6.405  0.8442  1.0475 -1.9892
12864SOL    HW239292   4.726   1.469   6.368  0.6153  1.2449 -0.8425
12865SOL     OW39293   0.810   0.458   4.855 -0.1605  0.3558  0.0725
12865SOL    HW139294   0.810   0.466   4.951 -1.2758  2.8209 -0.0341
12865SOL    HW239295   0.719   0.435   4.834 -1.0729  3.8648 -0.4745
12866SOL     OW39296   2.618   1.650   5.295 -0.5471 -0.2230  0.6873
12866SOL    HW139297   2.671   1.658   5.216 -0.2836 -1.7448  0.6696
12866SOL    HW239298   2.655   1.714   5.356  1.4938 -1.3568  0.7426
12867SOL     OW39299   2.704   1.205   4.851  0.3941 -0.4914 -0.6356
12867SOL    HW139300   2.671   1.127   4.807  0.5848  0.1901 -2.0328
12867SOL    HW239301   2.753   1.252   4.784 -1.2127  1.7391 -0.3464
12868SOL     OW39302   0.285   2.703   7.478  0.2491 -0.3166 -0.7349
12868SOL    HW139303   0.305   2.615   7.448 -0.7037 -1.0150  0.5700
12868SOL    HW239304   0.239   2.744   7.405 -0.0577 -1.2009 -1.0442
12869SOL     OW39305   2.805   3.695   1.998  0.0183 -0.2263 -0.2573
12869SOL    HW139306   2.786   3.782   2.034 -0.1581  0.8538 -2.7346
12869SOL    HW239307   2.719   3.655   1.988 -0.1168  0.2772 -1.2623
12870SOL     OW39308   1.875   3.364   5.956  0.3422 -0.2265  0.6760
12870SOL    HW139309   1.965   3.372   5.989  1.1191  0.7948 -1.4584
12870SOL    HW239310   1.838   3.289   6.003  2.3034 -0.6501  1.6375
12871SOL     OW39311   0.750   2.596   0.441 -0.1273  0.4000  0.5083
12871SOL    HW139312   0.733   2.503   0.425 -1.4958  0.3249  2.1615
12871SOL    HW239313   0.664   2.633   0.464  0.2788  2.2143 -0.6779
12872SOL     OW39314   6.292   7.767   4.310  0.2184  0.2334 -0.8250
12872SOL    HW139315   6.261   7.796   4.224 -1.4579  0.1133 -0.2747
12872SOL    HW239316   6.339   7.686   4.292  0.4250  0.5357 -1.6996
12873SOL     OW39317   4.900   7.219   7.341  0.8860 -0.2184  0.1321
12873SOL    HW139318   4.987   7.215   7.381  0.5579 -1.4227  0.7638
12873SOL    HW239319   4.871   7.128   7.338  0.0786  0.0637 -1.0515
12874SOL     OW39320   6.546   6.392   0.053 -0.6645 -0.1390 -0.5688
12874SOL    HW139321   6.463   6.359   0.018 -0.3227 -2.2211  0.4932
12874SOL    HW239322   6.536   6.389   0.148  0.4036  0.2327 -0.4266
12875SOL     OW39323   5.661   7.566   7.357 -0.0010 -0.1998  0.0897
12875SOL    HW139324   5.690   7.653   7.332 -0.5992  0.1588  0.5949
12875SOL    HW239325   5.566   7.575   7.371 -0.0326 -0.8666  0.3780
12876SOL     OW39326   7.844   7.758   1.145  0.0353 -0.4180 -0.1553
12876SOL    HW139327   7.900   7.725   1.074  0.7946 -1.4569  0.8902
12876SOL    HW239328   7.905   7.783   1.214 -0.7333 -0.7166  0.6604
12877SOL     OW39329   4.387   6.496   4.234  0.3787 -0.4472 -0.1364
12877SOL    HW139330   4.436   6.526   4.311  0.9904 -0.8984 -0.3423
12877SOL    HW239331   4.369   6.404   4.251 -1.1844 -0.0989  0.3255
12878SOL     OW39332   1.039   4.553   6.565 -0.3559  0.4295 -0.1555
12878SOL    HW139333   1.050   4.593   6.479  1.0921  2.1266  0.7696
12878SOL    HW239334   0.946   4.566   6.586 -0.4439  1.1265 -0.9371
12879SOL     OW39335   6.215   7.659   2.390 -0.3347  0.1082  0.0087
12879SOL    HW139336   6.254   7.616   2.314 -0.2286 -1.5845  0.9650
12879SOL    HW239337   6.139   7.704   2.356  0.5242  0.5982 -1.3291
12880SOL     OW39338   3.657   2.051   3.249  0.1794 -0.6149 -0.2059
12880SOL    HW139339   3.623   1.981   3.193 -0.1177 -0.9949  0.4351
12880SOL    HW239340   3.626   2.132   3.208 -0.3227 -0.9050 -0.4067
12881SOL     OW39341   1.876   5.865   1.155 -0.8140  0.4384 -0.1938
12881SOL    HW139342   1.938   5.932   1.127 -0.2510  0.7373  1.6110
12881SOL    HW239343   1.929   5.802   1.204 -1.7331  0.0987  0.4036
12882SOL     OW39344   6.782   3.257   0.423  0.0697 -0.0461 -0.0613
12882SOL    HW139345   6.723   3.182   0.432 -2.1615  1.4906 -0.7758
12882SOL    HW239346   6.798   3.286   0.513  0.7420 -1.1774  0.2056
12883SOL     OW39347   3.331   0.116   2.584  0.9635  0.8452  0.8127
12883SOL    HW139348   3.292   0.051   2.642  0.6630  1.8052  1.7171
12883SOL    HW239349   3.287   0.102   2.500 -0.4783  1.1147  1.5007
12884SOL     OW39350   3.969   6.237   4.836 -0.9915  0.3024  0.0149
12884SOL    HW139351   3.881   6.202   4.842 -0.2313 -1.6408  0.9585
12884SOL    HW239352   4.015   6.177   4.778 -0.1174  0.8727  0.0957
12885SOL     OW39353   6.284   3.759   5.560 -0.7026 -0.6159 -0.1210
12885SOL    HW139354   6.326   3.815   5.495 -1.2363  0.2800  0.2893
12885SOL    HW239355   6.193   3.790   5.563 -0.6913 -0.6406  1.0376
12886SOL     OW39356   3.706   3.588   4.240  0.0167  0.3154  0.2015
12886SOL    HW139357   3.707   3.508   4.189 -2.3720  0.1942  0.2392
12886SOL    HW239358   3.729   3.657   4.178  0.4295 -0.1870 -0.2146
12887SOL     OW39359   5.080   7.755   4.543 -0.2018 -0.0436 -0.6600
12887SOL    HW139360   5.077   7.834   4.489  0.6949  0.9633  0.6795
12887SOL    HW239361   5.029   7.777   4.620  2.4330  0.4171  1.1014
12888SOL     OW39362   4.384   4.318   0.005 -0.2711 -0.3888 -0.2961
12888SOL    HW139363   4.318   4.322  -0.064  0.4127 -0.9937 -1.0119
12888SOL    HW239364   4.367   4.234   0.049 -1.2631  0.3933  0.8706
12889SOL     OW39365   3.000   0.071   0.144  0.1672  0.1662  0.1053
12889SOL    HW139366   2.928   0.011   0.165 -0.6363  1.0487 -0.0549
12889SOL    HW239367   3.009   0.064   0.049 -0.7185  1.1507 -0.0656
12890SOL     OW39368   4.236   1.836   5.379 -0.1713  0.4106 -0.4466
12890SOL    HW139369   4.286   1.842   5.298  0.1597  0.4452 -0.2449
12890SOL    HW239370   4.292   1.878   5.444  0.8128 -1.9616  0.3757
12891SOL     OW39371   0.609   2.920   7.061  0.4456  0.0640  0.0142
12891SOL    HW139372   0.651   2.848   7.108 -2.3606  0.1973  3.0955
12891SOL    HW239373   0.534   2.880   7.019  0.2079  0.8056 -0.2776
12892SOL     OW39374   7.478   2.997   1.512  0.0179 -0.2427 -0.0810
12892SOL    HW139375   7.528   3.078   1.511  1.1305 -0.8823 -1.9318
12892SOL    HW239376   7.544   2.929   1.528 -0.4276 -0.9818 -1.2488
12893SOL     OW39377   6.306   3.539   0.023  0.3938 -0.2887 -0.2258
12893SOL    HW139378   6.326   3.580  -0.062 -1.6879  0.8501 -0.2422
12893SOL    HW239379   6.246   3.467   0.001 -1.4509  1.0043  0.3468
12894SOL     OW39380   6.848   1.410   6.398 -0.2684  0.7225 -0.3880
12894SOL    HW139381   6.902   1.447   6.468 -0.5328  0.7083 -0.1761
12894SOL    HW239382   6.802   1.337   6.440 -0.5842  0.8439 -0.5273
12895SOL     OW39383   2.716   5.599   2.279 -0.1011  0.2375  0.2783
12895SOL    HW139384   2.665   5.622   2.357 -0.4744 -0.9668  0.4003
12895SOL    HW239385   2.744   5.684   2.244 -3.7246  1.1627 -0.8590
12896SOL     OW39386   5.646   3.092   5.987 -0.1317 -0.6754  0.2646
12896SOL    HW139387   5.552   3.086   5.968 -0.5794  2.8570  0.6746
12896SOL    HW239388   5.653   3.075   6.081 -0.7703  1.2303  0.7066
12897SOL     OW39389   2.268   4.236   0.123  0.0983  0.2183  0.1121
12897SOL    HW139390   2.179   4.212   0.151  0.2798 -3.4403 -1.8070
12897SOL    HW239391   2.263   4.331   0.109 -4.1742 -0.0292 -1.8270
12898SOL     OW39392   5.706   0.202   6.919 -0.0017  0.2678  0.2103
12898SOL    HW139393   5.723   0.295   6.901 -1.4101  0.5111 -0.0005
12898SOL    HW239394   5.769   0.155   6.863  0.6345  1.0797  0.2192
12899SOL     OW39395   6.064   0.278   6.802 -0.6441  0.0203 -0.3383
12899SOL    HW139396   6.134   0.318   6.855 -1.7443  1.7055 -0.0773
12899SOL    HW239397   5.993   0.343   6.803 -1.2339 -0.4816 -2.7706
12900SOL     OW39398   2.598   4.642   7.057  0.5890  1.0341  0.2147
12900SOL    HW139399   2.571   4.550   7.057  0.1811  1.1536 -0.1797
12900SOL    HW239400   2.516   4.691   7.060  0.7034  1.4016 -1.6321
12901SOL     OW39401   3.126   7.884   7.850  0.0623 -0.3071  0.1064
12901SOL    HW139402   3.177   7.837   7.784  1.2248  0.5597  0.3589
12901SOL    HW239403   3.105   7.818   7.915 -0.7574 -1.0890 -0.9132
12902SOL     OW39404   6.179   6.019   3.765  0.3859  0.3044  0.2915
12902SOL    HW139405   6.263   5.975   3.773 -0.6395 -1.8085  0.3132
12902SOL    HW239406   6.132   5.994   3.845 -0.2679  1.4545  0.2874
12903SOL     OW39407   4.377   1.676   3.061 -0.2502  0.0537 -0.0397
12903SOL    HW139408   4.313   1.716   3.121 -0.5092 -0.9424  0.3741
12903SOL    HW239409   4.394   1.744   2.996 -0.6812  0.8329  0.6308
12904SOL     OW39410   5.137   4.347   6.920  0.1506 -0.3907  0.0854
12904SOL    HW139411   5.053   4.308   6.944  1.5024 -3.1944  0.6026
12904SOL    HW239412   5.137   4.433   6.963 -2.9710  0.3509 -1.0911
12905SOL     OW39413   2.683   1.754   2.109  0.0949  0.0634  0.3647
12905SOL    HW139414   2.622   1.730   2.180  1.0086 -1.8602  0.5534
12905SOL    HW239415   2.763   1.706   2.129  0.5033 -0.2222 -1.7906
12906SOL     OW39416   6.208   2.317   7.271  0.1150  0.4246 -0.1769
12906SOL    HW139417   6.212   2.246   7.207 -0.3873 -0.1217  0.3886
12906SOL    HW239418   6.245   2.279   7.351  0.6887  1.0852 -0.1237
12907SOL     OW39419   4.162   2.525   1.112  0.4366  0.0413 -0.6384
12907SOL    HW139420   4.166   2.613   1.074  1.8824  0.5505  0.5750
12907SOL    HW239421   4.175   2.539   1.206  1.9298 -1.5275 -0.5584
12908SOL     OW39422   6.453   6.232   3.379  0.3904 -0.5328 -0.0702
12908SOL    HW139423   6.459   6.319   3.340 -0.4004  0.0475  1.0499
12908SOL    HW239424   6.361   6.222   3.402  0.8383 -0.7198  1.8459
12909SOL     OW39425   7.132   2.910   2.341 -0.1174  0.1139 -0.7458
12909SOL    HW139426   7.173   2.897   2.426  0.8027  0.6177 -1.0948
12909SOL    HW239427   7.168   2.993   2.309 -2.0328  1.0003 -0.7326
12910SOL     OW39428   1.177   6.861   5.402  0.2552 -0.3946  0.2226
12910SOL    HW139429   1.266   6.886   5.376  0.0898 -0.5997 -0.5785
12910SOL    HW239430   1.171   6.768   5.381 -0.9494  0.1360 -2.1389
12911SOL     OW39431   3.836   4.846   4.903 -0.8604 -0.1487  0.0530
12911SOL    HW139432   3.923   4.871   4.872 -1.3079  1.4446  0.0087
12911SOL    HW239433   3.845   4.753   4.927  1.0097  0.1453  0.6352
12912SOL     OW39434   1.310   3.330   2.969 -0.1295  0.6537  0.1740
12912SOL    HW139435   1.339   3.323   2.878  1.4197 -1.2586  0.7300
12912SOL    HW239436   1.285   3.241   2.993 -0.5443  1.1319  1.6054
12913SOL     OW39437   1.078   2.287   5.789  0.0653 -0.4512  0.3177
12913SOL    HW139438   1.066   2.382   5.785 -1.8244 -0.5987  1.2788
12913SOL    HW239439   1.052   2.255   5.703 -1.1192 -0.2237  0.5694
12914SOL     OW39440   5.369   0.606   7.489 -0.3931  0.1337  0.0403
12914SOL    HW139441   5.292   0.597   7.433  1.8706  0.5127 -3.4733
12914SOL    HW239442   5.361   0.694   7.527 -1.7429  0.1151 -0.1604
12915SOL     OW39443   3.051   7.507   6.891  0.6733  0.9480  0.0157
12915SOL    HW139444   3.146   7.513   6.883  1.2496 -2.8960  1.5129
12915SOL    HW239445   3.026   7.434   6.833 -1.6448  2.7405 -1.4191
12916SOL     OW39446   6.229   4.711   3.977  0.1080  0.2131 -0.4188
12916SOL    HW139447   6.274   4.770   4.038 -0.6602  0.3393  0.0438
12916SOL    HW239448   6.242   4.751   3.891 -0.0795  0.8593 -0.1547
12917SOL     OW39449   5.003   5.697   5.469 -0.5373 -0.5194  0.3086
12917SOL    HW139450   4.991   5.674   5.561  0.3162 -0.6246  0.3989
12917SOL    HW239451   5.081   5.753   5.468 -0.5344 -0.5226 -0.3492
12918SOL     OW39452   4.006   1.019   6.125  0.2893  0.1920  0.2121
12918SOL    HW139453   4.063   1.080   6.078  0.9476  0.7886  1.7372
12918SOL    HW239454   3.934   1.073   6.157  0.5039  0.0571  0.9532
12919SOL     OW39455   4.449   0.093   4.784  0.4382 -0.7951  0.3037
12919SOL    HW139456   4.395   0.056   4.854 -0.4555 -0.1389 -0.0133
12919SOL    HW239457   4.432   0.036   4.708  0.7378 -1.0028  0.3935
12920SOL     OW39458   0.212   1.132   5.240 -0.1726 -0.2843  0.1567
12920SOL    HW139459   0.244   1.048   5.272  0.3036 -0.6151 -1.1119
12920SOL    HW239460   0.258   1.145   5.157 -1.7451  0.2589 -0.6686
12921SOL     OW39461   4.198   1.902   0.422  0.8649  0.3054  0.3073
12921SOL    HW139462   4.163   1.855   0.346  1.5351 -0.3217  0.3731
12921SOL    HW239463   4.170   1.850   0.497  2.4037 -0.5573  0.3324
12922SOL     OW39464   3.346   6.333   5.049 -0.6701  0.3527  0.0312
12922SOL    HW139465   3.324   6.269   5.117  0.8730  0.0341  0.2737
12922SOL    HW239466   3.371   6.412   5.098  1.0740 -0.0787 -0.0916
12923SOL     OW39467   2.110   3.223   6.001  0.8407 -0.9197 -0.0871
12923SOL    HW139468   2.203   3.207   6.016  0.5768 -0.7736  2.0409
12923SOL    HW239469   2.066   3.149   6.043 -0.0370  0.0546  0.7770
12924SOL     OW39470   4.291   1.724   6.365  0.7149  0.0772 -0.2451
12924SOL    HW139471   4.337   1.642   6.347 -0.3385 -0.1473 -2.1577
12924SOL    HW239472   4.224   1.730   6.298 -1.5200  0.8499  1.8881
12925SOL     OW39473   1.523   3.304   3.521 -0.3057 -0.3667 -0.5310
12925SOL    HW139474   1.450   3.362   3.502 -0.0703 -0.6874 -2.6240
12925SOL    HW239475   1.482   3.220   3.540 -0.5412 -0.0786  0.2940
12926SOL     OW39476   7.465   2.400   0.193  0.3167  0.1228 -0.8679
12926SOL    HW139477   7.409   2.352   0.253  0.6188 -0.1135 -0.7719
12926SOL    HW239478   7.493   2.335   0.129  3.2611 -0.6613  1.0072
12927SOL     OW39479   7.328   5.928   4.233 -0.1245 -0.0771  0.0234
12927SOL    HW139480   7.268   5.987   4.279  0.9486  0.5535  0.6687
12927SOL    HW239481   7.415   5.967   4.247  0.3746 -0.6346 -1.3987
12928SOL     OW39482   0.003   6.895   6.449 -0.1486  0.2093 -0.0675
12928SOL    HW139483  -0.025   6.981   6.417  2.2620  0.3224 -2.1613
12928SOL    HW239484   0.038   6.912   6.536  0.6687  1.4356 -0.6133
12929SOL     OW39485   0.869   2.104   0.693  0.0875  0.2198  0.5845
12929SOL    HW139486   0.935   2.063   0.638  0.3548  0.3242  0.8238
12929SOL    HW239487   0.895   2.196   0.696 -0.3553  0.3586  0.2677
12930SOL     OW39488   4.450   2.074   3.363 -0.0903 -0.0576  0.2976
12930SOL    HW139489   4.493   2.144   3.411 -1.9087  2.0013 -0.8670
12930SOL    HW239490   4.520   2.030   3.315  1.2469  0.1365  1.9743
12931SOL     OW39491   5.899   7.569   2.585  0.0950 -0.0759 -0.5574
12931SOL    HW139492   5.915   7.487   2.540 -1.4570  0.4834 -2.2546
12931SOL    HW239493   5.986   7.600   2.611  0.8011 -1.6174 -1.0131
12932SOL     OW39494   7.331   1.787   4.009 -0.5136  0.4174 -0.3093
12932SOL    HW139495   7.408   1.791   4.065  1.3635  1.6187 -2.7510
12932SOL    HW239496   7.286   1.707   4.034 -0.0945  1.1296  3.1412
12933SOL     OW39497   7.389   2.040   5.560  0.5007  0.2493  0.1234
12933SOL    HW139498   7.365   2.127   5.527 -0.4524 -0.4820 -1.1782
12933SOL    HW239499   7.343   1.979   5.503  0.1186 -1.1147  1.8252
12934SOL     OW39500   4.347   5.421   5.280 -0.3602 -0.5377  0.5013
12934SOL    HW139501   4.294   5.353   5.237  1.1820 -2.3005  1.2930
12934SOL    HW239502   4.429   5.422   5.230 -0.6337  1.3457  0.0143
12935SOL     OW39503   5.257   0.142   2.210  0.4721 -0.0484 -0.3456
12935SOL    HW139504   5.240   0.206   2.279  0.0223 -0.7273  0.1844
12935SOL    HW239505   5.263   0.194   2.130 -1.4747  0.5232 -0.1669
12936SOL     OW39506   6.716   7.619   1.685  0.0219  0.2388  0.3280
12936SOL    HW139507   6.695   7.704   1.646 -0.2539  0.9181  1.8504
12936SOL    HW239508   6.738   7.563   1.611 -3.0297  0.6662 -1.0492
12937SOL     OW39509   4.138   5.178   7.097  0.3099  0.4808  0.3434
12937SOL    HW139510   4.044   5.162   7.105  0.5357 -1.5894 -0.4445
12937SOL    HW239511   4.146   5.272   7.085 -1.5365  0.8876  1.9054
12938SOL     OW39512   4.933   3.230   1.524  0.3992 -0.1304  0.4517
12938SOL    HW139513   4.975   3.149   1.495  2.0732  0.5371  0.8982
12938SOL    HW239514   4.985   3.300   1.483  0.2717  0.7465  1.7309
12939SOL     OW39515   3.418   5.256   1.404  0.1705 -0.1928 -0.0725
12939SOL    HW139516   3.497   5.220   1.362  1.4993  1.1035  1.2114
12939SOL    HW239517   3.412   5.210   1.487 -0.1896  0.0266  0.0251
12940SOL     OW39518   4.519   4.569   4.649  0.3257 -0.3832  0.4637
12940SOL    HW139519   4.506   4.483   4.688 -2.4399 -0.3287 -0.1502
12940SOL    HW239520   4.595   4.558   4.592 -0.1554 -2.5368  0.1382
12941SOL     OW39521   0.237   0.892   3.332  0.3440  0.1930 -0.2522
12941SOL    HW139522   0.248   0.958   3.264 -1.1168  0.9096  0.1674
12941SOL    HW239523   0.198   0.817   3.286  1.5580 -0.2192 -0.6359
12942SOL     OW39524   1.112   4.798   7.224  0.0044 -0.6080 -0.6073
12942SOL    HW139525   1.191   4.790   7.279 -0.6989 -1.8227  0.2679
12942SOL    HW239526   1.042   4.817   7.286 -0.3690  0.8090 -1.4172
12943SOL     OW39527   6.162   5.559   6.939 -0.2459 -0.6843  0.0117
12943SOL    HW139528   6.089   5.519   6.986  0.6325 -0.4857  1.6339
12943SOL    HW239529   6.228   5.573   7.006  0.5942  0.8125 -1.0721
12944SOL     OW39530   4.113   7.671   0.241  0.1218  1.0269 -0.3650
12944SOL    HW139531   4.200   7.710   0.237  0.3798  0.5013 -0.0825
12944SOL    HW239532   4.130   7.577   0.254 -0.4766  0.8493 -0.8086
12945SOL     OW39533   7.178   1.648   3.588  0.1622  0.0409 -0.6172
12945SOL    HW139534   7.245   1.692   3.640  1.6821 -1.0600 -1.5643
12945SOL    HW239535   7.096   1.666   3.634  1.3923 -0.7097  2.0492
12946SOL     OW39536   1.842   5.275   4.615  0.2810  0.3914 -0.0381
12946SOL    HW139537   1.874   5.200   4.565 -0.0763 -0.3821  0.8618
12946SOL    HW239538   1.920   5.328   4.631  1.1949 -1.3415  1.9179
12947SOL     OW39539   5.200   3.350   2.976  0.1203 -0.0290 -0.7020
12947SOL    HW139540   5.221   3.434   3.016 -2.0075 -0.1330  0.7851
12947SOL    HW239541   5.284   3.318   2.942  0.9873  2.6044 -1.2176
12948SOL     OW39542   6.848   2.386   1.982 -0.3076  0.4372  0.7470
12948SOL    HW139543   6.913   2.426   2.040  1.2722  0.4211 -0.9160
12948SOL    HW239544   6.900   2.346   1.912 -2.1402  1.1463 -1.1178
12949SOL     OW39545   3.539   1.954   0.888 -0.2966 -0.0082 -0.6451
12949SOL    HW139546   3.452   1.974   0.924 -0.3667  0.2494 -0.9506
12949SOL    HW239547   3.530   1.867   0.851  0.8216 -2.0590  3.3625
12950SOL     OW39548   2.586   2.249   6.691 -0.1331  0.5491 -0.1546
12950SOL    HW139549   2.576   2.333   6.647  0.4697  0.9885  0.5123
12950SOL    HW239550   2.681   2.239   6.701 -0.2146 -0.0888 -0.0044
12951SOL     OW39551   5.210   6.785   4.504 -0.7345 -0.1295 -0.1247
12951SOL    HW139552   5.261   6.705   4.490 -0.9761 -0.5683  1.2988
12951SOL    HW239553   5.276   6.852   4.520 -0.5553 -0.2505 -0.3448
12952SOL     OW39554   4.869   1.825   1.105 -0.2338 -0.1067 -0.5616
12952SOL    HW139555   4.910   1.898   1.060 -2.0836  2.4107  1.5059
12952SOL    HW239556   4.914   1.820   1.189 -0.6795 -0.8196 -0.3574
12953SOL     OW39557   0.387   4.909   4.651 -0.0295 -0.0074  0.8819
12953SOL    HW139558   0.331   4.839   4.684 -1.0537 -0.5224 -1.6979
12953SOL    HW239559   0.475   4.869   4.646 -0.2654 -0.5606  1.0566
12954SOL     OW39560   7.928   6.007   7.834 -0.1528 -1.0354 -0.1377
12954SOL    HW139561   7.886   6.059   7.765  0.5237 -0.7037 -0.3100
12954SOL    HW239562   7.860   5.946   7.863 -0.5577 -0.9306 -0.8445
12955SOL     OW39563   0.757   4.073   5.974  0.5747  0.1373  0.4255
12955SOL    HW139564   0.671   4.066   5.933  0.5012 -1.0319  0.7424
12955SOL    HW239565   0.741   4.053   6.066  0.8567  1.9895  0.9118
12956SOL     OW39566   4.833   0.618   2.594 -0.1246  0.2787  0.1616
12956SOL    HW139567   4.753   0.629   2.543 -0.4669 -2.1710  0.0812
12956SOL    HW239568   4.886   0.695   2.572 -2.5127  2.1358  0.4504
12957SOL     OW39569   5.127   5.822   3.632  0.1085  0.7081 -0.2005
12957SOL    HW139570   5.033   5.813   3.647 -0.0425 -0.9341 -1.8403
12957SOL    HW239571   5.147   5.911   3.664 -1.4623  0.2242  2.4866
12958SOL     OW39572   0.937   7.923   2.394  0.1705  0.1014 -0.1873
12958SOL    HW139573   0.847   7.956   2.405  0.4631  0.8216  0.0953
12958SOL    HW239574   0.941   7.896   2.302 -0.5767 -0.6917 -0.0033
12959SOL     OW39575   1.515   4.062   1.522 -0.1176  0.3972 -0.0480
12959SOL    HW139576   1.581   4.111   1.473  0.0969  1.7647  1.5472
12959SOL    HW239577   1.532   4.082   1.614 -1.2517 -1.1601  0.5487
12960SOL     OW39578   3.061   5.858   4.768 -0.2076 -0.0868 -0.2695
12960SOL    HW139579   3.047   5.765   4.751 -2.3914  0.1800 -0.2105
12960SOL    HW239580   2.982   5.901   4.734  0.3565  1.6456  0.5003
12961SOL     OW39581   0.696   3.276   3.353 -0.1453  0.2373  0.0091
12961SOL    HW139582   0.623   3.332   3.325 -0.5049 -1.2013 -2.1122
12961SOL    HW239583   0.775   3.329   3.335 -0.5034  0.3201 -1.3922
12962SOL     OW39584   2.156   0.416   5.206 -0.3381 -0.1041  0.0479
12962SOL    HW139585   2.066   0.421   5.236 -0.2958 -0.9833  0.3437
12962SOL    HW239586   2.182   0.507   5.192 -1.1162  0.1793  0.4108
12963SOL     OW39587   5.468   6.342   7.388 -0.0277 -0.2970  0.1232
12963SOL    HW139588   5.529   6.338   7.314  1.4215 -0.0731  1.2398
12963SOL    HW239589   5.443   6.434   7.393  0.3258 -0.2026  0.2364
12964SOL     OW39590   2.875   2.482   3.629  0.1745  0.1820  0.0814
12964SOL    HW139591   2.840   2.529   3.553 -1.7351 -0.9551  0.1981
12964SOL    HW239592   2.934   2.416   3.591 -0.8899 -0.4825 -0.4501
12965SOL     OW39593   1.755   5.129   3.329 -0.2662  0.5470  0.1755
12965SOL    HW139594   1.829   5.090   3.376 -1.3733  0.7379  2.2159
12965SOL    HW239595   1.770   5.224   3.336  0.8632  0.5939 -2.1477
12966SOL     OW39596   4.866   5.091   3.426 -0.3361  0.2163  0.3949
12966SOL    HW139597   4.931   5.028   3.456  0.7924  0.2807 -1.7352
12966SOL    HW239598   4.880   5.168   3.481  0.3119 -0.3211  1.0014
12967SOL     OW39599   5.789   4.574   3.153  0.6425  0.0727  0.1923
12967SOL    HW139600   5.729   4.608   3.220  1.6937 -0.4432  1.4210
12967SOL    HW239601   5.822   4.492   3.189  0.7718 -0.5376 -1.2421
12968SOL     OW39602   2.668   0.592   6.866 -0.4922  0.4039  0.3448
12968SOL    HW139603   2.726   0.565   6.938 -0.9941  1.1978  1.0710
12968SOL    HW239604   2.597   0.639   6.909 -2.1910 -1.3078 -0.4380
12969SOL     OW39605   6.155   0.059   4.359 -0.0830 -0.2993  0.0503
12969SOL    HW139606   6.116   0.022   4.279  1.2871 -0.6883 -0.4659
12969SOL    HW239607   6.248   0.068   4.338 -0.1323  2.3044  0.5868
12970SOL     OW39608   7.118   7.813   7.018  0.5830 -0.0133  0.1595
12970SOL    HW139609   7.117   7.739   6.958  0.9176 -0.6883  0.9783
12970SOL    HW239610   7.107   7.774   7.105  0.5675  0.9119  0.5833
12971SOL     OW39611   5.486   6.224   0.002 -0.2082  0.1195 -0.0991
12971SOL    HW139612   5.504   6.213  -0.092  0.2138  1.4643 -0.2003
12971SOL    HW239613   5.545   6.162   0.045 -0.6150 -0.7217 -0.7238
12972SOL     OW39614   6.231   2.179   6.030  0.8673 -0.2278  0.0329
12972SOL    HW139615   6.298   2.135   6.083 -0.8007 -0.5184  1.9786
12972SOL    HW239616   6.207   2.256   6.080  0.9326  0.8277 -1.4834
12973SOL     OW39617   3.072   7.954   2.939  0.4520 -0.7822  0.3223
12973SOL    HW139618   3.120   7.884   2.895  0.4690 -0.5562 -0.0237
12973SOL    HW239619   3.035   7.913   3.017  0.3210 -1.2169  0.0326
12974SOL     OW39620   4.019   7.878   6.548  0.1798 -0.1088 -0.4212
12974SOL    HW139621   3.958   7.805   6.533  0.7321 -1.0845  1.7383
12974SOL    HW239622   4.106   7.840   6.532  0.4901 -0.0240  1.0053
12975SOL     OW39623   7.063   4.651   7.357  0.5268  0.1529 -0.8357
12975SOL    HW139624   7.072   4.722   7.420  1.7866 -0.0155 -0.7954
12975SOL    HW239625   7.062   4.695   7.271  2.9583  0.1864 -0.9189
12976SOL     OW39626   2.528   7.126   0.804  0.3999 -0.4678  0.7312
12976SOL    HW139627   2.621   7.132   0.783  0.2146 -1.7436 -0.6007
12976SOL    HW239628   2.514   7.033   0.822 -0.9365 -0.5874 -0.7423
12977SOL     OW39629   6.090   6.529   7.764 -0.2605  0.1747 -0.3010
12977SOL    HW139630   6.070   6.549   7.855 -0.8940  0.2091 -0.4404
12977SOL    HW239631   6.067   6.436   7.755 -0.6101  0.2824 -0.5332
12978SOL     OW39632   7.029   1.903   2.622 -0.3295  0.8366  0.3171
12978SOL    HW139633   7.009   1.847   2.546  0.6074 -0.1865  0.8001
12978SOL    HW239634   7.033   1.842   2.696  0.0192  1.6485  0.9741
12979SOL     OW39635   7.627   4.592   3.350  0.0533  0.7217 -0.0158
12979SOL    HW139636   7.639   4.531   3.423 -0.5640 -2.6666 -2.4556
12979SOL    HW239637   7.710   4.589   3.303 -0.6270  0.0837 -1.2395
12980SOL     OW39638   1.505   2.121   4.988  1.1059  0.3922  0.0327
12980SOL    HW139639   1.512   2.107   4.894  2.1070  1.7233 -0.1253
12980SOL    HW239640   1.489   2.034   5.025 -0.1325 -0.0315 -1.4146
12981SOL     OW39641   7.028   7.716   2.321  0.9444  0.1183  0.2402
12981SOL    HW139642   6.970   7.765   2.263  0.3683 -1.2264 -0.3527
12981SOL    HW239643   6.970   7.677   2.386  1.1507 -1.1161 -0.2739
12982SOL     OW39644   7.058   4.488   1.680  0.5507 -0.3414 -0.1179
12982SOL    HW139645   7.090   4.398   1.674  0.8320 -0.2065 -0.7222
12982SOL    HW239646   7.038   4.500   1.773  2.4914 -0.3657  0.3565
12983SOL     OW39647   2.808   4.948   5.085 -0.1983 -0.0215  0.1494
12983SOL    HW139648   2.834   5.039   5.093 -1.5385  0.7604 -2.8722
12983SOL    HW239649   2.713   4.949   5.097 -0.3239 -0.8799 -0.6553
12984SOL     OW39650   5.400   7.288   2.261  0.3234  0.5178 -0.2809
12984SOL    HW139651   5.365   7.260   2.346  2.5747  1.7590  1.1401
12984SOL    HW239652   5.471   7.348   2.283 -0.3247  2.4910 -3.0952
12985SOL     OW39653   3.492   1.730   0.301 -0.4045  0.0251 -0.0875
12985SOL    HW139654   3.560   1.778   0.349 -2.6886  2.1694  1.2798
12985SOL    HW239655   3.481   1.648   0.349 -0.6540  0.8820  1.3604
12986SOL     OW39656   6.384   3.954   2.486  0.7038  0.7941  0.2739
12986SOL    HW139657   6.395   4.008   2.407 -0.1507  0.6360  0.0323
12986SOL    HW239658   6.317   3.890   2.462  0.7997  0.4226  0.9683
12987SOL     OW39659   3.451   7.156   4.901  0.2769  0.0184 -0.1540
12987SOL    HW139660   3.375   7.171   4.845  1.2082  0.4082 -1.3619
12987SOL    HW239661   3.437   7.069   4.939  0.1630 -0.7970 -1.9527
12988SOL     OW39662   3.796   2.545   6.752  0.6693 -0.0978 -0.1278
12988SOL    HW139663   3.707   2.515   6.731  1.1875  0.5095 -4.0977
12988SOL    HW239664   3.794   2.639   6.732  2.4826 -0.3495 -1.8489
12989SOL     OW39665   2.801   6.723   7.976  0.0017  0.4387  0.0048
12989SOL    HW139666   2.835   6.634   7.962  0.4986  0.6270 -0.0021
12989SOL    HW239667   2.707   6.715   7.963  0.0372 -0.1026  0.0632
12990SOL     OW39668   7.817   5.556   6.036  0.2306 -0.6421 -0.2306
12990SOL    HW139669   7.904   5.531   6.067  0.4146 -0.1130 -0.3064
12990SOL    HW239670   7.827   5.646   6.006 -0.3691 -0.5386 -0.1451
12991SOL     OW39671   0.520   2.273   0.136 -0.0092 -0.4543  0.2045
12991SOL    HW139672   0.578   2.294   0.209  1.8876  1.2986 -1.6659
12991SOL    HW239673   0.451   2.220   0.175 -0.0652  1.7749  3.6154
12992SOL     OW39674   2.021   7.642   0.333  0.2337  0.3831 -0.6259
12992SOL    HW139675   2.027   7.682   0.247 -1.5481 -1.2377 -1.5805
12992SOL    HW239676   1.938   7.594   0.332 -0.1618  0.7856  2.2099
12993SOL     OW39677   4.504   6.647   5.388 -0.1619  0.1801  0.2216
12993SOL    HW139678   4.443   6.721   5.384  0.3353  0.5941  0.0832
12993SOL    HW239679   4.590   6.688   5.396  0.3726 -0.2914 -2.1996
12994SOL     OW39680   1.802   3.905   4.008  0.5577 -0.7076 -0.3878
12994SOL    HW139681   1.764   3.985   3.970 -2.5105 -1.0679  1.5789
12994SOL    HW239682   1.820   3.929   4.100 -0.2396 -2.1773  0.1834
12995SOL     OW39683   1.493   1.486   6.516  0.6073 -0.0509  0.2688
12995SOL    HW139684   1.411   1.533   6.530  0.3834 -0.4662  0.3347
12995SOL    HW239685   1.472   1.419   6.451  0.9116 -0.1083  0.2275
12996SOL     OW39686   1.063   6.809   7.435  0.0455  0.0196 -0.3556
12996SOL    HW139687   1.075   6.904   7.441 -0.6762  0.1265 -0.4926
12996SOL    HW239688   1.150   6.773   7.452  0.4010  0.7170 -0.6428
12997SOL     OW39689   6.356   0.044   3.632 -0.4737  0.7165  0.0321
12997SOL    HW139690   6.335   0.070   3.721 -2.5549  0.8892 -0.4597
12997SOL    HW239691   6.360   0.126   3.583 -2.0964  0.4704 -0.5522
12998SOL     OW39692   3.535   3.700   2.640  0.3740  0.0995 -0.4457
12998SOL    HW139693   3.505   3.621   2.595  1.8582  0.4487 -2.1874
12998SOL    HW239694   3.560   3.759   2.569 -1.5981  2.5713  0.7395
12999SOL     OW39695   5.902   4.674   3.737 -0.7008 -0.3412  0.1394
12999SOL    HW139696   5.953   4.594   3.752  1.0311  0.6972 -0.0425
12999SOL    HW239697   5.904   4.720   3.821 -0.4132  0.2068 -0.1605
13000SOL     OW39698   7.840   2.521   2.648 -0.3820 -0.1118 -0.1523
13000SOL    HW139699   7.859   2.521   2.555 -0.8594  1.8065 -0.3044
13000SOL    HW239700   7.919   2.486   2.689  1.0093  1.6928 -1.1268
13001SOL     OW39701   7.349   4.919   3.022 -0.5613 -0.3418 -0.2166
13001SOL    HW139702   7.304   4.927   2.938  0.3353  1.0709 -0.5970
13001SOL    HW239703   7.370   5.009   3.047 -0.3467 -0.7730  1.2730
13002SOL     OW39704   1.232   4.407   1.969 -0.4104  0.5239  0.1814
13002SOL    HW139705   1.257   4.410   1.877  0.2640  0.9198  0.3709
13002SOL    HW239706   1.136   4.408   1.968 -0.4018  1.2338 -0.4891
13003SOL     OW39707   5.329   3.338   1.399  0.0141  0.2473  0.4235
13003SOL    HW139708   5.387   3.370   1.469 -0.1864  0.8291  0.3341
13003SOL    HW239709   5.243   3.373   1.422 -0.3136 -0.6542  0.5776
13004SOL     OW39710   6.697   2.094   5.429  0.8939 -0.2612  0.3406
13004SOL    HW139711   6.785   2.082   5.466  1.6322  1.2409 -0.8100
13004SOL    HW239712   6.706   2.070   5.337  0.5910  1.5636 -0.2215
13005SOL     OW39713   0.748   6.898   6.415 -0.6115  0.2575  0.1874
13005SOL    HW139714   0.722   6.823   6.362 -0.6373  1.4961 -1.6410
13005SOL    HW239715   0.842   6.906   6.401 -0.3665 -0.1989  1.4421
13006SOL     OW39716   6.481   1.398   2.847 -0.0664 -0.5775 -0.0529
13006SOL    HW139717   6.573   1.379   2.862 -0.2205 -2.0367 -0.7321
13006SOL    HW239718   6.481   1.479   2.795  0.6795  0.9513  2.1741
13007SOL     OW39719   1.413   2.302   0.082 -0.0868 -0.1047  0.1495
13007SOL    HW139720   1.387   2.249   0.157 -1.0634 -0.5413 -0.4797
13007SOL    HW239721   1.454   2.239   0.022 -1.7881 -0.2987 -0.8615
13008SOL     OW39722   5.607   1.456   1.159  0.5603  0.1319  0.2387
13008SOL    HW139723   5.530   1.405   1.182 -0.4528  2.0088  1.2038
13008SOL    HW239724   5.655   1.400   1.098 -1.6065 -1.0333 -0.4934
13009SOL     OW39725   3.864   6.093   6.041 -0.2000 -0.8834  0.2053
13009SOL    HW139726   3.772   6.116   6.025  0.1538  0.3761 -0.1879
13009SOL    HW239727   3.867   6.071   6.134 -1.1044 -2.0933 -0.0231
13010SOL     OW39728   1.007   3.988   6.977 -0.0630  0.4071 -0.1757
13010SOL    HW139729   1.084   3.962   7.027 -0.7305 -0.5792  0.3693
13010SOL    HW239730   0.934   3.975   7.037 -0.8229 -0.2142 -1.1982
13011SOL     OW39731   4.719   7.409   7.223 -0.5757 -0.1903 -0.1000
13011SOL    HW139732   4.772   7.405   7.144 -1.8605 -1.1986 -0.9404
13011SOL    HW239733   4.771   7.362   7.289 -0.0650 -0.4456 -0.6768
13012SOL     OW39734   4.442   6.764   4.150 -0.0121 -0.0194  0.0925
13012SOL    HW139735   4.364   6.797   4.104 -0.9751  2.0334  2.8730
13012SOL    HW239736   4.415   6.680   4.186 -1.1051  0.7450  1.1655
13013SOL     OW39737   2.208   7.104   5.606 -0.3820  0.0364 -0.4578
13013SOL    HW139738   2.203   7.163   5.530 -2.5038  0.5798  0.0238
13013SOL    HW239739   2.196   7.162   5.681  0.3177 -0.6766  0.2167
13014SOL     OW39740   0.355   7.778   7.180  0.1189 -0.1203  0.4097
13014SOL    HW139741   0.297   7.784   7.256  0.3821 -0.0894  0.6100
13014SOL    HW239742   0.420   7.712   7.204 -0.1696 -0.5718 -0.0392
13015SOL     OW39743   4.922   1.416   7.079  0.6803 -0.1928 -0.5311
13015SOL    HW139744   4.978   1.341   7.063  1.1416 -0.1301  0.7278
13015SOL    HW239745   4.975   1.492   7.056  0.5858 -0.1987 -0.7730
13016SOL     OW39746   5.682   3.877   4.458 -0.1929  0.5992  0.8292
13016SOL    HW139747   5.618   3.833   4.515 -0.8508  1.6357  0.9280
13016SOL    HW239748   5.701   3.813   4.390 -0.1455 -0.3034  1.6680
13017SOL     OW39749   7.398   5.095   7.661 -0.0220  0.0785  0.1448
13017SOL    HW139750   7.398   5.000   7.667 -0.5787  0.1498  1.8899
13017SOL    HW239751   7.446   5.114   7.581  1.2484 -1.6357  0.4417
13018SOL     OW39752   1.363   4.574   7.266 -0.7002  0.1376  0.4992
13018SOL    HW139753   1.455   4.552   7.252 -0.7411 -0.0501  0.5237
13018SOL    HW239754   1.363   4.667   7.287 -0.7550  0.7385 -1.9319
13019SOL     OW39755   2.663   7.442   5.723 -0.0576 -0.1643  0.5665
13019SOL    HW139756   2.717   7.501   5.670  0.3520 -1.5903 -0.6885
13019SOL    HW239757   2.580   7.489   5.734  1.1280  1.7482  1.9124
13020SOL     OW39758   4.998   6.396   4.201  0.6720  0.0462 -0.3116
13020SOL    HW139759   5.024   6.484   4.228 -1.1231  0.9490 -1.2953
13020SOL    HW239760   4.968   6.408   4.111 -1.0320 -1.2700  0.0472
13021SOL     OW39761   2.521   1.860   4.940  0.4275  0.0720  0.4261
13021SOL    HW139762   2.562   1.945   4.957  0.5482 -0.0099  0.5472
13021SOL    HW239763   2.442   1.881   4.889  0.7822  0.2066 -0.0757
13022SOL     OW39764   7.200   7.860   4.074 -0.2868 -0.1992 -0.2632
13022SOL    HW139765   7.272   7.829   4.019 -0.6342 -1.0315 -0.2638
13022SOL    HW239766   7.239   7.929   4.128  0.9802 -1.8175  1.0055
13023SOL     OW39767   3.796   3.610   6.800  0.4063 -0.0927 -0.1528
13023SOL    HW139768   3.890   3.628   6.798  0.0955  1.7110  0.5470
13023SOL    HW239769   3.784   3.544   6.731  1.7882  1.6210 -2.1807
13024SOL     OW39770   4.932   4.695   5.295 -0.4703  0.7203 -0.5173
13024SOL    HW139771   4.982   4.617   5.320 -0.3363  0.7501 -0.6928
13024SOL    HW239772   4.980   4.768   5.334 -0.4768  0.7334 -0.5332
13025SOL     OW39773   7.124   6.096   2.778 -0.0096 -0.5038  0.1528
13025SOL    HW139774   7.161   6.045   2.705  0.1750  3.2766 -2.6474
13025SOL    HW239775   7.200   6.118   2.832  0.6618  0.5198 -1.1541
13026SOL     OW39776   5.116   6.784   5.832  0.2313  0.2371  0.0188
13026SOL    HW139777   5.190   6.808   5.888  0.5049 -0.4850 -0.0214
13026SOL    HW239778   5.102   6.691   5.849  0.3591 -0.0138 -1.1540
13027SOL     OW39779   6.864   5.999   6.123 -0.2761 -0.0902 -0.0773
13027SOL    HW139780   6.944   5.952   6.147  1.0022  2.4173  0.9409
13027SOL    HW239781   6.882   6.037   6.038 -1.6157 -1.9928 -1.2822
13028SOL     OW39782   1.462   6.679   1.960 -0.3692 -0.3758  0.0897
13028SOL    HW139783   1.462   6.600   1.907 -0.5912  0.8044 -1.7321
13028SOL    HW239784   1.553   6.692   1.984  0.0533  0.1610 -1.7187
13029SOL     OW39785   2.238   5.523   1.421 -1.1142  0.3249  0.0565
13029SOL    HW139786   2.324   5.502   1.459 -1.1631  0.3459  0.1793
13029SOL    HW239787   2.175   5.497   1.488 -1.1979  0.4262  0.0173
13030SOL     OW39788   5.460   2.363   3.810 -0.5933 -0.6216  0.0369
13030SOL    HW139789   5.397   2.424   3.772  1.9158  2.3078  0.1818
13030SOL    HW239790   5.516   2.336   3.737  1.8846  2.0152  0.8058
13031SOL     OW39791   1.896   6.383   5.246 -0.7468  0.0949  0.6465
13031SOL    HW139792   1.905   6.302   5.295 -0.1588 -0.2252  0.0301
13031SOL    HW239793   1.982   6.425   5.252 -1.3332  1.1951  1.8260
13032SOL     OW39794   4.354   4.658   2.879  0.4079 -0.2830  0.3300
13032SOL    HW139795   4.352   4.586   2.942 -0.0620 -0.5168  0.0493
13032SOL    HW239796   4.279   4.643   2.822  0.3004  0.4364  0.2715
13033SOL     OW39797   3.408   7.047   4.442  0.3408  0.2438  0.1111
13033SOL    HW139798   3.379   6.993   4.516  0.6429 -0.7525 -0.4735
13033SOL    HW239799   3.411   7.136   4.477 -2.0690  0.2261  0.5887
13034SOL     OW39800   1.083   2.287   3.079  0.4873  0.3247 -0.0105
13034SOL    HW139801   1.146   2.223   3.111  1.8715  2.4106  1.7939
13034SOL    HW239802   1.019   2.296   3.150 -1.6274 -1.3019 -1.5629
13035SOL     OW39803   7.249   0.389   7.757  0.6157 -0.3168  0.0487
13035SOL    HW139804   7.268   0.458   7.694 -0.0373  0.0274  0.2137
13035SOL    HW239805   7.331   0.341   7.767  1.2944  0.8868  0.4846
13036SOL     OW39806   1.242   4.094   0.811  0.1782  0.4370  0.0645
13036SOL    HW139807   1.172   4.090   0.746  0.2468 -0.3941  0.0324
13036SOL    HW239808   1.265   4.003   0.828  1.2640  0.6962  0.0652
13037SOL     OW39809   2.229   2.573   5.350  0.1032  0.0028  0.1456
13037SOL    HW139810   2.269   2.552   5.435 -0.2059 -0.4868  0.1722
13037SOL    HW239811   2.265   2.659   5.327 -1.4037  1.1324  1.7594
13038SOL     OW39812   6.576   7.481   0.682  0.3163  0.0509 -0.2269
13038SOL    HW139813   6.508   7.432   0.728 -0.3297  2.0692  1.0788
13038SOL    HW239814   6.561   7.462   0.590 -1.8207  0.1651  0.0487
13039SOL     OW39815   7.773   5.451   0.183 -0.4626  0.2087  0.6731
13039SOL    HW139816   7.723   5.489   0.111 -0.1431  1.1999  0.9588
13039SOL    HW239817   7.749   5.503   0.260 -0.1751 -0.3042  1.1178
13040SOL     OW39818   3.970   7.778   4.899  0.6786 -0.4966  0.5919
13040SOL    HW139819   3.934   7.701   4.857 -3.6142  0.4061  2.0891
13040SOL    HW239820   3.989   7.750   4.988  1.1251 -0.3103  0.5578
13041SOL     OW39821   3.120   1.105   3.635 -0.8111  0.1200  0.4537
13041SOL    HW139822   3.209   1.076   3.653 -0.2928  0.6347 -1.1371
13041SOL    HW239823   3.120   1.198   3.655 -0.7004  0.3369 -0.5419
13042SOL     OW39824   2.918   7.367   0.299 -0.0052  0.0436  0.3756
13042SOL    HW139825   2.949   7.327   0.218 -0.9459 -1.8692  0.9077
13042SOL    HW239826   2.838   7.319   0.320 -1.0254  2.0013  1.2759
13043SOL     OW39827   7.838   2.793   3.528 -0.0384  0.4824 -0.4536
13043SOL    HW139828   7.759   2.819   3.479 -1.0468 -2.2233 -0.4095
13043SOL    HW239829   7.825   2.830   3.615 -2.0708 -1.1219  0.0141
13044SOL     OW39830   1.182   6.673   0.503  0.0463  0.8288 -0.2287
13044SOL    HW139831   1.239   6.646   0.575 -0.9593  2.1103  1.1045
13044SOL    HW239832   1.095   6.645   0.529 -0.2048  0.3914 -1.4576
13045SOL     OW39833   2.328   6.176   5.915 -0.1611  0.2198 -0.8818
13045SOL    HW139834   2.419   6.200   5.895 -0.1615  0.9860  0.0041
13045SOL    HW239835   2.321   6.185   6.010 -1.5944  1.6818 -1.1041
13046SOL     OW39836   0.562   3.752   1.082  0.0227 -0.1684  0.0570
13046SOL    HW139837   0.580   3.690   1.152 -1.4315  0.6850  1.2467
13046SOL    HW239838   0.470   3.776   1.094  0.5704  2.3627 -0.2233
13047SOL     OW39839   6.865   1.136   0.851  0.0844  0.2013  0.4099
13047SOL    HW139840   6.904   1.073   0.790  0.4677 -0.3545  1.1969
13047SOL    HW239841   6.898   1.221   0.822 -1.4204  0.2108 -1.4194
13048SOL     OW39842   2.877   4.972   1.296  0.4180  0.7870 -0.3527
13048SOL    HW139843   2.938   4.899   1.303  0.0990  0.3752 -1.6235
13048SOL    HW239844   2.835   4.977   1.382 -0.2221 -1.1409 -0.5159
13049SOL     OW39845   6.259   2.268   7.816  0.0818  0.0105 -0.4487
13049SOL    HW139846   6.248   2.332   7.887 -0.0637  1.8253 -2.0392
13049SOL    HW239847   6.353   2.249   7.816 -0.1415 -1.4653  1.3645
13050SOL     OW39848   7.854   0.175   1.296  0.2393  1.0566  0.1160
13050SOL    HW139849   7.904   0.094   1.311  1.0895  1.3373 -1.0015
13050SOL    HW239850   7.918   0.235   1.258 -0.8033  1.6503 -0.7714
13051SOL     OW39851   6.469   4.992   3.391  0.6563 -0.2163 -0.1746
13051SOL    HW139852   6.383   4.948   3.393  0.3430  0.3884 -0.1072
13051SOL    HW239853   6.456   5.071   3.443  0.1336  1.8822 -3.2129
13052SOL     OW39854   1.236   0.775   2.907 -0.1205 -0.2003  0.2296
13052SOL    HW139855   1.183   0.702   2.939 -0.9592  0.3262  0.0550
13052SOL    HW239856   1.326   0.748   2.925 -0.4603 -0.9132  0.9334
13053SOL     OW39857   2.390   5.303   6.966  0.4628  0.2079 -0.0716
13053SOL    HW139858   2.457   5.248   6.925  0.3338  0.3695 -0.5128
13053SOL    HW239859   2.436   5.383   6.992  0.4416  0.3322 -0.4038
13054SOL     OW39860   7.435   2.374   2.848 -0.0017 -0.2927 -0.8163
13054SOL    HW139861   7.518   2.366   2.894 -0.3942 -1.3178 -0.2710
13054SOL    HW239862   7.389   2.293   2.867 -2.7956  1.7301  2.1876
13055SOL     OW39863   6.009   3.876   2.062  0.6303  0.2974 -0.8779
13055SOL    HW139864   6.075   3.813   2.089 -0.3430 -0.0238  0.8599
13055SOL    HW239865   6.055   3.960   2.062  1.2207 -0.0214 -0.4067
13056SOL     OW39866   6.698   2.585   5.224 -0.0012  0.4931  0.4485
13056SOL    HW139867   6.611   2.618   5.248 -0.7688 -0.3626 -1.0004
13056SOL    HW239868   6.696   2.493   5.251 -0.1685  0.0392 -1.0349
13057SOL     OW39869   5.941   5.491   4.744  0.3467 -0.1466 -0.1352
13057SOL    HW139870   5.942   5.400   4.774  0.8038  0.3139  1.3179
13057SOL    HW239871   6.027   5.503   4.704  0.5354 -0.1745  0.2574
13058SOL     OW39872   3.391   1.296   3.610 -0.0393 -0.3958 -0.2940
13058SOL    HW139873   3.409   1.372   3.666 -0.0489 -0.4043 -0.2795
13058SOL    HW239874   3.391   1.221   3.670 -0.7578 -0.3206 -0.1838
13059SOL     OW39875   6.149   6.100   7.493 -0.2743  0.4848  0.3338
13059SOL    HW139876   6.128   6.006   7.493 -0.3347  0.4882 -0.5684
13059SOL    HW239877   6.161   6.122   7.586  0.4555 -0.5668  0.5054
13060SOL     OW39878   0.380   6.447   3.388  0.0943 -0.0323  0.6508
13060SOL    HW139879   0.348   6.372   3.339  0.1108 -0.0753  0.7059
13060SOL    HW239880   0.441   6.410   3.452 -0.7923 -0.1095  1.4792
13061SOL     OW39881   6.281   5.544   4.896  0.1945  0.1392 -0.4044
13061SOL    HW139882   6.366   5.504   4.915  0.1005  0.0161 -0.2362
13061SOL    HW239883   6.253   5.501   4.815 -0.2799 -0.7491  0.2105
13062SOL     OW39884   6.877   1.272   0.601 -0.5038  0.2808 -0.1211
13062SOL    HW139885   6.866   1.367   0.592 -1.8877  0.1139 -0.4276
13062SOL    HW239886   6.967   1.255   0.573 -0.6380  1.3491 -1.2767
13063SOL     OW39887   6.766   7.186   0.485  0.0617  0.1306 -0.3403
13063SOL    HW139888   6.786   7.177   0.578 -1.2623 -1.4773 -0.1700
13063SOL    HW239889   6.700   7.255   0.481 -0.2099 -0.1093 -0.0342
13064SOL     OW39890   5.418   5.343   3.692 -0.2333  0.5346 -0.5308
13064SOL    HW139891   5.468   5.311   3.767  0.6132  1.3139 -0.7452
13064SOL    HW239892   5.481   5.394   3.641 -0.4744 -0.9338 -2.4156
13065SOL     OW39893   3.936   6.437   3.449  0.6740  0.6811 -1.1232
13065SOL    HW139894   3.904   6.413   3.363  1.0825  0.1894 -1.1447
13065SOL    HW239895   3.954   6.531   3.443 -2.2245  1.3574 -0.6416
13066SOL     OW39896   4.303   5.641   4.966  0.3170 -0.3573 -0.5520
13066SOL    HW139897   4.377   5.701   4.978  0.2419 -0.0232 -1.6461
13066SOL    HW239898   4.234   5.677   5.021  0.3816  0.3824 -0.9338
13067SOL     OW39899   3.778   7.093   0.383 -0.1143  0.0403  0.1185
13067SOL    HW139900   3.855   7.036   0.378 -0.6165 -0.8062  1.5612
13067SOL    HW239901   3.708   7.041   0.345 -0.4757 -0.1453  1.0151
13068SOL     OW39902   1.854   1.671   5.240  0.4696 -0.1521 -0.6109
13068SOL    HW139903   1.903   1.751   5.223  0.5173 -0.0868 -0.1756
13068SOL    HW239904   1.780   1.700   5.293  0.2262 -0.3265 -0.8506
13069SOL     OW39905   2.993   4.549   6.447 -0.1897 -0.0015  1.0151
13069SOL    HW139906   2.915   4.590   6.483 -1.3424 -0.9174 -0.3566
13069SOL    HW239907   2.980   4.456   6.460  0.5681 -0.1871  0.5267
13070SOL     OW39908   5.424   0.202   4.734 -0.1070  0.1761 -0.2768
13070SOL    HW139909   5.357   0.242   4.790 -0.4903 -1.0554  0.1733
13070SOL    HW239910   5.486   0.273   4.717 -1.0176  1.0880  0.0959
13071SOL     OW39911   6.315   4.824   3.763 -0.4038 -0.6990 -0.0031
13071SOL    HW139912   6.309   4.834   3.668 -1.4577 -2.0097 -0.0988
13071SOL    HW239913   6.408   4.834   3.782 -0.1399 -0.7006 -1.2060
13072SOL     OW39914   6.125   6.789   1.911  0.0104 -0.0942  0.2820
13072SOL    HW139915   6.180   6.713   1.894 -0.9662 -0.7619  0.0345
13072SOL    HW239916   6.182   6.850   1.958  0.6323 -1.2350  1.0653
13073SOL     OW39917   7.088   4.008   7.948  0.0534 -0.5639  0.1597
13073SOL    HW139918   7.073   4.051   7.864  0.3310 -1.8075 -0.5645
13073SOL    HW239919   7.184   4.005   7.956  0.0246 -0.0211  0.7599
13074SOL     OW39920   1.638   6.144   3.577  0.2574  0.0093 -0.2692
13074SOL    HW139921   1.620   6.173   3.667  0.0681  1.1811 -0.6717
13074SOL    HW239922   1.680   6.059   3.588  1.7752  0.8693  1.0215
13075SOL     OW39923   4.312   7.146   4.924 -0.2934  0.0261  0.6326
13075SOL    HW139924   4.363   7.132   4.844  0.3315  1.1793  0.8102
13075SOL    HW239925   4.259   7.224   4.905  0.4037  0.7482  1.5957
13076SOL     OW39926   7.953   4.232   0.395  0.0954 -0.0188  0.1134
13076SOL    HW139927   7.964   4.308   0.451  1.1159 -0.2567  0.2580
13076SOL    HW239928   7.878   4.185   0.432 -0.8355  1.1228 -0.2499
13077SOL     OW39929   2.853   3.918   3.211 -0.4642 -0.0685 -0.1073
13077SOL    HW139930   2.807   3.860   3.271  0.5926  0.4896  1.2805
13077SOL    HW239931   2.848   4.004   3.252  0.4819  0.2853 -0.7065
13078SOL     OW39932   2.024   2.106   1.594  0.1402 -0.2646 -0.1090
13078SOL    HW139933   2.029   2.023   1.641 -1.4599 -1.2978 -1.6606
13078SOL    HW239934   1.951   2.153   1.635  0.5183  0.0543  0.2191
13079SOL     OW39935   1.638   0.929   1.010  0.8070  0.1028 -0.3200
13079SOL    HW139936   1.717   0.885   0.979 -1.1000 -2.6620 -1.5691
13079SOL    HW239937   1.634   0.908   1.104  0.3357 -1.8466 -0.7384
13080SOL     OW39938   6.760   4.081   7.302 -0.5224 -0.3684  0.5998
13080SOL    HW139939   6.744   4.152   7.364  0.1528 -0.9732  1.4792
13080SOL    HW239940   6.848   4.100   7.267 -1.0151  0.1335 -0.4141
13081SOL     OW39941   6.759   7.924   6.905 -0.3382  0.2716 -0.2469
13081SOL    HW139942   6.667   7.950   6.900 -0.1591  0.7100 -1.9860
13081SOL    HW239943   6.761   7.838   6.865 -0.2282 -0.5507  1.4282
13082SOL     OW39944   4.952   4.367   7.393  0.0438 -0.0321  0.4438
13082SOL    HW139945   4.951   4.271   7.394  2.5005 -0.1185  1.1797
13082SOL    HW239946   4.906   4.390   7.312  2.5928 -2.0079 -1.7491
13083SOL     OW39947   1.957   7.014   4.082  0.6740 -0.3543  0.3966
13083SOL    HW139948   2.027   6.957   4.114  0.6359 -0.3216  0.5400
13083SOL    HW239949   2.002   7.092   4.049  0.9589 -1.5207 -2.2312
13084SOL     OW39950   0.804   5.201   5.070  0.1942 -0.5642  0.4081
13084SOL    HW139951   0.804   5.172   5.161 -0.3021  1.2822  1.0329
13084SOL    HW239952   0.892   5.179   5.038  1.0854  0.5473  1.9480
13085SOL     OW39953   5.527   3.318   3.555 -0.1036 -0.3989  0.1444
13085SOL    HW139954   5.623   3.314   3.551 -0.0060 -1.1437  1.9697
13085SOL    HW239955   5.498   3.314   3.464  1.6071  0.2464 -0.4639
13086SOL     OW39956   1.352   7.554   2.243 -0.3028 -0.4646 -0.2293
13086SOL    HW139957   1.352   7.608   2.164  0.2390  1.7545  1.1908
13086SOL    HW239958   1.275   7.581   2.291  0.4313 -0.3401  0.9118
13087SOL     OW39959   3.906   5.422   3.789 -0.0629 -0.0021 -0.2272
13087SOL    HW139960   3.993   5.451   3.814 -0.4816  0.9343  0.1706
13087SOL    HW239961   3.856   5.422   3.870 -0.7671  0.6720 -0.6484
13088SOL     OW39962   1.081   4.691   3.990  0.0271  0.2907 -0.0073
13088SOL    HW139963   1.163   4.646   4.012  1.8672  2.2305 -2.2998
13088SOL    HW239964   1.064   4.748   4.064  0.2324 -0.7718  0.8848
13089SOL     OW39965   6.613   4.108   2.652 -0.8847  0.9114  0.4985
13089SOL    HW139966   6.555   4.040   2.617  1.6636 -1.0013 -0.3335
13089SOL    HW239967   6.586   4.118   2.743 -1.9487 -0.5652  0.3882
13090SOL     OW39968   0.984   2.892   3.753  0.1728 -0.1847  0.1196
13090SOL    HW139969   0.936   2.814   3.780 -1.1511 -0.0436 -1.6720
13090SOL    HW239970   1.054   2.859   3.696 -0.3588 -0.0882 -0.6009
13091SOL     OW39971   6.685   2.798   6.056 -0.1421  0.1683 -0.4525
13091SOL    HW139972   6.645   2.851   6.125  1.3059 -0.8265  1.2338
13091SOL    HW239973   6.646   2.712   6.065  1.1544 -0.3824  0.1808
13092SOL     OW39974   3.115   1.878   6.348  0.1927 -0.6220  0.2751
13092SOL    HW139975   3.126   1.966   6.310  1.7449 -0.6803  0.5343
13092SOL    HW239976   3.063   1.831   6.283 -2.0045  0.9034  0.8128
13093SOL     OW39977   6.761   0.413   4.467  0.3043 -0.1210  0.3355
13093SOL    HW139978   6.826   0.476   4.437 -0.1712  0.6384  0.8401
13093SOL    HW239979   6.755   0.349   4.397  1.9961 -0.5262  0.5282
13094SOL     OW39980   0.687   1.218   1.908  0.1593  0.0701  0.4572
13094SOL    HW139981   0.740   1.285   1.865 -0.0724  1.4491  2.1624
13094SOL    HW239982   0.745   1.180   1.974 -0.0960 -0.5148  0.3476
13095SOL     OW39983   6.718   0.252   1.979 -0.5155  0.1106  0.4289
13095SOL    HW139984   6.733   0.340   1.946  1.0719  0.2239  1.3380
13095SOL    HW239985   6.806   0.217   1.995 -1.1265 -1.4902  0.4686
13096SOL     OW39986   5.690   1.647   2.724 -0.9671  0.1129 -0.5127
13096SOL    HW139987   5.705   1.605   2.640 -1.4301 -0.3553 -0.3733
13096SOL    HW239988   5.649   1.579   2.778  0.3826  0.0412  0.4737
13097SOL     OW39989   3.423   6.899   7.778  0.1353 -0.2736 -0.2341
13097SOL    HW139990   3.418   6.994   7.768  0.4415 -0.0820  1.1737
13097SOL    HW239991   3.396   6.864   7.693 -0.2838  1.0643 -0.6755
13098SOL     OW39992   4.235   3.847   6.859 -0.2006  0.0823  0.5134
13098SOL    HW139993   4.229   3.812   6.947 -1.3738  2.4044  1.4396
13098SOL    HW239994   4.319   3.894   6.858  0.2917 -0.7878  0.0346
13099SOL     OW39995   4.072   0.301   4.872  0.3176 -0.3393 -0.6158
13099SOL    HW139996   4.035   0.321   4.786  2.4507  1.1993 -1.2566
13099SOL    HW239997   4.107   0.212   4.862 -0.0504 -0.4370 -1.1069
13100SOL     OW39998   7.332   4.219   4.673  0.4331  0.7097  0.9526
13100SOL    HW139999   7.279   4.283   4.625  0.4704  0.3321  0.4080
13100SOL    HW240000   7.278   4.196   4.749 -1.6854 -2.0588 -1.1680
13101SOL     OW40001   4.596   2.204   7.544 -0.4169  0.2883  0.1617
13101SOL    HW140002   4.654   2.130   7.563  0.2207  1.3288  2.7826
13101SOL    HW240003   4.629   2.274   7.601 -2.8441  1.6477 -0.0033
13102SOL     OW40004   7.107   2.020   3.412 -0.6057  0.2706  0.4454
13102SOL    HW140005   7.039   1.963   3.375 -3.7283  3.5981  0.4876
13102SOL    HW240006   7.097   2.103   3.366  2.7741  1.2997  1.2975
13103SOL     OW40007   4.898   4.185   6.987 -0.1140 -0.3848  0.3111
13103SOL    HW140008   4.806   4.195   6.962 -0.5423 -0.4203  1.7941
13103SOL    HW240009   4.912   4.090   6.986  0.3357 -0.3378 -1.2771
13104SOL     OW40010   1.013   6.209   7.163 -0.1806 -0.3956 -0.4258
13104SOL    HW140011   1.032   6.290   7.116 -1.1831  0.3048  0.3374
13104SOL    HW240012   0.998   6.144   7.094  0.3474  0.1336 -1.0498
13105SOL     OW40013   6.411   7.778   4.985  0.2421 -0.3807  0.2229
13105SOL    HW140014   6.418   7.874   4.980  1.7609 -0.5195 -1.7590
13105SOL    HW240015   6.364   7.761   5.067  0.0629  2.0471  0.6918
13106SOL     OW40016   5.739   1.787   6.968 -0.2153 -0.1594  0.4654
13106SOL    HW140017   5.789   1.706   6.978 -0.0190 -0.2225 -0.8787
13106SOL    HW240018   5.758   1.817   6.879 -2.4634 -0.1347 -0.0694
13107SOL     OW40019   3.733   4.329   1.163  0.1688 -0.3997  0.5369
13107SOL    HW140020   3.661   4.316   1.100  0.3731 -0.6712  0.3521
13107SOL    HW240021   3.748   4.423   1.164 -1.0544 -0.1902  1.5569
13108SOL     OW40022   5.388   2.967   1.073  0.1315  0.3399  0.0629
13108SOL    HW140023   5.390   2.987   0.979 -1.2188 -0.0473 -0.0746
13108SOL    HW240024   5.476   2.934   1.092  0.1146 -0.6004 -1.3070
13109SOL     OW40025   0.965   3.044   0.034 -0.2101 -0.3655 -0.0804
13109SOL    HW140026   1.042   2.988   0.029 -0.3288 -0.7658  1.7310
13109SOL    HW240027   0.981   3.114  -0.029  2.0942  0.0867  0.9288
13110SOL     OW40028   2.838   6.199   5.733  0.2317 -0.5551  0.2464
13110SOL    HW140029   2.806   6.187   5.643  0.1985 -1.5311  0.3785
13110SOL    HW240030   2.933   6.189   5.726  0.4005  0.9666  0.0771
13111SOL     OW40031   4.004   6.735   1.972  0.1191 -0.2864  0.0495
13111SOL    HW140032   3.960   6.813   1.938  2.2796 -0.1842 -2.8303
13111SOL    HW240033   3.940   6.665   1.960 -0.4347  0.3873 -1.0813
13112SOL     OW40034   0.474   1.363   4.008  0.3392  0.1529 -0.5550
13112SOL    HW140035   0.533   1.363   4.084 -1.0187  0.8700  0.5490
13112SOL    HW240036   0.412   1.434   4.026 -0.2788  0.0446 -2.1416
13113SOL     OW40037   2.327   1.586   1.321 -0.0366 -0.0392 -0.4909
13113SOL    HW140038   2.313   1.643   1.397  1.9386  0.1442 -0.2015
13113SOL    HW240039   2.293   1.501   1.348 -1.7672  0.6403 -0.4142
13114SOL     OW40040   4.959   4.685   6.739  0.3038  0.2387 -0.1310
13114SOL    HW140041   4.928   4.617   6.680  0.9099  0.7076 -1.0020
13114SOL    HW240042   5.037   4.720   6.697  2.3609 -1.2235  2.2182
13115SOL     OW40043   1.244   0.031   2.159 -0.1851  0.6851  0.4985
13115SOL    HW140044   1.334   0.064   2.170  0.8849 -1.4715 -1.1373
13115SOL    HW240045   1.209   0.080   2.085  0.7523 -0.5131 -0.7752
13116SOL     OW40046   3.870   6.297   7.026 -0.0764 -0.1681  0.2507
13116SOL    HW140047   3.875   6.385   6.989 -1.2408  0.0673  0.6338
13116SOL    HW240048   3.956   6.258   7.007  0.8005  1.3649  0.9087
13117SOL     OW40049   4.220   0.681   1.816 -0.2131 -0.5731  0.3717
13117SOL    HW140050   4.145   0.659   1.759  0.3817  0.0897 -0.6859
13117SOL    HW240051   4.180   0.724   1.892 -0.8122  1.2531 -0.9185
13118SOL     OW40052   0.145   3.580   5.626 -0.5825 -0.2054 -0.5008
13118SOL    HW140053   0.217   3.562   5.566 -0.1209  0.8711 -0.3001
13118SOL    HW240054   0.119   3.670   5.606 -2.1301 -0.6913 -0.8153
13119SOL     OW40055   6.398   0.197   4.733 -0.8614  0.0411  0.5073
13119SOL    HW140056   6.318   0.152   4.705 -1.2851  1.4901 -0.7671
13119SOL    HW240057   6.465   0.168   4.671 -0.5262 -0.7354  1.2246
13120SOL     OW40058   0.094   0.716   3.957  0.4135  0.8308 -0.2844
13120SOL    HW140059   0.098   0.737   4.050  2.7766 -0.3618 -0.0390
13120SOL    HW240060   0.023   0.653   3.949  2.2566 -1.6859  1.4010
13121SOL     OW40061   2.598   5.147   4.569  0.4070 -0.8172  0.1025
13121SOL    HW140062   2.550   5.108   4.643 -0.3208  0.9228  0.5858
13121SOL    HW240063   2.654   5.213   4.608  0.9539 -0.7313 -0.7982
13122SOL     OW40064   3.583   4.330   3.690 -0.3611 -0.1857  0.1976
13122SOL    HW140065   3.628   4.311   3.608 -1.0715 -1.1380  0.0052
13122SOL    HW240066   3.497   4.289   3.680  0.1033 -1.7866  2.0405
13123SOL     OW40067   4.589   3.458   6.843  0.4044  0.1755 -0.3097
13123SOL    HW140068   4.551   3.458   6.755 -0.7370 -2.8524  0.0559
13123SOL    HW240069   4.682   3.473   6.829  0.8442 -3.3294 -2.5268
13124SOL     OW40070   3.182   5.440   6.025  0.3460  0.5023  0.2073
13124SOL    HW140071   3.238   5.495   6.080  0.7049 -0.8963  1.3071
13124SOL    HW240072   3.156   5.367   6.082 -1.3942  0.3380 -0.7285
13125SOL     OW40073   1.721   0.054   6.403  0.2562 -0.2424  0.0089
13125SOL    HW140074   1.680  -0.002   6.338 -0.4523  0.5281 -0.2238
13125SOL    HW240075   1.736  -0.003   6.478 -0.3998 -0.7601 -0.2432
13126SOL     OW40076   2.457   2.514   1.596  0.2735 -0.3719 -0.7878
13126SOL    HW140077   2.500   2.430   1.580  1.9914  0.0082  1.3827
13126SOL    HW240078   2.453   2.521   1.691 -0.6381  1.6441 -0.9162
13127SOL     OW40079   6.515   3.090   0.190 -0.0207  0.6480  0.0005
13127SOL    HW140080   6.463   3.136   0.256 -1.9313 -1.4787  0.1011
13127SOL    HW240081   6.468   3.104   0.108  0.2097  0.1004 -0.2279
13128SOL     OW40082   4.945   1.366   5.129 -0.7450  0.3761  0.5750
13128SOL    HW140083   5.032   1.345   5.094 -0.4924  1.3805  0.5764
13128SOL    HW240084   4.934   1.459   5.109 -2.8340 -0.2574 -1.6417
13129SOL     OW40085   0.573   5.502   2.992  0.3707  0.2473  0.1421
13129SOL    HW140086   0.565   5.409   2.971  0.6926  0.8291 -3.0801
13129SOL    HW240087   0.488   5.527   3.028  0.3267 -1.2633  1.1660
13130SOL     OW40088   2.954   4.087   5.466  0.3101 -0.4459  0.6387
13130SOL    HW140089   2.889   4.016   5.466  0.4121 -0.5852 -1.0384
13130SOL    HW240090   2.917   4.152   5.406  0.7927  0.3819  1.2264
13131SOL     OW40091   3.001   6.308   6.022 -0.3955  0.1454  0.2607
13131SOL    HW140092   2.995   6.305   6.118 -0.9749 -1.3455  0.2031
13131SOL    HW240093   2.945   6.237   5.992 -2.1537  2.0771 -1.3048
13132SOL     OW40094   2.272   7.204   1.108  0.9002 -0.2385  0.2643
13132SOL    HW140095   2.367   7.195   1.106  0.9796 -0.0509  1.8926
13132SOL    HW240096   2.248   7.183   1.198 -0.5718  0.0573 -0.0349
13133SOL     OW40097   1.013   7.192   7.094 -0.9486  0.3367 -0.4814
13133SOL    HW140098   1.103   7.224   7.093 -0.5128 -0.8021 -1.8291
13133SOL    HW240099   0.971   7.237   7.167  0.0338  2.7149 -1.3096
13134SOL     OW40100   6.427   1.751   1.925  0.0556  0.6584  0.4478
13134SOL    HW140101   6.354   1.783   1.978 -0.5792 -0.5990  0.3806
13134SOL    HW240102   6.460   1.675   1.974 -0.3675 -0.3591 -0.7982
13135SOL     OW40103   4.865   1.831   4.874  0.3754 -0.2727 -0.3243
13135SOL    HW140104   4.923   1.893   4.919  1.9943 -1.0054 -1.3173
13135SOL    HW240105   4.785   1.832   4.926  1.9143 -0.6208  2.2307
13136SOL     OW40106   4.866   6.462   1.758 -0.0898  0.2958 -0.2726
13136SOL    HW140107   4.890   6.548   1.794  0.2571 -0.8837  2.6190
13136SOL    HW240108   4.937   6.404   1.786 -0.8322 -1.1493 -1.2655
13137SOL     OW40109   4.937   4.184   1.015  0.1290  0.1151  0.1303
13137SOL    HW140110   4.883   4.199   0.937  0.6484  0.9222 -0.0866
13137SOL    HW240111   5.022   4.222   0.992  1.0818 -1.9060  0.1190
13138SOL     OW40112   1.501   4.961   4.856  0.2555  0.1132  0.4211
13138SOL    HW140113   1.429   4.949   4.918 -1.3858 -0.9292 -1.6126
13138SOL    HW240114   1.567   5.010   4.906 -1.5841  0.5814  2.5261
13139SOL     OW40115   2.905   6.589   7.655 -0.4535  0.3916  0.0730
13139SOL    HW140116   2.987   6.635   7.638 -0.4110  0.6846  1.0211
13139SOL    HW240117   2.856   6.596   7.574  1.2114 -1.4141 -1.1854
13140SOL     OW40118   5.618   4.529   5.626  0.4838 -0.1754  0.5969
13140SOL    HW140119   5.617   4.622   5.648 -0.7371 -0.0504  0.1000
13140SOL    HW240120   5.710   4.504   5.632  0.9448  1.2490 -0.0179
13141SOL     OW40121   2.024   6.955   2.259 -0.2540  0.3821 -0.5912
13141SOL    HW140122   1.974   7.001   2.192  0.7139  1.7604 -0.3997
13141SOL    HW240123   2.110   6.998   2.259 -0.5343  1.1137  2.2220
13142SOL     OW40124   1.031   7.117   5.566  0.0477  0.1433 -0.1488
13142SOL    HW140125   0.980   7.153   5.494 -0.7274 -0.1558  0.2370
13142SOL    HW240126   1.107   7.076   5.525 -1.1976 -1.4704 -0.9689
13143SOL     OW40127   6.506   5.893   1.693 -1.2676 -0.1023  0.5457
13143SOL    HW140128   6.470   5.892   1.605 -1.0859 -1.1654  0.4704
13143SOL    HW240129   6.452   5.830   1.742 -1.5714  0.7075  1.2782
13144SOL     OW40130   0.410   2.615   6.044 -0.2270 -0.0506 -0.2370
13144SOL    HW140131   0.342   2.597   6.108 -0.7545 -0.0271 -0.7760
13144SOL    HW240132   0.433   2.707   6.057  0.5029 -0.3513  0.6835
13145SOL     OW40133   3.211   2.447   1.908 -0.1722 -0.0485  0.3078
13145SOL    HW140134   3.279   2.451   1.841 -0.6019 -0.0020 -0.1258
13145SOL    HW240135   3.188   2.539   1.925  0.2323 -0.0337  0.8328
13146SOL     OW40136   1.114   1.432   1.648 -0.6996 -0.3867 -0.4275
13146SOL    HW140137   1.112   1.337   1.662  0.7197 -0.3457  0.2537
13146SOL    HW240138   1.137   1.468   1.733 -1.3063  0.5961 -0.6640
13147SOL     OW40139   2.546   4.305   4.195  0.3863 -0.1586 -0.6700
13147SOL    HW140140   2.560   4.307   4.101  1.6372 -2.4198 -0.5920
13147SOL    HW240141   2.633   4.318   4.233 -0.0461  0.3799  0.1761
13148SOL     OW40142   1.451   4.698   3.714  0.2937 -0.0651 -0.1745
13148SOL    HW140143   1.524   4.683   3.774 -0.6193 -0.0711  0.9660
13148SOL    HW240144   1.475   4.649   3.635  1.0971 -0.8374  0.5177
13149SOL     OW40145   6.095   7.338   3.546  0.0197  0.1568  0.1980
13149SOL    HW140146   6.128   7.349   3.636 -0.3360 -1.3530  0.5446
13149SOL    HW240147   6.171   7.355   3.491  0.7754 -0.8399  0.8835
13150SOL     OW40148   7.098   0.837   7.642  0.3381  0.6042  0.0139
13150SOL    HW140149   7.148   0.889   7.704 -0.6712  1.0691  0.4519
13150SOL    HW240150   7.044   0.900   7.595  2.4042  0.5653 -2.7273
13151SOL     OW40151   1.633   3.217   1.692 -0.4309  0.4359  0.2398
13151SOL    HW140152   1.685   3.189   1.767  1.5648  1.7282 -0.5650
13151SOL    HW240153   1.622   3.312   1.706 -1.3380  0.4220 -0.3444
13152SOL     OW40154   5.617   3.859   0.802  0.6806 -0.0579  0.0358
13152SOL    HW140155   5.595   3.880   0.893  0.7761 -0.2081  0.0936
13152SOL    HW240156   5.565   3.780   0.782  1.4913 -0.6717  0.3120
13153SOL     OW40157   1.477   2.491   3.310  0.2674  0.1318  0.1480
13153SOL    HW140158   1.551   2.455   3.358  0.4327  0.6786  0.3054
13153SOL    HW240159   1.506   2.577   3.280  0.8516 -0.9243 -2.5612
13154SOL     OW40160   1.616   2.391   2.758  0.2236 -0.1418 -0.2625
13154SOL    HW140161   1.688   2.453   2.751 -0.8488  1.3324  1.1842
13154SOL    HW240162   1.541   2.436   2.721 -0.1484 -1.3924 -1.1113
13155SOL     OW40163   4.422   2.944   4.071 -0.2192 -0.2513  0.1001
13155SOL    HW140164   4.470   2.884   4.127  1.1450 -0.0382 -0.7947
13155SOL    HW240165   4.489   2.998   4.029 -1.2707  0.4763 -0.7276
13156SOL     OW40166   0.420   3.828   7.397 -0.4873 -0.1665  0.2963
13156SOL    HW140167   0.351   3.872   7.347  0.0868 -0.5435 -0.8598
13156SOL    HW240168   0.398   3.735   7.390 -1.1757 -0.1680  1.9484
13157SOL     OW40169   0.962   4.253   1.388  0.4394  0.0477  0.0582
13157SOL    HW140170   0.903   4.318   1.427  1.4027  0.7041  0.4755
13157SOL    HW240171   1.035   4.246   1.450  0.5973 -1.0713 -0.2273
13158SOL     OW40172   0.111   1.058   1.939  0.8571  0.2584  0.5866
13158SOL    HW140173   0.101   0.987   1.875  0.2197  1.3096 -0.5072
13158SOL    HW240174   0.204   1.054   1.964  0.5505 -1.8457  1.6416
13159SOL     OW40175   0.307   6.768   0.480  0.1420  0.5399  0.3338
13159SOL    HW140176   0.244   6.753   0.550  0.3287 -1.8996  0.0445
13159SOL    HW240177   0.285   6.704   0.412  1.1218  1.5900 -1.0457
13160SOL     OW40178   1.771   1.170   4.637  0.4205 -0.1360  0.0856
13160SOL    HW140179   1.779   1.077   4.657  1.6130  0.3529  2.1867
13160SOL    HW240180   1.683   1.193   4.665  0.1849 -0.5755 -0.2807
13161SOL     OW40181   1.440   5.684   2.148  0.2480  0.1100 -0.6157
13161SOL    HW140182   1.469   5.773   2.165 -1.7289  0.5766  0.5942
13161SOL    HW240183   1.502   5.651   2.083  2.6539  1.4054  0.8843
13162SOL     OW40184   3.020   5.635   7.135 -0.1842 -0.3045 -0.5788
13162SOL    HW140185   3.071   5.650   7.056 -0.3434 -1.0206 -0.8251
13162SOL    HW240186   2.974   5.717   7.150  1.1360  0.4136 -0.2688
13163SOL     OW40187   1.413   0.248   3.341  0.0136  0.0486  0.3268
13163SOL    HW140188   1.487   0.195   3.312  1.6535  2.1217  0.4988
13163SOL    HW240189   1.387   0.296   3.262  0.5908  1.2689  0.8607
13164SOL     OW40190   4.295   5.752   2.033 -0.3350 -0.9078  0.1078
13164SOL    HW140191   4.337   5.769   2.117 -0.0577 -0.4067 -0.1227
13164SOL    HW240192   4.354   5.692   1.988  0.8145  0.7266 -0.7041
13165SOL     OW40193   7.923   5.431   7.399 -0.0288 -0.4456 -0.3657
13165SOL    HW140194   7.981   5.486   7.347 -2.9200  0.3431 -3.1092
13165SOL    HW240195   7.973   5.351   7.415  1.7294  0.0549 -2.8571
13166SOL     OW40196   4.361   6.871   2.307 -0.1571  0.3338 -0.5233
13166SOL    HW140197   4.410   6.797   2.269  0.7771 -0.0929  1.3938
13166SOL    HW240198   4.269   6.847   2.297  0.1270 -1.6301  0.9561
13167SOL     OW40199   0.975   6.619   3.899 -0.3036 -0.3865  0.3441
13167SOL    HW140200   0.932   6.535   3.914 -0.7022  0.1046  2.2393
13167SOL    HW240201   0.918   6.683   3.941  0.7585  0.6558  0.2603
13168SOL     OW40202   3.509   6.067   7.745 -0.1824  0.8542 -0.5767
13168SOL    HW140203   3.471   5.982   7.723 -0.2060  0.8287 -0.4386
13168SOL    HW240204   3.439   6.112   7.792  0.2144  0.5192  0.3434
13169SOL     OW40205   4.516   5.127   6.065 -0.4367  0.2615  0.3632
13169SOL    HW140206   4.431   5.140   6.022 -0.3674  1.3993  0.5402
13169SOL    HW240207   4.566   5.206   6.045  0.4297 -0.2054  0.6229
13170SOL     OW40208   2.581   0.771   1.712  0.1233 -0.0734 -0.3066
13170SOL    HW140209   2.521   0.739   1.644 -1.1727  1.3209  0.1338
13170SOL    HW240210   2.635   0.837   1.667 -0.3518  0.4418 -0.1293
13171SOL     OW40211   6.046   2.615   6.292  0.3564  0.6849  0.0177
13171SOL    HW140212   6.001   2.699   6.298 -1.6387 -0.3030 -0.1903
13171SOL    HW240213   6.057   2.587   6.383 -1.8898 -0.2249  0.0800
13172SOL     OW40214   0.797   7.626   2.500  0.2392 -0.4424  0.1115
13172SOL    HW140215   0.708   7.661   2.506 -0.3996 -2.1271  1.5178
13172SOL    HW240216   0.836   7.671   2.426 -1.6512  0.6476 -0.2886
13173SOL     OW40217   2.988   5.800   0.269 -0.8064 -0.0625  0.3190
13173SOL    HW140218   2.903   5.757   0.280 -1.3760  0.8227 -0.4745
13173SOL    HW240219   3.021   5.811   0.358 -0.8024 -1.7817  0.5710
13174SOL     OW40220   0.627   4.810   5.553  0.1044  0.0312  0.2471
13174SOL    HW140221   0.680   4.809   5.632  2.0961 -2.2549 -0.9825
13174SOL    HW240222   0.692   4.808   5.482 -1.5930  2.0600 -1.4943
13175SOL     OW40223   1.654   5.252   3.610  0.4127 -0.0106 -0.2147
13175SOL    HW140224   1.625   5.166   3.638 -0.1359  0.3667  0.4088
13175SOL    HW240225   1.646   5.307   3.688  1.3957  0.4580 -0.4246
13176SOL     OW40226   5.105   3.437   2.703 -0.0669 -0.1223  0.0849
13176SOL    HW140227   5.168   3.398   2.763  0.1556  0.3562  0.1714
13176SOL    HW240228   5.138   3.526   2.689  0.7467 -0.6910 -1.9450
13177SOL     OW40229   3.200   3.969   3.675  0.3892  0.3309  0.1814
13177SOL    HW140230   3.164   4.051   3.709  1.5781  0.4001  1.3214
13177SOL    HW240231   3.177   3.970   3.582 -0.3019  1.5698  0.3400
13178SOL     OW40232   0.357   5.854   4.233 -0.4033 -0.2600  0.1683
13178SOL    HW140233   0.320   5.935   4.269  0.3619 -0.4922  1.5290
13178SOL    HW240234   0.451   5.863   4.245 -0.2277 -0.9137 -0.6398
13179SOL     OW40235   5.973   4.918   2.648  0.0107 -0.7355 -0.0938
13179SOL    HW140236   5.899   4.874   2.690 -2.6171  0.8760 -2.6703
13179SOL    HW240237   5.975   4.881   2.559  1.3049  0.3815 -0.5579
13180SOL     OW40238   0.599   7.745   0.999 -0.0953  0.5009  0.1470
13180SOL    HW140239   0.668   7.796   1.042  0.4057 -0.4601  0.5161
13180SOL    HW240240   0.526   7.749   1.060  1.2352 -2.4564  2.1399
13181SOL     OW40241   7.897   3.436   5.690 -0.2215 -0.2458  0.1355
13181SOL    HW140242   7.925   3.345   5.674  0.4210 -0.3909  1.8496
13181SOL    HW240243   7.973   3.489   5.666 -0.5265 -0.1726 -0.6773
13182SOL     OW40244   3.538   4.379   1.382 -0.2641 -0.3595 -0.1362
13182SOL    HW140245   3.623   4.401   1.422 -0.3465  0.3910 -0.3567
13182SOL    HW240246   3.561   4.342   1.297 -0.1668  0.1587 -0.3382
13183SOL     OW40247   3.696   5.269   5.040 -0.2827 -0.3957  0.0135
13183SOL    HW140248   3.765   5.296   5.101 -0.4335 -0.3402  0.1602
13183SOL    HW240249   3.672   5.181   5.069 -0.3018 -0.3995 -0.0134
13184SOL     OW40250   5.816   4.604   4.201 -0.2086 -0.0074 -0.1402
13184SOL    HW140251   5.794   4.511   4.197  2.0298 -0.6121 -0.0152
13184SOL    HW240252   5.809   4.627   4.294 -0.0461 -0.2715 -0.0602
13185SOL     OW40253   0.682   6.351   0.726 -0.0648 -0.1291  0.5751
13185SOL    HW140254   0.774   6.323   0.725  0.4189  1.2835 -1.5706
13185SOL    HW240255   0.640   6.294   0.790  2.2644 -0.9546  1.4567
13186SOL     OW40256   3.359   3.641   5.136  0.2665 -0.1780  0.5428
13186SOL    HW140257   3.427   3.590   5.179  1.2106 -0.3239 -1.0472
13186SOL    HW240258   3.294   3.657   5.204  1.2272 -1.2175  1.7434
13187SOL     OW40259   1.149   4.410   5.598 -0.3960 -0.0143  0.0121
13187SOL    HW140260   1.156   4.480   5.532  1.3148  0.4623  0.6323
13187SOL    HW240261   1.240   4.386   5.616 -0.9339 -2.3086 -0.0524
13188SOL     OW40262   6.937   6.324   3.704 -0.2493  0.1259  0.8643
13188SOL    HW140263   6.857   6.351   3.750  0.7937  2.9977  1.2014
13188SOL    HW240264   6.917   6.337   3.612 -0.7821 -1.1176  0.7786
13189SOL     OW40265   5.302   3.570   6.737  0.0819  0.2372  0.2035
13189SOL    HW140266   5.359   3.503   6.699  0.2519  0.2157  0.4983
13189SOL    HW240267   5.348   3.652   6.720 -0.3409  0.3307 -0.5611
13190SOL     OW40268   4.226   7.842   6.815  0.2626  0.2119 -0.2463
13190SOL    HW140269   4.267   7.782   6.877  0.0399  1.2652  0.9614
13190SOL    HW240270   4.136   7.851   6.846  0.5281  1.8421  0.1341
13191SOL     OW40271   3.054   4.741   1.343 -0.3311  0.1997 -0.2506
13191SOL    HW140272   3.130   4.767   1.395  0.1611 -0.9444 -0.3658
13191SOL    HW240273   2.998   4.693   1.404  0.4627 -1.5476 -0.8280
13192SOL     OW40274   7.101   4.212   6.496  0.2251 -0.5065 -0.2182
13192SOL    HW140275   7.047   4.152   6.547 -1.2614 -0.1782 -1.3073
13192SOL    HW240276   7.175   4.233   6.553 -0.4027 -1.5746  1.0489
13193SOL     OW40277   2.018   4.969   1.183  0.1800 -0.1685 -0.1198
13193SOL    HW140278   1.936   4.931   1.152 -0.3600  0.6322  0.2922
13193SOL    HW240279   2.005   5.064   1.176  1.0053 -0.0322  0.1070
13194SOL     OW40280   0.850   5.246   6.059  0.2668  0.4099  0.9211
13194SOL    HW140281   0.785   5.275   5.995  0.8707 -1.0317 -0.4125
13194SOL    HW240282   0.930   5.232   6.008  0.6603 -1.1670  1.8799
13195SOL     OW40283   0.318   1.247   1.222 -0.3466  0.3146  0.3695
13195SOL    HW140284   0.390   1.241   1.286  0.1335 -1.2511 -0.2611
13195SOL    HW240285   0.304   1.156   1.194 -0.4327  0.9686 -1.8814
13196SOL     OW40286   6.453   2.623   4.411 -0.0178  0.5245  0.6099
13196SOL    HW140287   6.513   2.548   4.410  0.4322  0.8655  1.2661
13196SOL    HW240288   6.451   2.653   4.320  0.0214 -0.1010  0.3952
13197SOL     OW40289   1.246   3.400   3.503  0.7999 -0.1227  0.4138
13197SOL    HW140290   1.174   3.412   3.440  0.7565  1.5922  0.7391
13197SOL    HW240291   1.211   3.340   3.568  0.6315 -1.4523 -0.8615
13198SOL     OW40292   2.626   5.895   1.538 -0.3933 -0.2806  0.2141
13198SOL    HW140293   2.601   5.946   1.615 -0.5818 -0.4941  0.2933
13198SOL    HW240294   2.722   5.890   1.542 -0.5064 -3.5678  2.5577
13199SOL     OW40295   5.827   3.040   6.950  0.9529 -0.5248  0.6882
13199SOL    HW140296   5.837   3.134   6.965  1.5531 -0.8120  2.3065
13199SOL    HW240297   5.754   3.014   7.006 -0.0826 -0.8299 -0.7496
13200SOL     OW40298   2.681   5.871   2.455  0.0141 -0.2278 -0.4471
13200SOL    HW140299   2.585   5.870   2.452  0.0184 -1.2464 -0.4187
13200SOL    HW240300   2.704   5.800   2.515  0.7267  1.9466  2.0340
13201SOL     OW40301   6.617   0.477   1.755  0.0532 -0.1197 -0.0556
13201SOL    HW140302   6.547   0.412   1.746 -0.3505  0.0461  1.5166
13201SOL    HW240303   6.649   0.491   1.666 -0.9576 -1.2532 -0.6243
13202SOL     OW40304   6.123   3.274   2.483  0.4462 -0.1885 -0.1255
13202SOL    HW140305   6.215   3.298   2.479  0.3992  0.0612  0.2050
13202SOL    HW240306   6.108   3.254   2.576  0.2789 -0.6628 -0.2534
13203SOL     OW40307   0.339   6.779   2.464  0.7617 -0.5027  0.3664
13203SOL    HW140308   0.380   6.865   2.472 -0.1953  0.0462 -0.4292
13203SOL    HW240309   0.389   6.735   2.396 -0.3200  0.4129 -1.0804
13204SOL     OW40310   5.648   5.394   7.605 -0.3494  0.4333  0.0674
13204SOL    HW140311   5.666   5.300   7.600 -1.9078  0.1604 -1.0263
13204SOL    HW240312   5.575   5.402   7.666 -0.0849  0.9727  0.3220
13205SOL     OW40313   0.667   2.477   2.297 -0.2011  0.0297  0.2420
13205SOL    HW140314   0.659   2.557   2.348  0.4050 -0.3795  0.9942
13205SOL    HW240315   0.677   2.408   2.362  0.3580 -0.5263 -0.4171
13206SOL     OW40316   6.585   1.060   2.790  0.0928 -0.4533  0.3608
13206SOL    HW140317   6.567   1.021   2.876 -0.8540  0.8765  0.8015
13206SOL    HW240318   6.677   1.038   2.773  0.3200 -0.7018  1.7421
13207SOL     OW40319   0.800   1.167   1.436  0.2695 -0.1950  0.4185
13207SOL    HW140320   0.849   1.236   1.480 -1.2451  0.4016  1.2114
13207SOL    HW240321   0.825   1.175   1.344 -1.6786  3.0632  0.0317
13208SOL     OW40322   5.764   3.710   0.533  0.6652 -0.2430  0.4371
13208SOL    HW140323   5.719   3.720   0.449  1.7116 -0.3758 -0.1490
13208SOL    HW240324   5.694   3.690   0.595 -0.1811  0.3568 -0.3039
13209SOL     OW40325   1.573   4.558   7.557 -0.1961  0.3813 -0.3376
13209SOL    HW140326   1.541   4.593   7.640  0.4588  1.0576 -0.3576
13209SOL    HW240327   1.603   4.635   7.508 -0.2108 -0.0491 -1.0458
13210SOL     OW40328   4.562   3.629   0.919  0.1176  0.6505 -0.4481
13210SOL    HW140329   4.547   3.624   0.825  0.9843 -1.3447 -0.5166
13210SOL    HW240330   4.598   3.717   0.933 -2.7587  2.1484 -1.4870
13211SOL     OW40331   6.241   5.481   0.630  0.3510 -0.7140 -0.1917
13211SOL    HW140332   6.291   5.558   0.658 -0.1876 -0.0762 -0.9269
13211SOL    HW240333   6.151   5.512   0.623  0.3309 -1.0457 -1.7949
13212SOL     OW40334   0.422   0.517   3.288 -0.4529 -0.2909  0.0600
13212SOL    HW140335   0.412   0.537   3.195  2.4524  1.7532  0.0396
13212SOL    HW240336   0.353   0.454   3.307 -1.4793 -0.3800 -3.3398
13213SOL     OW40337   3.296   2.415   3.967  0.6685 -0.2998 -0.4539
13213SOL    HW140338   3.230   2.375   3.910  1.0563 -0.7736 -0.5790
13213SOL    HW240339   3.340   2.341   4.009  1.4054 -0.0114 -0.6981
13214SOL     OW40340   7.293   6.065   6.346 -0.1112  0.2433  0.0482
13214SOL    HW140341   7.337   5.989   6.384  1.1491  1.0213  0.2057
13214SOL    HW240342   7.203   6.058   6.376  0.0232 -1.0927  0.1987
13215SOL     OW40343   3.813   5.699   0.324 -0.1164 -0.3890  0.2386
13215SOL    HW140344   3.825   5.691   0.418 -0.7568  0.1084  0.3675
13215SOL    HW240345   3.899   5.680   0.287  0.3352  0.1944  0.9640
13216SOL     OW40346   2.077   1.400   4.985  0.2191 -0.2886 -0.2907
13216SOL    HW140347   2.034   1.455   4.919  0.7243  1.1596  0.5308
13216SOL    HW240348   2.086   1.315   4.943  0.0984  0.4629 -1.9195
13217SOL     OW40349   4.254   5.302   7.960  0.5330  0.3492  0.0572
13217SOL    HW140350   4.177   5.251   7.985  0.4661  0.7476  0.6993
13217SOL    HW240351   4.322   5.237   7.943  0.0705 -0.0027 -0.4701
13218SOL     OW40352   0.793   3.419   0.222 -0.7902 -0.0892 -0.2540
13218SOL    HW140353   0.730   3.349   0.238 -1.5293  0.8493  1.1991
13218SOL    HW240354   0.739   3.497   0.205 -0.0463  0.6016  0.4180
13219SOL     OW40355   7.297   1.426   6.775  0.3093 -0.0722  0.0675
13219SOL    HW140356   7.384   1.430   6.815  0.2522 -0.9646  0.2917
13219SOL    HW240357   7.311   1.384   6.690  0.5149  2.2767 -1.1685
13220SOL     OW40358   0.756   1.079   4.185  0.8951  0.2210  0.1356
13220SOL    HW140359   0.771   0.990   4.153  1.6188  1.2318 -2.5821
13220SOL    HW240360   0.843   1.114   4.200  0.8046  1.3981 -1.7546
13221SOL     OW40361   0.150   7.257   3.352 -0.2730  0.2109 -0.4645
13221SOL    HW140362   0.224   7.313   3.329  0.1882 -0.1462  0.1012
13221SOL    HW240363   0.144   7.264   3.448  0.5009 -1.5493 -0.2569
13222SOL     OW40364   7.396   1.515   7.771 -0.6848 -0.1752  0.0217
13222SOL    HW140365   7.488   1.518   7.747 -0.8638  0.2406 -0.6175
13222SOL    HW240366   7.396   1.529   7.866 -0.0161 -1.3495  0.2135
13223SOL     OW40367   3.502   4.542   4.305 -0.3085  0.5192 -0.4561
13223SOL    HW140368   3.533   4.557   4.395  0.0290  0.0639 -0.4930
13223SOL    HW240369   3.578   4.561   4.250 -0.7573  1.6585 -0.7217
13224SOL     OW40370   7.592   3.108   2.717 -0.3134 -0.2097  0.0041
13224SOL    HW140371   7.628   3.038   2.771  0.8457  1.3193  1.3050
13224SOL    HW240372   7.511   3.072   2.680 -0.0467 -2.0019  1.1017
13225SOL     OW40373   0.507   0.747   3.445 -0.3165  0.0976 -0.0194
13225SOL    HW140374   0.505   0.673   3.384 -0.3786 -0.2299  0.3767
13225SOL    HW240375   0.415   0.765   3.464 -0.2944  0.1215  0.0665
13226SOL     OW40376   2.285   3.049   5.010 -0.1680 -0.1796  0.1608
13226SOL    HW140377   2.366   3.005   5.036 -0.1079 -1.3455 -1.7382
13226SOL    HW240378   2.314   3.117   4.949 -0.6122 -1.2119 -1.2701
13227SOL     OW40379   2.076   3.864   6.062  0.4202  0.2374 -0.5734
13227SOL    HW140380   2.134   3.863   6.138  1.6761 -1.1678 -1.4823
13227SOL    HW240381   2.004   3.806   6.086  0.7029 -0.0320 -0.3701
13228SOL     OW40382   0.159   0.159   2.691  0.3426  0.0532 -0.2793
13228SOL    HW140383   0.131   0.068   2.690  0.2878  0.0477 -2.2840
13228SOL    HW240384   0.095   0.204   2.747 -1.2095 -0.6840 -1.4123
13229SOL     OW40385   3.415   1.256   2.128 -0.4459 -0.1573 -0.4097
13229SOL    HW140386   3.498   1.214   2.147 -1.0702 -1.5328 -0.6300
13229SOL    HW240387   3.376   1.275   2.214  0.3571  1.0798 -0.2969
13230SOL     OW40388   4.555   7.300   5.526  0.3269 -0.1822 -0.0222
13230SOL    HW140389   4.479   7.306   5.583  0.8016  0.6562  0.5493
13230SOL    HW240390   4.629   7.286   5.585  0.7056 -0.2685 -0.5077
13231SOL     OW40391   6.352   4.269   5.135  0.2931 -0.3459 -0.0429
13231SOL    HW140392   6.257   4.278   5.140  0.4393  1.2437  0.4400
13231SOL    HW240393   6.377   4.231   5.219  0.2729  1.4248  0.8007
13232SOL     OW40394   1.573   2.734   2.619  0.2806  0.8553 -0.1903
13232SOL    HW140395   1.631   2.727   2.544  0.3181 -1.6874 -0.0058
13232SOL    HW240396   1.485   2.733   2.582  0.3082  0.1596 -0.2466
13233SOL     OW40397   5.558   5.084   0.880  0.4929 -0.0547 -0.1035
13233SOL    HW140398   5.509   5.018   0.929  1.4985 -1.0236 -0.3506
13233SOL    HW240399   5.622   5.118   0.942  0.5899  0.0032 -0.2325
13234SOL     OW40400   5.401   6.597   4.469 -0.2689  0.3157 -0.3057
13234SOL    HW140401   5.447   6.540   4.407 -1.1751 -2.2217  1.1824
13234SOL    HW240402   5.470   6.629   4.528  0.2172  0.5235 -0.9789
13235SOL     OW40403   4.942   1.333   7.432  0.6742 -0.5351  0.2065
13235SOL    HW140404   4.967   1.295   7.516  0.8138  0.2321  0.5182
13235SOL    HW240405   5.021   1.379   7.403  0.4895 -0.4395 -0.1414
13236SOL     OW40406   6.957   0.731   1.822 -0.8739 -0.2486  0.1143
13236SOL    HW140407   6.963   0.823   1.849  0.0678 -0.3266  0.2086
13236SOL    HW240408   6.904   0.732   1.742  0.4842  0.5833 -0.8174
13237SOL     OW40409   7.022   2.740   7.342 -0.2489  0.0310  0.0240
13237SOL    HW140410   6.973   2.727   7.261 -0.6514 -2.5586  0.6123
13237SOL    HW240411   7.109   2.705   7.323 -0.1509  0.0009  0.5100
13238SOL     OW40412   0.215   4.646   3.356  0.1266  0.0802 -0.1019
13238SOL    HW140413   0.170   4.634   3.439 -0.0397  0.1962 -0.1753
13238SOL    HW240414   0.146   4.640   3.290  0.1599  0.6161 -0.1926
13239SOL     OW40415   1.374   6.902   0.944 -0.0538 -0.3339  0.2062
13239SOL    HW140416   1.363   6.956   0.866 -0.0921 -0.6728 -0.0202
13239SOL    HW240417   1.390   6.966   1.014 -0.0034 -0.0311 -0.0773
13240SOL     OW40418   6.064   3.828   3.176  0.5130 -0.1036 -0.3406
13240SOL    HW140419   6.035   3.802   3.263  1.1905  2.1338  0.6228
13240SOL    HW240420   6.053   3.750   3.123  0.2342 -1.5809  1.7743
13241SOL     OW40421   2.930   1.111   3.418 -0.1612  0.1374 -0.0692
13241SOL    HW140422   3.001   1.071   3.469 -0.0896  1.0741  0.5931
13241SOL    HW240423   2.851   1.097   3.471  0.2101  2.9687  1.4820
13242SOL     OW40424   0.427   5.969   2.012  0.0779 -0.0047  0.1688
13242SOL    HW140425   0.492   6.021   2.059  0.5534 -0.4610  0.0164
13242SOL    HW240426   0.451   5.878   2.029  0.1327 -0.1751 -0.7823
13243SOL     OW40427   5.739   4.579   0.473 -0.3745  0.3767  0.4482
13243SOL    HW140428   5.830   4.555   0.455 -1.4314 -2.0841 -2.3316
13243SOL    HW240429   5.730   4.668   0.439  0.9924  0.7553  1.0041
13244SOL     OW40430   0.967   6.904   1.678 -0.5365  0.1054 -0.1656
13244SOL    HW140431   0.969   6.990   1.637 -1.7363 -0.2336 -0.9627
13244SOL    HW240432   0.984   6.922   1.771  0.9591  0.9985 -0.5701
13245SOL     OW40433   6.911   3.484   2.672 -0.1656 -0.1598 -0.5198
13245SOL    HW140434   6.817   3.468   2.670 -0.3614  0.2951  2.0471
13245SOL    HW240435   6.948   3.415   2.616 -1.9624 -0.5069 -1.3605
13246SOL     OW40436   1.707   4.960   6.455  0.0938  0.2860 -0.3081
13246SOL    HW140437   1.641   5.024   6.427 -0.5428  0.9201  2.3278
13246SOL    HW240438   1.738   4.993   6.539 -0.1251 -2.7172  1.0962
13247SOL     OW40439   6.966   3.592   2.308 -0.5857 -0.0495 -0.1763
13247SOL    HW140440   6.963   3.686   2.328 -0.9673 -0.0920 -0.0213
13247SOL    HW240441   6.879   3.572   2.274 -0.4043 -0.2859 -0.5020
13248SOL     OW40442   2.736   4.198   5.367 -0.4471 -0.6087 -0.3071
13248SOL    HW140443   2.652   4.153   5.357 -0.7130 -0.1197 -0.3149
13248SOL    HW240444   2.713   4.290   5.379  0.0099 -0.6387  1.0947
13249SOL     OW40445   1.319   4.875   5.307 -0.1055 -0.0662 -0.0191
13249SOL    HW140446   1.309   4.932   5.383  0.0576 -1.3983  1.0465
13249SOL    HW240447   1.385   4.811   5.333  0.9045  0.1836 -1.7669
13250SOL     OW40448   5.945   2.955   4.777 -0.1546  0.2974  0.0904
13250SOL    HW140449   5.968   2.987   4.690  1.5667 -0.3129  0.2945
13250SOL    HW240450   5.991   3.014   4.837 -3.0944  2.1668  0.7659
13251SOL     OW40451   2.399   3.182   0.142  0.8289 -0.3710 -0.3883
13251SOL    HW140452   2.427   3.126   0.214  0.8541  1.2793  0.9484
13251SOL    HW240453   2.437   3.142   0.064  2.7166 -0.9797  0.7744
13252SOL     OW40454   6.443   2.839   4.144 -0.3576 -0.2498  0.1912
13252SOL    HW140455   6.437   2.805   4.055  1.2312 -2.0209  0.6797
13252SOL    HW240456   6.408   2.928   4.138  1.9461  0.6383 -2.7562
13253SOL     OW40457   5.559   5.066   1.307  0.4636 -0.6332  0.2061
13253SOL    HW140458   5.540   5.154   1.342  0.2416 -1.3689  2.0250
13253SOL    HW240459   5.528   5.006   1.374 -0.2475 -2.1741 -1.4087
13254SOL     OW40460   2.721   2.690   4.575 -0.5361  0.6005 -0.0102
13254SOL    HW140461   2.752   2.774   4.611  0.7390  0.5136 -0.8462
13254SOL    HW240462   2.764   2.624   4.629  1.6487  0.4633 -1.7782
13255SOL     OW40463   1.882   1.334   4.251 -0.4231  0.3813  0.2580
13255SOL    HW140464   1.975   1.348   4.270 -0.8468  0.1227  2.8979
13255SOL    HW240465   1.878   1.244   4.218  0.3739  0.7488 -0.8578
13256SOL     OW40466   1.742   2.223   4.490 -0.3178 -0.2559 -0.2305
13256SOL    HW140467   1.768   2.257   4.575 -0.7950  0.2583 -0.2915
13256SOL    HW240468   1.823   2.184   4.455 -0.1653 -0.6502  0.5278
13257SOL     OW40469   7.094   1.243   6.317  0.1122  0.0614 -0.0206
13257SOL    HW140470   7.134   1.235   6.230 -1.3499 -1.2276 -0.6093
13257SOL    HW240471   7.033   1.315   6.309  0.4989  0.4135  0.1607
13258SOL     OW40472   0.033   5.732   2.241 -0.4485  0.0930  0.0658
13258SOL    HW140473  -0.010   5.669   2.299  1.7962 -0.9391  0.6912
13258SOL    HW240474   0.030   5.814   2.289 -2.9168  0.4316 -0.5233
13259SOL     OW40475   7.448   4.399   3.950 -0.2628  0.6493  0.3571
13259SOL    HW140476   7.462   4.317   3.997  1.4549  0.4658 -0.4008
13259SOL    HW240477   7.358   4.392   3.917 -1.1049  0.2943  2.5652
13260SOL     OW40478   0.270   3.838   3.961  0.0057  0.0238 -0.5483
13260SOL    HW140479   0.342   3.777   3.942  0.2105  0.4212 -1.0721
13260SOL    HW240480   0.313   3.912   4.005  0.1729  0.9147 -2.1101
13261SOL     OW40481   6.494   6.615   0.649 -0.2955 -0.7050  0.4017
13261SOL    HW140482   6.428   6.548   0.630 -0.3919 -1.4385  2.9069
13261SOL    HW240483   6.447   6.698   0.643 -0.8328 -1.0502 -0.2338
13262SOL     OW40484   6.750   1.422   2.254  0.4836  0.0316 -0.2408
13262SOL    HW140485   6.807   1.369   2.310 -1.4455 -1.2762  0.6170
13262SOL    HW240486   6.763   1.512   2.285  0.6544 -0.4789  1.2699
13263SOL     OW40487   7.521   3.663   5.891  0.1293 -0.1521  0.3997
13263SOL    HW140488   7.472   3.741   5.916 -0.7722 -0.8513  0.8825
13263SOL    HW240489   7.563   3.634   5.972  1.8990  0.7878 -0.1295
13264SOL     OW40490   3.809   2.798   1.571  0.1107  0.0766  0.3686
13264SOL    HW140491   3.718   2.777   1.592 -0.0506  1.9408  1.7937
13264SOL    HW240492   3.860   2.753   1.638  0.0126  1.2803  1.2765
13265SOL     OW40493   0.884   4.877   7.957  0.3292 -0.1558  0.0202
13265SOL    HW140494   0.965   4.831   7.931  0.9164  0.7037  0.2867
13265SOL    HW240495   0.892   4.963   7.916 -1.1255 -0.5187 -1.1277
13266SOL     OW40496   7.799   5.159   5.491 -0.0731  0.8768 -0.1394
13266SOL    HW140497   7.825   5.145   5.582  0.0332  0.6801 -0.1999
13266SOL    HW240498   7.859   5.226   5.458  1.5698 -0.8383 -0.8147
13267SOL     OW40499   0.925   0.393   0.034  0.0342 -0.0518  0.2530
13267SOL    HW140500   0.965   0.351   0.110  1.2695  1.2746  0.3778
13267SOL    HW240501   0.881   0.470   0.070 -1.3401 -0.6454 -0.0983
13268SOL     OW40502   0.603   6.125   2.157 -0.4138  0.3325 -0.1063
13268SOL    HW140503   0.591   6.149   2.249  2.7806  1.7763  0.0610
13268SOL    HW240504   0.588   6.206   2.109 -0.6928 -0.0771 -0.7248
13269SOL     OW40505   3.313   6.784   7.425  0.3833 -0.2587  0.2085
13269SOL    HW140506   3.347   6.859   7.376  0.8132 -1.6346 -1.7307
13269SOL    HW240507   3.222   6.777   7.398  0.9339 -1.7633 -1.5148
13270SOL     OW40508   5.092   3.444   1.444 -0.2053  0.2896 -0.4423
13270SOL    HW140509   5.077   3.481   1.358  0.6112  0.8851 -0.3443
13270SOL    HW240510   5.047   3.502   1.505  1.4317  1.4256 -0.2500
13271SOL     OW40511   4.012   1.137   6.517  0.3502  0.4521  0.0739
13271SOL    HW140512   4.037   1.200   6.585 -0.5373 -0.5181  1.3391
13271SOL    HW240513   4.079   1.068   6.522  1.6555  1.4880 -1.6983
13272SOL     OW40514   6.053   3.897   3.700 -0.6282 -0.2337  0.5729
13272SOL    HW140515   5.981   3.955   3.676 -0.8561 -0.7368  0.0083
13272SOL    HW240516   6.130   3.936   3.661 -0.4845  0.6143  1.6512
13273SOL     OW40517   6.274   2.073   4.406 -0.1747  0.3734  0.2101
13273SOL    HW140518   6.244   2.164   4.402  1.3001  0.9760  1.4442
13273SOL    HW240519   6.313   2.065   4.493  4.3676  0.1318 -1.5864
13274SOL     OW40520   4.365   2.730   0.323 -0.0649  0.4133 -0.4092
13274SOL    HW140521   4.346   2.765   0.236 -1.7268 -1.2196 -0.7695
13274SOL    HW240522   4.312   2.783   0.382 -1.5982 -0.6021 -0.8125
13275SOL     OW40523   0.939   4.290   6.173  0.2731  0.2202 -0.4923
13275SOL    HW140524   0.951   4.383   6.190 -0.8387  0.0310  1.6626
13275SOL    HW240525   1.005   4.247   6.228 -0.8559 -0.3136  0.4847
13276SOL     OW40526   0.510   1.605   7.269  0.0452  0.8712 -0.6793
13276SOL    HW140527   0.552   1.665   7.331  0.0723 -1.7127  2.0285
13276SOL    HW240528   0.583   1.561   7.225  0.5339 -2.5245  2.9393
13277SOL     OW40529   7.667   3.442   7.882 -0.3565  0.3244 -0.2064
13277SOL    HW140530   7.638   3.530   7.857  1.2027  0.9185 -0.0009
13277SOL    HW240531   7.736   3.420   7.820  1.5547  0.6297  1.6870
13278SOL     OW40532   4.146   6.853   3.287 -0.3135  0.3695  0.1596
13278SOL    HW140533   4.065   6.864   3.237 -0.8670  0.9626  1.1446
13278SOL    HW240534   4.170   6.942   3.313  0.9674  0.2636 -0.5627
13279SOL     OW40535   1.136   6.864   3.825 -0.4026  0.6278 -0.3785
13279SOL    HW140536   1.070   6.932   3.837 -0.9052  0.0739  0.0962
13279SOL    HW240537   1.097   6.804   3.762 -1.1721 -0.6807  1.2649
13280SOL     OW40538   3.021   2.506   1.697 -0.0194 -0.1318  0.3007
13280SOL    HW140539   2.925   2.504   1.704 -0.0009 -0.0504  0.5907
13280SOL    HW240540   3.049   2.559   1.771  0.1726  1.1538 -0.6476
13281SOL     OW40541   5.547   1.709   1.263  0.3765 -0.1494 -0.3452
13281SOL    HW140542   5.511   1.657   1.335 -0.5080 -0.7192 -1.1702
13281SOL    HW240543   5.596   1.645   1.211  1.2264  0.3088 -0.1229
13282SOL     OW40544   7.915   1.945   6.646  0.3138  0.3904 -0.0803
13282SOL    HW140545   7.951   2.007   6.583 -0.2792 -1.9665 -2.9842
13282SOL    HW240546   7.829   1.980   6.668 -0.1546  0.5004 -1.9218
13283SOL     OW40547   7.454   2.307   7.581 -0.9028 -0.0792 -0.1246
13283SOL    HW140548   7.477   2.388   7.535 -0.3143  0.7004  1.4686
13283SOL    HW240549   7.384   2.334   7.641 -0.6238 -0.7385  0.4956
13284SOL     OW40550   2.110   1.496   2.947  0.1763 -0.4840  0.0798
13284SOL    HW140551   2.045   1.538   2.890 -0.3427 -1.5064 -0.0976
13284SOL    HW240552   2.059   1.443   3.008  0.8414 -2.1831 -0.7635
13285SOL     OW40553   5.290   7.788   5.213 -0.1491  0.0412 -0.7376
13285SOL    HW140554   5.206   7.776   5.258  0.6652  0.7382  1.0539
13285SOL    HW240555   5.329   7.700   5.212 -0.6695 -0.1934 -1.1454
13286SOL     OW40556   6.647   5.019   5.000 -0.8371  0.0128 -0.0512
13286SOL    HW140557   6.712   5.075   4.957 -0.8000 -0.7428 -1.0049
13286SOL    HW240558   6.683   4.931   4.991 -2.3792 -0.5275 -1.3488
13287SOL     OW40559   0.675   4.908   3.613  0.1935  0.3998  0.2563
13287SOL    HW140560   0.695   4.838   3.551  0.1847 -0.8145  1.5767
13287SOL    HW240561   0.636   4.864   3.688 -1.5258  2.0254  0.4017
13288SOL     OW40562   3.483   6.364   6.772 -0.0387  0.7338  0.0523
13288SOL    HW140563   3.526   6.370   6.858 -0.8747  0.7733  0.4763
13288SOL    HW240564   3.434   6.282   6.776  1.3985 -0.2428 -1.0987
13289SOL     OW40565   5.287   5.610   5.793  0.4921  0.2047  0.2054
13289SOL    HW140566   5.236   5.672   5.845  1.1870  0.0078  1.1528
13289SOL    HW240567   5.330   5.665   5.727  0.1266  0.5535  0.2495
13290SOL     OW40568   3.762   3.630   4.492 -0.0956 -0.0274  0.5222
13290SOL    HW140569   3.783   3.624   4.398 -0.2697 -1.8068  0.5661
13290SOL    HW240570   3.682   3.578   4.502  0.5492 -0.8181  1.8334
13291SOL     OW40571   1.338   2.231   7.185  0.1680  0.5033 -0.4522
13291SOL    HW140572   1.289   2.150   7.199  0.8223 -0.3057 -2.4529
13291SOL    HW240573   1.323   2.282   7.264 -0.3859 -1.5003  0.8043
13292SOL     OW40574   6.883   0.318   2.887 -0.3591 -0.2585  0.1478
13292SOL    HW140575   6.962   0.370   2.900 -1.3391  0.6745  2.9411
13292SOL    HW240576   6.897   0.274   2.803  1.9804  1.8558 -0.6848
13293SOL     OW40577   5.448   6.607   3.010  0.0504  0.0575 -0.3460
13293SOL    HW140578   5.462   6.594   2.916 -0.3403 -1.3366 -0.2313
13293SOL    HW240579   5.354   6.592   3.022  0.0746  0.3823  0.2447
13294SOL     OW40580   0.007   4.377   4.615  0.0606 -0.6539  0.1020
13294SOL    HW140581   0.094   4.345   4.590  1.4381  2.7305  0.0515
13294SOL    HW240582   0.004   4.365   4.709  0.6424 -0.6454  0.1269
13295SOL     OW40583   1.419   3.624   3.461 -0.0503  0.2662 -0.2259
13295SOL    HW140584   1.334   3.581   3.455 -0.4354  1.0871 -1.0220
13295SOL    HW240585   1.459   3.612   3.375  1.0142 -0.8188  0.3915
13296SOL     OW40586   4.243   5.616   4.159 -0.6587 -0.6573  0.1458
13296SOL    HW140587   4.301   5.676   4.207 -0.5592 -0.1959 -0.5477
13296SOL    HW240588   4.161   5.663   4.150 -0.9640 -1.0846  0.6080
13297SOL     OW40589   5.242   6.851   5.367  0.2802  0.3515 -0.6335
13297SOL    HW140590   5.225   6.760   5.393 -2.5128  1.5114  2.2992
13297SOL    HW240591   5.327   6.871   5.407 -0.3783 -0.2367  1.1793
13298SOL     OW40592   3.082   7.647   7.964  0.7753 -0.0625  0.2931
13298SOL    HW140593   2.996   7.608   7.974  1.2018 -1.0667  0.1397
13298SOL    HW240594   3.134   7.580   7.920  2.0643 -0.0820  1.7834
13299SOL     OW40595   6.027   0.297   0.843  0.5805 -0.3884  0.0981
13299SOL    HW140596   5.963   0.368   0.836  1.5654  0.8470  2.5069
13299SOL    HW240597   6.107   0.339   0.874  1.6629 -2.3530  0.1580
13300SOL     OW40598   2.014   1.218   6.338 -0.9898  0.0477  0.1060
13300SOL    HW140599   2.044   1.132   6.368  0.3714 -0.0174 -1.3352
13300SOL    HW240600   1.999   1.207   6.245 -2.1137  1.0425  0.1564
13301SOL     OW40601   0.366   1.304   6.963 -0.7781 -0.3845 -0.1526
13301SOL    HW140602   0.286   1.335   7.004 -0.7307  0.1269 -0.4448
13301SOL    HW240603   0.355   1.324   6.870 -1.1275 -2.0315 -0.4993
13302SOL     OW40604   6.320   6.488   1.593 -0.6291  0.2124  0.4045
13302SOL    HW140605   6.341   6.535   1.513 -0.8419 -2.3430 -1.2840
13302SOL    HW240606   6.240   6.439   1.572 -0.7976 -0.3879  2.2551
13303SOL     OW40607   3.865   4.243   5.023 -0.6231  0.3678 -0.3213
13303SOL    HW140608   3.901   4.231   5.111  0.1543 -1.8201 -0.8657
13303SOL    HW240609   3.772   4.261   5.037 -0.1588  2.0377  0.9683
13304SOL     OW40610   2.375   1.288   3.613 -0.3685 -0.1917  0.7167
13304SOL    HW140611   2.460   1.257   3.643 -0.0476 -0.6139 -0.5528
13304SOL    HW240612   2.393   1.334   3.531 -1.2787  0.3449  0.7984
13305SOL     OW40613   0.995   3.576   1.153 -0.0140  0.1865 -0.5838
13305SOL    HW140614   0.986   3.496   1.102  0.3977 -1.0355  1.1876
13305SOL    HW240615   0.912   3.622   1.140 -0.2890 -0.5459 -1.5628
13306SOL     OW40616   1.723   2.921   4.933  0.3993  0.7086  0.4016
13306SOL    HW140617   1.698   2.892   5.021  0.7172 -0.5738  0.0733
13306SOL    HW240618   1.653   2.888   4.876  0.0757  1.7292  0.1823
13307SOL     OW40619   7.472   0.649   3.130 -0.0367 -0.5021  0.6118
13307SOL    HW140620   7.458   0.729   3.180 -0.8867 -0.5954  0.5365
13307SOL    HW240621   7.394   0.596   3.146  0.2101 -1.0327  0.1218
13308SOL     OW40622   7.493   4.640   4.182  0.1128  0.3344 -0.2815
13308SOL    HW140623   7.554   4.713   4.198 -1.1181  0.9959  1.7351
13308SOL    HW240624   7.461   4.656   4.093  0.3560  1.9122 -0.1260
13309SOL     OW40625   4.640   4.011   7.411 -0.2083  0.0490  0.6209
13309SOL    HW140626   4.602   3.925   7.430  1.1748 -0.9097 -0.7954
13309SOL    HW240627   4.721   3.992   7.364  0.3487  2.1318  0.6624
13310SOL     OW40628   5.110   3.766   5.822 -0.0211  0.1866  0.3499
13310SOL    HW140629   5.154   3.801   5.744 -3.6536  2.7644 -0.7832
13310SOL    HW240630   5.152   3.811   5.895  1.3943  0.0407 -0.3246
13311SOL     OW40631   2.283   1.370   5.281  0.5009  0.2008 -0.2403
13311SOL    HW140632   2.193   1.396   5.263  0.0141 -0.5593  1.0041
13311SOL    HW240633   2.327   1.379   5.196 -0.2842  2.2756 -0.4940
13312SOL     OW40634   6.620   5.356   2.450  0.2166  0.1725 -0.0087
13312SOL    HW140635   6.577   5.423   2.503 -1.0051 -0.9292  0.4580
13312SOL    HW240636   6.599   5.379   2.360  0.3868  0.7905  0.1054
13313SOL     OW40637   4.905   4.682   2.459  0.3390  1.0034 -0.5943
13313SOL    HW140638   4.871   4.704   2.546  1.8014  0.0716  0.2498
13313SOL    HW240639   4.995   4.713   2.460  0.5149  0.5588 -1.6189
13314SOL     OW40640   4.587   5.378   4.273 -0.5140  0.2076 -0.4282
13314SOL    HW140641   4.531   5.375   4.195  0.3483 -1.5416 -1.0220
13314SOL    HW240642   4.676   5.383   4.238 -0.1685  0.3563  0.4601
13315SOL     OW40643   0.915   6.612   0.505 -0.2481  0.6923  0.6583
13315SOL    HW140644   0.839   6.589   0.452  0.9978 -0.5347 -0.7327
13315SOL    HW240645   0.890   6.692   0.551 -2.2669  0.4495  0.0747
13316SOL     OW40646   5.664   7.213   4.504  0.0105 -0.1063  0.1772
13316SOL    HW140647   5.727   7.142   4.494 -0.4444 -0.4752 -0.0922
13316SOL    HW240648   5.687   7.254   4.588  0.9486  0.1085 -0.1827
13317SOL     OW40649   1.674   1.665   7.663  0.3306  0.2229 -0.1772
13317SOL    HW140650   1.700   1.712   7.583 -2.5634  2.4211 -0.0060
13317SOL    HW240651   1.584   1.637   7.645  0.1653 -0.6115  1.7731
13318SOL     OW40652   4.311   4.357   3.496 -0.0926 -0.3353  0.6763
13318SOL    HW140653   4.399   4.375   3.528 -0.1327  0.3638  0.4237
13318SOL    HW240654   4.266   4.441   3.504 -0.2012 -0.2268 -0.9016
13319SOL     OW40655   5.062   1.214   0.570 -0.1545  0.1482 -0.2014
13319SOL    HW140656   5.015   1.297   0.578 -0.1456  0.0688  0.8873
13319SOL    HW240657   5.029   1.161   0.642 -0.2134 -0.8304 -0.9266
13320SOL     OW40658   4.315   7.875   5.463 -0.1302  0.2805  0.7889
13320SOL    HW140659   4.361   7.867   5.380 -2.1997  0.4192 -0.4439
13320SOL    HW240660   4.328   7.966   5.490  0.7898  0.1572  0.7895
13321SOL     OW40661   3.586   3.945   5.633 -0.5175  0.1036 -0.7174
13321SOL    HW140662   3.623   3.903   5.710 -2.7081 -1.3706 -0.3754
13321SOL    HW240663   3.651   4.011   5.607  1.2242 -0.8151  1.0975
13322SOL     OW40664   1.841   5.878   1.456 -0.6218 -0.1050  0.6681
13322SOL    HW140665   1.794   5.961   1.450  1.4258  1.1119  0.4022
13322SOL    HW240666   1.912   5.886   1.392 -0.6401 -2.2838  0.2825
13323SOL     OW40667   1.263   1.764   7.679 -0.2486  0.1062 -0.2491
13323SOL    HW140668   1.306   1.679   7.688  0.8518  0.8001  1.8601
13323SOL    HW240669   1.224   1.780   7.765 -1.4040  1.2510 -0.9477
13324SOL     OW40670   3.814   5.811   7.685 -0.3698  0.1385 -0.4828
13324SOL    HW140671   3.848   5.892   7.724 -0.6480  0.3318 -0.6402
13324SOL    HW240672   3.847   5.812   7.595 -0.1926 -0.0303 -0.4196
13325SOL     OW40673   5.241   2.777   3.022  0.0935  0.7986  0.3272
13325SOL    HW140674   5.226   2.837   3.096 -0.9580 -0.3062  1.0325
13325SOL    HW240675   5.299   2.827   2.964  1.3661  1.5314  2.0969
13326SOL     OW40676   5.851   5.791   5.568 -0.4736  0.2310 -0.1443
13326SOL    HW140677   5.835   5.747   5.652  0.8418  0.5458  0.2984
13326SOL    HW240678   5.840   5.722   5.502 -0.5808 -0.2485  0.3700
13327SOL     OW40679   3.698   5.137   3.642  0.1579 -0.3034 -0.0933
13327SOL    HW140680   3.653   5.199   3.700  0.3153 -0.1831 -0.1009
13327SOL    HW240681   3.633   5.117   3.575 -0.5783 -1.6247  0.9612
13328SOL     OW40682   1.195   2.977   6.289  0.0366 -0.4309 -0.2190
13328SOL    HW140683   1.219   2.885   6.299 -0.0751 -0.3889  0.4942
13328SOL    HW240684   1.279   3.022   6.282  0.1770 -0.3788  1.4245
13329SOL     OW40685   1.023   5.041   1.479  0.5021 -0.1538 -0.3342
13329SOL    HW140686   1.055   5.032   1.569  0.7988  0.6084 -0.3527
13329SOL    HW240687   0.927   5.046   1.488  0.6018  1.7370  0.1362
13330SOL     OW40688   7.973   6.869   7.526 -0.3485  0.0271 -0.0405
13330SOL    HW140689   7.995   6.894   7.437  1.7436  0.0803  0.4408
13330SOL    HW240690   8.022   6.931   7.581  0.6455 -1.7393  1.1508
13331SOL     OW40691   6.828   3.307   1.240  0.3782 -0.4194 -0.3172
13331SOL    HW140692   6.885   3.246   1.287  2.5577  1.4436 -0.3877
13331SOL    HW240693   6.872   3.322   1.157 -0.1993  1.0808 -0.3791
13332SOL     OW40694   6.615   1.858   5.550 -0.0365 -0.1694  0.8748
13332SOL    HW140695   6.635   1.938   5.500 -2.0082  0.5591  1.1775
13332SOL    HW240696   6.585   1.890   5.635 -0.1996 -1.2757  1.2399
13333SOL     OW40697   7.065   1.728   5.888 -0.0138 -0.1075  0.0809
13333SOL    HW140698   7.099   1.664   5.951 -1.9164 -0.7789  0.5164
13333SOL    HW240699   6.971   1.709   5.884 -0.2529  1.1872 -1.5288
13334SOL     OW40700   1.860   3.304   2.778  0.2992 -0.0592 -0.1055
13334SOL    HW140701   1.820   3.375   2.727 -0.5156  0.1412  0.7789
13334SOL    HW240702   1.792   3.279   2.841  0.4434 -1.8660 -0.6166
13335SOL     OW40703   4.280   4.837   1.479  0.3728  0.1281  0.4684
13335SOL    HW140704   4.211   4.770   1.486  0.3797  0.2105  1.6381
13335SOL    HW240705   4.358   4.789   1.454  0.7867 -0.6454  2.9231
13336SOL     OW40706   2.580   7.293   6.821 -0.0451  0.2691 -0.4191
13336SOL    HW140707   2.543   7.263   6.739 -1.7707  0.4803  0.2399
13336SOL    HW240708   2.504   7.316   6.875  0.9803 -0.7709  1.5853
13337SOL     OW40709   3.364   4.823   6.975 -0.2961 -0.1388  0.0066
13337SOL    HW140710   3.279   4.818   7.020 -0.2061  1.0932  0.3410
13337SOL    HW240711   3.342   4.853   6.887 -0.1838  0.4680  0.1837
13338SOL     OW40712   5.926   5.161   3.421 -0.4736  0.5651  0.0349
13338SOL    HW140713   5.936   5.150   3.516 -1.6741 -0.6135  0.0577
13338SOL    HW240714   5.926   5.072   3.386 -2.6117  0.7969 -0.7476
13339SOL     OW40715   1.238   0.039   7.543 -0.4165  0.0736  0.2161
13339SOL    HW140716   1.277  -0.018   7.610 -0.2168 -0.9965 -0.7674
13339SOL    HW240717   1.295   0.116   7.541  0.7553 -0.7664 -0.0951
13340SOL     OW40718   6.060   5.397   3.811 -0.1844  0.2587 -0.3368
13340SOL    HW140719   6.070   5.482   3.767 -1.4439 -0.0522 -1.2835
13340SOL    HW240720   6.144   5.382   3.854  0.8266  0.9783 -1.9798
13341SOL     OW40721   1.194   5.956   0.802  0.3837 -0.1873 -0.3154
13341SOL    HW140722   1.275   5.908   0.786 -0.0287 -1.0606  0.1750
13341SOL    HW240723   1.215   6.016   0.874  0.5444 -0.5391 -0.0675
13342SOL     OW40724   4.971   5.353   0.555 -0.1893 -0.5080 -0.3202
13342SOL    HW140725   5.028   5.295   0.605  0.4546 -0.0887 -0.5535
13342SOL    HW240726   4.966   5.313   0.468 -0.4998 -0.7002 -0.2184
13343SOL     OW40727   2.845   0.807   0.383  0.0693  0.1539  0.1984
13343SOL    HW140728   2.913   0.775   0.443 -0.3452  0.1658  0.6829
13343SOL    HW240729   2.881   0.791   0.296  0.4974 -0.2725  0.4453
13344SOL     OW40730   5.212   3.326   7.742  0.0901 -0.5751  0.2198
13344SOL    HW140731   5.214   3.418   7.714 -1.2349 -0.6859 -0.3162
13344SOL    HW240732   5.119   3.308   7.755  0.3892 -1.6742  0.9247
13345SOL     OW40733   4.309   2.831   4.697  0.0306 -0.0664  0.1950
13345SOL    HW140734   4.288   2.769   4.766  0.8984  0.7158  1.1940
13345SOL    HW240735   4.286   2.917   4.734 -0.8809  0.2667 -1.0431
13346SOL     OW40736   7.307   2.297   2.353 -0.0957 -0.7311 -0.2665
13346SOL    HW140737   7.320   2.202   2.356 -0.4311 -0.7450  0.9071
13346SOL    HW240738   7.232   2.313   2.409 -0.1412  0.2260 -0.5813
13347SOL     OW40739   2.753   4.996   3.728  0.1237  0.0612  0.0964
13347SOL    HW140740   2.797   5.057   3.668 -1.9539  1.7430  0.1865
13347SOL    HW240741   2.685   4.955   3.674  1.6771 -2.5265 -0.0514
13348SOL     OW40742   7.656   6.211   2.354  0.3835 -0.8774  0.0648
13348SOL    HW140743   7.651   6.283   2.290 -0.3813  0.0000  1.0779
13348SOL    HW240744   7.643   6.254   2.439  0.9522 -2.0819  0.7789
13349SOL     OW40745   0.281   3.070   7.536  0.5209 -0.1528 -0.0904
13349SOL    HW140746   0.303   3.161   7.554 -1.6789  0.7153 -1.4243
13349SOL    HW240747   0.365   3.028   7.518  1.5035  1.8052 -0.2720
13350SOL     OW40748   7.671   5.009   1.015  0.1898  1.2127  0.1557
13350SOL    HW140749   7.748   5.039   1.062  0.4983 -0.1643  0.5660
13350SOL    HW240750   7.657   4.919   1.045 -0.0872  0.5633 -1.7628
13351SOL     OW40751   1.653   3.416   7.323 -0.0348 -0.3646  0.2475
13351SOL    HW140752   1.601   3.335   7.327  0.2263 -0.4799  2.1674
13351SOL    HW240753   1.612   3.474   7.387 -0.3195  1.1239 -1.2194
13352SOL     OW40754   2.320   3.560   6.477 -0.4184  0.3637 -0.3826
13352SOL    HW140755   2.353   3.557   6.567  1.6663  0.0458 -1.1043
13352SOL    HW240756   2.341   3.475   6.440 -0.0397  0.9320 -1.5437
13353SOL     OW40757   4.785   4.238   3.235 -0.0901  0.5390 -0.2159
13353SOL    HW140758   4.835   4.282   3.304  0.0355  0.9662 -0.5712
13353SOL    HW240759   4.791   4.145   3.255  0.2589  0.6400  0.1394
13354SOL     OW40760   1.397   7.171   1.052 -0.7041  0.2670 -0.2561
13354SOL    HW140761   1.307   7.155   1.081  0.2143  0.9561  3.5475
13354SOL    HW240762   1.402   7.266   1.041 -0.5946  0.1660 -1.0904
13355SOL     OW40763   2.674   6.263   1.182 -0.4299 -0.1280 -0.3555
13355SOL    HW140764   2.714   6.319   1.115  0.5409  0.7093  0.8642
13355SOL    HW240765   2.580   6.269   1.166 -0.1958 -0.4791 -2.0290
13356SOL     OW40766   6.499   1.272   1.495 -0.4910 -0.3195 -0.1917
13356SOL    HW140767   6.549   1.244   1.418  1.2237 -0.1877  0.8255
13356SOL    HW240768   6.565   1.286   1.563 -1.6928  1.9953  0.6153
13357SOL     OW40769   7.950   0.033   7.696  0.2829  0.4707 -0.8135
13357SOL    HW140770   7.955  -0.000   7.607 -0.1086 -0.3359 -0.5431
13357SOL    HW240771   7.903  -0.035   7.745 -0.2561  1.2750 -0.1779
13358SOL     OW40772   1.724   5.650   2.325 -0.1877  0.1173 -0.0796
13358SOL    HW140773   1.783   5.693   2.387  2.0290 -2.1182 -0.4321
13358SOL    HW240774   1.761   5.670   2.239  0.1120 -1.3197 -0.3091
13359SOL     OW40775   1.247   5.923   0.414 -0.2141 -0.1197 -0.1980
13359SOL    HW140776   1.157   5.905   0.444 -0.1161  0.4096  0.4258
13359SOL    HW240777   1.248   6.017   0.395 -0.2416 -0.4133 -1.7974
13360SOL     OW40778   0.195   7.125   4.377 -0.0608  0.1718  0.6682
13360SOL    HW140779   0.280   7.096   4.346 -0.1533 -0.2211  0.7840
13360SOL    HW240780   0.189   7.216   4.347 -0.3497 -0.3258 -0.8939
13361SOL     OW40781   6.361   0.372   1.168  0.1875 -0.3797  0.4203
13361SOL    HW140782   6.417   0.323   1.228  1.4148  1.8711  1.2716
13361SOL    HW240783   6.375   0.464   1.193 -0.6583  0.5406 -2.1468
13362SOL     OW40784   1.256   6.546   4.443 -0.1566 -0.1731 -0.3616
13362SOL    HW140785   1.270   6.616   4.380 -1.7843  0.1447 -0.4008
13362SOL    HW240786   1.162   6.528   4.440  0.3770 -3.7186 -1.8189
13363SOL     OW40787   3.374   5.992   2.923 -0.4636  0.1113 -0.5580
13363SOL    HW140788   3.378   5.945   3.006  0.5724 -1.1034 -1.2592
13363SOL    HW240789   3.348   5.925   2.859 -0.4066  0.8275 -1.3540
13364SOL     OW40790   3.985   1.160   0.737 -0.0975 -0.1610  0.5889
13364SOL    HW140791   3.890   1.162   0.724  0.0124  0.1523 -0.2915
13364SOL    HW240792   3.997   1.160   0.832 -0.9747 -0.1422  0.7075
13365SOL     OW40793   0.933   7.732   0.238  0.5453  0.0570  0.2078
13365SOL    HW140794   1.020   7.748   0.274  1.5638 -0.8436 -1.7416
13365SOL    HW240795   0.928   7.637   0.227 -0.0386  0.2242 -1.2032
13366SOL     OW40796   3.893   4.944   1.656 -0.8326  0.5237 -0.2134
13366SOL    HW140797   3.979   4.902   1.651 -1.3958 -0.6392 -0.4299
13366SOL    HW240798   3.892   4.986   1.742 -0.4722 -0.4314  0.2742
13367SOL     OW40799   4.579   2.577   3.375 -0.1052 -0.5876  0.3172
13367SOL    HW140800   4.626   2.660   3.389  0.0418 -0.4126 -1.1142
13367SOL    HW240801   4.624   2.535   3.302 -1.2147 -1.1414 -0.0828
13368SOL     OW40802   5.764   2.274   6.130 -0.0528  0.0290  0.6924
13368SOL    HW140803   5.737   2.257   6.040  0.6154 -1.8891  0.8008
13368SOL    HW240804   5.790   2.366   6.130  2.9347 -0.6171 -1.9246
13369SOL     OW40805   4.129   1.874   2.422 -0.0598 -0.0571 -0.3028
13369SOL    HW140806   4.138   1.884   2.517 -1.4887 -1.9556  0.0915
13369SOL    HW240807   4.051   1.925   2.400  0.4125  0.5861 -0.5235
13370SOL     OW40808   7.022   0.366   2.050  0.0791 -0.0710 -0.2145
13370SOL    HW140809   7.070   0.415   1.984  0.9281  0.4227  0.7269
13370SOL    HW240810   6.952   0.426   2.078 -1.4913 -1.0050 -1.9881
13371SOL     OW40811   4.799   5.918   7.389 -0.1935  0.0385 -0.1738
13371SOL    HW140812   4.842   5.994   7.429  0.9641 -0.0171 -1.2766
13371SOL    HW240813   4.860   5.846   7.401 -1.1655 -0.6884  0.6144
13372SOL     OW40814   1.705   4.403   2.771 -0.3717 -0.3060 -0.2186
13372SOL    HW140815   1.707   4.349   2.692 -1.8055 -0.5163 -0.1430
13372SOL    HW240816   1.779   4.372   2.823  0.3961 -0.3786 -1.3342
13373SOL     OW40817   6.527   3.678   0.096 -0.4176 -0.1656 -0.0045
13373SOL    HW140818   6.461   3.612   0.075 -0.9812  0.2576  0.4049
13373SOL    HW240819   6.485   3.762   0.074  0.2825  0.0641 -0.5033
13374SOL     OW40820   4.856   6.478   1.245  0.4247 -0.2022  0.5965
13374SOL    HW140821   4.852   6.499   1.338 -1.3219 -0.0332  0.5147
13374SOL    HW240822   4.943   6.507   1.218  0.7467  0.2824  2.0440
13375SOL     OW40823   2.578   0.597   2.226  0.8668 -0.4484  0.2874
13375SOL    HW140824   2.515   0.544   2.177  0.7845  0.0024 -0.1037
13375SOL    HW240825   2.638   0.533   2.264  0.4525 -0.8545  0.2741
13376SOL     OW40826   2.516   1.759   3.950 -0.2485 -0.3028  0.6480
13376SOL    HW140827   2.563   1.783   4.030  1.7232 -1.4555 -0.0840
13376SOL    HW240828   2.452   1.694   3.979  1.2490 -1.6114  1.1781
13377SOL     OW40829   0.609   7.814   7.027 -0.5465 -0.0956 -0.0043
13377SOL    HW140830   0.650   7.867   6.958  1.5755  0.9301  1.9205
13377SOL    HW240831   0.518   7.845   7.030 -0.4004  0.5753 -1.5954
13378SOL     OW40832   1.311   3.725   2.496  0.4861  0.3827 -0.4281
13378SOL    HW140833   1.292   3.670   2.419  0.4596 -1.9182  1.1193
13378SOL    HW240834   1.252   3.692   2.564  2.0779  0.7797  1.2311
13379SOL     OW40835   2.976   3.849   4.461  0.0675  0.2804 -0.1035
13379SOL    HW140836   2.951   3.940   4.474 -2.4518 -0.0602 -1.7609
13379SOL    HW240837   2.953   3.830   4.370 -1.5421 -2.5298  0.7311
13380SOL     OW40838   3.605   4.687   7.012  0.6261  0.5534 -0.4129
13380SOL    HW140839   3.585   4.602   6.974 -0.5686  0.5910  0.0914
13380SOL    HW240840   3.523   4.736   7.007  0.9382  1.2033  0.5020
13381SOL     OW40841   0.669   7.120   0.681 -0.3315  0.0862 -0.7725
13381SOL    HW140842   0.732   7.121   0.610 -2.8772  0.7711 -3.2134
13381SOL    HW240843   0.636   7.210   0.686 -0.4992 -0.0336  1.0436
13382SOL     OW40844   0.182   7.266   2.133  0.0565 -0.4983  0.2845
13382SOL    HW140845   0.094   7.295   2.113  0.9622  1.3583 -1.3088
13382SOL    HW240846   0.176   7.230   2.222 -1.9868  0.9323  0.7952
13383SOL     OW40847   6.720   6.242   2.388 -0.2149  0.2081  0.4578
13383SOL    HW140848   6.792   6.246   2.452  0.4971  2.7263 -0.4073
13383SOL    HW240849   6.684   6.330   2.387 -1.9976 -0.4923 -0.6691
13384SOL     OW40850   6.555   2.743   2.039  0.2317 -0.1347  0.4883
13384SOL    HW140851   6.501   2.809   1.995 -0.5451 -0.0808  1.4901
13384SOL    HW240852   6.508   2.661   2.026  1.1948 -0.5260 -0.7531
13385SOL     OW40853   2.407   2.286   5.862  0.1792 -0.2344 -0.1681
13385SOL    HW140854   2.487   2.331   5.890  0.8598 -1.6633  0.3047
13385SOL    HW240855   2.429   2.249   5.776 -0.4687  0.5454 -0.6850
13386SOL     OW40856   0.957   4.487   7.656 -0.2231 -0.0108 -0.3902
13386SOL    HW140857   0.866   4.503   7.683  0.7651  1.4609  2.5882
13386SOL    HW240858   0.950   4.428   7.582 -3.5693 -1.0866  0.5922
13387SOL     OW40859   6.766   7.080   1.124 -0.4581  0.2486  0.0233
13387SOL    HW140860   6.701   7.077   1.054  0.2961 -0.1501 -0.6782
13387SOL    HW240861   6.829   7.146   1.095 -0.3558  0.3735  0.5245
13388SOL     OW40862   0.877   3.582   0.579  0.4380 -0.0154 -0.0086
13388SOL    HW140863   0.935   3.655   0.560  1.1598  0.3414  3.0064
13388SOL    HW240864   0.789   3.621   0.582  0.9804  1.2352  3.2284
13389SOL     OW40865   0.063   2.933   3.381  0.0170 -0.1892 -0.3450
13389SOL    HW140866   0.007   2.859   3.406  1.6051 -1.0561  0.8419
13389SOL    HW240867   0.093   2.970   3.464  0.8249  0.5392 -0.9408
13390SOL     OW40868   0.726   4.433   3.455  0.3302 -0.2984  0.2559
13390SOL    HW140869   0.792   4.384   3.405 -1.6037 -1.3052 -1.4512
13390SOL    HW240870   0.756   4.524   3.451  1.9901 -0.8032  0.1895
13391SOL     OW40871   6.354   3.003   0.928  0.5215 -0.5462 -0.3846
13391SOL    HW140872   6.275   3.004   0.874 -0.0071 -0.0985  0.3690
13391SOL    HW240873   6.323   3.030   1.015  1.7293  0.9682 -0.3960
13392SOL     OW40874   4.601   3.656   3.212  0.1817  0.2459  0.0439
13392SOL    HW140875   4.599   3.655   3.308 -0.8828 -0.8746  0.0341
13392SOL    HW240876   4.544   3.729   3.188 -1.7238 -1.0803  0.2864
13393SOL     OW40877   3.613   3.708   3.736 -0.0307  0.1554 -0.1201
13393SOL    HW140878   3.557   3.748   3.802  0.2778  0.0968  0.1812
13393SOL    HW240879   3.617   3.615   3.760  0.1482  0.1491 -0.1674
13394SOL     OW40880   0.727   5.539   7.270 -0.4835 -0.1247 -0.0484
13394SOL    HW140881   0.684   5.454   7.261  0.1972 -0.4975  0.0944
13394SOL    HW240882   0.657   5.600   7.290 -1.0658 -0.5494 -0.7291
13395SOL     OW40883   3.629   3.450   7.272  0.2571  0.0530  0.4802
13395SOL    HW140884   3.703   3.400   7.239 -0.8835 -0.6959 -1.0793
13395SOL    HW240885   3.649   3.465   7.365  1.9932 -0.7447  0.2663
13396SOL     OW40886   4.728   5.070   2.770  0.3207 -0.2908 -0.0809
13396SOL    HW140887   4.757   5.149   2.814  0.5084 -0.1051 -0.5313
13396SOL    HW240888   4.638   5.056   2.801  0.2882  0.0966 -0.0006
13397SOL     OW40889   1.125   7.696   1.902  0.2457 -0.3508 -0.1772
13397SOL    HW140890   1.185   7.725   1.971 -0.7569  0.9075  0.2165
13397SOL    HW240891   1.061   7.642   1.947 -1.1914  1.5492  0.2148
13398SOL     OW40892   7.749   3.998   3.873 -0.2021 -0.3104  0.3317
13398SOL    HW140893   7.658   3.985   3.846 -0.0461 -0.8008  0.0239
13398SOL    HW240894   7.746   3.997   3.969 -0.5284 -0.2423  0.3249
13399SOL     OW40895   5.356   7.809   4.555 -0.4642 -0.4627  0.1759
13399SOL    HW140896   5.371   7.786   4.647  0.6378 -1.6020 -0.2612
13399SOL    HW240897   5.282   7.755   4.529  1.2801 -2.6965 -0.4725
13400SOL     OW40898   0.284   5.603   5.258 -0.1757 -0.4899 -0.4970
13400SOL    HW140899   0.338   5.525   5.274 -0.6028 -0.6209  0.3893
13400SOL    HW240900   0.315   5.637   5.174  3.1825  1.0017  1.1750
13401SOL     OW40901   4.531   4.373   7.489 -0.3137 -0.6450 -0.3187
13401SOL    HW140902   4.603   4.436   7.497 -0.7322 -0.1703 -0.2858
13401SOL    HW240903   4.547   4.308   7.558  0.2948 -0.7570 -0.5570
13402SOL     OW40904   5.830   0.786   6.254  0.2544 -0.6130  0.6054
13402SOL    HW140905   5.772   0.806   6.181 -0.3964 -1.2889  0.9250
13402SOL    HW240906   5.910   0.754   6.213 -0.6019 -2.3509  0.1610
13403SOL     OW40907   0.662   5.590   2.747  0.2373  0.0856  0.7875
13403SOL    HW140908   0.642   5.543   2.828 -0.1497  0.5143  0.9463
13403SOL    HW240909   0.596   5.659   2.742 -0.3607 -0.5244 -0.3938
13404SOL     OW40910   2.190   4.707   0.822 -0.0046  0.0445  0.0903
13404SOL    HW140911   2.143   4.785   0.793 -0.0008  0.4060  1.0498
13404SOL    HW240912   2.209   4.722   0.914  2.4192  0.1469 -0.3523
13405SOL     OW40913   5.222   5.524   6.608  0.5887 -0.0367  0.5044
13405SOL    HW140914   5.300   5.531   6.663  1.4465  0.7995 -0.7616
13405SOL    HW240915   5.246   5.462   6.540 -0.1728 -0.4430  0.5974
13406SOL     OW40916   3.654   1.868   3.724  0.6728 -0.5156 -0.2146
13406SOL    HW140917   3.621   1.804   3.660 -0.4234  0.6936 -0.9086
13406SOL    HW240918   3.666   1.948   3.673  1.8532 -0.1075  0.6803
13407SOL     OW40919   2.258   7.866   5.402  0.0850 -0.2907 -1.0260
13407SOL    HW140920   2.280   7.958   5.392  1.4020 -0.7202 -2.4906
13407SOL    HW240921   2.163   7.862   5.392 -0.1225  1.0216  0.2156
13408SOL     OW40922   2.239   0.240   7.248 -0.0757 -0.3197  0.3833
13408SOL    HW140923   2.253   0.251   7.342  0.0281 -0.6414  0.4046
13408SOL    HW240924   2.281   0.317   7.208 -0.6247  0.1248  0.6386
13409SOL     OW40925   5.946   5.689   1.973 -0.2911 -0.3780 -0.3155
13409SOL    HW140926   6.014   5.710   1.910  1.3209  2.8079  2.1617
13409SOL    HW240927   5.865   5.724   1.935  0.7124  1.8335 -0.5608
13410SOL     OW40928   4.997   3.162   4.339  0.5329  0.2985  0.4336
13410SOL    HW140929   5.028   3.250   4.316  0.1915  0.7117  1.4922
13410SOL    HW240930   4.902   3.167   4.330  0.5041  0.0720  0.6052
13411SOL     OW40931   3.392   2.554   3.246  0.0976  0.1836 -0.5513
13411SOL    HW140932   3.415   2.600   3.327  0.6020 -1.4664  0.2851
13411SOL    HW240933   3.297   2.553   3.245  0.0691  1.7090 -0.8760
13412SOL     OW40934   5.277   1.950   0.549  0.3337  0.6344  0.3385
13412SOL    HW140935   5.368   1.948   0.519  0.6320  0.0982  1.2358
13412SOL    HW240936   5.261   2.041   0.572 -0.1045  1.1921 -1.9684
13413SOL     OW40937   3.176   0.923   0.246 -0.0905  0.1320 -0.2910
13413SOL    HW140938   3.125   0.850   0.211 -0.1970 -0.3336  0.8093
13413SOL    HW240939   3.265   0.889   0.253  0.2888  0.7496 -1.6234
13414SOL     OW40940   1.140   2.618   6.901  0.1817 -0.5259  0.4436
13414SOL    HW140941   1.149   2.558   6.975  1.3972 -0.7740  0.1255
13414SOL    HW240942   1.049   2.647   6.904  0.2332 -0.4397  2.0941
13415SOL     OW40943   4.450   3.136   1.865 -0.2599  0.1253  0.0802
13415SOL    HW140944   4.495   3.127   1.781 -1.9593  1.1667 -1.0107
13415SOL    HW240945   4.439   3.047   1.896  0.8812 -0.2478 -0.5384
13416SOL     OW40946   4.443   5.593   1.869 -0.0824 -0.1879 -0.2355
13416SOL    HW140947   4.538   5.605   1.861 -0.1079  0.7046  0.6409
13416SOL    HW240948   4.420   5.537   1.795  1.1208 -0.3844 -0.4868
13417SOL     OW40949   2.809   0.019   7.171  0.4305  0.4151 -0.1639
13417SOL    HW140950   2.717   0.012   7.144 -0.4023  1.3441  2.1946
13417SOL    HW240951   2.857  -0.029   7.104 -1.8030 -0.4441 -1.2525
13418SOL     OW40952   2.498   7.379   0.445 -0.2631 -0.3088  0.0974
13418SOL    HW140953   2.444   7.445   0.402  0.2993  1.1580  1.5667
13418SOL    HW240954   2.472   7.382   0.537 -0.1084 -2.0511  0.2303
13419SOL     OW40955   2.321   5.220   5.929  0.1455  0.1310 -0.1784
13419SOL    HW140956   2.382   5.157   5.892 -2.6344 -3.3354  0.6285
13419SOL    HW240957   2.287   5.178   6.008 -2.2241  2.4796  0.2049
13420SOL     OW40958   4.926   3.889   1.404 -0.2662  0.0089  0.3920
13420SOL    HW140959   4.958   3.896   1.314 -1.0140  1.3831  0.2013
13420SOL    HW240960   4.839   3.851   1.396  1.1930 -3.8511  0.9235
13421SOL     OW40961   6.968   1.688   1.946  0.8960  0.4343  0.0493
13421SOL    HW140962   7.024   1.677   1.870  1.0534  1.1929  0.0455
13421SOL    HW240963   6.910   1.612   1.945  1.0268  0.3385 -0.7174
13422SOL     OW40964   5.486   1.247   6.964  0.3883 -0.7535  0.2070
13422SOL    HW140965   5.541   1.313   6.920  0.7025 -0.3600  1.1754
13422SOL    HW240966   5.422   1.223   6.897  0.1889  0.6202 -0.1414
13423SOL     OW40967   6.680   4.853   6.771  0.0950  0.2664  0.1193
13423SOL    HW140968   6.658   4.779   6.714  0.3844 -0.6337  1.1460
13423SOL    HW240969   6.617   4.921   6.747 -0.5163 -0.4961 -0.4813
13424SOL     OW40970   5.115   1.632   4.147  0.4834  0.5656 -0.0092
13424SOL    HW140971   5.168   1.583   4.085 -0.3392  1.5980 -1.6083
13424SOL    HW240972   5.157   1.718   4.151  0.5481  0.5005  0.9193
13425SOL     OW40973   3.057   6.112   3.384  0.2660  0.0518  0.2513
13425SOL    HW140974   3.133   6.120   3.441 -0.1609  0.0609  0.8296
13425SOL    HW240975   3.044   6.018   3.373  1.2299  0.0403 -1.0494
13426SOL     OW40976   6.160   3.089   3.286  0.0365  0.1510  0.5271
13426SOL    HW140977   6.256   3.085   3.287  0.0548  0.2113 -0.2758
13426SOL    HW240978   6.136   3.053   3.201 -0.6372  0.6109  0.5194
13427SOL     OW40979   5.511   6.079   2.277  0.0158 -0.5803  0.0689
13427SOL    HW140980   5.537   6.101   2.366 -1.7333  0.1113  0.4689
13427SOL    HW240981   5.592   6.078   2.227  1.0289 -0.9734  1.6598
13428SOL     OW40982   3.006   0.888   1.698 -0.4258  0.7742 -0.4002
13428SOL    HW140983   3.023   0.962   1.757  0.4294  0.1176  0.1869
13428SOL    HW240984   3.092   0.857   1.672 -0.7030 -1.1912  0.8401
13429SOL     OW40985   0.991   0.969   7.462  0.0670  0.1405  0.0739
13429SOL    HW140986   1.046   0.909   7.512 -3.1716  0.1200  4.1898
13429SOL    HW240987   0.989   0.932   7.374  3.3432 -1.9888  0.7119
13430SOL     OW40988   1.861   2.723   5.663  0.1902  0.1399  0.1901
13430SOL    HW140989   1.780   2.672   5.658 -0.3311  0.9721 -0.1625
13430SOL    HW240990   1.930   2.661   5.642 -0.3853 -0.5314  0.2544
13431SOL     OW40991   0.590   3.219   0.159 -0.1250  0.4657 -0.1127
13431SOL    HW140992   0.594   3.144   0.100 -0.0256  0.1398  0.3024
13431SOL    HW240993   0.496   3.235   0.170 -0.1613 -0.0294  0.3320
13432SOL     OW40994   2.933   7.192   4.781 -0.1113 -0.4193  0.3258
13432SOL    HW140995   2.913   7.283   4.763 -1.0720 -1.0370 -2.1652
13432SOL    HW240996   2.889   7.143   4.710  0.8542 -2.7555  1.2300
13433SOL     OW40997   1.579   2.752   0.282 -0.0797 -0.0280 -0.3856
13433SOL    HW140998   1.565   2.812   0.354  1.0165 -2.3558  1.9422
13433SOL    HW240999   1.491   2.728   0.252 -0.5496  0.9067  0.2324
13434SOL     OW41000   1.484   4.153   3.337 -0.3672  0.5851  0.0576
13434SOL    HW141001   1.535   4.181   3.261  0.0038  1.2409  0.5340
13434SOL    HW241002   1.536   4.084   3.377  0.6117  1.8310  1.0290
13435SOL     OW41003   5.792   2.328   7.746 -0.3602  0.5802  0.2391
13435SOL    HW141004   5.884   2.313   7.723 -0.1682  0.0550  1.2686
13435SOL    HW241005   5.751   2.359   7.665  0.5725  0.1424 -0.4154
13436SOL     OW41006   7.654   3.983   5.009  0.5188 -0.4608  0.2855
13436SOL    HW141007   7.668   4.077   5.003  0.2807 -0.4542 -0.1998
13436SOL    HW241008   7.675   3.950   4.922  1.2721 -0.9496  0.6427
13437SOL     OW41009   1.883   7.718   5.978 -0.1042 -0.3010  0.3870
13437SOL    HW141010   1.885   7.695   6.071  0.5034 -0.0850  0.4333
13437SOL    HW241011   1.882   7.634   5.932  2.9631 -0.5152  0.5329
13438SOL     OW41012   7.837   5.120   5.798 -0.0921 -0.3917 -0.1664
13438SOL    HW141013   7.924   5.081   5.797  0.3910  0.2198 -4.6761
13438SOL    HW241014   7.851   5.210   5.771 -1.9164  0.7805  2.4401
13439SOL     OW41015   2.155   4.254   6.213  0.3609  0.1445  0.2278
13439SOL    HW141016   2.182   4.288   6.298 -0.0183  0.2379  0.3137
13439SOL    HW241017   2.112   4.328   6.169 -0.0866 -0.1013  0.2463
13440SOL     OW41018   0.749   3.513   2.888  0.3917 -0.2069  0.1458
13440SOL    HW141019   0.685   3.450   2.855 -0.0427 -0.8989  2.1947
13440SOL    HW241020   0.792   3.547   2.809 -1.6266 -0.6294 -1.1971
13441SOL     OW41021   6.357   0.451   4.675  0.3348  0.3825 -0.2279
13441SOL    HW141022   6.370   0.374   4.729  0.1695  0.2076 -0.4375
13441SOL    HW241023   6.343   0.417   4.587 -0.0913  0.6320 -0.2596
13442SOL     OW41024   6.479   4.271   6.445  0.1955 -0.4665  0.0996
13442SOL    HW141025   6.384   4.269   6.436  0.1463  0.6556  0.1815
13442SOL    HW241026   6.510   4.315   6.365  0.5963 -0.3631  0.3079
13443SOL     OW41027   4.729   6.048   3.773 -0.3448  0.1719 -0.0781
13443SOL    HW141028   4.662   6.095   3.822  0.0807 -0.2682  0.9427
13443SOL    HW241029   4.761   6.112   3.709  0.7528  1.5633  1.7644
13444SOL     OW41030   5.822   1.910   6.726 -0.2509 -0.3587  0.4522
13444SOL    HW141031   5.768   1.950   6.658  0.9231  0.9429  0.2452
13444SOL    HW241032   5.851   1.827   6.687  0.6215  0.4789 -0.7897
13445SOL     OW41033   7.688   2.013   7.083  0.5202  0.1073 -0.3694
13445SOL    HW141034   7.611   2.047   7.038  0.4391 -1.1897 -1.2735
13445SOL    HW241035   7.655   1.989   7.170 -0.3880 -1.3867 -1.0793
13446SOL     OW41036   1.275   0.011   1.713  0.1644  0.3940  0.0071
13446SOL    HW141037   1.362  -0.015   1.744  1.4368  2.0935 -1.8473
13446SOL    HW241038   1.293   0.080   1.648 -2.5751  0.6766 -0.5565
13447SOL     OW41039   5.958   2.264   5.856  0.5883 -0.4599 -0.1815
13447SOL    HW141040   5.999   2.350   5.845  2.1867 -1.3774 -2.0290
13447SOL    HW241041   6.028   2.209   5.890 -0.2100 -1.2129  0.2666
13448SOL     OW41042   6.352   0.602   1.323 -0.0305 -0.3356 -0.1475
13448SOL    HW141043   6.321   0.691   1.307  1.8118  0.2743 -0.5998
13448SOL    HW241044   6.369   0.599   1.417  1.1686  0.2671 -0.3201
13449SOL     OW41045   4.923   1.754   1.706 -0.6636  0.9459 -0.2453
13449SOL    HW141046   4.911   1.847   1.729  0.3478  1.1018 -0.2846
13449SOL    HW241047   4.886   1.746   1.618 -0.9116  1.2744 -0.1731
13450SOL     OW41048   1.862   4.529   1.823 -0.1717 -0.3735 -0.5262
13450SOL    HW141049   1.850   4.623   1.828 -0.7659 -0.4316 -0.7840
13450SOL    HW241050   1.944   4.518   1.775 -0.1349  0.0095 -0.5550
13451SOL     OW41051   3.085   5.554   2.801 -0.7109 -0.5880 -0.0034
13451SOL    HW141052   3.058   5.570   2.711 -1.2621 -2.6287 -0.2521
13451SOL    HW241053   3.029   5.482   2.830 -0.5492  0.0271  1.9818
13452SOL     OW41054   4.264   5.297   5.602 -0.5900  0.2095 -0.6095
13452SOL    HW141055   4.228   5.213   5.575 -2.9501 -0.2849  3.3574
13452SOL    HW241056   4.349   5.275   5.641 -0.4636 -0.0704 -1.0327
13453SOL     OW41057   4.478   7.054   7.243  0.4061  0.1927  0.6505
13453SOL    HW141058   4.480   7.132   7.187 -1.0583  0.9507  1.5871
13453SOL    HW241059   4.434   6.988   7.189  0.1603  0.5189  0.4465
13454SOL     OW41060   0.603   2.236   7.501  0.5318 -0.2750  0.5257
13454SOL    HW141061   0.514   2.207   7.480 -0.5538  2.1170  1.4496
13454SOL    HW241062   0.620   2.199   7.588  1.0304 -1.8385 -0.1942
13455SOL     OW41063   2.550   5.012   5.188 -0.3787 -0.2355 -0.3276
13455SOL    HW141064   2.510   5.026   5.273  2.0090 -0.0701  0.8494
13455SOL    HW241065   2.523   5.087   5.136 -0.3660  0.6344  0.8895
13456SOL     OW41066   2.765   7.095   4.585 -0.0247  0.4847  0.4111
13456SOL    HW141067   2.759   7.010   4.629 -0.0447 -0.4065 -1.2519
13456SOL    HW241068   2.688   7.098   4.528  0.4054  1.2694 -0.1457
13457SOL     OW41069   2.719   1.270   2.925  0.4368  0.5227 -0.0144
13457SOL    HW141070   2.647   1.333   2.930  0.0980  0.4034 -2.3187
13457SOL    HW241071   2.743   1.268   2.833  1.9240 -1.1001  0.3514
13458SOL     OW41072   6.175   4.660   0.095  0.1012  0.4413  0.0358
13458SOL    HW141073   6.106   4.594   0.096  0.8823 -0.4054  0.3302
13458SOL    HW241074   6.209   4.660   0.185 -1.1584  2.6618  0.5940
13459SOL     OW41075   3.528   1.870   7.004 -0.2526  0.2871 -0.4462
13459SOL    HW141076   3.604   1.813   7.013  0.2134  1.2009  2.1266
13459SOL    HW241077   3.457   1.812   6.976  0.2011 -1.6179  1.9863
13460SOL     OW41078   2.776   7.128   1.129 -0.2100 -0.2105  0.2845
13460SOL    HW141079   2.712   7.057   1.123  0.1616 -0.4488 -1.1436
13460SOL    HW241080   2.852   7.089   1.173 -0.5880 -0.2540  0.9066
13461SOL     OW41081   0.741   0.879   3.372  0.0801  0.4458  0.5296
13461SOL    HW141082   0.670   0.822   3.401 -0.9349  2.0557  1.3718
13461SOL    HW241083   0.821   0.834   3.399 -0.6123 -1.1672  0.0076
13462SOL     OW41084   4.772   2.538   1.787  0.0606 -0.1001  0.1315
13462SOL    HW141085   4.744   2.489   1.864  1.6863 -2.1024 -0.4935
13462SOL    HW241086   4.845   2.592   1.818  1.4556 -1.7387 -0.1905
13463SOL     OW41087   4.308   6.129   3.588  0.1032  0.3882 -0.2515
13463SOL    HW141088   4.317   6.184   3.666  0.9067  0.9438 -0.7182
13463SOL    HW241089   4.215   6.107   3.584  0.2408 -0.7232  1.5751
13464SOL     OW41090   4.178   7.801   4.431  0.1346 -0.2052  0.2420
13464SOL    HW141091   4.258   7.762   4.465 -0.4323 -0.5750  1.1792
13464SOL    HW241092   4.138   7.732   4.378  0.4173 -0.0208 -0.2244
13465SOL     OW41093   0.295   6.813   7.145  0.5242 -0.0679  0.2004
13465SOL    HW141094   0.340   6.814   7.060  0.1743 -1.6535 -0.0417
13465SOL    HW241095   0.348   6.755   7.199  0.1502  0.0635  0.7099
13466SOL     OW41096   0.201   6.049   4.556  0.0058  0.0277 -0.0337
13466SOL    HW141097   0.169   6.045   4.646  2.4663 -1.9110  0.8995
13466SOL    HW241098   0.169   5.968   4.515  0.3952  0.0194 -0.3311
13467SOL     OW41099   0.666   5.292   1.502  0.0750  0.3221  0.1388
13467SOL    HW141100   0.705   5.281   1.589 -1.4446  0.0154  0.8101
13467SOL    HW241101   0.683   5.209   1.458 -0.2366  0.0145  0.5939
13468SOL     OW41102   2.087   3.582   2.619 -0.1460  0.2574 -0.2909
13468SOL    HW141103   2.102   3.489   2.604 -0.1769  0.2293 -0.1446
13468SOL    HW241104   2.005   3.601   2.574 -0.4519  0.0836  0.1847
13469SOL     OW41105   6.947   7.657   6.461 -0.1501  0.1534 -0.0602
13469SOL    HW141106   6.860   7.664   6.422  0.0281  0.3946 -0.4189
13469SOL    HW241107   7.005   7.697   6.397  0.0302  1.4322  0.8414
13470SOL     OW41108   4.956   0.919   5.226 -0.0215 -0.1215 -0.2196
13470SOL    HW141109   4.929   0.952   5.312 -0.9230 -1.5674  0.0783
13470SOL    HW241110   4.877   0.927   5.172  0.5029  0.6472 -0.8878
13471SOL     OW41111   3.431   7.931   1.680 -0.2735  0.4511 -0.0126
13471SOL    HW141112   3.360   7.975   1.726  1.5181  1.0322  2.4330
13471SOL    HW241113   3.454   7.857   1.736  1.0967  0.3505 -0.6464
13472SOL     OW41114   0.547   3.185   1.732 -0.0155 -0.0100 -0.5680
13472SOL    HW141115   0.616   3.192   1.798 -1.3014 -0.0816  0.8376
13472SOL    HW241116   0.573   3.111   1.678  0.4652 -0.7179  0.5935
13473SOL     OW41117   1.732   6.558   1.429 -0.8076  0.0534 -0.0973
13473SOL    HW141118   1.822   6.527   1.439 -1.2263 -0.7101  1.7765
13473SOL    HW241119   1.741   6.649   1.401  0.6149  0.5056  1.6744
13474SOL     OW41120   3.964   0.816   2.263 -0.1631  0.1631  0.0721
13474SOL    HW141121   3.933   0.858   2.343 -0.8909  1.6295 -0.9338
13474SOL    HW241122   3.885   0.798   2.212  0.3830  1.5276 -1.3624
13475SOL     OW41123   2.702   3.855   2.655 -0.8484 -0.3494 -0.1226
13475SOL    HW141124   2.674   3.823   2.570  0.6981  1.7379 -1.5004
13475SOL    HW241125   2.624   3.897   2.692 -1.2395 -0.2873 -1.0120
13476SOL     OW41126   0.989   5.527   3.739 -0.0829 -0.3809  0.4075
13476SOL    HW141127   0.955   5.558   3.823  0.0799 -0.6623  0.5756
13476SOL    HW241128   0.940   5.447   3.721 -1.7362  0.8455 -0.8528
13477SOL     OW41129   4.930   0.279   6.314  0.0618 -0.1316 -0.5228
13477SOL    HW141130   4.968   0.367   6.316 -1.0198  0.4094 -1.9089
13477SOL    HW241131   4.876   0.275   6.392  0.8624  0.0615  0.0634
13478SOL     OW41132   1.935   3.138   6.815 -0.7485  0.0582 -0.0440
13478SOL    HW141133   1.891   3.222   6.831 -0.4263  0.5383 -1.5318
13478SOL    HW241134   1.978   3.119   6.898 -1.6849  0.8337  0.6540
13479SOL     OW41135   0.492   1.102   5.041  0.4230 -0.1692 -0.0422
13479SOL    HW141136   0.440   1.180   5.063 -0.5915 -0.5980 -0.8360
13479SOL    HW241137   0.433   1.048   4.988  0.7726 -1.9608  1.3014
13480SOL     OW41138   5.952   5.765   4.686  0.1682 -0.1580 -0.6484
13480SOL    HW141139   5.914   5.678   4.701  1.8078 -0.6686  0.9323
13480SOL    HW241140   5.878   5.825   4.692 -0.6098 -1.2050  1.2022
13481SOL     OW41141   4.841   7.911   7.964 -0.1548 -0.2980  0.2456
13481SOL    HW141142   4.935   7.897   7.979 -0.4667 -0.4315  2.2711
13481SOL    HW241143   4.833   8.005   7.950  0.2839 -0.3057 -0.1011
13482SOL     OW41144   6.172   1.031   6.165  0.6067  0.1718 -0.2452
13482SOL    HW141145   6.117   1.045   6.088  0.4146  0.9996  0.0254
13482SOL    HW241146   6.228   0.957   6.142  1.5440  1.2744 -1.7461
13483SOL     OW41147   5.636   6.466   2.779  0.1362 -0.0438 -0.2036
13483SOL    HW141148   5.642   6.397   2.846  2.1001  1.5686  1.4287
13483SOL    HW241149   5.722   6.464   2.736 -1.2551 -1.4114 -3.2187
13484SOL     OW41150   6.197   7.236   0.379 -0.2284 -0.4768 -0.0439
13484SOL    HW141151   6.272   7.177   0.389 -0.8778 -1.2539  0.2867
13484SOL    HW241152   6.237   7.322   0.360  0.7802 -0.6549  1.1284
13485SOL     OW41153   0.621   4.271   2.065  0.1180 -0.0170 -0.5509
13485SOL    HW141154   0.678   4.274   2.143 -0.8257 -1.7321  0.2623
13485SOL    HW241155   0.646   4.190   2.021  1.2867  1.3944 -2.6138
13486SOL     OW41156   1.081   2.788   2.794  0.7282  0.1556 -0.0851
13486SOL    HW141157   1.107   2.878   2.773  0.6749 -0.3073 -2.3864
13486SOL    HW241158   1.025   2.797   2.870  0.7743  2.0713 -0.2106
13487SOL     OW41159   7.782   6.596   3.114 -0.1831 -0.0639 -0.1633
13487SOL    HW141160   7.745   6.574   3.199 -3.4318  1.1464 -1.0817
13487SOL    HW241161   7.811   6.687   3.122 -0.6916  0.1224 -0.3694
13488SOL     OW41162   7.935   4.369   1.693  0.0914  0.3732 -0.1270
13488SOL    HW141163   8.025   4.402   1.703 -0.5571  1.8521  1.4293
13488SOL    HW241164   7.915   4.331   1.779 -0.7303 -0.0684 -0.5100
13489SOL     OW41165   2.730   5.986   2.928 -0.3992 -0.3379 -0.0658
13489SOL    HW141166   2.750   5.958   3.017  1.1284 -0.6666 -0.4823
13489SOL    HW241167   2.678   5.915   2.891  1.4498 -1.6136 -0.3503
13490SOL     OW41168   6.756   4.056   7.014  0.7199  0.5677  0.3118
13490SOL    HW141169   6.714   4.073   7.099  0.6493 -1.7552  0.7884
13490SOL    HW241170   6.848   4.040   7.037  0.4748 -1.2229  0.1181
13491SOL     OW41171   7.786   6.013   7.188 -0.1946  0.0113  0.7779
13491SOL    HW141172   7.852   5.968   7.134  0.6058  1.5955  0.3748
13491SOL    HW241173   7.712   5.952   7.191  0.2811 -0.7151 -0.9679
13492SOL     OW41174   3.758   1.702   3.271 -0.1749 -0.3336  0.7903
13492SOL    HW141175   3.727   1.793   3.276 -0.8529 -0.6008  1.9510
13492SOL    HW241176   3.683   1.652   3.239 -0.2200 -0.6601  1.3915
13493SOL     OW41177   3.799   1.050   3.320  0.1737  0.2098 -0.0485
13493SOL    HW141178   3.785   0.981   3.255 -1.0283 -0.8896  1.3077
13493SOL    HW241179   3.729   1.113   3.303 -1.0566 -0.8160  1.0761
13494SOL     OW41180   5.524   2.703   3.751 -0.3471  0.2809 -0.0637
13494SOL    HW141181   5.580   2.645   3.698 -1.4166 -0.4155 -0.4643
13494SOL    HW241182   5.580   2.730   3.824 -0.0324 -1.8652  0.5455
13495SOL     OW41183   0.873   0.253   5.984 -0.3334  0.1726  0.3247
13495SOL    HW141184   0.778   0.259   5.995 -0.1741  2.9209  0.9752
13495SOL    HW241185   0.887   0.260   5.890 -0.7635 -0.0489  0.2417
13496SOL     OW41186   1.048   0.936   2.092  1.0552  0.2801  0.3839
13496SOL    HW141187   1.089   0.881   2.026  1.3177  0.6503  0.2349
13496SOL    HW241188   1.119   0.958   2.153  0.6423 -0.7825  1.3025
13497SOL     OW41189   3.552   1.715   5.650  0.1690  0.0097  0.6384
13497SOL    HW141190   3.611   1.731   5.577  0.5026  3.1867  1.4232
13497SOL    HW241191   3.498   1.642   5.622  1.8807 -0.4773 -1.7329
13498SOL     OW41192   7.434   5.795   2.535  0.6299 -0.0366 -0.0921
13498SOL    HW141193   7.385   5.876   2.552  0.7949  0.2258 -0.8464
13498SOL    HW241194   7.523   5.823   2.515  1.3401 -0.5606  2.0655
13499SOL     OW41195   0.104   2.772   7.033 -0.4104  0.0920 -0.5689
13499SOL    HW141196   0.123   2.861   7.004 -0.3234 -0.0064 -0.8173
13499SOL    HW241197   0.036   2.741   6.974 -0.2873 -0.0838 -0.6182
13500SOL     OW41198   5.346   1.081   6.788 -0.0044  0.0845  0.4099
13500SOL    HW141199   5.388   1.069   6.703 -1.3420  0.6655 -0.3684
13500SOL    HW241200   5.399   1.030   6.848  1.2834  0.0889 -0.6781
13501SOL     OW41201   4.171   6.927   5.954  0.2892  0.1618 -0.3427
13501SOL    HW141202   4.200   6.837   5.970  0.1771  0.3754  1.2908
13501SOL    HW241203   4.080   6.918   5.927  0.4131 -0.2483 -0.6238
13502SOL     OW41204   4.581   2.518   5.867  0.2059  0.4431 -0.0062
13502SOL    HW141205   4.528   2.481   5.796 -0.0179  2.2065 -0.8115
13502SOL    HW241206   4.557   2.466   5.944 -0.2215 -0.9242 -1.0293
13503SOL     OW41207   7.053   2.763   0.738 -0.8528 -0.1047 -0.2070
13503SOL    HW141208   6.988   2.816   0.693 -1.2673 -2.0898 -2.1413
13503SOL    HW241209   7.104   2.723   0.668 -0.6932 -2.3694  1.1042
13504SOL     OW41210   5.702   7.318   0.544 -0.3526 -0.5915 -0.3083
13504SOL    HW141211   5.790   7.285   0.564 -0.3064 -0.3196 -0.0520
13504SOL    HW241212   5.660   7.247   0.495  0.5528 -0.1228 -1.8589
13505SOL     OW41213   7.314   1.144   1.262  0.6079  0.3315  0.0458
13505SOL    HW141214   7.399   1.102   1.259  0.6792  0.5529 -1.7312
13505SOL    HW241215   7.327   1.219   1.321  1.5931  0.2669 -0.0714
13506SOL     OW41216   5.666   1.437   6.800  0.1476 -0.5342 -0.6573
13506SOL    HW141217   5.666   1.403   6.711 -1.1090 -0.5292 -0.6754
13506SOL    HW241218   5.724   1.513   6.796  1.3387 -1.4267 -1.0864
13507SOL     OW41219   4.952   1.648   5.048  0.0460  0.6880 -0.1390
13507SOL    HW141220   5.047   1.636   5.054 -0.0556  0.2983  1.1871
13507SOL    HW241221   4.939   1.701   4.970  1.4969  2.1886  0.5797
13508SOL     OW41222   2.050   1.605   7.179  0.6917  0.3725 -0.2569
13508SOL    HW141223   2.136   1.567   7.162  1.0213  0.7066  0.5961
13508SOL    HW241224   2.006   1.542   7.235  0.5822  0.4438 -0.2617
13509SOL     OW41225   3.925   2.350   0.868  0.1312  0.3946 -0.2261
13509SOL    HW141226   3.880   2.266   0.869 -0.7501  0.8521 -0.7493
13509SOL    HW241227   4.012   2.331   0.905 -1.3523  0.0406  3.4805
13510SOL     OW41228   0.564   6.362   6.362 -0.4421 -0.1044  0.9025
13510SOL    HW141229   0.528   6.298   6.301 -1.1132  0.9298  0.1915
13510SOL    HW241230   0.566   6.316   6.446  1.7532 -2.0062 -0.0864
13511SOL     OW41231   5.117   1.180   3.786  0.4783 -0.4747 -1.0260
13511SOL    HW141232   5.155   1.109   3.838  3.1526  0.2012 -1.9066
13511SOL    HW241233   5.182   1.250   3.790 -0.9504  0.9906 -2.2304
13512SOL     OW41234   0.349   5.033   7.892  0.1576 -0.2812  0.2510
13512SOL    HW141235   0.256   5.043   7.914  0.1057 -2.4544  1.3001
13512SOL    HW241236   0.350   4.981   7.812  0.5094  1.5629 -1.0355
13513SOL     OW41237   6.989   5.052   5.094 -0.8307 -0.0687 -0.1937
13513SOL    HW141238   6.961   5.037   5.003 -0.3811  3.7054 -1.1521
13513SOL    HW241239   6.920   5.107   5.131 -0.5086 -0.7335  1.4731
13514SOL     OW41240   5.088   2.902   4.378  0.0339 -0.6678  1.0237
13514SOL    HW141241   5.065   2.864   4.293  0.5966  0.6428  0.2637
13514SOL    HW241242   5.065   2.994   4.370  4.3632  0.5599  0.5835
13515SOL     OW41243   3.550   3.983   5.112  0.8122 -0.1614 -0.6055
13515SOL    HW141244   3.544   4.015   5.022  0.1289 -1.4593 -1.0443
13515SOL    HW241245   3.502   3.900   5.112  2.9351 -1.4748  0.3721
13516SOL     OW41246   7.683   5.367   2.979  0.0774  0.0097 -0.3664
13516SOL    HW141247   7.593   5.399   2.970 -0.0092 -0.2945 -0.5981
13516SOL    HW241248   7.674   5.274   3.000  0.3365  0.0086 -0.2543
13517SOL     OW41249   7.498   6.878   5.274  0.3277  0.1014  0.1294
13517SOL    HW141250   7.444   6.823   5.217 -0.9854  1.1286  0.3124
13517SOL    HW241251   7.438   6.903   5.345  1.0438  1.3041  0.3279
13518SOL     OW41252   7.591   5.268   4.235 -0.5453  0.0458 -0.3842
13518SOL    HW141253   7.556   5.347   4.277  0.9718  1.2817 -1.3314
13518SOL    HW241254   7.534   5.198   4.265 -1.1358  1.2800  1.5810
13519SOL     OW41255   0.971   7.184   1.685  0.2061 -0.3983 -0.2123
13519SOL    HW141256   1.001   7.169   1.774 -0.9465 -0.0833  0.2484
13519SOL    HW241257   0.968   7.280   1.677 -1.5177 -0.4040  0.0749
13520SOL     OW41258   6.919   0.876   3.043  0.2277  0.1165  0.4364
13520SOL    HW141259   6.989   0.822   3.080 -0.0977 -0.0797  0.7746
13520SOL    HW241260   6.917   0.955   3.096  1.4432  0.9865 -0.7417
13521SOL     OW41261   6.472   3.193   6.253  0.1799 -0.2378  0.0571
13521SOL    HW141262   6.533   3.201   6.327  0.8813 -1.2010 -0.3980
13521SOL    HW241263   6.395   3.151   6.291  0.2483 -0.0704  0.3910
13522SOL     OW41264   7.020   4.597   5.264 -0.1755 -0.3520  0.9455
13522SOL    HW141265   7.061   4.513   5.283 -0.7163 -0.5107  1.4359
13522SOL    HW241266   6.926   4.582   5.273 -0.4621 -0.2838 -1.3587
13523SOL     OW41267   4.527   4.554   0.035 -0.1764 -0.0915 -0.6120
13523SOL    HW141268   4.527   4.552   0.130  0.3674  1.2332 -0.5680
13523SOL    HW241269   4.487   4.471   0.009  1.0473 -1.1660  0.7472
13524SOL     OW41270   2.015   6.680   3.995 -0.6109  0.2040  0.2185
13524SOL    HW141271   2.067   6.750   3.955 -1.0162  0.9092  0.8887
13524SOL    HW241272   2.055   6.667   4.081 -0.0887 -0.9141 -0.1729
13525SOL     OW41273   2.509   3.097   7.594  1.0274  0.0837  0.6907
13525SOL    HW141274   2.512   3.093   7.498  0.1630 -1.9841  0.6947
13525SOL    HW241275   2.492   3.189   7.614 -3.3420 -0.0236 -1.3552
13526SOL     OW41276   6.689   6.400   2.742  0.2368  0.3331  0.1729
13526SOL    HW141277   6.722   6.485   2.772  0.7530  0.5615 -0.9634
13526SOL    HW241278   6.766   6.358   2.701  0.1931 -1.0237  1.3986
13527SOL     OW41279   5.666   2.559   2.535  0.3521 -0.4217 -0.1673
13527SOL    HW141280   5.587   2.567   2.481  0.9498 -1.5149 -1.2593
13527SOL    HW241281   5.692   2.468   2.526  0.5797 -0.5923  1.8925
13528SOL     OW41282   2.400   3.642   1.544  0.6259  0.1485 -0.5028
13528SOL    HW141283   2.348   3.664   1.467  0.7480 -0.4248 -0.7567
13528SOL    HW241284   2.352   3.679   1.617 -0.1865 -0.4428 -0.7246
13529SOL     OW41285   3.543   5.030   1.060 -0.2672 -0.2759 -0.0690
13529SOL    HW141286   3.597   5.062   1.133  0.0284  0.7313 -0.7028
13529SOL    HW241287   3.457   5.015   1.099 -0.0821  0.1381  0.5162
13530SOL     OW41288   7.890   0.343   2.578  0.5102  0.1728 -0.5756
13530SOL    HW141289   7.898   0.299   2.662 -1.8727  1.2334  0.2763
13530SOL    HW241290   7.956   0.301   2.523  1.5291 -1.1556  1.5327
13531SOL     OW41291   7.541   3.347   4.008  0.4828  0.3483 -0.5320
13531SOL    HW141292   7.531   3.262   4.049  0.7795 -0.3435 -1.8126
13531SOL    HW241293   7.561   3.407   4.080  1.6824 -0.9211  0.2403
13532SOL     OW41294   6.956   7.220   2.234 -0.5244 -0.7286  0.7752
13532SOL    HW141295   6.986   7.131   2.212  0.1552 -0.7056  1.5323
13532SOL    HW241296   7.035   7.274   2.226 -0.9015 -0.2180  0.4802
13533SOL     OW41297   6.063   4.778   6.581 -0.4162  1.0178  0.2831
13533SOL    HW141298   6.020   4.840   6.522 -1.0752  0.6163  0.3301
13533SOL    HW241299   6.015   4.787   6.664 -0.4313  0.5372  0.3254
13534SOL     OW41300   5.722   5.288   1.648  0.2459  0.3115 -0.2301
13534SOL    HW141301   5.788   5.342   1.692  0.3839 -0.2659  0.2798
13534SOL    HW241302   5.741   5.199   1.676 -0.2165  0.0355 -0.7709
13535SOL     OW41303   7.878   0.760   6.296  0.0125  0.1976 -0.3981
13535SOL    HW141304   7.939   0.697   6.258 -2.1803 -1.0554 -2.0696
13535SOL    HW241305   7.855   0.818   6.223 -0.5265  0.8750  0.2913
13536SOL     OW41306   2.800   1.546   7.604  0.1668  0.2247  0.0277
13536SOL    HW141307   2.804   1.498   7.521 -1.5159 -0.4302  0.2819
13536SOL    HW241308   2.891   1.558   7.629  0.8107  1.8713 -2.6933
13537SOL     OW41309   7.977   7.688   3.628 -0.0067  0.0776 -0.1349
13537SOL    HW141310   8.063   7.726   3.612 -0.7840  0.8998 -3.0597
13537SOL    HW241311   7.940   7.676   3.540 -2.8790 -0.2195  1.0165
13538SOL     OW41312   7.917   0.938   7.475 -0.3466  0.1412  0.3709
13538SOL    HW141313   7.868   1.005   7.427 -0.5484 -1.1080 -1.2470
13538SOL    HW241314   8.006   0.945   7.441 -0.3569 -0.3639  0.2361
13539SOL     OW41315   4.176   5.586   3.619 -0.2487  0.6752  0.0103
13539SOL    HW141316   4.268   5.595   3.593 -0.3442 -0.5786 -0.8842
13539SOL    HW241317   4.135   5.538   3.547 -1.6047  1.1809  0.4142
13540SOL     OW41318   2.281   6.061   2.906  0.4434 -0.4970 -0.0356
13540SOL    HW141319   2.311   6.004   2.835 -1.4335  0.4443 -1.6869
13540SOL    HW241320   2.356   6.117   2.924  0.9653 -0.7259 -1.3394
13541SOL     OW41321   6.142   7.953   4.080 -0.0015  0.5477 -0.3616
13541SOL    HW141322   6.060   7.904   4.079  0.0843  0.3940 -0.0978
13541SOL    HW241323   6.129   8.023   4.016 -1.0689  1.7320  1.0946
13542SOL     OW41324   2.537   2.127   2.684  0.0623 -0.3827  0.3057
13542SOL    HW141325   2.448   2.163   2.686  0.2746  0.3722 -1.6211
13542SOL    HW241326   2.531   2.052   2.625  0.8462  0.1169 -0.4199
13543SOL     OW41327   2.471   6.821   6.903 -0.3700  0.0225 -0.4622
13543SOL    HW141328   2.390   6.787   6.863  0.7373 -2.2272 -0.9950
13543SOL    HW241329   2.534   6.821   6.831  0.7281 -0.6268  0.4687
13544SOL     OW41330   6.499   2.591   6.051  0.5824 -0.4028 -0.0523
13544SOL    HW141331   6.449   2.588   5.970  0.9346 -1.8783 -0.2435
13544SOL    HW241332   6.441   2.634   6.114 -0.5057 -1.1160 -0.5408
13545SOL     OW41333   1.376   5.412   6.913 -0.0422 -0.9824  0.2223
13545SOL    HW141334   1.291   5.384   6.878 -1.3687  1.8271  0.9026
13545SOL    HW241335   1.440   5.367   6.858 -1.9897 -0.7643 -2.4570
13546SOL     OW41336   6.981   6.357   4.160  0.0872  0.0634  0.4944
13546SOL    HW141337   7.070   6.361   4.126  0.1257 -0.3790  0.5326
13546SOL    HW241338   6.984   6.290   4.228 -0.4950 -0.6982 -0.1980
13547SOL     OW41339   3.038   2.210   2.256 -0.1571  0.6764  0.2315
13547SOL    HW141340   3.047   2.132   2.202 -0.3104 -0.0720  1.2437
13547SOL    HW241341   2.960   2.194   2.309 -0.6598  1.8794 -0.1104
13548SOL     OW41342   2.935   6.097   6.842 -0.5390  0.3744  0.3943
13548SOL    HW141343   2.997   6.134   6.779  0.2115 -1.9192 -0.3524
13548SOL    HW241344   2.849   6.108   6.801 -0.3984  1.6592  0.4262
13549SOL     OW41345   2.398   5.582   7.674  0.3617 -0.6558 -0.2875
13549SOL    HW141346   2.383   5.526   7.750  0.1667 -1.6151 -1.0093
13549SOL    HW241347   2.358   5.665   7.697  1.7955 -0.3469  1.3409
13550SOL     OW41348   6.301   2.593   1.904 -0.6075  0.0271  0.5381
13550SOL    HW141349   6.352   2.665   1.867  0.0882  0.3713  2.0637
13550SOL    HW241350   6.328   2.517   1.853  1.3461  0.2398  1.1446
13551SOL     OW41351   7.910   3.821   1.525 -0.0736  0.5175 -0.2169
13551SOL    HW141352   7.839   3.835   1.463 -2.7010  2.3280  2.8637
13551SOL    HW241353   7.882   3.747   1.579  0.6248  0.8798  0.6835
13552SOL     OW41354   5.990   3.996   2.443  0.0151  0.7297 -0.0558
13552SOL    HW141355   6.073   3.949   2.436 -0.2253  0.3547 -0.4479
13552SOL    HW241356   5.950   3.963   2.524 -0.6864 -0.6307 -0.9258
13553SOL     OW41357   4.765   6.988   2.740 -0.1474 -0.2257 -0.2075
13553SOL    HW141358   4.733   7.078   2.744  0.2622 -0.0733 -0.3668
13553SOL    HW241359   4.695   6.936   2.780  0.1392  0.3014  1.0363
13554SOL     OW41360   2.464   0.271   2.350  0.1939  0.1333 -0.4167
13554SOL    HW141361   2.462   0.359   2.385  0.5095  0.7043 -1.7492
13554SOL    HW241362   2.416   0.277   2.267  2.6938 -0.2262 -1.9883
13555SOL     OW41363   7.084   3.887   2.758 -0.4636 -0.4213  0.2205
13555SOL    HW141364   6.990   3.903   2.767 -0.1814  1.8698 -0.3332
13555SOL    HW241365   7.093   3.793   2.771 -2.8981 -0.7971 -0.2704
13556SOL     OW41366   4.973   4.854   5.034 -0.6570 -0.2406  0.6268
13556SOL    HW141367   4.895   4.885   5.081 -1.4792  1.2469 -1.5770
13556SOL    HW241368   4.943   4.778   4.984 -0.3187 -0.5379  0.8715
13557SOL     OW41369   5.358   2.438   0.561 -0.2899  0.1016  0.2307
13557SOL    HW141370   5.331   2.519   0.519 -1.5180 -0.0715  0.6592
13557SOL    HW241371   5.437   2.412   0.514  2.1068  3.2204  2.1013
13558SOL     OW41372   2.393   2.440   0.662  0.1718  0.1271  0.2576
13558SOL    HW141373   2.302   2.418   0.681 -0.1250  1.5928  0.6291
13558SOL    HW241374   2.442   2.360   0.681 -1.0548 -0.7390 -0.1500
13559SOL     OW41375   3.843   4.024   7.259  0.4960  0.3173 -0.5470
13559SOL    HW141376   3.835   4.006   7.166  1.3167  0.8293 -0.7221
13559SOL    HW241377   3.753   4.022   7.292  0.4212 -4.7372 -0.3890
13560SOL     OW41378   3.642   5.760   1.578  0.1419 -0.7657 -0.1709
13560SOL    HW141379   3.653   5.691   1.513  0.1590  0.4347 -1.4751
13560SOL    HW241380   3.563   5.735   1.626  0.7909 -2.2909  0.1923
13561SOL     OW41381   0.623   1.954   4.738  0.0514 -0.4086  0.2623
13561SOL    HW141382   0.656   1.901   4.666 -1.5731 -1.0094 -0.0859
13561SOL    HW241383   0.635   1.900   4.816 -2.1260 -1.6082 -0.1641
13562SOL     OW41384   0.490   1.170   0.301 -0.1365 -0.5882 -0.0232
13562SOL    HW141385   0.411   1.119   0.283 -0.8264 -0.5869  2.5714
13562SOL    HW241386   0.498   1.230   0.227 -2.7281 -0.4199 -0.2322
13563SOL     OW41387   5.191   4.753   2.445 -0.3155 -0.0930 -0.4353
13563SOL    HW141388   5.275   4.722   2.411 -0.2881 -0.1781 -0.2903
13563SOL    HW241389   5.210   4.840   2.479 -0.1051 -0.4254  0.3257
13564SOL     OW41390   4.743   7.954   4.641  0.1864  0.1132  0.1945
13564SOL    HW141391   4.804   8.027   4.643  0.4732 -0.1246  0.1846
13564SOL    HW241392   4.758   7.913   4.556  1.0968 -0.8537  0.7958
13565SOL     OW41393   3.656   6.661   4.010  0.0745 -0.5942 -0.2743
13565SOL    HW141394   3.589   6.656   4.078  0.9520  0.9848  0.7837
13565SOL    HW241395   3.609   6.687   3.931 -0.9082 -2.0950 -0.2222
13566SOL     OW41396   5.855   2.358   6.783 -0.3984 -0.4312 -0.1069
13566SOL    HW141397   5.812   2.443   6.771  2.3361  1.0545 -0.1569
13566SOL    HW241398   5.823   2.326   6.868 -0.4925  1.2779  0.5288
13567SOL     OW41399   5.135   7.157   0.740  0.0178 -0.7206  0.3655
13567SOL    HW141400   5.111   7.064   0.745 -0.4397 -0.6170  0.0716
13567SOL    HW241401   5.228   7.156   0.717 -0.2938 -1.0942 -0.9392
13568SOL     OW41402   0.742   3.277   4.177 -0.0337  0.4196 -0.0360
13568SOL    HW141403   0.671   3.282   4.113  1.4466  0.8848 -1.7084
13568SOL    HW241404   0.805   3.343   4.149 -0.8389  3.2250  3.9249
13569SOL     OW41405   5.601   4.407   2.089 -0.5222  0.0116 -0.2967
13569SOL    HW141406   5.658   4.454   2.028 -1.6843  1.5189 -0.2700
13569SOL    HW241407   5.593   4.319   2.051  1.3542 -0.0764 -0.5819
13570SOL     OW41408   7.748   5.796   7.889  0.2581 -0.2294 -0.2285
13570SOL    HW141409   7.690   5.724   7.914  0.3456 -0.1761  0.1314
13570SOL    HW241410   7.831   5.777   7.933 -0.1911  0.9026  1.1815
13571SOL     OW41411   2.225   3.529   5.216 -0.3597 -0.2615  0.1432
13571SOL    HW141412   2.241   3.519   5.310 -0.0185  0.0047  0.1166
13571SOL    HW241413   2.178   3.613   5.209  0.7675  0.3684 -0.0384
13572SOL     OW41414   7.248   0.588   6.597  0.0386 -0.5245 -0.5625
13572SOL    HW141415   7.182   0.644   6.637  0.5390 -0.4289  0.1402
13572SOL    HW241416   7.281   0.534   6.669 -0.7167 -2.0346 -1.2943
13573SOL     OW41417   0.216   3.497   3.746 -0.5972 -0.1944  0.4712
13573SOL    HW141418   0.138   3.547   3.772 -0.1720 -0.3848  2.2341
13573SOL    HW241419   0.266   3.557   3.691 -1.3423  0.3871  0.4143
13574SOL     OW41420   1.188   2.922   1.801 -0.0255 -0.0534  0.5298
13574SOL    HW141421   1.205   2.835   1.763  1.7666  0.9720 -1.2426
13574SOL    HW241422   1.267   2.941   1.851 -0.5339  0.4521  1.1489
13575SOL     OW41423   4.242   1.360   3.200  0.2103  0.0662 -0.6813
13575SOL    HW141424   4.284   1.382   3.117 -1.8693  0.0424 -1.8022
13575SOL    HW241425   4.209   1.271   3.187 -0.2104  0.0955  0.1247
13576SOL     OW41426   1.001   2.198   3.611 -0.1131 -0.0623 -0.0127
13576SOL    HW141427   1.093   2.198   3.634  1.3751  1.1358 -4.8695
13576SOL    HW241428   0.976   2.291   3.612 -1.1832 -0.3369  0.7644
13577SOL     OW41429   1.135   7.530   4.749 -0.2270 -0.0342  0.1724
13577SOL    HW141430   1.172   7.582   4.821  0.7759  0.7032 -0.8292
13577SOL    HW241431   1.174   7.569   4.670 -0.4228 -1.5363 -0.6922
13578SOL     OW41432   5.296   3.295   4.370  0.6928  0.5134 -0.1863
13578SOL    HW141433   5.324   3.286   4.462 -1.7476 -0.4657  0.5296
13578SOL    HW241434   5.324   3.213   4.329 -1.4147 -0.6880  0.6514
13579SOL     OW41435   3.018   0.506   3.854 -0.3689 -0.0451  0.0565
13579SOL    HW141436   3.054   0.470   3.935  0.3775 -0.1706 -0.3253
13579SOL    HW241437   3.001   0.598   3.874  0.2227  0.0303  0.2278
13580SOL     OW41438   1.782   5.917   6.448 -0.4207 -0.0353 -0.1910
13580SOL    HW141439   1.767   5.849   6.514 -1.1858 -0.8919 -1.2151
13580SOL    HW241440   1.876   5.916   6.433 -0.2742 -0.0254  0.6662
13581SOL     OW41441   7.630   6.564   7.208  0.0176  0.8108  0.7350
13581SOL    HW141442   7.698   6.595   7.149 -0.1775 -0.9520 -0.5088
13581SOL    HW241443   7.675   6.547   7.291  0.8434  0.8049  0.2926
13582SOL     OW41444   1.170   6.301   7.905 -0.0226 -0.3322 -0.0682
13582SOL    HW141445   1.174   6.205   7.907 -0.2169 -0.3340  0.4718
13582SOL    HW241446   1.125   6.322   7.824 -3.1535 -0.8311  1.4086
13583SOL     OW41447   6.387   0.592   1.590  0.1006 -0.7255  0.0099
13583SOL    HW141448   6.329   0.638   1.650 -0.4400  0.5198 -1.4159
13583SOL    HW241449   6.399   0.506   1.630 -0.8179 -0.1975  1.5144
13584SOL     OW41450   3.524   2.126   1.923  0.0587  0.1960 -0.1100
13584SOL    HW141451   3.497   2.171   1.842  0.3726 -0.1942 -0.4370
13584SOL    HW241452   3.606   2.168   1.948 -0.3275  0.6989  0.3233
13585SOL     OW41453   0.329   2.357   4.407 -0.0040  0.0968  0.2857
13585SOL    HW141454   0.335   2.262   4.397  0.9360 -0.3020  3.4885
13585SOL    HW241455   0.247   2.380   4.364 -1.5762 -2.5834  1.5523
13586SOL     OW41456   0.194   3.200   2.014  0.6856  0.5695 -0.0377
13586SOL    HW141457   0.124   3.223   2.074 -0.1760 -1.4486 -0.1983
13586SOL    HW241458   0.171   3.244   1.932 -1.5944 -1.6622 -0.7161
13587SOL     OW41459   4.594   2.652   4.065  0.0411  0.1350 -0.4712
13587SOL    HW141460   4.555   2.594   3.999  1.7945 -3.5774  1.4448
13587SOL    HW241461   4.552   2.626   4.147  1.0641  1.5066  0.5279
13588SOL     OW41462   4.770   4.284   6.689  0.3267  0.4042  0.1501
13588SOL    HW141463   4.678   4.288   6.660  0.4772  2.5146 -0.2150
13588SOL    HW241464   4.764   4.278   6.785 -0.2038  0.4586  0.1251
13589SOL     OW41465   0.775   7.033   4.817 -0.0709  0.2333  0.1926
13589SOL    HW141466   0.730   7.090   4.753 -0.5497  0.1484  0.4518
13589SOL    HW241467   0.799   7.092   4.888  1.6192  0.5904 -0.6261
13590SOL     OW41468   1.730   7.429   6.163  0.4457 -0.4068 -0.5043
13590SOL    HW141469   1.757   7.520   6.177 -0.5525  0.0832 -1.5797
13590SOL    HW241470   1.802   7.377   6.198  0.6626  0.7836  0.8915
13591SOL     OW41471   2.581   5.713   3.295  0.3387  0.1503 -0.8969
13591SOL    HW141472   2.509   5.752   3.246  0.3342 -2.3440 -3.1415
13591SOL    HW241473   2.552   5.623   3.313  1.5888  0.0806  1.1237
13592SOL     OW41474   6.635   7.547   2.751 -0.1712  0.0922  0.3439
13592SOL    HW141475   6.589   7.604   2.813 -0.6651 -0.1208  0.1824
13592SOL    HW241476   6.573   7.537   2.678  0.4587  0.4564 -0.2506
13593SOL     OW41477   0.749   3.459   4.656  0.0572  0.7086 -0.0310
13593SOL    HW141478   0.708   3.480   4.571  0.1857  0.7188 -0.0901
13593SOL    HW241479   0.730   3.535   4.711 -1.9551 -0.2081  0.6543
13594SOL     OW41480   2.049   5.182   1.406 -0.3930  0.7936 -0.1941
13594SOL    HW141481   2.084   5.103   1.446 -0.2196  0.3189 -1.2542
13594SOL    HW241482   2.114   5.209   1.341 -0.3739  1.9030  0.2520
13595SOL     OW41483   5.984   0.795   2.511  0.4788 -0.1278  0.4388
13595SOL    HW141484   6.024   0.719   2.554  0.4624 -0.6089 -0.3793
13595SOL    HW241485   5.994   0.866   2.574  0.2958 -0.8600  1.3100
13596SOL     OW41486   7.157   1.615   6.456 -0.1222  0.4277 -0.2951
13596SOL    HW141487   7.233   1.656   6.415 -0.6922  0.7546 -1.0462
13596SOL    HW241488   7.184   1.524   6.469  0.9041  0.8596  0.7720
13597SOL     OW41489   2.903   5.985   0.065 -0.9922  0.4002 -0.1853
13597SOL    HW141490   2.956   5.929   0.122  0.1789 -0.9440 -2.4545
13597SOL    HW241491   2.943   6.071   0.073 -0.7265  0.1923  0.8707
13598SOL     OW41492   4.943   5.626   2.234 -0.5032  0.0145 -0.1594
13598SOL    HW141493   4.926   5.555   2.173 -1.4704 -0.1281  0.2496
13598SOL    HW241494   5.010   5.592   2.294  0.8301  0.3406 -1.4179
13599SOL     OW41495   2.615   6.449   1.956  0.1656 -0.3470 -0.1540
13599SOL    HW141496   2.573   6.449   1.869 -0.2474 -0.6212  0.0446
13599SOL    HW241497   2.558   6.396   2.010  0.1743  0.2091  0.4091
13600SOL     OW41498   1.582   5.385   6.709  0.3792 -0.0947 -0.2197
13600SOL    HW141499   1.568   5.345   6.623  0.6361  0.9246 -0.7490
13600SOL    HW241500   1.669   5.424   6.703  0.6465 -0.5128  0.7181
13601SOL     OW41501   0.689   0.178   3.021 -0.1815  0.1454 -0.0429
13601SOL    HW141502   0.712   0.107   3.081  3.8243  0.6030 -0.7874
13601SOL    HW241503   0.643   0.241   3.076  1.3954 -0.4208  2.0792
13602SOL     OW41504   4.860   4.085   1.584 -0.2069  0.2539 -0.2353
13602SOL    HW141505   4.917   4.032   1.529  1.3153  0.8627  0.7168
13602SOL    HW241506   4.774   4.044   1.575  0.8785 -2.3758  0.4190
13603SOL     OW41507   7.476   7.685   4.878 -0.2349 -0.5923  0.2939
13603SOL    HW141508   7.395   7.723   4.846 -0.0169  0.5391  1.0280
13603SOL    HW241509   7.485   7.603   4.829 -0.5474  0.4356 -1.5921
13604SOL     OW41510   2.297   4.735   4.421 -0.8357 -0.8400  0.2882
13604SOL    HW141511   2.388   4.730   4.391 -0.2985 -1.7201  1.8992
13604SOL    HW241512   2.261   4.812   4.377  0.8573 -0.1431  0.0395
13605SOL     OW41513   1.540   2.141   0.489  0.1651 -0.4098 -0.0558
13605SOL    HW141514   1.575   2.193   0.561  0.1788 -0.9110  0.3102
13605SOL    HW241515   1.617   2.114   0.438  0.0585  1.0988 -1.0851
13606SOL     OW41516   4.171   0.098   3.245 -0.1606 -0.1487 -0.2629
13606SOL    HW141517   4.202   0.183   3.213  2.5516 -1.4173 -1.3477
13606SOL    HW241518   4.085   0.087   3.205 -0.4164  1.8846 -0.3868
13607SOL     OW41519   5.810   3.281   3.348  0.0287  0.5168  0.6124
13607SOL    HW141520   5.780   3.210   3.291  1.2909  0.3588  0.1107
13607SOL    HW241521   5.815   3.241   3.435 -3.0305  1.0564  1.1765
13608SOL     OW41522   6.160   7.619   2.671 -0.0320 -0.1362  0.5915
13608SOL    HW141523   6.188   7.707   2.698 -0.7960 -0.1078  1.3499
13608SOL    HW241524   6.195   7.608   2.583  2.3368 -0.0928  1.4346
13609SOL     OW41525   6.984   7.782   5.274  0.5588 -0.0286  0.7964
13609SOL    HW141526   6.900   7.825   5.291  0.3155 -0.1544 -0.0575
13609SOL    HW241527   7.050   7.849   5.295  0.1778  0.8480 -0.7002
13610SOL     OW41528   0.618   5.264   7.649  0.4575 -0.1820  0.0186
13610SOL    HW141529   0.542   5.284   7.703  0.4994 -0.3481  0.1427
13610SOL    HW241530   0.644   5.348   7.612 -0.1495 -0.2205 -0.5110
13611SOL     OW41531   6.495   7.814   6.479  0.3544  0.5985 -0.3360
13611SOL    HW141532   6.412   7.791   6.435 -0.3251  0.2296  1.0817
13611SOL    HW241533   6.519   7.734   6.527  0.0387  1.5807  1.5161
13612SOL     OW41534   1.659   6.248   5.191  0.0414 -0.1694  0.4164
13612SOL    HW141535   1.654   6.181   5.259 -1.2094 -0.4515  0.0762
13612SOL    HW241536   1.749   6.280   5.196  0.2808 -0.9282  1.4817
13613SOL     OW41537   0.121   1.331   7.857 -0.1838  0.0837 -1.1995
13613SOL    HW141538   0.156   1.326   7.946 -3.4833 -1.0136  0.1848
13613SOL    HW241539   0.160   1.410   7.820  3.9051 -1.1870 -0.1061
13614SOL     OW41540   2.053   6.417   2.635  0.2142  0.1390  0.1771
13614SOL    HW141541   1.971   6.458   2.606  1.0003  0.9824 -0.9602
13614SOL    HW241542   2.119   6.486   2.626  1.3581 -1.0023 -0.5884
13615SOL     OW41543   1.597   0.863   0.411  0.0585  0.3026  0.1355
13615SOL    HW141544   1.672   0.815   0.374  1.1855  1.5409  0.7117
13615SOL    HW241545   1.522   0.834   0.359  1.2468  0.5003 -1.8038
13616SOL     OW41546   3.791   5.191   4.768  0.1719 -0.2079  0.1501
13616SOL    HW141547   3.745   5.189   4.852 -1.6888 -0.0003 -0.8082
13616SOL    HW241548   3.726   5.223   4.706  1.5411 -0.2356 -1.3668
13617SOL     OW41549   2.158   1.384   6.740  0.0784  0.3307  0.2673
13617SOL    HW141550   2.249   1.356   6.748  0.3621  0.7349 -1.2546
13617SOL    HW241551   2.142   1.389   6.645 -1.6086 -0.0000  0.5048
13618SOL     OW41552   1.827   0.217   4.857 -0.3724  0.0482 -0.3846
13618SOL    HW141553   1.798   0.188   4.771  3.0463 -1.3890 -1.2399
13618SOL    HW241554   1.921   0.232   4.846 -0.2501  2.2059  2.5298
13619SOL     OW41555   4.326   3.557   0.318 -0.6748  0.1724  0.0944
13619SOL    HW141556   4.336   3.618   0.390 -0.9956  1.4915 -0.9440
13619SOL    HW241557   4.408   3.563   0.269 -0.8118 -0.0274 -0.1670
13620SOL     OW41558   1.883   1.230   0.940 -0.2722  0.1085 -0.1340
13620SOL    HW141559   1.829   1.274   1.006 -0.6018 -0.6044  0.0803
13620SOL    HW241560   1.887   1.292   0.868  0.2009  0.9594  0.6001
13621SOL     OW41561   6.222   0.451   3.727 -0.0287 -0.5268  0.0600
13621SOL    HW141562   6.219   0.367   3.773  0.4178 -0.0986  0.8854
13621SOL    HW241563   6.142   0.452   3.674 -0.5791 -1.0087  0.8713
13622SOL     OW41564   3.687   0.536   5.622 -0.4947  0.1668 -0.2517
13622SOL    HW141565   3.641   0.613   5.657  3.5597  2.5372  0.5495
13622SOL    HW241566   3.665   0.536   5.529  0.8881  3.7211 -0.7500
13623SOL     OW41567   6.333   4.287   0.354 -0.6015 -0.7835  0.0413
13623SOL    HW141568   6.424   4.257   0.349 -0.3410  0.1668 -1.6887
13623SOL    HW241569   6.335   4.356   0.420 -0.2804 -1.4555  0.7462
13624SOL     OW41570   6.688   0.130   1.557  0.5298 -0.3723 -0.2807
13624SOL    HW141571   6.754   0.178   1.607 -0.1420  0.7184 -0.4027
13624SOL    HW241572   6.714   0.038   1.565  1.7101 -0.0216  0.1732
13625SOL     OW41573   3.175   1.468   1.753  0.2832  0.0805 -0.2350
13625SOL    HW141574   3.226   1.549   1.755 -1.5862  1.2924  1.0319
13625SOL    HW241575   3.091   1.494   1.715 -0.2794 -1.3286 -0.0015
13626SOL     OW41576   4.189   0.794   1.544  0.2375  0.2746  0.0005
13626SOL    HW141577   4.132   0.734   1.592 -0.8803  2.9134  2.2675
13626SOL    HW241578   4.136   0.873   1.531  2.3839  1.7201 -0.6086
13627SOL     OW41579   4.147   2.971   2.398  0.3405 -0.5926 -0.4939
13627SOL    HW141580   4.056   2.983   2.369  0.4572 -2.1558 -1.6541
13627SOL    HW241581   4.196   3.038   2.350  0.0235 -0.8823 -1.2471
13628SOL     OW41582   7.960   2.179   7.699 -0.4354  0.5244 -0.2545
13628SOL    HW141583   7.869   2.209   7.704 -0.5757  0.2372 -0.9284
13628SOL    HW241584   7.992   2.181   7.789 -1.0964  0.6728 -0.0218
13629SOL     OW41585   2.581   7.236   6.041  0.1503 -0.1713 -0.3599
13629SOL    HW141586   2.541   7.176   6.104  1.0345 -1.1737 -0.7352
13629SOL    HW241587   2.574   7.322   6.083 -0.9389 -0.5490  0.2815
13630SOL     OW41588   5.722   5.433   2.448 -0.0520 -0.4536 -0.5036
13630SOL    HW141589   5.723   5.497   2.519 -1.0491 -1.2100  0.2212
13630SOL    HW241590   5.723   5.486   2.368 -1.8020  0.5160  0.0682
13631SOL     OW41591   7.739   0.614   6.585 -0.1566  0.2499 -0.3367
13631SOL    HW141592   7.650   0.640   6.559 -0.4173  2.6773  2.4388
13631SOL    HW241593   7.725   0.544   6.649  0.1213 -1.0071 -1.6032
13632SOL     OW41594   1.940   0.314   3.956 -0.2359 -0.4473  0.5142
13632SOL    HW141595   1.924   0.381   3.889  0.0633 -1.3445 -0.4913
13632SOL    HW241596   2.035   0.310   3.963 -0.2731  0.6523  2.0802
13633SOL     OW41597   6.139   1.852   1.094  0.3038 -0.2377 -0.0246
13633SOL    HW141598   6.050   1.841   1.129  0.5515 -1.5621  0.2440
13633SOL    HW241599   6.140   1.941   1.059 -0.9405  0.0113  0.5105
13634SOL     OW41600   1.755   4.106   0.793 -0.2736  0.1972  0.2731
13634SOL    HW141601   1.678   4.057   0.820  0.6622 -0.8394  1.1537
13634SOL    HW241602   1.817   4.095   0.865  0.8540  0.6583 -0.5945
13635SOL     OW41603   2.412   3.961   1.992 -0.2926 -0.0089 -0.3908
13635SOL    HW141604   2.452   3.914   2.065 -0.1622 -0.6148 -0.8460
13635SOL    HW241605   2.459   3.930   1.915  0.5401  1.6666 -0.6188
13636SOL     OW41606   3.008   1.463   2.708  0.9500  0.5467 -0.1177
13636SOL    HW141607   3.054   1.380   2.703 -1.0113 -0.5595 -1.0419
13636SOL    HW241608   2.970   1.464   2.796  0.3392  0.0875 -0.3709
13637SOL     OW41609   6.281   5.179   6.686  0.4467  0.2215  0.3515
13637SOL    HW141610   6.205   5.223   6.722  0.8361  0.8386  0.4360
13637SOL    HW241611   6.335   5.250   6.650  0.4254 -0.3063 -0.7640
13638SOL     OW41612   5.989   1.797   0.235  0.3966 -0.7203 -0.4110
13638SOL    HW141613   6.076   1.813   0.199  0.6539  0.5635  0.6799
13638SOL    HW241614   5.932   1.858   0.189  0.6151  0.4656  0.8039
13639SOL     OW41615   2.850   7.866   7.764 -0.1523 -0.3659 -0.4719
13639SOL    HW141616   2.940   7.869   7.796 -0.4384  0.6791  0.2857
13639SOL    HW241617   2.844   7.938   7.702 -1.0945  1.1309  1.2700
13640SOL     OW41618   5.702   2.262   0.746 -0.2806 -0.3772  0.8981
13640SOL    HW141619   5.760   2.288   0.817  0.5135 -0.7375  0.4038
13640SOL    HW241620   5.684   2.170   0.762 -0.4015 -0.3631  0.8433
13641SOL     OW41621   0.225   0.232   3.808 -0.2548  0.1671  0.2456
13641SOL    HW141622   0.175   0.151   3.822 -0.0141  0.0978  0.6977
13641SOL    HW241623   0.272   0.246   3.890  2.4589 -1.1283 -0.9478
13642SOL     OW41624   3.866   4.458   2.515 -0.2518 -0.6343 -0.3652
13642SOL    HW141625   3.850   4.534   2.459 -1.4452 -0.5429  0.0938
13642SOL    HW241626   3.884   4.387   2.453  2.8643  0.3721 -0.7990
13643SOL     OW41627   5.032   7.964   0.490  0.4997 -0.5256 -0.3730
13643SOL    HW141628   5.073   7.878   0.495  0.3057 -0.6911 -1.4734
13643SOL    HW241629   4.968   7.964   0.561  0.6392 -1.2113 -0.2406
13644SOL     OW41630   4.045   7.626   5.144  0.1074  0.2211 -0.1883
13644SOL    HW141631   4.084   7.540   5.160 -1.5021 -0.6515 -0.7076
13644SOL    HW241632   4.045   7.669   5.229  0.6562 -0.4246  0.1387
13645SOL     OW41633   7.033   7.963   1.129  0.1673 -0.8202  0.2415
13645SOL    HW141634   7.077   8.015   1.197  1.0011 -3.6715  2.0576
13645SOL    HW241635   7.089   7.972   1.052  1.4152 -0.6844  1.1406
13646SOL     OW41636   3.360   1.059   5.618 -0.0784 -0.2608  0.4591
13646SOL    HW141637   3.455   1.069   5.611  0.0019 -1.2850 -0.0241
13646SOL    HW241638   3.339   0.988   5.558 -1.3315  0.8282 -0.4514
13647SOL     OW41639   6.059   5.626   2.639  0.0548 -0.3564  0.2086
13647SOL    HW141640   6.063   5.587   2.552 -0.1215 -0.7422  0.3756
13647SOL    HW241641   6.064   5.552   2.700 -0.0257 -0.1039  0.5262
13648SOL     OW41642   0.749   2.085   5.669  0.4992  0.6173  0.1974
13648SOL    HW141643   0.737   2.123   5.582 -0.7715  2.2058  1.0188
13648SOL    HW241644   0.711   2.149   5.729  0.9561 -0.6341  1.9079
13649SOL     OW41645   0.772   3.192   5.369  0.0760  0.1608  0.3009
13649SOL    HW141646   0.681   3.215   5.390  0.7962  1.9772  1.7095
13649SOL    HW241647   0.810   3.167   5.453  1.1883  0.6657 -0.0306
13650SOL     OW41648   6.553   0.146   7.656 -0.1190  0.0549  0.4050
13650SOL    HW141649   6.512   0.231   7.676 -0.4009 -0.0153  0.1338
13650SOL    HW241650   6.551   0.140   7.561 -1.3281 -0.8501  0.4657
13651SOL     OW41651   7.794   4.458   2.643 -0.1241  0.0973 -0.7524
13651SOL    HW141652   7.849   4.510   2.701 -1.0854  1.8882 -1.3763
13651SOL    HW241653   7.706   4.466   2.680 -0.4088 -0.4370 -1.2995
13652SOL     OW41654   4.095   6.518   2.781  0.0599  0.3140  0.9104
13652SOL    HW141655   4.114   6.425   2.779 -1.9335 -0.1750 -2.3972
13652SOL    HW241656   4.176   6.559   2.749 -0.1275 -0.6162 -0.8626
13653SOL     OW41657   1.243   3.073   0.456  0.3057 -0.1886 -0.0876
13653SOL    HW141658   1.180   3.086   0.526 -0.8190 -0.2078 -1.0688
13653SOL    HW241659   1.196   3.023   0.389  0.6390  1.5988 -1.7589
13654SOL     OW41660   2.176   5.182   5.396  0.0554 -0.0484 -0.0045
13654SOL    HW141661   2.123   5.196   5.317 -0.9729 -0.4614  0.5872
13654SOL    HW241662   2.145   5.249   5.458  2.9210  2.2991 -0.8699
13655SOL     OW41663   1.905   0.576   3.502  0.1993 -0.0321  0.4193
13655SOL    HW141664   1.968   0.647   3.490 -1.7310  1.8240  0.6049
13655SOL    HW241665   1.846   0.583   3.427 -1.5170  0.2725  1.7068
13656SOL     OW41666   6.242   5.601   6.423 -0.1506 -0.1029 -0.2134
13656SOL    HW141667   6.148   5.618   6.416  0.0742  0.9295 -1.0512
13656SOL    HW241668   6.256   5.579   6.515 -0.8421  2.3280  0.5550
13657SOL     OW41669   4.047   3.800   0.650  0.0895  0.0644  0.3089
13657SOL    HW141670   4.035   3.894   0.666 -1.0522 -0.0887  0.4208
13657SOL    HW241671   3.962   3.761   0.671  0.8357 -1.1383  1.2771
13658SOL     OW41672   4.960   5.390   4.554  0.0589  0.3537 -0.6329
13658SOL    HW141673   4.897   5.322   4.577 -2.5986  1.8240 -2.9229
13658SOL    HW241674   5.046   5.350   4.570 -1.3707 -2.5204  0.6240
13659SOL     OW41675   2.965   0.295   4.818 -0.4333  0.2270 -0.1293
13659SOL    HW141676   2.927   0.342   4.892 -0.5597 -1.2274  0.7683
13659SOL    HW241677   2.892   0.280   4.759 -0.5909  0.2935  0.0464
13660SOL     OW41678   6.684   4.270   7.456 -0.1318  0.0863  0.0788
13660SOL    HW141679   6.589   4.260   7.452 -0.2592  1.4496 -0.8217
13660SOL    HW241680   6.698   4.364   7.448  1.2254  0.0902  1.9501
13661SOL     OW41681   2.472   3.662   3.185  0.1342  0.4249  0.4115
13661SOL    HW141682   2.441   3.734   3.241  0.9146  0.9613  0.1740
13661SOL    HW241683   2.393   3.625   3.147 -0.3569  0.5262  1.3023
13662SOL     OW41684   4.915   7.501   7.488 -0.3381 -0.8011 -0.1290
13662SOL    HW141685   4.934   7.554   7.411 -0.1927  1.0714  1.1423
13662SOL    HW241686   4.986   7.438   7.493  0.5905  0.1939 -0.5664
13663SOL     OW41687   2.017   1.588   0.924 -0.1778  0.0842 -0.2381
13663SOL    HW141688   1.927   1.556   0.919  0.3302 -1.7658  1.2995
13663SOL    HW241689   2.070   1.517   0.888  0.6973  1.2430 -1.3364
13664SOL     OW41690   2.143   7.857   3.864 -0.4716  0.1366 -0.1085
13664SOL    HW141691   2.085   7.857   3.788  0.7499 -0.6173 -1.0981
13664SOL    HW241692   2.106   7.791   3.923  0.5937 -2.1196 -1.7879
13665SOL     OW41693   0.601   0.118   2.173 -0.1321  0.5674 -0.1704
13665SOL    HW141694   0.600   0.190   2.110 -0.7081 -0.0936 -0.9362
13665SOL    HW241695   0.514   0.120   2.213  0.2193  0.9603  0.5760
13666SOL     OW41696   2.726   6.692   2.411 -0.4216 -0.3212 -0.0704
13666SOL    HW141697   2.805   6.639   2.422 -0.2944  0.1784  1.7044
13666SOL    HW241698   2.659   6.629   2.384 -0.1406 -1.3346  1.4450
13667SOL     OW41699   0.752   6.975   7.189 -0.3793 -0.6234 -0.0647
13667SOL    HW141700   0.820   7.022   7.140 -0.0657 -2.0778 -1.0849
13667SOL    HW241701   0.773   6.992   7.280  0.0446  0.7466 -0.3878
13668SOL     OW41702   7.354   1.618   1.526  0.5748  0.1305  0.1785
13668SOL    HW141703   7.308   1.701   1.511 -2.9523 -1.0144  3.1814
13668SOL    HW241704   7.376   1.587   1.438  1.0610  3.6446 -1.0898
13669SOL     OW41705   3.327   1.765   2.364 -0.3834  0.2484  0.0183
13669SOL    HW141706   3.243   1.741   2.404 -0.0340  0.8735  1.1838
13669SOL    HW241707   3.305   1.834   2.302 -0.7721  0.2183  0.1212
13670SOL     OW41708   6.426   5.092   7.345 -0.5462 -0.0338  0.6692
13670SOL    HW141709   6.342   5.067   7.307  0.0795 -0.6723 -0.3572
13670SOL    HW241710   6.419   5.186   7.359 -1.3227 -0.0252  0.2878
13671SOL     OW41711   4.772   1.099   2.375  1.1921  1.0240  0.6330
13671SOL    HW141712   4.704   1.096   2.442 -0.7490  0.2542 -1.2559
13671SOL    HW241713   4.779   1.192   2.352  2.8430  1.5032  2.7195
13672SOL     OW41714   0.250   4.003   3.159 -0.3046  0.1682 -0.2668
13672SOL    HW141715   0.242   3.909   3.178 -1.1164  0.1645 -0.5803
13672SOL    HW241716   0.265   4.043   3.245  0.6960 -0.2993 -0.2065
13673SOL     OW41717   0.025   2.652   1.534  0.0709 -0.0729 -0.0651
13673SOL    HW141718   0.010   2.747   1.532 -0.6616 -0.1272  1.5753
13673SOL    HW241719   0.117   2.643   1.559 -0.2718  0.2134  1.3650
13674SOL     OW41720   3.171   1.466   6.324 -0.6831  0.0345 -0.2264
13674SOL    HW141721   3.101   1.401   6.316 -1.2601  0.1513  2.7201
13674SOL    HW241722   3.252   1.415   6.321 -1.1330 -1.0536  2.7094
13675SOL     OW41723   7.704   6.644   6.542 -0.3254  0.6243 -0.3881
13675SOL    HW141724   7.692   6.550   6.530  0.4288  0.2145  1.7043
13675SOL    HW241725   7.763   6.670   6.471 -0.9200 -0.3658 -1.2642
13676SOL     OW41726   3.391   5.793   5.256  0.2938 -0.6839  0.0985
13676SOL    HW141727   3.406   5.870   5.202  0.9725 -0.8943 -0.0213
13676SOL    HW241728   3.297   5.776   5.249  0.2455 -0.2295 -0.3606
13677SOL     OW41729   1.329   4.928   2.374  0.0110 -0.1713 -0.4661
13677SOL    HW141730   1.283   4.900   2.453 -1.0903 -0.2726 -1.1297
13677SOL    HW241731   1.341   5.022   2.385 -1.8962  0.1694 -1.0318
13678SOL     OW41732   3.215   2.277   4.685  0.1334  0.2540 -0.7213
13678SOL    HW141733   3.148   2.215   4.714 -0.3170  0.4824 -1.2480
13678SOL    HW241734   3.253   2.236   4.607  0.3854  0.2769 -0.6113
13679SOL     OW41735   1.530   7.382   3.138 -0.5810  0.3048 -0.1688
13679SOL    HW141736   1.616   7.358   3.105  0.0265  1.3656  0.5975
13679SOL    HW241737   1.469   7.337   3.079  0.4676  0.9845 -1.8492
13680SOL     OW41738   0.521   3.197   5.175 -0.3148 -0.9538 -0.1966
13680SOL    HW141739   0.611   3.229   5.170  0.4800 -3.0937 -0.6298
13680SOL    HW241740   0.503   3.190   5.269 -0.6249  0.9400 -0.0846
13681SOL     OW41741   6.174   0.959   5.727  0.0413  0.7362 -0.0404
13681SOL    HW141742   6.102   0.899   5.748 -1.3547  2.4891  0.4006
13681SOL    HW241743   6.239   0.903   5.684 -0.4162 -1.4302  1.8603
13682SOL     OW41744   2.553   2.920   2.326  0.7430  0.2074 -0.3056
13682SOL    HW141745   2.504   2.912   2.408  0.5300  1.5915 -0.2729
13682SOL    HW241746   2.625   2.980   2.347 -0.9963  3.0327 -1.8120
13683SOL     OW41747   5.523   1.995   6.992  0.1875 -0.6876  0.4760
13683SOL    HW141748   5.445   2.021   6.942  1.9288  1.7458 -1.1926
13683SOL    HW241749   5.554   1.916   6.948  0.9467  0.6846 -1.6129
13684SOL     OW41750   5.569   3.901   5.529 -0.4542  0.5868 -0.0125
13684SOL    HW141751   5.617   3.921   5.610 -0.0068  1.4610 -0.4816
13684SOL    HW241752   5.591   3.973   5.470 -0.0706 -0.4982 -1.2302
13685SOL     OW41753   0.615   7.399   3.560  0.6702  0.4760 -0.0940
13685SOL    HW141754   0.673   7.426   3.488  0.4628 -0.5895 -0.6687
13685SOL    HW241755   0.542   7.461   3.557  1.1486  1.0487 -0.1592
13686SOL     OW41756   1.233   1.921   4.928  0.2704  0.0028  0.1695
13686SOL    HW141757   1.190   1.921   5.014  0.7689  0.9116  0.4286
13686SOL    HW241758   1.319   1.882   4.944  0.3820  0.2188  0.0978
13687SOL     OW41759   5.449   3.903   6.827  0.3033  0.2651 -0.9036
13687SOL    HW141760   5.529   3.858   6.798 -0.1041 -0.5857 -0.7450
13687SOL    HW241761   5.476   3.951   6.905 -0.0434 -2.8601  1.3559
13688SOL     OW41762   1.619   7.600   7.552 -0.4549  0.0738 -0.3582
13688SOL    HW141763   1.654   7.689   7.557 -0.8419  0.2036  0.0862
13688SOL    HW241764   1.680   7.548   7.604  0.0696 -0.0272 -1.0460
13689SOL     OW41765   3.402   4.814   6.397 -0.0950 -0.1826  0.2913
13689SOL    HW141766   3.387   4.726   6.363  1.4332 -0.6375  0.6988
13689SOL    HW241767   3.325   4.864   6.371  0.0517 -1.0406 -1.9840
13690SOL     OW41768   5.126   2.584   2.721 -0.1280 -0.1091  0.0898
13690SOL    HW141769   5.055   2.601   2.783 -0.7717 -0.3051 -0.5777
13690SOL    HW241770   5.138   2.668   2.676 -0.9524 -0.4553 -0.8133
13691SOL     OW41771   5.567   4.950   4.815 -0.6584  0.3314  0.2942
13691SOL    HW141772   5.498   4.890   4.789 -2.7264  2.0640  1.4963
13691SOL    HW241773   5.548   5.031   4.768 -0.3437  1.3085  1.7858
13692SOL     OW41774   4.837   7.664   3.816  0.8947 -0.0550 -0.5329
13692SOL    HW141775   4.932   7.674   3.813  0.9776  0.2051  1.6671
13692SOL    HW241776   4.819   7.631   3.904 -0.9249 -1.8710 -1.5048
13693SOL     OW41777   6.126   3.863   2.865 -0.4939  0.3095 -0.1437
13693SOL    HW141778   6.074   3.942   2.878 -0.7332  0.3312 -1.1844
13693SOL    HW241779   6.074   3.793   2.905  0.9372  1.0095  3.2577
13694SOL     OW41780   3.067   5.296   0.830  0.4420  0.0289 -0.4665
13694SOL    HW141781   3.010   5.219   0.831  0.2395  0.1264  1.6005
13694SOL    HW241782   3.155   5.261   0.846  0.4365  0.1614 -0.1332
13695SOL     OW41783   1.650   2.062   6.932 -0.1363  0.0231  0.1065
13695SOL    HW141784   1.613   2.116   7.002  1.2871 -1.3144  1.9835
13695SOL    HW241785   1.729   2.109   6.905 -0.0333 -0.0672  0.2510
13696SOL     OW41786   2.633   7.359   3.546  0.1503  0.0890 -0.4382
13696SOL    HW141787   2.650   7.268   3.520 -0.8909 -0.2894  0.1570
13696SOL    HW241788   2.693   7.410   3.492 -0.4498 -0.8170 -2.0508
13697SOL     OW41789   0.913   4.636   5.552  0.1931  0.3137  0.7271
13697SOL    HW141790   0.828   4.592   5.560  0.9023 -1.0489  1.0389
13697SOL    HW241791   0.962   4.581   5.491  1.0137  0.8564  0.8943
13698SOL     OW41792   7.181   5.389   6.682  0.3309  0.0944 -0.2165
13698SOL    HW141793   7.090   5.398   6.653  0.3568  1.6541  0.1068
13698SOL    HW241794   7.212   5.309   6.638 -1.2107 -0.5340 -0.2369
13699SOL     OW41795   6.887   4.542   3.449 -0.4040  0.3934  0.3219
13699SOL    HW141796   6.822   4.497   3.395  0.2214  0.4003 -0.4704
13699SOL    HW241797   6.929   4.603   3.388  0.3213  0.4001  0.8236
13700SOL     OW41798   7.205   7.410   2.168 -0.4096  0.4842 -0.3665
13700SOL    HW141799   7.219   7.425   2.075 -0.6290 -1.3079 -0.7300
13700SOL    HW241800   7.219   7.496   2.209  1.6396  0.8891 -1.7950
13701SOL     OW41801   7.284   0.228   6.556 -0.4862  0.1634  0.1580
13701SOL    HW141802   7.263   0.149   6.507  2.3217  0.3248 -1.4892
13701SOL    HW241803   7.353   0.202   6.617  0.6995  1.3600 -0.6220
13702SOL     OW41804   2.893   4.791   4.048  0.6960  0.2749 -0.1321
13702SOL    HW141805   2.898   4.866   4.107 -0.8280 -0.1489  0.5562
13702SOL    HW241806   2.959   4.811   3.981  0.4002  2.1864  0.0661
13703SOL     OW41807   3.312   6.629   3.220 -0.2316  0.3946 -0.7560
13703SOL    HW141808   3.383   6.679   3.260 -0.2265 -0.1053 -0.1236
13703SOL    HW241809   3.238   6.641   3.279 -0.5664  0.5990 -1.2129
13704SOL     OW41810   3.551   2.367   3.549 -0.7469 -0.0473  0.4148
13704SOL    HW141811   3.514   2.416   3.623 -2.7413  1.7481 -1.6222
13704SOL    HW241812   3.643   2.395   3.546 -0.9806  0.9066  1.3667
13705SOL     OW41813   1.625   3.564   3.826 -0.8827 -0.2922 -0.3506
13705SOL    HW141814   1.592   3.482   3.864  0.2983 -0.4080  0.4739
13705SOL    HW241815   1.717   3.567   3.852 -0.4991  0.5222 -1.7308
13706SOL     OW41816   0.614   3.221   6.022  0.7818 -0.1005 -0.4108
13706SOL    HW141817   0.609   3.139   6.072 -1.4354  1.0377  1.4479
13706SOL    HW241818   0.548   3.211   5.954  1.9452 -0.5930 -1.5160
13707SOL     OW41819   3.597   0.462   4.729 -0.3389  0.1818 -0.4342
13707SOL    HW141820   3.537   0.507   4.668 -0.7189  0.2116 -0.0432
13707SOL    HW241821   3.542   0.441   4.805  0.3281  0.8767  0.2522
13708SOL     OW41822   1.440   5.290   1.125 -0.1443 -0.6597 -0.1039
13708SOL    HW141823   1.382   5.231   1.172  1.3134 -1.8599  0.2459
13708SOL    HW241824   1.517   5.237   1.104 -0.1362  0.2155 -2.6315
13709SOL     OW41825   2.607   6.569   4.889 -0.4716  0.0762  0.1555
13709SOL    HW141826   2.642   6.622   4.960 -0.5459  2.2287 -1.3009
13709SOL    HW241827   2.519   6.545   4.917  0.5181 -1.6900  1.9980
13710SOL     OW41828   2.253   3.760   2.813  0.2585 -0.1422 -0.0861
13710SOL    HW141829   2.300   3.805   2.743  1.8183 -0.2352  0.8626
13710SOL    HW241830   2.255   3.667   2.788  2.5855 -0.4469  0.9969
13711SOL     OW41831   2.221   7.287   4.888  0.1436  0.2445 -0.5006
13711SOL    HW141832   2.290   7.221   4.889  1.9449  2.0204 -1.2395
13711SOL    HW241833   2.144   7.240   4.857  0.9665 -1.8180  0.4011
13712SOL     OW41834   0.153   0.212   4.414  0.2125 -0.2103  0.0055
13712SOL    HW141835   0.248   0.225   4.416  0.7526 -3.2310  0.2937
13712SOL    HW241836   0.139   0.152   4.340 -1.0708 -1.9386  1.5620
13713SOL     OW41837   2.354   5.212   2.891 -0.2567  0.3448  0.4730
13713SOL    HW141838   2.437   5.189   2.932  0.0902  1.7609  0.6021
13713SOL    HW241839   2.288   5.162   2.940  0.4729 -0.5373  0.5725
13714SOL     OW41840   2.132   5.162   6.135 -0.8143  0.4601 -0.4069
13714SOL    HW141841   2.095   5.117   6.060 -0.5034 -1.1057  0.3262
13714SOL    HW241842   2.078   5.240   6.146 -2.2567 -0.4367 -0.9102
13715SOL     OW41843   3.071   1.950   2.403  0.0243  0.4581 -0.1367
13715SOL    HW141844   2.997   1.890   2.392  0.4431 -0.0146 -0.4054
13715SOL    HW241845   3.104   1.932   2.491  0.2486  0.1795 -0.2771
13716SOL     OW41846   5.265   0.191   7.385 -0.4255 -0.2707 -0.6526
13716SOL    HW141847   5.299   0.204   7.297 -0.1238  0.9285 -0.3815
13716SOL    HW241848   5.199   0.259   7.396  0.2728  0.2815  0.3881
13717SOL     OW41849   3.871   7.834   6.091  0.0813  0.0307  0.3467
13717SOL    HW141850   3.958   7.825   6.129  0.3967  1.8791  0.1215
13717SOL    HW241851   3.883   7.892   6.016 -1.0164 -1.2721 -0.9205
13718SOL     OW41852   1.606   1.844   4.531 -0.5942  0.4034  0.1353
13718SOL    HW141853   1.566   1.783   4.593 -2.9195  0.7648 -0.9067
13718SOL    HW241854   1.589   1.931   4.567 -0.4125  0.5563 -0.1422
13719SOL     OW41855   6.399   0.944   6.406  0.4940 -0.2427  0.6068
13719SOL    HW141856   6.423   0.855   6.379  1.2957  0.1664 -0.0600
13719SOL    HW241857   6.413   0.945   6.500  5.0979  0.4697  0.1691
13720SOL     OW41858   6.781   4.744   7.766  0.2915 -0.3906  0.2872
13720SOL    HW141859   6.798   4.730   7.859  1.9064 -0.4007  0.0137
13720SOL    HW241860   6.835   4.679   7.722  0.6006  0.5094 -0.7003
13721SOL     OW41861   4.041   7.510   3.694 -0.0690  0.2726  0.0106
13721SOL    HW141862   3.987   7.577   3.650  1.6471  0.5157 -1.8994
13721SOL    HW241863   4.124   7.555   3.711  0.0159 -0.4733  1.6760
13722SOL     OW41864   0.883   3.352   1.412 -0.3869  0.4456  0.0432
13722SOL    HW141865   0.863   3.312   1.496 -0.2706  0.4270  0.0617
13722SOL    HW241866   0.955   3.412   1.430 -0.5012  0.5992 -0.0012
13723SOL     OW41867   2.102   0.216   5.797  0.1335  0.4531  0.6548
13723SOL    HW141868   2.087   0.144   5.735  1.6787  0.9011 -0.2952
13723SOL    HW241869   2.190   0.247   5.776  0.7030  0.6595  3.0676
13724SOL     OW41870   3.990   2.609   7.636 -0.0831 -0.4535  0.7045
13724SOL    HW141871   4.049   2.581   7.566 -0.5930  0.5617 -0.1520
13724SOL    HW241872   3.983   2.532   7.693  1.3155 -0.8994  0.3222
13725SOL     OW41873   2.749   5.405   5.853 -0.7083 -0.0094  0.7922
13725SOL    HW141874   2.690   5.404   5.928 -0.0336  1.2001  1.3714
13725SOL    HW241875   2.768   5.313   5.836 -1.5064 -0.3351  1.5937
13726SOL     OW41876   5.028   2.272   0.362 -0.6865 -0.3671  0.0737
13726SOL    HW141877   5.074   2.349   0.326 -1.2715  0.4319  0.9805
13726SOL    HW241878   5.062   2.264   0.451 -0.5836 -1.2167 -0.0374
13727SOL     OW41879   3.410   3.748   7.664 -0.2205  0.5531 -0.2007
13727SOL    HW141880   3.504   3.732   7.662 -0.5388 -1.4844 -1.2232
13727SOL    HW241881   3.397   3.809   7.737  1.7150 -0.1951  0.8225
13728SOL     OW41882   1.668   0.929   6.202  0.4152 -0.9511 -0.1316
13728SOL    HW141883   1.712   0.850   6.170  1.9469 -0.1609 -0.1004
13728SOL    HW241884   1.625   0.965   6.125  1.3620 -0.7923 -0.6059
13729SOL     OW41885   3.684   6.605   5.295  0.3024 -0.0260  0.1819
13729SOL    HW141886   3.596   6.620   5.261  0.8560  0.6204 -1.0151
13729SOL    HW241887   3.669   6.566   5.382 -1.1545 -0.7748 -0.3540
13730SOL     OW41888   2.235   0.543   2.676  0.3124  0.3112 -0.6454
13730SOL    HW141889   2.140   0.557   2.682  0.0512 -1.5955  0.8856
13730SOL    HW241890   2.244   0.454   2.642  1.5909  0.6138 -1.1687
13731SOL     OW41891   4.870   6.003   5.998 -0.3787  0.1884 -0.5766
13731SOL    HW141892   4.806   6.007   6.069  0.1486 -1.9719  0.0878
13731SOL    HW241893   4.921   5.924   6.016  2.5775  1.8536 -1.0113
13732SOL     OW41894   7.541   6.105   4.942  0.6184 -0.1028 -0.4922
13732SOL    HW141895   7.629   6.070   4.952  1.1482  0.9081 -1.4855
13732SOL    HW241896   7.487   6.029   4.919  1.3475 -0.6097 -0.5484
13733SOL     OW41897   7.009   5.288   4.444 -0.4119 -0.1401 -0.3143
13733SOL    HW141898   7.052   5.369   4.471 -2.5866  1.3616 -1.0595
13733SOL    HW241899   7.071   5.247   4.383  0.7157  0.9690  0.0488
13734SOL     OW41900   6.438   3.225   7.344  0.2310  0.7134 -0.1661
13734SOL    HW141901   6.432   3.201   7.252 -0.1207  0.6006 -0.1136
13734SOL    HW241902   6.421   3.144   7.391  0.6960  0.7077 -0.0005
13735SOL     OW41903   7.883   5.430   0.737  0.4016 -0.3601  0.2563
13735SOL    HW141904   7.845   5.511   0.770  1.8182 -0.6800  2.9223
13735SOL    HW241905   7.947   5.458   0.672 -0.1915  0.5255  0.0383
13736SOL     OW41906   6.007   6.410   0.671  0.2630 -0.4175  0.3011
13736SOL    HW141907   6.038   6.321   0.684  0.0998 -0.4812  0.2575
13736SOL    HW241908   5.971   6.436   0.756  0.0880 -0.4824  0.2480
13737SOL     OW41909   5.918   4.029   2.865 -0.4323  0.0832  0.3569
13737SOL    HW141910   5.966   4.105   2.831 -1.0943 -0.1610 -1.2079
13737SOL    HW241911   5.862   4.065   2.934  0.2312  0.7773  0.5446
13738SOL     OW41912   6.798   6.111   6.848  0.1143  0.1537 -0.4951
13738SOL    HW141913   6.810   6.028   6.892  1.5665  0.4774 -0.2335
13738SOL    HW241914   6.761   6.088   6.762 -0.0821 -0.6944 -0.1866
13739SOL     OW41915   4.415   4.178   6.427  0.3366  0.1279  0.7030
13739SOL    HW141916   4.389   4.151   6.339 -0.3074 -1.6252  1.3811
13739SOL    HW241917   4.504   4.143   6.437 -0.0848 -0.8583  1.1884
13740SOL     OW41918   4.338   5.184   4.647  0.1631 -0.1232  0.1242
13740SOL    HW141919   4.360   5.111   4.590  1.3998 -0.0137  0.4230
13740SOL    HW241920   4.405   5.250   4.628 -0.5522  0.6792  0.3201
13741SOL     OW41921   6.146   0.333   0.045 -0.0025 -0.0326 -0.1785
13741SOL    HW141922   6.063   0.353   0.089  0.5896 -0.2282  1.0849
13741SOL    HW241923   6.144   0.238   0.034  0.5161 -0.1817  0.8775
13742SOL     OW41924   2.434   6.784   1.878  0.2324 -0.1318  0.2610
13742SOL    HW141925   2.346   6.770   1.914  0.1027  0.8159  0.3317
13742SOL    HW241926   2.419   6.834   1.798  0.6828 -0.3669  0.0267
13743SOL     OW41927   7.703   1.648   6.630 -0.3624  0.2731 -0.8660
13743SOL    HW141928   7.782   1.603   6.600 -0.7691  0.6258 -2.5609
13743SOL    HW241929   7.735   1.715   6.691  0.3960 -1.1197  0.3443
13744SOL     OW41930   1.360   3.527   5.815  0.6250 -0.3348  0.6621
13744SOL    HW141931   1.326   3.460   5.755 -2.1536  1.0058  0.5554
13744SOL    HW241932   1.440   3.559   5.772 -0.7650 -0.0538 -1.9550
13745SOL     OW41933   3.299   2.998   1.330  0.2843 -0.3366 -0.0591
13745SOL    HW141934   3.248   2.925   1.293  0.5719 -0.6145  0.0808
13745SOL    HW241935   3.249   3.024   1.408 -0.7407  0.7673 -1.0377
13746SOL     OW41936   4.202   0.157   2.586  0.0996  0.5352 -0.0807
13746SOL    HW141937   4.127   0.098   2.595 -0.3647  1.0222 -0.7345
13746SOL    HW241938   4.200   0.186   2.495  0.4346  1.4151  0.1816
13747SOL     OW41939   0.695   2.294   0.350  0.7508  0.5177  0.6871
13747SOL    HW141940   0.768   2.232   0.344  0.5598  0.3296  0.2652
13747SOL    HW241941   0.673   2.296   0.443  0.4436 -0.4247  0.6455
13748SOL     OW41942   2.180   4.885   5.160 -0.4388 -0.1716 -0.9373
13748SOL    HW141943   2.273   4.876   5.138 -0.4050  1.2970 -1.4967
13748SOL    HW241944   2.137   4.815   5.111  0.2501 -0.1482 -1.5948
13749SOL     OW41945   6.088   5.630   3.668 -0.2555  1.1647  0.1999
13749SOL    HW141946   6.182   5.615   3.676 -0.2173  0.3518 -1.4763
13749SOL    HW241947   6.080   5.696   3.599 -0.9676 -0.1303 -1.0055
13750SOL     OW41948   2.277   5.873   0.758  0.5429 -0.5052  0.0453
13750SOL    HW141949   2.323   5.948   0.718  1.9514 -1.3722 -0.0290
13750SOL    HW241950   2.329   5.797   0.733  0.2920 -1.3068  1.8018
13751SOL     OW41951   2.591   6.057   5.192  0.4113  0.2921 -0.2898
13751SOL    HW141952   2.596   6.152   5.179  0.9860  0.3929  0.5474
13751SOL    HW241953   2.650   6.041   5.267 -0.0112 -0.6639 -0.1588
13752SOL     OW41954   7.711   0.298   3.533  0.1817  0.1159 -0.2304
13752SOL    HW141955   7.764   0.249   3.596 -1.9471 -0.1330  1.4629
13752SOL    HW241956   7.622   0.266   3.546 -0.3389 -0.2260 -3.6857
13753SOL     OW41957   3.777   0.894   0.463  0.3200  0.0081 -0.1209
13753SOL    HW141958   3.749   0.839   0.536 -0.9446 -0.5446 -1.0056
13753SOL    HW241959   3.762   0.983   0.494  0.1192 -0.2113  0.4272
13754SOL     OW41960   2.009   1.046   0.818 -0.1902 -0.5681  0.4588
13754SOL    HW141961   1.954   1.084   0.886 -0.3684 -1.3736  0.7745
13754SOL    HW241962   1.953   0.981   0.775  0.3845 -1.1059  0.5142
13755SOL     OW41963   6.387   0.323   7.407  0.1988  0.3163  0.8703
13755SOL    HW141964   6.339   0.282   7.479  1.6634  0.6025  2.0720
13755SOL    HW241965   6.442   0.254   7.371  0.1464  0.3974  0.6299
13756SOL     OW41966   5.053   6.771   7.887 -0.7168 -0.3792  0.1231
13756SOL    HW141967   5.113   6.722   7.942 -0.5436  1.0538  1.2685
13756SOL    HW241968   4.979   6.791   7.944 -0.2859  1.6201  0.0678
13757SOL     OW41969   1.648   0.979   6.473  1.2577  0.0670 -0.0741
13757SOL    HW141970   1.707   0.931   6.414  1.5426 -0.6505  0.7853
13757SOL    HW241971   1.632   0.919   6.545 -0.8073  0.1088 -0.4364
13758SOL     OW41972   7.846   1.781   5.744  0.0763 -0.4279  0.0896
13758SOL    HW141973   7.829   1.687   5.741 -0.3818 -0.3402 -2.2644
13758SOL    HW241974   7.761   1.822   5.729  0.0433  0.4495  2.2915
13759SOL     OW41975   2.137   4.134   4.765  0.1630  0.0973  0.5632
13759SOL    HW141976   2.103   4.205   4.820  2.0714  1.0304  0.6128
13759SOL    HW241977   2.152   4.175   4.680 -1.0273 -0.8921 -0.1556
13760SOL     OW41978   4.415   3.805   6.564 -0.4787 -0.1092 -0.2464
13760SOL    HW141979   4.327   3.840   6.552  0.1975  1.9075  0.3475
13760SOL    HW241980   4.454   3.858   6.634  1.2907 -0.7939 -0.6402
13761SOL     OW41981   4.931   6.717   2.845 -0.3696 -1.2072 -0.2778
13761SOL    HW141982   4.855   6.758   2.886  0.2121  0.6514 -0.9730
13761SOL    HW241983   4.961   6.780   2.780  1.6059 -2.0174 -0.2275
13762SOL     OW41984   6.672   5.550   5.848  0.2310  0.8522 -0.5990
13762SOL    HW141985   6.670   5.457   5.868  1.0058  1.1563  1.0590
13762SOL    HW241986   6.693   5.592   5.931  1.3557  2.4094 -1.6061
13763SOL     OW41987   6.534   1.691   7.315  0.0590 -0.5655  0.4716
13763SOL    HW141988   6.626   1.708   7.295  0.0812 -1.6522 -0.4513
13763SOL    HW241989   6.487   1.758   7.265  0.2607 -1.4816 -1.0093
13764SOL     OW41990   2.232   4.692   6.275  0.7985 -0.0388 -0.0205
13764SOL    HW141991   2.224   4.775   6.323  0.6287  0.6233 -1.1556
13764SOL    HW241992   2.158   4.693   6.214 -0.5096 -2.0544  1.4116
13765SOL     OW41993   4.513   4.984   1.556 -0.3245  0.7670 -0.4435
13765SOL    HW141994   4.550   4.940   1.480  1.3962  0.7018  0.3636
13765SOL    HW241995   4.470   4.914   1.605  0.2523  0.4307 -0.4034
13766SOL     OW41996   6.704   2.087   7.603  1.2488 -0.4262  0.2698
13766SOL    HW141997   6.785   2.092   7.553 -0.1725 -1.7346 -2.4208
13766SOL    HW241998   6.646   2.150   7.560  0.3863 -0.5724  1.1852
13767SOL     OW41999   6.421   1.467   6.746  0.2861 -0.3048 -0.1073
13767SOL    HW142000   6.367   1.546   6.745 -1.1107 -1.1624  1.4990
13767SOL    HW242001   6.510   1.499   6.762 -0.4316  0.9220  1.8254
13768SOL     OW42002   3.476   0.247   6.395 -0.9590  0.3303  0.6643
13768SOL    HW142003   3.399   0.257   6.451 -2.3260  3.0914 -1.4165
13768SOL    HW242004   3.445   0.191   6.323 -1.0927  1.3639 -0.1229
13769SOL     OW42005   1.952   4.303   4.119  0.0467  0.1350  0.6375
13769SOL    HW142006   2.040   4.340   4.121  0.3260 -0.5290  1.1734
13769SOL    HW242007   1.902   4.356   4.181 -0.4306  1.6513 -0.9459
13770SOL     OW42008   0.827   4.846   3.923 -0.3282  0.2291 -0.7933
13770SOL    HW142009   0.748   4.896   3.942 -1.0401 -0.7622 -1.0105
13770SOL    HW242010   0.887   4.867   3.994 -1.7563 -0.9725  0.8771
13771SOL     OW42011   0.421   4.597   3.168 -0.1753 -0.4342 -0.0132
13771SOL    HW142012   0.381   4.599   3.255 -1.6511 -1.9454 -0.5915
13771SOL    HW242013   0.475   4.518   3.169 -1.2230 -1.1876 -0.8507
13772SOL     OW42014   6.871   5.578   2.686 -0.2270 -0.3985 -0.4251
13772SOL    HW142015   6.794   5.568   2.743  0.9486 -0.6213  1.1682
13772SOL    HW242016   6.835   5.613   2.604 -2.1935 -1.6481 -0.1693
13773SOL     OW42017   6.642   5.343   1.944  0.8028 -0.2679 -0.1860
13773SOL    HW142018   6.722   5.340   1.892  0.3841 -2.7105 -0.8071
13773SOL    HW242019   6.641   5.259   1.990 -0.3907  0.5809  1.3966
13774SOL     OW42020   2.110   6.646   0.787  0.5625 -0.6816 -0.6755
13774SOL    HW142021   2.027   6.669   0.745  0.9176  0.7705 -0.6209
13774SOL    HW242022   2.134   6.562   0.748  0.1772 -0.0538 -2.3437
13775SOL     OW42023   4.099   2.420   3.322  0.2636  0.9924 -0.7446
13775SOL    HW142024   4.142   2.336   3.302 -0.9458  0.4256 -1.0822
13775SOL    HW242025   4.148   2.455   3.396  1.0782  0.2037 -0.8923
13776SOL     OW42026   0.495   7.312   4.093  0.6073  0.1134 -0.1743
13776SOL    HW142027   0.553   7.257   4.145 -0.6101 -1.2406 -0.1804
13776SOL    HW242028   0.474   7.259   4.016  0.4128  1.1089 -0.8250
13777SOL     OW42029   1.704   7.566   7.026 -0.3274  0.3849 -0.4553
13777SOL    HW142030   1.657   7.545   7.106  0.0679 -0.4007 -0.4158
13777SOL    HW242031   1.744   7.651   7.042  0.9211 -0.3806  0.7366
13778SOL     OW42032   2.454   7.895   1.846  0.2953 -0.6768 -0.1719
13778SOL    HW142033   2.478   7.802   1.839  1.2753 -0.3069 -2.9246
13778SOL    HW242034   2.394   7.910   1.773 -2.7200  0.1532  2.2776
13779SOL     OW42035   7.640   3.646   6.386 -0.3513 -0.6810  0.1155
13779SOL    HW142036   7.607   3.623   6.473 -1.7043 -0.2347 -0.2602
13779SOL    HW242037   7.708   3.582   6.368  1.0686  0.1563  2.1538
13780SOL     OW42038   4.263   5.052   3.832  0.1192  0.2075 -0.0849
13780SOL    HW142039   4.190   5.001   3.798  1.2006 -2.1350  0.8857
13780SOL    HW242040   4.230   5.089   3.915 -0.1895 -0.2244 -0.0144
13781SOL     OW42041   0.574   0.253   6.856 -0.2873  0.3667  0.1753
13781SOL    HW142042   0.662   0.290   6.854 -0.8444  1.7256 -0.4523
13781SOL    HW242043   0.518   0.325   6.887 -0.9636 -0.9899  2.4058
13782SOL     OW42044   6.570   3.341   4.420  0.6170 -0.1366  0.0588
13782SOL    HW142045   6.513   3.417   4.411 -0.7115 -1.0286  0.7063
13782SOL    HW242046   6.546   3.302   4.504  3.0833  0.1726  1.0066
13783SOL     OW42047   4.622   2.990   1.434  0.3364  0.1884 -0.4192
13783SOL    HW142048   4.611   3.084   1.445 -0.1949 -0.0196  1.0926
13783SOL    HW242049   4.632   2.956   1.523  2.7143 -0.9575 -1.0472
13784SOL     OW42050   3.517   2.718   7.255 -0.5668  0.3980 -0.0990
13784SOL    HW142051   3.515   2.764   7.339 -1.2679 -0.9803  0.6766
13784SOL    HW242052   3.448   2.758   7.203 -2.0683 -0.5808  1.0466
13785SOL     OW42053   6.821   0.583   4.894 -0.3209  0.4773 -0.3053
13785SOL    HW142054   6.743   0.611   4.942 -0.1087 -0.0761  0.3763
13785SOL    HW242055   6.786   0.540   4.816 -0.6622  1.6723 -0.8342
13786SOL     OW42056   7.443   7.166   0.249 -0.2528  0.3998  0.0960
13786SOL    HW142057   7.498   7.100   0.205  0.3657  0.3157  0.9806
13786SOL    HW242058   7.363   7.167   0.197 -0.4703 -1.3958  0.3014
13787SOL     OW42059   1.868   2.059   2.552 -0.6155 -0.5414  0.3860
13787SOL    HW142060   1.912   2.017   2.479  2.0259 -0.0689  1.5972
13787SOL    HW242061   1.824   2.135   2.513 -1.6182 -1.8048 -1.0814
13788SOL     OW42062   7.528   4.543   3.735  0.0631  0.2258 -0.8769
13788SOL    HW142063   7.490   4.495   3.809 -1.6240 -0.6155 -2.2261
13788SOL    HW242064   7.578   4.614   3.776  0.6147 -1.2211  1.1080
13789SOL     OW42065   6.256   5.916   3.111 -0.0596 -0.0117  0.5385
13789SOL    HW142066   6.301   5.957   3.037 -1.6153  0.5674 -0.1243
13789SOL    HW242067   6.278   5.823   3.104 -0.2848  0.0185 -0.7324
13790SOL     OW42068   7.336   7.773   1.781  0.2272 -0.5928  0.0264
13790SOL    HW142069   7.382   7.840   1.730 -0.4316  0.0573  0.2617
13790SOL    HW242070   7.273   7.735   1.720 -1.3629  0.9803  0.6082
13791SOL     OW42071   7.484   6.107   1.361  0.3532  0.5068  0.0006
13791SOL    HW142072   7.547   6.157   1.310  0.5589  0.1787 -0.0674
13791SOL    HW242073   7.450   6.170   1.425  1.4842  0.4264  0.6994
13792SOL     OW42074   0.709   5.485   3.344 -0.1032 -0.2731  0.3909
13792SOL    HW142075   0.709   5.391   3.358 -0.5839 -1.3114 -4.8007
13792SOL    HW242076   0.796   5.505   3.308 -0.8983  0.6763 -1.1218
13793SOL     OW42077   2.123   7.602   5.350 -0.1954  0.5566  0.8091
13793SOL    HW142078   2.203   7.613   5.401  0.7595  0.0401 -0.5186
13793SOL    HW242079   2.097   7.691   5.326  1.4265  0.6536 -0.8418
13794SOL     OW42080   5.600   5.794   1.407  0.0688 -0.3388 -0.3578
13794SOL    HW142081   5.613   5.888   1.400 -0.0534 -0.3807 -1.3882
13794SOL    HW242082   5.509   5.783   1.433  0.3375 -0.1626  0.6836
13795SOL     OW42083   0.562   5.103   1.953  0.0563  0.0661 -0.0233
13795SOL    HW142084   0.581   5.196   1.939 -1.1161  0.1869 -0.9213
13795SOL    HW242085   0.647   5.060   1.943  0.9028  1.1643  1.9139
13796SOL     OW42086   2.342   2.302   1.782  0.5862  0.1531  0.2951
13796SOL    HW142087   2.345   2.304   1.687  0.1907 -2.0271  0.1680
13796SOL    HW242088   2.338   2.208   1.804 -0.8205  0.6264  2.3905
13797SOL     OW42089   5.205   4.903   1.154  0.4037  0.9671  0.1478
13797SOL    HW142090   5.219   4.926   1.246  0.4932 -0.7880  0.6233
13797SOL    HW242091   5.134   4.838   1.157  0.8724  0.3810 -0.9416
13798SOL     OW42092   2.942   4.371   7.732  0.8325 -0.4916 -0.2083
13798SOL    HW142093   2.989   4.320   7.666 -1.2041 -1.3105 -1.1104
13798SOL    HW242094   2.942   4.460   7.697  0.0975 -0.8479 -1.1760
13799SOL     OW42095   5.484   7.575   1.913 -0.0959  0.7290  0.6194
13799SOL    HW142096   5.395   7.540   1.905 -0.5804  1.2209  2.9962
13799SOL    HW242097   5.537   7.501   1.941 -0.2000  0.8705  1.2122
13800SOL     OW42098   7.011   7.965   3.649 -0.0205 -0.0979 -0.8037
13800SOL    HW142099   6.976   8.042   3.605  2.8119  0.9213 -1.4843
13800SOL    HW242100   6.977   7.970   3.738 -0.9729  1.1647 -1.2131
13801SOL     OW42101   4.252   3.600   7.382  0.5264 -0.4205  0.4131
13801SOL    HW142102   4.172   3.550   7.366  0.2024  0.3540 -0.4597
13801SOL    HW242103   4.321   3.548   7.341  0.5877 -1.4156  1.7294
13802SOL     OW42104   6.661   2.344   2.719 -0.2570 -0.2091 -0.1473
13802SOL    HW142105   6.603   2.274   2.750  0.5470 -0.7177  0.2306
13802SOL    HW242106   6.617   2.378   2.641 -1.2539 -0.3322  0.3310
13803SOL     OW42107   3.452   0.329   7.898 -0.4234  0.6406  0.2594
13803SOL    HW142108   3.435   0.237   7.918 -0.0557  0.4485 -0.2748
13803SOL    HW242109   3.547   0.335   7.892 -0.4747  0.3626 -2.6257
13804SOL     OW42110   0.950   5.247   0.221 -0.1253  0.1522  0.2324
13804SOL    HW142111   1.007   5.221   0.149  0.6600  0.1923  0.8252
13804SOL    HW242112   0.914   5.165   0.254  0.7625 -0.0204  0.8040
13805SOL     OW42113   4.158   3.812   2.115 -0.3274 -0.3000 -0.1593
13805SOL    HW142114   4.131   3.803   2.023  1.0613  0.2113 -0.6459
13805SOL    HW242115   4.203   3.730   2.135  1.1193  0.3592 -0.5865
13806SOL     OW42116   5.047   1.089   3.174  0.1928  0.0726  0.2397
13806SOL    HW142117   4.993   1.052   3.244  0.5238 -0.0289  0.4426
13806SOL    HW242118   5.126   1.119   3.218  0.4974 -0.1861 -0.1186
13807SOL     OW42119   2.382   5.159   1.590  0.0494 -0.0834 -0.2638
13807SOL    HW142120   2.427   5.128   1.669  0.7773 -1.1887 -1.0816
13807SOL    HW242121   2.392   5.254   1.592  0.0748 -0.0980  0.9566
13808SOL     OW42122   0.585   2.261   7.838 -0.2538  0.2756 -0.1639
13808SOL    HW142123   0.531   2.191   7.802  1.7932 -1.1525 -0.6573
13808SOL    HW242124   0.562   2.263   7.931  0.3285 -1.7691  0.0713
13809SOL     OW42125   4.533   0.574   1.076 -0.7236 -0.0747 -0.3427
13809SOL    HW142126   4.460   0.632   1.054 -0.3478  0.5511  0.0337
13809SOL    HW242127   4.529   0.565   1.171 -1.0266 -1.0067 -0.4377
13810SOL     OW42128   3.984   2.596   0.185  0.9065 -0.4898 -0.3862
13810SOL    HW142129   4.072   2.631   0.172  0.5668 -0.2743 -2.4684
13810SOL    HW242130   3.940   2.610   0.101 -0.4294 -2.5601 -0.1005
13811SOL     OW42131   0.158   2.132   4.090 -0.4880 -0.0529 -0.1017
13811SOL    HW142132   0.250   2.107   4.098  0.3947  2.9031  0.2328
13811SOL    HW242133   0.123   2.074   4.022  2.2227  0.1630 -1.8200
13812SOL     OW42134   0.111   6.496   1.793 -0.0365 -0.2447 -0.0941
13812SOL    HW142135   0.149   6.426   1.741 -0.3010 -0.4776  0.0288
13812SOL    HW242136   0.183   6.526   1.849 -0.2113 -1.1776  0.6624
13813SOL     OW42137   1.945   6.748   5.821  0.5462 -0.4312 -0.1143
13813SOL    HW142138   1.978   6.724   5.734 -1.0402  0.2221 -0.9512
13813SOL    HW242139   2.020   6.789   5.864  1.6268 -1.5715 -0.8122
13814SOL     OW42140   3.121   1.866   5.438 -0.2668 -0.4192  0.8338
13814SOL    HW142141   3.062   1.845   5.365  1.7610 -0.3588 -0.9276
13814SOL    HW242142   3.191   1.801   5.432  1.2336  1.0692  1.1319
13815SOL     OW42143   2.013   4.712   1.487 -0.1690 -0.4760 -0.3574
13815SOL    HW142144   2.040   4.669   1.568  0.7544 -0.9043 -0.8839
13815SOL    HW242145   2.089   4.762   1.458 -0.9166  0.7683 -0.2710
13816SOL     OW42146   5.914   4.183   4.170  0.4427  0.1307  0.2665
13816SOL    HW142147   5.967   4.210   4.244 -0.3207  1.7915  0.2475
13816SOL    HW242148   5.962   4.109   4.132  1.2159 -0.2864  1.9540
13817SOL     OW42149   0.146   5.042   2.292  0.6191  0.3746  0.4404
13817SOL    HW142150   0.072   5.103   2.286  0.1338  0.0364  2.2113
13817SOL    HW242151   0.217   5.084   2.244 -0.2002  1.5582  0.2264
13818SOL     OW42152   2.155   6.069   1.933  0.0471 -0.3430 -0.1733
13818SOL    HW142153   2.233   6.097   1.885 -0.2431  2.2470  0.7073
13818SOL    HW242154   2.082   6.104   1.883 -0.3465  0.5991  1.0158
13819SOL     OW42155   2.042   3.970   0.740  0.4076 -0.4240 -0.1166
13819SOL    HW142156   2.034   4.036   0.809  0.2479 -1.0163  0.4446
13819SOL    HW242157   2.097   4.012   0.673 -1.4511  1.0741 -0.7795
13820SOL     OW42158   6.129   3.038   3.945  0.7359  0.3047 -0.2704
13820SOL    HW142159   6.136   2.943   3.946 -1.7511  0.0369  1.5956
13820SOL    HW242160   6.096   3.058   3.857  0.3216 -0.6785 -0.3560
13821SOL     OW42161   1.367   0.310   2.415  0.5160 -0.0880  0.4324
13821SOL    HW142162   1.364   0.369   2.339 -0.7449  0.1106  0.6162
13821SOL    HW242163   1.279   0.272   2.419  0.8592 -0.8319  1.2337
13822SOL     OW42164   6.538   0.872   4.351  0.1330  0.4375  0.9145
13822SOL    HW142165   6.539   0.957   4.396  1.5334  1.1546 -0.3799
13822SOL    HW242166   6.626   0.865   4.312 -0.2014 -1.2876  0.3959
13823SOL     OW42167   6.483   7.955   2.679 -0.0614 -0.1033 -0.3548
13823SOL    HW142168   6.539   7.990   2.748 -0.2891 -1.6139  0.6616
13823SOL    HW242169   6.519   7.990   2.598 -0.7976  3.1101  0.5738
13824SOL     OW42170   0.506   0.902   2.111  0.6820 -0.4044  0.0535
13824SOL    HW142171   0.565   0.836   2.075  1.2604  0.4120 -0.5083
13824SOL    HW242172   0.486   0.959   2.038  0.2644  0.1114  0.5591
13825SOL     OW42173   7.745   5.727   2.524  0.9658  0.5404 -0.1733
13825SOL    HW142174   7.750   5.697   2.615 -0.9062 -0.9058 -0.4817
13825SOL    HW242175   7.765   5.821   2.528 -0.1995  0.7612  1.9132
13826SOL     OW42176   5.395   1.997   2.575 -0.1431  0.5067  0.3719
13826SOL    HW142177   5.464   2.010   2.640  0.5738  0.6650 -0.4047
13826SOL    HW242178   5.386   1.902   2.567  1.8613  0.3871 -1.4093
13827SOL     OW42179   7.782   2.902   2.181 -1.0733  0.7146 -0.4538
13827SOL    HW142180   7.782   2.987   2.138 -0.2411  0.0805 -1.7655
13827SOL    HW242181   7.760   2.840   2.112  0.3167 -0.3488  0.0011
13828SOL     OW42182   5.742   0.274   5.247  0.2369 -0.6425 -0.3242
13828SOL    HW142183   5.663   0.296   5.198  0.9498  1.0489 -0.7766
13828SOL    HW242184   5.725   0.309   5.335  0.9540  0.8708 -0.7615
13829SOL     OW42185   6.879   2.951   4.494 -0.0926  0.2701 -0.0124
13829SOL    HW142186   6.887   2.941   4.589 -2.7591  1.0976  0.3836
13829SOL    HW242187   6.809   2.892   4.469 -1.0687  1.7871 -1.0599
13830SOL     OW42188   4.145   2.477   6.881  0.0402  0.3704  0.5282
13830SOL    HW142189   4.106   2.390   6.874 -0.1088  0.4129  0.7976
13830SOL    HW242190   4.078   2.530   6.925  0.1824  0.5873  0.4888
13831SOL     OW42191   5.730   3.431   6.510  0.0816  0.4543  0.1375
13831SOL    HW142192   5.798   3.390   6.563 -0.2823  0.0842  0.3225
13831SOL    HW242193   5.768   3.514   6.482  1.1140 -0.3274 -0.8654
13832SOL     OW42194   1.821   1.408   4.521 -0.1361  0.2948  0.4757
13832SOL    HW142195   1.845   1.382   4.432 -0.7219  0.2759  0.3179
13832SOL    HW242196   1.814   1.325   4.569 -0.8682  0.2357  0.2676
13833SOL     OW42197   7.563   5.261   2.687 -0.4398 -0.4369 -0.1368
13833SOL    HW142198   7.474   5.227   2.697 -0.1399 -0.7484  1.9447
13833SOL    HW242199   7.612   5.221   2.759  0.6085  2.1939  0.7372
13834SOL     OW42200   4.814   1.934   7.009  0.1304 -0.1655 -0.4487
13834SOL    HW142201   4.763   1.864   6.968 -0.3079 -0.5563  0.7256
13834SOL    HW242202   4.748   1.996   7.041  0.3805 -0.4577  0.6951
13835SOL     OW42203   6.889   7.118   2.866  0.2359  0.0069  0.0197
13835SOL    HW142204   6.853   7.116   2.955  1.1741  0.4690  0.4228
13835SOL    HW242205   6.959   7.183   2.870  0.1609  0.1734 -1.1135
13836SOL     OW42206   3.353   7.030   2.099  0.1383  0.4999  0.1122
13836SOL    HW142207   3.414   6.961   2.071  0.5527  0.8314  0.2006
13836SOL    HW242208   3.334   7.010   2.190  0.5509  0.7109  0.2484
13837SOL     OW42209   7.188   0.197   1.546  0.2804 -0.1865 -0.2187
13837SOL    HW142210   7.246   0.210   1.621 -0.3805 -0.4302  0.3473
13837SOL    HW242211   7.108   0.244   1.570  0.2427  0.1594 -0.9960
13838SOL     OW42212   7.690   0.697   7.781  0.0777  0.3170 -0.1705
13838SOL    HW142213   7.757   0.645   7.737 -0.1837 -0.0721 -0.1124
13838SOL    HW242214   7.640   0.634   7.833 -0.8035  0.4745 -0.7975
13839SOL     OW42215   1.408   1.530   7.720  0.4998  0.6181 -0.1202
13839SOL    HW142216   1.338   1.466   7.737 -0.5072  1.9252  0.8502
13839SOL    HW242217   1.480   1.502   7.778  0.1712  0.2200  0.1019
13840SOL     OW42218   1.796   3.357   6.901 -0.3708 -0.0340 -0.0314
13840SOL    HW142219   1.812   3.404   6.983 -1.7925  1.6548 -0.6489
13840SOL    HW242220   1.712   3.392   6.870 -0.2904 -1.2705 -1.7743
13841SOL     OW42221   7.347   3.380   6.440 -0.1634  0.2813  0.3298
13841SOL    HW142222   7.438   3.350   6.433 -0.6461 -1.0871 -0.5360
13841SOL    HW242223   7.340   3.416   6.528  1.2558  0.5824  0.3436
13842SOL     OW42224   3.042   3.002   4.071  0.3345  0.0123 -0.0725
13842SOL    HW142225   3.056   3.092   4.042  0.4655 -0.6137 -2.0616
13842SOL    HW242226   2.951   2.984   4.050  0.4823 -0.5207 -0.2583
13843SOL     OW42227   2.373   0.698   0.940 -0.4192 -0.0333 -0.0519
13843SOL    HW142228   2.433   0.638   0.985  0.8499  1.1901 -0.0508
13843SOL    HW242229   2.287   0.657   0.950 -0.0181 -0.4641  2.3539
13844SOL     OW42230   1.180   5.676   2.233  0.1323 -0.5646  0.3299
13844SOL    HW142231   1.138   5.709   2.153 -0.6400  0.7021  1.2326
13844SOL    HW242232   1.272   5.666   2.210 -0.4156 -2.4704 -1.4136
13845SOL     OW42233   6.742   4.448   4.824 -0.2535 -0.3390  0.1652
13845SOL    HW142234   6.669   4.469   4.765 -0.1779  0.4328  0.3323
13845SOL    HW242235   6.757   4.354   4.812  0.4948  0.0046 -1.8681
13846SOL     OW42236   5.596   6.118   6.536  0.5174 -0.2881 -0.1646
13846SOL    HW142237   5.576   6.207   6.565 -0.5864 -1.0290  1.5444
13846SOL    HW242238   5.580   6.119   6.442 -2.8140  0.5490  0.2854
13847SOL     OW42239   1.261   4.772   0.063 -0.2093  0.0022  0.0991
13847SOL    HW142240   1.190   4.728   0.016  0.2710 -0.8537  0.1513
13847SOL    HW242241   1.303   4.702   0.114  1.3768  0.2487 -0.8049
13848SOL     OW42242   2.049   5.012   5.896  0.0894  0.1788 -0.4900
13848SOL    HW142243   2.095   4.928   5.900  0.5302  0.4463  1.2423
13848SOL    HW242244   2.108   5.069   5.847  0.7569  0.0013  0.0810
13849SOL     OW42245   6.940   4.235   5.579  0.1503  0.2377 -0.2574
13849SOL    HW142246   7.036   4.232   5.587  0.3453  2.3819 -1.2157
13849SOL    HW242247   6.913   4.144   5.591  2.3090 -0.4427 -0.0239
13850SOL     OW42248   4.958   2.046   1.385  0.7531 -1.0901  0.1266
13850SOL    HW142249   5.004   2.084   1.310 -0.1927 -1.5477 -0.7070
13850SOL    HW242250   4.881   2.102   1.396  0.0930 -1.9244 -0.2157
13851SOL     OW42251   7.611   4.640   4.724 -0.4990 -0.4372 -0.0254
13851SOL    HW142252   7.552   4.567   4.742  0.3894 -1.3744 -0.8225
13851SOL    HW242253   7.576   4.680   4.644 -0.5155 -0.4811 -0.0399
13852SOL     OW42254   4.795   1.558   3.248  0.6795  0.1265  0.7279
13852SOL    HW142255   4.717   1.593   3.290 -1.1110 -2.8093  0.1484
13852SOL    HW242256   4.839   1.507   3.317  1.4247  0.7247  0.7138
13853SOL     OW42257   5.663   6.839   1.060 -0.1628 -0.2801 -0.7206
13853SOL    HW142258   5.657   6.856   0.966  0.2214 -1.3445 -0.9465
13853SOL    HW242259   5.734   6.776   1.069  2.3260  2.4640  0.6537
13854SOL     OW42260   1.028   3.213   6.268 -0.2328 -0.1576 -0.5644
13854SOL    HW142261   1.079   3.133   6.267  0.2296  0.1055  0.4632
13854SOL    HW242262   1.011   3.232   6.176  0.8785 -0.6579 -0.8880
13855SOL     OW42263   0.809   3.050   2.562 -0.1257 -0.0017  0.2216
13855SOL    HW142264   0.814   3.089   2.649 -2.6538 -0.8766  0.8701
13855SOL    HW242265   0.779   3.121   2.505 -2.7269 -0.3494  1.0032
13856SOL     OW42266   4.575   5.983   1.325 -0.2202 -0.0030 -0.5743
13856SOL    HW142267   4.642   5.971   1.258  0.6365 -0.9613  0.4119
13856SOL    HW242268   4.505   5.923   1.300  0.6582 -1.3474  0.0501
13857SOL     OW42269   0.664   0.096   0.571 -0.2862  0.3209 -0.1130
13857SOL    HW142270   0.753   0.063   0.583 -0.4583  0.0247  0.3994
13857SOL    HW242271   0.666   0.142   0.487  0.8011  1.8504  0.7216
13858SOL     OW42272   1.074   4.699   6.942 -0.1968  0.4426 -0.0723
13858SOL    HW142273   1.030   4.617   6.963  1.5415 -0.2077  1.2996
13858SOL    HW242274   1.068   4.750   7.022  1.2008  0.4596  0.0492
13859SOL     OW42275   3.135   0.427   2.878  0.1272  0.0319 -0.1014
13859SOL    HW142276   3.109   0.432   2.971  0.9569  2.9153  0.0735
13859SOL    HW242277   3.180   0.510   2.862  2.6845 -1.6356 -2.3303
13860SOL     OW42278   7.598   3.499   1.570 -0.5868 -0.0431 -0.1308
13860SOL    HW142279   7.603   3.531   1.479  0.6166 -0.1695 -0.1289
13860SOL    HW242280   7.515   3.452   1.574 -0.7457  0.1202 -1.1215
13861SOL     OW42281   4.447   3.797   7.497 -0.1710  0.6371  0.0960
13861SOL    HW142282   4.489   3.715   7.472  0.9089  1.7415 -1.9633
13861SOL    HW242283   4.378   3.809   7.433 -0.7170  1.0505  0.7512
13862SOL     OW42284   6.879   0.912   0.677 -0.3028  0.0591  0.2989
13862SOL    HW142285   6.905   0.929   0.587  1.3968 -0.6551  0.6035
13862SOL    HW242286   6.785   0.931   0.680 -0.3141  0.4275 -1.5124
13863SOL     OW42287   2.020   0.991   4.750 -0.3490  0.3611  0.0875
13863SOL    HW142288   1.940   1.043   4.746  0.5545  1.7722 -0.5617
13863SOL    HW242289   2.030   0.969   4.842  0.2730  3.0731  0.7390
13864SOL     OW42290   2.764   0.538   4.226  0.3468 -0.0090  0.2588
13864SOL    HW142291   2.705   0.563   4.297 -0.3070 -0.4804 -0.1083
13864SOL    HW242292   2.742   0.598   4.154  0.1267 -0.3559  0.0325
13865SOL     OW42293   7.819   2.647   0.740 -0.0489 -0.3255 -1.1517
13865SOL    HW142294   7.730   2.681   0.734  0.0269 -0.1381 -1.1953
13865SOL    HW242295   7.840   2.652   0.834  1.0630  2.5456 -1.4685
13866SOL     OW42296   1.080   0.438   1.485 -0.2007 -0.6353 -0.8864
13866SOL    HW142297   1.052   0.347   1.492 -0.5484 -0.6023 -1.7618
13866SOL    HW242298   1.085   0.469   1.576 -1.1607 -1.1961 -0.6369
13867SOL     OW42299   7.851   5.315   3.772  0.7174 -0.6438 -0.1218
13867SOL    HW142300   7.799   5.394   3.786 -0.1496 -0.9319 -1.5209
13867SOL    HW242301   7.908   5.310   3.849 -0.7553  0.1185  1.0792
13868SOL     OW42302   7.679   1.160   4.114 -0.7814 -0.3877 -0.1879
13868SOL    HW142303   7.765   1.127   4.090 -0.4829 -0.4858  0.9665
13868SOL    HW242304   7.691   1.254   4.126 -0.1490 -0.7196  2.5901
13869SOL     OW42305   3.768   4.087   3.972  0.2006  0.3239  0.1306
13869SOL    HW142306   3.806   4.070   3.885  1.0352  0.6825  0.4125
13869SOL    HW242307   3.748   4.181   3.971  1.2246  0.5593  0.6993
13870SOL     OW42308   4.121   0.550   4.421  0.0365 -0.2718  0.5631
13870SOL    HW142309   4.103   0.515   4.333  0.7345 -0.7472  0.5980
13870SOL    HW242310   4.045   0.605   4.441 -0.3724 -0.5664 -0.1273
13871SOL     OW42311   3.709   6.051   4.054 -0.4822 -0.1738 -0.2027
13871SOL    HW142312   3.689   6.142   4.077  0.1684  0.1125 -0.7600
13871SOL    HW242313   3.742   6.055   3.965 -0.0132 -0.9045 -0.0704
13872SOL     OW42314   0.393   6.363   0.482 -0.2075 -0.0947  0.4071
13872SOL    HW142315   0.360   6.296   0.542 -0.5519 -2.3321 -2.1263
13872SOL    HW242316   0.335   6.359   0.406  2.0446  0.3564 -1.4575
13873SOL     OW42317   1.204   4.598   5.401  0.6203  0.5082 -0.2971
13873SOL    HW142318   1.240   4.677   5.361 -0.2382  0.1785 -1.7959
13873SOL    HW242319   1.181   4.542   5.328  0.4517 -0.8044  0.7210
13874SOL     OW42320   3.680   1.892   7.470 -0.4876 -0.2919  0.3619
13874SOL    HW142321   3.673   1.930   7.557  1.8359 -0.6391  0.7582
13874SOL    HW242322   3.626   1.813   7.473 -0.8799  0.0052  1.2800
13875SOL     OW42323   2.006   3.702   6.630 -0.0065 -0.0974  0.3476
13875SOL    HW142324   2.062   3.635   6.591  0.3802 -0.1712  1.0183
13875SOL    HW242325   1.992   3.766   6.560 -0.9535 -1.2182 -0.5153
13876SOL     OW42326   4.723   5.289   0.158  0.1525 -0.2417 -0.5582
13876SOL    HW142327   4.710   5.373   0.202  1.1751  0.2541 -1.1712
13876SOL    HW242328   4.646   5.238   0.181  0.3586  0.2076  1.3342
13877SOL     OW42329   5.843   6.414   0.409  0.1091  0.3929  0.1849
13877SOL    HW142330   5.891   6.332   0.396 -0.4694  0.4378 -3.7077
13877SOL    HW242331   5.883   6.454   0.486  1.4585 -2.7859  1.3066
13878SOL     OW42332   7.533   7.400   1.342 -0.1280  0.0759  0.2871
13878SOL    HW142333   7.615   7.350   1.343 -0.8790 -1.2104  2.3287
13878SOL    HW242334   7.528   7.440   1.428 -1.4317  0.5262  0.0245
13879SOL     OW42335   2.435   4.370   5.534 -0.7376 -0.1155  0.0329
13879SOL    HW142336   2.478   4.308   5.593 -0.8762  0.2233  0.4949
13879SOL    HW242337   2.351   4.389   5.576  0.3848  2.4470  1.3170
13880SOL     OW42338   2.810   4.906   0.326  0.2536 -0.1406  0.1777
13880SOL    HW142339   2.739   4.889   0.264  0.5170 -1.7880  0.2638
13880SOL    HW242340   2.835   4.819   0.357  2.2640  0.3962  0.2020
13881SOL     OW42341   2.719   1.830   5.464  0.2080 -0.0610 -0.9604
13881SOL    HW142342   2.764   1.914   5.455 -1.1149  0.6559 -1.3087
13881SOL    HW242343   2.672   1.838   5.548  0.9966 -0.9354 -0.4205
13882SOL     OW42344   0.703   5.950   0.021  0.0057 -0.4697  0.4249
13882SOL    HW142345   0.769   5.908  -0.033 -1.4281 -1.4969 -0.5717
13882SOL    HW242346   0.645   5.879   0.049 -1.1543  0.5100  0.5979
13883SOL     OW42347   0.519   2.990   5.762 -0.0654 -0.3798 -0.0216
13883SOL    HW142348   0.489   2.903   5.789  0.2433 -0.0844  1.3609
13883SOL    HW242349   0.609   2.995   5.793  0.3372 -0.0224 -1.2118
13884SOL     OW42350   3.391   6.529   1.060  0.0985 -0.1585  0.2650
13884SOL    HW142351   3.347   6.481   0.989  0.6068 -0.9901  0.4963
13884SOL    HW242352   3.374   6.621   1.040  1.0812 -0.3066 -1.5199
13885SOL     OW42353   5.808   0.297   3.341 -0.3143  0.1415  0.8715
13885SOL    HW142354   5.806   0.265   3.251  0.5228 -0.7689  1.1614
13885SOL    HW242355   5.719   0.285   3.373 -0.7221  0.8644  0.0423
13886SOL     OW42356   7.362   2.219   5.192  0.6719 -0.3191 -0.1369
13886SOL    HW142357   7.328   2.252   5.276 -1.8615  1.0842 -1.5707
13886SOL    HW242358   7.330   2.282   5.128  3.7650 -0.5283 -2.0798
13887SOL     OW42359   5.558   7.778   0.448 -0.1573  0.2367  0.2451
13887SOL    HW142360   5.583   7.695   0.406  0.8055  0.8246 -0.3612
13887SOL    HW242361   5.634   7.802   0.501  0.1681  1.4914 -0.7535
13888SOL     OW42362   2.413   6.932   5.713 -0.4256 -0.4275 -0.0039
13888SOL    HW142363   2.359   6.996   5.666 -0.2697 -0.4856 -0.2685
13888SOL    HW242364   2.491   6.981   5.738 -0.2939 -0.5189 -0.2304
13889SOL     OW42365   5.073   5.413   7.642 -0.4515 -0.2341 -0.5127
13889SOL    HW142366   5.006   5.347   7.659 -1.4498  0.4980 -1.4215
13889SOL    HW242367   5.118   5.381   7.564  1.3235 -1.4783  0.9240
13890SOL     OW42368   0.792   4.860   5.768 -0.2599 -0.6589 -0.6322
13890SOL    HW142369   0.868   4.802   5.764 -0.2919 -0.6734 -1.0645
13890SOL    HW242370   0.756   4.846   5.856  1.8357  1.3792  0.6662
13891SOL     OW42371   3.919   2.667   0.429 -0.0054  0.1639  0.1956
13891SOL    HW142372   3.936   2.761   0.437 -2.7675  0.7408  0.2581
13891SOL    HW242373   3.942   2.646   0.338  1.0795  0.7635  0.3119
13892SOL     OW42374   6.535   0.718   2.758  0.1152  0.4192  0.4116
13892SOL    HW142375   6.613   0.664   2.757  1.4024  2.1946 -0.2531
13892SOL    HW242376   6.551   0.782   2.827 -1.1503  0.2797  0.8577
13893SOL     OW42377   7.769   1.510   5.811 -0.4334 -0.2222  0.2919
13893SOL    HW142378   7.675   1.527   5.809  0.1086  3.3060 -0.9379
13893SOL    HW242379   7.782   1.438   5.749 -2.3541 -1.4104  1.1728
13894SOL     OW42380   1.045   7.915   5.625 -0.0884 -0.1150 -0.2465
13894SOL    HW142381   1.093   7.833   5.633  0.4299 -0.1436 -2.8156
13894SOL    HW242382   0.963   7.891   5.581 -1.1124  0.4063  1.2964
13895SOL     OW42383   3.040   0.773   0.102  0.1335 -0.0439 -0.0434
13895SOL    HW142384   3.120   0.742   0.060  0.0704 -0.3228  0.0375
13895SOL    HW242385   2.975   0.705   0.082  0.3670 -0.7445  1.4132
13896SOL     OW42386   1.651   7.282   2.444 -0.1418 -0.3939 -0.6191
13896SOL    HW142387   1.747   7.293   2.441  0.1236 -2.4119 -0.5834
13896SOL    HW242388   1.630   7.288   2.537 -0.0347 -0.1725 -0.6065
13897SOL     OW42389   3.139   7.278   4.141 -0.3868 -0.5198  0.0419
13897SOL    HW142390   3.107   7.311   4.226 -0.4561  0.2500 -0.2738
13897SOL    HW242391   3.122   7.350   4.080  3.5223  0.7023  0.1459
13898SOL     OW42392   6.994   7.661   6.735  0.7950 -0.3890 -0.0935
13898SOL    HW142393   6.973   7.689   6.646 -0.2172 -0.8204 -0.0044
13898SOL    HW242394   7.089   7.649   6.735  0.8138 -0.3007 -1.0909
13899SOL     OW42395   5.499   4.091   5.808 -0.3515  0.4672 -0.0106
13899SOL    HW142396   5.585   4.097   5.850 -0.6249 -1.1969  0.8694
13899SOL    HW242397   5.469   4.003   5.827 -2.8928  1.4447  0.9052
13900SOL     OW42398   0.734   5.430   0.989 -0.2667 -0.0793  0.6107
13900SOL    HW142399   0.745   5.523   0.973  0.1406 -0.4673 -1.6908
13900SOL    HW242400   0.817   5.391   0.963 -1.7946 -1.4887 -2.7160
13901SOL     OW42401   7.608   1.939   4.713 -0.1789 -0.1210  0.1539
13901SOL    HW142402   7.702   1.936   4.696 -0.4037 -0.6027 -1.1474
13901SOL    HW242403   7.597   1.905   4.801  0.7980 -0.9042 -0.0170
13902SOL     OW42404   7.047   1.747   2.845  0.2580 -0.1149  0.1634
13902SOL    HW142405   7.057   1.776   2.935  0.3352  0.3871 -0.0043
13902SOL    HW242406   6.987   1.672   2.850  0.6132 -0.3685  0.6775
13903SOL     OW42407   6.479   5.325   7.489 -0.2277 -0.6827  0.0362
13903SOL    HW142408   6.532   5.253   7.523  0.2340  0.2354  1.3523
13903SOL    HW242409   6.542   5.388   7.454 -0.5844 -0.6435 -0.5435
13904SOL     OW42410   3.869   4.404   3.036  0.2281 -0.4637 -0.5749
13904SOL    HW142411   3.790   4.354   3.055 -0.4033  0.8465  0.5005
13904SOL    HW242412   3.892   4.380   2.947 -1.0239 -1.3468 -0.6910
13905SOL     OW42413   6.101   2.707   2.237 -0.0099  0.0333 -0.0663
13905SOL    HW142414   6.113   2.780   2.298  0.8566 -1.3352  1.5236
13905SOL    HW242415   6.007   2.690   2.238  0.0112 -0.1419  1.1647
13906SOL     OW42416   0.812   2.868   5.584  0.0082 -0.3223  0.0329
13906SOL    HW142417   0.769   2.848   5.502 -0.2826 -0.4513  0.2145
13906SOL    HW242418   0.874   2.796   5.598 -0.4781 -0.6962  0.2969
13907SOL     OW42419   4.620   4.133   1.176 -0.5223 -0.0945 -0.0043
13907SOL    HW142420   4.545   4.074   1.166  0.9102 -1.9698 -0.1982
13907SOL    HW242421   4.674   4.116   1.099 -0.1747  1.7174 -0.2147
13908SOL     OW42422   0.444   5.805   5.022  0.0105 -0.8850  0.2286
13908SOL    HW142423   0.378   5.862   5.062  1.2517  1.6487 -1.0424
13908SOL    HW242424   0.395   5.728   4.994 -1.8645 -0.3283  1.7317
13909SOL     OW42425   4.784   5.024   5.168  0.2322 -0.6617 -0.0637
13909SOL    HW142426   4.848   5.094   5.153 -0.5162  0.6339  2.2354
13909SOL    HW242427   4.724   5.030   5.093  0.3235  1.0144 -0.0377
13910SOL     OW42428   1.087   1.410   5.032  0.4488  0.2891 -0.2380
13910SOL    HW142429   1.093   1.331   4.978  0.5543  1.5970 -2.2012
13910SOL    HW242430   1.175   1.447   5.029  0.0440  1.2403 -0.4998
13911SOL     OW42431   2.049   0.996   0.426  0.6870  0.3309  0.0028
13911SOL    HW142432   1.964   1.010   0.468 -0.2001 -2.2091 -0.7262
13911SOL    HW242433   2.080   0.912   0.461  2.5266  0.8198 -0.3588
13912SOL     OW42434   4.230   7.572   4.814  0.0172 -0.0470 -0.0469
13912SOL    HW142435   4.189   7.640   4.868  0.7360  0.7860 -0.5323
13912SOL    HW242436   4.183   7.492   4.838 -1.9286  0.8710 -0.5973
13913SOL     OW42437   3.522   2.431   1.931 -0.0376  0.1644 -0.1948
13913SOL    HW142438   3.534   2.375   2.008  2.5083 -0.0265 -0.6360
13913SOL    HW242439   3.499   2.370   1.861  0.4587 -0.0604 -0.1706
13914SOL     OW42440   5.051   0.742   3.526 -0.8554 -0.3682 -0.3855
13914SOL    HW142441   5.027   0.759   3.617 -1.7510 -0.1660 -0.6489
13914SOL    HW242442   4.999   0.803   3.475  1.7936  1.6391 -0.9282
13915SOL     OW42443   2.387   6.236   1.164 -0.0008 -0.0931  0.0422
13915SOL    HW142444   2.404   6.155   1.115 -0.7910 -0.5574  0.5020
13915SOL    HW242445   2.378   6.207   1.255 -0.2388  0.5214  0.2168
13916SOL     OW42446   2.859   3.510   3.958 -0.0790  0.2885 -0.3975
13916SOL    HW142447   2.916   3.568   3.907 -0.8236  2.5278  1.1159
13916SOL    HW242448   2.819   3.452   3.894  2.9892 -0.6162 -1.6510
13917SOL     OW42449   2.809   0.263   5.511 -0.9890 -0.3879  0.2021
13917SOL    HW142450   2.799   0.234   5.601 -0.7802 -0.0406  0.3399
13917SOL    HW242451   2.784   0.355   5.513 -2.0076 -0.6411 -0.2957
13918SOL     OW42452   0.855   5.204   3.996 -0.0586  0.7421 -0.3294
13918SOL    HW142453   0.860   5.264   3.922  1.6540  1.1182  0.0430
13918SOL    HW242454   0.927   5.231   4.054 -0.4982 -0.3997  0.8092
13919SOL     OW42455   7.239   6.827   6.876 -0.1120  0.0704  0.0933
13919SOL    HW142456   7.227   6.762   6.945 -1.6366  2.3144  2.1660
13919SOL    HW242457   7.294   6.785   6.811  1.2688 -2.2805  2.5975
13920SOL     OW42458   5.619   6.410   6.715  0.0382  0.0169  0.3761
13920SOL    HW142459   5.683   6.447   6.653  0.3039  0.4223  0.8810
13920SOL    HW242460   5.673   6.379   6.788 -0.0263 -2.6867 -0.6241
13921SOL     OW42461   1.313   5.173   3.977  0.2354  0.1542  0.9666
13921SOL    HW142462   1.368   5.095   3.989 -1.2733 -1.2698 -0.8075
13921SOL    HW242463   1.318   5.192   3.883 -1.0228  0.9637  1.0400
13922SOL     OW42464   1.644   5.759   4.116  0.3244  0.2463 -0.1463
13922SOL    HW142465   1.629   5.793   4.028 -0.1833  0.7567  0.1313
13922SOL    HW242466   1.578   5.802   4.170 -1.0476 -1.9703  0.0557
13923SOL     OW42467   7.370   4.024   5.196 -0.4913  0.0647  0.0157
13923SOL    HW142468   7.457   4.018   5.235 -1.3963 -1.2372  2.0391
13923SOL    HW242469   7.374   3.969   5.118  0.6492  0.5455 -0.2828
13924SOL     OW42470   4.605   6.764   6.656 -0.0258 -0.3418  0.0235
13924SOL    HW142471   4.681   6.705   6.659  0.7595  0.5881 -0.8898
13924SOL    HW242472   4.588   6.785   6.748  1.3098  0.0255  0.2106
13925SOL     OW42473   7.507   7.835   5.138 -0.3349  0.6443  0.2679
13925SOL    HW142474   7.492   7.762   5.198 -3.6220  1.3683  0.5043
13925SOL    HW242475   7.487   7.800   5.052  2.9728  0.0148 -0.3868
13926SOL     OW42476   0.106   5.705   4.300  0.1894  0.1643  0.0094
13926SOL    HW142477   0.169   5.768   4.265  1.7007 -0.3203  1.7090
13926SOL    HW242478   0.154   5.623   4.307 -0.5128 -0.1513  1.6419
13927SOL     OW42479   0.471   2.120   5.265 -0.1351 -0.1008 -0.3665
13927SOL    HW142480   0.458   2.027   5.251 -0.6215  0.1622 -1.8448
13927SOL    HW242481   0.509   2.152   5.183 -1.0062  1.1902 -0.3019
13928SOL     OW42482   1.662   7.012   5.274 -0.1546  0.2181  0.0020
13928SOL    HW142483   1.693   7.030   5.363 -0.7507  0.3150  0.1912
13928SOL    HW242484   1.724   6.948   5.240  2.2343  2.7289 -0.7875
13929SOL     OW42485   4.554   0.442   0.463  0.2143 -0.6648 -0.2287
13929SOL    HW142486   4.637   0.483   0.489  0.2394 -1.1411  0.4853
13929SOL    HW242487   4.496   0.516   0.442  0.2851 -0.2447  0.9503
13930SOL     OW42488   6.775   7.737   4.003 -0.0843  0.0117 -0.3585
13930SOL    HW142489   6.799   7.669   4.067  1.0890  0.8457  0.1225
13930SOL    HW242490   6.681   7.749   4.015 -0.4105 -1.8052 -0.7447
13931SOL     OW42491   1.035   1.888   6.074  0.2352 -0.5590 -0.2682
13931SOL    HW142492   1.110   1.947   6.076  0.5005 -0.9199  1.3503
13931SOL    HW242493   0.993   1.906   5.990 -0.9763  3.5351  0.9946
13932SOL     OW42494   1.367   1.939   6.303 -0.0583  0.7678 -0.2261
13932SOL    HW142495   1.355   1.975   6.215 -0.8031 -0.9386 -0.8714
13932SOL    HW242496   1.461   1.937   6.317  0.0172  3.0275 -0.0875
13933SOL     OW42497   3.551   6.574   6.199  0.1945 -0.4401 -1.1818
13933SOL    HW142498   3.478   6.578   6.261  1.5119 -1.0751  0.4784
13933SOL    HW242499   3.547   6.486   6.162  1.8939 -1.6541  1.2736
13934SOL     OW42500   4.092   2.494   5.430  0.2014 -0.2519  0.1213
13934SOL    HW142501   4.072   2.423   5.490  0.5648  0.0111  0.5560
13934SOL    HW242502   4.098   2.572   5.486  0.2568  0.0463 -0.2915
13935SOL     OW42503   6.254   5.721   4.140  0.2686  0.4353 -0.4034
13935SOL    HW142504   6.206   5.768   4.208 -0.9108 -0.2411 -0.7343
13935SOL    HW242505   6.302   5.789   4.093 -0.9376  1.2454 -0.5137
13936SOL     OW42506   5.297   2.546   3.719  0.1100 -0.7574 -0.1532
13936SOL    HW142507   5.360   2.602   3.764 -1.1080  0.4137  0.1758
13936SOL    HW242508   5.218   2.600   3.711 -0.9956 -2.2967 -0.2004
13937SOL     OW42509   3.397   2.948   3.906  0.2906  0.2111 -0.0025
13937SOL    HW142510   3.372   2.856   3.918  0.6472  0.0877 -0.2094
13937SOL    HW242511   3.417   2.956   3.813 -0.1436  0.6007 -0.0648
13938SOL     OW42512   4.556   3.209   3.735 -0.0766  0.1743 -0.1380
13938SOL    HW142513   4.528   3.258   3.812 -0.0652 -0.1771  0.0891
13938SOL    HW242514   4.626   3.262   3.697  1.9785 -1.0391  1.7119
13939SOL     OW42515   1.472   2.898   7.402  0.1711 -0.0645  0.3734
13939SOL    HW142516   1.408   2.895   7.473  0.2529 -1.4449  0.4130
13939SOL    HW242517   1.421   2.926   7.325 -0.5852 -1.5207  0.3173
13940SOL     OW42518   5.115   4.976   5.990  0.7997  0.0688 -0.4017
13940SOL    HW142519   5.144   4.886   5.974  0.0857  0.1029 -2.1580
13940SOL    HW242520   5.030   4.981   5.948  0.8238  1.5756 -0.3144
13941SOL     OW42521   5.493   6.202   5.786 -0.2324 -0.0413 -0.1694
13941SOL    HW142522   5.399   6.188   5.780 -0.0935 -1.7666  0.8645
13941SOL    HW242523   5.530   6.147   5.717  0.1148 -1.5702  1.1668
13942SOL     OW42524   7.270   2.904   1.229 -0.1504  0.7179 -0.3184
13942SOL    HW142525   7.286   2.960   1.305 -3.0126 -1.1932  1.8800
13942SOL    HW242526   7.337   2.836   1.235  0.2533  1.1331 -0.0712
13943SOL     OW42527   4.219   1.371   5.014 -0.1165  0.1050 -0.4533
13943SOL    HW142528   4.222   1.285   5.056  0.9838  1.1039  1.6723
13943SOL    HW242529   4.198   1.352   4.922 -0.9092 -2.3281  0.1508
13944SOL     OW42530   2.916   3.822   5.200 -0.0463  0.3709 -0.1084
13944SOL    HW142531   2.828   3.836   5.235 -0.5967  0.5220 -1.4958
13944SOL    HW242532   2.966   3.789   5.275 -1.7222 -1.4126  0.3164
13945SOL     OW42533   1.300   5.458   3.001 -0.2936  0.3314  0.1019
13945SOL    HW142534   1.216   5.468   3.045 -0.5800  0.8918 -0.5633
13945SOL    HW242535   1.304   5.365   2.977 -1.6329  0.6790 -1.6489
13946SOL     OW42536   0.516   1.182   1.668 -0.4589  0.6691  0.2671
13946SOL    HW142537   0.591   1.221   1.714 -0.1983  1.7245 -0.9959
13946SOL    HW242538   0.496   1.245   1.598 -0.7613 -0.9466 -1.1501
13947SOL     OW42539   3.710   5.564   3.961  0.2815  0.6051 -0.6380
13947SOL    HW142540   3.772   5.635   3.980  0.9792 -0.0778 -0.3021
13947SOL    HW242541   3.700   5.518   4.044  1.5620 -1.0164 -1.3201
13948SOL     OW42542   6.796   6.630   4.717 -0.0029  0.1764 -0.1874
13948SOL    HW142543   6.715   6.675   4.692 -0.4888 -1.7367 -2.4209
13948SOL    HW242544   6.769   6.568   4.785 -0.2411  0.1084 -0.3434
13949SOL     OW42545   7.155   6.712   1.310 -0.2864 -0.4045 -0.9784
13949SOL    HW142546   7.148   6.632   1.259  1.4523 -1.1953 -0.0615
13949SOL    HW242547   7.098   6.698   1.386  1.7708 -1.8160  0.3917
13950SOL     OW42548   2.198   4.178   6.823  0.0728  0.3704 -0.0771
13950SOL    HW142549   2.156   4.191   6.908 -1.1812 -3.1076  0.0046
13950SOL    HW242550   2.276   4.232   6.826 -1.3260  2.4845  2.1591
13951SOL     OW42551   1.932   2.700   7.373 -0.4352 -0.1981  1.0460
13951SOL    HW142552   1.962   2.612   7.348 -1.0850 -0.4705  1.1920
13951SOL    HW242553   1.893   2.688   7.460 -2.6726 -0.2573  0.1048
13952SOL     OW42554   4.727   4.131   3.584 -0.1388 -0.0639 -0.1568
13952SOL    HW142555   4.712   4.040   3.560 -3.1338 -0.1357  1.5233
13952SOL    HW242556   4.796   4.128   3.650 -0.2509 -1.1437 -0.0732
13953SOL     OW42557   4.389   5.220   1.637  0.0698 -0.4706  1.0358
13953SOL    HW142558   4.431   5.173   1.564 -1.5619 -0.5316  0.0963
13953SOL    HW242559   4.456   5.223   1.705  1.5200 -0.7377 -0.3301
13954SOL     OW42560   6.064   1.140   5.913  0.1346 -0.5718  0.1992
13954SOL    HW142561   6.131   1.207   5.925  0.3149 -0.6383 -0.3668
13954SOL    HW242562   6.095   1.089   5.837  0.1126 -1.4285  0.7457
13955SOL     OW42563   2.754   0.364   5.809 -0.2492 -0.2008  0.5039
13955SOL    HW142564   2.792   0.421   5.743 -1.0902  0.7353  0.7942
13955SOL    HW242565   2.821   0.299   5.827  0.2321 -0.0892 -0.8012
13956SOL     OW42566   0.744   0.541   0.244 -0.3701  0.2000 -0.4120
13956SOL    HW142567   0.689   0.559   0.321  0.6398 -0.5065  0.5180
13956SOL    HW242568   0.789   0.459   0.266  1.1305  0.7995 -1.0860
13957SOL     OW42569   7.467   2.475   4.225 -0.1140 -0.1883  0.1655
13957SOL    HW142570   7.539   2.458   4.286 -0.0634 -1.8816 -0.3299
13957SOL    HW242571   7.409   2.534   4.272  1.9089  1.8413  0.3414
13958SOL     OW42572   2.962   3.175   7.488  0.4893  0.2572  0.3102
13958SOL    HW142573   3.042   3.227   7.481  0.7128 -0.0374  0.6557
13958SOL    HW242574   2.892   3.240   7.498  0.7343  0.5028  0.4487
13959SOL     OW42575   5.809   3.574   1.285 -0.2571  0.1272 -0.6094
13959SOL    HW142576   5.871   3.588   1.356 -0.5728 -1.6139  0.0773
13959SOL    HW242577   5.851   3.507   1.230 -1.9204 -1.9568  0.4983
13960SOL     OW42578   0.246   4.118   1.911  0.6376  0.5825  0.6325
13960SOL    HW142579   0.260   4.046   1.849 -1.0050  0.4522  0.3619
13960SOL    HW242580   0.321   4.176   1.898  1.2396 -0.3515 -0.1906
13961SOL     OW42581   1.942   1.105   3.220  0.1875 -0.5689 -0.4146
13961SOL    HW142582   2.023   1.069   3.257 -0.0987 -2.2515 -1.3336
13961SOL    HW242583   1.884   1.116   3.295  0.9951 -0.0840  0.1497
13962SOL     OW42584   3.126   6.164   5.687  0.2482  0.2934 -0.3633
13962SOL    HW142585   3.139   6.246   5.639  0.5974  0.6029  0.2437
13962SOL    HW242586   3.134   6.096   5.621  0.0082  0.7459 -0.8701
13963SOL     OW42587   1.564   7.682   6.726 -0.3153  0.2136  0.2549
13963SOL    HW142588   1.605   7.636   6.799 -1.0071  0.1863  0.6406
13963SOL    HW242589   1.471   7.683   6.748 -0.3919  1.2242 -0.0699
13964SOL     OW42590   7.897   7.436   3.668  0.5775  0.3462  0.2117
13964SOL    HW142591   7.883   7.529   3.652 -0.4813 -0.3126 -3.7860
13964SOL    HW242592   7.993   7.426   3.667  0.9409  1.6531  4.0136
13965SOL     OW42593   2.285   6.795   0.340  0.2903 -0.0468  0.0869
13965SOL    HW142594   2.264   6.843   0.421  1.2413  1.7250 -0.6604
13965SOL    HW242595   2.278   6.861   0.271 -0.4507 -1.5107 -1.3041
13966SOL     OW42596   1.774   1.459   6.756 -0.0597 -0.6609 -0.2660
13966SOL    HW142597   1.834   1.501   6.817 -0.0426 -0.6619 -0.2821
13966SOL    HW242598   1.689   1.501   6.773 -0.5145 -2.0470  1.1671
13967SOL     OW42599   2.388   6.711   2.795  0.1727 -0.0483  0.2578
13967SOL    HW142600   2.412   6.621   2.770  0.3563  0.0118  0.2152
13967SOL    HW242601   2.298   6.721   2.764  0.3367 -0.0356 -0.2145
13968SOL     OW42602   5.460   1.301   3.636 -0.0095  0.0139 -0.3515
13968SOL    HW142603   5.488   1.321   3.726 -2.1421 -1.0769  0.6183
13968SOL    HW242604   5.518   1.230   3.609  0.9936  0.6940 -0.0746
13969SOL     OW42605   5.783   7.186   5.509  0.4510  0.2001 -0.1894
13969SOL    HW142606   5.723   7.220   5.575  1.8391  0.4695  0.9937
13969SOL    HW242607   5.764   7.236   5.430 -2.0662 -0.9364 -0.4145
13970SOL     OW42608   3.161   2.927   3.590  0.1528  0.1091  0.2027
13970SOL    HW142609   3.130   2.959   3.505 -0.0165  0.7143  0.4950
13970SOL    HW242610   3.256   2.942   3.588  0.2196 -0.2989 -0.0549
13971SOL     OW42611   3.989   4.743   7.414  1.1901  0.6919 -0.0301
13971SOL    HW142612   4.008   4.650   7.428 -1.3892 -0.3893 -2.5148
13971SOL    HW242613   4.039   4.766   7.335 -0.2620  0.5218 -1.0508
13972SOL     OW42614   6.704   4.646   3.063  0.1656 -0.0114 -0.5494
13972SOL    HW142615   6.674   4.672   3.150  1.4294 -0.5950  0.0978
13972SOL    HW242616   6.630   4.599   3.024 -0.3985  0.2187  0.2302
13973SOL     OW42617   1.170   4.755   2.849  0.0483 -0.6446  0.1918
13973SOL    HW142618   1.207   4.702   2.920 -0.1507  0.2277  0.9698
13973SOL    HW242619   1.081   4.776   2.879  0.2309  0.3753  0.0423
13974SOL     OW42620   7.517   2.068   3.870  0.6723 -0.0777 -0.8751
13974SOL    HW142621   7.522   2.119   3.789 -0.5769  1.9421  0.2525
13974SOL    HW242622   7.486   2.130   3.936 -0.5144 -2.2157  0.6873
13975SOL     OW42623   2.907   7.030   2.532  0.1683 -0.0574  0.1563
13975SOL    HW142624   2.950   7.060   2.452 -0.0786  0.7850  0.3364
13975SOL    HW242625   2.819   7.005   2.504 -0.1144  0.7997  0.2620
13976SOL     OW42626   2.874   4.441   5.205 -0.5825  0.2019  0.1144
13976SOL    HW142627   2.891   4.527   5.242  0.1499 -0.5593  1.5967
13976SOL    HW242628   2.785   4.420   5.232 -0.3323 -0.0129  0.7760
13977SOL     OW42629   3.237   4.850   7.339 -0.3988 -0.3523 -0.0737
13977SOL    HW142630   3.285   4.917   7.290 -0.8427  0.1388  0.1569
13977SOL    HW242631   3.291   4.834   7.417 -0.2564 -0.3166 -0.1649
13978SOL     OW42632   5.936   0.404   5.113  0.3603 -0.0633 -0.4079
13978SOL    HW142633   5.844   0.384   5.131  0.5738  0.6881  1.8308
13978SOL    HW242634   5.935   0.444   5.026 -1.3112 -0.6842 -0.7282
13979SOL     OW42635   0.349   0.068   7.093  0.4742  0.3457 -0.1829
13979SOL    HW142636   0.368  -0.018   7.129 -0.2788  0.2699  0.0560
13979SOL    HW242637   0.358   0.057   6.998 -1.9745 -0.6720 -0.3876
13980SOL     OW42638   2.674   5.236   0.398 -0.2527  0.4116  0.2310
13980SOL    HW142639   2.616   5.309   0.419 -0.1569  0.3290  0.8058
13980SOL    HW242640   2.664   5.224   0.304 -0.0042  1.3947  0.0662
13981SOL     OW42641   7.502   1.144   6.291  0.9389 -0.3850 -0.0040
13981SOL    HW142642   7.417   1.103   6.274 -0.6344  2.0848  1.2605
13981SOL    HW242643   7.513   1.207   6.220  1.0528  0.1946  0.5121
13982SOL     OW42644   1.930   1.004   2.039  0.3540 -0.1653  0.2474
13982SOL    HW142645   1.967   0.925   2.077  0.0149  0.5070  2.0891
13982SOL    HW242646   1.992   1.029   1.970  0.4066 -2.0434 -0.4237
13983SOL     OW42647   2.054   4.945   0.780 -0.2078 -0.6131  0.5751
13983SOL    HW142648   2.015   5.003   0.714  1.8546  0.9048  0.5977
13983SOL    HW242649   2.130   4.993   0.812  0.0443 -2.2229  2.5782
13984SOL     OW42650   2.765   2.736   2.593  0.8262 -0.4663  0.2295
13984SOL    HW142651   2.678   2.774   2.603  0.9505  0.2914 -1.3478
13984SOL    HW242652   2.762   2.689   2.510  2.0023 -0.1872  0.0071
13985SOL     OW42653   1.003   7.120   2.305  0.3798  0.2197 -0.2732
13985SOL    HW142654   0.909   7.124   2.288  0.1756 -0.7342  0.5423
13985SOL    HW242655   1.011   7.068   2.385  1.5092  1.5611  0.5257
13986SOL     OW42656   1.479   5.869   7.533 -0.2659 -0.4751  0.4184
13986SOL    HW142657   1.544   5.921   7.486  1.0183 -2.1688  0.1993
13986SOL    HW242658   1.526   5.833   7.608 -0.9698 -1.6314  0.3378
13987SOL     OW42659   0.745   6.019   1.061  0.4897 -0.7876  0.0169
13987SOL    HW142660   0.777   6.109   1.056  0.8907 -0.9488 -4.0775
13987SOL    HW242661   0.819   5.970   1.098  0.4232  0.3974  1.8856
13988SOL     OW42662   0.543   4.998   3.273  0.1272 -0.1619 -0.0430
13988SOL    HW142663   0.500   4.957   3.198  0.7785 -1.6500  0.3384
13988SOL    HW242664   0.508   4.951   3.349  1.7739 -0.8846  0.3251
13989SOL     OW42665   7.076   2.221   2.951 -0.4165 -0.2946 -0.0205
13989SOL    HW142666   7.033   2.230   2.866 -0.1871  1.1937 -0.0107
13989SOL    HW242667   7.158   2.176   2.932 -0.5488 -0.3247 -0.5247
13990SOL     OW42668   6.596   5.274   0.183  0.0284 -0.3771  0.4125
13990SOL    HW142669   6.674   5.305   0.228  0.9730 -0.4557 -1.1229
13990SOL    HW242670   6.590   5.181   0.208 -0.3034 -0.0850  1.4985
13991SOL     OW42671   7.466   6.965   4.733  0.6968  0.4208 -0.5335
13991SOL    HW142672   7.535   6.969   4.667  1.2332  0.2347  0.0057
13991SOL    HW242673   7.385   6.984   4.685  1.2952  2.2865 -0.8848
13992SOL     OW42674   6.125   4.279   4.970 -0.9124 -0.2103  0.4144
13992SOL    HW142675   6.121   4.190   4.936 -1.0772 -0.3549  0.8011
13992SOL    HW242676   6.041   4.318   4.945 -0.2754  0.3065 -0.9980
13993SOL     OW42677   5.203   1.420   6.894 -0.2085  0.3988  0.2153
13993SOL    HW142678   5.201   1.401   6.801  1.8532 -0.1423  0.2170
13993SOL    HW242679   5.259   1.497   6.902 -0.1155  0.2648  1.0171
13994SOL     OW42680   6.378   1.641   2.363  0.0559 -0.1959 -0.3519
13994SOL    HW142681   6.294   1.617   2.325 -0.5947  0.5564  0.5854
13994SOL    HW242682   6.430   1.560   2.360 -1.2628 -1.1092  0.5620
13995SOL     OW42683   1.139   4.193   3.519 -0.3231 -0.1436  0.1224
13995SOL    HW142684   1.223   4.188   3.565  0.7626 -1.6999 -1.8654
13995SOL    HW242685   1.080   4.138   3.571 -0.2859  1.2886  1.7647
13996SOL     OW42686   5.379   3.311   3.293 -0.1619 -0.1379  0.0499
13996SOL    HW142687   5.385   3.240   3.229 -4.1574 -0.1110 -0.6564
13996SOL    HW242688   5.303   3.288   3.346  0.0911  2.2786  1.5945
13997SOL     OW42689   7.949   0.344   3.876 -0.0512  0.1607  0.3402
13997SOL    HW142690   7.951   0.327   3.971  0.6510  1.7836  0.6466
13997SOL    HW242691   8.033   0.313   3.844 -0.1036  0.0408  0.3166
13998SOL     OW42692   5.719   1.395   3.569 -0.0617 -0.2915 -0.1185
13998SOL    HW142693   5.741   1.410   3.477 -1.7254  1.9905 -0.2187
13998SOL    HW242694   5.718   1.300   3.578 -1.0340 -0.6232 -2.7827
13999SOL     OW42695   2.296   4.501   0.108  0.3874 -0.8064  0.4127
13999SOL    HW142696   2.285   4.547   0.191  0.4092 -0.6299  0.3192
13999SOL    HW242697   2.330   4.568   0.048 -0.3137 -0.7473  0.0706
14000SOL     OW42698   0.313   7.855   3.895 -0.6088 -0.9055 -0.1240
14000SOL    HW142699   0.349   7.920   3.955 -1.8918 -1.3066  1.1589
14000SOL    HW242700   0.228   7.890   3.868 -0.7699 -1.4761 -0.3919
14001SOL     OW42701   6.547   0.634   2.122  0.3163  0.0992  0.1273
14001SOL    HW142702   6.478   0.698   2.136 -1.4087 -0.7645 -3.2759
14001SOL    HW242703   6.532   0.567   2.188 -0.1789  1.3622  1.3414
14002SOL     OW42704   7.309   0.529   5.869 -0.0655 -0.2563 -0.1679
14002SOL    HW142705   7.256   0.560   5.797  0.3995  1.0452  0.0194
14002SOL    HW242706   7.272   0.443   5.892 -1.8532  0.4554 -0.2517
14003SOL     OW42707   3.960   3.464   7.834  0.1235  0.4831 -0.0331
14003SOL    HW142708   3.944   3.375   7.864 -1.8196  0.3312 -1.2933
14003SOL    HW242709   4.051   3.464   7.804  0.3551 -0.8778  0.6172
14004SOL     OW42710   1.167   1.789   7.410 -0.4253  0.3290  0.3231
14004SOL    HW142711   1.215   1.707   7.422  1.4222  1.2795 -0.1312
14004SOL    HW242712   1.169   1.830   7.497 -0.9680  0.1014  0.4466
14005SOL     OW42713   0.025   6.920   5.191  0.2747  0.3970 -0.4873
14005SOL    HW142714   0.003   6.941   5.101 -0.5557  1.3303 -0.0862
14005SOL    HW242715  -0.036   6.851   5.216 -1.1468  1.7714  0.0681
14006SOL     OW42716   2.986   7.435   1.582 -0.4122  0.1087 -0.0499
14006SOL    HW142717   3.073   7.432   1.622 -0.8286  2.8611  1.3271
14006SOL    HW242718   3.002   7.421   1.489  1.8578  2.4739 -0.1302
14007SOL     OW42719   7.695   4.250   4.914 -0.5306 -0.1452 -0.1648
14007SOL    HW142720   7.599   4.261   4.914 -0.5024  0.1752  0.8343
14007SOL    HW242721   7.728   4.332   4.950  0.1323 -0.2544 -0.5069
14008SOL     OW42722   3.033   1.252   6.253 -0.0770 -0.0416  0.2720
14008SOL    HW142723   3.022   1.167   6.296  0.1159  0.2569  0.9349
14008SOL    HW242724   3.012   1.236   6.161 -1.6679 -0.4474  0.6752
14009SOL     OW42725   7.896   6.468   6.923 -0.1814 -0.4297  0.4000
14009SOL    HW142726   7.857   6.438   6.840 -1.1768  0.6349  0.4545
14009SOL    HW242727   7.990   6.470   6.906 -0.3059 -1.1033 -0.4130
14010SOL     OW42728   7.094   2.028   6.773 -0.4786  0.3210 -0.3170
14010SOL    HW142729   7.120   2.036   6.865  2.1333  1.1628 -1.0391
14010SOL    HW242730   7.095   1.934   6.756  1.0875  0.2488  0.0254
14011SOL     OW42731   6.709   0.212   0.593 -0.4225 -0.1237  0.3086
14011SOL    HW142732   6.657   0.232   0.671 -0.8332 -0.0154  0.0109
14011SOL    HW242733   6.655   0.153   0.542  0.4398 -1.3703  0.7760
14012SOL     OW42734   2.560   5.482   0.471  0.0363 -0.2661 -0.2049
14012SOL    HW142735   2.632   5.508   0.414 -0.0968 -1.2630 -0.8516
14012SOL    HW242736   2.486   5.535   0.441 -0.1277 -1.0315 -1.2389
14013SOL     OW42737   5.611   3.962   1.333  0.1119 -0.4491 -0.5827
14013SOL    HW142738   5.521   3.943   1.359  0.2237 -0.4047 -0.1620
14013SOL    HW242739   5.647   4.013   1.406  0.3105 -0.0044 -0.9882
14014SOL     OW42740   6.669   4.766   2.170 -0.2085  0.3016 -0.3639
14014SOL    HW142741   6.653   4.745   2.262 -0.6513 -0.8498 -0.6868
14014SOL    HW242742   6.753   4.813   2.170  0.0860 -0.2130  0.5639
14015SOL     OW42743   3.875   3.327   5.951 -0.3213 -0.2226  0.1416
14015SOL    HW142744   3.889   3.340   5.858 -0.3321 -2.0343 -0.1448
14015SOL    HW242745   3.946   3.377   5.993 -1.2896  1.9961 -0.7157
14016SOL     OW42746   0.450   3.283   5.821  0.6312  0.1126  0.2061
14016SOL    HW142747   0.419   3.242   5.740  0.8068  0.0649  0.1630
14016SOL    HW242748   0.453   3.377   5.802 -0.5882  0.2479  0.5691
14017SOL     OW42749   0.425   2.769   1.807  0.0374  0.0368  0.4713
14017SOL    HW142750   0.426   2.681   1.769 -2.5839 -0.3843  1.2023
14017SOL    HW242751   0.419   2.827   1.731  0.2046 -0.4747  0.0539
14018SOL     OW42752   2.484   5.422   1.550 -0.3673 -0.2639 -0.1179
14018SOL    HW142753   2.510   5.494   1.607 -0.0821  1.2207 -2.0397
14018SOL    HW242754   2.566   5.389   1.513 -0.6328 -0.5020 -0.5047
14019SOL     OW42755   3.423   3.865   7.205  0.2320  0.1453 -0.1520
14019SOL    HW142756   3.453   3.779   7.236  2.8300  0.6528 -1.0176
14019SOL    HW242757   3.425   3.857   7.109 -0.8565  0.7805 -0.2440
14020SOL     OW42758   0.611   2.437   4.466  0.3060 -0.0741  0.2248
14020SOL    HW142759   0.615   2.428   4.561 -1.8458  0.5679  0.4277
14020SOL    HW242760   0.518   2.443   4.446  0.7506  1.0644 -1.8098
14021SOL     OW42761   3.664   5.154   7.367 -0.2098  0.2541 -0.2323
14021SOL    HW142762   3.621   5.238   7.385 -0.9336 -0.0471 -0.5384
14021SOL    HW242763   3.595   5.099   7.331  0.2285 -0.5306  0.1227
14022SOL     OW42764   0.372   1.253   6.684  0.2962 -0.7730 -0.0493
14022SOL    HW142765   0.335   1.325   6.634 -1.4292 -1.1807  0.5660
14022SOL    HW242766   0.313   1.179   6.667  1.9452 -2.0343 -0.5718
14023SOL     OW42767   3.779   5.994   3.034  0.4972 -0.0408 -0.3231
14023SOL    HW142768   3.768   5.910   3.080  1.1394 -0.6931 -1.3223
14023SOL    HW242769   3.872   6.015   3.044  0.2912  0.6850  0.1270
14024SOL     OW42770   6.648   3.233   6.448  0.9002 -0.4888  0.0158
14024SOL    HW142771   6.673   3.316   6.408 -0.1130 -1.0693 -1.9447
14024SOL    HW242772   6.670   3.243   6.541  2.3064  1.3463 -0.4612
14025SOL     OW42773   0.785   4.968   1.888  0.2047  0.4950  0.0651
14025SOL    HW142774   0.810   4.897   1.827 -0.4700  0.2680  0.0432
14025SOL    HW242775   0.810   4.935   1.974 -0.3585  0.1134  0.0833
14026SOL     OW42776   6.439   1.918   7.159 -0.2484  0.7456 -0.8745
14026SOL    HW142777   6.512   1.939   7.100  0.2200  0.3774 -0.4355
14026SOL    HW242778   6.375   1.874   7.103  0.9369 -1.2140 -0.7974
14027SOL     OW42779   4.174   7.426   0.298  1.0329  0.0457 -0.0382
14027SOL    HW142780   4.199   7.338   0.269 -0.5054 -0.6366  0.5766
14027SOL    HW242781   4.235   7.447   0.369  0.7214 -1.0098  0.5639
14028SOL     OW42782   5.178   0.261   0.056  0.0384 -0.3862  0.5642
14028SOL    HW142783   5.140   0.315   0.125 -1.0201 -0.8818  0.3903
14028SOL    HW242784   5.268   0.293   0.047 -0.4065  1.0124  0.8067
14029SOL     OW42785   3.722   6.992   5.451 -0.0529 -0.0216 -0.0355
14029SOL    HW142786   3.777   7.070   5.457  0.8680 -0.5229 -1.4955
14029SOL    HW242787   3.655   7.005   5.518  0.0231  2.0618 -0.2887
14030SOL     OW42788   2.562   3.708   0.014 -0.2585 -0.0572 -0.4913
14030SOL    HW142789   2.574   3.656   0.094 -0.5192  0.4219 -0.1312
14030SOL    HW242790   2.518   3.649  -0.047 -2.8830  0.4517  0.7729
14031SOL     OW42791   3.725   2.608   3.396  0.1511 -0.1997  0.0832
14031SOL    HW142792   3.788   2.651   3.454 -0.4318  0.1747  0.4533
14031SOL    HW242793   3.639   2.633   3.431 -0.2132 -1.6252  0.2706
14032SOL     OW42794   6.344   5.323   2.957  0.0775 -0.1680 -0.2214
14032SOL    HW142795   6.408   5.307   3.026 -1.0995 -2.3727  0.4569
14032SOL    HW242796   6.263   5.283   2.989 -0.4231 -1.7148 -2.9959
14033SOL     OW42797   6.842   2.267   4.817 -0.3173 -0.0703 -0.0832
14033SOL    HW142798   6.770   2.206   4.832  0.8956 -1.0883  2.1376
14033SOL    HW242799   6.856   2.309   4.902  0.5146  1.4919 -0.9397
14034SOL     OW42800   2.849   5.764   0.529  0.2265  0.6611  0.2342
14034SOL    HW142801   2.930   5.781   0.577  0.0486 -0.5489  1.0229
14034SOL    HW242802   2.790   5.834   0.556  0.9709  1.5247 -0.3057
14035SOL     OW42803   0.284   7.862   3.533  0.0826 -0.3496  0.0541
14035SOL    HW142804   0.277   7.809   3.453  2.2504 -0.8339  0.1391
14035SOL    HW242805   0.377   7.860   3.555 -0.3090  0.7208  1.9733
14036SOL     OW42806   4.715   3.132   4.291  0.6131  0.1073 -0.1721
14036SOL    HW142807   4.711   3.214   4.339 -0.2955 -0.4847  0.8122
14036SOL    HW242808   4.693   3.065   4.356  2.2509 -1.0206 -0.7093
14037SOL     OW42809   0.326   0.831   6.782 -0.0815 -0.0511 -0.2935
14037SOL    HW142810   0.394   0.860   6.721  0.8124  0.1222  0.7625
14037SOL    HW242811   0.334   0.736   6.783  0.1181 -0.0347 -0.2170
14038SOL     OW42812   4.937   0.357   6.794 -0.2164  0.3734 -0.0219
14038SOL    HW142813   4.899   0.409   6.865 -0.2986  1.1141 -0.5998
14038SOL    HW242814   4.992   0.419   6.746  0.8489 -0.4195  0.1442
14039SOL     OW42815   5.807   2.520   3.213 -0.6710  0.8396 -0.4180
14039SOL    HW142816   5.761   2.498   3.132 -0.2747 -2.2187  0.0607
14039SOL    HW242817   5.896   2.541   3.185  0.1854 -2.6832 -0.7314
14040SOL     OW42818   2.786   7.191   5.640 -0.1756 -0.3518 -0.1560
14040SOL    HW142819   2.876   7.197   5.670 -0.1800 -0.1747 -0.1771
14040SOL    HW242820   2.790   7.142   5.558  0.0971  1.0528 -1.0162
14041SOL     OW42821   3.557   2.216   0.749 -0.2703 -0.1022  0.6011
14041SOL    HW142822   3.629   2.228   0.812 -0.4832 -0.7111  0.9711
14041SOL    HW242823   3.545   2.121   0.745 -2.0800  0.0330  1.7155
14042SOL     OW42824   7.134   5.501   0.586 -0.1363 -0.1352  0.2304
14042SOL    HW142825   7.155   5.452   0.507 -0.0780 -0.5774  0.5222
14042SOL    HW242826   7.218   5.514   0.630 -0.2351 -0.3230  0.4746
14043SOL     OW42827   1.755   7.265   3.028 -0.6378  0.9995 -0.0966
14043SOL    HW142828   1.776   7.224   2.945 -0.6901  0.6111  0.0795
14043SOL    HW242829   1.834   7.312   3.053 -0.1989  0.1124  0.2308
14044SOL     OW42830   0.329   1.869   5.311  0.6349 -0.1472 -0.1683
14044SOL    HW142831   0.259   1.839   5.369 -0.9687  1.7802 -1.0076
14044SOL    HW242832   0.362   1.949   5.352  1.2768 -0.1851 -0.5970
14045SOL     OW42833   4.435   4.058   4.940  0.6076 -0.3000 -0.4105
14045SOL    HW142834   4.498   4.082   4.873  0.3606 -1.0634 -0.9356
14045SOL    HW242835   4.360   4.024   4.891 -0.4653  1.1396  0.1724
14046SOL     OW42836   3.484   5.200   2.299 -0.3324  0.2310 -0.0737
14046SOL    HW142837   3.552   5.161   2.355  0.1048 -0.6511 -1.1757
14046SOL    HW242838   3.410   5.215   2.358  0.7565  1.1187  1.1366
14047SOL     OW42839   5.919   1.518   1.970 -0.1974  0.0360 -0.0335
14047SOL    HW142840   5.885   1.444   1.920 -0.4656 -0.7555  1.2897
14047SOL    HW242841   5.946   1.581   1.903 -0.1309 -1.1697 -1.1854
14048SOL     OW42842   3.560   1.528   6.813  0.4869 -0.0067 -0.4018
14048SOL    HW142843   3.498   1.507   6.743 -0.5788 -1.0812  0.8158
14048SOL    HW242844   3.507   1.570   6.881  1.3642  0.3691  0.0657
14049SOL     OW42845   3.682   3.591   5.316  0.4644 -0.0369 -0.3690
14049SOL    HW142846   3.765   3.545   5.323  0.1642 -0.7209 -1.2084
14049SOL    HW242847   3.673   3.612   5.223 -1.2706 -1.8573 -0.6808
14050SOL     OW42848   2.132   0.740   4.353  0.8326  0.0168  0.8578
14050SOL    HW142849   2.096   0.677   4.416 -1.1187 -0.7288 -0.9021
14050SOL    HW242850   2.071   0.813   4.354  1.6743  0.7345  0.9753
14051SOL     OW42851   4.989   4.763   1.190 -0.3673 -0.7070 -0.2443
14051SOL    HW142852   4.997   4.708   1.112 -0.6412 -0.5581 -0.3785
14051SOL    HW242853   4.960   4.703   1.259 -1.5482 -0.5736 -0.6020
14052SOL     OW42854   2.709   3.734   6.676 -0.4167 -0.6462 -0.0600
14052SOL    HW142855   2.732   3.653   6.630 -2.1521 -1.4976  0.4959
14052SOL    HW242856   2.764   3.733   6.754  1.9480  0.3939 -1.5874
14053SOL     OW42857   0.786   7.417   5.140  0.1307 -0.0303 -0.0672
14053SOL    HW142858   0.796   7.491   5.081  1.1292  0.5053  0.7381
14053SOL    HW242859   0.691   7.406   5.149 -0.0275  0.5037 -0.9686
14054SOL     OW42860   4.192   4.745   4.443  0.7242 -0.0218  0.2168
14054SOL    HW142861   4.121   4.808   4.461  0.9438  0.3132 -0.0770
14054SOL    HW242862   4.235   4.780   4.365 -1.2954 -2.3245 -2.1314
14055SOL     OW42863   5.356   0.082   1.555 -0.0316 -0.0632  0.4168
14055SOL    HW142864   5.335   0.002   1.604  0.2732 -0.5707 -0.2710
14055SOL    HW242865   5.322   0.067   1.467 -2.6989  1.7858  1.0045
14056SOL     OW42866   2.123   7.532   1.953  0.1622 -0.0155 -0.2547
14056SOL    HW142867   2.214   7.539   1.982 -0.2750 -0.0202  1.1673
14056SOL    HW242868   2.076   7.495   2.028 -1.5623  2.7811  0.1625
14057SOL     OW42869   3.302   1.118   1.239  0.2056 -0.3971 -0.6374
14057SOL    HW142870   3.223   1.121   1.293 -0.4846  1.8353 -1.6512
14057SOL    HW242871   3.374   1.132   1.301 -0.5041  1.2907 -0.1536
14058SOL     OW42872   3.120   5.093   1.588 -0.4558  0.0878  0.2797
14058SOL    HW142873   3.196   5.037   1.572  0.1511  0.7654  0.7022
14058SOL    HW242874   3.158   5.176   1.619 -1.3625  0.4851  0.3504
14059SOL     OW42875   1.458   4.470   1.051  0.4513 -0.5388  0.3335
14059SOL    HW142876   1.527   4.456   1.116 -1.8337 -0.6554  2.9209
14059SOL    HW242877   1.415   4.385   1.044  0.9794 -0.6750 -1.8518
14060SOL     OW42878   5.970   5.596   6.411  0.5150 -0.3511 -0.0119
14060SOL    HW142879   5.986   5.642   6.329 -3.3759  1.3596 -0.0562
14060SOL    HW242880   5.913   5.523   6.386 -1.3573  0.6341  1.1298
14061SOL     OW42881   4.036   5.510   1.299  0.2159  0.2299 -0.1817
14061SOL    HW142882   3.945   5.511   1.328 -0.1384  1.8485 -1.1966
14061SOL    HW242883   4.062   5.418   1.303 -1.1518 -0.1435  1.0249
14062SOL     OW42884   3.483   0.040   4.815 -0.4409 -0.4119  0.6180
14062SOL    HW142885   3.553  -0.020   4.788  1.3579  2.1702 -0.9511
14062SOL    HW242886   3.432   0.055   4.736  0.5133  1.7369  0.3398
14063SOL     OW42887   6.067   2.305   1.890 -0.3951  0.5484  0.0028
14063SOL    HW142888   6.154   2.324   1.926 -0.5053 -0.4782  0.8820
14063SOL    HW242889   6.074   2.323   1.797  1.2210 -0.9470 -0.2119
14064SOL     OW42890   1.251   4.242   2.918  0.2535 -0.2162 -0.2160
14064SOL    HW142891   1.283   4.158   2.885 -0.0373 -0.4750  0.1652
14064SOL    HW242892   1.311   4.307   2.879  1.0542 -0.6700  0.2394
14065SOL     OW42893   5.437   3.807   6.496 -0.2162 -0.0898 -0.7365
14065SOL    HW142894   5.381   3.730   6.501  0.4574 -0.5166  0.8974
14065SOL    HW242895   5.376   3.881   6.504 -0.6540 -0.5189 -0.0039
14066SOL     OW42896   4.455   6.165   3.350  0.3643  0.2521 -0.4434
14066SOL    HW142897   4.414   6.170   3.437 -0.7145 -0.6358 -0.8756
14066SOL    HW242898   4.544   6.136   3.368 -0.3670 -1.7875  0.3105
14067SOL     OW42899   7.209   3.178   3.087 -0.1926 -0.3229 -0.2555
14067SOL    HW142900   7.291   3.152   3.044  0.9584  1.1916  0.8944
14067SOL    HW242901   7.235   3.249   3.146 -2.1028 -0.8309  1.2729
14068SOL     OW42902   4.416   7.032   6.195 -0.2794  0.3682 -0.2774
14068SOL    HW142903   4.404   6.938   6.183 -0.4041  0.2524  0.6413
14068SOL    HW242904   4.501   7.051   6.155 -1.0224  0.1939 -2.0113
14069SOL     OW42905   6.865   6.609   5.254  0.2742  0.1738  0.0842
14069SOL    HW142906   6.853   6.694   5.295  1.5783 -0.4319  1.8346
14069SOL    HW242907   6.949   6.616   5.209  0.4391 -0.2204  0.3276
14070SOL     OW42908   3.233   6.755   2.205  0.3635  0.6847 -0.0683
14070SOL    HW142909   3.243   6.832   2.261 -1.5814  0.4374  0.7175
14070SOL    HW242910   3.147   6.767   2.163  1.3652  0.4342 -2.3775
14071SOL     OW42911   7.829   6.862   1.646  0.2210  0.6258 -0.4255
14071SOL    HW142912   7.920   6.883   1.669  0.7387 -0.4012 -1.4455
14071SOL    HW242913   7.797   6.942   1.603  1.1823  0.4680 -1.5158
14072SOL     OW42914   1.143   4.331   0.805  0.5904 -0.0775 -0.0128
14072SOL    HW142915   1.232   4.366   0.802  0.3777  0.4120 -1.5035
14072SOL    HW242916   1.154   4.236   0.807  1.1374 -0.0097  0.4860
14073SOL     OW42917   0.352   6.724   1.601 -0.2394  0.0816  0.0506
14073SOL    HW142918   0.441   6.757   1.593 -1.0001  2.1188 -0.8266
14073SOL    HW242919   0.349   6.681   1.686  1.4102  0.4686  0.3284
14074SOL     OW42920   0.048   2.919   6.371  0.1986 -0.8249 -0.1674
14074SOL    HW142921   0.107   2.924   6.445  1.1792 -0.9556 -0.9250
14074SOL    HW242922   0.100   2.880   6.300 -0.7340 -0.7917 -0.8990
14075SOL     OW42923   4.196   7.290   4.446  0.6393 -0.1263  0.4990
14075SOL    HW142924   4.244   7.288   4.363  1.3307 -1.4503  0.9082
14075SOL    HW242925   4.104   7.284   4.420  0.7182  1.3166 -0.2420
14076SOL     OW42926   6.586   2.408   4.371 -0.2484  0.6748 -0.1898
14076SOL    HW142927   6.648   2.374   4.436 -2.1170  0.1783  1.4684
14076SOL    HW242928   6.535   2.331   4.345  0.1570  0.9709 -1.9367
14077SOL     OW42929   3.615   0.528   7.651  0.8976 -0.9227 -0.5116
14077SOL    HW142930   3.546   0.463   7.663  0.4884 -0.7639 -1.8171
14077SOL    HW242931   3.571   0.612   7.660  1.5813 -0.7760  2.0041
14078SOL     OW42932   2.989   0.344   7.618 -0.1739 -0.5183  0.7414
14078SOL    HW142933   2.979   0.392   7.535 -0.6182 -0.9172  0.5593
14078SOL    HW242934   3.083   0.328   7.624 -0.3454 -2.8214 -1.0586
14079SOL     OW42935   3.513   4.096   4.863 -0.2076 -0.0936  0.0617
14079SOL    HW142936   3.534   4.075   4.772  0.1107 -0.9778  0.3235
14079SOL    HW242937   3.420   4.119   4.862 -1.0346 -2.9957 -0.0772
14080SOL     OW42938   2.056   3.925   6.445 -0.9198  0.2164 -0.4263
14080SOL    HW142939   2.107   3.976   6.508 -2.2961  0.2963  0.6642
14080SOL    HW242940   2.118   3.908   6.374  1.0665 -0.8983  1.4298
14081SOL     OW42941   4.112   1.714   1.959 -0.3818  0.3189  0.0933
14081SOL    HW142942   4.135   1.781   2.024  0.9545 -0.4864  0.4713
14081SOL    HW242943   4.096   1.635   2.011  0.6619 -0.3262 -0.5459
14082SOL     OW42944   0.395   6.026   3.553  0.3497  0.3584  0.0005
14082SOL    HW142945   0.337   5.985   3.490 -0.3673  0.7136  0.4164
14082SOL    HW242946   0.443   5.953   3.593 -0.9597 -0.1071  0.7782
14083SOL     OW42947   1.024   2.498   3.627 -0.2069  0.4490 -0.5695
14083SOL    HW142948   0.989   2.561   3.690  0.3782  0.3683 -0.1660
14083SOL    HW242949   1.116   2.489   3.649 -0.2408 -0.4165 -0.7444
14084SOL     OW42950   0.708   6.575   1.692  0.3140  0.0225 -0.0630
14084SOL    HW142951   0.794   6.538   1.672  0.5211  0.1622  0.5528
14084SOL    HW242952   0.647   6.527   1.635  0.9383  0.7397 -1.3824
14085SOL     OW42953   1.405   4.358   5.962 -0.1718  0.0861  0.0602
14085SOL    HW142954   1.362   4.350   5.877 -0.5707  0.6466  0.2003
14085SOL    HW242955   1.498   4.360   5.942 -0.0284 -3.0678 -0.1304
14086SOL     OW42956   7.923   7.025   1.362 -0.5348 -0.6101  0.2789
14086SOL    HW142957   7.987   7.085   1.401 -0.1555 -0.3530 -0.7104
14086SOL    HW242958   7.853   7.020   1.427 -0.2672  0.3892  0.6715
14087SOL     OW42959   4.591   6.680   5.964 -0.0006 -0.7915  0.2249
14087SOL    HW142960   4.680   6.703   5.937  0.0779  0.5525  1.4953
14087SOL    HW242961   4.540   6.683   5.884  0.6481  0.8399 -0.1590
14088SOL     OW42962   6.934   3.210   6.791 -0.1849  0.0455 -0.6912
14088SOL    HW142963   6.980   3.156   6.727  1.0213 -1.9773  1.7161
14088SOL    HW242964   6.862   3.155   6.822  0.4609  0.1509  1.0970
14089SOL     OW42965   4.473   4.648   6.257  0.3538  0.4845  0.1149
14089SOL    HW142966   4.466   4.743   6.248  0.9582  0.4903 -0.3701
14089SOL    HW242967   4.524   4.635   6.336  2.6208  0.6460 -1.2374
14090SOL     OW42968   0.213   5.173   0.581 -0.7362 -0.0741 -0.3990
14090SOL    HW142969   0.171   5.232   0.519 -1.6765 -0.4588 -0.1513
14090SOL    HW242970   0.306   5.178   0.561 -0.9730  0.2408 -1.4588
14091SOL     OW42971   1.775   6.797   4.981  0.3419  0.1190 -0.6654
14091SOL    HW142972   1.757   6.850   4.903  0.6180 -0.4210 -1.1051
14091SOL    HW242973   1.690   6.761   5.006  0.3903 -0.4257 -1.2561
14092SOL     OW42974   3.486   5.326   4.201 -0.5074 -0.1381  0.4839
14092SOL    HW142975   3.574   5.335   4.238 -1.1373 -0.4250  2.1062
14092SOL    HW242976   3.459   5.238   4.226 -1.6558  0.3155  0.8588
14093SOL     OW42977   6.352   4.147   0.730 -0.5416  0.1597  0.1715
14093SOL    HW142978   6.286   4.212   0.705  0.4123  1.6587  1.3710
14093SOL    HW242979   6.338   4.133   0.824 -0.7277 -1.3973 -0.0635
14094SOL     OW42980   5.626   7.680   6.166 -0.4705 -0.7567  0.4281
14094SOL    HW142981   5.536   7.678   6.198 -0.6265  0.9911  0.1773
14094SOL    HW242982   5.679   7.687   6.245 -0.5146 -1.8567  0.5819
14095SOL     OW42983   7.459   1.853   4.483 -0.0356  0.2248  0.2267
14095SOL    HW142984   7.532   1.878   4.538 -0.5062  2.1193  0.0379
14095SOL    HW242985   7.388   1.833   4.545 -0.5105  2.1776  0.3557
14096SOL     OW42986   2.223   6.890   0.605 -0.0339 -0.1408  0.2107
14096SOL    HW142987   2.266   6.857   0.684  0.3483 -1.3685 -0.4836
14096SOL    HW242988   2.159   6.953   0.637  0.6050 -0.0923  1.4451
14097SOL     OW42989   7.495   0.492   0.527  0.3966  0.1509  0.1401
14097SOL    HW142990   7.546   0.564   0.489 -0.3488  0.5428 -0.1276
14097SOL    HW242991   7.531   0.414   0.484  3.0141  0.0108  2.3146
14098SOL     OW42992   2.443   6.306   4.371 -0.1996  0.4168 -0.2651
14098SOL    HW142993   2.382   6.338   4.438 -1.2897 -0.8918 -0.5915
14098SOL    HW242994   2.439   6.371   4.301 -3.2410 -0.8724 -1.4268
14099SOL     OW42995   7.732   4.002   2.602 -0.0029 -0.1547  0.0671
14099SOL    HW142996   7.736   4.027   2.510 -0.1335 -0.0614  0.0860
14099SOL    HW242997   7.733   3.907   2.602 -0.0461 -0.1550 -0.0323
14100SOL     OW42998   0.362   2.209   6.793  0.3241 -0.0194 -0.3576
14100SOL    HW142999   0.342   2.145   6.861  0.0804  0.3440 -0.0882
14100SOL    HW243000   0.294   2.276   6.801 -0.7912 -0.8631 -2.1176
14101SOL     OW43001   6.213   6.047   3.330  0.1044  0.4963 -0.3231
14101SOL    HW143002   6.237   5.991   3.257 -0.7169  1.9856 -1.8256
14101SOL    HW243003   6.189   5.987   3.401  1.1368 -0.9831 -1.1990
14102SOL     OW43004   2.221   6.412   3.888  0.4558 -0.7177 -0.0125
14102SOL    HW143005   2.192   6.417   3.979 -2.2853  1.0357 -0.8425
14102SOL    HW243006   2.175   6.334   3.854 -0.1942 -0.1859 -0.3733
14103SOL     OW43007   7.293   7.022   5.510 -0.2331 -0.0100  0.0426
14103SOL    HW143008   7.257   6.948   5.559  0.1905 -0.5224 -0.4125
14103SOL    HW243009   7.234   7.032   5.436 -1.3751  1.3102  1.0645
14104SOL     OW43010   3.342   6.571   2.036 -0.1261 -0.0885  0.0442
14104SOL    HW143011   3.270   6.516   2.005 -0.5015 -0.4651  1.4955
14104SOL    HW243012   3.299   6.647   2.074  0.2984  0.2293 -0.1128
14105SOL     OW43013   6.351   2.617   3.911  0.3080 -0.2629 -0.6892
14105SOL    HW143014   6.433   2.573   3.887  2.2249  3.0063 -0.6714
14105SOL    HW243015   6.311   2.558   3.975  1.9817 -2.5861 -1.6424
14106SOL     OW43016   1.792   2.492   3.244  0.2803 -0.4788 -0.7120
14106SOL    HW143017   1.768   2.581   3.221  0.1685  0.4580  2.5272
14106SOL    HW243018   1.748   2.437   3.179 -0.4718  1.7411 -2.1767
14107SOL     OW43019   6.774   5.229   2.660 -0.0371 -0.0259 -0.4670
14107SOL    HW143020   6.708   5.170   2.696 -0.8967  1.4121  0.4534
14107SOL    HW243021   6.727   5.279   2.593  0.1343  0.8469  0.0320
14108SOL     OW43022   1.401   4.590   0.544  0.6188  0.2940  0.4732
14108SOL    HW143023   1.417   4.567   0.635  1.2104  0.8691  0.5209
14108SOL    HW243024   1.398   4.506   0.498  1.8562  0.0625  0.7814
14109SOL     OW43025   0.945   1.398   7.828  0.4259  0.7604 -0.1109
14109SOL    HW143026   0.973   1.439   7.746 -0.3562 -1.2088 -1.4333
14109SOL    HW243027   0.853   1.424   7.838 -0.2639 -1.0253 -1.2829
14110SOL     OW43028   2.872   3.660   6.068  0.3393 -0.2486  0.6729
14110SOL    HW143029   2.839   3.739   6.111  0.8782  0.2299  0.2027
14110SOL    HW243030   2.845   3.669   5.977  1.2696 -0.1335  0.4087
14111SOL     OW43031   5.420   5.843   4.569  0.3571  0.1031 -0.5164
14111SOL    HW143032   5.328   5.869   4.565 -0.1491 -1.5176 -0.3695
14111SOL    HW243033   5.454   5.864   4.482 -0.7942 -1.3648 -1.3657
14112SOL     OW43034   0.596   3.763   2.803 -0.8712  0.2508 -0.5065
14112SOL    HW143035   0.524   3.727   2.751 -1.1541  3.2181 -2.4019
14112SOL    HW243036   0.668   3.701   2.791 -2.3054 -1.5015 -0.5832
14113SOL     OW43037   4.132   6.803   1.179  0.0137 -0.1917  0.2518
14113SOL    HW143038   4.105   6.827   1.091  1.3423 -1.1645 -0.4565
14113SOL    HW243039   4.052   6.768   1.220 -0.4911 -0.2388 -0.7399
14114SOL     OW43040   3.308   2.741   6.565 -0.2236  0.4947  0.3019
14114SOL    HW143041   3.356   2.696   6.496 -0.5902 -1.8640  1.4548
14114SOL    HW243042   3.230   2.775   6.521  0.3329  0.4860 -0.7355
14115SOL     OW43043   4.337   1.994   5.594  0.4640  0.3329  0.0688
14115SOL    HW143044   4.421   2.023   5.558  0.9053  0.3698  1.0881
14115SOL    HW243045   4.359   1.961   5.681 -0.5160 -0.0959  0.1636
14116SOL     OW43046   7.370   4.400   7.034 -0.0233  0.3035 -0.3407
14116SOL    HW143047   7.322   4.343   7.095 -0.1234  0.7523 -0.0008
14116SOL    HW243048   7.338   4.374   6.947 -0.3134  0.0728 -0.1671
14117SOL     OW43049   4.725   2.965   2.158  0.0361  0.2622 -0.5580
14117SOL    HW143050   4.746   2.915   2.079  0.1819  1.5164 -1.3457
14117SOL    HW243051   4.637   2.999   2.142  0.1372  0.6683 -0.2698
14118SOL     OW43052   5.511   2.858   0.210  0.3508 -0.2215 -0.0763
14118SOL    HW143053   5.586   2.868   0.268 -0.4973  0.3731  0.9565
14118SOL    HW243054   5.462   2.784   0.247 -0.1835  0.1458 -0.0485
14119SOL     OW43055   5.970   3.192   0.778 -0.2993  0.0815 -0.4254
14119SOL    HW143056   6.026   3.212   0.852 -1.7106  1.1220  0.4175
14119SOL    HW243057   6.003   3.109   0.744  2.4167  1.1727 -0.6888
14120SOL     OW43058   2.600   4.573   4.647  0.1862 -0.3309 -0.1407
14120SOL    HW143059   2.597   4.484   4.612  0.4991 -0.2748 -0.3083
14120SOL    HW243060   2.645   4.564   4.731 -1.4750 -0.6309  0.7604
14121SOL     OW43061   7.280   1.345   6.504 -0.7641  0.2554 -0.2301
14121SOL    HW143062   7.222   1.312   6.435 -0.1361 -0.2331 -0.5326
14121SOL    HW243063   7.302   1.267   6.555 -1.3051  0.6302  0.5960
14122SOL     OW43064   0.272   5.568   0.985  0.0868 -0.1140  0.3780
14122SOL    HW143065   0.180   5.564   1.013 -0.4898 -1.5763 -1.5552
14122SOL    HW243066   0.299   5.658   1.006 -1.2204 -0.1560  2.5603
14123SOL     OW43067   1.073   7.528   0.564  0.3320  0.7515 -0.1266
14123SOL    HW143068   1.005   7.468   0.533 -0.6432  0.8267  1.6929
14123SOL    HW243069   1.091   7.584   0.489 -1.6728  0.7648 -0.6754
14124SOL     OW43070   2.513   0.106   1.289  0.0754 -0.3479 -0.4808
14124SOL    HW143071   2.519   0.091   1.383 -1.5584  0.2507 -0.2458
14124SOL    HW243072   2.464   0.031   1.256 -0.6537  0.1665 -0.6035
14125SOL     OW43073   3.059   2.878   1.229 -0.0298  0.2761  0.0738
14125SOL    HW143074   3.031   2.791   1.260  0.4455  0.3797  0.8191
14125SOL    HW243075   2.990   2.905   1.169 -0.7306 -0.1597  0.6639
14126SOL     OW43076   0.034   3.543   0.061  0.3266 -0.1556  0.7769
14126SOL    HW143077   0.072   3.487  -0.007 -0.1614 -0.3992  0.7003
14126SOL    HW243078   0.026   3.485   0.137  0.4421 -0.0085  0.9014
14127SOL     OW43079   2.363   4.763   7.083 -0.1525 -0.5950 -0.0036
14127SOL    HW143080   2.305   4.707   7.032 -0.2366 -0.5686  0.0633
14127SOL    HW243081   2.309   4.837   7.110 -0.2450 -0.8564  0.5442
14128SOL     OW43082   2.949   5.090   3.013 -0.2767 -0.1696 -0.1150
14128SOL    HW143083   3.034   5.132   3.001 -0.0998 -0.7981 -1.1826
14128SOL    HW243084   2.934   5.043   2.931 -2.2000  0.8806 -0.4211
14129SOL     OW43085   6.964   3.196   0.065 -0.0668  0.2532 -0.1984
14129SOL    HW143086   6.962   3.241  -0.019 -1.1498 -0.1473 -0.4106
14129SOL    HW243087   6.876   3.210   0.102 -0.2918 -1.2791 -0.0694
14130SOL     OW43088   1.866   4.321   1.991 -0.1363  0.3473  0.0750
14130SOL    HW143089   1.847   4.384   1.922 -0.3220 -0.6015 -0.7585
14130SOL    HW243090   1.872   4.374   2.071  1.8962  1.7367 -0.9065
14131SOL     OW43091   1.772   3.430   0.015  0.5827 -0.4024 -0.0679
14131SOL    HW143092   1.858   3.432   0.056  1.1188 -2.5861 -0.9605
14131SOL    HW243093   1.772   3.351  -0.038 -2.8166 -1.9085  1.7926
14132SOL     OW43094   3.201   7.303   1.201 -0.4125 -0.6981 -0.8558
14132SOL    HW143095   3.196   7.345   1.287 -0.0544 -0.8657 -0.7505
14132SOL    HW243096   3.292   7.314   1.174 -0.2976 -1.4400 -0.8031
14133SOL     OW43097   3.911   3.664   3.741 -0.7800 -0.4936  0.4217
14133SOL    HW143098   3.822   3.701   3.742 -1.0261 -1.0541 -0.2364
14133SOL    HW243099   3.945   3.687   3.654  0.0708  0.5049  0.9885
14134SOL     OW43100   5.400   1.311   4.757 -0.3558 -0.4326  0.5088
14134SOL    HW143101   5.484   1.271   4.739 -0.0385 -0.0047  1.0043
14134SOL    HW243102   5.337   1.239   4.755  0.2381 -0.9991  1.6314
14135SOL     OW43103   2.997   4.829   5.547 -0.0739 -0.1952 -0.4138
14135SOL    HW143104   2.914   4.847   5.502 -0.6509 -2.4299 -0.3626
14135SOL    HW243105   3.037   4.758   5.496  0.5295 -0.9400  1.0366
14136SOL     OW43106   1.139   0.115   0.973  0.3515  0.3756  0.3589
14136SOL    HW143107   1.152   0.022   0.957  0.8479  0.0051  2.6669
14136SOL    HW243108   1.227   0.151   0.979  0.1603  1.0296 -0.4880
14137SOL     OW43109   7.287   3.867   1.378 -0.5309 -0.1362  0.7784
14137SOL    HW143110   7.331   3.791   1.340  0.2529  0.1530  1.0868
14137SOL    HW243111   7.229   3.830   1.445 -0.3459 -0.4896  0.7451
14138SOL     OW43112   1.756   1.777   5.681 -0.6888  0.0941 -0.1191
14138SOL    HW143113   1.743   1.804   5.771 -0.2424  0.8449 -0.2736
14138SOL    HW243114   1.795   1.689   5.687 -0.2076  0.3448  0.4213
14139SOL     OW43115   5.478   2.369   6.653  0.1447  0.0340 -0.2910
14139SOL    HW143116   5.445   2.379   6.564 -0.4270  0.0133 -0.0895
14139SOL    HW243117   5.571   2.391   6.648 -0.0350  0.6884 -0.7659
14140SOL     OW43118   0.177   1.191   3.551  0.0408  0.3235  1.0865
14140SOL    HW143119   0.095   1.165   3.594  0.8663 -0.7103  2.1078
14140SOL    HW243120   0.150   1.255   3.485 -1.6666 -0.5054  0.9246
14141SOL     OW43121   5.551   6.035   6.279 -0.0740  0.2249  0.1166
14141SOL    HW143122   5.532   6.121   6.241 -0.8700  0.1984  0.4199
14141SOL    HW243123   5.638   6.013   6.248  0.1815  1.1920  0.1276
14142SOL     OW43124   4.597   5.480   6.607 -0.3316  0.0097  0.4649
14142SOL    HW143125   4.661   5.551   6.621 -0.7801  0.6230 -0.4595
14142SOL    HW243126   4.649   5.400   6.609  0.5961  0.5388 -0.8383
14143SOL     OW43127   3.744   7.196   1.380 -0.1720  0.2657 -0.1907
14143SOL    HW143128   3.659   7.200   1.424  0.2635  2.3636  0.5649
14143SOL    HW243129   3.737   7.258   1.308  0.4721 -0.1449 -0.6171
14144SOL     OW43130   0.073   7.743   7.047 -0.4612 -0.2196 -0.8141
14144SOL    HW143131   0.129   7.777   7.117 -0.6661  0.6201 -1.0529
14144SOL    HW243132  -0.006   7.714   7.092  0.5878 -2.5337 -0.3049
14145SOL     OW43133   3.655   6.360   7.679  0.4908 -0.3224  0.0575
14145SOL    HW143134   3.689   6.272   7.664 -0.9392 -0.6068 -1.8332
14145SOL    HW243135   3.725   6.418   7.650  1.0154 -0.8314  0.2837
14146SOL     OW43136   6.638   7.144   5.611  0.3720 -0.2042  0.3936
14146SOL    HW143137   6.649   7.140   5.516  3.4382 -0.1184  0.6485
14146SOL    HW243138   6.544   7.155   5.624 -0.1602 -0.4532 -2.6040
14147SOL     OW43139   1.714   4.752   0.801  0.2148 -0.2838 -0.1800
14147SOL    HW143140   1.638   4.695   0.813  0.3068 -1.7128 -4.4273
14147SOL    HW243141   1.728   4.752   0.706  3.6569  2.4629  0.1316
14148SOL     OW43142   7.392   5.499   1.054  0.1314 -0.7373  0.0809
14148SOL    HW143143   7.408   5.513   1.147  0.0610 -1.8656  0.2765
14148SOL    HW243144   7.299   5.516   1.042  0.5468  1.6594 -0.2484
14149SOL     OW43145   7.060   7.877   7.326  0.1750 -0.5777  0.0699
14149SOL    HW143146   7.025   7.915   7.407  0.1899  0.3029 -0.3337
14149SOL    HW243147   7.004   7.911   7.257  0.4656 -0.9361 -0.3470
14150SOL     OW43148   2.252   1.217   1.636 -0.0859  0.3600  0.8140
14150SOL    HW143149   2.281   1.135   1.596  0.2190  1.2878 -0.9629
14150SOL    HW243150   2.158   1.208   1.646 -0.1811  0.1135 -0.2124
14151SOL     OW43151   6.973   4.505   5.607  0.0854  0.0918  0.2781
14151SOL    HW143152   6.977   4.411   5.592 -1.0213  0.3413 -1.9328
14151SOL    HW243153   7.064   4.535   5.597  0.5720 -0.7928  1.7662
14152SOL     OW43154   2.189   7.657   6.589  0.4367 -0.9149 -0.0488
14152SOL    HW143155   2.191   7.645   6.684  1.4045 -1.0546 -0.0791
14152SOL    HW243156   2.146   7.578   6.556 -0.1457 -0.7428  0.2900
14153SOL     OW43157   1.524   3.471   6.808 -0.0174 -0.0157 -0.4305
14153SOL    HW143158   1.460   3.411   6.846  0.7545  1.1626  3.1419
14153SOL    HW243159   1.486   3.558   6.822  0.2010  0.5457 -2.8518
14154SOL     OW43160   6.216   5.686   1.625 -0.4296  0.2947  0.0713
14154SOL    HW143161   6.266   5.715   1.548 -0.1235  0.2872  0.2636
14154SOL    HW243162   6.219   5.761   1.684  1.3833 -0.5068  1.0750
14155SOL     OW43163   1.055   2.253   6.740  0.3243  0.4107 -0.0535
14155SOL    HW143164   1.138   2.224   6.778 -1.3934 -1.9808  2.2666
14155SOL    HW243165   1.023   2.177   6.692  0.1856  1.8778 -2.4479
14156SOL     OW43166   3.872   3.032   1.701 -0.6542  0.3273  0.1606
14156SOL    HW143167   3.920   2.977   1.762 -0.5610  1.1123  0.8229
14156SOL    HW243168   3.861   2.979   1.623  0.7469 -0.0911  0.2230
14157SOL     OW43169   1.626   7.096   1.132  0.1397 -0.9847  0.2091
14157SOL    HW143170   1.610   7.117   1.224 -0.2311  0.5726 -0.1763
14157SOL    HW243171   1.545   7.119   1.088  1.4535  1.7700 -0.9900
14158SOL     OW43172   7.710   0.036   5.035 -0.1621  0.0335 -0.0204
14158SOL    HW143173   7.663   0.120   5.032  1.2589  0.8621 -2.0057
14158SOL    HW243174   7.656  -0.020   5.090 -1.4564  2.0769  0.9295
14159SOL     OW43175   2.833   6.287   2.943  0.3635 -0.0553 -0.2407
14159SOL    HW143176   2.771   6.355   2.916 -0.5938 -1.2283 -1.0541
14159SOL    HW243177   2.809   6.268   3.034  0.0345  0.0425 -0.3045
14160SOL     OW43178   0.543   1.540   4.305  0.2253  0.6429  0.3904
14160SOL    HW143179   0.584   1.624   4.287 -2.0745  1.9500  0.8517
14160SOL    HW243180   0.470   1.535   4.244  1.6051 -2.1358 -1.2182
14161SOL     OW43181   3.978   4.622   7.729  0.1991 -0.3986  0.9374
14161SOL    HW143182   4.018   4.560   7.668  0.4237 -0.0011  0.6771
14161SOL    HW243183   3.922   4.568   7.785  0.6766 -0.8875  0.9517
14162SOL     OW43184   6.019   4.819   3.309  0.0501 -0.4409  0.5898
14162SOL    HW143185   5.960   4.748   3.334 -2.3615  1.5089  0.8432
14162SOL    HW243186   5.967   4.875   3.251  2.7121 -0.2155 -1.8229
14163SOL     OW43187   5.437   3.101   1.344 -0.0154 -0.1774 -0.2443
14163SOL    HW143188   5.393   3.182   1.370 -1.4627 -0.9225 -0.2692
14163SOL    HW243189   5.408   3.086   1.254 -0.0714 -0.9141 -0.1103
14164SOL     OW43190   4.975   3.990   6.397 -0.0424  0.1778  0.3540
14164SOL    HW143191   4.973   4.035   6.481  0.4881  0.9835 -0.0553
14164SOL    HW243192   4.916   4.039   6.341  1.4840  1.1715 -0.4627
14165SOL     OW43193   0.600   2.170   4.349 -0.6806  0.2584 -0.4161
14165SOL    HW143194   0.577   2.256   4.384 -0.7486 -0.5470  1.6075
14165SOL    HW243195   0.552   2.108   4.403 -1.6109 -1.0520 -2.6158
14166SOL     OW43196   1.625   3.221   2.967  0.5667  0.3293  0.0983
14166SOL    HW143197   1.559   3.260   3.023  0.7851 -0.1841  0.7229
14166SOL    HW243198   1.590   3.136   2.943  0.2324  0.7641 -1.0026
14167SOL     OW43199   1.897   7.266   6.985 -0.5643 -0.5113 -0.5662
14167SOL    HW143200   1.943   7.346   7.010  0.8948 -1.4093 -0.2753
14167SOL    HW243201   1.930   7.245   6.898 -0.5885 -1.0526 -0.4474
14168SOL     OW43202   0.830   2.716   1.818  0.2851  0.2164  0.2136
14168SOL    HW143203   0.884   2.775   1.870  1.3376 -0.5196 -0.0168
14168SOL    HW243204   0.748   2.710   1.866 -0.7629  3.6276 -0.8894
14169SOL     OW43205   4.307   0.654   3.193  0.2655 -0.8310  0.2221
14169SOL    HW143206   4.321   0.682   3.103 -1.9675 -0.3544 -0.0246
14169SOL    HW243207   4.215   0.629   3.197  0.9461 -3.5284  1.6943
14170SOL     OW43208   7.182   5.479   4.508 -0.0205 -0.1516  0.0762
14170SOL    HW143209   7.169   5.552   4.447 -0.7500 -0.0364  0.3597
14170SOL    HW243210   7.181   5.519   4.594 -1.6798 -0.6304  0.3099
14171SOL     OW43211   2.011   0.981   6.925 -0.3666 -0.3473  0.1209
14171SOL    HW143212   1.972   1.026   6.850  0.2294  1.3731  0.7946
14171SOL    HW243213   1.974   1.027   7.001  0.9574 -0.4047  0.8169
14172SOL     OW43214   1.884   1.242   5.851  0.2452  0.2047  0.1351
14172SOL    HW143215   1.844   1.169   5.804  0.7620  1.0206 -1.6427
14172SOL    HW243216   1.916   1.300   5.783 -1.2393  2.7490  1.4372
14173SOL     OW43217   5.090   3.572   1.193 -0.0260 -0.1270 -0.3156
14173SOL    HW143218   5.140   3.650   1.167  0.2164 -0.7878 -1.9641
14173SOL    HW243219   5.010   3.576   1.140  0.3439 -1.3699 -1.0175
14174SOL     OW43220   4.859   3.901   5.002  0.0709  0.7406  0.3391
14174SOL    HW143221   4.947   3.920   5.034  0.5076  0.6463 -0.7756
14174SOL    HW243222   4.828   3.984   4.966  0.1346  0.5204 -0.2405
14175SOL     OW43223   1.509   0.724   1.982 -0.1545 -0.2902 -0.4299
14175SOL    HW143224   1.477   0.642   1.946 -0.0370 -0.4560 -0.1567
14175SOL    HW243225   1.473   0.728   2.071  2.7774 -1.8250  0.9578
14176SOL     OW43226   5.918   4.440   4.432 -0.6871 -0.4850 -0.3636
14176SOL    HW143227   5.974   4.509   4.396  0.3304  0.1327  2.1825
14176SOL    HW243228   5.973   4.362   4.433 -0.3828 -0.2596  0.7281
14177SOL     OW43229   7.533   4.387   7.750  0.1205 -0.3581 -0.3946
14177SOL    HW143230   7.576   4.463   7.790  0.7623 -0.3197 -1.1354
14177SOL    HW243231   7.604   4.324   7.736 -0.6681 -1.9425  2.0052
14178SOL     OW43232   5.069   4.199   4.574  0.3738 -0.0506  0.4172
14178SOL    HW143233   5.065   4.277   4.519 -0.4489 -0.5051 -0.1887
14178SOL    HW243234   5.160   4.171   4.570  0.3202 -0.0917 -0.7510
14179SOL     OW43235   0.229   0.616   7.629  0.2129 -0.2809 -0.3990
14179SOL    HW143236   0.155   0.575   7.585  2.0802 -3.0768 -1.1638
14179SOL    HW243237   0.278   0.660   7.559 -0.4567  1.2661  0.0525
14180SOL     OW43238   0.402   2.232   2.321 -0.0646  0.3542  0.1973
14180SOL    HW143239   0.458   2.219   2.245 -0.2449 -0.6644  0.2306
14180SOL    HW243240   0.460   2.272   2.386  0.1829  0.8886 -0.3409
14181SOL     OW43241   5.746   1.966   5.844 -0.2862 -0.6306 -0.0926
14181SOL    HW143242   5.748   1.872   5.825  0.6159 -0.4350 -1.1025
14181SOL    HW243243   5.822   1.980   5.901  0.4644 -0.3086 -1.1336
14182SOL     OW43244   7.070   6.180   5.599 -0.5608 -0.7295  0.1678
14182SOL    HW143245   6.985   6.145   5.572 -1.2666  0.7908  0.3194
14182SOL    HW243246   7.074   6.267   5.558  1.2407 -1.0439 -0.4189
14183SOL     OW43247   7.415   3.199   5.212  0.2779  0.0243 -0.0614
14183SOL    HW143248   7.412   3.241   5.126 -2.3793 -0.6856 -0.3884
14183SOL    HW243249   7.468   3.120   5.198  0.2689  0.1620 -0.9147
14184SOL     OW43250   1.560   3.304   6.535 -0.4514  0.1777 -0.5762
14184SOL    HW143251   1.598   3.223   6.569 -2.0001 -0.6496 -0.7244
14184SOL    HW243252   1.489   3.324   6.596  0.4504  1.9151 -0.0578
14185SOL     OW43253   0.894   3.872   2.586 -0.3261 -0.2570  0.4276
14185SOL    HW143254   0.868   3.780   2.595 -0.0870 -1.0342 -4.3154
14185SOL    HW243255   0.989   3.871   2.602 -0.1154 -1.1258 -0.7416
14186SOL     OW43256   5.691   5.124   7.065 -0.4009 -0.1509 -0.1020
14186SOL    HW143257   5.662   5.044   7.023  0.8911  0.8068 -3.0839
14186SOL    HW243258   5.611   5.172   7.085 -1.0990 -0.4391 -2.0269
14187SOL     OW43259   6.843   4.580   0.291  0.3240  0.1515  0.3486
14187SOL    HW143260   6.826   4.507   0.350  1.8758  1.1550  2.1681
14187SOL    HW243261   6.936   4.599   0.302 -0.2671  3.2439  0.9952
14188SOL     OW43262   3.586   4.296   5.041 -0.0993  0.0658  0.0600
14188SOL    HW143263   3.530   4.271   5.114  0.5012  0.6092  0.7241
14188SOL    HW243264   3.579   4.224   4.979 -0.0079 -0.7782  1.0075
14189SOL     OW43265   3.895   4.757   6.564  0.1091  0.5063 -0.0248
14189SOL    HW143266   3.915   4.850   6.576 -0.1553  0.3949  1.4470
14189SOL    HW243267   3.810   4.756   6.520 -0.6370  0.9741  1.3642
14190SOL     OW43268   2.976   2.858   2.424 -0.5917  0.0977 -0.4006
14190SOL    HW143269   2.904   2.920   2.430  0.9874  2.2620 -2.0616
14190SOL    HW243270   2.934   2.773   2.410 -2.9338  0.2382  3.9433
14191SOL     OW43271   6.884   0.013   7.158  0.2567  0.1973  0.5309
14191SOL    HW143272   6.909   0.102   7.181  3.4147 -0.6948  0.9601
14191SOL    HW243273   6.860   0.018   7.065 -0.4838  1.5884  0.7679
14192SOL     OW43274   6.248   3.533   5.965  0.1491  0.2955  0.6452
14192SOL    HW143275   6.273   3.442   5.981  0.5045  0.1743 -0.4917
14192SOL    HW243276   6.295   3.583   6.031  0.2629 -0.3096  1.0289
14193SOL     OW43277   4.763   0.009   6.664  0.2024 -0.4298 -0.4873
14193SOL    HW143278   4.674  -0.011   6.693  0.1820 -1.7072 -1.3777
14193SOL    HW243279   4.759   0.101   6.636 -0.6100 -0.2153  0.2813
14194SOL     OW43280   1.306   4.151   1.358  0.2561 -0.0224  0.1849
14194SOL    HW143281   1.364   4.155   1.282 -0.3810  2.1690 -0.2704
14194SOL    HW243282   1.366   4.139   1.433  1.0409 -0.4580 -0.4952
14195SOL     OW43283   2.371   5.578   5.417 -0.0777  0.0584 -0.2424
14195SOL    HW143284   2.437   5.648   5.416  0.9192 -0.8465  0.2840
14195SOL    HW243285   2.346   5.571   5.509  0.2473 -0.6535 -0.2064
14196SOL     OW43286   7.890   1.680   2.248  0.3348  0.4810  0.3092
14196SOL    HW143287   7.830   1.657   2.178  0.1685 -0.6227  0.7929
14196SOL    HW243288   7.977   1.665   2.211  0.3255  1.8482 -0.3108
14197SOL     OW43289   3.775   3.695   7.974 -0.4744 -0.2642  0.2017
14197SOL    HW143290   3.689   3.659   7.997  0.0467 -1.7975 -0.0799
14197SOL    HW243291   3.827   3.618   7.949  0.6934  0.7273 -0.5513
14198SOL     OW43292   1.625   5.276   7.698  0.3348 -0.3937  0.4057
14198SOL    HW143293   1.578   5.332   7.636 -1.4631 -0.6079  1.4966
14198SOL    HW243294   1.619   5.188   7.660 -0.4897 -0.4759  0.7049
14199SOL     OW43295   4.719   5.655   5.844  0.2936 -0.5171 -0.7542
14199SOL    HW143296   4.707   5.727   5.906  1.8350  0.5030 -1.5835
14199SOL    HW243297   4.670   5.583   5.883  1.9192 -0.2310  2.1756
14200SOL     OW43298   3.891   5.254   6.268  0.8188  0.1493 -0.6569
14200SOL    HW143299   3.861   5.338   6.235  0.6301  1.2012  1.9478
14200SOL    HW243300   3.857   5.250   6.358  2.7042 -1.7020  0.0595
14201SOL     OW43301   3.697   7.974   3.567 -0.0511 -0.0550  0.2577
14201SOL    HW143302   3.608   8.006   3.583 -0.1528 -0.5169  0.6462
14201SOL    HW243303   3.753   8.038   3.610 -0.1736  0.4536 -0.3279
14202SOL     OW43304   5.014   7.850   4.067  0.7583  0.2816 -0.1908
14202SOL    HW143305   5.007   7.935   4.110 -0.0498  0.2440 -0.2262
14202SOL    HW243306   4.998   7.869   3.974 -0.8261 -0.0828 -0.0199
14203SOL     OW43307   6.989   2.717   3.642  0.0697 -0.7643 -0.0582
14203SOL    HW143308   6.965   2.705   3.734  0.0106 -0.1435  0.0080
14203SOL    HW243309   7.067   2.663   3.631  1.5786  1.0761  1.0145
14204SOL     OW43310   7.457   2.611   0.348 -0.6047 -0.2857  0.1041
14204SOL    HW143311   7.548   2.621   0.374 -0.5639 -1.1894  0.3525
14204SOL    HW243312   7.453   2.524   0.308 -1.1801  0.0919 -0.6976
14205SOL     OW43313   2.531   3.799   6.427 -0.2624  0.1622 -0.5198
14205SOL    HW143314   2.461   3.735   6.418  0.9572 -1.0803 -1.6068
14205SOL    HW243315   2.577   3.773   6.507 -1.0984  1.0854  0.2937
14206SOL     OW43316   6.003   0.637   5.662  0.0285 -0.3035 -0.2907
14206SOL    HW143317   6.035   0.635   5.752 -0.0054 -0.2479 -0.2773
14206SOL    HW243318   5.939   0.566   5.658  1.4965 -1.6583 -0.8259
14207SOL     OW43319   0.952   3.531   6.258  0.9512 -0.0805 -0.5061
14207SOL    HW143320   1.035   3.516   6.213  0.7075 -1.6993 -0.4616
14207SOL    HW243321   0.965   3.495   6.346  0.2620 -0.2046 -0.4480
14208SOL     OW43322   6.771   0.576   7.213  1.0221  0.1890  0.7973
14208SOL    HW143323   6.789   0.492   7.171  0.4909  0.4602 -0.0148
14208SOL    HW243324   6.697   0.559   7.271  0.7957  0.1269  0.4938
14209SOL     OW43325   7.175   1.989   1.411 -0.5759 -0.7527 -0.3103
14209SOL    HW143326   7.142   1.925   1.348 -1.3251 -0.6059 -0.0691
14209SOL    HW243327   7.100   2.012   1.465 -0.4283  0.6301 -0.6448
14210SOL     OW43328   3.480   1.010   1.537 -0.5684  0.3826 -0.3592
14210SOL    HW143329   3.473   1.106   1.537 -0.8654  0.3620 -0.4798
14210SOL    HW243330   3.501   0.987   1.627  1.5960  0.7059 -0.7275
14211SOL     OW43331   4.862   2.150   6.080  0.2152  0.1661  0.1943
14211SOL    HW143332   4.804   2.102   6.021 -2.5284  1.6366  1.4832
14211SOL    HW243333   4.879   2.233   6.035 -0.2569  0.4854  0.5873
14212SOL     OW43334   5.600   0.403   4.609  0.2537  0.4455  0.3647
14212SOL    HW143335   5.562   0.448   4.534  1.1904  0.9357  0.1747
14212SOL    HW243336   5.690   0.384   4.583  0.5456  0.4921  1.2987
14213SOL     OW43337   5.412   2.168   4.411  0.0044 -0.5484 -0.0199
14213SOL    HW143338   5.364   2.233   4.463  1.4023 -0.5160  1.2878
14213SOL    HW243339   5.430   2.213   4.328 -1.0081 -0.0891 -0.0039
14214SOL     OW43340   2.756   5.660   2.606  0.4629 -0.5171 -0.0913
14214SOL    HW143341   2.721   5.676   2.693 -0.0134 -1.1692 -0.1597
14214SOL    HW243342   2.724   5.573   2.582 -1.9323  0.8046 -2.1507
14215SOL     OW43343   3.690   3.407   4.016  0.2002 -0.1561  0.4026
14215SOL    HW143344   3.642   3.402   3.934 -0.8514 -0.0054  0.9839
14215SOL    HW243345   3.738   3.325   4.021 -0.0123 -0.3173 -0.1998
14216SOL     OW43346   5.143   6.708   3.256 -0.2396  0.1305  0.0852
14216SOL    HW143347   5.152   6.683   3.165 -0.6513 -0.0551  0.0947
14216SOL    HW243348   5.114   6.800   3.253 -3.2675 -0.7140 -0.0617
14217SOL     OW43349   7.536   6.122   5.716  0.7392 -0.1888 -0.3467
14217SOL    HW143350   7.556   6.194   5.776  1.9381 -0.2303 -0.6661
14217SOL    HW243351   7.441   6.123   5.709  0.5261 -0.3240  1.7183
14218SOL     OW43352   5.157   2.941   3.245 -0.5226  0.4482 -0.1689
14218SOL    HW143353   5.146   2.952   3.340 -0.3701  0.1291 -0.1128
14218SOL    HW243354   5.079   2.983   3.207  0.3637  2.3307 -0.0154
14219SOL     OW43355   0.431   7.009   1.282  0.0753 -0.3038  0.5401
14219SOL    HW143356   0.385   7.090   1.262  1.0005  0.3180  0.8757
14219SOL    HW243357   0.373   6.940   1.249 -0.6531  0.4910  0.1165
14220SOL     OW43358   2.795   4.108   3.403  0.3018 -0.0980 -0.4492
14220SOL    HW143359   2.818   4.181   3.460  1.2077  0.2217 -1.1968
14220SOL    HW243360   2.767   4.039   3.463 -0.1240  0.6955  0.2905
14221SOL     OW43361   3.321   7.094   2.728  0.4029  0.3321 -0.8336
14221SOL    HW143362   3.307   7.002   2.708 -3.1989  0.5332 -0.0176
14221SOL    HW243363   3.332   7.097   2.823 -0.6961  0.7859 -0.7014
14222SOL     OW43364   3.270   2.303   2.738 -0.2359 -0.0333 -0.4925
14222SOL    HW143365   3.232   2.267   2.658  0.6091 -0.6961 -0.6020
14222SOL    HW243366   3.202   2.292   2.804 -0.6660 -0.1449 -0.9456
14223SOL     OW43367   1.984   0.658   2.378 -0.6635 -0.5798 -0.7310
14223SOL    HW143368   1.954   0.749   2.380 -1.9047 -0.9330 -1.4593
14223SOL    HW243369   2.048   0.655   2.307  1.2730  0.2211  0.9250
14224SOL     OW43370   6.690   7.068   2.486  0.2794  0.0649 -0.0694
14224SOL    HW143371   6.643   7.121   2.422  0.9298 -0.9734 -1.4445
14224SOL    HW243372   6.623   7.010   2.523  0.0804  0.0178 -0.5020
14225SOL     OW43373   4.604   3.813   3.487  0.2490 -0.4656 -0.2524
14225SOL    HW143374   4.661   3.871   3.436 -0.3060  2.0600  1.7866
14225SOL    HW243375   4.662   3.774   3.553  0.6808 -2.5917 -1.8030
14226SOL     OW43376   5.122   1.650   0.397 -0.3909 -0.0412  0.9410
14226SOL    HW143377   5.105   1.732   0.444 -0.5794 -1.1444  2.9083
14226SOL    HW243378   5.204   1.618   0.435 -0.1629 -0.6406 -0.0199
14227SOL     OW43379   4.984   1.423   7.962  0.0775  0.1919 -0.1698
14227SOL    HW143380   4.908   1.376   7.996 -0.7673  2.2873  1.0289
14227SOL    HW243381   4.947   1.495   7.911  1.2894  0.4696 -0.6931
14228SOL     OW43382   6.917   5.395   6.545 -0.5859 -0.4687 -0.3211
14228SOL    HW143383   6.848   5.461   6.543  1.1959  1.5525  0.9019
14228SOL    HW243384   6.968   5.411   6.466  1.1064  1.1732  1.0064
14229SOL     OW43385   1.509   1.323   0.487  0.0172 -0.2558  0.0686
14229SOL    HW143386   1.558   1.399   0.516 -1.3330  0.7199 -0.1333
14229SOL    HW243387   1.423   1.332   0.528 -0.5027 -1.1112 -0.7805
14230SOL     OW43388   5.827   7.460   7.560  0.2642  0.3893 -0.5224
14230SOL    HW143389   5.779   7.492   7.484 -0.9690 -0.1845 -0.0163
14230SOL    HW243390   5.848   7.369   7.538 -0.8291 -0.0458  0.1231
14231SOL     OW43391   0.684   1.341   0.483  1.0810  0.2666 -0.2053
14231SOL    HW143392   0.612   1.302   0.533  1.0379  1.6194  0.8291
14231SOL    HW243393   0.649   1.352   0.395  0.2986  0.1845  0.0889
14232SOL     OW43394   0.943   2.137   1.221  0.3207 -0.1425  0.5720
14232SOL    HW143395   1.018   2.135   1.280  0.2307  0.5004  0.7133
14232SOL    HW243396   0.906   2.048   1.226 -0.6791  0.3131  2.7807
14233SOL     OW43397   1.874   5.365   3.426 -0.0558  0.3807 -0.0404
14233SOL    HW143398   1.797   5.364   3.483 -1.3331  0.8301 -1.6975
14233SOL    HW243399   1.935   5.304   3.468 -1.3906 -0.1694  1.1868
14234SOL     OW43400   2.464   5.738   4.714 -0.6400  0.4621  0.3444
14234SOL    HW143401   2.523   5.711   4.785 -1.0812  1.8033  1.2413
14234SOL    HW243402   2.518   5.794   4.659 -0.5537  0.1523  0.1102
14235SOL     OW43403   0.431   2.031   7.722  0.0271 -0.5200 -0.1090
14235SOL    HW143404   0.354   2.000   7.769 -1.4835  1.5421 -1.0839
14235SOL    HW243405   0.411   2.016   7.630  0.4348  0.7301 -0.4219
14236SOL     OW43406   4.915   3.437   5.310  0.4992 -0.2966 -0.0124
14236SOL    HW143407   4.937   3.499   5.241  2.4883  0.5927  1.3359
14236SOL    HW243408   4.867   3.489   5.375 -0.5697 -0.9269 -0.2582
14237SOL     OW43409   7.441   2.203   4.403 -0.0609  0.2542 -0.2897
14237SOL    HW143410   7.516   2.200   4.343  0.2071  1.4307 -0.0397
14237SOL    HW243411   7.367   2.173   4.350  0.0623  1.8074 -1.4186
14238SOL     OW43412   5.867   0.938   6.463  0.1877  0.0835 -0.0760
14238SOL    HW143413   5.864   0.873   6.393  2.6723 -0.0600 -0.1400
14238SOL    HW243414   5.960   0.947   6.484 -0.3898  0.6700  2.7162
14239SOL     OW43415   5.243   2.134   7.124 -0.4112  0.1277 -0.0703
14239SOL    HW143416   5.271   2.152   7.034  1.2062 -0.0319  0.3619
14239SOL    HW243417   5.171   2.072   7.115  0.0569 -0.2737 -1.2492
14240SOL     OW43418   2.316   2.748   6.382 -0.0749  0.1793 -0.0001
14240SOL    HW143419   2.263   2.711   6.311  1.2912 -4.3875  1.0427
14240SOL    HW243420   2.398   2.773   6.340 -0.5468  0.8343 -0.5471
14241SOL     OW43421   3.093   2.537   5.995  0.4384  0.5235 -0.0254
14241SOL    HW143422   3.050   2.460   5.959 -0.3225  1.1031 -0.3811
14241SOL    HW243423   3.173   2.503   6.036  0.8204 -0.2744 -1.3866
14242SOL     OW43424   3.842   3.219   6.544  0.2199  0.0389 -0.0898
14242SOL    HW143425   3.864   3.169   6.464 -0.7440 -0.2439 -0.1867
14242SOL    HW243426   3.790   3.158   6.596 -1.4302  1.1096 -0.4425
14243SOL     OW43427   4.022   5.146   4.239  0.5890 -0.4973  0.6079
14243SOL    HW143428   4.061   5.196   4.310 -0.8365  1.6632 -0.0155
14243SOL    HW243429   3.928   5.149   4.256  0.3944 -2.7315  0.3216
14244SOL     OW43430   3.102   2.595   4.187 -0.0378 -0.1046  0.4195
14244SOL    HW143431   3.172   2.638   4.138  1.1011 -2.1871  0.0870
14244SOL    HW243432   3.058   2.666   4.234  0.3744  1.6497 -1.6915
14245SOL     OW43433   3.609   4.045   6.485 -0.0889  0.2018  0.1607
14245SOL    HW143434   3.663   4.103   6.432  0.4000  2.1220  2.5440
14245SOL    HW243435   3.521   4.051   6.447  0.2228  1.5426 -0.3835
14246SOL     OW43436   4.658   5.653   4.581 -0.8711 -0.1173 -0.4041
14246SOL    HW143437   4.675   5.568   4.540  0.8212  0.6245 -1.3293
14246SOL    HW243438   4.569   5.675   4.552  0.3435  0.5765 -4.2820
14247SOL     OW43439   7.261   2.898   4.488  0.5544  0.1060 -0.0731
14247SOL    HW143440   7.300   2.946   4.561  1.7513  1.7761 -1.6992
14247SOL    HW243441   7.171   2.931   4.483  0.9936  1.3013 -0.3962
14248SOL     OW43442   7.753   3.809   6.132 -0.1115  0.3438 -0.4627
14248SOL    HW143443   7.816   3.742   6.106 -1.2605 -1.3836  0.9435
14248SOL    HW243444   7.733   3.856   6.051  1.0483 -0.7133 -1.4140
14249SOL     OW43445   0.666   4.629   6.110 -0.0001 -0.1745  0.3278
14249SOL    HW143446   0.570   4.633   6.104  0.0723 -0.0439 -0.9449
14249SOL    HW243447   0.695   4.614   6.020  1.3313  2.7554  0.1664
14250SOL     OW43448   6.648   1.812   2.182 -0.0230 -0.1411 -0.1093
14250SOL    HW143449   6.650   1.746   2.113 -0.1974 -1.3044  0.9554
14250SOL    HW243450   6.722   1.790   2.239  0.2406  0.9137 -0.0152
14251SOL     OW43451   3.941   0.314   2.643  0.0938  0.9171  0.2567
14251SOL    HW143452   4.015   0.257   2.620  1.2272  1.4280  2.3074
14251SOL    HW243453   3.882   0.309   2.568  2.3777  0.7780 -1.6608
14252SOL     OW43454   1.811   6.104   4.409 -0.4205  0.4313  0.3153
14252SOL    HW143455   1.873   6.171   4.437 -0.2463 -0.4287  2.1522
14252SOL    HW243456   1.773   6.138   4.328  2.5958  0.8925 -1.0525
14253SOL     OW43457   4.810   0.852   7.087 -0.6411 -0.2728 -0.3347
14253SOL    HW143458   4.807   0.937   7.044 -1.1749  0.0792  0.3855
14253SOL    HW243459   4.732   0.850   7.142  1.2616  0.3498  2.5927
14254SOL     OW43460   4.196   1.340   7.091  0.1856  0.3660  0.1493
14254SOL    HW143461   4.216   1.347   7.184 -2.3485  0.0316  0.8096
14254SOL    HW243462   4.219   1.250   7.068 -0.0965  0.1434  0.7202
14255SOL     OW43463   0.476   3.696   4.542  0.1894  0.4683 -0.3644
14255SOL    HW143464   0.527   3.635   4.489 -0.9559 -0.2002 -0.7153
14255SOL    HW243465   0.540   3.735   4.601  0.6832 -2.3972  1.1426
14256SOL     OW43466   2.460   0.304   3.056 -0.6301  0.3727  0.7609
14256SOL    HW143467   2.427   0.392   3.040 -0.6542  0.2753  0.2748
14256SOL    HW243468   2.528   0.292   2.990 -0.0769  0.3255  1.3349
14257SOL     OW43469   2.679   1.854   7.108 -0.6531  0.8939 -0.3197
14257SOL    HW143470   2.666   1.948   7.117 -1.9272  0.7236 -0.2604
14257SOL    HW243471   2.758   1.846   7.054 -0.4014  1.9849 -0.1369
14258SOL     OW43472   4.567   3.579   0.237 -0.0358 -0.4353 -0.1138
14258SOL    HW143473   4.619   3.622   0.305 -1.6664  2.0885 -0.3333
14258SOL    HW243474   4.590   3.625   0.157 -2.7498  1.0125 -0.1650
14259SOL     OW43475   5.546   4.747   5.864  0.1588  0.2236 -0.8662
14259SOL    HW143476   5.567   4.706   5.947 -0.5558 -0.1737 -0.8669
14259SOL    HW243477   5.456   4.778   5.875 -0.4167 -0.9821 -1.9006
14260SOL     OW43478   4.484   5.074   0.518  0.1151 -0.8788  0.1110
14260SOL    HW143479   4.427   5.091   0.593 -0.4279  0.5910 -0.5970
14260SOL    HW243480   4.563   5.124   0.537 -1.0155  1.6919 -1.4186
14261SOL     OW43481   3.131   3.367   6.252 -0.0890  0.4304 -0.4762
14261SOL    HW143482   3.174   3.433   6.197  0.6755 -0.5793 -1.1217
14261SOL    HW243483   3.190   3.355   6.327  0.0324  0.1194 -0.6183
14262SOL     OW43484   0.231   1.426   0.346  0.0943  0.5082  0.3267
14262SOL    HW143485   0.159   1.487   0.358 -0.2484  0.1377  0.2015
14262SOL    HW243486   0.212   1.354   0.406 -0.5344 -0.3744 -0.8889
14263SOL     OW43487   5.109   5.627   7.798  0.0399  0.6537  0.4123
14263SOL    HW143488   5.028   5.644   7.846  0.0484 -0.3096  0.7935
14263SOL    HW243489   5.083   5.572   7.725 -0.0358  2.4560 -0.9707
14264SOL     OW43490   6.588   6.006   5.239 -0.7338  0.0090 -0.0917
14264SOL    HW143491   6.612   5.924   5.282 -0.5814  1.4057  2.6949
14264SOL    HW243492   6.614   5.993   5.148  0.3093 -2.6125  0.4742
14265SOL     OW43493   6.809   5.178   6.136 -0.4896 -0.1335 -0.3871
14265SOL    HW143494   6.742   5.237   6.170 -0.7131 -0.7227  0.2306
14265SOL    HW243495   6.821   5.204   6.045 -0.9993  0.4783 -0.2832
14266SOL     OW43496   0.461   7.557   6.106  0.3737  0.0505 -0.0427
14266SOL    HW143497   0.495   7.597   6.026  0.2542 -1.4233 -0.8547
14266SOL    HW243498   0.371   7.534   6.086  1.0459 -2.5773 -0.3914
14267SOL     OW43499   6.249   1.475   3.244  0.1385 -0.0439 -1.2038
14267SOL    HW143500   6.174   1.531   3.265 -0.5566 -1.2491 -0.3611
14267SOL    HW243501   6.321   1.536   3.229 -0.0825  1.0439  1.6522
14268SOL     OW43502   3.620   5.852   7.929 -0.3647  0.2611  0.9436
14268SOL    HW143503   3.610   5.768   7.883  2.6356 -0.9599  2.2997
14268SOL    HW243504   3.648   5.913   7.861 -1.9115  0.0564  0.0722
14269SOL     OW43505   2.306   7.375   2.970 -0.0453  0.3404  0.4369
14269SOL    HW143506   2.390   7.369   2.925  0.4689  0.5213  1.3498
14269SOL    HW243507   2.300   7.466   2.997 -0.0070  0.0842  1.3481
14270SOL     OW43508   5.138   2.396   6.336 -0.0892  0.2075 -0.2851
14270SOL    HW143509   5.070   2.431   6.278  0.3497  1.1692 -0.2391
14270SOL    HW243510   5.182   2.329   6.283 -1.4895 -0.9134 -0.0860
14271SOL     OW43511   0.255   3.933   5.772  0.2107 -0.5319  0.1217
14271SOL    HW143512   0.176   3.907   5.819 -0.4936  1.4664  0.1439
14271SOL    HW243513   0.225   3.943   5.681 -0.6238  3.7497  0.6525
14272SOL     OW43514   6.611   5.638   0.337 -0.9560 -0.0025 -0.0979
14272SOL    HW143515   6.656   5.718   0.365  0.5877 -1.2908  1.2956
14272SOL    HW243516   6.529   5.639   0.388 -0.7387  0.4634  0.2564
14273SOL     OW43517   2.485   5.351   7.524 -0.1556  0.3274  0.1921
14273SOL    HW143518   2.445   5.433   7.555  1.2095  1.1006  0.0177
14273SOL    HW243519   2.569   5.379   7.488 -0.1419 -1.0347 -0.8785
14274SOL     OW43520   1.737   3.607   5.920 -0.5945 -0.2380  0.4920
14274SOL    HW143521   1.706   3.636   6.005 -3.9809 -2.3326  0.1198
14274SOL    HW243522   1.772   3.520   5.935  0.9784  0.2789  0.0605
14275SOL     OW43523   1.068   4.860   0.265 -0.3835  0.0278 -0.0455
14275SOL    HW143524   1.115   4.857   0.182 -0.5208  0.4100 -0.1365
14275SOL    HW243525   1.084   4.774   0.304 -0.4753 -0.2235 -0.5527
14276SOL     OW43526   6.230   4.882   7.699 -0.1174 -0.2148  0.3293
14276SOL    HW143527   6.249   4.955   7.758  1.2927 -0.2607 -0.0187
14276SOL    HW243528   6.312   4.833   7.695 -0.5927 -0.9641 -0.6245
14277SOL     OW43529   6.764   1.368   5.877  0.5146  0.1917  0.1133
14277SOL    HW143530   6.772   1.337   5.967 -1.0230  0.1877  0.2751
14277SOL    HW243531   6.785   1.461   5.882 -0.6318  0.4311  0.6800
14278SOL     OW43532   0.647   5.007   4.014  0.3471 -0.2317  0.6292
14278SOL    HW143533   0.596   5.003   4.095  0.3129 -0.9172  0.5781
14278SOL    HW243534   0.705   5.082   4.026  0.9458 -0.8365  1.6619
14279SOL     OW43535   6.531   5.978   1.998  0.2305  0.4968 -0.4985
14279SOL    HW143536   6.585   5.997   2.075  1.0918 -0.2643 -0.8890
14279SOL    HW243537   6.443   6.006   2.022  0.7933  1.7623  0.1626
14280SOL     OW43538   2.547   7.391   2.780 -0.5322 -0.1190  0.1315
14280SOL    HW143539   2.638   7.398   2.750 -0.5126 -1.2806 -0.1263
14280SOL    HW243540   2.497   7.374   2.700 -0.8463 -0.4884  0.4042
14281SOL     OW43541   0.866   7.442   4.000 -0.1030  0.3986 -0.4977
14281SOL    HW143542   0.919   7.434   3.921  0.9800  1.3095  0.1046
14281SOL    HW243543   0.780   7.472   3.970 -0.6752 -2.0673 -1.5977
14282SOL     OW43544   5.211   3.607   3.105  0.4676  0.0410 -0.3770
14282SOL    HW143545   5.264   3.645   3.175 -0.0864 -0.8734  0.5630
14282SOL    HW243546   5.262   3.623   3.025  0.9591  1.3780  0.1757
14283SOL     OW43547   2.115   0.090   0.385  0.3518 -0.3043 -0.2713
14283SOL    HW143548   2.117   0.172   0.435  1.1882  0.0634 -0.8864
14283SOL    HW243549   2.200   0.086   0.342 -0.0378 -1.0388 -0.9995
14284SOL     OW43550   6.221   1.268   0.443 -0.2067  0.0407 -0.1602
14284SOL    HW143551   6.209   1.323   0.365 -0.3093  1.0094  0.5179
14284SOL    HW243552   6.162   1.305   0.508 -0.5969 -1.1637  0.1899
14285SOL     OW43553   7.293   6.433   3.304 -0.2137  0.5563  0.3359
14285SOL    HW143554   7.290   6.508   3.363  3.7060  1.0278  0.1955
14285SOL    HW243555   7.299   6.357   3.363 -0.6591  0.6357  0.4898
14286SOL     OW43556   5.764   6.231   4.680 -0.0232 -0.8268 -0.2952
14286SOL    HW143557   5.684   6.227   4.732  0.6279  0.4568  0.8509
14286SOL    HW243558   5.805   6.314   4.704  1.4922 -1.3038 -1.0917
14287SOL     OW43559   3.826   5.688   6.795 -0.5999 -0.2521  0.0705
14287SOL    HW143560   3.789   5.755   6.852  0.3262  0.1856  0.1923
14287SOL    HW243561   3.920   5.691   6.813 -0.5201 -1.5124 -0.0073
14288SOL     OW43562   2.404   3.934   0.102  0.5552  0.3764 -0.1382
14288SOL    HW143563   2.353   3.986   0.040  0.0564 -0.4032 -0.4070
14288SOL    HW243564   2.451   3.871   0.047 -1.7243 -1.9256  0.3125
14289SOL     OW43565   4.530   7.826   1.379 -0.0240  0.0604  0.1929
14289SOL    HW143566   4.554   7.873   1.299 -1.7366 -0.6351 -0.7752
14289SOL    HW243567   4.440   7.853   1.397  0.0996 -0.3355  1.4981
14290SOL     OW43568   4.430   2.882   6.723 -0.1652 -0.1732  0.0471
14290SOL    HW143569   4.510   2.834   6.705 -0.9635 -0.9112 -1.7692
14290SOL    HW243570   4.361   2.816   6.719 -1.1178  0.8367 -1.0165
14291SOL     OW43571   0.452   5.889   6.194  0.0730 -0.3415  0.0110
14291SOL    HW143572   0.378   5.896   6.135 -0.9172 -0.9358  1.1484
14291SOL    HW243573   0.447   5.801   6.230  1.6172 -0.5622 -0.2387
14292SOL     OW43574   7.425   7.321   3.459  0.3558 -0.4148 -0.3861
14292SOL    HW143575   7.362   7.296   3.391  0.6790 -0.3370 -0.7172
14292SOL    HW243576   7.432   7.416   3.451  0.0780 -0.3554  0.0388
14293SOL     OW43577   6.605   6.267   7.752 -0.1356 -0.0746 -0.0040
14293SOL    HW143578   6.597   6.310   7.837 -0.0869  0.9349 -0.4978
14293SOL    HW243579   6.693   6.230   7.751  0.4205  1.2187 -0.2018
14294SOL     OW43580   2.085   1.800   4.397  0.4788 -0.3300 -0.4122
14294SOL    HW143581   2.075   1.744   4.320  1.9465 -3.0982  1.2823
14294SOL    HW243582   2.179   1.818   4.402  0.3364  0.2392  0.4541
14295SOL     OW43583   3.029   6.956   0.307 -0.1971 -0.0132  0.2279
14295SOL    HW143584   3.100   6.973   0.246  0.2461  0.2017  0.7960
14295SOL    HW243585   2.950   6.958   0.253  0.2552 -0.6264 -0.4760
14296SOL     OW43586   4.008   5.886   4.919 -0.1374  0.4410  0.3465
14296SOL    HW143587   4.103   5.881   4.909 -0.0469  0.5413  1.1071
14296SOL    HW243588   3.977   5.920   4.835  0.4338 -0.2530 -0.1540
14297SOL     OW43589   1.545   4.094   4.934 -0.4301  0.0033  0.2027
14297SOL    HW143590   1.555   4.028   4.865 -2.2821  0.8443 -0.9593
14297SOL    HW243591   1.566   4.047   5.015 -0.5754 -1.6999 -0.6968
14298SOL     OW43592   3.605   5.393   7.553  0.3042  0.3327 -0.3107
14298SOL    HW143593   3.564   5.461   7.606  1.3828  1.4881 -0.9094
14298SOL    HW243594   3.671   5.354   7.611 -1.5270 -1.5572  0.6682
14299SOL     OW43595   1.636   7.688   4.011 -0.1778  0.0857  0.3980
14299SOL    HW143596   1.632   7.597   4.041  0.5106 -0.1200 -0.0932
14299SOL    HW243597   1.545   7.713   3.997 -0.4209 -0.2604  1.3210
14300SOL     OW43598   2.772   4.018   4.769 -0.0842  0.3991 -0.2129
14300SOL    HW143599   2.710   4.048   4.703  2.1092  0.6932 -2.2756
14300SOL    HW243600   2.768   3.922   4.764 -0.8811  0.3957  0.2344
14301SOL     OW43601   3.131   2.040   4.070  0.3507  0.4941  0.4481
14301SOL    HW143602   3.212   2.090   4.082  1.5134 -0.7556 -1.5716
14301SOL    HW243603   3.100   2.066   3.984 -0.2489 -0.5881  0.3259
14302SOL     OW43604   0.645   4.714   2.963  0.1557 -0.0058 -0.2438
14302SOL    HW143605   0.585   4.740   2.893 -1.1530 -2.5352 -0.1584
14302SOL    HW243606   0.597   4.649   3.014  1.6363  0.6418  2.1390
14303SOL     OW43607   4.592   6.616   6.333 -0.0033 -0.4047 -0.0209
14303SOL    HW143608   4.526   6.671   6.291  0.3945 -1.1084 -1.6193
14303SOL    HW243609   4.658   6.601   6.266  0.7000 -1.5033  0.8731
14304SOL     OW43610   0.557   1.637   1.431 -0.0750 -0.2495 -0.0609
14304SOL    HW143611   0.533   1.629   1.338  0.5648 -0.8842 -0.1772
14304SOL    HW243612   0.562   1.731   1.446 -0.2882 -0.1385 -0.6469
14305SOL     OW43613   7.483   4.775   2.759  0.7495 -0.3619 -0.4801
14305SOL    HW143614   7.400   4.822   2.751  0.8296  0.1528  1.2536
14305SOL    HW243615   7.536   4.808   2.687 -0.1044  0.2443 -0.8520
14306SOL     OW43616   6.156   1.993   5.227  0.5635 -0.7926  0.5975
14306SOL    HW143617   6.131   1.997   5.319  0.8614  2.7172  0.6736
14306SOL    HW243618   6.166   2.085   5.201 -0.1099 -1.6180 -3.1268
14307SOL     OW43619   5.858   0.540   7.690 -0.6528 -0.0617  0.1130
14307SOL    HW143620   5.791   0.593   7.647 -0.6300  0.9057  1.2300
14307SOL    HW243621   5.824   0.525   7.778 -0.6287 -1.8833 -0.1521
14308SOL     OW43622   6.397   4.091   5.641  0.1075 -0.0480 -1.4138
14308SOL    HW143623   6.360   4.174   5.669 -0.8834 -0.0524 -2.6283
14308SOL    HW243624   6.428   4.050   5.722  0.0903  1.2390 -0.7362
14309SOL     OW43625   1.578   2.594   7.397 -0.4236 -0.6484 -0.5369
14309SOL    HW143626   1.483   2.595   7.413 -0.1915 -1.4966  1.1699
14309SOL    HW243627   1.616   2.620   7.481  0.8530  1.2652 -1.6370
14310SOL     OW43628   4.595   0.180   3.740  0.5939  0.1272 -0.0102
14310SOL    HW143629   4.625   0.106   3.793 -1.1019  0.0324  0.9063
14310SOL    HW243630   4.635   0.167   3.654  0.8966 -1.4593  0.3506
14311SOL     OW43631   1.687   7.103   6.658  0.2865 -0.0196  0.2360
14311SOL    HW143632   1.737   7.126   6.579 -0.8382 -1.0370 -0.8292
14311SOL    HW243633   1.642   7.184   6.682 -0.5376 -0.0397 -1.0965
14312SOL     OW43634   4.651   4.283   6.954  0.0629 -0.2069 -0.0020
14312SOL    HW143635   4.573   4.320   6.912  1.2984  1.1593 -1.2467
14312SOL    HW243636   4.620   4.246   7.036 -1.9553 -0.0976 -0.6752
14313SOL     OW43637   5.555   0.397   7.570  0.3043  0.3924  0.4004
14313SOL    HW143638   5.483   0.457   7.551 -1.1346 -0.4856  2.6537
14313SOL    HW243639   5.535   0.318   7.519 -0.8117 -0.1291  1.5871
14314SOL     OW43640   3.179   0.118   7.473  0.5184 -0.2051  0.2117
14314SOL    HW143641   3.140   0.168   7.544  0.0530 -0.3513  0.0670
14314SOL    HW243642   3.158   0.168   7.394  1.7714  0.4066  0.2461
14315SOL     OW43643   4.234   3.270   5.236 -0.2235  0.2957  0.3851
14315SOL    HW143644   4.323   3.305   5.237 -0.4888  0.9995  0.6643
14315SOL    HW243645   4.199   3.298   5.151 -0.0867 -0.2198  0.1594
14316SOL     OW43646   7.440   4.958   0.280  0.2457  0.1001  0.4331
14316SOL    HW143647   7.524   4.914   0.297 -0.3335 -0.0642  3.4181
14316SOL    HW243648   7.384   4.889   0.245  1.1725  0.1337 -1.2784
14317SOL     OW43649   2.585   1.380   5.317  0.3201  0.7192  0.7335
14317SOL    HW143650   2.601   1.474   5.304  0.5501  0.3678 -2.1131
14317SOL    HW243651   2.495   1.367   5.289  1.1142 -0.2727 -1.6223
14318SOL     OW43652   1.384   5.438   1.410 -0.2941 -0.1003  0.2367
14318SOL    HW143653   1.366   5.487   1.330  0.3331  0.5635  0.4886
14318SOL    HW243654   1.344   5.352   1.396 -1.0602  0.3490 -0.3732
14319SOL     OW43655   6.420   3.478   1.527  0.6364 -0.3231  0.8741
14319SOL    HW143656   6.487   3.476   1.459  0.1465 -2.0041  0.4021
14319SOL    HW243657   6.348   3.527   1.488  0.0858 -1.8633 -0.1187
14320SOL     OW43658   0.567   3.515   3.541 -0.0250  0.0730  0.6659
14320SOL    HW143659   0.555   3.465   3.460 -0.7520 -0.1591  0.9099
14320SOL    HW243660   0.482   3.554   3.559  0.3589  0.8528  0.8501
14321SOL     OW43661   2.518   6.462   5.709  0.4174 -0.5809 -0.4156
14321SOL    HW143662   2.520   6.376   5.749  0.8228  0.2382  1.4264
14321SOL    HW243663   2.523   6.445   5.615 -1.2605 -2.6241 -0.2159
14322SOL     OW43664   1.896   3.003   2.164 -0.0439  0.2412  0.2627
14322SOL    HW143665   1.903   2.965   2.252  0.5057 -1.1664 -0.3608
14322SOL    HW243666   1.804   3.031   2.157  0.2178  1.6239  1.7476
14323SOL     OW43667   7.483   7.825   7.733 -0.1348  0.4207 -0.2604
14323SOL    HW143668   7.461   7.807   7.825  0.2553  1.6175  0.0752
14323SOL    HW243669   7.407   7.873   7.700  0.4354  1.4776 -0.0769
14324SOL     OW43670   4.145   0.418   6.693  0.3037  0.1058 -0.0174
14324SOL    HW143671   4.052   0.405   6.675  0.2538  1.3692 -0.7905
14324SOL    HW243672   4.183   0.330   6.687 -0.7294 -0.3339 -0.3557
14325SOL     OW43673   7.529   3.337   3.707  0.4509 -0.1714  0.4517
14325SOL    HW143674   7.565   3.329   3.795  0.4768 -0.0802  0.4494
14325SOL    HW243675   7.605   3.343   3.650  0.4368 -0.5343  0.3932
14326SOL     OW43676   7.974   2.094   0.429  0.5712 -0.4221 -0.2621
14326SOL    HW143677   8.061   2.117   0.464 -0.0532 -1.9956  2.6379
14326SOL    HW243678   7.983   2.003   0.401 -0.3340 -0.9062  0.9376
14327SOL     OW43679   3.906   3.189   0.494 -0.3475  0.2002  0.0142
14327SOL    HW143680   3.966   3.234   0.435  0.5085 -0.2689  0.5041
14327SOL    HW243681   3.855   3.258   0.535 -0.0482  0.6194 -0.3202
14328SOL     OW43682   6.280   4.573   4.680  0.0153 -0.0882  0.0256
14328SOL    HW143683   6.316   4.531   4.758  1.6519 -0.9122 -1.1095
14328SOL    HW243684   6.348   4.634   4.652 -0.1828 -0.4120 -1.2127
14329SOL     OW43685   0.244   5.530   3.773 -0.1406  0.5678  0.1296
14329SOL    HW143686   0.223   5.447   3.731 -2.0777 -0.2027  2.3936
14329SOL    HW243687   0.337   5.522   3.798  0.6198  0.4606 -2.4726
14330SOL     OW43688   6.646   0.924   6.138 -0.1781  0.8927 -0.0711
14330SOL    HW143689   6.723   0.972   6.168 -0.4406  1.1498  0.2026
14330SOL    HW243690   6.653   0.838   6.179  0.4315  0.6046 -0.7727
14331SOL     OW43691   2.831   7.957   4.787  0.2842 -0.2161  0.2791
14331SOL    HW143692   2.793   7.870   4.798  1.5637 -0.8991 -0.5874
14331SOL    HW243693   2.785   7.994   4.711 -0.2159 -0.1304  0.6122
14332SOL     OW43694   0.176   4.709   0.775  0.2557 -0.1579 -0.4409
14332SOL    HW143695   0.259   4.725   0.731  0.3777  2.8098  0.6329
14332SOL    HW243696   0.115   4.772   0.735 -0.8855 -0.7241  0.3460
14333SOL     OW43697   7.604   6.866   0.242  0.1131 -0.8130  0.0139
14333SOL    HW143698   7.669   6.907   0.184  1.3742 -2.9544 -0.1748
14333SOL    HW243699   7.640   6.878   0.330 -0.6199  0.3485  0.1782
14334SOL     OW43700   0.190   2.803   1.298 -0.5218 -0.0679 -0.0604
14334SOL    HW143701   0.262   2.809   1.235 -0.6680 -0.6249 -0.2890
14334SOL    HW243702   0.165   2.894   1.315 -0.1001  0.1080 -0.3661
14335SOL     OW43703   0.704   3.864   4.637  0.1990  0.0432  0.2144
14335SOL    HW143704   0.683   3.925   4.566  0.0586 -0.2631 -0.0082
14335SOL    HW243705   0.798   3.873   4.649  0.2874 -0.1872 -0.2770
14336SOL     OW43706   2.690   7.348   0.092  0.4876 -0.0078 -0.3002
14336SOL    HW143707   2.698   7.277   0.028  1.1099 -0.5195  0.3277
14336SOL    HW243708   2.764   7.405   0.075  0.9730 -0.4372  0.2955
14337SOL     OW43709   5.693   0.234   0.159  0.3446 -0.1458 -0.1788
14337SOL    HW143710   5.663   0.200   0.075 -2.5026 -0.2182  0.7887
14337SOL    HW243711   5.614   0.265   0.203  1.5969 -0.8450  2.8454
14338SOL     OW43712   7.181   1.734   2.168  0.4876  0.3398  0.0102
14338SOL    HW143713   7.276   1.724   2.165  0.3607 -1.3568  0.9328
14338SOL    HW243714   7.158   1.764   2.080  1.9606  1.9884  0.1133
14339SOL     OW43715   1.215   1.150   1.674 -0.3874 -0.1454  0.0738
14339SOL    HW143716   1.247   1.062   1.692 -0.3401 -0.1086  0.1712
14339SOL    HW243717   1.277   1.185   1.609 -1.0691 -0.5954 -0.8383
14340SOL     OW43718   0.170   4.372   6.285 -0.3926  0.4375 -0.3386
14340SOL    HW143719   0.175   4.466   6.299 -0.1998  0.2074  1.3617
14340SOL    HW243720   0.182   4.334   6.372 -0.1840 -1.1701 -1.0320
14341SOL     OW43721   5.828   6.967   6.427 -0.2578 -0.0503 -0.2061
14341SOL    HW143722   5.840   7.031   6.497 -0.9920  0.3883 -0.4629
14341SOL    HW243723   5.738   6.937   6.439 -0.3759  0.0050 -0.9381
14342SOL     OW43724   4.676   4.005   0.783  1.0106 -0.2264 -0.0251
14342SOL    HW143725   4.722   3.987   0.701 -0.8027 -0.7106 -0.9805
14342SOL    HW243726   4.721   3.950   0.848  0.3334 -2.5082 -1.3919
14343SOL     OW43727   5.181   5.450   3.360  0.0317 -0.7741  0.1510
14343SOL    HW143728   5.226   5.472   3.441  0.9155 -0.3418 -0.4419
14343SOL    HW243729   5.141   5.532   3.331 -0.9656 -1.1092  0.5636
14344SOL     OW43730   6.341   0.022   5.278 -0.4870 -0.5575  0.1405
14344SOL    HW143731   6.379   0.061   5.199  0.9063 -2.4701 -0.2176
14344SOL    HW243732   6.348   0.090   5.344 -1.1898  0.9104 -1.2404
14345SOL     OW43733   2.408   2.924   6.069 -0.2883 -0.3165  0.1443
14345SOL    HW143734   2.320   2.894   6.092 -0.4605  0.9351  1.2998
14345SOL    HW243735   2.406   2.935   5.974 -0.9848 -1.4548  0.0123
14346SOL     OW43736   2.081   3.967   1.626 -0.3532  0.2668 -0.0977
14346SOL    HW143737   2.058   3.895   1.567 -0.4562  0.1405  0.0935
14346SOL    HW243738   2.078   4.045   1.572 -0.6876  0.1830 -0.2046
14347SOL     OW43739   3.093   3.895   2.059  0.5613  0.3309  0.3827
14347SOL    HW143740   3.091   3.956   2.133  0.9636  0.3840  0.3552
14347SOL    HW243741   3.040   3.937   1.991 -2.3404 -1.0415  1.6114
14348SOL     OW43742   7.931   2.039   2.794 -0.0159 -0.2769 -0.4384
14348SOL    HW143743   7.996   1.988   2.745 -0.6495  0.1473 -1.7768
14348SOL    HW243744   7.890   1.975   2.852 -0.3705 -1.1933 -1.6469
14349SOL     OW43745   4.975   6.312   2.099  0.0832 -0.2681  0.1851
14349SOL    HW143746   4.937   6.255   2.166 -0.6261 -0.7675 -0.6246
14349SOL    HW243747   4.956   6.401   2.130 -2.5681 -0.4965 -0.6174
14350SOL     OW43748   4.333   6.192   0.379 -0.2729  0.2770  0.1445
14350SOL    HW143749   4.281   6.133   0.325 -0.5614 -0.3096  1.0408
14350SOL    HW243750   4.319   6.161   0.468  0.0825  1.3177  0.5725
14351SOL     OW43751   0.137   1.380   7.114  0.0694  0.4024  0.2833
14351SOL    HW143752   0.121   1.433   7.192  0.9218  0.9499  0.1016
14351SOL    HW243753   0.138   1.290   7.146 -1.0433  0.5090  0.6527
14352SOL     OW43754   5.066   6.139   7.968 -0.8621  0.4578  0.0652
14352SOL    HW143755   5.136   6.152   8.032  0.2637 -0.5126 -0.9392
14352SOL    HW243756   5.030   6.227   7.954  1.0918  1.2250 -0.4295
14353SOL     OW43757   1.360   3.995   2.165  0.9482  0.3867 -0.1543
14353SOL    HW143758   1.389   3.940   2.093  2.3742 -0.2800  0.8863
14353SOL    HW243759   1.297   3.941   2.213  0.7200  0.4738 -0.3548
14354SOL     OW43760   2.571   6.810   6.357  0.5798 -0.1344  0.0597
14354SOL    HW143761   2.542   6.886   6.408  0.3051  0.6824 -1.2587
14354SOL    HW243762   2.657   6.834   6.324 -0.0413  0.1734 -1.4238
14355SOL     OW43763   2.378   1.013   4.871 -0.1797  0.6839 -0.5107
14355SOL    HW143764   2.301   1.028   4.815 -1.1276 -0.4254  0.4304
14355SOL    HW243765   2.419   0.934   4.836 -0.3308  0.4315 -0.1343
14356SOL     OW43766   6.245   3.593   6.706  0.1045  0.4835  0.2859
14356SOL    HW143767   6.224   3.510   6.662 -3.3397  0.0860  2.3202
14356SOL    HW243768   6.251   3.570   6.799  1.3868  2.1998  0.6695
14357SOL     OW43769   1.413   0.402   6.195  0.5469 -0.1187  0.3077
14357SOL    HW143770   1.416   0.347   6.117 -1.6566  0.8221 -0.5232
14357SOL    HW243771   1.422   0.491   6.162  0.0642  0.2635  1.1757
14358SOL     OW43772   5.112   0.662   7.335 -0.6580 -0.3355 -0.1353
14358SOL    HW143773   5.132   0.711   7.255 -0.9959 -0.8356 -0.5312
14358SOL    HW243774   5.110   0.728   7.404  0.8385 -0.0477 -0.3194
14359SOL     OW43775   1.830   5.440   5.727 -0.4065 -0.3222  0.0034
14359SOL    HW143776   1.837   5.407   5.816 -0.3872 -0.6106 -0.1038
14359SOL    HW243777   1.878   5.523   5.728 -0.4733 -0.2866  0.2790
14360SOL     OW43778   1.935   6.179   2.763 -0.1635 -0.2937  0.0082
14360SOL    HW143779   1.851   6.208   2.729  0.2276  1.7018  0.5747
14360SOL    HW243780   1.996   6.249   2.738  0.8664 -0.6237  1.4560
14361SOL     OW43781   2.856   0.277   0.037  0.3352  0.3448 -0.1044
14361SOL    HW143782   2.943   0.317   0.042  0.3989  0.2470 -0.4006
14361SOL    HW243783   2.867   0.190   0.075  0.0515  0.8354  1.1353
14362SOL     OW43784   6.383   2.396   3.042 -0.3426 -0.2157  0.0434
14362SOL    HW143785   6.344   2.311   3.021  0.4329 -1.0265  1.6978
14362SOL    HW243786   6.477   2.384   3.024 -0.0423 -0.1296  1.4710
14363SOL     OW43787   4.125   6.108   1.751  0.7260  0.9109  0.2597
14363SOL    HW143788   4.095   6.199   1.752  0.9976  1.0056  1.1597
14363SOL    HW243789   4.203   6.108   1.807  0.6389  0.0907  0.3941
14364SOL     OW43790   0.379   7.889   4.481  0.2650  0.1747  0.1687
14364SOL    HW143791   0.397   7.869   4.389  2.4586 -0.4457  0.6663
14364SOL    HW243792   0.421   7.974   4.495  1.4794 -0.5148  0.9636
14365SOL     OW43793   5.831   6.472   1.181 -0.3526  0.1944  0.1535
14365SOL    HW143794   5.874   6.468   1.267  0.3725  1.4948 -0.1301
14365SOL    HW243795   5.738   6.458   1.200 -0.0064 -1.2479  0.9437
14366SOL     OW43796   5.928   3.176   4.045  0.5796  0.6833  0.2487
14366SOL    HW143797   5.982   3.102   4.016 -0.5309 -0.3933  0.8249
14366SOL    HW243798   5.898   3.151   4.132 -0.9417  1.1813 -0.1047
14367SOL     OW43799   3.299   6.946   6.280  0.4148 -0.1101 -0.2990
14367SOL    HW143800   3.271   6.940   6.189 -0.1620  1.0547 -0.2076
14367SOL    HW243801   3.234   6.895   6.328  1.3542 -1.7040 -0.6294
14368SOL     OW43802   2.956   4.244   5.865 -0.2189 -0.1641  0.6583
14368SOL    HW143803   2.885   4.290   5.909 -0.5050 -1.2008  1.3122
14368SOL    HW243804   3.022   4.312   5.848 -0.4275  0.4026  2.0068
14369SOL     OW43805   6.000   0.865   4.605  0.9673  0.6033 -0.7150
14369SOL    HW143806   5.927   0.805   4.616 -0.1089  1.6878 -1.6825
14369SOL    HW243807   6.078   0.813   4.625 -0.0516 -0.6133  0.1687
14370SOL     OW43808   0.541   5.787   3.647 -0.6996  0.4044  0.1339
14370SOL    HW143809   0.613   5.842   3.618 -0.1964  0.6056  1.6392
14370SOL    HW243810   0.525   5.726   3.575  0.1594  1.1463 -0.6921
14371SOL     OW43811   5.456   5.393   0.945  0.4751  0.3137  0.0235
14371SOL    HW143812   5.548   5.378   0.968  0.5771 -0.3923 -0.8444
14371SOL    HW243813   5.408   5.370   1.025  0.9679 -0.3250  0.1405
14372SOL     OW43814   5.472   2.053   5.728  0.0888  0.1348 -0.0699
14372SOL    HW143815   5.564   2.033   5.746  0.0364 -0.5317 -0.4783
14372SOL    HW243816   5.449   1.992   5.657 -0.9444 -0.4078  0.7166
14373SOL     OW43817   3.496   0.183   0.693 -0.2160 -0.3314  0.2292
14373SOL    HW143818   3.411   0.168   0.652  0.8968 -0.3253 -2.2614
14373SOL    HW243819   3.547   0.105   0.671  0.3322 -0.5050  2.0007
14374SOL     OW43820   2.973   0.137   3.508  0.2829 -0.2478 -0.3889
14374SOL    HW143821   3.034   0.178   3.568 -1.3333  0.9673  0.5226
14374SOL    HW243822   2.890   0.135   3.555 -0.4134 -1.8110 -1.5746
14375SOL     OW43823   0.197   0.020   6.504 -0.7682 -0.1788  0.0832
14375SOL    HW143824   0.120   0.032   6.448 -2.9574 -2.3545  2.3482
14375SOL    HW243825   0.203   0.102   6.554 -0.2781  0.8019 -1.5018
14376SOL     OW43826   4.343   3.868   4.231  0.5021  0.4271 -0.1073
14376SOL    HW143827   4.312   3.951   4.196  0.4097 -0.1411 -1.4461
14376SOL    HW243828   4.375   3.889   4.319  0.3287  1.8343 -0.3584
14377SOL     OW43829   4.588   5.658   3.986 -0.5567 -0.1273 -0.7722
14377SOL    HW143830   4.572   5.564   3.984  3.2816 -0.9570 -1.7672
14377SOL    HW243831   4.506   5.698   3.956 -1.8193 -3.2358 -1.8542
14378SOL     OW43832   1.315   5.021   0.078  0.1508 -0.1822  0.4066
14378SOL    HW143833   1.301   4.935   0.040  0.7939  0.1390 -0.5909
14378SOL    HW243834   1.391   5.010   0.136  0.8203 -0.0972 -0.4307
14379SOL     OW43835   1.769   6.194   6.463 -0.7176  0.2097 -0.3103
14379SOL    HW143836   1.818   6.230   6.537  1.8507  1.3182 -2.3746
14379SOL    HW243837   1.776   6.099   6.473 -0.5042  0.3434  0.9198
14380SOL     OW43838   6.488   1.688   0.534 -0.2016  0.1301  0.1406
14380SOL    HW143839   6.406   1.642   0.552  0.3133 -1.5163 -1.4197
14380SOL    HW243840   6.468   1.744   0.460  0.0462 -0.1967 -0.1761
14381SOL     OW43841   6.810   0.069   0.957  0.2944 -0.2826 -0.3249
14381SOL    HW143842   6.738   0.032   1.009  1.7095  0.1137  2.0762
14381SOL    HW243843   6.889   0.032   0.996  1.5019  1.3576 -1.1239
14382SOL     OW43844   6.195   0.869   7.212 -0.1436  0.1091  0.1323
14382SOL    HW143845   6.212   0.813   7.136 -1.4968 -0.2853  0.0973
14382SOL    HW243846   6.266   0.847   7.273  1.2532  0.8094 -1.1915
14383SOL     OW43847   3.611   5.778   3.173  0.1313  0.6473  0.2095
14383SOL    HW143848   3.597   5.768   3.268 -0.9345  0.7706  0.0813
14383SOL    HW243849   3.523   5.793   3.138  0.4490  0.0323 -0.8766
14384SOL     OW43850   6.118   2.298   4.387 -0.4140 -0.1829  0.4902
14384SOL    HW143851   6.080   2.308   4.475 -2.8175  0.9202 -0.5649
14384SOL    HW243852   6.110   2.385   4.348 -0.1057 -0.8245 -1.0864
14385SOL     OW43853   7.733   2.816   1.507  0.0764 -0.4501  0.1408
14385SOL    HW143854   7.793   2.884   1.476 -2.3054  1.6492 -0.1640
14385SOL    HW243855   7.749   2.809   1.601  0.3149  0.5936  0.1832
14386SOL     OW43856   0.564   7.972   7.870  0.1517  0.3498 -0.2813
14386SOL    HW143857   0.528   7.917   7.939  0.0857  2.0937  1.1364
14386SOL    HW243858   0.659   7.967   7.881  0.1287  1.3757  0.6146
14387SOL     OW43859   4.948   6.584   2.162  0.3082 -0.4085  0.0335
14387SOL    HW143860   4.921   6.624   2.079  0.3473 -0.2265  0.1083
14387SOL    HW243861   5.040   6.609   2.171  0.6960 -1.5283 -0.5232
14388SOL     OW43862   7.080   6.469   6.857  0.0815 -0.1039  0.2079
14388SOL    HW143863   7.128   6.504   6.932  1.1642 -1.0315 -0.0401
14388SOL    HW243864   7.140   6.478   6.783 -0.7227  0.1718 -0.4284
14389SOL     OW43865   6.235   4.686   2.378 -0.1951 -0.5186  0.3903
14389SOL    HW143866   6.286   4.620   2.331 -2.0080 -0.6311 -1.6011
14389SOL    HW243867   6.300   4.736   2.427  1.9392 -0.4064 -2.2724
14390SOL     OW43868   0.622   2.799   4.219  0.5778  0.3329  0.2655
14390SOL    HW143869   0.529   2.814   4.200  0.2739 -1.3113  0.2746
14390SOL    HW243870   0.669   2.849   4.153 -0.3584 -0.1294 -0.7839
14391SOL     OW43871   0.063   0.530   2.791  0.5238 -0.2829 -0.1613
14391SOL    HW143872   0.038   0.614   2.829  0.2653 -0.4741  0.0889
14391SOL    HW243873   0.024   0.464   2.848  0.9766 -0.5792 -0.1820
14392SOL     OW43874   0.681   7.002   2.605  0.1834  1.0190 -0.4514
14392SOL    HW143875   0.716   6.927   2.559  2.2394  1.2228  0.6551
14392SOL    HW243876   0.740   7.074   2.584 -0.1235  1.6477  0.6994
14393SOL     OW43877   0.346   2.225   3.339 -0.9749  0.1805 -0.6011
14393SOL    HW143878   0.349   2.302   3.283 -0.7749 -0.3662 -1.3682
14393SOL    HW243879   0.279   2.245   3.404 -0.6447  1.1505 -0.5559
14394SOL     OW43880   6.417   7.781   6.917 -0.0524  0.7258  0.0881
14394SOL    HW143881   6.502   7.739   6.915 -0.9303 -1.4223  2.5740
14394SOL    HW243882   6.436   7.874   6.927  1.9789  0.3278  0.2588
14395SOL     OW43883   0.481   0.924   1.579  0.0608 -0.0417  0.1348
14395SOL    HW143884   0.403   0.933   1.524 -1.1313 -1.4854  1.4687
14395SOL    HW243885   0.511   1.013   1.594 -1.2098  0.5339 -0.5934
14396SOL     OW43886   1.340   2.430   4.932 -0.0964  0.3430 -0.1921
14396SOL    HW143887   1.330   2.336   4.949  0.0674 -0.0212 -1.9503
14396SOL    HW243888   1.422   2.453   4.976 -0.4702 -0.1637  0.8172
14397SOL     OW43889   7.884   3.686   2.186  0.3307 -0.0161  0.0880
14397SOL    HW143890   7.843   3.650   2.265 -1.3170 -3.1332 -1.9547
14397SOL    HW243891   7.974   3.654   2.189  0.5402  0.6265  1.0757
14398SOL     OW43892   3.455   3.344   4.973  0.0369  0.0695  0.7796
14398SOL    HW143893   3.496   3.344   5.060  0.1908  2.2079  0.7519
14398SOL    HW243894   3.361   3.354   4.991  0.1321  1.1642  0.6946
14399SOL     OW43895   1.797   1.318   1.377  0.2231 -0.8229  0.3538
14399SOL    HW143896   1.791   1.223   1.390  1.6868 -0.8700  0.8712
14399SOL    HW243897   1.779   1.331   1.284 -2.2469 -1.3467  0.7010
14400SOL     OW43898   1.801   1.930   0.936 -0.0380 -0.1515 -0.2886
14400SOL    HW143899   1.719   1.955   0.892 -1.3155 -4.2770 -0.6674
14400SOL    HW243900   1.855   1.892   0.867  1.6943  1.1826  0.2476
14401SOL     OW43901   7.655   5.746   4.476 -0.4169  0.5247  0.2759
14401SOL    HW143902   7.692   5.793   4.401 -0.3097  0.1098  0.0602
14401SOL    HW243903   7.593   5.807   4.515 -1.7844  0.1493 -1.1955
14402SOL     OW43904   0.492   6.294   2.962  0.3000  0.5729  0.3352
14402SOL    HW143905   0.552   6.248   2.903  0.6609  1.6067 -0.1239
14402SOL    HW243906   0.545   6.312   3.040  0.1031  0.0642  0.5936
14403SOL     OW43907   1.710   2.069   4.215  0.2813  0.1024 -0.1409
14403SOL    HW143908   1.743   1.983   4.190 -3.0572 -0.9826 -1.4778
14403SOL    HW243909   1.681   2.058   4.306  1.4328  0.3733  0.2690
14404SOL     OW43910   5.044   2.990   5.582 -0.4038  0.4941  0.6283
14404SOL    HW143911   4.974   3.036   5.535 -0.4604 -0.5756 -0.3740
14404SOL    HW243912   5.013   2.900   5.588  0.4066  0.2421  1.1697
14405SOL     OW43913   1.801   4.701   4.945  0.5270 -0.6786 -0.0702
14405SOL    HW143914   1.774   4.613   4.970 -0.1381  0.0380  1.8636
14405SOL    HW243915   1.750   4.720   4.866 -1.7091 -0.8551  1.2670
14406SOL     OW43916   3.699   4.364   0.452 -0.1996  0.1204 -1.2245
14406SOL    HW143917   3.733   4.279   0.479  2.4412  1.2728 -0.5534
14406SOL    HW243918   3.614   4.345   0.412 -1.5611 -2.4003  2.3284
14407SOL     OW43919   5.646   5.061   7.976  0.1818  0.2949 -0.0299
14407SOL    HW143920   5.553   5.082   7.981  0.0596  0.2397 -1.5953
14407SOL    HW243921   5.666   5.061   7.882  1.5999 -0.3923  0.2402
14408SOL     OW43922   2.452   4.035   2.426  0.1138  0.1205 -0.2058
14408SOL    HW143923   2.526   4.080   2.384  0.2364  2.0329  1.8447
14408SOL    HW243924   2.375   4.084   2.398  0.0453  0.4642  0.5593
14409SOL     OW43925   0.748   4.714   1.730  0.1385  0.1791 -0.3312
14409SOL    HW143926   0.683   4.654   1.767  0.4183  0.3847  0.5056
14409SOL    HW243927   0.805   4.657   1.678 -0.2148 -0.1273 -0.3922
14410SOL     OW43928   0.628   4.286   4.106  0.3814 -0.4290 -0.1948
14410SOL    HW143929   0.640   4.361   4.048  0.1985  0.0376  0.3582
14410SOL    HW243930   0.568   4.318   4.174  2.1292 -0.3336  1.3776
14411SOL     OW43931   7.921   2.362   0.536  0.0454 -0.3163  0.0600
14411SOL    HW143932   7.931   2.383   0.629  0.1047 -1.2458  0.2792
14411SOL    HW243933   7.885   2.273   0.535  0.3162 -0.4329 -0.8024
14412SOL     OW43934   1.881   1.043   7.152 -0.0884 -0.4617  0.5308
14412SOL    HW143935   1.800   1.004   7.185  0.1451 -0.3340  1.2915
14412SOL    HW243936   1.949   1.010   7.212  0.2184  0.4987  0.7257
14413SOL     OW43937   7.731   2.363   5.314 -0.4066  0.0798  0.4834
14413SOL    HW143938   7.796   2.423   5.279 -0.8136 -0.2647 -0.9320
14413SOL    HW243939   7.747   2.362   5.408  1.4796  0.1851  0.1952
14414SOL     OW43940   2.106   1.001   6.475 -0.2384  0.1115  0.3970
14414SOL    HW143941   2.137   0.915   6.446  0.5634 -0.1926  1.9990
14414SOL    HW243942   2.174   1.031   6.536 -0.9420  1.4961  0.5409
14415SOL     OW43943   3.665   2.787   6.137  0.2924  0.0894  0.2605
14415SOL    HW143944   3.702   2.723   6.197  1.6326  1.5469  1.0846
14415SOL    HW243945   3.626   2.853   6.194 -0.0111  0.5954 -0.5189
14416SOL     OW43946   5.372   7.033   4.517 -0.5853  0.6221 -0.2590
14416SOL    HW143947   5.455   7.078   4.532 -0.0715 -0.5125  0.4415
14416SOL    HW243948   5.328   7.084   4.449  0.7957  1.0957 -0.8217
14417SOL     OW43949   7.043   2.960   0.485  0.2041  0.1018 -0.4019
14417SOL    HW143950   7.005   2.961   0.397 -1.9577 -2.0593  0.3810
14417SOL    HW243951   6.983   3.015   0.537  2.4362  2.8415 -0.5130
14418SOL     OW43952   2.695   7.584   3.397 -0.1467  0.1279  0.3097
14418SOL    HW143953   2.605   7.590   3.365  0.0553  0.5363 -0.1946
14418SOL    HW243954   2.749   7.605   3.321  0.4656 -2.2423  0.0187
14419SOL     OW43955   7.758   5.580   3.176 -0.1748  0.2935 -0.2209
14419SOL    HW143956   7.846   5.612   3.155 -0.7391  0.9222 -1.7229
14419SOL    HW243957   7.742   5.511   3.112 -0.8687  0.3303 -0.0921
14420SOL     OW43958   6.901   5.026   4.853  0.2364  0.0865  0.2879
14420SOL    HW143959   6.951   5.089   4.802  2.9120 -2.4138 -0.3737
14420SOL    HW243960   6.849   4.978   4.789  0.6474 -0.4893  0.3806
14421SOL     OW43961   0.269   1.838   0.861  0.2758 -0.0026  0.3029
14421SOL    HW143962   0.219   1.760   0.885  0.1919  0.1452  0.6024
14421SOL    HW243963   0.229   1.868   0.779 -1.0281  0.9145  1.2575
14422SOL     OW43964   2.857   2.086   3.022 -0.5848 -0.4298 -0.0211
14422SOL    HW143965   2.843   1.992   3.021  2.1240 -0.9322  1.4550
14422SOL    HW243966   2.943   2.099   2.982 -0.2972  1.2505  1.0086
14423SOL     OW43967   6.615   4.131   4.569  0.4598  0.1906 -0.2892
14423SOL    HW143968   6.673   4.142   4.644 -2.4402 -1.5819  2.4538
14423SOL    HW243969   6.619   4.038   4.548 -1.8145 -0.1388  0.4767
14424SOL     OW43970   3.524   7.358   2.236 -0.3100 -0.1336 -0.2784
14424SOL    HW143971   3.463   7.417   2.192  0.2550  0.9884  0.3794
14424SOL    HW243972   3.602   7.358   2.181  0.3659  1.2051  0.6178
14425SOL     OW43973   4.841   5.188   1.893  0.6571  0.3024 -0.2696
14425SOL    HW143974   4.819   5.123   1.826 -0.2759  1.0871 -0.7452
14425SOL    HW243975   4.880   5.137   1.963 -2.6536 -1.2784  0.6445
14426SOL     OW43976   2.142   6.863   1.914 -0.0047  0.1638 -0.6320
14426SOL    HW143977   2.081   6.850   1.841 -1.5183  0.6681  0.4811
14426SOL    HW243978   2.187   6.945   1.893  1.6954 -1.1448 -2.3682
14427SOL     OW43979   4.296   6.825   2.725  0.3983 -0.1579 -0.0384
14427SOL    HW143980   4.241   6.888   2.678  0.7785 -0.2409 -0.6025
14427SOL    HW243981   4.335   6.875   2.796 -1.4832 -0.4055  1.2394
14428SOL     OW43982   1.691   2.606   6.006  0.4176  0.3072 -0.4186
14428SOL    HW143983   1.633   2.550   6.058 -0.1959 -0.9756 -2.3873
14428SOL    HW243984   1.636   2.679   5.978 -0.1559 -0.6018 -1.7839
14429SOL     OW43985   0.639   3.648   4.806  0.1417  0.2788  0.3660
14429SOL    HW143986   0.553   3.612   4.829  0.4659 -0.4361  0.4605
14429SOL    HW243987   0.620   3.738   4.779 -0.6822  0.0237  0.0707
14430SOL     OW43988   6.110   1.733   7.311  0.5587 -0.0430  0.5578
14430SOL    HW143989   6.129   1.680   7.234  1.7104  1.1712 -0.0255
14430SOL    HW243990   6.018   1.758   7.301  0.1582 -1.4412  0.5649
14431SOL     OW43991   2.773   4.891   1.065  0.0970  0.5420  0.1852
14431SOL    HW143992   2.787   4.934   1.149  0.3010 -0.0546  0.4677
14431SOL    HW243993   2.683   4.859   1.069  0.4606 -0.4646  0.6461
14432SOL     OW43994   1.151   7.197   0.472  0.2614  0.5868  0.2143
14432SOL    HW143995   1.221   7.237   0.523 -0.7236  1.9094  0.5825
14432SOL    HW243996   1.151   7.244   0.389 -1.1057  1.6613  0.7683
14433SOL     OW43997   1.237   3.416   2.500  1.2025  0.3413  0.2351
14433SOL    HW143998   1.314   3.412   2.443  1.6407 -0.7485  0.8866
14433SOL    HW243999   1.270   3.448   2.584  1.0440 -0.5849  0.6600
14434SOL     OW44000   0.033   3.048   1.401  0.0797  0.0586 -0.2713
14434SOL    HW144001   0.050   3.141   1.418 -1.6429  0.7009 -1.7319
14434SOL    HW244002   0.050   3.005   1.485  1.3655  1.6081  0.3149
14435SOL     OW44003   7.183   0.671   6.155 -0.4771  0.1814  0.1301
14435SOL    HW144004   7.244   0.602   6.130  1.7423  1.4237  1.7753
14435SOL    HW244005   7.097   0.635   6.133  0.7866 -1.6026 -2.3981
14436SOL     OW44006   2.375   6.261   2.350 -0.1108 -0.1875 -0.1727
14436SOL    HW144007   2.444   6.195   2.361  0.5014  0.2338 -1.3297
14436SOL    HW244008   2.296   6.218   2.382  0.6547 -0.7184  1.0995
14437SOL     OW44009   6.457   3.877   2.215 -0.3725 -0.0683 -0.2513
14437SOL    HW144010   6.426   3.967   2.203  0.9929  0.3677 -0.6850
14437SOL    HW244011   6.525   3.884   2.282  0.5834 -0.5590 -1.1344
14438SOL     OW44012   4.049   5.522   7.946 -0.6308 -0.2952 -0.0512
14438SOL    HW144013   4.051   5.536   7.852  1.8424 -2.0411 -0.3598
14438SOL    HW244014   4.123   5.463   7.963 -1.5403 -0.7575  2.8629
14439SOL     OW44015   3.865   5.776   5.479 -0.2463  0.1081  0.6796
14439SOL    HW144016   3.822   5.849   5.523  1.1200  2.0623 -1.0453
14439SOL    HW244017   3.837   5.783   5.388  0.4550 -1.1123  0.3467
14440SOL     OW44018   7.536   4.022   6.236  0.0663  0.7012 -0.8885
14440SOL    HW144019   7.570   4.111   6.224  0.3387  0.4913 -1.7122
14440SOL    HW244020   7.444   4.034   6.257  0.1574  1.1856 -0.7595
14441SOL     OW44021   1.501   5.704   2.569 -0.2166  0.3266 -0.0805
14441SOL    HW144022   1.590   5.694   2.603  0.2853 -0.6292 -1.6094
14441SOL    HW244023   1.503   5.665   2.482 -1.9346  1.0341 -0.4856
14442SOL     OW44024   6.605   2.811   0.229 -0.6838  0.1266  0.2740
14442SOL    HW144025   6.582   2.775   0.144 -1.6208 -0.5227  0.7915
14442SOL    HW244026   6.596   2.906   0.218 -1.6636  0.0010 -0.1112
14443SOL     OW44027   7.448   3.857   3.553  0.2643 -0.4422 -0.0806
14443SOL    HW144028   7.397   3.860   3.634 -0.9152 -0.4461 -0.8111
14443SOL    HW244029   7.383   3.848   3.483  1.2667 -0.5273 -1.0304
14444SOL     OW44030   2.499   4.910   2.755  0.6998 -0.7590 -0.1144
14444SOL    HW144031   2.548   4.899   2.837  0.5334  0.4410  0.1593
14444SOL    HW244032   2.562   4.945   2.693  1.0697 -2.5645 -0.8013
14445SOL     OW44033   3.875   6.950   1.498  0.3749  0.3082 -0.1300
14445SOL    HW144034   3.836   6.950   1.411 -2.4139  0.2858  0.9859
14445SOL    HW244035   3.822   7.014   1.547  0.2100 -1.4384  2.1391
14446SOL     OW44036   6.603   5.152   1.520 -0.3541 -0.2815  0.6055
14446SOL    HW144037   6.509   5.132   1.518 -0.2561 -0.7096  0.0136
14446SOL    HW244038   6.646   5.067   1.517  0.0631 -0.0563 -1.1248
14447SOL     OW44039   3.749   7.953   4.474 -0.1924 -0.2835 -0.6407
14447SOL    HW144040   3.822   7.937   4.534 -0.9749 -0.1993  0.3551
14447SOL    HW244041   3.790   7.991   4.397  0.7006  0.8064  0.3395
14448SOL     OW44042   6.766   4.233   6.686  0.4161  0.4516 -0.2916
14448SOL    HW144043   6.814   4.283   6.751 -1.1763  1.2213  0.3359
14448SOL    HW244044   6.679   4.219   6.725  0.4825 -1.9672 -0.8502
14449SOL     OW44045   0.424   5.936   1.275 -0.3992 -0.5939  0.0356
14449SOL    HW144046   0.451   5.892   1.356  0.4961 -2.2777 -1.1255
14449SOL    HW244047   0.476   6.016   1.273 -2.4924  1.0073  2.4977
14450SOL     OW44048   3.194   5.338   4.141  0.1614  0.0212  0.0023
14450SOL    HW144049   3.099   5.337   4.125 -0.0795 -0.6828  1.3290
14450SOL    HW244050   3.225   5.417   4.097 -0.8108 -0.4536 -1.6385
14451SOL     OW44051   3.704   0.108   2.183  0.3306 -0.2271  0.0497
14451SOL    HW144052   3.786   0.137   2.144  0.5679 -1.7915 -0.7190
14451SOL    HW244053   3.659   0.062   2.112 -0.0577 -1.5507  1.1093
14452SOL     OW44054   1.438   5.592   6.312 -0.6118  0.1306  0.1061
14452SOL    HW144055   1.480   5.665   6.357 -1.5915  0.1203  1.1031
14452SOL    HW244056   1.345   5.602   6.332 -1.1066  0.1470 -2.0182
14453SOL     OW44057   7.683   6.424   4.287 -0.2991 -0.1173  0.2836
14453SOL    HW144058   7.684   6.470   4.203  0.8204  0.8335  0.7854
14453SOL    HW244059   7.775   6.418   4.312 -0.6251 -0.2461  1.5079
14454SOL     OW44060   6.861   5.264   0.713 -0.5367 -0.0509  0.1905
14454SOL    HW144061   6.928   5.215   0.665  0.3046  0.5663  0.6935
14454SOL    HW244062   6.862   5.351   0.673 -1.4765 -0.2089 -0.1926
14455SOL     OW44063   3.468   6.369   1.786  0.0945 -0.4375 -0.1063
14455SOL    HW144064   3.392   6.359   1.729  0.2916 -0.8534 -0.2965
14455SOL    HW244065   3.439   6.335   1.871 -0.2742  0.3973  0.1161
14456SOL     OW44066   7.143   5.907   6.122 -0.2349  0.7049  0.5933
14456SOL    HW144067   7.153   5.836   6.059 -1.6461 -0.6990  1.8571
14456SOL    HW244068   7.223   5.959   6.113 -0.3048  0.4687 -2.1763
14457SOL     OW44069   1.245   0.077   3.897  0.2486 -0.5392 -0.0849
14457SOL    HW144070   1.188   0.073   3.974 -1.1826 -0.7033 -1.1193
14457SOL    HW244071   1.303   0.151   3.915 -0.1936 -0.4502  1.0608
14458SOL     OW44072   6.602   4.967   0.704  0.2247 -0.1751 -0.3534
14458SOL    HW144073   6.528   4.950   0.645  0.4299  0.0401 -0.6791
14458SOL    HW244074   6.679   4.941   0.653  0.2686 -2.3037  0.6852
14459SOL     OW44075   4.104   1.458   5.941 -0.2264 -0.0113  0.5357
14459SOL    HW144076   4.075   1.481   5.852  0.7346  2.2918  0.7445
14459SOL    HW244077   4.197   1.436   5.931 -0.5679 -1.6227  0.7195
14460SOL     OW44078   5.191   7.769   1.672 -0.5019 -0.0559  0.2235
14460SOL    HW144079   5.165   7.804   1.757 -0.6113  1.0023 -0.2353
14460SOL    HW244080   5.280   7.803   1.658 -0.7716  0.3959 -0.4184
14461SOL     OW44081   6.459   7.498   1.779 -0.3136 -0.0718  0.5626
14461SOL    HW144082   6.554   7.506   1.771 -0.4264 -0.0542 -1.1565
14461SOL    HW244083   6.445   7.411   1.817  0.3906  0.0131  1.0198
14462SOL     OW44084   2.518   3.460   7.393  0.5766  0.5629 -0.5515
14462SOL    HW144085   2.577   3.502   7.331  2.0886  0.0097  0.4496
14462SOL    HW244086   2.497   3.376   7.354 -0.2661  1.1125 -1.3085
14463SOL     OW44087   2.309   2.367   7.212  0.6119  0.0350  0.2675
14463SOL    HW144088   2.401   2.345   7.198 -0.0706 -3.1704  0.2047
14463SOL    HW244089   2.288   2.333   7.299 -0.7808 -0.3798 -0.1959
14464SOL     OW44090   3.264   3.769   0.937  0.6040 -0.0922 -0.1935
14464SOL    HW144091   3.288   3.834   1.004  0.8169 -0.9013  0.5375
14464SOL    HW244092   3.240   3.691   0.988  1.1006 -0.8328 -1.0771
14465SOL     OW44093   3.761   2.570   1.880 -0.5252  0.5757  0.0549
14465SOL    HW144094   3.741   2.531   1.795  1.7971 -3.2153  0.9965
14465SOL    HW244095   3.676   2.580   1.923 -1.4628 -1.9195 -1.0211
14466SOL     OW44096   6.105   4.725   7.515  0.3640 -0.0188 -0.2752
14466SOL    HW144097   6.137   4.788   7.579  0.4158 -0.6496  0.3298
14466SOL    HW244098   6.010   4.738   7.514  0.3357 -0.1834  0.1218
14467SOL     OW44099   4.676   5.107   5.570  0.0226  0.0165  1.0826
14467SOL    HW144100   4.748   5.160   5.535  0.4024  0.2406  2.1797
14467SOL    HW244101   4.664   5.038   5.505 -0.9904  1.8384 -0.7859
14468SOL     OW44102   0.332   6.511   6.294 -0.2233  0.0270 -0.1269
14468SOL    HW144103   0.301   6.472   6.212  0.8450  0.6438 -0.8454
14468SOL    HW244104   0.424   6.485   6.299  0.4257  2.0792 -0.4386
14469SOL     OW44105   2.166   7.503   0.750 -0.8605  0.0362  0.3001
14469SOL    HW144106   2.196   7.551   0.827 -2.7046 -1.4339  2.0476
14469SOL    HW244107   2.146   7.570   0.685  0.1047  1.3535  1.3135
14470SOL     OW44108   5.192   6.716   2.203 -0.0371  0.0224  0.4561
14470SOL    HW144109   5.269   6.728   2.148 -0.0356 -0.4493  0.3496
14470SOL    HW244110   5.179   6.801   2.245 -0.1977  0.4744 -0.4783
14471SOL     OW44111   4.737   1.835   2.492  0.1237 -0.2110  0.2941
14471SOL    HW144112   4.667   1.774   2.470 -0.4095 -0.4109  2.3796
14471SOL    HW244113   4.697   1.896   2.554  1.7378 -0.2332  1.4165
14472SOL     OW44114   4.237   5.110   4.093 -0.3591  0.1002  0.3767
14472SOL    HW144115   4.150   5.120   4.132  0.3216 -0.2498  2.0833
14472SOL    HW244116   4.283   5.190   4.118  0.7011 -0.9604  2.0637
14473SOL     OW44117   1.704   7.151   0.294 -0.0172  0.1171  0.0178
14473SOL    HW144118   1.793   7.150   0.260  0.1927 -0.3310  0.5772
14473SOL    HW244119   1.711   7.199   0.376 -0.1892 -0.4075  0.3399
14474SOL     OW44120   4.069   4.486   5.882 -0.1165 -0.1064  0.3787
14474SOL    HW144121   4.009   4.560   5.889 -1.2381 -0.8252 -1.0495
14474SOL    HW244122   4.070   4.447   5.969 -4.7290 -2.2710 -0.2350
14475SOL     OW44123   6.505   5.776   5.523  0.0250  0.1784  0.4295
14475SOL    HW144124   6.545   5.816   5.445 -0.3705 -0.7922 -0.2844
14475SOL    HW244125   6.579   5.749   5.577  0.4080 -1.7514 -0.9542
14476SOL     OW44126   1.187   5.146   0.914  0.0192  0.5239 -0.0844
14476SOL    HW144127   1.255   5.130   0.849 -1.0328 -1.6345 -0.7655
14476SOL    HW244128   1.221   5.106   0.995  0.1556  0.7366 -0.0351
14477SOL     OW44129   5.203   0.277   2.493  0.1718 -0.5978  0.5246
14477SOL    HW144130   5.111   0.293   2.513  0.0674  1.8507 -1.4173
14477SOL    HW244131   5.243   0.255   2.577 -1.5221  1.8316  2.0658
14478SOL     OW44132   0.541   1.252   1.384  0.0590 -0.8761  0.4048
14478SOL    HW144133   0.608   1.317   1.365 -0.6241 -0.5299 -0.9270
14478SOL    HW244134   0.589   1.177   1.417  0.9808 -0.1927  0.6548
14479SOL     OW44135   6.625   1.947   3.388 -0.0458 -0.1776 -0.5110
14479SOL    HW144136   6.630   1.852   3.380  0.8546 -0.1271 -0.6930
14479SOL    HW244137   6.710   1.978   3.357  0.5833  0.5353  1.7300
14480SOL     OW44138   6.520   6.375   5.090 -0.2586 -0.0543  0.4867
14480SOL    HW144139   6.604   6.331   5.102 -0.4025  0.0616  2.1678
14480SOL    HW244140   6.508   6.378   4.995  0.2038 -2.7423  0.2706
14481SOL     OW44141   5.689   7.357   3.525 -0.1810 -0.1110 -0.0609
14481SOL    HW144142   5.722   7.279   3.481 -3.1446 -2.2676  1.2204
14481SOL    HW244143   5.744   7.366   3.603  0.3866 -0.7020 -0.3866
14482SOL     OW44144   6.247   0.724   5.897 -0.7385  0.6341  0.1803
14482SOL    HW144145   6.300   0.796   5.931  0.9132 -0.1407 -0.6459
14482SOL    HW244146   6.300   0.686   5.827 -1.7846 -1.0770  0.2551
14483SOL     OW44147   4.523   4.673   2.643 -0.1886 -0.1587  0.0467
14483SOL    HW144148   4.495   4.645   2.730 -0.0726 -0.2787  0.0460
14483SOL    HW244149   4.467   4.748   2.622  2.0041  2.0736  1.6109
14484SOL     OW44150   6.604   4.210   0.309 -0.4540  0.0622  0.2724
14484SOL    HW144151   6.685   4.261   0.317  0.1003 -0.4390 -1.6674
14484SOL    HW244152   6.634   4.120   0.296 -1.2881 -0.0165 -1.2269
14485SOL     OW44153   0.451   5.905   4.640 -0.4370 -0.2648 -0.0164
14485SOL    HW144154   0.520   5.845   4.665  0.9362  1.4705  0.5879
14485SOL    HW244155   0.488   5.956   4.568 -1.4310  0.0882 -0.3057
14486SOL     OW44156   2.543   2.815   0.865 -0.3506 -0.3906 -0.2732
14486SOL    HW144157   2.580   2.730   0.840  1.6681 -0.5885  2.8092
14486SOL    HW244158   2.619   2.874   0.868 -1.6344  1.4364 -1.7657
14487SOL     OW44159   7.447   6.917   3.416  0.3247  0.0201 -0.3160
14487SOL    HW144160   7.460   7.008   3.444  0.9548 -0.4138  0.8915
14487SOL    HW244161   7.365   6.918   3.366  0.2057  1.2044 -0.1167
14488SOL     OW44162   2.620   2.227   4.734 -0.2215 -0.1781 -0.1306
14488SOL    HW144163   2.538   2.180   4.742 -0.9653  1.3356  2.3420
14488SOL    HW244164   2.604   2.293   4.667 -0.1785 -1.3776 -1.3683
14489SOL     OW44165   1.568   0.960   6.989 -0.1949 -0.4809 -0.1028
14489SOL    HW144166   1.606   0.972   7.076 -0.0987 -1.3460 -0.0237
14489SOL    HW244167   1.603   1.034   6.938 -2.4961  1.7416  1.2969
14490SOL     OW44168   7.827   7.271   3.461  0.3292 -0.1455 -0.6063
14490SOL    HW144169   7.871   7.313   3.535 -1.9491  1.6553 -0.1820
14490SOL    HW244170   7.848   7.178   3.470  0.3289  0.0501  2.1758
14491SOL     OW44171   0.915   7.567   1.043  0.1236 -0.2552 -0.2431
14491SOL    HW144172   0.970   7.605   1.111  1.5575 -1.8504 -0.4368
14491SOL    HW244173   0.933   7.473   1.048 -2.8460 -0.9378 -0.1141
14492SOL     OW44174   1.340   5.953   5.410 -0.0240  0.1310 -0.1736
14492SOL    HW144175   1.338   5.895   5.485  2.0674 -1.5227 -1.2662
14492SOL    HW244176   1.297   5.904   5.340 -1.6194  1.4937 -0.2125
14493SOL     OW44177   3.165   7.926   7.036 -0.5747  0.2077  0.1774
14493SOL    HW144178   3.079   7.888   7.019  0.5774 -1.5506 -2.2620
14493SOL    HW244179   3.222   7.852   7.053  0.5150  1.3557  1.9109
14494SOL     OW44180   7.286   6.690   4.618  0.0879  0.4366  0.0173
14494SOL    HW144181   7.336   6.636   4.680 -0.9327 -2.2813 -1.3720
14494SOL    HW244182   7.199   6.697   4.657  0.1037  0.7533 -0.0024
14495SOL     OW44183   6.913   7.641   3.777 -0.1564 -0.6563 -0.2412
14495SOL    HW144184   6.837   7.621   3.722 -0.6448  0.6631 -0.0754
14495SOL    HW244185   6.875   7.676   3.858  0.6252  1.3052 -0.6721
14496SOL     OW44186   1.367   6.434   1.852  0.0778 -0.0552  0.6628
14496SOL    HW144187   1.351   6.444   1.758  3.0299 -1.3554 -0.1055
14496SOL    HW244188   1.292   6.385   1.884  0.0755 -1.6730 -1.5384
14497SOL     OW44189   7.075   0.538   2.839 -0.3927 -0.0914  0.2288
14497SOL    HW144190   7.001   0.576   2.793 -0.1974  0.2770  0.2140
14497SOL    HW244191   7.120   0.613   2.878 -1.8797 -0.5181  3.0579
14498SOL     OW44192   1.344   6.961   1.987  0.5412 -0.4310 -0.6309
14498SOL    HW144193   1.335   6.994   2.076  0.5247  1.0394 -1.1501
14498SOL    HW244194   1.370   6.870   1.998  1.1580 -0.1119  0.8816
14499SOL     OW44195   3.455   1.925   2.841 -0.3967 -0.2027  0.3139
14499SOL    HW144196   3.473   2.015   2.814  0.3184  0.0375  1.5346
14499SOL    HW244197   3.470   1.873   2.762 -1.4299  0.7914 -0.5762
14500SOL     OW44198   3.149   6.337   5.459 -0.0698  0.1902 -0.6157
14500SOL    HW144199   3.088   6.384   5.402 -0.0290 -1.1402 -1.7935
14500SOL    HW244200   3.182   6.265   5.405  1.8030  0.2958  0.3072
14501SOL     OW44201   5.752   1.916   3.775  0.1719 -0.3099  0.2688
14501SOL    HW144202   5.792   1.891   3.691  2.3722  0.5447  0.9740
14501SOL    HW244203   5.732   2.009   3.765  1.3291  0.0350  0.9701
14502SOL     OW44204   3.933   0.031   3.072 -0.0297 -0.4054  0.4587
14502SOL    HW144205   3.881   0.058   3.147 -2.0992  0.2430 -1.1195
14502SOL    HW244206   3.910   0.093   3.002 -1.0286 -3.0607 -1.7715
14503SOL     OW44207   3.181   3.587   7.096  0.4770  0.2468  0.0783
14503SOL    HW144208   3.260   3.587   7.149  1.4182  1.9879 -1.2102
14503SOL    HW244209   3.205   3.537   7.017  0.5176  1.2443 -0.5619
14504SOL     OW44210   7.657   1.616   1.185 -0.4059 -0.1435  0.3354
14504SOL    HW144211   7.727   1.649   1.242  1.6390 -1.9520 -0.9602
14504SOL    HW244212   7.597   1.690   1.176  0.3747  0.9205  2.9511
14505SOL     OW44213   1.786   2.622   6.824 -0.5362 -0.4351 -0.0159
14505SOL    HW144214   1.874   2.618   6.863 -0.4310  0.0580 -0.2021
14505SOL    HW244215   1.799   2.600   6.732 -0.2881  1.6820 -0.5277
14506SOL     OW44216   4.546   1.991   3.677 -0.5254  0.0574 -0.3152
14506SOL    HW144217   4.553   2.073   3.629 -1.5843  0.8442  0.8114
14506SOL    HW244218   4.599   2.006   3.756  2.9837 -1.9547 -2.0293
14507SOL     OW44219   2.640   6.083   0.103 -0.3168  0.1835 -0.2896
14507SOL    HW144220   2.731   6.054   0.107 -0.6362 -1.0868 -1.4867
14507SOL    HW244221   2.607   6.048   0.020 -1.6401  1.3941 -0.3103
14508SOL     OW44222   5.381   7.451   3.144 -0.1131 -0.1002  0.0152
14508SOL    HW144223   5.388   7.392   3.219  1.2266 -0.5108 -0.4055
14508SOL    HW244224   5.470   7.457   3.109 -0.7140 -0.0304 -1.6159
14509SOL     OW44225   0.155   7.167   2.377 -0.2803 -0.4508  0.7450
14509SOL    HW144226   0.215   7.165   2.451  0.7775  0.7708 -0.0539
14509SOL    HW244227   0.091   7.098   2.396  1.1209 -1.4910  1.8099
14510SOL     OW44228   5.250   6.337   2.850 -0.0510 -0.1236  0.3123
14510SOL    HW144229   5.163   6.376   2.840  0.2603  0.1694 -1.8515
14510SOL    HW244230   5.254   6.271   2.780  2.1141  1.2058 -0.9432
14511SOL     OW44231   3.905   5.601   3.077 -0.4225 -0.1459 -0.1178
14511SOL    HW144232   3.998   5.598   3.101  0.2132 -0.8842 -2.4484
14511SOL    HW244233   3.886   5.513   3.045 -1.3822  0.5511 -1.5487
14512SOL     OW44234   6.004   1.272   4.003 -0.0430 -0.3626 -0.4077
14512SOL    HW144235   6.019   1.329   4.079 -0.9814 -1.1322  0.3967
14512SOL    HW244236   5.912   1.288   3.980  0.3418  0.1559 -1.6557
14513SOL     OW44237   5.264   6.115   1.131  0.0517 -0.1677 -0.8728
14513SOL    HW144238   5.294   6.025   1.145 -2.2227 -1.1438 -1.7678
14513SOL    HW244239   5.203   6.132   1.202 -0.3672  0.2408 -1.3176
14514SOL     OW44240   2.472   5.660   1.960 -0.4048 -0.7994  0.5469
14514SOL    HW144241   2.481   5.568   1.988 -2.6140 -1.9847 -2.1840
14514SOL    HW244242   2.393   5.691   2.004  0.0199 -0.3770  1.0181
14515SOL     OW44243   1.116   5.321   4.884 -0.2009  0.1620 -0.6957
14515SOL    HW144244   1.211   5.308   4.879 -0.4786 -1.6949 -2.4894
14515SOL    HW244245   1.101   5.401   4.835  0.3237 -0.3430 -1.7172
14516SOL     OW44246   5.873   2.417   0.920 -0.0733 -0.0281  0.6590
14516SOL    HW144247   5.839   2.435   1.007 -0.4263 -0.0658  0.5306
14516SOL    HW244248   5.952   2.366   0.935 -0.1903 -0.1245  0.9534
14517SOL     OW44249   4.184   1.368   4.737  0.7588  0.0817 -0.3027
14517SOL    HW144250   4.140   1.425   4.673  0.6161  1.3936  0.9176
14517SOL    HW244251   4.276   1.393   4.732  0.5415  1.2256  1.0003
14518SOL     OW44252   1.559   1.590   1.725 -0.2375  0.3258 -0.3184
14518SOL    HW144253   1.635   1.617   1.673  1.1782 -1.4826  0.7180
14518SOL    HW244254   1.593   1.578   1.813 -1.7112 -0.5922  0.1605
14519SOL     OW44255   7.135   3.391   6.024  0.0066 -0.2316 -0.0636
14519SOL    HW144256   7.068   3.327   6.049 -1.6219  1.1785 -0.6195
14519SOL    HW244257   7.178   3.353   5.948 -0.5063 -0.9385 -0.0037
14520SOL     OW44258   3.762   3.437   4.918  0.0369  0.6745  0.1268
14520SOL    HW144259   3.809   3.471   4.842  1.0400 -0.1761  0.3511
14520SOL    HW244260   3.725   3.354   4.888  0.2381  0.4501  0.4931
14521SOL     OW44261   5.909   0.294   6.344 -0.0781  0.0616 -0.2672
14521SOL    HW144262   5.875   0.205   6.358 -1.0400  0.2008 -1.5319
14521SOL    HW244263   5.831   0.346   6.325  0.6549  0.7890 -1.3768
14522SOL     OW44264   2.363   2.358   6.322 -0.1223  0.3010  0.1209
14522SOL    HW144265   2.316   2.438   6.297 -1.4223 -0.1534  0.9747
14522SOL    HW244266   2.422   2.386   6.392  1.9817  1.1504 -1.8606
14523SOL     OW44267   7.076   3.070   4.340 -0.1701  0.3983 -0.5037
14523SOL    HW144268   7.006   3.055   4.404 -0.3889 -1.9424 -1.1876
14523SOL    HW244269   7.030   3.078   4.256  0.2458  1.4758 -0.6464
14524SOL     OW44270   4.632   1.578   2.686  0.0106 -0.2873 -0.4069
14524SOL    HW144271   4.725   1.574   2.709 -0.1714  0.4025  0.4922
14524SOL    HW244272   4.595   1.499   2.725  0.0409 -0.0642  0.0730
14525SOL     OW44273   1.715   0.904   4.790  0.0435  0.2444 -0.6559
14525SOL    HW144274   1.671   0.826   4.755  1.5715 -1.2053  0.4900
14525SOL    HW244275   1.738   0.880   4.880 -1.3122  2.8422  0.4989
14526SOL     OW44276   1.016   3.376   0.443  0.1072  0.3702 -0.2720
14526SOL    HW144277   1.078   3.350   0.513  0.3799  0.0017 -0.6435
14526SOL    HW244278   0.964   3.446   0.482  0.2493  0.1594  0.3110
14527SOL     OW44279   7.294   1.075   4.255  0.2628  0.0933 -0.3246
14527SOL    HW144280   7.242   1.116   4.324 -0.6232  1.4164 -1.7470
14527SOL    HW244281   7.382   1.070   4.293  0.4961  3.5198 -0.0997
14528SOL     OW44282   2.653   6.398   7.697 -0.1748  0.1264  0.0562
14528SOL    HW144283   2.606   6.410   7.779 -0.8171 -0.8110 -0.1572
14528SOL    HW244284   2.600   6.443   7.631 -1.6434 -2.1191 -0.4389
14529SOL     OW44285   1.751   0.694   1.319  0.0324 -0.7867 -0.2155
14529SOL    HW144286   1.657   0.704   1.305 -0.0751 -0.0753  0.9466
14529SOL    HW244287   1.783   0.782   1.337  0.9138 -1.0371 -0.4862
14530SOL     OW44288   2.161   3.697   0.055 -0.0548 -0.8273  0.5863
14530SOL    HW144289   2.191   3.749   0.129 -0.9783 -0.8205  0.9707
14530SOL    HW244290   2.132   3.762  -0.010 -0.6226 -0.8538  0.8136
14531SOL     OW44291   7.850   4.013   6.755  0.1972  0.3947  0.6910
14531SOL    HW144292   7.906   3.937   6.771 -0.0676  0.3275  1.3276
14531SOL    HW244293   7.794   3.987   6.682  0.2690  0.0700  0.7525
14532SOL     OW44294   7.867   1.656   2.837  1.0621 -0.2001 -0.0557
14532SOL    HW144295   7.847   1.723   2.902 -0.6001  0.4456 -1.1667
14532SOL    HW244296   7.835   1.692   2.755  0.2342 -2.2867 -0.7068
14533SOL     OW44297   0.121   6.996   6.703  0.0757 -0.6693  0.2092
14533SOL    HW144298   0.055   6.943   6.747 -0.0439 -0.5470  0.1753
14533SOL    HW244299   0.192   7.004   6.768 -0.0574 -0.5708  0.3419
14534SOL     OW44300   1.066   5.770   2.019 -0.1293 -0.0889 -1.1343
14534SOL    HW144301   1.060   5.834   1.947 -1.8670 -0.3270 -1.2220
14534SOL    HW244302   1.004   5.701   1.996 -3.4312  1.4497  2.1610
14535SOL     OW44303   2.280   5.971   0.050 -0.2004  0.0384  0.4337
14535SOL    HW144304   2.318   6.059   0.041  2.0050 -1.0079 -1.3552
14535SOL    HW244305   2.321   5.935   0.129  0.0001  0.0867  0.3512
14536SOL     OW44306   5.005   1.531   1.085  0.0639  0.4874  0.2403
14536SOL    HW144307   5.078   1.471   1.071 -1.2644 -1.3986  0.9348
14536SOL    HW244308   4.930   1.474   1.099 -1.3054  2.3472  0.8642
14537SOL     OW44309   1.845   0.263   5.915  0.3018 -0.7528  0.1793
14537SOL    HW144310   1.934   0.243   5.885  0.7000  2.1432 -0.8671
14537SOL    HW244311   1.857   0.335   5.977 -1.3049 -0.4048  0.1213
14538SOL     OW44312   2.144   6.599   7.681 -0.6985  0.0959  0.4732
14538SOL    HW144313   2.063   6.642   7.654 -0.9567 -1.2080 -0.9945
14538SOL    HW244314   2.207   6.621   7.612 -0.8650 -1.8643 -0.3820
14539SOL     OW44315   0.181   4.688   4.267 -0.0237 -0.3224  0.0037
14539SOL    HW144316   0.095   4.678   4.307  0.3589 -1.0139  0.6820
14539SOL    HW244317   0.169   4.663   4.175 -0.1995 -2.1532  0.4805
14540SOL     OW44318   2.983   4.846   3.465  0.4435  0.3560  0.0091
14540SOL    HW144319   3.024   4.917   3.514 -0.9465  1.5121 -0.4172
14540SOL    HW244320   2.998   4.869   3.373  0.5990 -0.2884 -0.1313
14541SOL     OW44321   4.324   1.288   4.068  0.6106 -0.3976  0.0393
14541SOL    HW144322   4.358   1.205   4.034  0.7936  0.0003 -0.7519
14541SOL    HW244323   4.276   1.326   3.995  0.7312  0.3114  0.3248
14542SOL     OW44324   0.192   2.395   6.797  0.0041  0.8445  0.1085
14542SOL    HW144325   0.113   2.383   6.849 -0.5343 -0.4750 -0.9645
14542SOL    HW244326   0.167   2.458   6.730 -0.0222  0.7265  0.0069
14543SOL     OW44327   5.809   7.727   0.931 -0.4351  0.3035 -0.0278
14543SOL    HW144328   5.817   7.809   0.979 -1.8415  0.2344  0.3776
14543SOL    HW244329   5.826   7.659   0.996 -0.8111  0.2407  0.0049
14544SOL     OW44330   0.484   6.269   3.925 -0.3116  0.3465 -0.6084
14544SOL    HW144331   0.441   6.325   3.861  0.5526  1.3697 -0.3294
14544SOL    HW244332   0.419   6.202   3.947 -0.9923  0.6186 -1.7353
14545SOL     OW44333   6.685   3.257   6.048  1.1786 -0.1673 -0.3037
14545SOL    HW144334   6.627   3.217   6.113  0.5060  1.0506 -0.1358
14545SOL    HW244335   6.670   3.351   6.057  0.2385 -0.0056 -2.9915
14546SOL     OW44336   3.978   0.323   7.862  0.3651  0.5061  0.4969
14546SOL    HW144337   3.913   0.261   7.895  0.9468  0.9183  2.5723
14546SOL    HW244338   4.056   0.269   7.846  0.1331  0.3322 -0.0855
14547SOL     OW44339   3.486   0.693   2.519  0.3556 -0.0747  0.1581
14547SOL    HW144340   3.494   0.689   2.424  1.1340 -0.7662  0.2424
14547SOL    HW244341   3.566   0.652   2.552 -0.2364 -0.5114  1.1093
14548SOL     OW44342   5.406   6.669   5.710 -0.7886  0.3934  0.1155
14548SOL    HW144343   5.460   6.592   5.729 -0.4245  1.1404  2.4866
14548SOL    HW244344   5.348   6.641   5.640  0.5887 -1.4329 -0.3866
14549SOL     OW44345   6.813   5.187   5.257  0.0298  0.0897  0.0567
14549SOL    HW144346   6.815   5.232   5.341 -1.5431 -0.2016  0.2783
14549SOL    HW244347   6.775   5.101   5.277 -1.6685  0.5117 -1.1417
14550SOL     OW44348   2.084   5.536   3.280  0.5045  0.5747 -0.3942
14550SOL    HW144349   2.013   5.476   3.300 -0.1030  1.7477  1.1283
14550SOL    HW244350   2.095   5.529   3.185 -0.2643 -1.0995 -0.3993
14551SOL     OW44351   2.900   2.745   5.991  0.6188 -0.5185 -0.3497
14551SOL    HW144352   2.955   2.667   5.981  0.0505 -0.8365 -1.1344
14551SOL    HW244353   2.910   2.792   5.908  0.1937 -0.2655 -0.2620
14552SOL     OW44354   7.665   7.910   0.921 -0.1346  0.1616  0.3226
14552SOL    HW144355   7.713   7.989   0.948  0.6387 -0.5872  1.1657
14552SOL    HW244356   7.579   7.919   0.962 -0.7982  1.5360 -1.2322
14553SOL     OW44357   4.638   3.751   1.312  0.2930 -0.2745  0.2174
14553SOL    HW144358   4.551   3.743   1.350 -0.3798 -1.1709 -1.4300
14553SOL    HW244359   4.681   3.668   1.333  1.5623  0.8633  2.7361
14554SOL     OW44360   1.311   6.808   6.016  0.5285  0.2201 -0.1395
14554SOL    HW144361   1.234   6.769   5.975  0.4423 -0.9970  1.1163
14554SOL    HW244362   1.353   6.858   5.946 -0.6234 -0.2558 -1.2012
14555SOL     OW44363   3.319   2.771   1.097 -0.4580 -0.0385 -0.4430
14555SOL    HW144364   3.378   2.797   1.026  0.7127  2.2738  1.2624
14555SOL    HW244365   3.235   2.811   1.074  0.4896  2.7192  0.4836
14556SOL     OW44366   5.998   6.201   0.282  0.5739 -0.0776  0.7744
14556SOL    HW144367   6.082   6.169   0.315 -0.1554 -0.6463  2.1435
14556SOL    HW244368   5.940   6.125   0.286 -0.5008  0.7546  1.6217
14557SOL     OW44369   1.706   5.405   5.434 -0.7883  0.1295 -0.6944
14557SOL    HW144370   1.706   5.309   5.432  2.2409 -0.0663  1.4425
14557SOL    HW244371   1.703   5.427   5.527 -1.1910  2.1308 -1.1357
14558SOL     OW44372   3.343   2.996   6.313 -0.5924  0.0708 -0.1478
14558SOL    HW144373   3.327   2.902   6.299 -0.6290  0.2913 -1.8290
14558SOL    HW244374   3.282   3.039   6.253  1.5175  1.0861 -1.6710
14559SOL     OW44375   4.143   5.879   6.531  0.5171  0.2480 -0.3954
14559SOL    HW144376   4.095   5.823   6.471 -0.0575 -0.5326  0.7536
14559SOL    HW244377   4.093   5.875   6.613  1.4043  1.0786  0.2108
14560SOL     OW44378   1.403   5.775   4.703  0.0323  0.2885 -0.4725
14560SOL    HW144379   1.492   5.743   4.690 -0.7494 -2.2365 -0.0798
14560SOL    HW244380   1.348   5.717   4.649 -1.5802  0.3165  1.0459
14561SOL     OW44381   6.592   4.094   2.053 -0.1514 -0.3007 -0.2562
14561SOL    HW144382   6.585   4.145   2.134  1.0534  0.8395 -0.8197
14561SOL    HW244383   6.663   4.033   2.071  1.2777  1.0718 -0.9564
14562SOL     OW44384   6.007   2.747   3.266  0.4094  0.0609 -0.7400
14562SOL    HW144385   5.984   2.772   3.177 -0.6386  2.1811  0.0750
14562SOL    HW244386   5.929   2.765   3.318  0.5575 -2.3158  0.4544
14563SOL     OW44387   2.138   3.223   1.726  0.0115  0.2095 -0.0287
14563SOL    HW144388   2.215   3.274   1.755 -0.3485  0.2159  0.9660
14563SOL    HW244389   2.082   3.287   1.683  0.5935  0.1879 -0.8488
14564SOL     OW44390   7.836   2.256   0.901  0.1014  0.0717  0.4210
14564SOL    HW144391   7.844   2.174   0.852  0.0213 -0.4877  1.3091
14564SOL    HW244392   7.899   2.315   0.861  2.8208 -1.5611  2.0073
14565SOL     OW44393   7.583   5.197   2.036  0.1497  0.1321  0.4391
14565SOL    HW144394   7.633   5.144   2.099 -0.1090 -0.3146  0.2717
14565SOL    HW244395   7.563   5.137   1.964 -1.5287  0.0028  0.9741
14566SOL     OW44396   0.605   7.746   0.646 -0.7077 -0.5294 -0.4272
14566SOL    HW144397   0.679   7.726   0.703 -0.0260  1.1177 -0.6877
14566SOL    HW244398   0.528   7.739   0.702 -0.0602  0.9568  0.7014
14567SOL     OW44399   1.281   6.461   3.607 -0.0343 -0.8906  0.6029
14567SOL    HW144400   1.192   6.467   3.572  0.2381  0.0042  0.0566
14567SOL    HW244401   1.271   6.479   3.701 -0.1089  2.0641  0.1233
14568SOL     OW44402   5.505   0.942   0.973 -0.0818  0.5048  0.2328
14568SOL    HW144403   5.592   0.982   0.982  0.3122 -0.2364 -0.1962
14568SOL    HW244404   5.515   0.878   0.903 -0.8860  0.1470  0.4322
14569SOL     OW44405   0.528   3.968   4.920 -0.3954  0.7139  0.0990
14569SOL    HW144406   0.508   4.023   4.844  0.6094  0.6836 -0.2011
14569SOL    HW244407   0.462   3.993   4.985 -1.3722  0.6271 -0.8240
14570SOL     OW44408   5.141   2.757   4.634 -0.1973 -0.1404 -0.2197
14570SOL    HW144409   5.067   2.817   4.647 -0.6999 -0.5889 -0.9237
14570SOL    HW244410   5.127   2.687   4.698 -1.0721 -0.8477 -1.1343
14571SOL     OW44411   3.326   0.204   5.839  0.4624  0.4716  0.0702
14571SOL    HW144412   3.376   0.216   5.758 -1.7020  0.5415 -1.3507
14571SOL    HW244413   3.298   0.292   5.864  2.3042  0.6512  1.8089
14572SOL     OW44414   1.651   5.377   3.859  0.3970 -0.0423  0.3295
14572SOL    HW144415   1.726   5.425   3.825 -0.1033  0.3043 -0.3061
14572SOL    HW244416   1.624   5.426   3.937  0.5382  0.1022  0.2872
14573SOL     OW44417   7.528   1.287   7.545 -0.6186  0.9811 -0.2547
14573SOL    HW144418   7.548   1.376   7.573  0.5374  1.6144 -2.7600
14573SOL    HW244419   7.605   1.259   7.497 -2.0640 -0.2297 -2.0276
14574SOL     OW44420   1.429   5.060   4.567  0.3485  0.4118 -0.1664
14574SOL    HW144421   1.464   5.070   4.656  1.5479 -1.6517 -0.3545
14574SOL    HW244422   1.506   5.051   4.511 -0.3714  2.3004 -1.5728
14575SOL     OW44423   1.786   7.433   7.857 -0.0263 -0.3908  0.3288
14575SOL    HW144424   1.808   7.516   7.899  0.6631 -0.9721  1.1373
14575SOL    HW244425   1.845   7.428   7.782 -1.8175  1.0424 -1.2958
14576SOL     OW44426   5.708   4.780   1.557 -0.5765  0.1001  0.3191
14576SOL    HW144427   5.762   4.702   1.566 -0.5273  0.3269  2.5615
14576SOL    HW244428   5.686   4.804   1.647 -0.3904  2.8148 -0.2861
14577SOL     OW44429   4.856   7.002   4.617 -0.5659 -0.0564 -0.0697
14577SOL    HW144430   4.919   7.072   4.632 -0.5939 -0.1770  0.6482
14577SOL    HW244431   4.909   6.922   4.612 -0.5471 -0.0009 -0.7421
14578SOL     OW44432   0.472   3.777   5.531  0.3294 -0.1154  0.1118
14578SOL    HW144433   0.477   3.721   5.608 -0.0124 -0.5003 -0.1429
14578SOL    HW244434   0.406   3.736   5.475 -0.4298  0.9131  0.2170
14579SOL     OW44435   6.511   6.883   6.934  0.4034 -0.1580 -0.0148
14579SOL    HW144436   6.528   6.813   6.997 -0.0644 -0.8374 -0.6320
14579SOL    HW244437   6.496   6.838   6.851  1.8832  0.7626 -0.8246
14580SOL     OW44438   7.808   2.913   3.782 -0.1138 -0.1712  0.1346
14580SOL    HW144439   7.756   2.989   3.811 -1.0897  0.0611 -1.9898
14580SOL    HW244440   7.835   2.870   3.862 -2.4014  0.5481  1.3868
14581SOL     OW44441   1.569   4.403   4.370  0.0108  0.6071 -0.4261
14581SOL    HW144442   1.514   4.481   4.365 -1.6498 -0.4532  0.4146
14581SOL    HW244443   1.534   4.345   4.302 -1.7333 -1.1053  1.7684
14582SOL     OW44444   1.823   4.706   2.317  0.2569  0.3668 -0.5440
14582SOL    HW144445   1.894   4.709   2.382 -1.1761 -1.6369  1.2757
14582SOL    HW244446   1.765   4.777   2.342  1.8437  2.4527 -2.4539
14583SOL     OW44447   5.363   6.750   5.981 -0.1283  0.3243 -0.2861
14583SOL    HW144448   5.400   6.839   5.983  0.7946 -0.0303 -0.9212
14583SOL    HW244449   5.373   6.722   5.890 -0.7493 -0.3011 -0.1666
14584SOL     OW44450   1.985   6.443   1.430  0.1641 -0.1051  0.3419
14584SOL    HW144451   2.061   6.453   1.372 -1.0437  0.9519 -1.1566
14584SOL    HW244452   2.022   6.441   1.518  1.8814  1.4292 -0.2670
14585SOL     OW44453   7.224   3.939   0.350 -0.4298 -0.0525 -0.4419
14585SOL    HW144454   7.133   3.968   0.338 -0.0459  0.4427 -2.6063
14585SOL    HW244455   7.225   3.849   0.318  0.0974  0.3860 -1.6898
14586SOL     OW44456   1.763   1.529   6.501  0.2417  0.5396 -0.5047
14586SOL    HW144457   1.783   1.487   6.584  0.6162  0.3197 -0.7087
14586SOL    HW244458   1.667   1.527   6.496  0.2353  0.1780 -0.2726
14587SOL     OW44459   5.789   7.903   7.849  0.5461  0.0739  0.6016
14587SOL    HW144460   5.876   7.870   7.830  0.2485 -1.2039  1.3395
14587SOL    HW244461   5.771   7.875   7.939 -2.0239 -3.0540 -0.6539
14588SOL     OW44462   1.869   1.993   7.718  0.6854 -0.1489 -0.1984
14588SOL    HW144463   1.961   1.993   7.742  0.9532  0.2282 -1.1784
14588SOL    HW244464   1.822   1.999   7.802  1.5779  1.4935  0.2357
14589SOL     OW44465   5.384   4.969   2.218  0.0008 -0.1611  0.2932
14589SOL    HW144466   5.317   4.901   2.229  1.5903 -1.6728  1.2261
14589SOL    HW244467   5.440   4.936   2.148 -0.0667  0.9494 -0.2934
14590SOL     OW44468   7.721   7.008   5.410  0.1611  0.0975  0.2602
14590SOL    HW144469   7.684   7.000   5.498 -0.2762  1.6646  0.2320
14590SOL    HW244470   7.659   6.961   5.354 -1.9013  2.6669  0.2119
14591SOL     OW44471   2.020   1.866   2.002 -0.4797 -1.0309 -0.2163
14591SOL    HW144472   2.081   1.934   2.029 -1.6343  0.1050 -0.4039
14591SOL    HW244473   2.028   1.798   2.069 -1.5637  0.6773  1.7394
14592SOL     OW44474   4.904   5.792   2.568  0.6725 -0.1469  0.3391
14592SOL    HW144475   4.919   5.725   2.501  3.2121 -0.5213  1.1794
14592SOL    HW244476   4.969   5.774   2.635 -0.1147  1.7846  1.7136
14593SOL     OW44477   3.120   4.524   7.216 -0.3995 -0.0531 -0.1580
14593SOL    HW144478   3.105   4.506   7.309 -1.6282  0.3718 -0.2666
14593SOL    HW244479   3.214   4.508   7.204 -0.0606  0.6695  1.3282
14594SOL     OW44480   4.574   2.841   4.290  0.5662  0.0155 -0.5916
14594SOL    HW144481   4.647   2.788   4.321 -0.2543 -0.5997  0.3649
14594SOL    HW244482   4.496   2.795   4.321 -0.1906  2.1884  0.9972
14595SOL     OW44483   2.317   4.466   3.313  0.0670 -0.4950 -0.1937
14595SOL    HW144484   2.225   4.490   3.322  0.3363  0.0272  1.5098
14595SOL    HW244485   2.325   4.435   3.222 -1.9545 -1.4175 -0.1100
14596SOL     OW44486   7.214   1.807   4.351 -0.1262  0.1917  0.2919
14596SOL    HW144487   7.301   1.833   4.382 -0.1585  3.1200 -1.6358
14596SOL    HW244488   7.190   1.875   4.288 -3.4961 -0.9703  0.1209
14597SOL     OW44489   0.031   0.464   7.460 -0.0874  0.2205 -0.1535
14597SOL    HW144490   0.018   0.416   7.542 -1.1651 -0.9265 -0.9657
14597SOL    HW244491  -0.058   0.480   7.427  0.2942 -2.0859 -2.6304
14598SOL     OW44492   4.248   4.432   3.013 -0.1634  0.4343 -0.3773
14598SOL    HW144493   4.291   4.377   2.947 -0.8725 -0.0896 -0.4184
14598SOL    HW244494   4.225   4.372   3.083  2.8157  1.3783  1.5585
14599SOL     OW44495   5.821   7.159   1.964  0.4971  0.5674  0.3303
14599SOL    HW144496   5.840   7.080   1.913  0.0326  0.6908 -0.0432
14599SOL    HW244497   5.861   7.143   2.049 -1.8614 -1.2172  1.1904
14600SOL     OW44498   0.548   4.546   1.064 -0.1547 -1.1940 -0.2543
14600SOL    HW144499   0.591   4.466   1.096  1.0988 -0.6769 -0.5703
14600SOL    HW244500   0.529   4.596   1.143  0.3811 -1.1684 -0.1365
14601SOL     OW44501   7.907   0.197   0.679  0.1811  1.0024 -0.6898
14601SOL    HW144502   7.988   0.189   0.628  0.0284 -0.0005 -0.7938
14601SOL    HW244503   7.864   0.113   0.669  0.2192  0.7164  1.2192
14602SOL     OW44504   5.437   7.282   3.371 -0.1130 -0.0331 -0.1411
14602SOL    HW144505   5.517   7.334   3.380 -0.2307  0.0581  0.4342
14602SOL    HW244506   5.467   7.191   3.368 -0.0106 -0.0311  0.5632
14603SOL     OW44507   3.638   4.784   0.960 -0.1450  0.4087  0.3893
14603SOL    HW144508   3.629   4.862   1.014 -3.8425 -0.0838  0.7522
14603SOL    HW244509   3.688   4.813   0.884 -0.5524  2.8797  0.9794
14604SOL     OW44510   4.161   7.298   7.262 -0.0799 -0.0227  0.0610
14604SOL    HW144511   4.126   7.209   7.273  0.9187 -0.3354  0.8632
14604SOL    HW244512   4.146   7.341   7.346 -0.3731  0.5158 -0.2586
14605SOL     OW44513   4.714   5.713   4.911 -0.4115 -0.7868  0.4985
14605SOL    HW144514   4.624   5.685   4.895 -0.3532 -0.6471 -0.0794
14605SOL    HW244515   4.763   5.683   4.834 -0.2272  0.3256  0.1689
14606SOL     OW44516   3.262   4.706   4.271 -0.1910  0.5216  0.0202
14606SOL    HW144517   3.346   4.660   4.270  0.3091  1.3565  1.0665
14606SOL    HW244518   3.228   4.696   4.183  0.7216 -0.3561 -0.2501
14607SOL     OW44519   5.572   1.932   3.451 -0.3428 -0.1479 -0.2960
14607SOL    HW144520   5.545   2.023   3.467  1.6669  0.7600 -1.7314
14607SOL    HW244521   5.514   1.902   3.382 -1.9825 -0.5167  1.1527
14608SOL     OW44522   2.677   4.452   5.429  0.4996  0.2629  0.0036
14608SOL    HW144523   2.730   4.438   5.507  1.5472  0.9960 -0.5501
14608SOL    HW244524   2.591   4.418   5.452  0.8492  0.2594  1.4002
14609SOL     OW44525   6.526   4.038   2.920 -0.1815 -0.5510 -0.3341
14609SOL    HW144526   6.582   4.058   2.995 -0.3532 -0.5920 -0.1917
14609SOL    HW244527   6.486   3.953   2.942 -0.1916 -0.5885 -0.4961
14610SOL     OW44528   0.276   7.544   2.585  0.1171  0.4367  0.2539
14610SOL    HW144529   0.354   7.491   2.571 -0.8728 -1.6202  1.8636
14610SOL    HW244530   0.212   7.508   2.524 -0.6682 -0.5451  1.5982
14611SOL     OW44531   1.281   7.304   7.091  0.6264  0.5588 -0.9000
14611SOL    HW144532   1.353   7.248   7.118  1.0499 -0.0611 -3.1451
14611SOL    HW244533   1.273   7.369   7.162  2.3306 -0.2860  0.1259
14612SOL     OW44534   4.213   2.909   7.307 -0.3052 -0.1929 -0.1955
14612SOL    HW144535   4.243   2.985   7.256  2.2698 -0.9436  0.0545
14612SOL    HW244536   4.151   2.864   7.249  1.3032 -0.1409 -2.0552
14613SOL     OW44537   0.188   7.248   5.458  0.3855 -0.1154 -0.0608
14613SOL    HW144538   0.265   7.204   5.421  0.1549  0.3491 -1.1304
14613SOL    HW244539   0.123   7.178   5.466  0.4589 -0.2370 -0.4895
14614SOL     OW44540   4.443   6.311   5.678 -0.1625  0.1593  0.2638
14614SOL    HW144541   4.427   6.329   5.771 -0.0047 -2.4067  0.8650
14614SOL    HW244542   4.435   6.216   5.670 -2.1565  0.4348 -2.7612
14615SOL     OW44543   7.593   5.165   4.608  0.0923  0.2158  0.2530
14615SOL    HW144544   7.524   5.203   4.553 -0.1453  1.1356  1.1471
14615SOL    HW244545   7.576   5.201   4.695  0.9318 -0.5856  0.7614
14616SOL     OW44546   0.210   1.256   4.074 -0.5327  0.5612 -0.0280
14616SOL    HW144547   0.186   1.284   4.162  0.2423  3.2965 -0.6168
14616SOL    HW244548   0.127   1.252   4.026 -0.6999  1.5166  0.1803
14617SOL     OW44549   5.548   2.339   4.211 -0.0358 -0.2681  0.1074
14617SOL    HW144550   5.591   2.407   4.263 -1.5170  0.8251 -0.0190
14617SOL    HW244551   5.462   2.376   4.191 -0.5720 -1.8647 -0.6700
14618SOL     OW44552   1.176   7.555   5.908 -0.6259 -0.4235 -0.1961
14618SOL    HW144553   1.119   7.490   5.866  0.7439 -2.2787  0.6359
14618SOL    HW244554   1.125   7.588   5.982 -2.3380  1.4833 -2.1309
14619SOL     OW44555   7.182   7.633   7.338 -0.0791  0.2903  0.1663
14619SOL    HW144556   7.144   7.720   7.352  0.4599  0.6109 -0.3223
14619SOL    HW244557   7.116   7.572   7.371 -0.4929  0.8836  0.4419
14620SOL     OW44558   3.246   4.706   0.440 -0.3782 -0.3735  0.0562
14620SOL    HW144559   3.152   4.689   0.435 -0.0891 -1.8041 -1.3029
14620SOL    HW244560   3.264   4.762   0.365 -0.5513  2.3098  1.9045
14621SOL     OW44561   1.649   0.019   5.966 -0.3960  0.5361  0.2251
14621SOL    HW144562   1.663  -0.051   5.902  2.8832 -0.0376  1.3463
14621SOL    HW244563   1.719   0.082   5.948 -0.6947  1.3961  1.9094
14622SOL     OW44564   0.626   6.915   3.573 -0.0541 -0.1737  0.1850
14622SOL    HW144565   0.541   6.943   3.605  1.4841  2.4563  2.3964
14622SOL    HW244566   0.650   6.842   3.631 -0.5488 -0.5747 -0.1060
14623SOL     OW44567   7.856   5.892   0.360 -0.0628  0.9767  0.2239
14623SOL    HW144568   7.949   5.875   0.349 -0.2774 -0.2466  0.2076
14623SOL    HW244569   7.827   5.925   0.275 -0.0212 -0.5024 -0.3945
14624SOL     OW44570   0.674   4.938   0.515  0.0478 -0.5311 -0.6773
14624SOL    HW144571   0.738   4.898   0.574  0.4041  2.2333  0.9990
14624SOL    HW244572   0.725   4.961   0.437  0.5780 -0.4801 -0.3231
14625SOL     OW44573   7.548   2.298   2.588  0.6620 -0.0197  0.1829
14625SOL    HW144574   7.550   2.351   2.668  3.1811 -0.3124  0.3819
14625SOL    HW244575   7.454   2.290   2.568  0.0192  1.2509  2.2808
14626SOL     OW44576   1.591   0.954   7.956 -0.1376 -0.3315  0.1545
14626SOL    HW144577   1.581   1.046   7.931 -0.8241 -0.5210 -0.2990
14626SOL    HW244578   1.545   0.906   7.887  1.5568 -1.1059 -0.4662
14627SOL     OW44579   3.453   3.428   2.574 -0.0236  0.5124  0.2005
14627SOL    HW144580   3.473   3.414   2.666  1.3211  1.8562  0.1449
14627SOL    HW244581   3.508   3.365   2.527 -0.0992  0.3959  0.2667
14628SOL     OW44582   7.827   6.291   2.817 -0.1728  0.2321  0.1360
14628SOL    HW144583   7.882   6.300   2.895  0.0946 -1.6209  0.1953
14628SOL    HW244584   7.879   6.331   2.747  0.9327 -0.7666  0.3480
14629SOL     OW44585   7.378   7.892   3.565 -0.0758  0.2752 -1.0019
14629SOL    HW144586   7.430   7.813   3.576 -1.5744 -0.7082 -0.6062
14629SOL    HW244587   7.290   7.867   3.595 -1.3947  1.1287 -3.8556
14630SOL     OW44588   1.474   2.319   3.625 -0.0605  0.2336 -0.2270
14630SOL    HW144589   1.558   2.361   3.608 -0.1358  1.3218  1.7190
14630SOL    HW244590   1.460   2.261   3.551  1.6962  1.1321 -1.3252
14631SOL     OW44591   7.133   4.114   4.845  0.1727  0.0822 -0.5876
14631SOL    HW144592   7.182   4.044   4.802  0.3477  1.1647 -2.2242
14631SOL    HW244593   7.059   4.131   4.786  1.1976  2.5853 -1.2650
14632SOL     OW44594   4.084   0.759   5.398 -0.2663 -0.0756 -0.6138
14632SOL    HW144595   3.989   0.752   5.389 -0.3718 -0.8911  0.7182
14632SOL    HW244596   4.111   0.672   5.428  0.6587  0.6470  0.7585
14633SOL     OW44597   2.438   0.087   3.258  0.0978  0.2216 -0.2004
14633SOL    HW144598   2.516   0.104   3.310  0.6246  0.4393 -1.0378
14633SOL    HW244599   2.429   0.164   3.201 -0.4167 -0.0347 -0.4789
14634SOL     OW44600   5.325   5.324   6.457 -0.1660  0.0309 -0.4337
14634SOL    HW144601   5.261   5.276   6.404 -0.3641 -1.0117  0.7186
14634SOL    HW244602   5.408   5.309   6.412 -0.2962 -1.0222 -0.3513
14635SOL     OW44603   3.529   0.136   5.249  0.1751 -0.2355  0.3976
14635SOL    HW144604   3.537   0.065   5.184 -0.2613  0.8784 -0.9346
14635SOL    HW244605   3.460   0.108   5.308  0.1273 -0.9953 -0.0127
14636SOL     OW44606   1.877   7.823   1.590 -0.4103  0.3098  0.0721
14636SOL    HW144607   1.895   7.915   1.610 -0.4514  0.4074 -0.3143
14636SOL    HW244608   1.944   7.799   1.526 -1.2367  0.4958 -0.9120
14637SOL     OW44609   0.774   2.994   0.895 -0.2924  0.1662  0.0685
14637SOL    HW144610   0.735   3.026   0.977  0.0349 -0.3953  0.4451
14637SOL    HW244611   0.847   3.054   0.878  0.3347 -0.3861  0.7855
14638SOL     OW44612   7.558   1.883   1.032  0.4360 -0.2072  0.1020
14638SOL    HW144613   7.499   1.945   1.074  0.6205  1.8298 -2.4471
14638SOL    HW244614   7.645   1.921   1.043  0.4065  0.9479 -2.8036
14639SOL     OW44615   1.068   4.759   0.986  0.2436  0.4662  0.5460
14639SOL    HW144616   1.071   4.669   1.018  1.9810  0.3911  0.2675
14639SOL    HW244617   0.979   4.789   1.007  0.0490 -0.8724  1.8261
14640SOL     OW44618   5.202   2.312   2.003 -0.1255  0.9716  0.0025
14640SOL    HW144619   5.208   2.246   1.933 -1.6664  1.3430 -0.5218
14640SOL    HW244620   5.290   2.316   2.039 -0.2205 -2.3571  0.9790
14641SOL     OW44621   3.135   2.535   3.306 -0.1077 -0.2057  0.3463
14641SOL    HW144622   3.106   2.568   3.390 -0.2758 -0.8853  0.5594
14641SOL    HW244623   3.058   2.494   3.267 -0.1385  0.4549 -0.3231
14642SOL     OW44624   4.781   1.044   6.224  0.4254 -0.3250  0.0363
14642SOL    HW144625   4.761   0.983   6.152  0.2992  0.7819 -0.8833
14642SOL    HW244626   4.697   1.086   6.243  0.4617 -0.5981  0.8357
14643SOL     OW44627   3.837   4.710   2.363  0.3769 -0.1746 -0.4772
14643SOL    HW144628   3.863   4.784   2.418  0.1281  0.2842 -0.9619
14643SOL    HW244629   3.900   4.710   2.291  0.7316 -0.8022 -0.1763
14644SOL     OW44630   3.655   1.628   4.633  0.3136 -0.5750 -0.1399
14644SOL    HW144631   3.564   1.647   4.656 -0.3313 -2.6181 -0.7481
14644SOL    HW244632   3.656   1.628   4.537  1.0752 -0.1429 -0.1452
14645SOL     OW44633   1.506   1.543   6.193  0.2063 -0.1038  0.5854
14645SOL    HW144634   1.468   1.462   6.228 -0.6240  0.5244  1.1999
14645SOL    HW244635   1.504   1.603   6.267  0.2818  0.6509 -0.0212
14646SOL     OW44636   4.016   0.007   0.945 -0.2583 -0.3602  0.1090
14646SOL    HW144637   4.017  -0.087   0.965 -2.2419 -0.8393 -1.7601
14646SOL    HW244638   3.934   0.038   0.982  0.5960  0.7759  1.1078
14647SOL     OW44639   5.477   6.130   4.026 -0.6477 -0.0054  0.1019
14647SOL    HW144640   5.458   6.037   4.039 -0.7961  0.1147  0.8407
14647SOL    HW244641   5.417   6.175   4.086 -0.0311  0.5246  0.3314
14648SOL     OW44642   1.244   1.541   7.408  0.8655 -0.0558 -0.0333
14648SOL    HW144643   1.333   1.506   7.417  0.8629 -0.5350 -1.5049
14648SOL    HW244644   1.212   1.502   7.327 -0.7292  0.0561  0.5201
14649SOL     OW44645   4.409   1.172   6.951 -0.4880 -0.1847  0.2413
14649SOL    HW144646   4.375   1.093   6.993  0.9802 -0.0531  1.8286
14649SOL    HW244647   4.491   1.190   6.999  2.6493 -1.2819 -4.0965
14650SOL     OW44648   1.462   5.367   7.191 -0.3121  0.1084 -0.0575
14650SOL    HW144649   1.417   5.290   7.223  0.9651 -0.8375 -0.4404
14650SOL    HW244650   1.409   5.397   7.117  0.2946 -1.7489 -1.3384
14651SOL     OW44651   1.252   2.514   2.181 -0.1775  0.2947  0.5311
14651SOL    HW144652   1.165   2.541   2.211 -0.2149  0.8629 -0.0624
14651SOL    HW244653   1.235   2.440   2.122 -0.1696 -0.2704  1.2274
14652SOL     OW44654   4.079   0.929   0.592  0.7927  0.0360  0.4800
14652SOL    HW144655   4.057   1.015   0.628  0.6776  0.5846 -0.8429
14652SOL    HW244656   4.032   0.867   0.647 -0.6978  0.9450  0.2691
14653SOL     OW44657   3.191   7.137   1.748 -0.3447  0.0386  0.1129
14653SOL    HW144658   3.202   7.049   1.784 -0.1469 -0.5963 -1.4123
14653SOL    HW244659   3.108   7.168   1.784  0.9387  0.4438  3.0019
14654SOL     OW44660   4.213   0.780   2.701 -0.2597 -0.0879 -0.3146
14654SOL    HW144661   4.272   0.705   2.715  0.3397  0.5487  0.7075
14654SOL    HW244662   4.266   0.844   2.654 -0.2305  0.3427  0.2857
14655SOL     OW44663   3.657   0.107   7.781  0.0805 -0.2253 -0.7543
14655SOL    HW144664   3.574   0.089   7.825 -0.7804  2.8916 -0.8362
14655SOL    HW244665   3.719   0.123   7.852 -0.0001 -0.2566 -0.6761
14656SOL     OW44666   4.303   4.000   1.783 -0.0647  0.7930  0.3817
14656SOL    HW144667   4.313   4.043   1.868 -0.4552  0.9292  0.3590
14656SOL    HW244668   4.318   3.907   1.801 -0.4517  0.7815  0.6565
14657SOL     OW44669   6.976   7.776   0.390 -0.3514 -0.0444  0.7332
14657SOL    HW144670   6.900   7.780   0.449 -0.6969  2.3324  0.2032
14657SOL    HW244671   7.050   7.763   0.449 -0.8222  1.0779  1.6212
14658SOL     OW44672   1.884   0.723   3.003  0.0398  0.3224  0.1800
14658SOL    HW144673   1.961   0.775   3.026  0.3707 -0.0602 -0.0494
14658SOL    HW244674   1.820   0.787   2.971  0.4284  0.5870 -0.0673
14659SOL     OW44675   3.197   2.139   6.220  0.5640  0.2326 -0.0983
14659SOL    HW144676   3.109   2.165   6.192  0.2486 -0.4519  0.2259
14659SOL    HW244677   3.241   2.113   6.139  0.2141 -0.1365 -0.1746
14660SOL     OW44678   7.247   3.330   1.105  0.8483 -0.3017 -0.1239
14660SOL    HW144679   7.206   3.399   1.052  1.1464  0.9561  1.1960
14660SOL    HW244680   7.186   3.256   1.099 -1.0481  1.0790  0.7585
14661SOL     OW44681   7.008   7.089   7.653  0.2864  0.2657 -0.0550
14661SOL    HW144682   6.917   7.114   7.671  0.3280  0.0273  0.4895
14661SOL    HW244683   7.006   7.057   7.562  0.0157  1.1342 -0.3685
14662SOL     OW44684   5.116   5.957   7.297 -0.2429 -0.3813 -0.7668
14662SOL    HW144685   5.198   6.006   7.289 -1.0059  1.2934  0.9170
14662SOL    HW244686   5.129   5.903   7.376 -1.4326  1.4244  0.7387
14663SOL     OW44687   5.547   5.622   3.661  0.3904 -0.0281  0.2497
14663SOL    HW144688   5.513   5.642   3.748 -1.5314  0.0245 -0.4550
14663SOL    HW244689   5.631   5.667   3.656  0.6253 -0.2004  2.1263
14664SOL     OW44690   3.106   0.816   3.448 -0.2146 -0.3231 -0.4521
14664SOL    HW144691   3.113   0.868   3.367 -0.0635 -0.3283 -0.4430
14664SOL    HW244692   3.079   0.729   3.419  0.6105 -0.5496 -0.5790
14665SOL     OW44693   3.166   7.073   5.299 -0.1804 -0.0003 -0.0963
14665SOL    HW144694   3.188   7.131   5.227 -0.9640 -0.0539 -0.3881
14665SOL    HW244695   3.215   7.107   5.374 -0.1657  0.6785 -0.4099
14666SOL     OW44696   7.066   4.833   1.895 -0.5511 -0.5351 -0.1058
14666SOL    HW144697   7.072   4.738   1.902 -2.1678 -0.6920 -0.4036
14666SOL    HW244698   7.104   4.853   1.810  1.8141 -0.6444  0.8672
14667SOL     OW44699   2.831   4.158   5.081 -0.3956 -0.2385 -1.0097
14667SOL    HW144700   2.805   4.162   5.173  1.2042 -1.0303 -0.4789
14667SOL    HW244701   2.795   4.075   5.050 -1.0256  0.0782 -1.1324
14668SOL     OW44702   7.695   2.209   4.938 -0.1922  0.0572 -0.1488
14668SOL    HW144703   7.763   2.274   4.952  0.8517 -0.8543 -0.8328
14668SOL    HW244704   7.694   2.156   5.018  1.2932 -1.1325 -0.8595
14669SOL     OW44705   6.695   4.700   2.438  0.8468  0.0379 -0.2190
14669SOL    HW144706   6.782   4.695   2.479 -0.2308  0.6213  2.3600
14669SOL    HW244707   6.635   4.668   2.505 -1.2355  2.5259 -0.7378
14670SOL     OW44708   3.782   0.246   0.554 -0.6013  0.2055  0.1169
14670SOL    HW144709   3.830   0.274   0.632  0.4361  2.3618 -1.2156
14670SOL    HW244710   3.718   0.183   0.588  2.1191 -1.6890  2.1847
14671SOL     OW44711   7.695   2.699   5.346 -0.4220 -0.3811 -0.7979
14671SOL    HW144712   7.684   2.610   5.313  1.4560 -0.6413 -0.8654
14671SOL    HW244713   7.790   2.711   5.349 -0.5610  0.7028  1.6483
14672SOL     OW44714   6.635   0.832   0.202  0.8425 -0.5080  0.3811
14672SOL    HW144715   6.637   0.888   0.125  2.3678 -0.6060  0.3133
14672SOL    HW244716   6.593   0.751   0.172 -0.7108  0.2884  0.2951
14673SOL     OW44717   0.748   3.341   7.901 -0.3808  0.8650  0.1760
14673SOL    HW144718   0.690   3.267   7.922  1.2742  0.2514  3.1091
14673SOL    HW244719   0.788   3.364   7.984  2.7357  2.0304 -1.5012
14674SOL     OW44720   7.106   3.857   3.583  0.0610  0.3027 -0.2387
14674SOL    HW144721   7.111   3.952   3.576 -0.1945  0.4540  1.2565
14674SOL    HW244722   7.075   3.841   3.673 -0.5933 -1.1714 -0.6917
14675SOL     OW44723   7.763   7.243   5.240  1.1384 -0.1437 -0.3314
14675SOL    HW144724   7.773   7.177   5.310  1.4466  1.3536  1.0920
14675SOL    HW244725   7.704   7.202   5.177  0.7116 -1.4998  0.8838
14676SOL     OW44726   4.536   6.584   0.871 -0.0764 -0.1035  0.7863
14676SOL    HW144727   4.548   6.517   0.939 -0.1252 -1.4843 -0.5026
14676SOL    HW244728   4.617   6.580   0.819 -1.2787 -1.4463 -1.1652
14677SOL     OW44729   3.100   3.667   0.373  0.1899  0.5031 -0.1271
14677SOL    HW144730   3.101   3.580   0.332 -0.0143  0.5241 -0.1747
14677SOL    HW244731   3.036   3.717   0.323 -0.8131  0.2247  0.8212
14678SOL     OW44732   6.607   1.376   4.919 -0.6179  0.2000 -0.3132
14678SOL    HW144733   6.638   1.296   4.877  1.7724  0.1232  1.3788
14678SOL    HW244734   6.580   1.348   5.007 -0.8156  1.0765 -0.0824
14679SOL     OW44735   2.831   2.893   5.398  0.4027 -0.4643 -0.3209
14679SOL    HW144736   2.867   2.805   5.390  0.4929 -0.6113  1.3650
14679SOL    HW244737   2.882   2.934   5.468 -1.0611  0.1530  0.4399
14680SOL     OW44738   5.079   6.364   5.377  0.2732 -0.2081 -0.1786
14680SOL    HW144739   5.050   6.411   5.456 -0.7752 -0.4981 -0.3674
14680SOL    HW244740   5.013   6.295   5.365  1.4025 -1.3057 -0.2973
14681SOL     OW44741   2.922   0.110   5.975  0.2887  0.2594 -0.5528
14681SOL    HW144742   2.941   0.083   5.886 -0.6696  1.4498 -1.1586
14681SOL    HW244743   2.997   0.164   6.000  1.4153 -1.4986  0.0610
14682SOL     OW44744   3.314   6.659   7.888  0.3523 -0.1068  0.5935
14682SOL    HW144745   3.339   6.749   7.869 -0.9297  0.1105 -0.2080
14682SOL    HW244746   3.237   6.666   7.945  0.5338 -0.6981  0.9228
14683SOL     OW44747   1.560   4.436   2.095  0.9203 -0.1812  0.4730
14683SOL    HW144748   1.576   4.437   2.001  0.4941 -1.9053  0.3518
14683SOL    HW244749   1.647   4.424   2.134  0.8014 -2.8359  0.1063
14684SOL     OW44750   2.754   6.408   4.384 -0.1015  0.1303 -0.0116
14684SOL    HW144751   2.716   6.468   4.449  1.1759  1.0205 -0.0298
14684SOL    HW244752   2.687   6.400   4.316 -0.1834  1.8319 -0.1729
14685SOL     OW44753   7.432   2.188   4.855 -0.8197  0.4616  0.3346
14685SOL    HW144754   7.522   2.183   4.888 -1.6657 -2.8213  2.6848
14685SOL    HW244755   7.396   2.267   4.896  1.3190  2.8145 -1.9896
14686SOL     OW44756   4.339   2.414   3.026 -0.2270 -0.1841 -0.1759
14686SOL    HW144757   4.293   2.486   3.068 -1.6061 -1.4956  0.6545
14686SOL    HW244758   4.325   2.339   3.084  2.3566 -0.8542 -0.2551
14687SOL     OW44759   2.784   7.121   1.506  0.2033 -0.4146  0.4544
14687SOL    HW144760   2.836   7.048   1.541 -1.3741 -1.9566 -0.2410
14687SOL    HW244761   2.699   7.082   1.486 -0.5203  1.5182 -0.5046
14688SOL     OW44762   7.465   0.495   6.168 -0.4239 -0.0775  0.2651
14688SOL    HW144763   7.486   0.581   6.133 -2.2267  0.7100  0.9454
14688SOL    HW244764   7.518   0.434   6.117  1.5622  1.4769  0.3471
14689SOL     OW44765   3.960   1.622   0.132 -0.5822 -0.8535  0.1722
14689SOL    HW144766   3.983   1.671   0.053  0.7474 -1.0928  0.3799
14689SOL    HW244767   4.020   1.656   0.199 -1.5577 -0.7888  1.0363
14690SOL     OW44768   4.868   5.761   1.645  0.0521 -0.2669  0.2908
14690SOL    HW144769   4.797   5.824   1.630 -0.0434 -0.6522 -1.0096
14690SOL    HW244770   4.885   5.724   1.558 -0.4683 -2.6674  1.1401
14691SOL     OW44771   6.676   3.605   0.909 -0.1098  0.4207  0.5518
14691SOL    HW144772   6.710   3.534   0.855  2.0418  0.4547  1.7298
14691SOL    HW244773   6.608   3.645   0.856  0.5211 -0.7887 -1.2826
14692SOL     OW44774   7.515   4.807   6.764  0.8008 -0.4009  0.2594
14692SOL    HW144775   7.515   4.727   6.815 -1.4519 -0.5619  0.1322
14692SOL    HW244776   7.507   4.778   6.673  1.4841 -0.0590  0.0848
14693SOL     OW44777   4.477   5.641   3.200 -0.4343  0.0118  0.3607
14693SOL    HW144778   4.527   5.598   3.130 -0.8182  1.1445 -0.6458
14693SOL    HW244779   4.543   5.692   3.248 -0.0414 -1.3509  1.3292
14694SOL     OW44780   5.173   7.347   4.420 -0.2667  0.3760  0.0014
14694SOL    HW144781   5.121   7.418   4.460  1.2628  0.9310  1.1053
14694SOL    HW244782   5.233   7.320   4.489  1.1114 -0.0410 -1.3130
14695SOL     OW44783   5.593   5.645   5.060  0.2606  0.1164 -0.5690
14695SOL    HW144784   5.500   5.659   5.078  0.2105  1.0272 -1.4370
14695SOL    HW244785   5.623   5.727   5.021  1.0614 -0.6631 -1.6807
14696SOL     OW44786   5.432   7.625   1.223  0.8072 -0.2216  0.4658
14696SOL    HW144787   5.443   7.535   1.253 -1.7004 -0.2099  1.6668
14696SOL    HW244788   5.403   7.617   1.132 -0.5646 -0.7096  0.9303
14697SOL     OW44789   4.405   5.991   7.063 -0.3249 -0.2202 -0.0330
14697SOL    HW144790   4.463   6.026   6.996 -0.1780  0.1133  0.2670
14697SOL    HW244791   4.378   6.067   7.114 -0.0341 -0.5353  0.6002
14698SOL     OW44792   1.431   5.758   5.175 -0.1692 -0.3554 -0.5909
14698SOL    HW144793   1.352   5.710   5.151 -0.1597 -0.4794 -0.3766
14698SOL    HW244794   1.454   5.725   5.261 -0.2272  0.1228 -0.3908
14699SOL     OW44795   5.132   7.908   1.892  0.6661  0.4204  0.0164
14699SOL    HW144796   5.165   7.873   1.976 -1.9646 -0.9332  0.5825
14699SOL    HW244797   5.070   7.976   1.917 -1.0084 -0.7687 -0.7243
14700SOL     OW44798   4.274   3.920   7.304  0.1156 -0.4850 -0.3404
14700SOL    HW144799   4.307   3.985   7.366 -1.0042 -1.3085  1.1849
14700SOL    HW244800   4.349   3.899   7.249  1.3528 -0.2220  1.1849
14701SOL     OW44801   0.271   5.825   7.881  0.5928  0.2098 -0.2369
14701SOL    HW144802   0.326   5.846   7.806  0.3662  0.9353 -0.2103
14701SOL    HW244803   0.300   5.884   7.950  0.9694 -0.6291  0.3314
14702SOL     OW44804   2.453   4.589   0.843  0.2836  0.8528 -0.4788
14702SOL    HW144805   2.386   4.655   0.830 -0.3327  0.1170 -1.1929
14702SOL    HW244806   2.525   4.615   0.786 -0.4234  0.3065 -1.6528
14703SOL     OW44807   0.721   5.015   1.528  0.4095 -0.7573  0.4273
14703SOL    HW144808   0.656   5.011   1.598  0.6758 -0.2398  0.7144
14703SOL    HW244809   0.722   4.927   1.490 -2.5585 -0.1076 -1.5071
14704SOL     OW44810   3.809   2.609   0.867 -0.1366  0.6328 -0.1673
14704SOL    HW144811   3.755   2.634   0.791 -2.5255  0.8268  1.4825
14704SOL    HW244812   3.829   2.516   0.852  0.0752  0.8493 -1.3703
14705SOL     OW44813   5.807   2.300   1.586 -0.1583 -0.6282  0.3108
14705SOL    HW144814   5.719   2.279   1.617  0.0788 -1.7466  0.2783
14705SOL    HW244815   5.858   2.221   1.604  0.9144  0.1084  0.5946
14706SOL     OW44816   0.209   0.264   1.692  0.0093  0.0841  0.2619
14706SOL    HW144817   0.212   0.176   1.653  1.0373 -0.0869  0.6858
14706SOL    HW244818   0.167   0.250   1.777 -0.8769  0.2066 -0.1471
14707SOL     OW44819   1.012   3.517   1.821 -0.1942  0.1751  0.4380
14707SOL    HW144820   1.058   3.575   1.882 -1.1794  1.2278  0.2114
14707SOL    HW244821   0.994   3.573   1.745 -0.6179 -0.6112 -0.0456
14708SOL     OW44822   6.032   2.174   6.319 -0.3609  0.2532  0.6402
14708SOL    HW144823   5.997   2.210   6.401  2.4767  0.8139  1.7114
14708SOL    HW244824   6.042   2.250   6.262  0.5662  0.3502  0.9244
14709SOL     OW44825   1.711   0.187   0.325 -0.0005  0.0617 -0.3295
14709SOL    HW144826   1.763   0.107   0.338  0.9012  0.7588  0.5409
14709SOL    HW244827   1.742   0.223   0.242 -1.9175 -1.5591 -1.8548
14710SOL     OW44828   6.748   7.128   7.678  0.4451  0.5969  0.3794
14710SOL    HW144829   6.672   7.080   7.646 -0.9447  2.5028  0.6258
14710SOL    HW244830   6.770   7.088   7.762 -0.3897  0.1119  0.3688
14711SOL     OW44831   1.517   3.951   5.176 -0.2174 -0.0831  0.0155
14711SOL    HW144832   1.429   3.921   5.200  0.3512 -1.1930  0.8551
14711SOL    HW244833   1.567   3.870   5.165  1.2623  0.4949  1.8343
14712SOL     OW44834   7.111   4.310   2.701 -0.1613 -0.5441 -0.2794
14712SOL    HW144835   7.124   4.228   2.750  0.9248  0.0037  0.3707
14712SOL    HW244836   7.192   4.321   2.651  0.1735  0.7075  0.5075
14713SOL     OW44837   1.745   3.046   3.895  0.3790 -0.0319 -0.0355
14713SOL    HW144838   1.663   3.040   3.943  1.6194  1.4766  2.4623
14713SOL    HW244839   1.771   2.956   3.878 -1.1503 -0.5443  0.2141
14714SOL     OW44840   5.380   2.074   6.535 -0.1042 -0.2909  0.3429
14714SOL    HW144841   5.382   2.149   6.595 -0.5760 -0.8487  1.0789
14714SOL    HW244842   5.313   2.016   6.572  0.0186 -0.9188 -0.4022
14715SOL     OW44843   7.946   4.491   0.123  0.2864  0.8104  0.0928
14715SOL    HW144844   7.900   4.412   0.148  1.3368  0.3722  0.7106
14715SOL    HW244845   7.964   4.480   0.029 -2.2579  1.7374 -0.5653
14716SOL     OW44846   2.210   3.905   4.034 -0.2241 -0.9909  0.0403
14716SOL    HW144847   2.249   3.838   4.090 -2.7522 -0.8761  2.1331
14716SOL    HW244848   2.221   3.987   4.083 -0.5923 -0.5099 -0.6644
14717SOL     OW44849   6.535   0.876   2.979  0.4883 -0.5911 -0.3464
14717SOL    HW144850   6.583   0.849   3.057 -0.5791  0.4846  0.7333
14717SOL    HW244851   6.454   0.826   2.983  0.0938  0.0350 -0.3230
14718SOL     OW44852   0.402   6.469   3.733 -0.2801  0.2690 -0.4743
14718SOL    HW144853   0.475   6.480   3.794 -1.1861 -0.9692  0.8899
14718SOL    HW244854   0.434   6.406   3.668  0.2598  0.6279 -0.5583
14719SOL     OW44855   5.662   3.349   2.270  0.1481 -0.2336 -0.0127
14719SOL    HW144856   5.745   3.317   2.304  0.4480  0.4160 -0.1108
14719SOL    HW244857   5.661   3.321   2.178  0.0119 -0.7000  0.1279
14720SOL     OW44858   3.555   5.006   1.638 -0.1368 -0.3354 -0.1107
14720SOL    HW144859   3.561   5.012   1.734  0.3842 -1.1192 -0.0814
14720SOL    HW244860   3.462   4.996   1.620 -0.3732  1.0496  0.2200
14721SOL     OW44861   6.130   2.400   6.762 -0.3186  0.2383  0.1141
14721SOL    HW144862   6.115   2.491   6.787  1.6988  0.2355  1.6470
14721SOL    HW244863   6.044   2.367   6.736 -1.5479  1.9146  1.7874
14722SOL     OW44864   6.747   2.352   1.190 -0.2655 -0.0836 -0.2449
14722SOL    HW144865   6.837   2.363   1.222 -0.2041  1.1495 -0.7817
14722SOL    HW244866   6.699   2.427   1.227 -1.1455 -0.8646  0.2422
14723SOL     OW44867   6.721   3.981   1.389 -0.3914 -0.1859  0.1507
14723SOL    HW144868   6.628   3.959   1.378  0.0526 -0.9902 -2.9057
14723SOL    HW244869   6.767   3.897   1.381  0.8074  0.6306 -3.3364
14724SOL     OW44870   5.229   6.585   5.437 -0.6785 -0.2258 -0.2313
14724SOL    HW144871   5.313   6.571   5.394 -1.0737  0.0401 -1.1064
14724SOL    HW244872   5.173   6.514   5.406 -0.5086 -1.0102  1.1387
14725SOL     OW44873   2.757   5.487   6.754 -0.0996  0.0649 -0.0949
14725SOL    HW144874   2.763   5.581   6.769  0.6008 -0.1851  1.3216
14725SOL    HW244875   2.689   5.457   6.814 -0.0240 -0.3995 -0.2370
14726SOL     OW44876   3.304   4.312   1.965  0.0320  0.1569 -0.1892
14726SOL    HW144877   3.242   4.294   1.895 -0.5653 -2.0060  0.8268
14726SOL    HW244878   3.390   4.290   1.929 -0.0833  0.5856 -0.7322
14727SOL     OW44879   7.392   6.163   3.343 -0.1170  0.1063  0.3087
14727SOL    HW144880   7.475   6.173   3.296 -0.2655  0.4239  0.1173
14727SOL    HW244881   7.376   6.069   3.342 -0.9082  0.2170 -1.6317
14728SOL     OW44882   4.936   5.425   3.892 -0.2652 -0.4916  0.2135
14728SOL    HW144883   4.934   5.395   3.983  0.1862  0.6115  0.5933
14728SOL    HW244884   5.023   5.400   3.861 -0.2337 -0.4159  0.2412
14729SOL     OW44885   5.409   2.919   2.130 -0.3402  0.1916 -0.1641
14729SOL    HW144886   5.328   2.892   2.086 -1.5301  0.8256  1.5124
14729SOL    HW244887   5.403   3.015   2.134  0.5864  0.2558 -0.1695
14730SOL     OW44888   5.221   0.334   5.655 -0.2755 -0.0719  0.2310
14730SOL    HW144889   5.233   0.284   5.574 -1.4192  0.9834 -0.6265
14730SOL    HW244890   5.247   0.273   5.725 -0.7888 -1.5492 -0.8229
14731SOL     OW44891   0.519   4.896   7.185  0.2894  0.9727 -0.3043
14731SOL    HW144892   0.568   4.946   7.120 -2.0192  1.9194 -1.3947
14731SOL    HW244893   0.473   4.961   7.236 -0.1264  0.0894  0.4758
14732SOL     OW44894   0.485   5.570   3.446 -0.2353 -0.1658 -0.3953
14732SOL    HW144895   0.431   5.491   3.441  0.7729 -1.2482  2.9639
14732SOL    HW244896   0.554   5.556   3.383 -2.4411  0.1791 -3.0747
14733SOL     OW44897   7.455   0.147   6.782 -0.2110  0.1490  0.3213
14733SOL    HW144898   7.550   0.138   6.788 -0.2169  0.0144  0.2208
14733SOL    HW244899   7.422   0.057   6.779 -0.4484  0.1598  1.9876
14734SOL     OW44900   5.912   7.037   4.728  0.2283  0.0435 -0.1649
14734SOL    HW144901   5.823   7.021   4.759 -0.6376  1.7316 -1.6301
14734SOL    HW244902   5.932   7.127   4.754  1.2744 -0.1007 -0.4001
14735SOL     OW44903   4.383   2.946   2.569 -0.3186  0.1961  0.2065
14735SOL    HW144904   4.378   2.875   2.634  2.4023  0.8596  1.2636
14735SOL    HW244905   4.294   2.951   2.533 -1.2021 -2.1377  1.7914
14736SOL     OW44906   6.644   7.653   2.353  0.0107 -0.2021  0.6288
14736SOL    HW144907   6.704   7.586   2.385  0.1536  0.4449  1.7675
14736SOL    HW244908   6.692   7.697   2.282 -0.5496 -2.0561 -0.9928
14737SOL     OW44909   4.880   3.593   1.544 -0.3289 -0.4856  0.5234
14737SOL    HW144910   4.806   3.547   1.505 -0.1148 -0.0042 -0.4789
14737SOL    HW244911   4.853   3.610   1.634 -1.1846 -0.8601  0.3459
14738SOL     OW44912   0.233   3.067   6.705 -0.1554  0.3489 -0.1646
14738SOL    HW144913   0.152   3.073   6.655 -0.8125 -1.3656  0.6121
14738SOL    HW244914   0.206   3.069   6.797  0.6788 -0.0946  0.1119
14739SOL     OW44915   1.807   2.341   6.170  0.2932  0.1508 -0.2825
14739SOL    HW144916   1.890   2.318   6.128  0.6465 -1.2154  1.0388
14739SOL    HW244917   1.830   2.354   6.262 -1.0539 -1.0470  0.2653
14740SOL     OW44918   0.454   5.420   6.858 -0.3494  0.1740  0.5412
14740SOL    HW144919   0.511   5.493   6.882  0.8987 -0.9236  1.0348
14740SOL    HW244920   0.463   5.413   6.763  1.4690 -0.8600  0.7579
14741SOL     OW44921   4.286   5.035   7.921  0.1974 -0.1736 -0.2202
14741SOL    HW144922   4.335   4.962   7.959  1.5791  0.5329 -0.5911
14741SOL    HW244923   4.206   4.994   7.886  0.8140 -1.4609 -0.1910
14742SOL     OW44924   6.436   6.556   5.344  0.5585 -0.7808  0.5961
14742SOL    HW144925   6.523   6.517   5.349 -0.0586 -2.6182 -1.2798
14742SOL    HW244926   6.380   6.484   5.313 -0.6889  1.5544 -3.1768
14743SOL     OW44927   2.219   5.774   1.022 -0.3238 -0.5902  0.1198
14743SOL    HW144928   2.179   5.861   1.025  1.6985  0.3754  0.5806
14743SOL    HW244929   2.313   5.791   1.015  0.0839 -2.7554 -0.3917
14744SOL     OW44930   1.880   3.135   6.248 -0.2843 -0.2962 -0.3629
14744SOL    HW144931   1.843   3.105   6.165  1.2087  0.7112 -1.4280
14744SOL    HW244932   1.828   3.213   6.270  1.5623  1.6236 -2.2884
14745SOL     OW44933   5.890   5.217   4.814 -0.5588  0.1647  0.0730
14745SOL    HW144934   5.865   5.130   4.784 -0.9879  0.5003 -0.5547
14745SOL    HW244935   5.986   5.214   4.819 -0.5136 -0.0931 -0.7520
14746SOL     OW44936   7.920   6.136   1.868  0.0589 -0.4407 -0.1776
14746SOL    HW144937   7.924   6.207   1.932 -1.1931  0.8950 -1.5002
14746SOL    HW244938   8.000   6.085   1.883  1.5698  1.8789  0.1219
14747SOL     OW44939   4.391   3.256   6.934 -0.0561 -0.1411  0.3200
14747SOL    HW144940   4.483   3.285   6.931 -0.4898  1.2059 -0.9060
14747SOL    HW244941   4.342   3.326   6.890 -1.6835 -0.8434  0.9427
14748SOL     OW44942   2.642   3.427   4.126 -0.3463  0.2192  0.3820
14748SOL    HW144943   2.706   3.470   4.069 -0.7443  1.0548  0.5547
14748SOL    HW244944   2.671   3.446   4.215 -1.4057  1.5259  0.4780
14749SOL     OW44945   5.501   5.544   6.086  0.0581  0.1743 -0.1588
14749SOL    HW144946   5.461   5.617   6.039 -0.5348  1.5906  2.3216
14749SOL    HW244947   5.433   5.516   6.148  0.4601 -2.1980 -0.7092
14750SOL     OW44948   5.914   2.264   0.541  0.6681 -0.4608 -0.2237
14750SOL    HW144949   6.005   2.293   0.549  1.1759 -1.8389 -0.6220
14750SOL    HW244950   5.886   2.246   0.630  1.4304 -1.8345 -0.2442
14751SOL     OW44951   2.448   4.284   3.910  0.4944 -0.5416 -0.4050
14751SOL    HW144952   2.516   4.216   3.901 -0.0113 -0.8881 -1.8982
14751SOL    HW244953   2.386   4.265   3.839  0.1906  1.3200 -0.6762
14752SOL     OW44954   2.210   1.883   6.395 -0.2026 -0.4318  0.3527
14752SOL    HW144955   2.297   1.859   6.426 -0.4421 -2.0955 -0.1935
14752SOL    HW244956   2.159   1.895   6.475  0.0094 -1.5131  0.6694
14753SOL     OW44957   7.458   2.703   1.215 -0.0128 -0.0633  0.3162
14753SOL    HW144958   7.504   2.665   1.290 -2.8003 -1.3359  1.5516
14753SOL    HW244959   7.491   2.655   1.139  0.8094 -0.7743  1.1046
14754SOL     OW44960   6.522   5.841   4.688 -0.0660  0.3515  0.1571
14754SOL    HW144961   6.480   5.926   4.702  0.7049  0.9996 -1.1834
14754SOL    HW244962   6.544   5.810   4.775  0.7161  2.1027  0.6251
14755SOL     OW44963   2.652   6.545   2.928 -0.2642  0.0374 -0.3325
14755SOL    HW144964   2.738   6.584   2.909  1.0406 -2.6313 -0.3978
14755SOL    HW244965   2.623   6.509   2.844 -0.0120 -1.6207  0.2515
14756SOL     OW44966   1.361   6.945   3.540  0.1473  0.4362  0.1365
14756SOL    HW144967   1.283   6.912   3.584 -0.4408 -0.0442 -1.2248
14756SOL    HW244968   1.367   6.894   3.460  1.0790  1.4257 -0.4512
14757SOL     OW44969   1.094   6.053   5.801 -0.1935 -0.1889 -0.1561
14757SOL    HW144970   1.038   5.993   5.751 -0.7807 -0.4970  0.8412
14757SOL    HW244971   1.135   5.998   5.868  0.8165  0.1593 -0.4716
14758SOL     OW44972   7.636   7.433   4.742 -0.0530 -0.1651  0.4789
14758SOL    HW144973   7.707   7.370   4.726  0.3474  0.6236 -0.9600
14758SOL    HW244974   7.626   7.433   4.837  1.4408 -0.7822  0.6698
14759SOL     OW44975   5.157   2.169   7.489 -0.1110  0.2097  0.0381
14759SOL    HW144976   5.104   2.213   7.422 -0.6447 -0.3738  0.0682
14759SOL    HW244977   5.097   2.159   7.563 -0.5067 -1.9608 -0.5106
14760SOL     OW44978   3.259   7.562   5.232 -0.8766  0.5868  0.0862
14760SOL    HW144979   3.344   7.559   5.277 -0.1222  1.1958 -1.2569
14760SOL    HW244980   3.213   7.635   5.272  0.2123  1.8044 -0.8094
14761SOL     OW44981   3.433   7.939   2.264  0.3083 -0.2211  0.0101
14761SOL    HW144982   3.364   7.877   2.288  0.4291  0.2793  1.7899
14761SOL    HW244983   3.514   7.899   2.293  0.8635 -0.8627 -2.1947
14762SOL     OW44984   1.269   4.046   3.876  0.1920 -0.7927 -0.9041
14762SOL    HW144985   1.224   3.981   3.930 -0.2236  0.8792  0.8840
14762SOL    HW244986   1.322   3.995   3.815 -0.8232 -2.7897 -0.1949
14763SOL     OW44987   0.400   4.377   2.176 -0.1323  0.2167 -0.0214
14763SOL    HW144988   0.384   4.317   2.248  0.2789 -0.3909 -0.4278
14763SOL    HW244989   0.475   4.340   2.130  0.5183  1.3708  0.0726
14764SOL     OW44990   2.512   2.826   4.510  0.0165 -0.3717 -0.0110
14764SOL    HW144991   2.464   2.810   4.428 -0.5136  0.8384  0.0313
14764SOL    HW244992   2.564   2.747   4.523 -1.0116 -1.2070 -0.7387
14765SOL     OW44993   7.296   4.878   5.616 -0.3863 -0.0446  0.6111
14765SOL    HW144994   7.220   4.888   5.673 -1.5273 -1.1238 -0.6318
14765SOL    HW244995   7.303   4.783   5.602  0.5404  0.1202 -0.1425
14766SOL     OW44996   2.313   3.319   0.431  0.1594 -0.2444  0.5427
14766SOL    HW144997   2.288   3.247   0.374  0.9354 -1.3380  1.5298
14766SOL    HW244998   2.383   3.364   0.384  0.2650 -0.6628  0.2974
14767SOL     OW44999   2.483   0.146   2.687 -0.4235 -0.4042  0.0311
14767SOL    HW145000   2.413   0.201   2.653 -0.5546 -1.4942 -1.6108
14767SOL    HW245001   2.562   0.199   2.677 -0.8392  0.3414  0.6599
14768SOL     OW45002   3.389   1.687   7.754 -0.6855 -0.0870 -0.2276
14768SOL    HW145003   3.393   1.652   7.843 -0.4331 -1.2672 -0.6998
14768SOL    HW245004   3.394   1.782   7.767 -1.7302 -0.1774  1.0835
14769SOL     OW45005   6.147   4.963   5.653  0.3684 -0.2372  0.1452
14769SOL    HW145006   6.083   4.942   5.722 -2.1810  2.7217 -1.0521
14769SOL    HW245007   6.190   5.042   5.685  1.6237 -0.7422 -0.2397
14770SOL     OW45008   4.011   5.493   4.286 -0.1490 -0.5394 -0.1809
14770SOL    HW145009   4.029   5.423   4.350  0.3507 -1.0593 -0.8806
14770SOL    HW245010   4.094   5.506   4.241 -0.5124 -0.1982 -0.7587
14771SOL     OW45011   3.691   1.175   6.092  0.5969  0.2366  0.0920
14771SOL    HW145012   3.760   1.238   6.073  1.2508  0.0982  1.8424
14771SOL    HW245013   3.625   1.225   6.141 -0.0776  0.1328 -0.6928
14772SOL     OW45014   4.747   6.127   2.685  0.6799 -0.3915  0.4981
14772SOL    HW145015   4.830   6.164   2.654  0.1144  1.3057  0.9389
14772SOL    HW245016   4.768   6.090   2.771  1.4621 -2.0374 -0.3413
14773SOL     OW45017   4.443   2.761   6.120 -0.2700 -0.5886 -0.2045
14773SOL    HW145018   4.446   2.681   6.173 -0.1112 -0.8170 -0.5538
14773SOL    HW245019   4.363   2.751   6.068  0.9321 -1.6351 -1.9575
14774SOL     OW45020   2.120   1.339   0.797 -0.1845  0.4007 -0.0764
14774SOL    HW145021   2.070   1.257   0.793 -2.4007  1.5582  1.6735
14774SOL    HW245022   2.196   1.318   0.851 -0.7145 -0.5094  0.3431
14775SOL     OW45023   6.012   6.631   2.991 -0.1493 -0.3763  0.0930
14775SOL    HW145024   5.919   6.619   3.008 -0.8436  1.1611 -2.2382
14775SOL    HW245025   6.045   6.671   3.072 -1.3346 -1.4769  1.1780
14776SOL     OW45026   0.990   6.724   3.194  0.2436  0.5010 -0.2660
14776SOL    HW145027   0.932   6.743   3.267  1.4936 -2.2055  1.6062
14776SOL    HW245028   1.067   6.684   3.234  0.7154 -1.7470 -3.0440
14777SOL     OW45029   6.826   2.621   5.654 -0.6326  0.0752  0.1431
14777SOL    HW145030   6.819   2.695   5.715  0.7662  0.3518 -0.0112
14777SOL    HW245031   6.884   2.559   5.699 -1.0326 -0.5146 -0.1428
14778SOL     OW45032   0.661   1.509   3.442  0.2859  0.1265  0.0314
14778SOL    HW145033   0.699   1.518   3.529 -1.3973  1.1183  0.7117
14778SOL    HW245034   0.685   1.591   3.397 -1.2583  0.9071  0.5791
14779SOL     OW45035   7.402   2.075   1.150  0.2385 -0.0298 -0.0260
14779SOL    HW145036   7.403   2.139   1.222  1.3342  0.3920 -0.3955
14779SOL    HW245037   7.328   2.101   1.096  0.0617  0.3090  0.3674
14780SOL     OW45038   7.310   6.113   7.034  0.1150 -0.1925  0.2657
14780SOL    HW145039   7.239   6.110   6.970  1.3589  0.5890 -1.2074
14780SOL    HW245040   7.336   6.206   7.037  1.4124 -0.5384  0.3760
14781SOL     OW45041   2.433   1.874   7.422  0.2940 -0.1764 -0.1090
14781SOL    HW145042   2.346   1.900   7.392  0.4642 -0.3457 -0.7528
14781SOL    HW245043   2.468   1.820   7.352  0.0328 -2.0057  1.0855
14782SOL     OW45044   7.437   3.132   0.331  0.0382 -0.5950  0.2339
14782SOL    HW145045   7.509   3.084   0.291 -0.1389 -1.1899  0.6302
14782SOL    HW245046   7.440   3.218   0.289  1.9546 -0.0541  1.3819
14783SOL     OW45047   6.704   0.898   4.086  0.0690 -0.2532 -0.7042
14783SOL    HW145048   6.796   0.894   4.114 -0.0923 -0.4600 -0.2051
14783SOL    HW245049   6.676   0.807   4.082 -0.8284 -0.1306  1.5209
14784SOL     OW45050   4.419   0.914   1.755  0.4326  0.3622  0.2481
14784SOL    HW145051   4.411   0.856   1.831  0.9868  1.9950  1.6051
14784SOL    HW245052   4.393   0.859   1.680 -0.8475 -1.0870  1.6766
14785SOL     OW45053   0.712   0.007   6.849  0.2752 -0.2745 -0.4562
14785SOL    HW145054   0.683  -0.039   6.771  1.3579  1.1799 -1.7815
14785SOL    HW245055   0.659   0.086   6.852  0.8751  0.1268 -0.2553
14786SOL     OW45056   0.469   7.111   5.339 -0.4260  0.3174 -0.3410
14786SOL    HW145057   0.456   7.191   5.287  0.8701  0.4746 -0.4595
14786SOL    HW245058   0.488   7.044   5.274 -1.4633 -0.0931 -0.2361
14787SOL     OW45059   0.455   1.733   6.779 -0.1137  0.5954 -0.0022
14787SOL    HW145060   0.387   1.713   6.843  0.0283  2.0975  0.6708
14787SOL    HW245061   0.408   1.774   6.706 -0.0727  0.4961 -0.0843
14788SOL     OW45062   7.613   3.304   6.445  0.1329  0.4375 -0.3416
14788SOL    HW145063   7.640   3.212   6.438 -2.8535 -0.4576 -1.7583
14788SOL    HW245064   7.681   3.352   6.397  0.9646 -1.2376 -0.9199
14789SOL     OW45065   5.612   1.901   6.086 -0.0561  0.2050  0.2305
14789SOL    HW145066   5.529   1.942   6.107  0.3870  1.4210 -0.2782
14789SOL    HW245067   5.623   1.914   5.992 -0.7064 -2.6728 -0.3482
14790SOL     OW45068   2.025   2.758   1.268  0.3764  0.3585 -0.0376
14790SOL    HW145069   1.996   2.726   1.354 -0.2370  0.2253 -0.2865
14790SOL    HW245070   2.084   2.831   1.288 -2.4081  2.6554  0.4907
14791SOL     OW45071   0.547   3.241   4.531 -0.4043  0.4444  0.4285
14791SOL    HW145072   0.582   3.257   4.618 -1.0518 -0.1616  0.8155
14791SOL    HW245073   0.602   3.171   4.495 -0.8578 -0.1208  0.8175
14792SOL     OW45074   2.414   7.450   3.674  0.4946  0.4372 -0.0494
14792SOL    HW145075   2.390   7.540   3.656 -1.1779  0.0362 -0.0676
14792SOL    HW245076   2.492   7.434   3.622 -0.3747  1.2649 -1.6792
14793SOL     OW45077   2.174   3.607   3.602 -0.1488 -0.3637  0.2231
14793SOL    HW145078   2.251   3.581   3.552  0.1278  1.0829 -0.1586
14793SOL    HW245079   2.198   3.692   3.641 -0.6533 -1.0494  2.1576
14794SOL     OW45080   2.601   0.929   2.202  0.2184  0.0111  0.2501
14794SOL    HW145081   2.578   0.863   2.267 -1.3369  0.2220 -0.0481
14794SOL    HW245082   2.651   0.881   2.136 -1.8183 -1.1828 -0.5327
14795SOL     OW45083   0.582   7.427   6.692 -0.6467  0.3613  0.3066
14795SOL    HW145084   0.576   7.462   6.781 -0.2504  0.7690  0.1757
14795SOL    HW245085   0.657   7.367   6.695 -1.0519 -0.1467  0.4170
14796SOL     OW45086   1.390   5.157   7.791  0.2101  0.1548  0.1478
14796SOL    HW145087   1.368   5.095   7.861 -1.3679  1.2073  0.6189
14796SOL    HW245088   1.404   5.240   7.835 -2.1559  1.1684 -0.8321
14797SOL     OW45089   7.485   0.107   4.041  0.2110  0.0963  0.2744
14797SOL    HW145090   7.459   0.065   4.123  1.4139  1.4498  1.4136
14797SOL    HW245091   7.404   0.142   4.005 -0.1543  0.7224  1.6327
14798SOL     OW45092   4.254   3.129   7.156 -0.0181 -0.2513  0.1858
14798SOL    HW145093   4.159   3.124   7.141 -0.4289  2.4486  1.3527
14798SOL    HW245094   4.287   3.178   7.081  0.4337 -0.8298 -0.0034
14799SOL     OW45095   7.704   6.401   6.415 -0.2568 -0.2174  0.4314
14799SOL    HW145096   7.701   6.313   6.377  0.1450  0.5934 -1.6237
14799SOL    HW245097   7.669   6.458   6.346 -1.0079  1.1844  1.9190
14800SOL     OW45098   7.439   6.947   0.988 -0.5798 -0.2014 -0.3245
14800SOL    HW145099   7.530   6.916   0.990 -0.3157  0.5872  1.7886
14800SOL    HW245100   7.445   7.040   1.008 -1.9203 -0.3543  0.9199
14801SOL     OW45101   7.068   6.597   5.052 -0.6345 -0.2246 -0.2030
14801SOL    HW145102   7.032   6.537   4.987 -2.4473 -2.1198  2.3626
14801SOL    HW245103   7.149   6.555   5.081 -0.0992  0.3619 -0.8000
14802SOL     OW45104   1.731   5.155   7.949  0.0498  0.2862 -0.0737
14802SOL    HW145105   1.668   5.109   7.893  0.1867 -0.7351  0.5983
14802SOL    HW245106   1.814   5.147   7.903  0.7073 -2.7839  1.3942
14803SOL     OW45107   7.826   1.104   1.283  0.6765 -0.6503  0.1507
14803SOL    HW145108   7.907   1.147   1.310 -0.0737  0.3130  0.9138
14803SOL    HW245109   7.827   1.020   1.328  2.7719 -2.1136 -2.3291
14804SOL     OW45110   3.013   5.214   2.177 -0.2514 -0.6189 -0.3456
14804SOL    HW145111   3.068   5.269   2.233 -0.7248  1.2260 -1.5676
14804SOL    HW245112   2.923   5.240   2.199 -0.4899 -0.9766 -0.8752
14805SOL     OW45113   4.235   0.917   5.820 -0.0226 -0.6883  0.1088
14805SOL    HW145114   4.256   0.912   5.913  1.7138 -4.4272 -0.2665
14805SOL    HW245115   4.152   0.870   5.811  0.5567 -1.6649 -0.3310
14806SOL     OW45116   3.817   4.350   5.992 -0.2417  0.6366  0.6381
14806SOL    HW145117   3.800   4.274   6.047  0.6129  0.5049  0.7286
14806SOL    HW245118   3.832   4.314   5.905  0.5555  0.6655  0.7611
14807SOL     OW45119   3.417   4.336   2.679  0.2385  0.3505  0.0629
14807SOL    HW145120   3.366   4.393   2.621  0.5407 -0.0109 -0.5748
14807SOL    HW245121   3.474   4.287   2.620  2.4190  1.7882  0.8495
14808SOL     OW45122   1.826   3.079   1.433  0.2958 -0.3070  0.4574
14808SOL    HW145123   1.904   3.093   1.379  0.7860 -0.1106  1.1944
14808SOL    HW245124   1.766   3.149   1.407  0.7569  0.1406  0.5669
14809SOL     OW45125   1.537   1.212   7.924 -0.2989 -0.2989 -0.4422
14809SOL    HW145126   1.492   1.212   8.008 -1.6293 -0.3848 -1.1259
14809SOL    HW245127   1.556   1.304   7.906 -0.5038 -0.2301 -0.3037
14810SOL     OW45128   4.599   4.378   3.034  0.0054  0.3473  0.0016
14810SOL    HW145129   4.660   4.332   3.091  0.2518  1.0498  0.3088
14810SOL    HW245130   4.533   4.414   3.093  0.6615  1.7071 -0.0621
14811SOL     OW45131   3.226   7.031   4.244  0.0343  0.1982 -0.1021
14811SOL    HW145132   3.189   7.114   4.216  0.4652  0.1387 -0.8985
14811SOL    HW245133   3.288   7.054   4.314 -0.0697  0.5144 -0.1136
14812SOL     OW45134   0.855   1.654   5.312 -0.6679 -0.2717 -0.7518
14812SOL    HW145135   0.917   1.581   5.317 -0.0462  0.1153 -2.2266
14812SOL    HW245136   0.791   1.635   5.380  0.0083 -1.6927 -0.4630
14813SOL     OW45137   6.216   1.718   0.782 -0.4282 -1.1565 -0.2265
14813SOL    HW145138   6.121   1.731   0.788 -0.2650  0.4233 -0.6694
14813SOL    HW245139   6.250   1.743   0.868 -0.3227 -0.7543 -0.3830
14814SOL     OW45140   3.742   0.636   0.328 -0.4700  0.8089 -0.0448
14814SOL    HW145141   3.795   0.711   0.355  0.1483  1.9444 -3.7709
14814SOL    HW245142   3.800   0.560   0.340  0.1020  1.3573  0.7334
14815SOL     OW45143   6.253   4.063   4.780  0.0385  0.1331  0.1782
14815SOL    HW145144   6.287   3.987   4.733 -1.0367 -0.6892  0.6686
14815SOL    HW245145   6.190   4.103   4.720  1.7538  1.6250 -0.7128
14816SOL     OW45146   0.152   7.374   1.360  0.4853 -0.4254  0.2776
14816SOL    HW145147   0.073   7.422   1.337  1.4651  0.5857 -1.1567
14816SOL    HW245148   0.127   7.322   1.436 -1.4033  0.2389  0.1677
14817SOL     OW45149   1.959   6.767   2.944  0.5221  0.2008  0.3529
14817SOL    HW145150   2.015   6.691   2.959 -0.8816 -0.9887 -0.0983
14817SOL    HW245151   1.929   6.792   3.031  0.0852 -0.5161  0.4193
14818SOL     OW45152   4.006   1.538   3.713  0.2986 -0.1622 -0.1251
14818SOL    HW145153   4.063   1.570   3.643 -1.1483  1.1877 -0.7188
14818SOL    HW245154   3.923   1.519   3.670 -0.4627  0.2205  1.1428
14819SOL     OW45155   2.187   7.499   7.936 -0.1570 -0.5925  0.1258
14819SOL    HW145156   2.152   7.417   7.902 -1.9824 -0.1585  0.8558
14819SOL    HW245157   2.252   7.472   8.001 -1.0432 -1.4885  0.6694
14820SOL     OW45158   6.399   4.058   4.171 -0.0856  0.2879  0.5793
14820SOL    HW145159   6.384   4.123   4.102 -2.0467  0.0962  0.7719
14820SOL    HW245160   6.447   3.988   4.127  0.1957  0.9276 -0.1576
14821SOL     OW45161   5.450   3.138   6.826 -0.7152  0.0852 -0.6078
14821SOL    HW145162   5.362   3.102   6.815 -0.6962 -1.2911  2.5809
14821SOL    HW245163   5.481   3.156   6.737 -3.8782 -0.1319 -1.8601
14822SOL     OW45164   1.032   2.723   4.413  0.2767 -0.7687 -0.3977
14822SOL    HW145165   0.951   2.675   4.394 -0.5613 -1.0685  3.2168
14822SOL    HW245166   1.102   2.661   4.391 -0.4138 -0.8016 -2.7949
14823SOL     OW45167   4.380   4.815   0.105 -0.2523  0.3195 -0.2523
14823SOL    HW145168   4.351   4.732   0.066  0.1923  0.1339 -0.1940
14823SOL    HW245169   4.359   4.806   0.198  1.2581 -0.3920  0.0443
14824SOL     OW45170   4.477   7.860   4.605  0.7551 -0.6665  0.0107
14824SOL    HW145171   4.561   7.904   4.620  0.1696  0.0098  1.5396
14824SOL    HW245172   4.487   7.818   4.519  2.5619 -0.4130  0.0486
14825SOL     OW45173   7.564   1.177   4.719  0.2180  0.3481 -0.0630
14825SOL    HW145174   7.622   1.101   4.725  1.5299  1.1748 -1.5451
14825SOL    HW245175   7.614   1.249   4.758 -1.1329  0.4421  1.6210
14826SOL     OW45176   1.410   3.066   6.855 -0.5419 -0.1192 -0.3666
14826SOL    HW145177   1.484   3.005   6.859 -0.8960 -0.5075  0.5802
14826SOL    HW245178   1.358   3.036   6.781 -0.1412 -0.2964 -0.5831
14827SOL     OW45179   5.022   4.189   2.762 -0.1962  0.2035  0.5891
14827SOL    HW145180   5.054   4.198   2.673 -1.6720  0.9118  0.0992
14827SOL    HW245181   5.037   4.275   2.802  1.0980 -0.3113  1.2753
14828SOL     OW45182   3.469   2.207   4.940 -0.4335  0.0483  0.4050
14828SOL    HW145183   3.525   2.232   4.867  0.5697 -1.0227  0.7836
14828SOL    HW245184   3.526   2.211   5.017 -1.3594  0.7459  1.0884
14829SOL     OW45185   5.547   7.961   2.687  0.5438 -0.2355 -0.2598
14829SOL    HW145186   5.582   7.936   2.772 -0.4588 -0.8244  0.0020
14829SOL    HW245187   5.585   8.047   2.669  1.4463 -0.4888  0.3739
14830SOL     OW45188   6.034   2.052   3.257 -0.4807  0.1260  0.0625
14830SOL    HW145189   5.976   2.016   3.324 -0.6342  0.5909  0.1821
14830SOL    HW245190   5.985   2.044   3.176 -0.3447 -0.3213  0.0183
14831SOL     OW45191   7.135   1.304   4.939  0.6027  0.2246 -0.2705
14831SOL    HW145192   7.051   1.344   4.915  1.4055  0.9195 -2.1861
14831SOL    HW245193   7.199   1.355   4.889  1.8185 -2.6390 -1.8501
14832SOL     OW45194   7.936   0.756   5.106 -0.1862 -0.0238 -0.0156
14832SOL    HW145195   7.992   0.734   5.032  0.8353 -2.2069  1.2998
14832SOL    HW245196   7.868   0.812   5.069  0.9900  0.0011 -2.3225
14833SOL     OW45197   4.596   1.749   4.204 -0.3496 -0.2711 -0.3362
14833SOL    HW145198   4.610   1.654   4.207  3.4402  0.1704  1.0432
14833SOL    HW245199   4.600   1.771   4.111 -1.9631 -1.4547 -0.7362
14834SOL     OW45200   6.356   4.472   5.422  0.6204  0.1480  0.7201
14834SOL    HW145201   6.338   4.409   5.352 -0.8143  0.8156  0.4647
14834SOL    HW245202   6.342   4.423   5.503  0.9026 -0.2438  0.5350
14835SOL     OW45203   3.533   5.106   7.711  0.1995  0.5039 -0.3491
14835SOL    HW145204   3.600   5.146   7.767  0.9645 -0.2196 -0.7188
14835SOL    HW245205   3.473   5.177   7.691  0.6957  1.1035  0.2433
14836SOL     OW45206   6.785   0.313   0.816 -0.1412 -0.3862  0.1914
14836SOL    HW145207   6.735   0.365   0.879 -0.8484  0.2689 -0.8832
14836SOL    HW245208   6.786   0.225   0.854 -1.1381 -0.1548  0.7988
14837SOL     OW45209   7.546   1.298   6.065 -0.1044  0.3060 -0.2447
14837SOL    HW145210   7.537   1.263   5.976 -0.9399  2.5019 -1.0847
14837SOL    HW245211   7.614   1.365   6.058  0.2835  0.0657  0.9384
14838SOL     OW45212   6.334   1.839   5.965  0.5186  0.0231 -0.2659
14838SOL    HW145213   6.244   1.835   5.933 -0.6014  0.3336  2.5780
14838SOL    HW245214   6.355   1.749   5.991  0.6020  0.1489  0.1162
14839SOL     OW45215   6.249   3.442   0.563  0.3243 -0.0599 -0.0894
14839SOL    HW145216   6.157   3.462   0.546  0.6366  1.3502 -0.1920
14839SOL    HW245217   6.246   3.373   0.630 -0.7972  0.0877  0.0312
14840SOL     OW45218   7.465   0.342   4.204 -0.0121 -0.0321  0.3563
14840SOL    HW145219   7.526   0.270   4.222  0.6376  0.2523 -0.6273
14840SOL    HW245220   7.401   0.306   4.144 -0.2650 -0.0672  0.6470
14841SOL     OW45221   7.382   4.162   0.406  0.8565  0.3205  0.1205
14841SOL    HW145222   7.453   4.098   0.408  0.2067 -0.5503 -1.6428
14841SOL    HW245223   7.309   4.114   0.365 -0.6075  1.3091  1.4806
14842SOL     OW45224   2.495   3.101   4.497  0.1299  0.3332  0.3582
14842SOL    HW145225   2.492   3.008   4.518  1.5901  0.3712  0.9058
14842SOL    HW245226   2.589   3.123   4.501 -0.1043  1.6408 -0.5689
14843SOL     OW45227   5.366   5.523   7.726  0.1051  0.0575  0.0246
14843SOL    HW145228   5.281   5.549   7.763 -0.0436  0.5980 -0.6651
14843SOL    HW245229   5.426   5.526   7.800 -0.5578 -0.7572  0.6119
14844SOL     OW45230   7.652   3.170   4.562  0.1849 -0.5471  0.1061
14844SOL    HW145231   7.719   3.167   4.631  2.0606 -1.0011 -1.6334
14844SOL    HW245232   7.643   3.263   4.542  0.3556 -0.4897  0.2897
14845SOL     OW45233   3.702   0.315   7.264  0.2920 -0.2823 -0.2261
14845SOL    HW145234   3.748   0.351   7.339  0.0415  0.0882 -0.2474
14845SOL    HW245235   3.763   0.323   7.191 -0.0607  0.8725 -0.4077
14846SOL     OW45236   4.846   2.896   1.706  0.5155 -0.5259  0.1783
14846SOL    HW145237   4.918   2.956   1.689  0.1217 -0.0261  0.2505
14846SOL    HW245238   4.888   2.815   1.735  1.0262 -0.0179  0.8931
14847SOL     OW45239   4.863   1.280   0.892  0.5500 -0.9478 -0.1652
14847SOL    HW145240   4.872   1.331   0.812 -3.0491 -1.2118 -0.9020
14847SOL    HW245241   4.897   1.193   0.870  1.6796 -0.4091 -0.6204
14848SOL     OW45242   4.283   5.943   4.933 -0.1398  0.1644 -0.3613
14848SOL    HW145243   4.312   6.034   4.931  0.5135 -0.0435 -0.6832
14848SOL    HW245244   4.322   5.904   4.855 -0.2154 -0.4473 -0.0980
14849SOL     OW45245   5.902   5.522   7.665 -0.2912 -0.2341  0.1142
14849SOL    HW145246   5.818   5.483   7.640 -0.1518  0.1218 -0.9820
14849SOL    HW245247   5.945   5.454   7.717 -0.1980 -1.4455 -1.4730
14850SOL     OW45248   2.306   0.151   4.905 -0.7549 -0.2789 -0.1027
14850SOL    HW145249   2.318   0.091   4.830  0.5949 -2.2349  1.5655
14850SOL    HW245250   2.395   0.178   4.928 -1.2091  0.7937  0.4257
14851SOL     OW45251   0.606   4.663   4.552  0.0519 -0.8533 -0.4989
14851SOL    HW145252   0.616   4.568   4.544 -0.9915 -0.8410 -2.6216
14851SOL    HW245253   0.678   4.700   4.502 -1.0866 -0.6109 -2.0473
14852SOL     OW45254   0.667   1.425   0.198  0.4255 -0.4027  0.1775
14852SOL    HW145255   0.684   1.350   0.142  0.4605 -1.2540  1.3023
14852SOL    HW245256   0.706   1.499   0.151 -0.5310 -0.8812 -1.4578
14853SOL     OW45257   4.999   0.741   1.993 -0.0315 -0.3569  0.5438
14853SOL    HW145258   4.961   0.783   2.070  3.2198  0.3051  1.9604
14853SOL    HW245259   4.950   0.777   1.919 -0.5817  2.2114  2.0373
14854SOL     OW45260   5.559   4.589   6.120 -0.2531  0.6066  0.2067
14854SOL    HW145261   5.558   4.519   6.054 -0.7860 -1.6179  2.3833
14854SOL    HW245262   5.471   4.626   6.117  0.0026  1.1447 -0.9084
14855SOL     OW45263   2.911   6.743   4.949 -0.4697 -0.5309  0.0416
14855SOL    HW145264   2.956   6.768   5.030 -1.3816  0.2149  0.3373
14855SOL    HW245265   2.910   6.647   4.951  1.5946 -0.6034 -0.2783
14856SOL     OW45266   6.318   7.875   7.703  0.1021  0.2449 -0.2790
14856SOL    HW145267   6.357   7.946   7.753 -1.5652  0.9887  0.0326
14856SOL    HW245268   6.351   7.795   7.744  3.6513  0.7007 -1.9021
14857SOL     OW45269   2.367   4.997   1.268  0.1078  0.2691  0.0600
14857SOL    HW145270   2.354   5.049   1.347  1.6838 -0.9785  1.2059
14857SOL    HW245271   2.359   5.060   1.196 -1.1362  1.4706  1.1906
14858SOL     OW45272   7.939   2.527   3.491 -0.9678  0.0991  0.8090
14858SOL    HW145273   7.902   2.612   3.516 -0.4374  0.6690 -0.2706
14858SOL    HW245274   8.029   2.530   3.523 -0.8283  0.1103  0.4170
14859SOL     OW45275   0.484   2.992   7.292  0.4728 -0.0039  0.3826
14859SOL    HW145276   0.541   2.964   7.221 -0.0644  1.5096 -0.7214
14859SOL    HW245277   0.541   3.037   7.354  0.8306 -0.6449  0.5186
14860SOL     OW45278   1.937   7.323   2.481 -0.5210  0.0901  0.1624
14860SOL    HW145279   2.007   7.295   2.540 -0.2774 -2.1497 -1.1122
14860SOL    HW245280   1.965   7.294   2.394 -1.4591  2.2064 -0.9377
14861SOL     OW45281   5.196   2.806   2.604 -0.2860 -0.2606 -0.2741
14861SOL    HW145282   5.205   2.901   2.615  1.2599 -0.3154 -0.8902
14861SOL    HW245283   5.256   2.784   2.533  0.3353 -1.8784  0.7042
14862SOL     OW45284   3.187   0.953   3.155 -0.4412  0.4335 -0.6556
14862SOL    HW145285   3.157   0.928   3.067  2.0712  0.1660 -1.5362
14862SOL    HW245286   3.204   1.047   3.148  3.8681 -0.2081 -1.9910
14863SOL     OW45287   0.693   4.675   2.301 -0.1446  0.0897  0.2472
14863SOL    HW145288   0.597   4.674   2.294 -0.1010  1.1409 -0.9356
14863SOL    HW245289   0.711   4.725   2.380 -0.5764  0.1766  0.2924
14864SOL     OW45290   0.731   3.897   0.142 -0.0811 -0.0772  0.2770
14864SOL    HW145291   0.658   3.869   0.198 -0.2717 -0.6327 -0.2402
14864SOL    HW245292   0.797   3.927   0.204 -0.4076 -0.3996  0.7975
14865SOL     OW45293   5.839   2.898   1.066 -0.0219  0.0557  0.1041
14865SOL    HW145294   5.786   2.874   1.141 -0.1474  1.2110  0.4159
14865SOL    HW245295   5.812   2.839   0.996  1.3666 -2.2967  1.4116
14866SOL     OW45296   1.090   7.956   4.140  0.6255 -0.0229  0.1713
14866SOL    HW145297   1.010   7.984   4.183  0.3110  1.0948 -1.0867
14866SOL    HW245298   1.074   7.864   4.117 -0.1213  0.0653  0.3282
14867SOL     OW45299   0.974   1.350   0.402 -0.0196  0.9657  0.0815
14867SOL    HW145300   0.885   1.358   0.438 -0.0419  1.5316 -0.0946
14867SOL    HW245301   0.977   1.413   0.330  0.0549 -0.0788 -0.8646
14868SOL     OW45302   4.348   3.169   1.255  0.2191 -0.1562  0.2482
14868SOL    HW145303   4.411   3.216   1.309  0.4813  1.1216 -1.0973
14868SOL    HW245304   4.370   3.194   1.165 -2.9814  1.4307 -0.2508
14869SOL     OW45305   7.889   7.144   6.417  0.0145  0.3007 -0.1058
14869SOL    HW145306   7.875   7.205   6.345  1.3027 -0.5531 -1.1264
14869SOL    HW245307   7.970   7.174   6.458  1.3612 -1.3824 -1.3927
14870SOL     OW45308   3.516   3.033   5.345  0.0458 -0.1271  0.0918
14870SOL    HW145309   3.604   3.070   5.350 -0.3284  0.7504  0.3476
14870SOL    HW245310   3.474   3.081   5.272  0.8570 -2.8906 -2.3896
14871SOL     OW45311   1.632   4.347   6.840 -0.0112  0.2408  0.0886
14871SOL    HW145312   1.658   4.256   6.857  0.6194  0.5354  0.7789
14871SOL    HW245313   1.536   4.346   6.850  0.0221 -0.2775  0.4361
14872SOL     OW45314   4.909   0.959   7.724  0.3030 -0.0457 -0.2256
14872SOL    HW145315   4.941   1.049   7.721 -1.2388  0.5656  0.5950
14872SOL    HW245316   4.850   0.957   7.799  0.1928 -1.7057 -0.3253
14873SOL     OW45317   5.875   4.622   3.446 -0.1507  0.3665 -0.2653
14873SOL    HW145318   5.883   4.650   3.538 -0.2549  0.0437 -0.1553
14873SOL    HW245319   5.935   4.548   3.439 -0.6064 -0.0024 -0.2964
14874SOL     OW45320   3.818   0.621   1.850 -1.0707 -0.3294 -0.0810
14874SOL    HW145321   3.821   0.666   1.934 -0.0012 -0.2710 -0.1383
14874SOL    HW245322   3.730   0.637   1.817 -0.8398  1.4063  0.0715
14875SOL     OW45323   7.232   4.635   0.968 -0.7435 -0.3344 -0.0180
14875SOL    HW145324   7.220   4.724   1.000  0.1644 -0.2251  0.0444
14875SOL    HW245325   7.219   4.641   0.874  0.5626  0.1197 -0.1892
14876SOL     OW45326   5.601   4.306   0.693 -0.3666 -0.0275 -0.1876
14876SOL    HW145327   5.527   4.357   0.725  0.8304  0.6581  1.6650
14876SOL    HW245328   5.608   4.328   0.600 -0.8082  2.0350  0.2299
14877SOL     OW45329   1.718   2.699   2.139  0.3804 -0.2963  0.6948
14877SOL    HW145330   1.798   2.663   2.099  0.5044 -0.9122  1.4762
14877SOL    HW245331   1.666   2.729   2.065  0.9940 -0.6031  0.1268
14878SOL     OW45332   0.098   5.340   2.616  0.7676 -0.4776 -0.4823
14878SOL    HW145333   0.116   5.291   2.696  1.4574  2.2683  1.1750
14878SOL    HW245334   0.005   5.364   2.622  1.0321  0.4697 -0.0359
14879SOL     OW45335   0.484   5.031   5.543 -0.0455 -0.1024 -0.4094
14879SOL    HW145336   0.479   5.084   5.463 -1.0825 -0.9929 -0.9598
14879SOL    HW245337   0.547   4.962   5.522 -0.5451 -0.5136 -0.5817
14880SOL     OW45338   1.588   4.860   2.943  0.2373  0.5095 -0.1846
14880SOL    HW145339   1.526   4.797   2.980 -1.4504  2.2484  0.1597
14880SOL    HW245340   1.597   4.927   3.011 -1.2148  2.6704 -1.9584
14881SOL     OW45341   2.408   5.621   5.867  0.4530  0.1356  0.4091
14881SOL    HW145342   2.460   5.551   5.907 -0.8270 -1.9433 -1.3295
14881SOL    HW245343   2.470   5.670   5.813  1.5270  0.9252  2.2653
14882SOL     OW45344   4.395   1.730   2.670  0.2999  0.3341 -0.0470
14882SOL    HW145345   4.471   1.696   2.717 -0.3569  0.0623  0.8430
14882SOL    HW245346   4.365   1.804   2.723 -0.4719 -0.0002 -0.0047
14883SOL     OW45347   4.444   0.187   6.565  0.4109 -0.1249  0.3218
14883SOL    HW145348   4.461   0.181   6.659 -1.2236  2.3779  0.8787
14883SOL    HW245349   4.348   0.186   6.558  0.5149 -0.6443 -1.3620
14884SOL     OW45350   5.390   5.007   5.861 -0.1498  0.1161  0.0910
14884SOL    HW145351   5.298   4.999   5.885 -0.1842  0.3456  0.0395
14884SOL    HW245352   5.390   5.010   5.765  0.1141 -2.5056 -0.0719
14885SOL     OW45353   2.980   4.626   4.645  0.1509 -0.4423  0.0439
14885SOL    HW145354   2.955   4.559   4.708  0.3830  1.9215  2.8334
14885SOL    HW245355   3.072   4.645   4.665  0.1886  0.4817 -0.9033
14886SOL     OW45356   5.907   6.611   1.873  0.5751  0.5854  0.0164
14886SOL    HW145357   5.995   6.649   1.875  0.3697  1.0996 -0.6655
14886SOL    HW245358   5.914   6.533   1.928  1.0556  1.4839  1.3073
14887SOL     OW45359   1.363   0.015   3.499  0.2028  0.7529  0.1920
14887SOL    HW145360   1.345   0.091   3.445 -0.1623 -0.6273 -1.7630
14887SOL    HW245361   1.457   0.017   3.513  0.4243  0.7642 -1.1659
14888SOL     OW45362   1.065   0.718   7.767 -0.5994  0.3017 -0.5712
14888SOL    HW145363   1.038   0.626   7.759 -1.5516  0.2667  1.9411
14888SOL    HW245364   1.110   0.737   7.685 -0.1430 -2.4836 -1.0869
14889SOL     OW45365   4.791   3.786   3.705  0.1262 -0.3608 -1.0333
14889SOL    HW145366   4.839   3.857   3.747  0.8219  1.3066 -4.2604
14889SOL    HW245367   4.795   3.713   3.767  1.1843  1.7493  1.5533
14890SOL     OW45368   7.574   6.424   6.162 -0.2881 -0.4024  0.2392
14890SOL    HW145369   7.587   6.413   6.067  2.7910 -1.0346  0.6433
14890SOL    HW245370   7.525   6.345   6.188 -1.6220  0.0203 -0.8403
14891SOL     OW45371   7.063   0.308   7.514 -0.0423 -0.4017 -0.0104
14891SOL    HW145372   7.137   0.281   7.567 -0.1949  2.9682  2.2435
14891SOL    HW245373   7.059   0.403   7.525 -4.3580 -0.3162 -0.3544
14892SOL     OW45374   5.072   5.691   3.280 -0.3254 -0.5898 -0.2663
14892SOL    HW145375   4.991   5.653   3.313 -0.3797  0.7973  1.3562
14892SOL    HW245376   5.054   5.785   3.272  1.4403 -0.0268  1.4166
14893SOL     OW45377   4.340   5.081   7.625 -0.2044  0.3619  0.2272
14893SOL    HW145378   4.251   5.069   7.591 -0.5982  1.0905  0.9890
14893SOL    HW245379   4.335   5.052   7.716  0.7693 -1.2564 -0.1943
14894SOL     OW45380   5.767   4.345   7.376 -0.2911  0.7844  0.3766
14894SOL    HW145381   5.791   4.332   7.468  0.6851  2.9248  0.4794
14894SOL    HW245382   5.672   4.358   7.377 -0.3308  0.4867  1.0356
14895SOL     OW45383   3.316   6.893   6.004 -0.2536  0.3477  0.6531
14895SOL    HW145384   3.263   6.969   5.978  2.8970  2.2439 -0.8614
14895SOL    HW245385   3.302   6.829   5.934 -0.8588  0.6186  0.5169
14896SOL     OW45386   4.445   4.884   6.743  0.1668  0.3866 -0.1216
14896SOL    HW145387   4.383   4.851   6.679 -0.4772 -1.1649  1.2409
14896SOL    HW245388   4.531   4.876   6.700 -0.5293  3.8690 -2.5670
14897SOL     OW45389   4.778   6.900   1.215  0.0078 -0.0097 -0.2249
14897SOL    HW145390   4.749   6.878   1.304  0.3177  1.3422  0.2460
14897SOL    HW245391   4.870   6.925   1.226 -0.0142  0.3857 -0.8770
14898SOL     OW45392   4.099   4.075   5.267 -0.4175  0.3096 -0.3923
14898SOL    HW145393   4.069   4.167   5.269  0.1800  0.5091 -0.4954
14898SOL    HW245394   4.029   4.027   5.311 -0.5188  0.8826  0.0921
14899SOL     OW45395   2.034   0.132   2.710 -0.0211  0.5962 -0.6042
14899SOL    HW145396   1.957   0.188   2.699  0.4721  1.3048 -0.5136
14899SOL    HW245397   2.007   0.069   2.778 -0.3569  1.1427 -0.2154
14900SOL     OW45398   6.547   3.218   0.972  0.3808  0.3796  0.3266
14900SOL    HW145399   6.584   3.243   0.887  1.6739 -0.3370  0.6634
14900SOL    HW245400   6.603   3.147   1.003 -0.7094 -0.0886  1.3077
14901SOL     OW45401   4.124   3.733   1.851 -0.2118 -0.5217  0.4182
14901SOL    HW145402   4.106   3.739   1.757  1.0819  0.5492  0.1995
14901SOL    HW245403   4.219   3.719   1.856 -0.2041 -0.1369  1.5646
14902SOL     OW45404   5.840   4.124   2.238 -0.0203 -0.1179 -0.1398
14902SOL    HW145405   5.900   4.061   2.278 -1.0890 -0.8360  0.3927
14902SOL    HW245406   5.779   4.071   2.188 -1.5174  0.3913  1.0829
14903SOL     OW45407   5.323   7.132   3.991  0.3672  0.1878 -0.5966
14903SOL    HW145408   5.381   7.204   4.015  0.6430  0.0634 -0.8820
14903SOL    HW245409   5.327   7.129   3.896 -1.9904  1.7336 -0.8141
14904SOL     OW45410   5.226   1.579   0.096 -0.1512  0.1248  0.9837
14904SOL    HW145411   5.148   1.618   0.057  0.3614  1.2785  1.0694
14904SOL    HW245412   5.233   1.619   0.182 -0.3899 -1.2289  1.6500
14905SOL     OW45413   7.514   4.045   2.763  0.5007 -0.5399  0.1960
14905SOL    HW145414   7.444   4.027   2.700  0.0356 -0.9561  0.8196
14905SOL    HW245415   7.595   4.028   2.714  0.1303 -1.6248 -0.0683
14906SOL     OW45416   0.155   0.746   3.701 -0.6784 -0.3637  0.0781
14906SOL    HW145417   0.134   0.755   3.794  0.4658  0.8906  0.2537
14906SOL    HW245418   0.231   0.688   3.700  0.1946  0.7331  0.0843
14907SOL     OW45419   3.205   1.235   6.659  0.3555 -0.4439  0.2319
14907SOL    HW145420   3.240   1.173   6.595 -1.3119 -2.2499  0.9593
14907SOL    HW245421   3.117   1.254   6.628  0.7905  1.5332  0.1071
14908SOL     OW45422   2.909   7.941   1.095 -0.1864 -0.5379  0.0766
14908SOL    HW145423   2.886   7.897   1.177 -1.8886 -0.1856 -0.1612
14908SOL    HW245424   2.935   7.871   1.036  0.6367 -0.8356  0.7886
14909SOL     OW45425   4.557   6.452   1.679  0.3497  0.4360  0.1561
14909SOL    HW145426   4.487   6.398   1.642  0.1093  1.0176 -0.2541
14909SOL    HW245427   4.598   6.396   1.745  0.3792 -0.4018 -0.5482
14910SOL     OW45428   1.523   3.141   5.932 -0.1534  0.3618 -0.0995
14910SOL    HW145429   1.447   3.110   5.884 -0.4227  0.7240  0.0919
14910SOL    HW245430   1.497   3.226   5.968 -0.2100 -0.1975  1.2594
14911SOL     OW45431   0.329   5.820   1.025  0.2178 -0.2872  0.0439
14911SOL    HW145432   0.252   5.875   1.008 -1.9759 -2.9032  0.9225
14911SOL    HW245433   0.360   5.848   1.111 -0.6779 -0.2142  0.3499
14912SOL     OW45434   2.831   1.472   7.340 -0.0660 -0.5150 -0.0261
14912SOL    HW145435   2.912   1.507   7.304 -1.0046  0.4363 -1.2760
14912SOL    HW245436   2.841   1.377   7.334  0.7025 -0.3968 -0.7227
14913SOL     OW45437   1.090   5.757   6.713 -0.6896 -0.1710 -0.0006
14913SOL    HW145438   1.177   5.796   6.702 -0.5328 -0.5780 -0.2127
14913SOL    HW245439   1.048   5.769   6.627 -0.9103  0.1908  0.1574
14914SOL     OW45440   0.373   2.660   3.373  0.0671  0.5603  0.2014
14914SOL    HW145441   0.367   2.750   3.403 -1.4506  0.3249  0.7035
14914SOL    HW245442   0.412   2.613   3.447 -2.3041  0.2454  1.3571
14915SOL     OW45443   5.543   5.637   7.502 -0.2546 -0.8539 -0.1651
14915SOL    HW145444   5.465   5.589   7.531  0.2344 -2.6320 -1.6270
14915SOL    HW245445   5.617   5.581   7.527  0.3301 -0.9930 -2.0145
14916SOL     OW45446   5.013   0.350   0.719 -0.2491 -0.1558  0.5355
14916SOL    HW145447   4.939   0.329   0.663  0.0240  2.0988 -0.7978
14916SOL    HW245448   5.000   0.297   0.798 -1.5294 -2.1825 -0.9428
14917SOL     OW45449   1.751   7.856   6.618  0.1176  0.7976 -0.2068
14917SOL    HW145450   1.782   7.929   6.672  1.2711  0.0914  0.1140
14917SOL    HW245451   1.676   7.821   6.666 -0.2681  1.5755 -0.2209
14918SOL     OW45452   6.190   5.448   4.633  0.0757 -0.3670  0.2180
14918SOL    HW145453   6.131   5.442   4.559  0.5704  2.4474 -0.5095
14918SOL    HW245454   6.278   5.439   4.596  0.3616  1.6201  0.2698
14919SOL     OW45455   6.101   2.361   1.030 -0.2175 -0.1937 -0.5771
14919SOL    HW145456   6.192   2.339   1.009 -0.2111 -0.6385 -0.1080
14919SOL    HW245457   6.071   2.287   1.083 -1.1633 -0.5344 -1.5500
14920SOL     OW45458   1.243   1.599   6.559 -0.1306 -0.4760  0.0408
14920SOL    HW145459   1.195   1.622   6.638 -0.1970 -0.0508 -0.1163
14920SOL    HW245460   1.181   1.612   6.487 -0.2101 -1.3065 -0.0470
14921SOL     OW45461   0.671   0.679   2.008  0.1309 -0.9312 -0.0374
14921SOL    HW145462   0.763   0.668   1.985 -0.1927 -0.8159 -1.4822
14921SOL    HW245463   0.622   0.634   1.939 -0.8977 -2.4290  1.5804
14922SOL     OW45464   7.588   6.069   4.234  0.2090  0.0218  0.0059
14922SOL    HW145465   7.640   5.990   4.246  1.6592  1.1108  1.2824
14922SOL    HW245466   7.636   6.137   4.282 -3.1274  0.8108  2.6503
14923SOL     OW45467   7.375   0.892   0.228  0.0002  0.3184  0.2186
14923SOL    HW145468   7.384   0.803   0.192 -1.0827  0.0148  0.6572
14923SOL    HW245469   7.302   0.885   0.290  0.7510  1.2204  1.2250
14924SOL     OW45470   1.137   5.106   5.989 -0.7592  0.1063  0.4763
14924SOL    HW145471   1.117   5.062   6.072  0.2908  0.7187  1.0751
14924SOL    HW245472   1.157   5.034   5.928  1.1936 -0.3066  1.5087
14925SOL     OW45473   5.160   2.019   5.598  0.0671  0.4381 -0.2093
14925SOL    HW145474   5.115   1.935   5.604 -0.6201  0.6465 -1.8881
14925SOL    HW245475   5.231   2.004   5.535  0.7267  0.8114  0.4196
14926SOL     OW45476   1.192   0.384   1.945 -0.1088 -0.4800 -0.6054
14926SOL    HW145477   1.157   0.297   1.926 -0.2396 -0.7748  0.8380
14926SOL    HW245478   1.130   0.422   2.007 -0.4535  0.9619 -1.8068
14927SOL     OW45479   7.032   4.568   7.664 -0.1505 -0.0051 -0.3494
14927SOL    HW145480   7.019   4.498   7.729 -0.2789  0.7439  0.4468
14927SOL    HW245481   7.106   4.538   7.611  0.2924 -0.3866  0.4698
14928SOL     OW45482   6.737   7.488   4.751 -0.2123 -0.5356 -0.8253
14928SOL    HW145483   6.662   7.431   4.733 -0.0354 -1.1045  0.1770
14928SOL    HW245484   6.795   7.476   4.675 -0.1641 -1.7162 -0.6210
14929SOL     OW45485   6.698   2.116   1.309  0.3222  0.4206 -0.2214
14929SOL    HW145486   6.662   2.137   1.395  1.1184  0.4621  0.1122
14929SOL    HW245487   6.715   2.201   1.269  1.6609  0.4313  0.3235
14930SOL     OW45488   1.955   0.039   0.731 -0.0239  0.2846  0.3844
14930SOL    HW145489   2.050   0.029   0.737  0.1749  2.1806  0.8942
14930SOL    HW245490   1.941   0.133   0.720 -1.9071  0.3728  2.6228
14931SOL     OW45491   1.282   0.884   0.502 -0.5624  0.1028 -0.0132
14931SOL    HW145492   1.246   0.864   0.415 -2.7405 -0.3048  0.9247
14931SOL    HW245493   1.238   0.965   0.528 -0.2791 -0.0283  0.9027
14932SOL     OW45494   4.055   6.889   6.710 -0.1729  0.2910  0.4264
14932SOL    HW145495   4.024   6.895   6.801  0.1893  2.8515  0.4490
14932SOL    HW245496   4.143   6.926   6.712 -0.3809  0.9358 -1.0484
14933SOL     OW45497   7.787   6.049   3.725 -0.5334 -0.3199 -0.2741
14933SOL    HW145498   7.701   6.089   3.709 -0.1142  1.1398  0.9739
14933SOL    HW245499   7.818   6.024   3.638 -1.7078  0.2198 -0.8683
14934SOL     OW45500   3.150   0.522   3.376 -0.1846 -0.1043 -0.4718
14934SOL    HW145501   3.080   0.499   3.437 -0.5736  0.2716 -0.7739
14934SOL    HW245502   3.231   0.498   3.422 -0.4125  1.1884  0.6550
14935SOL     OW45503   4.599   6.508   4.394  0.1077  0.0900 -0.3860
14935SOL    HW145504   4.603   6.418   4.424 -1.0156 -0.2119 -1.0900
14935SOL    HW245505   4.636   6.559   4.466 -0.9775 -0.7526  0.8186
14936SOL     OW45506   0.547   0.432   4.338  0.3772 -0.3390  0.1030
14936SOL    HW145507   0.571   0.405   4.249  0.9804  0.0764  0.1384
14936SOL    HW245508   0.590   0.517   4.350 -1.8144  0.8852 -0.1536
14937SOL     OW45509   2.729   0.469   7.142  0.3504 -0.3488 -0.1473
14937SOL    HW145510   2.639   0.441   7.127 -0.1659  1.1687 -0.0540
14937SOL    HW245511   2.779   0.387   7.149 -1.4295 -1.3403  2.5370
14938SOL     OW45512   3.443   4.464   7.188  0.4678  0.3380 -0.1719
14938SOL    HW145513   3.490   4.529   7.136 -1.2314  1.0413 -0.9041
14938SOL    HW245514   3.468   4.380   7.150  0.6420  0.7365 -0.9631
14939SOL     OW45515   3.188   5.947   0.898  0.2073 -0.4015  0.2142
14939SOL    HW145516   3.272   5.904   0.916  0.9802  0.4644 -1.1747
14939SOL    HW245517   3.208   6.040   0.895 -0.6553 -0.2197 -0.8120
14940SOL     OW45518   7.096   4.009   1.188  0.6061 -0.5023  0.5699
14940SOL    HW145519   7.136   3.965   1.263  0.7148 -1.7332 -0.1881
14940SOL    HW245520   7.155   4.082   1.169  0.4692 -0.0409  1.7822
14941SOL     OW45521   1.637   2.894   5.191  0.1617  0.1182  0.0414
14941SOL    HW145522   1.545   2.868   5.184  0.0711 -0.1091  1.6963
14941SOL    HW245523   1.675   2.833   5.255  0.7430  1.9238  1.5221
14942SOL     OW45524   3.930   2.899   5.454 -0.5292 -0.0269  0.0507
14942SOL    HW145525   3.858   2.948   5.412 -1.3299 -0.7048  0.6013
14942SOL    HW245526   4.005   2.958   5.449 -0.9876  0.5059 -0.9891
14943SOL     OW45527   3.844   6.431   3.192  0.8025  0.4073  0.1916
14943SOL    HW145528   3.869   6.438   3.099  1.7778  0.5306  0.4538
14943SOL    HW245529   3.786   6.355   3.195  0.1340  0.8722 -0.6462
14944SOL     OW45530   7.404   4.201   1.708 -0.2212 -0.7600  0.0033
14944SOL    HW145531   7.431   4.198   1.800  0.4053  0.5926 -0.1073
14944SOL    HW245532   7.458   4.135   1.665  1.7815  0.7363  0.0914
14945SOL     OW45533   5.493   7.611   0.021  0.1568 -0.0357  0.0303
14945SOL    HW145534   5.524   7.523   0.038  0.8648  0.3315  0.6716
14945SOL    HW245535   5.487   7.616  -0.075  0.4843 -0.6481 -0.0279
14946SOL     OW45536   3.570   5.737   3.459 -0.0555 -0.7908  0.3319
14946SOL    HW145537   3.631   5.671   3.490  0.7955 -0.3506 -0.3676
14946SOL    HW245538   3.541   5.782   3.538 -0.8091 -2.1135  0.8375
14947SOL     OW45539   7.885   3.236   2.523 -0.0223 -0.2181 -0.0743
14947SOL    HW145540   7.833   3.190   2.457 -0.4708  1.8897 -1.2915
14947SOL    HW245541   7.973   3.199   2.515  0.1225  0.4361 -2.4359
14948SOL     OW45542   5.985   0.787   2.862 -0.2398  0.2091 -0.5138
14948SOL    HW145543   5.909   0.823   2.816 -1.0978 -0.7693  0.0872
14948SOL    HW245544   5.948   0.722   2.922  1.0762 -0.2923 -0.2127
14949SOL     OW45545   2.249   1.470   7.055 -0.2016  0.4862  0.0009
14949SOL    HW145546   2.339   1.479   7.085 -0.1714 -0.1487  0.1079
14949SOL    HW245547   2.254   1.413   6.978 -0.6777 -0.9577  0.9935
14950SOL     OW45548   3.646   1.315   2.937  0.3603 -0.5132 -0.0912
14950SOL    HW145549   3.573   1.273   2.981 -0.9416 -0.0195 -1.6835
14950SOL    HW245550   3.724   1.274   2.974 -0.7845 -3.2808 -0.5492
14951SOL     OW45551   6.946   7.804   4.953 -0.2460 -0.1081 -0.2264
14951SOL    HW145552   6.896   7.797   5.035 -1.7043  0.8696 -0.9914
14951SOL    HW245553   6.891   7.760   4.888 -0.8368  2.1933 -1.3762
14952SOL     OW45554   3.080   0.307   6.143  0.2187 -0.6426 -0.0439
14952SOL    HW145555   3.032   0.381   6.180  0.3761 -0.5947  0.0643
14952SOL    HW245556   3.131   0.272   6.216 -1.5903 -2.3083  0.5256
14953SOL     OW45557   7.458   1.764   0.824 -0.2239 -0.1249 -0.6371
14953SOL    HW145558   7.432   1.833   0.763 -0.2290  0.2431 -0.2263
14953SOL    HW245559   7.492   1.811   0.900  0.5040 -0.5857 -0.6666
14954SOL     OW45560   4.926   6.423   7.062 -0.1689  0.3422  0.4408
14954SOL    HW145561   4.957   6.362   6.996 -0.3477  1.9885 -1.2583
14954SOL    HW245562   4.946   6.381   7.146  1.1078 -1.3132 -0.6407
14955SOL     OW45563   3.589   4.905   2.971 -0.3091  0.0570  0.6561
14955SOL    HW145564   3.632   4.854   2.902  0.7501  3.1548 -1.1534
14955SOL    HW245565   3.497   4.877   2.967 -0.2471 -0.0634 -1.8778
14956SOL     OW45566   0.831   6.820   5.134 -0.2088 -0.1442 -0.4477
14956SOL    HW145567   0.777   6.899   5.126  0.9205  0.5495 -1.7393
14956SOL    HW245568   0.846   6.792   5.043  1.7844 -0.1682 -0.1597
14957SOL     OW45569   1.607   4.455   1.789 -0.0138 -0.6080 -0.0013
14957SOL    HW145570   1.579   4.479   1.701  2.7625 -3.4684 -1.8543
14957SOL    HW245571   1.701   4.470   1.790 -0.0648  0.0441  2.7934
14958SOL     OW45572   3.538   6.212   4.459  0.3048  0.0950 -0.0399
14958SOL    HW145573   3.631   6.195   4.469  0.7307  0.6462 -2.3726
14958SOL    HW245574   3.533   6.304   4.432 -0.8221 -0.1575 -0.7599
14959SOL     OW45575   1.166   0.969   2.597 -0.3005  0.5220  0.1710
14959SOL    HW145576   1.143   0.922   2.517  0.5399  0.9919 -0.3684
14959SOL    HW245577   1.102   1.040   2.603  0.1446  1.0068 -0.5740
14960SOL     OW45578   5.913   1.076   7.104 -0.0890 -0.8580 -0.0309
14960SOL    HW145579   5.830   1.101   7.144 -0.4969 -3.1010  0.6808
14960SOL    HW245580   5.968   1.048   7.177  0.8226 -0.6703 -0.6289
14961SOL     OW45581   3.070   1.198   4.987 -0.1036  0.5760 -0.6170
14961SOL    HW145582   3.013   1.225   5.059 -1.8931 -1.5770 -1.1074
14961SOL    HW245583   3.152   1.173   5.028 -1.0081 -0.3767  0.6667
14962SOL     OW45584   7.784   3.083   6.414  0.7963 -0.2589 -0.3261
14962SOL    HW145585   7.847   3.127   6.472  1.9715  0.1015 -1.7976
14962SOL    HW245586   7.837   3.019   6.366 -0.4146 -1.4924 -0.0611
14963SOL     OW45587   0.596   5.156   7.048  0.1767  0.3598  0.0298
14963SOL    HW145588   0.563   5.228   6.995  1.6130  2.4872  1.8146
14963SOL    HW245589   0.689   5.152   7.028  0.7164  1.0954  2.1293
14964SOL     OW45590   7.822   2.235   1.171 -0.2702 -0.0981 -0.1808
14964SOL    HW145591   7.836   2.268   1.083 -1.7629 -1.2884 -0.9125
14964SOL    HW245592   7.909   2.235   1.211  0.2752  1.4178 -1.2891
14965SOL     OW45593   3.751   1.372   5.655  0.0331 -0.4101  0.2054
14965SOL    HW145594   3.766   1.334   5.741  0.0064  1.4734  1.0758
14965SOL    HW245595   3.814   1.444   5.649 -1.2777  0.7210 -0.5305
14966SOL     OW45596   0.872   3.388   0.993 -0.5019 -0.3123  0.2102
14966SOL    HW145597   0.873   3.318   1.058  0.6612  0.1562  0.7100
14966SOL    HW245598   0.874   3.342   0.909 -0.0520 -0.8885  0.5277
14967SOL     OW45599   2.149   1.149   2.340 -0.7994 -0.0015 -0.4808
14967SOL    HW145600   2.129   1.095   2.265  2.3741  0.1358 -1.5845
14967SOL    HW245601   2.226   1.108   2.380 -0.7456  1.4537  1.0620
14968SOL     OW45602   7.325   0.170   2.596  0.1555 -0.3317 -0.2944
14968SOL    HW145603   7.336   0.095   2.537 -2.6865 -1.3676  0.3197
14968SOL    HW245604   7.388   0.155   2.666 -0.5927 -2.4103  0.0086
14969SOL     OW45605   4.669   1.500   3.680  0.2317 -0.1475  0.0974
14969SOL    HW145606   4.683   1.416   3.723  0.1853 -0.0774  0.2516
14969SOL    HW245607   4.734   1.503   3.610  1.4888  0.4768  1.2351
14970SOL     OW45608   4.615   5.301   7.265 -0.2543 -0.0187  0.0479
14970SOL    HW145609   4.614   5.390   7.230  1.1284  0.2741  0.6992
14970SOL    HW245610   4.644   5.247   7.191  3.8511  0.7412  0.8320
14971SOL     OW45611   6.476   5.516   5.095  0.1304 -0.3071 -0.1489
14971SOL    HW145612   6.542   5.507   5.164  0.2433  0.2770 -0.1826
14971SOL    HW245613   6.398   5.546   5.140  0.4075  0.7841 -0.3736
14972SOL     OW45614   6.462   3.834   4.060  0.4495  0.0312 -0.3627
14972SOL    HW145615   6.501   3.746   4.064  0.5852  0.0539 -1.0440
14972SOL    HW245616   6.462   3.855   3.967  1.5849  1.2754 -0.1018
14973SOL     OW45617   0.718   1.889   5.215  0.0904  0.0871  0.3242
14973SOL    HW145618   0.677   1.897   5.301  0.3919  0.0646  0.4737
14973SOL    HW245619   0.759   1.802   5.216 -1.6924 -0.8269 -0.6350
14974SOL     OW45620   2.749   2.995   0.802  0.3434  0.1301 -0.0357
14974SOL    HW145621   2.776   3.087   0.799  1.1716 -0.1150 -0.7064
14974SOL    HW245622   2.711   2.978   0.716 -0.1510 -0.0588  0.2160
14975SOL     OW45623   6.690   5.133   6.515 -0.6170 -0.2815  0.4738
14975SOL    HW145624   6.749   5.156   6.587  0.2123 -2.0490  0.4330
14975SOL    HW245625   6.733   5.059   6.472 -1.6279  0.0386 -1.1798
14976SOL     OW45626   3.757   6.171   5.170  0.1432 -0.4253  0.4436
14976SOL    HW145627   3.799   6.242   5.218 -0.3132  1.0557 -1.2691
14976SOL    HW245628   3.794   6.176   5.082 -1.9918 -0.4559 -0.5173
14977SOL     OW45629   7.911   5.953   3.476  0.4050  0.3438  0.3965
14977SOL    HW145630   7.980   5.997   3.426  1.1729 -0.0326  1.1010
14977SOL    HW245631   7.900   5.869   3.431 -0.6444  0.9861 -0.5920
14978SOL     OW45632   7.542   1.061   2.155  0.2708 -0.1856 -0.3329
14978SOL    HW145633   7.494   1.042   2.075 -0.4942  0.1689  0.0236
14978SOL    HW245634   7.540   1.157   2.162  0.6763 -0.1898 -0.0989
14979SOL     OW45635   1.580   1.498   3.421 -0.2763 -0.2624 -0.6080
14979SOL    HW145636   1.519   1.565   3.452 -1.4012 -0.9477 -1.2922
14979SOL    HW245637   1.618   1.462   3.501 -1.3482 -0.3478 -0.1164
14980SOL     OW45638   1.955   0.919   2.530  0.3751 -0.0458  0.0358
14980SOL    HW145639   1.890   0.861   2.568  0.2173  0.4014  0.4688
14980SOL    HW245640   2.038   0.873   2.541  0.1807 -0.4370 -0.1431
14981SOL     OW45641   6.311   3.630   0.804  0.3120  0.5429 -0.1482
14981SOL    HW145642   6.277   3.620   0.715 -0.1165 -0.9655  0.1475
14981SOL    HW245643   6.313   3.724   0.818 -1.7799  0.7730 -0.9535
14982SOL     OW45644   5.927   7.018   4.117  0.1655  0.1570  0.3522
14982SOL    HW145645   5.973   6.987   4.039 -1.2511  0.4500 -0.6414
14982SOL    HW245646   5.891   7.103   4.091 -1.5653 -0.3960  0.8225
14983SOL     OW45647   0.949   6.411   1.238  0.0839  0.2014 -0.4220
14983SOL    HW145648   1.007   6.476   1.199 -0.8522  1.3384 -0.0015
14983SOL    HW245649   0.866   6.422   1.191 -0.3656 -0.0134  0.3089
14984SOL     OW45650   6.941   2.717   3.378 -0.5011 -0.5097 -0.3217
14984SOL    HW145651   6.926   2.678   3.464 -2.3042  0.6067 -0.0876
14984SOL    HW245652   7.007   2.785   3.393 -0.1500 -0.9157 -0.0082
14985SOL     OW45653   1.488   2.965   0.491 -0.3685  0.0952 -0.1342
14985SOL    HW145654   1.409   3.012   0.464 -0.4304 -0.6352 -1.3241
14985SOL    HW245655   1.559   3.006   0.441  0.0220  0.7406  0.9213
14986SOL     OW45656   2.872   1.507   0.731 -0.0279 -0.0342 -0.4270
14986SOL    HW145657   2.816   1.583   0.717 -0.2698  0.0438  0.8970
14986SOL    HW245658   2.817   1.431   0.708 -0.5878  0.0587  0.5655
14987SOL     OW45659   3.381   7.590   4.238 -0.1127 -0.0806 -0.2316
14987SOL    HW145660   3.349   7.616   4.151  1.0232  3.2197  0.1936
14987SOL    HW245661   3.417   7.502   4.225  0.0172  0.3031 -3.0978
14988SOL     OW45662   0.194   2.830   6.586 -0.4111 -0.2880  0.4576
14988SOL    HW145663   0.228   2.901   6.640 -0.6646  0.6914 -0.6207
14988SOL    HW245664   0.270   2.775   6.569  0.4568  1.2533 -0.9839
14989SOL     OW45665   1.091   0.215   5.505  0.0933  0.0981 -0.6118
14989SOL    HW145666   1.072   0.123   5.489 -2.5919  0.4734 -0.0702
14989SOL    HW245667   1.105   0.252   5.418  0.0600 -0.6077 -0.9287
14990SOL     OW45668   6.725   4.942   6.009 -0.5265 -0.3375 -0.0845
14990SOL    HW145669   6.754   4.998   6.080 -1.9105 -2.3043  2.1698
14990SOL    HW245670   6.636   4.971   5.990  0.0542  0.6124 -1.5762
14991SOL     OW45671   2.863   2.173   7.850 -0.3438  0.0250 -0.2393
14991SOL    HW145672   2.865   2.127   7.934  0.0966  0.1696 -0.1688
14991SOL    HW245673   2.855   2.103   7.785  0.4983 -0.1755 -0.1433
14992SOL     OW45674   6.542   1.332   4.569 -0.0732  0.1153 -0.1035
14992SOL    HW145675   6.469   1.359   4.625 -0.5829 -2.0729  0.3522
14992SOL    HW245676   6.501   1.296   4.491  0.4091 -2.2663  0.6716
14993SOL     OW45677   4.519   7.452   4.821  0.6120  0.7666 -0.6894
14993SOL    HW145678   4.449   7.516   4.809 -2.4348 -2.0966  0.0658
14993SOL    HW245679   4.537   7.420   4.733 -2.0894 -1.2296 -0.6528
14994SOL     OW45680   6.161   5.473   2.428 -1.0908 -0.4019 -0.2310
14994SOL    HW145681   6.094   5.410   2.403  0.1864 -1.2728 -1.6449
14994SOL    HW245682   6.232   5.420   2.465 -1.0908  0.4815  1.0883
14995SOL     OW45683   4.114   2.036   3.072  0.3949 -0.2392  0.2434
14995SOL    HW145684   4.170   1.981   3.126  1.3550  0.0401 -0.4393
14995SOL    HW245685   4.034   2.047   3.123  1.4378  0.3772  1.8173
14996SOL     OW45686   7.291   6.305   1.259  0.2383 -0.6239 -0.7488
14996SOL    HW145687   7.251   6.381   1.217 -1.6358  0.1747  2.1861
14996SOL    HW245688   7.218   6.245   1.274  0.9731 -1.2367  0.5427
14997SOL     OW45689   0.867   3.833   5.582  0.2653 -0.5332  0.4593
14997SOL    HW145690   0.835   3.812   5.670 -0.4307 -0.2609  0.2760
14997SOL    HW245691   0.962   3.825   5.589  0.1616 -1.5726  0.9615
14998SOL     OW45692   2.291   2.251   2.683 -0.4934  0.4694  0.1123
14998SOL    HW145693   2.256   2.284   2.600  1.1250 -0.1123 -0.8380
14998SOL    HW245694   2.222   2.270   2.746 -1.3205  1.9437 -1.1425
14999SOL     OW45695   4.197   2.141   3.486  0.0094  0.1270 -0.2509
14999SOL    HW145696   4.202   2.102   3.574  2.7362  2.7515  0.9144
14999SOL    HW245697   4.262   2.092   3.435  1.1297  0.9978  0.3045
15000SOL     OW45698   4.337   1.468   1.363  0.3442  0.0155  0.4949
15000SOL    HW145699   4.357   1.553   1.402  1.9399  0.3015 -0.8495
15000SOL    HW245700   4.341   1.407   1.436  1.2710  0.8036  1.1354
15001SOL     OW45701   0.821   4.705   4.423  0.4788  0.0422  0.2395
15001SOL    HW145702   0.900   4.672   4.380  1.2465  0.0954  1.5326
15001SOL    HW245703   0.846   4.793   4.453 -0.7244  0.8435 -1.0169
15002SOL     OW45704   6.965   0.025   6.472  0.1124  0.3666 -0.3284
15002SOL    HW145705   6.940   0.039   6.381  0.2678 -0.3439 -0.4868
15002SOL    HW245706   6.883   0.022   6.520 -0.0862 -1.0166 -0.7080
15003SOL     OW45707   7.088   3.629   2.841 -0.1878 -0.4338  0.5795
15003SOL    HW145708   7.102   3.582   2.924 -1.2890 -1.1145  0.3977
15003SOL    HW245709   7.019   3.580   2.797 -0.0842  0.3133 -0.4559
15004SOL     OW45710   4.016   2.234   4.311  0.3260 -0.3339  0.0964
15004SOL    HW145711   4.102   2.218   4.271  0.0270 -0.4634 -0.5085
15004SOL    HW245712   3.991   2.150   4.349  0.1059 -0.5194 -0.4448
15005SOL     OW45713   2.926   3.511   3.277 -0.9563  0.3804 -0.3679
15005SOL    HW145714   2.944   3.440   3.339 -3.6621  0.6828  0.9307
15005SOL    HW245715   2.941   3.472   3.191 -0.7792 -1.2566  0.3651
15006SOL     OW45716   4.474   1.168   4.978  0.1365  0.0873  0.3541
15006SOL    HW145717   4.408   1.155   5.046  0.7406 -0.6808  0.8017
15006SOL    HW245718   4.440   1.121   4.901 -0.4359  0.7659  0.1808
15007SOL     OW45719   2.316   4.220   2.685 -0.2119  0.4644  0.0762
15007SOL    HW145720   2.229   4.248   2.710  0.6682  2.9392  0.6573
15007SOL    HW245721   2.318   4.228   2.589 -1.4307 -2.4293 -0.3131
15008SOL     OW45722   5.897   5.079   7.495 -0.0330  0.1966  0.5848
15008SOL    HW145723   5.924   5.115   7.411 -1.8058  0.2968  0.0207
15008SOL    HW245724   5.834   5.011   7.473 -0.5916  0.2840  1.8274
15009SOL     OW45725   4.968   5.442   6.695  0.1620  0.3655  0.4146
15009SOL    HW145726   5.053   5.447   6.651 -0.3930 -0.1981 -0.7758
15009SOL    HW245727   4.917   5.514   6.658 -0.4962 -0.4524 -0.3057
15010SOL     OW45728   5.751   7.106   1.124  0.0925 -0.0014  0.7634
15010SOL    HW145729   5.740   7.013   1.142  3.1281 -0.7107 -0.3254
15010SOL    HW245730   5.680   7.128   1.064 -1.9407 -1.0186  2.6857
15011SOL     OW45731   4.326   4.214   6.973  0.3463 -0.3410  0.3109
15011SOL    HW145732   4.369   4.247   7.052  1.0546  0.4760 -0.3916
15011SOL    HW245733   4.352   4.276   6.904  1.3073 -2.1053 -0.9704
15012SOL     OW45734   6.477   7.247   0.262  0.0137  0.5235 -0.1285
15012SOL    HW145735   6.487   7.155   0.284  1.8864  0.4773 -0.9826
15012SOL    HW245736   6.501   7.253   0.170  1.2043  2.0141  0.2204
15013SOL     OW45737   0.806   5.409   2.553  0.0023  0.4466  0.3294
15013SOL    HW145738   0.765   5.475   2.608 -0.8795  1.0592 -1.0184
15013SOL    HW245739   0.848   5.458   2.483 -1.8562 -0.3843 -1.4972
15014SOL     OW45740   5.611   7.872   5.157  0.5402  0.0313  0.2267
15014SOL    HW145741   5.581   7.926   5.230  1.0341  0.5635  0.0459
15014SOL    HW245742   5.562   7.903   5.081 -0.0457 -0.5893  0.3414
15015SOL     OW45743   6.048   7.259   4.831 -0.9103  0.3988  0.5533
15015SOL    HW145744   6.135   7.252   4.790 -1.9256 -1.3262 -1.4989
15015SOL    HW245745   6.033   7.353   4.840 -0.1820  0.8601 -2.1790
15016SOL     OW45746   7.843   5.700   0.781 -0.2958 -0.1225 -0.0869
15016SOL    HW145747   7.932   5.725   0.756  0.3934 -0.3131  1.9621
15016SOL    HW245748   7.788   5.768   0.742  0.6891 -0.1160 -1.5638
15017SOL     OW45749   0.544   3.129   7.863  0.1282 -0.4812  0.4255
15017SOL    HW145750   0.614   3.070   7.834  1.3310  0.4233  1.3730
15017SOL    HW245751   0.465   3.074   7.865  0.9465 -1.7088  0.0076
15018SOL     OW45752   4.553   4.320   1.345  0.3706  0.1924 -0.1879
15018SOL    HW145753   4.513   4.282   1.423  1.1372 -0.5242 -0.1381
15018SOL    HW245754   4.578   4.246   1.291 -0.7450  0.6840 -1.4493
15019SOL     OW45755   1.622   3.691   7.973 -0.2714 -0.2859  0.2216
15019SOL    HW145756   1.664   3.756   8.029 -0.1318  0.0121 -0.2288
15019SOL    HW245757   1.687   3.622   7.962 -0.7060 -0.9344  1.3922
15020SOL     OW45758   0.294   0.502   3.668  0.4223  0.0460 -0.0635
15020SOL    HW145759   0.244   0.498   3.586  0.3113 -0.0462  0.0081
15020SOL    HW245760   0.270   0.422   3.714 -1.6677  1.3201  1.2772
15021SOL     OW45761   0.396   4.236   7.390  0.4254 -0.2669 -0.0078
15021SOL    HW145762   0.471   4.223   7.448 -0.5334 -2.6508  0.8437
15021SOL    HW245763   0.321   4.243   7.449 -0.2246  0.4086 -0.8927
15022SOL     OW45764   0.020   0.995   6.475 -0.2229 -0.0044  0.2356
15022SOL    HW145765   0.095   1.022   6.421 -0.2529  1.0899  0.7198
15022SOL    HW245766  -0.055   1.038   6.435 -0.6099 -1.0927 -0.2409
15023SOL     OW45767   5.157   2.146   2.584 -0.0396 -0.2669  0.2503
15023SOL    HW145768   5.238   2.103   2.610  0.2863  1.0743  1.6452
15023SOL    HW245769   5.089   2.080   2.595  0.9951 -1.9838 -2.6266
15024SOL     OW45770   3.327   3.780   0.449  0.3442 -0.4228 -0.7938
15024SOL    HW145771   3.302   3.865   0.484 -1.1349 -0.2042 -2.2910
15024SOL    HW245772   3.246   3.742   0.415  1.0249 -2.2976 -0.4670
15025SOL     OW45773   1.983   0.028   5.562 -0.6630 -0.3789 -0.4131
15025SOL    HW145774   1.975   0.113   5.518 -1.0093  0.1247  0.6082
15025SOL    HW245775   1.986  -0.035   5.490 -0.5216  0.4792 -1.1861
15026SOL     OW45776   7.687   4.278   6.146  0.0864  0.1862  0.2213
15026SOL    HW145777   7.751   4.210   6.123 -1.0829 -0.9632  0.2203
15026SOL    HW245778   7.739   4.351   6.178  1.4888 -0.0763 -1.3417
15027SOL     OW45779   2.404   1.075   6.062  0.3943 -0.3265 -0.5006
15027SOL    HW145780   2.340   1.105   5.999  0.7915 -0.9723 -1.2294
15027SOL    HW245781   2.477   1.137   6.055 -0.6016  1.1398  1.2004
15028SOL     OW45782   6.271   7.101   3.745  0.1772 -0.3570 -0.5223
15028SOL    HW145783   6.354   7.110   3.698  0.4612  0.3288  0.0991
15028SOL    HW245784   6.242   7.191   3.760 -1.4874 -0.5579 -2.1235
15029SOL     OW45785   4.187   6.658   1.768 -0.1226 -0.4686  0.2651
15029SOL    HW145786   4.114   6.675   1.709 -0.6762 -0.2581  0.9971
15029SOL    HW245787   4.158   6.692   1.853  0.3846 -1.3970  0.8240
15030SOL     OW45788   0.199   1.882   1.449  0.6328 -0.0956 -0.3408
15030SOL    HW145789   0.111   1.916   1.433  0.5997 -0.5013 -1.0861
15030SOL    HW245790   0.201   1.798   1.404  1.1096 -0.5227  0.4423
15031SOL     OW45791   2.242   7.891   7.539  0.0255 -0.4233 -0.0514
15031SOL    HW145792   2.332   7.921   7.551  0.1829 -0.5505 -0.8541
15031SOL    HW245793   2.229   7.827   7.609  0.4518 -0.1788  0.2573
15032SOL     OW45794   3.372   2.844   0.822  0.2530  0.4436  0.2087
15032SOL    HW145795   3.372   2.937   0.843 -0.1077  0.6487 -0.6373
15032SOL    HW245796   3.463   2.823   0.804  0.4469  0.4471  1.1632
15033SOL     OW45797   6.137   0.226   7.506 -0.4370 -0.0182 -0.1186
15033SOL    HW145798   6.174   0.139   7.494 -0.5919 -0.1711  0.4727
15033SOL    HW245799   6.091   0.245   7.424  0.8396  0.1292 -0.8312
15034SOL     OW45800   6.267   6.037   4.444  0.2408  0.2933  0.2006
15034SOL    HW145801   6.203   6.104   4.422 -1.5517 -1.0291  1.1021
15034SOL    HW245802   6.221   5.954   4.430  1.7386 -0.7078  0.9354
15035SOL     OW45803   7.030   3.698   7.769  0.1251 -0.0204  0.4615
15035SOL    HW145804   6.953   3.749   7.745 -0.7413 -2.0117 -1.4086
15035SOL    HW245805   7.099   3.728   7.708  0.0098 -0.1120  0.2837
15036SOL     OW45806   6.488   2.791   1.139 -0.4140  0.1927  0.3763
15036SOL    HW145807   6.406   2.755   1.104 -0.6374  1.0273  0.0130
15036SOL    HW245808   6.465   2.816   1.229  0.2233 -2.1710  1.2859
15037SOL     OW45809   1.936   4.215   3.368 -0.2627  0.2066 -0.0232
15037SOL    HW145810   1.943   4.136   3.315  0.1987  1.2095 -1.5121
15037SOL    HW245811   1.872   4.192   3.436  0.6272 -1.7691  0.2198
15038SOL     OW45812   0.773   4.220   4.424  0.9084 -0.3216 -0.2590
15038SOL    HW145813   0.838   4.261   4.367  0.2921 -0.9555 -1.4455
15038SOL    HW245814   0.791   4.126   4.417  0.2587 -0.4613 -0.0933
15039SOL     OW45815   2.306   4.909   7.570  0.2171  0.1677 -0.0204
15039SOL    HW145816   2.212   4.890   7.572  0.2964 -0.2347 -0.0437
15039SOL    HW245817   2.311   5.005   7.566 -0.1981  0.1493 -1.2277
15040SOL     OW45818   5.118   5.384   3.641  0.5016 -0.4195 -0.3342
15040SOL    HW145819   5.116   5.290   3.625 -0.2941 -0.2954 -1.0066
15040SOL    HW245820   5.180   5.394   3.714 -0.2246 -1.5618  0.4715
15041SOL     OW45821   2.849   6.552   6.245  0.7058  0.0474 -0.6361
15041SOL    HW145822   2.790   6.533   6.172 -0.6216 -0.7714  0.6019
15041SOL    HW245823   2.881   6.640   6.227  0.1232  0.0072 -2.0154
15042SOL     OW45824   6.134   2.982   1.809 -0.0859  0.2854  0.1017
15042SOL    HW145825   6.063   2.975   1.744 -0.8992  2.7331  0.5963
15042SOL    HW245826   6.123   2.906   1.865 -1.8611  0.1777 -0.3265
15043SOL     OW45827   0.981   3.422   5.607 -0.1243 -0.0859 -0.2894
15043SOL    HW145828   1.028   3.394   5.686 -1.2994 -0.7608  0.2051
15043SOL    HW245829   0.921   3.349   5.588 -1.8648  1.2483 -0.1429
15044SOL     OW45830   0.854   1.443   7.399 -0.0938  0.0322  0.1986
15044SOL    HW145831   0.827   1.417   7.311  1.4122 -3.1477  0.5574
15044SOL    HW245832   0.869   1.537   7.393 -1.9454  0.2528 -2.3802
15045SOL     OW45833   0.782   5.943   2.965  0.0111 -0.6896 -0.2238
15045SOL    HW145834   0.778   5.859   3.011  1.0354 -1.2114 -1.0345
15045SOL    HW245835   0.859   5.935   2.908  2.4066  2.1710  2.2967
15046SOL     OW45836   6.199   7.958   4.747  0.2247  0.4968 -0.0345
15046SOL    HW145837   6.157   7.877   4.718  3.5838 -1.0514 -1.0855
15046SOL    HW245838   6.162   7.975   4.834 -1.6339 -1.3041 -0.3973
15047SOL     OW45839   1.107   0.096   1.945 -0.1367 -0.7002  0.3909
15047SOL    HW145840   1.157   0.064   1.870 -0.2829  1.0197 -0.5023
15047SOL    HW245841   1.016   0.075   1.924 -0.1881 -0.1296  0.0122
15048SOL     OW45842   3.325   1.224   6.293 -0.2538  0.2293 -0.6091
15048SOL    HW145843   3.355   1.170   6.220  0.0696  0.7120 -0.8410
15048SOL    HW245844   3.309   1.163   6.364 -0.9154 -0.2939 -1.1939
15049SOL     OW45845   3.791   4.545   4.988  0.1331  0.4398 -0.4497
15049SOL    HW145846   3.823   4.484   5.054  1.8722 -0.4874 -2.0169
15049SOL    HW245847   3.718   4.500   4.946 -0.1541  0.4821  0.0093
15050SOL     OW45848   4.268   1.913   7.049 -0.0195  0.4169  0.0799
15050SOL    HW145849   4.328   1.842   7.072 -1.3544 -0.3868  1.2029
15050SOL    HW245850   4.238   1.947   7.134 -1.7928  0.2416 -0.4493
15051SOL     OW45851   6.398   7.374   6.368 -0.0451  0.0109  0.6617
15051SOL    HW145852   6.485   7.415   6.361  1.7698 -3.5657 -0.4122
15051SOL    HW245853   6.394   7.342   6.458 -0.9635  1.3929  1.1493
15052SOL     OW45854   0.864   7.385   0.481  0.7383 -0.0722 -0.0512
15052SOL    HW145855   0.857   7.290   0.486  4.2582 -0.4086  0.3559
15052SOL    HW245856   0.813   7.417   0.556  0.1378 -1.6475  0.2381
15053SOL     OW45857   7.193   1.235   2.785  0.3120  0.0443  0.0083
15053SOL    HW145858   7.221   1.217   2.875 -0.0692 -2.1880 -0.2658
15053SOL    HW245859   7.273   1.225   2.733  0.2512 -0.0711 -0.0627
15054SOL     OW45860   0.390   5.297   7.805 -0.2472  0.0844 -0.1002
15054SOL    HW145861   0.399   5.367   7.869  0.3412  0.4841 -0.6067
15054SOL    HW245862   0.415   5.218   7.852 -1.6129  0.0812  0.6841
15055SOL     OW45863   1.729   6.202   2.581  0.3977  0.0766  0.0399
15055SOL    HW145864   1.665   6.131   2.580  0.0845  0.3626 -0.5741
15055SOL    HW245865   1.725   6.239   2.493 -0.2836  1.6148  0.6775
15056SOL     OW45866   1.253   1.448   4.515  0.5768 -0.4894 -0.4121
15056SOL    HW145867   1.295   1.517   4.463 -0.9933  1.4561  0.7971
15056SOL    HW245868   1.284   1.463   4.604  0.9091 -1.9598 -0.2479
15057SOL     OW45869   7.967   2.849   2.383 -0.6252 -0.2419 -0.7044
15057SOL    HW145870   7.907   2.830   2.312  0.7527 -0.2962 -1.9100
15057SOL    HW245871   7.993   2.940   2.368  0.0736 -0.4154 -0.5912
15058SOL     OW45872   4.147   4.304   7.808 -0.2874  0.3826  0.4932
15058SOL    HW145873   4.196   4.286   7.728  0.3553  0.2594  0.9093
15058SOL    HW245874   4.055   4.291   7.783  0.0112 -2.3171  0.4130
15059SOL     OW45875   1.165   3.916   2.763  0.3988  0.1816  0.1355
15059SOL    HW145876   1.181   3.965   2.682  2.2295 -0.1588  0.2577
15059SOL    HW245877   1.190   3.826   2.743 -0.1463 -0.1296  0.7819
15060SOL     OW45878   2.848   1.943   3.810  0.5384  0.2110 -0.5822
15060SOL    HW145879   2.797   1.869   3.777  1.1129 -0.8645  0.8300
15060SOL    HW245880   2.786   1.993   3.864  0.1826  0.7163 -1.4380
15061SOL     OW45881   5.810   4.901   0.576  0.0948  0.1359  0.7182
15061SOL    HW145882   5.724   4.880   0.540 -0.4434  1.6754  1.0184
15061SOL    HW245883   5.863   4.927   0.501  0.6385 -1.6974  0.4014
15062SOL     OW45884   5.905   3.303   1.775  0.1437  0.0910 -0.0585
15062SOL    HW145885   5.928   3.280   1.685 -0.7203  0.5430 -0.4000
15062SOL    HW245886   5.984   3.283   1.825  1.4306  1.8805 -1.2438
15063SOL     OW45887   6.429   2.718   5.608  0.3673  0.5761 -0.9521
15063SOL    HW145888   6.496   2.699   5.542  0.5446  0.4085 -0.7238
15063SOL    HW245889   6.346   2.708   5.561  0.3758 -1.9520 -0.5998
15064SOL     OW45890   3.350   2.197   4.186  0.0323  0.0457 -0.0891
15064SOL    HW145891   3.431   2.221   4.231 -1.7188  0.7792  2.9464
15064SOL    HW245892   3.285   2.259   4.219 -2.6011 -2.8371  0.5931
15065SOL     OW45893   5.688   7.389   4.288  0.3857  0.1491 -0.2217
15065SOL    HW145894   5.645   7.344   4.360  0.9249  0.7048  0.4697
15065SOL    HW245895   5.743   7.455   4.331 -1.3848  2.4191 -1.2158
15066SOL     OW45896   0.889   5.259   3.675  0.1265 -0.4944  0.0602
15066SOL    HW145897   0.927   5.171   3.665 -0.7467 -0.8402 -0.2842
15066SOL    HW245898   0.795   5.245   3.671 -0.0595  0.3270  1.1384
15067SOL     OW45899   5.815   0.464   7.327 -0.3022 -0.1616 -0.0995
15067SOL    HW145900   5.753   0.397   7.354  1.8529 -1.9830  0.7283
15067SOL    HW245901   5.823   0.522   7.403 -0.6328 -0.2011 -0.0369
15068SOL     OW45902   6.461   6.303   6.299  0.2473 -0.2760 -0.1120
15068SOL    HW145903   6.458   6.308   6.395  0.8104  0.7912 -0.1326
15068SOL    HW245904   6.520   6.230   6.281  0.4912 -0.1996  0.3596
15069SOL     OW45905   3.046   1.118   2.137 -0.3463 -0.6085  0.3799
15069SOL    HW145906   3.069   1.158   2.053 -2.0053 -1.1338 -0.3714
15069SOL    HW245907   2.952   1.101   2.130  0.0511 -3.6916  1.0305
15070SOL     OW45908   3.207   0.259   0.885 -0.1929  0.3362  0.0834
15070SOL    HW145909   3.212   0.212   0.802 -0.0148  0.9219 -0.2455
15070SOL    HW245910   3.127   0.227   0.926 -0.1947 -0.0781 -0.2357
15071SOL     OW45911   5.420   2.502   7.201 -0.2580  0.0099 -0.2711
15071SOL    HW145912   5.363   2.425   7.208  1.2805 -1.0166  2.4351
15071SOL    HW245913   5.493   2.472   7.148 -0.6557  0.3141 -1.0088
15072SOL     OW45914   6.184   4.945   4.754  0.0996  0.0022  0.1269
15072SOL    HW145915   6.264   4.974   4.798 -0.9055  0.2564  1.8974
15072SOL    HW245916   6.144   5.026   4.721  0.7675 -0.1715 -1.1749
15073SOL     OW45917   2.868   7.528   5.539  0.4682  0.3623 -0.6659
15073SOL    HW145918   2.849   7.461   5.473  0.9352  1.1614 -1.6236
15073SOL    HW245919   2.946   7.496   5.584 -2.1804 -2.4090  2.5687
15074SOL     OW45920   1.635   4.644   2.632 -0.2394  0.6228  0.7565
15074SOL    HW145921   1.644   4.557   2.671 -2.4167  0.3181  0.7286
15074SOL    HW245922   1.626   4.628   2.538 -1.1558  0.8118  0.8007
15075SOL     OW45923   3.921   2.654   2.682  0.0316 -0.0808  0.1707
15075SOL    HW145924   3.875   2.734   2.708  0.3269 -0.5064  2.1537
15075SOL    HW245925   3.910   2.595   2.757  3.3573 -0.3894  0.5486
15076SOL     OW45926   4.505   4.090   0.253  0.2642 -0.3369 -0.3493
15076SOL    HW145927   4.528   4.182   0.268 -2.6571  0.3982  0.0665
15076SOL    HW245928   4.523   4.076   0.159  1.7174  0.2941 -0.1931
15077SOL     OW45929   0.526   2.701   2.857  0.4434  0.3472 -0.2525
15077SOL    HW145930   0.499   2.630   2.798  0.8648 -1.1797  1.3113
15077SOL    HW245931   0.604   2.738   2.815  0.1193  0.0257 -1.1812
15078SOL     OW45932   0.518   6.488   2.124 -0.6832 -0.0426 -0.1948
15078SOL    HW145933   0.445   6.428   2.113 -0.4712 -0.0432 -1.9040
15078SOL    HW245934   0.596   6.435   2.104 -0.4808  0.7214 -1.5364
15079SOL     OW45935   2.855   2.253   4.588  0.0905 -0.8080  0.2334
15079SOL    HW145936   2.761   2.238   4.594  0.1604 -1.5807 -0.3484
15079SOL    HW245937   2.864   2.330   4.532 -0.2732  1.3547  2.9624
15080SOL     OW45938   2.142   0.757   6.170 -0.6332 -0.4013 -0.0610
15080SOL    HW145939   2.217   0.806   6.204 -0.3126 -1.2230  0.4370
15080SOL    HW245940   2.154   0.668   6.202 -1.5166 -0.6853 -0.4690
15081SOL     OW45941   5.663   5.080   7.710 -0.5558  0.4614 -0.2262
15081SOL    HW145942   5.660   5.020   7.636 -0.4638  1.2530 -0.8923
15081SOL    HW245943   5.576   5.120   7.712 -1.0006 -0.4855  0.9137
15082SOL     OW45944   1.834   3.603   3.608  1.1329 -0.0836 -0.2444
15082SOL    HW145945   1.928   3.616   3.600  1.4815 -1.0502  1.7938
15082SOL    HW245946   1.820   3.584   3.701 -0.8850 -1.4215 -0.7637
15083SOL     OW45947   3.234   5.615   4.050  0.3007 -0.3408  0.6884
15083SOL    HW145948   3.278   5.642   3.969  1.0839 -2.7885  0.2438
15083SOL    HW245949   3.169   5.684   4.065 -0.1846 -0.0146 -2.2715
15084SOL     OW45950   2.694   2.599   7.194  0.0835 -0.2028 -0.7241
15084SOL    HW145951   2.670   2.561   7.109  1.2194 -1.7340 -0.4170
15084SOL    HW245952   2.611   2.619   7.236 -0.5059  1.7138 -2.6513
15085SOL     OW45953   2.119   7.168   1.415 -0.5588 -0.1449 -0.0550
15085SOL    HW145954   2.106   7.074   1.425  0.5371 -0.1849  1.3961
15085SOL    HW245955   2.212   7.181   1.434 -0.0145  0.9112 -2.9645
15086SOL     OW45956   2.009   6.160   6.211  0.1232 -0.0782 -0.3345
15086SOL    HW145957   2.031   6.190   6.123  0.5819 -1.3775 -0.6888
15086SOL    HW245958   1.964   6.234   6.252  0.3870  0.7250 -1.4726
15087SOL     OW45959   3.020   4.222   6.413  0.0717  0.0730  0.2522
15087SOL    HW145960   3.047   4.189   6.327 -1.9401  0.0593 -0.4417
15087SOL    HW245961   2.942   4.171   6.434 -2.2482  3.1740 -0.1367
15088SOL     OW45962   3.587   3.283   2.869 -0.3391  0.0211  0.6858
15088SOL    HW145963   3.675   3.299   2.834  0.5381 -4.1998  0.3422
15088SOL    HW245964   3.602   3.231   2.948 -2.5321  2.7523  3.1058
15089SOL     OW45965   6.174   6.661   7.269  0.1527 -0.3480  0.2610
15089SOL    HW145966   6.220   6.660   7.185  1.1268 -0.4709  0.7796
15089SOL    HW245967   6.238   6.696   7.331 -0.9315  0.8535  0.7514
15090SOL     OW45968   2.056   1.840   1.724  0.1322 -0.3253  0.3169
15090SOL    HW145969   2.055   1.871   1.814  2.9849 -2.5743  1.2610
15090SOL    HW245970   1.985   1.776   1.720 -0.9144  0.7821  0.4860
15091SOL     OW45971   0.428   4.720   0.662 -0.5597 -0.4683  0.5853
15091SOL    HW145972   0.455   4.794   0.716 -1.1152 -0.2187  0.5244
15091SOL    HW245973   0.407   4.759   0.577  0.4472 -0.8714  0.1273
15092SOL     OW45974   3.387   3.903   7.887  0.2915 -0.1924  0.0373
15092SOL    HW145975   3.437   3.841   7.940 -0.2977 -0.2598  0.5266
15092SOL    HW245976   3.302   3.908   7.931 -1.5543 -2.9929 -2.8403
15093SOL     OW45977   2.454   2.112   0.095 -0.1012  0.2514 -0.2021
15093SOL    HW145978   2.511   2.035   0.089  0.2508  0.6243 -2.2999
15093SOL    HW245979   2.366   2.077   0.083 -0.0873 -0.0015  0.4008
15094SOL     OW45980   6.560   0.967   7.963  0.4465 -0.1125  0.4081
15094SOL    HW145981   6.467   0.982   7.981  0.0436 -2.1087  0.2084
15094SOL    HW245982   6.601   1.052   7.978 -1.3522  0.7314  0.8416
15095SOL     OW45983   5.678   0.958   2.437 -0.7410  0.1069  0.2096
15095SOL    HW145984   5.669   0.988   2.347 -1.6346  0.7535  0.4970
15095SOL    HW245985   5.729   1.027   2.480  0.9387 -0.8756 -0.1034
15096SOL     OW45986   4.022   6.555   0.251 -0.1146 -0.1306 -0.1180
15096SOL    HW145987   4.019   6.468   0.290  0.5564 -0.9093 -1.7339
15096SOL    HW245988   4.089   6.602   0.301 -0.2767 -0.6260  0.5717
15097SOL     OW45989   1.752   0.543   0.915  0.2388 -0.0073 -0.1174
15097SOL    HW145990   1.797   0.460   0.931 -0.1423 -0.1387  0.3080
15097SOL    HW245991   1.680   0.520   0.857  0.9316  0.2677 -1.1033
15098SOL     OW45992   3.691   2.047   0.444 -0.3426 -0.0592  0.1075
15098SOL    HW145993   3.677   2.134   0.408  3.4502  1.3483  1.5106
15098SOL    HW245994   3.619   2.033   0.505 -1.2121  1.9115 -0.4099
15099SOL     OW45995   6.545   6.550   5.881  0.1530 -0.2710 -0.2247
15099SOL    HW145996   6.526   6.548   5.975  2.0673 -0.4547  0.2072
15099SOL    HW245997   6.474   6.501   5.840 -0.5197 -0.4901  1.1628
15100SOL     OW45998   0.968   7.716   3.100 -0.1016  0.4909  0.1184
15100SOL    HW145999   0.911   7.698   3.025  0.0177  2.7302 -0.5804
15100SOL    HW246000   1.055   7.725   3.062  0.1672  0.4356  0.7187
15101SOL     OW46001   4.557   2.335   6.590  0.2737  0.0150  0.2192
15101SOL    HW146002   4.543   2.393   6.664  1.9029 -0.9136  1.3179
15101SOL    HW246003   4.502   2.258   6.607 -0.8025  0.5926 -0.5269
15102SOL     OW46004   2.945   2.422   4.047  0.3276  0.1218  0.5650
15102SOL    HW146005   3.008   2.482   4.087 -0.4827  0.3738  1.4910
15102SOL    HW246006   2.992   2.385   3.972  1.6985  0.0362  1.4249
15103SOL     OW46007   5.793   1.942   0.125  0.2524 -0.0806  0.1389
15103SOL    HW146008   5.784   2.027   0.082  0.3277  0.3858  1.0330
15103SOL    HW246009   5.703   1.915   0.143  0.2250  1.7705  3.5925
15104SOL     OW46010   4.864   5.029   0.484  0.2511 -0.7090 -0.1424
15104SOL    HW146011   4.869   4.946   0.437 -0.3693 -0.6972 -0.2344
15104SOL    HW246012   4.898   5.094   0.423  1.9509 -1.0540  0.3738
15105SOL     OW46013   5.470   2.152   3.982 -0.0423 -0.0816 -0.5643
15105SOL    HW146014   5.473   2.232   3.929 -1.6563  0.6791  0.3919
15105SOL    HW246015   5.488   2.182   4.071 -0.8452 -0.7284 -0.1710
15106SOL     OW46016   0.358   3.155   1.432 -1.0788 -0.8600  0.5608
15106SOL    HW146017   0.347   3.213   1.508 -1.1999 -0.7002  0.4202
15106SOL    HW246018   0.286   3.178   1.373 -0.4132 -0.2918 -0.0476
15107SOL     OW46019   7.071   4.250   0.515 -0.3919 -0.2367  0.6909
15107SOL    HW146020   7.149   4.272   0.566 -0.4963  0.0377  0.7355
15107SOL    HW246021   7.071   4.155   0.511 -1.2144 -0.3563  2.5004
15108SOL     OW46022   4.071   2.475   5.126  0.1754 -0.3173 -0.0973
15108SOL    HW146023   4.043   2.478   5.218  1.1248  0.7398  0.1717
15108SOL    HW246024   4.026   2.549   5.085  2.5151  1.4373  0.3479
15109SOL     OW46025   1.128   3.238   6.710 -0.3522 -0.3446  0.0993
15109SOL    HW146026   1.041   3.216   6.746 -0.3152 -0.0591  0.3664
15109SOL    HW246027   1.140   3.330   6.732  0.5164 -0.6776  1.0947
15110SOL     OW46028   3.879   6.521   0.903  0.1271 -0.2126  0.0281
15110SOL    HW146029   3.794   6.502   0.942 -0.6307 -0.8269 -1.8530
15110SOL    HW246030   3.934   6.545   0.978 -1.1164 -1.7955  1.5430
15111SOL     OW46031   5.700   7.265   4.768 -0.3954 -0.5790  0.3311
15111SOL    HW146032   5.672   7.356   4.776 -2.0516 -1.0455  0.1943
15111SOL    HW246033   5.674   7.225   4.852 -1.8787 -1.4497 -0.5055
15112SOL     OW46034   6.108   4.215   5.315  0.1598  0.5506  0.1900
15112SOL    HW146035   6.033   4.273   5.335 -0.2663 -1.1695  4.9133
15112SOL    HW246036   6.068   4.134   5.285  0.4647  0.9516 -1.3765
15113SOL     OW46037   0.324   4.603   6.934 -0.2036 -0.1254  0.4551
15113SOL    HW146038   0.260   4.648   6.989  0.4053  1.9932 -0.4783
15113SOL    HW246039   0.279   4.590   6.851  1.2313  3.8941 -1.2013
15114SOL     OW46040   2.533   6.485   2.388  0.2697  0.0825 -0.1765
15114SOL    HW146041   2.462   6.421   2.386  1.0311 -0.7688 -0.6586
15114SOL    HW246042   2.613   6.433   2.395  0.9394  0.9352 -1.0794
15115SOL     OW46043   7.725   0.502   7.402 -0.2064  0.1540  0.0722
15115SOL    HW146044   7.641   0.540   7.376 -0.3387 -0.1792  0.0200
15115SOL    HW246045   7.710   0.468   7.490 -0.2563 -0.3304 -0.1257
15116SOL     OW46046   7.120   3.064   1.986 -0.1957  0.2170 -0.1584
15116SOL    HW146047   7.121   3.123   2.062 -0.0125 -0.4915  0.4064
15116SOL    HW246048   7.207   3.071   1.948  0.0169 -0.1141  0.2558
15117SOL     OW46049   2.591   2.598   1.385  0.7354  0.3160 -0.9583
15117SOL    HW146050   2.507   2.577   1.427  0.0823  0.7171 -2.0212
15117SOL    HW246051   2.637   2.652   1.449  0.2335 -0.0073 -0.3123
15118SOL     OW46052   4.874   5.777   2.036  0.1196 -0.1933  0.1876
15118SOL    HW146053   4.919   5.754   2.117  0.0836 -1.7570 -0.2187
15118SOL    HW246054   4.909   5.863   2.013  1.4028 -0.4836  0.9506
15119SOL     OW46055   0.582   1.201   3.638  0.5240 -0.5976  0.0768
15119SOL    HW146056   0.586   1.134   3.570  0.2410  0.3440 -0.9023
15119SOL    HW246057   0.669   1.200   3.677  1.4354  0.2770 -1.7623
15120SOL     OW46058   0.974   1.486   1.922 -0.2055 -0.3993  0.4944
15120SOL    HW146059   0.928   1.486   2.006 -2.1069 -0.8213 -0.5144
15120SOL    HW246060   1.022   1.403   1.921  0.1978 -0.1882  1.3374
15121SOL     OW46061   0.647   4.192   7.585 -0.1812 -0.4850 -0.1619
15121SOL    HW146062   0.738   4.176   7.609  0.2784 -1.7146 -2.3665
15121SOL    HW246063   0.600   4.117   7.621 -0.4673  0.4634  1.5101
15122SOL     OW46064   0.365   2.507   7.317 -0.2759  0.6330  0.9444
15122SOL    HW146065   0.294   2.495   7.254 -1.3059  0.7723  2.0496
15122SOL    HW246066   0.443   2.474   7.272 -1.2759 -0.8659  0.2338
15123SOL     OW46067   4.541   1.574   6.349  0.3123 -0.2396  0.2225
15123SOL    HW146068   4.572   1.662   6.370  0.1619 -0.6219  2.2646
15123SOL    HW246069   4.572   1.558   6.260  0.3662  1.8541 -0.1824
15124SOL     OW46070   1.917   3.916   1.141 -0.5146 -0.3420 -0.1831
15124SOL    HW146071   1.924   3.943   1.233 -1.8836 -0.1637 -0.1121
15124SOL    HW246072   1.837   3.863   1.138  0.8813 -2.5662 -0.7646
15125SOL     OW46073   3.682   2.491   1.633 -0.1620  0.4377 -0.0199
15125SOL    HW146074   3.611   2.429   1.650  0.5096 -0.1686  0.6621
15125SOL    HW246075   3.737   2.446   1.569  0.8305 -0.0908  1.1727
15126SOL     OW46076   7.662   0.956   2.704 -1.0186 -0.0477 -0.5605
15126SOL    HW146077   7.745   0.936   2.749 -0.6287  2.6069  0.0500
15126SOL    HW246078   7.597   0.904   2.752 -0.0873 -0.1207  0.7084
15127SOL     OW46079   2.652   6.942   2.464 -0.6623 -0.3632 -0.3311
15127SOL    HW146080   2.638   6.977   2.376  1.1653  0.9428 -0.1646
15127SOL    HW246081   2.661   6.848   2.452 -1.1539 -0.2813 -1.4290
15128SOL     OW46082   4.747   6.784   1.822  0.3033  0.1651  0.1496
15128SOL    HW146083   4.651   6.778   1.820  0.3813 -1.4906 -0.1860
15128SOL    HW246084   4.767   6.866   1.777 -0.9695  0.7488  0.6088
15129SOL     OW46085   7.581   7.871   7.013 -0.0332 -0.6696  0.2833
15129SOL    HW146086   7.489   7.894   6.997 -0.0762 -1.6968 -1.2111
15129SOL    HW246087   7.618   7.947   7.058 -1.2438  0.3925 -0.4638
15130SOL     OW46088   5.834   0.119   2.856 -0.7057 -0.0703  0.1871
15130SOL    HW146089   5.792   0.035   2.875  0.2100 -0.6730 -0.3573
15130SOL    HW246090   5.761   0.178   2.837 -1.4392 -0.3657  1.9182
15131SOL     OW46091   4.397   0.384   7.390 -0.6075  0.1251 -0.1385
15131SOL    HW146092   4.386   0.306   7.336  0.0786  0.1294 -0.2887
15131SOL    HW246093   4.357   0.360   7.474  0.3234 -0.6870  0.0937
15132SOL     OW46094   0.828   6.194   5.484  0.2101  0.6627  0.1171
15132SOL    HW146095   0.820   6.227   5.573 -3.1331  1.1802 -0.2294
15132SOL    HW246096   0.901   6.133   5.487  3.4307  4.2127  1.9626
15133SOL     OW46097   7.403   6.688   3.149  0.0499  0.2859 -0.2707
15133SOL    HW146098   7.330   6.690   3.210  0.4589  0.4247  0.2205
15133SOL    HW246099   7.398   6.771   3.102  0.0600  0.4216 -0.0339
15134SOL     OW46100   2.480   5.718   2.505  0.2813  0.5166  0.0854
15134SOL    HW146101   2.472   5.624   2.522  0.3531  0.6433  0.8967
15134SOL    HW246102   2.394   5.744   2.474  0.6789 -0.0852 -1.6334
15135SOL     OW46103   2.469   6.525   7.557 -0.4866  0.0641  0.4470
15135SOL    HW146104   2.446   6.514   7.465 -0.1479  2.2630  0.0454
15135SOL    HW246105   2.452   6.618   7.575 -0.2406 -0.2431  2.5222
15136SOL     OW46106   6.697   1.126   4.784  0.6900  0.5048 -0.1997
15136SOL    HW146107   6.626   1.068   4.756  1.2444 -1.0864  1.5306
15136SOL    HW246108   6.742   1.149   4.703 -1.1130  0.6732 -1.2121
15137SOL     OW46109   7.695   1.526   6.139 -0.1077  0.3042 -0.0169
15137SOL    HW146110   7.640   1.557   6.211 -2.9153  0.1892 -1.9262
15137SOL    HW246111   7.709   1.604   6.085  1.1069  0.1933  0.1235
15138SOL     OW46112   2.304   3.585   6.079  0.2234  0.7358  0.1663
15138SOL    HW146113   2.245   3.562   6.007  0.5048  0.1954  0.0965
15138SOL    HW246114   2.249   3.629   6.143 -0.4473 -0.5025  0.4849
15139SOL     OW46115   2.946   1.417   2.962  0.4164  0.1620  0.0062
15139SOL    HW146116   2.925   1.338   3.012  0.5965  0.5446  0.6995
15139SOL    HW246117   2.956   1.486   3.029 -1.4124  1.1623 -0.6575
15140SOL     OW46118   6.043   1.703   3.208 -0.1591 -0.1248  0.3000
15140SOL    HW146119   6.032   1.725   3.300 -2.5433 -0.7891  0.2583
15140SOL    HW246120   6.076   1.783   3.167 -1.3478  0.9488  1.3528
15141SOL     OW46121   3.168   5.747   6.920 -0.0427 -0.1847  0.3161
15141SOL    HW146122   3.254   5.775   6.889  1.3699 -2.2312  2.1436
15141SOL    HW246123   3.111   5.823   6.903  1.5950  0.5370 -2.7486
15142SOL     OW46124   1.365   4.341   0.396  0.4022  0.1709  0.1854
15142SOL    HW146125   1.358   4.283   0.320  1.4003  0.6967 -0.3255
15142SOL    HW246126   1.387   4.282   0.468  0.0164 -0.2586 -0.0384
15143SOL     OW46127   5.919   2.086   4.031 -0.1827 -0.0329 -0.3298
15143SOL    HW146128   6.004   2.109   4.069  0.0955 -0.8695 -0.4324
15143SOL    HW246129   5.873   2.170   4.024  0.9991  0.5874 -1.1961
15144SOL     OW46130   6.690   5.836   3.878  0.0342  0.3039 -0.2523
15144SOL    HW146131   6.721   5.749   3.904  0.0855  0.1007 -0.9886
15144SOL    HW246132   6.700   5.889   3.957  1.6701  0.0868 -0.2755
15145SOL     OW46133   2.461   7.186   5.155  0.0118 -0.0968  0.2092
15145SOL    HW146134   2.432   7.151   5.071 -1.1717 -0.5223  0.7677
15145SOL    HW246135   2.423   7.274   5.160 -0.4967 -0.3330  0.5843
15146SOL     OW46136   2.054   3.392   6.636  0.0418  0.7020  0.4129
15146SOL    HW146137   1.962   3.367   6.641  0.3824 -0.5928  0.7293
15146SOL    HW246138   2.074   3.394   6.543 -0.0415 -0.1239  0.3701
15147SOL     OW46139   6.030   2.528   4.311  0.1396 -0.1363 -0.1605
15147SOL    HW146140   6.079   2.610   4.311 -1.3202  0.7714 -0.2460
15147SOL    HW246141   5.974   2.533   4.234 -0.6763 -0.7568  0.3616
15148SOL     OW46142   6.443   1.158   4.386  0.8070  0.0953 -0.1939
15148SOL    HW146143   6.386   1.094   4.427  0.2244  0.3708 -0.5590
15148SOL    HW246144   6.443   1.134   4.293  0.7511  0.4960 -0.3002
15149SOL     OW46145   0.960   2.519   1.081 -0.9172 -0.3875  0.2376
15149SOL    HW146146   0.931   2.609   1.072  0.6768  0.2191  0.7604
15149SOL    HW246147   1.006   2.517   1.165 -0.1753 -1.4554 -0.1725
15150SOL     OW46148   6.488   0.332   6.869 -0.0828  0.0834 -0.1212
15150SOL    HW146149   6.564   0.386   6.888  0.8165 -1.2616  0.2405
15150SOL    HW246150   6.507   0.290   6.785  0.1801 -1.2429  0.5739
15151SOL     OW46151   4.749   6.833   6.413  0.0247 -0.1432 -0.0984
15151SOL    HW146152   4.677   6.771   6.413  1.8847 -2.4461 -0.7673
15151SOL    HW246153   4.816   6.792   6.467  1.7933  0.6656 -1.5512
15152SOL     OW46154   6.920   5.180   3.450  0.1141 -0.5466 -1.0113
15152SOL    HW146155   6.926   5.275   3.459 -0.6421 -0.6328  0.7820
15152SOL    HW246156   7.011   5.150   3.448  0.3869  0.2423 -2.5635
15153SOL     OW46157   1.194   0.355   1.250  0.1890 -0.2027  0.0664
15153SOL    HW146158   1.150   0.403   1.320 -0.6458  1.3511 -1.4444
15153SOL    HW246159   1.182   0.263   1.273 -0.6551  0.2455  1.5963
15154SOL     OW46160   5.630   0.417   0.813  0.1722 -0.4802 -0.0237
15154SOL    HW146161   5.627   0.414   0.908  1.1036 -0.5471  0.0147
15154SOL    HW246162   5.699   0.480   0.793 -1.9801  1.8351 -0.6958
15155SOL     OW46163   4.267   6.430   0.793  0.2074  0.1467 -0.1147
15155SOL    HW146164   4.339   6.436   0.730 -0.5015 -1.5669 -1.1601
15155SOL    HW246165   4.199   6.488   0.757  0.3498  0.3022 -0.1367
15156SOL     OW46166   3.010   7.322   7.116 -0.2621 -0.1523  0.3102
15156SOL    HW146167   2.922   7.326   7.078  0.2218  1.3410 -0.7374
15156SOL    HW246168   3.050   7.406   7.094  1.1846 -0.5062  1.4091
15157SOL     OW46169   7.219   3.577   5.732  0.4937  0.5050 -0.2722
15157SOL    HW146170   7.225   3.481   5.732 -0.3285  0.4423  0.5686
15157SOL    HW246171   7.301   3.606   5.772  0.7692  0.1588 -0.5820
15158SOL     OW46172   1.018   7.134   4.150  0.1207 -0.5601  0.2907
15158SOL    HW146173   0.958   7.059   4.143 -2.8567  1.8110 -2.4999
15158SOL    HW246174   1.042   7.154   4.060  3.0748  0.2994  1.1624
15159SOL     OW46175   5.278   7.120   4.271  0.1337  0.3016  0.0313
15159SOL    HW146176   5.216   7.191   4.285 -0.5618  0.0966 -1.6862
15159SOL    HW246177   5.286   7.114   4.175  1.5292 -0.7763  0.1791
15160SOL     OW46178   0.358   6.237   2.392 -0.1652  0.2868 -0.5309
15160SOL    HW146179   0.422   6.167   2.408  0.4291  0.6923 -1.0647
15160SOL    HW246180   0.284   6.216   2.449 -1.0180 -2.0846 -2.3693
15161SOL     OW46181   0.837   0.031   7.935 -0.5616 -0.2164  0.2748
15161SOL    HW146182   0.862  -0.059   7.916 -0.0474 -0.1459  0.6130
15161SOL    HW246183   0.911   0.067   7.983  0.3964  1.1883 -2.1017
15162SOL     OW46184   7.902   2.545   5.201  0.0742 -0.1018  0.3689
15162SOL    HW146185   7.887   2.507   5.114  3.0727 -3.0573  0.9467
15162SOL    HW246186   7.939   2.632   5.182 -1.9014  0.4968 -1.1531
15163SOL     OW46187   5.264   0.970   3.923 -0.0485  0.6819 -0.4397
15163SOL    HW146188   5.349   0.928   3.911 -0.8363 -1.3892  0.4989
15163SOL    HW246189   5.276   1.028   3.998  0.6110  0.6449 -0.5146
15164SOL     OW46190   2.496   4.737   4.255 -0.0460 -0.2619 -0.3904
15164SOL    HW146191   2.495   4.785   4.173 -1.5468  1.9180  0.7971
15164SOL    HW246192   2.573   4.771   4.302  1.7383 -2.6155 -1.3852
15165SOL     OW46193   1.671   0.710   4.597  0.4989 -0.1981 -0.0608
15165SOL    HW146194   1.691   0.616   4.602  0.7254 -0.1289  0.4855
15165SOL    HW246195   1.756   0.751   4.581  0.2125 -0.1738 -1.6288
15166SOL     OW46196   4.179   0.570   0.141 -0.0301 -0.2301 -0.5709
15166SOL    HW146197   4.182   0.621   0.222  0.8477 -1.0914 -0.0281
15166SOL    HW246198   4.207   0.482   0.168 -2.0264 -1.1599 -1.3595
15167SOL     OW46199   1.888   3.561   1.859  0.6997  0.2911  0.5828
15167SOL    HW146200   1.903   3.477   1.904  0.8568 -1.3421 -2.3023
15167SOL    HW246201   1.793   3.566   1.850  0.7266  0.0902  0.1793
15168SOL     OW46202   7.708   7.736   3.147 -0.1198  0.2218  0.5285
15168SOL    HW146203   7.773   7.666   3.145 -1.4692 -1.0984  1.1718
15168SOL    HW246204   7.646   7.713   3.078 -0.0498  1.3398  0.0750
15169SOL     OW46205   3.097   1.101   4.030  0.2322  0.0709  0.2944
15169SOL    HW146206   3.129   1.014   4.007 -1.3937 -0.1538 -1.3500
15169SOL    HW246207   3.157   1.161   3.986 -0.9062 -0.3236 -1.9137
15170SOL     OW46208   3.564   3.744   4.764 -0.0615 -0.1732  0.2078
15170SOL    HW146209   3.610   3.821   4.731  0.8650 -0.8601 -0.1616
15170SOL    HW246210   3.486   3.779   4.808  0.0598  0.9262 -0.4183
15171SOL     OW46211   1.719   5.789   0.386  0.2702  0.1120  0.3413
15171SOL    HW146212   1.671   5.788   0.469  2.6922 -2.2695  1.8832
15171SOL    HW246213   1.703   5.703   0.348  2.6869 -0.5060  0.5930
15172SOL     OW46214   1.596   7.276   5.970  0.3354 -0.5137  0.2576
15172SOL    HW146215   1.682   7.238   5.953  0.5993 -0.4953  1.4259
15172SOL    HW246216   1.614   7.350   6.029 -0.4791 -0.5010  0.5007
15173SOL     OW46217   3.655   1.562   5.120 -0.1123  0.2604 -0.2433
15173SOL    HW146218   3.584   1.625   5.134 -0.6263 -0.4614  0.4952
15173SOL    HW246219   3.687   1.581   5.031  0.3276  2.1209  0.2628
15174SOL     OW46220   6.391   4.147   1.872  0.2086  0.4409 -0.3236
15174SOL    HW146221   6.457   4.137   1.940 -0.4089  2.0283  0.5544
15174SOL    HW246222   6.440   4.170   1.793  0.8617 -0.6297 -0.2479
15175SOL     OW46223   7.852   7.951   4.461  0.0811 -0.0166 -0.1969
15175SOL    HW146224   7.838   7.860   4.435 -1.1071  0.1960 -0.3745
15175SOL    HW246225   7.913   7.946   4.534 -0.9244 -1.0824  0.6145
15176SOL     OW46226   5.820   1.157   5.335  0.4790  0.4647  0.1611
15176SOL    HW146227   5.787   1.192   5.252 -1.4436 -3.0845 -0.7864
15176SOL    HW246228   5.756   1.183   5.400  0.3932  0.7870 -0.0529
15177SOL     OW46229   4.958   6.311   4.447 -0.3124 -0.8253 -0.2808
15177SOL    HW146230   5.011   6.374   4.496 -0.2102 -2.9841  2.5796
15177SOL    HW246231   4.979   6.329   4.355  0.4027  2.6366  0.4134
15178SOL     OW46232   0.060   1.556   7.362 -0.5772  0.2945  0.2573
15178SOL    HW146233  -0.020   1.545   7.414 -0.7182  1.2437  0.2529
15178SOL    HW246234   0.130   1.523   7.419 -0.8919  0.0267  0.4982
15179SOL     OW46235   4.726   3.076   6.405 -0.8920 -0.5357 -0.5428
15179SOL    HW146236   4.648   3.067   6.459 -0.2837 -1.6839  0.1990
15179SOL    HW246237   4.739   3.170   6.396 -0.7576 -0.2870  1.7326
15180SOL     OW46238   6.150   6.155   0.763  0.3409  0.3492  0.3988
15180SOL    HW146239   6.202   6.123   0.690 -0.2836  1.8476 -0.7484
15180SOL    HW246240   6.215   6.176   0.831  0.8988 -1.3500  0.4382
15181SOL     OW46241   2.342   1.929   4.312 -0.4384  0.6731 -0.0959
15181SOL    HW146242   2.402   1.982   4.259 -0.0780  2.0340  1.5868
15181SOL    HW246243   2.302   1.991   4.373  0.5912 -1.0228  2.5183
15182SOL     OW46244   3.911   2.833   4.714  0.3297  0.3799 -0.4754
15182SOL    HW146245   3.946   2.748   4.740 -1.3770 -0.8057 -1.8474
15182SOL    HW246246   3.851   2.857   4.784 -0.7207 -0.5605 -1.0222
15183SOL     OW46247   4.260   5.513   7.236 -0.1605 -0.1024  0.0366
15183SOL    HW146248   4.251   5.439   7.296  2.5809 -0.9104 -0.3858
15183SOL    HW246249   4.295   5.583   7.291  0.4795 -0.2190 -0.2159
15184SOL     OW46250   5.201   4.827   1.911 -0.1032 -0.1308 -0.1442
15184SOL    HW146251   5.169   4.834   2.001 -0.3819 -0.8418 -0.1847
15184SOL    HW246252   5.175   4.910   1.871 -0.5058 -0.0541  0.2653
15185SOL     OW46253   4.508   5.614   1.345  0.6009 -0.2715 -0.7042
15185SOL    HW146254   4.486   5.598   1.437  0.4020  0.9646 -0.5256
15185SOL    HW246255   4.426   5.601   1.298  0.4333  0.2417 -0.5574
15186SOL     OW46256   5.384   4.774   5.134 -0.1574  0.0199  0.4582
15186SOL    HW146257   5.439   4.849   5.113 -0.9303  0.4379 -0.1229
15186SOL    HW246258   5.308   4.811   5.178 -1.1435 -0.2530 -0.9440
15187SOL     OW46259   0.321   3.983   6.435  0.7629  0.2097  0.1734
15187SOL    HW146260   0.283   3.900   6.406 -0.3034  0.8338 -0.3062
15187SOL    HW246261   0.358   4.022   6.356 -0.4910  1.0600 -0.0360
15188SOL     OW46262   1.163   0.200   7.136  0.6276  0.0341  0.5871
15188SOL    HW146263   1.184   0.269   7.200  1.0952 -1.4097  2.0680
15188SOL    HW246264   1.211   0.225   7.057 -0.2851  2.0841  0.6161
15189SOL     OW46265   4.296   5.464   2.219 -0.4256  0.0648 -0.4489
15189SOL    HW146266   4.239   5.438   2.146 -2.1210 -1.9469  1.4632
15189SOL    HW246267   4.236   5.481   2.291  1.2468  1.5115  0.6732
15190SOL     OW46268   1.343   5.988   4.341  0.0812 -0.1901 -0.4867
15190SOL    HW146269   1.359   6.082   4.339  0.8579 -0.3156 -2.2511
15190SOL    HW246270   1.431   5.949   4.339 -0.2116 -0.9805  0.8277
15191SOL     OW46271   7.939   0.225   4.119  0.0726  0.1510  0.2052
15191SOL    HW146272   7.964   0.136   4.096 -1.5117  0.0179 -1.1498
15191SOL    HW246273   7.899   0.217   4.206  1.0128 -0.2472  0.6156
15192SOL     OW46274   1.014   3.308   4.729  0.0297  0.0714 -0.3282
15192SOL    HW146275   0.924   3.289   4.702  0.3478 -0.7506 -0.8483
15192SOL    HW246276   1.032   3.395   4.692 -0.9154  0.7575  0.7429
15193SOL     OW46277   1.082   5.459   3.185  0.0625 -0.8700  0.3153
15193SOL    HW146278   1.003   5.422   3.146  0.4705 -0.1811 -1.2602
15193SOL    HW246279   1.072   5.444   3.279 -0.3260 -3.8741 -0.1133
15194SOL     OW46280   5.150   6.878   1.846  0.4459  0.1696 -0.2001
15194SOL    HW146281   5.174   6.837   1.763  1.1157  0.2022 -0.0365
15194SOL    HW246282   5.234   6.890   1.891  0.4393  2.9445 -0.7888
15195SOL     OW46283   6.754   1.688   5.891  0.8875 -0.1104 -0.1212
15195SOL    HW146284   6.695   1.744   5.840  0.7576 -1.0731 -1.0677
15195SOL    HW246285   6.697   1.643   5.954  0.5814 -1.0156 -1.0128
15196SOL     OW46286   6.005   0.997   3.073  0.1836  0.0420  0.4926
15196SOL    HW146287   5.929   1.055   3.065  0.4324  0.6700  2.2336
15196SOL    HW246288   5.993   0.932   3.005 -1.2051  0.9297 -0.1514
15197SOL     OW46289   0.438   7.635   3.799  0.3493  0.6487 -0.5430
15197SOL    HW146290   0.403   7.617   3.711  0.2576 -0.8356 -0.2374
15197SOL    HW246291   0.406   7.722   3.820 -1.6583  0.0839 -1.0355
15198SOL     OW46292   5.206   1.582   5.080 -0.5053 -0.1638  0.3069
15198SOL    HW146293   5.278   1.635   5.048 -0.9438  0.4208  0.2763
15198SOL    HW246294   5.249   1.508   5.124  0.1121  0.2217  0.3719
15199SOL     OW46295   7.047   6.403   1.831  0.5132  0.1118 -0.7995
15199SOL    HW146296   7.067   6.365   1.746  0.4056 -0.0844 -0.7386
15199SOL    HW246297   6.974   6.463   1.814  2.6993  2.7666 -1.4950
15200SOL     OW46298   1.408   2.745   3.521  0.1722 -0.1065  0.2347
15200SOL    HW146299   1.355   2.801   3.578 -0.7781 -1.0316  0.2837
15200SOL    HW246300   1.480   2.802   3.493  0.0332  0.7082  1.4292
15201SOL     OW46301   0.868   6.489   3.106 -0.1452 -0.3282  0.3131
15201SOL    HW146302   0.918   6.567   3.131 -0.5514 -0.0613  0.3113
15201SOL    HW246303   0.877   6.429   3.180  3.2453 -1.8373 -1.1216
15202SOL     OW46304   7.333   0.947   4.022 -0.3594 -0.0659  0.1665
15202SOL    HW146305   7.403   1.007   3.995 -1.0106  0.4827 -0.3675
15202SOL    HW246306   7.303   0.982   4.106  0.1826 -0.4661  0.5338
15203SOL     OW46307   2.618   6.540   4.614 -0.0250  0.2120  0.1760
15203SOL    HW146308   2.638   6.523   4.706  0.3999 -3.0152 -0.3964
15203SOL    HW246309   2.527   6.514   4.604  0.2047 -0.3530 -0.5050
15204SOL     OW46310   4.817   6.027   0.041 -0.4460  0.0877  0.0104
15204SOL    HW146311   4.788   5.947  -0.003 -1.1994  0.3970 -0.0774
15204SOL    HW246312   4.903   6.045   0.004 -0.7932 -0.0155 -0.8880
15205SOL     OW46313   5.076   5.372   0.130  0.2420  0.0203 -0.3968
15205SOL    HW146314   5.169   5.374   0.153  0.3010  0.8247 -0.6815
15205SOL    HW246315   5.048   5.463   0.131 -0.6294 -0.2394 -0.0054
15206SOL     OW46316   3.513   6.710   2.782  0.9374  0.7256  0.4040
15206SOL    HW146317   3.494   6.762   2.861 -0.5234  0.9338 -0.0659
15206SOL    HW246318   3.477   6.624   2.801  1.2413  0.5579  0.2350
15207SOL     OW46319   5.046   4.103   5.127 -0.4066  0.1718  0.4106
15207SOL    HW146320   5.131   4.134   5.096 -1.7089  1.2715 -2.3448
15207SOL    HW246321   5.065   4.065   5.213  2.8511  0.3003 -0.1194
15208SOL     OW46322   5.922   4.946   6.412  0.3203 -0.4772  0.1682
15208SOL    HW146323   5.990   5.012   6.424 -0.7755  0.8257 -0.5218
15208SOL    HW246324   5.844   4.984   6.452 -0.7356 -0.6129 -1.6195
15209SOL     OW46325   1.256   1.823   5.507 -0.1025 -0.3954 -0.1533
15209SOL    HW146326   1.329   1.782   5.553 -0.4681 -3.2346 -1.8435
15209SOL    HW246327   1.179   1.799   5.558 -0.1194  0.2412  0.1292
15210SOL     OW46328   1.434   7.296   0.033 -0.1303  0.4504  0.4423
15210SOL    HW146329   1.409   7.287   0.125  2.2407  1.5258  1.2785
15210SOL    HW246330   1.429   7.390   0.016  1.3688  0.5103  0.1368
15211SOL     OW46331   4.201   0.127   6.713 -0.3547  0.2379 -0.1108
15211SOL    HW146332   4.134   0.146   6.778  0.0034  1.2479 -0.0124
15211SOL    HW246333   4.214   0.033   6.718  0.3368  0.3862  1.9526
15212SOL     OW46334   4.408   6.416   7.570 -0.3653  0.1331  0.2285
15212SOL    HW146335   4.415   6.506   7.601 -1.2411  0.4309 -0.3905
15212SOL    HW246336   4.320   6.410   7.533 -0.6150 -1.2070  0.9644
15213SOL     OW46337   1.991   6.862   3.296 -0.1778  0.0356  0.4567
15213SOL    HW146338   1.897   6.872   3.283 -0.0951  0.1252 -0.1001
15213SOL    HW246339   2.029   6.940   3.257  0.3223 -1.2867 -1.9032
15214SOL     OW46340   4.933   5.214   0.305 -0.3481  0.2126 -0.1104
15214SOL    HW146341   5.001   5.257   0.253  0.7634 -0.6259  0.6254
15214SOL    HW246342   4.851   5.245   0.266  0.4372  1.3453 -0.9263
15215SOL     OW46343   2.615   5.550   4.137 -0.8012  0.1325 -0.1572
15215SOL    HW146344   2.580   5.465   4.110 -1.0807  0.5122 -1.0412
15215SOL    HW246345   2.643   5.591   4.055  0.9345  0.2006  0.4295
15216SOL     OW46346   7.091   5.895   1.393 -0.0152 -0.2203 -0.1558
15216SOL    HW146347   7.026   5.828   1.413 -0.3866  0.0669 -0.3855
15216SOL    HW246348   7.161   5.881   1.457 -1.3579  0.9438  1.6782
15217SOL     OW46349   1.274   6.040   1.675 -0.3006 -0.5674 -0.4204
15217SOL    HW146350   1.315   5.992   1.604  2.1519  0.7984 -0.0469
15217SOL    HW246351   1.294   6.132   1.657 -1.8259  0.0337  0.7106
15218SOL     OW46352   3.143   3.869   6.302  0.2039 -0.1691  0.1342
15218SOL    HW146353   3.161   3.783   6.264  0.4035 -0.5825  1.1290
15218SOL    HW246354   3.078   3.852   6.370 -0.0041  0.5151  0.1099
15219SOL     OW46355   3.145   4.360   6.204  0.1988  0.1576 -0.1336
15219SOL    HW146356   3.066   4.406   6.232  0.4999  0.9907 -0.6343
15219SOL    HW246357   3.135   4.350   6.109 -0.2990 -1.6795  0.0615
15220SOL     OW46358   5.046   5.856   1.113 -0.2994  0.2009  0.2902
15220SOL    HW146359   5.060   5.902   1.195  1.5674  3.0552 -1.4833
15220SOL    HW246360   5.102   5.779   1.119 -0.4424  0.1711  1.7551
15221SOL     OW46361   4.767   2.735   1.060 -0.2884  0.4439 -0.0145
15221SOL    HW146362   4.785   2.752   0.968  0.9342 -0.2289  0.0809
15221SOL    HW246363   4.680   2.695   1.060 -0.1430  0.0887 -0.9265
15222SOL     OW46364   7.234   4.400   2.930  0.1981 -0.6305  0.2970
15222SOL    HW146365   7.161   4.358   2.886 -0.4015 -2.3840  2.7828
15222SOL    HW246366   7.311   4.350   2.904 -0.1258 -1.5329  1.0359
15223SOL     OW46367   5.572   4.534   4.811  0.2079 -0.6808 -0.1149
15223SOL    HW146368   5.622   4.525   4.892 -1.1260 -1.5284  0.6434
15223SOL    HW246369   5.630   4.501   4.743  1.4196  0.2194  0.4514
15224SOL     OW46370   6.482   1.901   4.327 -0.0741 -0.8681  0.1374
15224SOL    HW146371   6.488   1.863   4.240 -0.7709 -1.4911  0.3585
15224SOL    HW246372   6.422   1.975   4.317  1.2674  0.2043 -0.2881
15225SOL     OW46373   3.222   7.892   1.296 -0.0711 -0.2165  0.1449
15225SOL    HW146374   3.295   7.948   1.323  0.7897 -0.5240 -1.4360
15225SOL    HW246375   3.225   7.892   1.200 -1.3991 -1.2193  0.0669
15226SOL     OW46376   4.532   5.747   5.620  0.3470  0.2120 -0.0778
15226SOL    HW146377   4.618   5.714   5.646 -0.0151  0.5379  1.6084
15226SOL    HW246378   4.487   5.670   5.585  1.0879 -0.0863 -0.4096
15227SOL     OW46379   7.393   5.880   3.346  0.0102  0.1640  0.3136
15227SOL    HW146380   7.357   5.792   3.359  0.6223 -0.3623 -1.3084
15227SOL    HW246381   7.488   5.868   3.347  0.1063  0.5984 -0.9378
15228SOL     OW46382   2.727   1.764   5.078 -0.7655  0.1478 -0.7147
15228SOL    HW146383   2.727   1.685   5.023 -0.9585 -0.7559  0.5571
15228SOL    HW246384   2.644   1.807   5.057 -1.7042 -1.1542  0.1892
15229SOL     OW46385   6.040   0.022   3.068 -0.1460 -0.0067 -0.2538
15229SOL    HW146386   6.125   0.065   3.065 -0.9806  1.6763 -1.5594
15229SOL    HW246387   5.991   0.060   2.995 -2.1958 -0.5573  0.7565
15230SOL     OW46388   0.640   6.341   3.252 -0.1484 -0.3570 -0.1073
15230SOL    HW146389   0.664   6.254   3.281 -1.6031 -0.0974  2.1055
15230SOL    HW246390   0.544   6.341   3.254 -0.1701  1.4798  0.5881
15231SOL     OW46391   7.341   4.474   1.355  0.7265  0.2275 -0.7242
15231SOL    HW146392   7.318   4.563   1.328  1.8104  0.4688 -0.9008
15231SOL    HW246393   7.271   4.419   1.320 -1.5659  1.2969  1.8309
15232SOL     OW46394   7.162   1.683   7.731  0.1677 -0.1356 -0.2171
15232SOL    HW146395   7.240   1.629   7.720  0.0876  0.1163 -2.4077
15232SOL    HW246396   7.091   1.621   7.747  0.7498 -0.3683  1.7458
15233SOL     OW46397   1.074   6.988   3.421  0.1372  0.3915  0.1465
15233SOL    HW146398   1.017   6.936   3.478 -0.7987 -0.5605 -1.5377
15233SOL    HW246399   1.027   6.990   3.337  1.3755  1.8307 -0.5607
15234SOL     OW46400   5.337   4.418   6.310  0.1497 -0.2364  0.3121
15234SOL    HW146401   5.271   4.435   6.377 -0.5864 -2.3302  0.1902
15234SOL    HW246402   5.322   4.486   6.244 -1.2688 -0.0867  0.7422
15235SOL     OW46403   2.169   5.031   6.898 -0.2451 -0.2226 -0.1839
15235SOL    HW146404   2.194   4.985   6.978 -1.9170 -0.4598  0.2511
15235SOL    HW246405   2.223   4.991   6.830 -0.8153 -2.0616  0.3725
15236SOL     OW46406   6.317   3.923   1.638 -0.1124  0.1022 -0.4106
15236SOL    HW146407   6.279   3.918   1.550 -1.4179  0.7893  0.0923
15236SOL    HW246408   6.247   3.895   1.696  0.3227  0.8569  0.5045
15237SOL     OW46409   0.127   4.767   3.942  0.2780 -0.2445  0.5967
15237SOL    HW146410   0.080   4.733   3.865 -0.4285  1.9599 -0.0221
15237SOL    HW246411   0.057   4.798   4.000  0.8610 -0.8627  1.6530
15238SOL     OW46412   0.187   5.389   2.137 -0.3354 -0.4724  0.1444
15238SOL    HW146413   0.260   5.383   2.197 -1.1434  1.6086  1.4620
15238SOL    HW246414   0.114   5.346   2.182 -0.5441 -0.3024 -0.0212
15239SOL     OW46415   1.323   5.534   1.123  0.4084 -0.2616 -0.3243
15239SOL    HW146416   1.234   5.509   1.098 -0.1462  1.5039 -0.2531
15239SOL    HW246417   1.374   5.453   1.116 -0.8863 -0.9993 -1.7668
15240SOL     OW46418   5.708   0.925   4.896  0.2684 -0.4793  0.5682
15240SOL    HW146419   5.710   0.968   4.811 -0.9009  1.3495  1.3895
15240SOL    HW246420   5.631   0.868   4.892  1.3788 -2.0158 -0.2492
15241SOL     OW46421   1.597   7.229   2.718  0.2987  0.8026  0.5147
15241SOL    HW146422   1.507   7.234   2.687 -0.2474 -3.5020  0.7586
15241SOL    HW246423   1.589   7.200   2.809  1.8480 -1.0129  0.1396
15242SOL     OW46424   3.569   5.022   1.906  0.5126 -0.2884  0.1333
15242SOL    HW146425   3.514   4.955   1.948  1.0062 -0.1199  1.0620
15242SOL    HW246426   3.547   5.103   1.951 -0.1548  0.2305 -1.0529
15243SOL     OW46427   2.207   2.289   6.552 -0.5338  0.1927  0.1349
15243SOL    HW146428   2.247   2.292   6.466  0.3064  1.0859  0.5447
15243SOL    HW246429   2.203   2.380   6.580 -0.1055 -0.1440  1.3523
15244SOL     OW46430   0.028   4.707   7.558 -0.0184 -0.5010  0.0818
15244SOL    HW146431   0.009   4.623   7.600 -0.0569 -1.4864 -1.7911
15244SOL    HW246432  -0.043   4.718   7.494  0.7070  0.2823 -0.6120
15245SOL     OW46433   4.741   7.051   6.225 -0.5886 -0.2371  0.2090
15245SOL    HW146434   4.772   7.138   6.253  1.4063 -0.5784 -0.7651
15245SOL    HW246435   4.744   6.998   6.304  1.7239 -0.3219  0.1201
15246SOL     OW46436   6.080   2.634   4.650 -0.1264 -0.1875 -0.1279
15246SOL    HW146437   5.990   2.654   4.674  0.3879 -1.6704  3.6985
15246SOL    HW246438   6.078   2.542   4.625  0.3468 -0.2413  0.0282
15247SOL     OW46439   5.151   2.523   0.302 -0.0855 -0.6321  0.1521
15247SOL    HW146440   5.144   2.521   0.206 -1.2885 -1.3061  0.2377
15247SOL    HW246441   5.236   2.563   0.318 -1.6261  3.8418 -1.1469
15248SOL     OW46442   0.322   4.569   5.217  0.2488  0.1095 -0.4072
15248SOL    HW146443   0.416   4.570   5.234  0.0878 -0.8525  0.6106
15248SOL    HW246444   0.290   4.650   5.256  0.3264 -0.6635  1.3176
15249SOL     OW46445   5.340   0.650   0.700  0.2858  0.3925 -0.1352
15249SOL    HW146446   5.334   0.555   0.696 -0.9471  0.4601 -0.1644
15249SOL    HW246447   5.257   0.678   0.739  0.0184  1.5496 -1.4686
15250SOL     OW46448   5.819   3.684   0.990  0.0807 -0.2261  0.4715
15250SOL    HW146449   5.900   3.649   0.954  0.4929 -0.4103  1.5527
15250SOL    HW246450   5.756   3.678   0.918  0.6563 -1.3987  0.0481
15251SOL     OW46451   7.330   7.188   1.615  0.2109 -0.5575 -0.1985
15251SOL    HW146452   7.336   7.232   1.699 -0.8355 -1.3150  0.2839
15251SOL    HW246453   7.274   7.244   1.562 -0.0513 -0.6520 -0.0193
15252SOL     OW46454   5.837   6.745   4.069 -0.2027 -0.2264 -0.1379
15252SOL    HW146455   5.857   6.838   4.078 -0.8788 -0.2457  2.5279
15252SOL    HW246456   5.770   6.742   4.000  0.5351  1.1137 -0.9651
15253SOL     OW46457   0.200   0.030   5.718  0.1881  0.4058 -0.3754
15253SOL    HW146458   0.236   0.119   5.717  1.6622 -0.1047 -3.2856
15253SOL    HW246459   0.163   0.018   5.630  0.5621 -2.0355 -0.2763
15254SOL     OW46460   0.621   1.262   2.438 -0.0127 -0.5029 -0.0020
15254SOL    HW146461   0.532   1.227   2.437  0.3123 -1.3349 -1.0395
15254SOL    HW246462   0.678   1.186   2.431  0.7165  0.1390 -1.8090
15255SOL     OW46463   7.789   2.598   3.278  0.0125  0.2792 -0.2936
15255SOL    HW146464   7.845   2.561   3.346 -0.6633  1.5458  0.9864
15255SOL    HW246465   7.830   2.569   3.196  0.7577 -1.4052  0.6217
15256SOL     OW46466   1.422   2.520   4.705  0.2778  0.0650  0.1385
15256SOL    HW146467   1.382   2.490   4.787 -0.7528  0.2611 -0.2752
15256SOL    HW246468   1.353   2.508   4.640  1.5666 -1.5390 -1.0098
15257SOL     OW46469   1.451   2.914   4.475 -0.7714 -0.3625  0.2356
15257SOL    HW146470   1.511   2.853   4.431  0.1555  0.3097  0.5226
15257SOL    HW246471   1.374   2.917   4.419  0.2188  0.1694 -1.1736
15258SOL     OW46472   5.617   7.517   4.752  0.4775 -0.5592  0.5059
15258SOL    HW146473   5.670   7.560   4.685 -0.9885  0.0980 -0.2734
15258SOL    HW246474   5.587   7.589   4.808 -1.7689 -0.5081 -0.6492
15259SOL     OW46475   7.165   3.068   4.869  0.0745 -0.2426 -0.1142
15259SOL    HW146476   7.239   3.106   4.917  1.3508  0.1964 -2.2972
15259SOL    HW246477   7.089   3.113   4.906  1.1356  1.2415  0.4203
15260SOL     OW46478   7.885   2.406   4.577  0.2017 -0.4067  0.3955
15260SOL    HW146479   7.857   2.317   4.596 -0.6720 -0.8638 -2.5875
15260SOL    HW246480   7.980   2.405   4.589  0.0858 -1.4505  1.3204
15261SOL     OW46481   4.445   6.370   0.204 -0.5225  0.3077 -0.4292
15261SOL    HW146482   4.398   6.312   0.263 -0.4382 -0.2271 -0.8740
15261SOL    HW246483   4.502   6.312   0.153 -0.6813  0.7346 -1.1174
15262SOL     OW46484   1.581   0.486   7.043  0.3771  0.2829 -0.3423
15262SOL    HW146485   1.528   0.421   6.998  0.1425  0.1508  0.1283
15262SOL    HW246486   1.562   0.568   6.996  0.3527  0.0965 -0.6648
15263SOL     OW46487   6.174   7.235   5.081  0.3648  0.4630  0.2731
15263SOL    HW146488   6.204   7.205   4.995  0.0626 -1.4292  0.7804
15263SOL    HW246489   6.201   7.165   5.141 -1.0355  0.8884  1.4424
15264SOL     OW46490   2.512   7.369   7.158 -0.0984 -0.5604 -0.0747
15264SOL    HW146491   2.488   7.300   7.219 -0.0579 -2.2305 -1.8440
15264SOL    HW246492   2.458   7.352   7.080 -0.4725  1.7348 -0.4095
15265SOL     OW46493   3.016   0.839   4.416  0.0891  0.0834  0.0278
15265SOL    HW146494   3.036   0.898   4.343  0.6967  1.6203  1.3715
15265SOL    HW246495   2.924   0.856   4.436  0.0556  0.0269 -0.0818
15266SOL     OW46496   4.781   4.545   3.614  0.2676  0.4133  0.5043
15266SOL    HW146497   4.803   4.500   3.533 -0.5024 -1.5576  1.3198
15266SOL    HW246498   4.864   4.547   3.663  0.0515 -1.5814  1.0705
15267SOL     OW46499   6.200   1.504   1.666  0.1093 -0.0422  0.8448
15267SOL    HW146500   6.171   1.421   1.703 -2.1610  0.6885  0.8125
15267SOL    HW246501   6.133   1.568   1.691  0.4409  1.2637 -1.2869
15268SOL     OW46502   4.571   2.544   2.645  0.3190 -0.1031 -0.3138
15268SOL    HW146503   4.651   2.586   2.613  0.2512  0.2332 -0.0349
15268SOL    HW246504   4.525   2.517   2.565 -0.1992  1.3701 -0.5257
15269SOL     OW46505   6.689   1.235   6.598  0.2667  0.4066  0.2254
15269SOL    HW146506   6.692   1.140   6.612 -0.8193  0.3457  0.1982
15269SOL    HW246507   6.743   1.272   6.667  2.1872 -0.2954 -0.8302
15270SOL     OW46508   5.778   4.063   0.444 -0.0741  0.4749 -0.1831
15270SOL    HW146509   5.805   3.986   0.395  0.3735  0.6863 -0.2742
15270SOL    HW246510   5.727   4.028   0.517  0.4174  0.0707 -0.0285
15271SOL     OW46511   5.944   4.117   5.715  0.0211 -0.2931 -0.6911
15271SOL    HW146512   5.868   4.129   5.659 -0.3686 -0.0093 -0.1137
15271SOL    HW246513   5.911   4.131   5.804  0.8492  0.3314 -0.4664
15272SOL     OW46514   0.418   4.095   4.008 -0.0342  0.2495 -0.5145
15272SOL    HW146515   0.496   4.150   4.015 -0.5651  1.0256 -0.5634
15272SOL    HW246516   0.350   4.154   3.973 -0.9973 -0.0557  0.7601
15273SOL     OW46517   4.254   4.006   1.522 -0.5971  0.1939 -0.2778
15273SOL    HW146518   4.255   3.995   1.617 -0.9885  0.1448 -0.2774
15273SOL    HW246519   4.211   3.926   1.489  0.4088 -0.2492 -0.5647
15274SOL     OW46520   4.838   0.674   6.277 -0.2941 -0.2510  0.1552
15274SOL    HW146521   4.775   0.720   6.222 -0.5096 -0.5650  0.1391
15274SOL    HW246522   4.791   0.660   6.360  0.3896  1.1927  0.8205
15275SOL     OW46523   0.782   3.560   5.439  0.2315  0.0104 -0.6320
15275SOL    HW146524   0.848   3.494   5.462 -0.3363 -0.2384  0.3865
15275SOL    HW246525   0.825   3.644   5.456  0.2110 -0.1548  0.3105
15276SOL     OW46526   5.806   1.552   1.351  0.2497  0.3736 -0.1678
15276SOL    HW146527   5.821   1.496   1.427 -1.1906  0.5619  0.2807
15276SOL    HW246528   5.758   1.496   1.289  0.8787  0.4082 -0.7004
15277SOL     OW46529   1.437   2.123   1.896 -0.1606 -0.2948  0.8196
15277SOL    HW146530   1.350   2.092   1.870  0.3804 -1.0656 -0.1195
15277SOL    HW246531   1.443   2.099   1.989 -1.2026  0.3928  1.0888
15278SOL     OW46532   0.615   7.764   6.286 -0.2988 -0.0225 -0.4206
15278SOL    HW146533   0.620   7.676   6.321 -0.9238  0.5225  1.1343
15278SOL    HW246534   0.556   7.757   6.211 -0.5191 -0.8819 -0.1709
15279SOL     OW46535   4.098   4.103   6.886  0.0694  0.1772  0.2788
15279SOL    HW146536   4.147   4.025   6.863  1.4726  1.2463 -0.5168
15279SOL    HW246537   4.163   4.161   6.927 -0.2379  2.0440 -1.7280
15280SOL     OW46538   1.785   6.015   6.192 -0.0841 -0.1333  0.1439
15280SOL    HW146539   1.854   6.082   6.192  0.2363 -0.4447 -0.9369
15280SOL    HW246540   1.747   6.020   6.280  1.4191 -0.0686  0.8173
15281SOL     OW46541   4.845   4.513   6.549  0.0898  0.6383 -0.7442
15281SOL    HW146542   4.829   4.437   6.604  0.3822  0.4418 -0.9246
15281SOL    HW246543   4.779   4.508   6.480  0.5616  0.1353 -1.1739
15282SOL     OW46544   7.661   5.473   0.978  0.3117 -0.0622  0.4357
15282SOL    HW146545   7.709   5.554   0.963  0.2716  0.0086  0.6884
15282SOL    HW246546   7.588   5.498   1.035  0.0451 -0.1915  0.1583
15283SOL     OW46547   6.055   7.840   0.120  0.5817 -0.4500 -0.1287
15283SOL    HW146548   6.040   7.921   0.071 -1.1603 -1.6806 -1.7847
15283SOL    HW246549   6.149   7.822   0.109  1.0014  1.3300  0.3213
15284SOL     OW46550   4.502   1.073   4.578 -0.2185  0.2159  0.7531
15284SOL    HW146551   4.572   1.132   4.606  0.1636 -0.6220  1.6293
15284SOL    HW246552   4.508   1.072   4.482  1.2965 -0.2096  0.8270
15285SOL     OW46553   2.907   6.202   1.334 -0.0239  0.1136  0.3733
15285SOL    HW146554   2.828   6.210   1.281 -0.1728 -0.3676  0.5210
15285SOL    HW246555   2.885   6.248   1.416  0.4095  1.3756 -0.1824
15286SOL     OW46556   1.271   5.582   4.334 -0.1277 -0.6227  0.1083
15286SOL    HW146557   1.279   5.512   4.270 -0.1911 -0.3381 -0.2116
15286SOL    HW246558   1.208   5.643   4.296  1.5260  0.7229 -0.6488
15287SOL     OW46559   5.681   2.725   5.270 -0.1988  0.2139  0.0069
15287SOL    HW146560   5.595   2.734   5.229 -0.2829 -2.0402 -0.4357
15287SOL    HW246561   5.668   2.755   5.360 -1.0260  1.3579 -0.4702
15288SOL     OW46562   1.405   7.450   0.938 -0.3202  0.4778 -0.2477
15288SOL    HW146563   1.478   7.497   0.897  0.6221 -0.2840  0.5019
15288SOL    HW246564   1.337   7.448   0.870  1.3017 -1.0532 -1.9705
15289SOL     OW46565   6.977   6.921   3.652  0.0893  0.1311 -0.0328
15289SOL    HW146566   6.976   6.970   3.570  1.0998  3.5195  1.7930
15289SOL    HW246567   6.887   6.891   3.663 -0.3024  0.5158 -1.8686
15290SOL     OW46568   5.146   5.227   7.441 -0.3625 -0.3358 -0.0364
15290SOL    HW146569   5.177   5.142   7.472 -1.2047 -0.6226  0.0289
15290SOL    HW246570   5.070   5.207   7.386 -0.6814  0.3847  0.1289
15291SOL     OW46571   4.266   7.342   6.044  0.5581  0.2288  0.2881
15291SOL    HW146572   4.233   7.326   6.132 -0.1748  1.0633  0.1873
15291SOL    HW246573   4.294   7.256   6.012 -0.4586 -0.3205  0.8228
15292SOL     OW46574   4.663   7.787   2.197  0.1186  0.4432  0.4511
15292SOL    HW146575   4.575   7.757   2.222 -0.2048 -2.8755 -3.6486
15292SOL    HW246576   4.716   7.708   2.198  1.8323  1.4780 -1.6779
15293SOL     OW46577   5.979   0.325   5.386  0.6392 -0.1468 -0.2059
15293SOL    HW146578   5.941   0.389   5.446  1.2740 -0.5297  0.6320
15293SOL    HW246579   5.965   0.362   5.299  0.1771  0.6816  0.2092
15294SOL     OW46580   3.315   0.763   2.049  0.0668 -0.4318  0.4100
15294SOL    HW146581   3.236   0.786   2.097  0.2306 -0.9294  0.9390
15294SOL    HW246582   3.284   0.711   1.975 -0.2032  0.5061 -0.1405
15295SOL     OW46583   7.588   3.592   2.700  0.2226 -0.5186 -0.0940
15295SOL    HW146584   7.587   3.500   2.673  1.4280 -0.7996  0.7124
15295SOL    HW246585   7.499   3.623   2.686 -0.3172 -1.9417  0.0740
15296SOL     OW46586   3.654   6.917   3.536 -0.9531 -0.5044  0.2557
15296SOL    HW146587   3.639   6.824   3.522  0.2615 -0.5777 -0.7674
15296SOL    HW246588   3.627   6.958   3.453  1.8730 -0.3956 -0.7207
15297SOL     OW46589   3.022   6.856   1.953  0.1514 -0.8281  0.4925
15297SOL    HW146590   2.985   6.839   2.040 -0.4801  0.7270  0.5504
15297SOL    HW246591   2.967   6.925   1.916  1.3472 -0.3848 -0.5328
15298SOL     OW46592   1.588   4.112   5.412  0.0143 -0.1522 -0.2756
15298SOL    HW146593   1.526   4.054   5.369  1.1745 -1.8622  0.2186
15298SOL    HW246594   1.561   4.200   5.388 -0.9153 -0.9573 -2.3330
15299SOL     OW46595   0.490   7.583   1.969 -0.1140 -0.2321  0.3025
15299SOL    HW146596   0.513   7.676   1.975 -1.2914  0.0477  0.7700
15299SOL    HW246597   0.478   7.556   2.060  0.7000 -0.9884  0.2031
15300SOL     OW46598   5.467   5.744   2.895 -0.2856  0.0021  0.2480
15300SOL    HW146599   5.560   5.727   2.902 -0.2600 -1.0135 -1.8000
15300SOL    HW246600   5.427   5.658   2.883 -1.2742  0.5595 -0.6393
15301SOL     OW46601   2.566   6.066   5.597  0.4646 -0.1168  0.1283
15301SOL    HW146602   2.628   6.104   5.534  0.8159 -0.8336  0.0291
15301SOL    HW246603   2.516   6.002   5.546 -0.3510  0.4373  0.2170
15302SOL     OW46604   7.790   0.874   1.400  0.1707  0.4841  0.2931
15302SOL    HW146605   7.793   0.805   1.467  1.2631  0.3063  0.0755
15302SOL    HW246606   7.749   0.833   1.324 -1.0699  0.6840  0.8321
15303SOL     OW46607   7.974   5.655   0.258  0.1381 -0.2403  0.1468
15303SOL    HW146608   7.883   5.646   0.285  0.2689 -2.4916  0.0469
15303SOL    HW246609   7.974   5.635   0.165  0.6692  0.3859  0.0005
15304SOL     OW46610   4.036   4.981   3.430  0.4376 -0.4287  0.4224
15304SOL    HW146611   4.108   4.945   3.482  1.0898  0.6508  0.3057
15304SOL    HW246612   4.009   4.909   3.373  1.8444 -0.6784  0.0325
15305SOL     OW46613   4.915   7.016   2.309  0.4431 -0.0163 -0.5197
15305SOL    HW146614   4.888   6.959   2.380  0.4417  0.0681 -0.4520
15305SOL    HW246615   5.010   7.003   2.301  0.4325 -0.0757 -0.5466
15306SOL     OW46616   3.878   7.690   3.556  0.4799 -0.4535  0.1262
15306SOL    HW146617   3.783   7.691   3.569  0.0646 -1.4472 -2.2805
15306SOL    HW246618   3.906   7.780   3.572 -1.4747  0.7922 -2.6107
15307SOL     OW46619   0.729   1.023   0.848  0.2242  0.3674 -0.2484
15307SOL    HW146620   0.700   0.932   0.860  0.5920  0.0778 -1.4319
15307SOL    HW246621   0.811   1.015   0.800  2.3672  1.1645  2.9552
15308SOL     OW46622   6.290   2.398   3.340  0.2314  0.3804 -0.2897
15308SOL    HW146623   6.328   2.313   3.361  1.3070  0.4670 -1.6927
15308SOL    HW246624   6.197   2.389   3.359  0.4630 -0.8544  0.3262
15309SOL     OW46625   4.115   4.501   7.518 -0.1917 -0.4238 -0.0172
15309SOL    HW146626   4.190   4.518   7.574  0.0969  1.0664 -0.8190
15309SOL    HW246627   4.146   4.433   7.457  0.1318 -0.6253  0.3689
15310SOL     OW46628   3.530   1.241   5.223 -0.0997 -0.3392  0.5328
15310SOL    HW146629   3.517   1.149   5.245 -0.8531 -0.3966 -0.1257
15310SOL    HW246630   3.620   1.244   5.189 -0.8853 -1.3321 -1.8278
15311SOL     OW46631   0.789   5.950   2.247 -0.2369  0.2527 -0.2115
15311SOL    HW146632   0.863   6.008   2.265  0.8512 -0.8545 -0.9043
15311SOL    HW246633   0.727   6.004   2.200 -0.4942  1.5723  1.5672
15312SOL     OW46634   2.496   3.825   5.970  0.3576  0.2957 -0.3080
15312SOL    HW146635   2.472   3.746   6.018  0.6800  2.2333  3.3607
15312SOL    HW246636   2.413   3.858   5.935 -0.4134  0.3504  1.4921
15313SOL     OW46637   3.271   4.897   6.722 -0.1765 -0.0439  0.0839
15313SOL    HW146638   3.239   4.834   6.658 -3.3932  1.6910 -0.1984
15313SOL    HW246639   3.334   4.951   6.673  0.9828 -1.6058 -0.2310
15314SOL     OW46640   1.482   1.293   3.280 -0.2964 -0.1436  0.8055
15314SOL    HW146641   1.551   1.354   3.305 -1.1013 -0.0292  3.0690
15314SOL    HW246642   1.401   1.340   3.302 -1.2165  0.0318 -2.4752
15315SOL     OW46643   2.260   6.645   4.752  0.1791  0.1660 -0.4469
15315SOL    HW146644   2.181   6.680   4.792  0.0975  1.2687 -1.4891
15315SOL    HW246645   2.299   6.589   4.819 -0.2224  1.4979  0.9705
15316SOL     OW46646   5.148   6.768   1.418  0.1395 -0.2007  0.6156
15316SOL    HW146647   5.118   6.681   1.444  1.4070 -0.5554  0.9871
15316SOL    HW246648   5.203   6.797   1.491  0.3786  0.5655  0.1412
15317SOL     OW46649   0.185   0.996   1.522  0.3435  0.3701  0.2347
15317SOL    HW146650   0.145   1.083   1.523 -0.7562 -0.0693 -1.2501
15317SOL    HW246651   0.150   0.953   1.599 -1.0143  0.4663 -0.3022
15318SOL     OW46652   1.563   4.545   2.391  0.5499 -0.1953  0.1226
15318SOL    HW146653   1.529   4.484   2.325 -0.0598  0.5289 -0.2507
15318SOL    HW246654   1.562   4.630   2.347  0.0171  0.3208  1.1156
15319SOL     OW46655   4.541   5.985   5.346 -0.0782  1.0759 -0.9673
15319SOL    HW146656   4.602   5.915   5.370 -1.9712  0.3239  2.3715
15319SOL    HW246657   4.566   6.059   5.401 -0.1895  1.8895 -1.9817
15320SOL     OW46658   6.586   4.641   0.032  0.0052 -0.4281 -0.4986
15320SOL    HW146659   6.554   4.680   0.113  0.5617  0.9311 -0.9107
15320SOL    HW246660   6.677   4.670   0.026  0.6468 -2.3012 -0.5317
15321SOL     OW46661   7.648   5.494   6.374 -0.8820 -0.2650 -0.3724
15321SOL    HW146662   7.614   5.496   6.284 -1.3196 -0.5485 -0.2151
15321SOL    HW246663   7.608   5.569   6.417 -0.5412 -0.0314 -0.4560
15322SOL     OW46664   5.834   1.612   0.362  0.1959 -0.0352 -0.2008
15322SOL    HW146665   5.848   1.536   0.305 -1.2918 -0.7912  0.3853
15322SOL    HW246666   5.892   1.679   0.327  0.8332 -1.1313 -1.3389
15323SOL     OW46667   4.183   4.923   6.358 -0.0886  0.4814  0.2104
15323SOL    HW146668   4.145   4.845   6.317  0.6125  0.1102  0.2534
15323SOL    HW246669   4.153   4.996   6.305  0.4691  0.0481 -0.7225
15324SOL     OW46670   3.609   3.163   2.539 -0.0515 -0.6624  0.0500
15324SOL    HW146671   3.584   3.095   2.601 -0.6987 -0.2713  0.2219
15324SOL    HW246672   3.582   3.129   2.454 -0.1616 -0.7220  0.1096
15325SOL     OW46673   5.881   1.894   4.652  0.9842 -0.2082 -0.3171
15325SOL    HW146674   5.847   1.805   4.646 -0.3634  0.2052  0.8805
15325SOL    HW246675   5.897   1.920   4.561  1.9345 -1.8435 -0.6491
15326SOL     OW46676   7.327   2.132   2.912 -0.1887  0.4355 -0.1474
15326SOL    HW146677   7.360   2.042   2.911 -3.6993 -0.9995 -0.9228
15326SOL    HW246678   7.335   2.160   3.003  0.8558 -0.6512  0.1289
15327SOL     OW46679   6.796   3.387   3.729  0.5070 -0.0389  0.1202
15327SOL    HW146680   6.849   3.368   3.806  0.2076 -1.3910  0.0247
15327SOL    HW246681   6.707   3.359   3.754  0.4540 -0.7287 -0.7847
15328SOL     OW46682   0.703   1.783   4.943  0.1050 -0.6173 -0.2031
15328SOL    HW146683   0.787   1.737   4.940  0.7473  0.5626 -0.5672
15328SOL    HW246684   0.712   1.847   5.013 -0.6693 -0.8055  0.0798
15329SOL     OW46685   0.146   6.023   2.011  0.7138 -0.5753 -0.1011
15329SOL    HW146686   0.101   6.018   2.095  1.0437  1.6932  0.2664
15329SOL    HW246687   0.238   6.006   2.032  0.5378 -1.9836 -0.3539
15330SOL     OW46688   1.595   4.535   5.750 -0.6030 -0.4906  0.5049
15330SOL    HW146689   1.668   4.592   5.727 -1.8026  1.0050  0.2507
15330SOL    HW246690   1.630   4.476   5.817  1.6700 -1.8216 -1.6663
15331SOL     OW46691   1.335   1.746   4.184 -0.1861  0.2023 -0.2012
15331SOL    HW146692   1.287   1.826   4.166  0.7380  0.6307 -0.9041
15331SOL    HW246693   1.405   1.745   4.118 -0.7826 -1.6971 -0.8912
15332SOL     OW46694   5.678   4.033   4.102  0.3559  0.2998 -0.6213
15332SOL    HW146695   5.720   4.115   4.129  1.9361 -0.2276 -1.3543
15332SOL    HW246696   5.659   4.045   4.009  0.3351 -0.0473 -0.6648
15333SOL     OW46697   2.828   1.063   1.335  0.1882 -0.5264 -0.0597
15333SOL    HW146698   2.859   1.018   1.256  0.7458  1.0521 -0.7860
15333SOL    HW246699   2.905   1.109   1.368 -1.0631  2.9936 -1.5508
15334SOL     OW46700   0.171   0.591   7.918  0.6470  0.1026 -0.1517
15334SOL    HW146701   0.148   0.671   7.966 -0.0075 -0.5188  0.6018
15334SOL    HW246702   0.185   0.620   7.828 -2.0788  0.7230 -0.4628
15335SOL     OW46703   6.704   4.538   7.197 -0.0128  0.1662 -0.0167
15335SOL    HW146704   6.744   4.537   7.284  0.7545 -0.5991 -0.3694
15335SOL    HW246705   6.761   4.484   7.143 -1.1551 -0.3891 -0.7094
15336SOL     OW46706   5.876   0.261   7.578  0.2912 -0.0932  0.2746
15336SOL    HW146707   5.808   0.320   7.546 -0.1287 -0.7241 -0.0306
15336SOL    HW246708   5.845   0.173   7.554  1.3828 -0.3765 -0.1997
15337SOL     OW46709   6.132   6.076   2.531 -0.2203 -0.1120 -0.1232
15337SOL    HW146710   6.059   6.138   2.526 -0.3564 -0.3257 -0.8209
15337SOL    HW246711   6.097   6.003   2.583 -0.1995  0.1978  0.3307
15338SOL     OW46712   0.036   5.843   2.522 -0.1758  0.2511  0.2972
15338SOL    HW146713   0.116   5.790   2.521 -1.0958 -1.2095  0.4632
15338SOL    HW246714   0.016   5.853   2.615  0.0073  0.9167  0.2641
15339SOL     OW46715   6.336   1.213   3.270 -0.1907 -0.5905 -0.0510
15339SOL    HW146716   6.353   1.211   3.176 -0.3320 -1.9018 -0.0592
15339SOL    HW246717   6.307   1.303   3.286 -1.8214 -0.7906 -1.5608
15340SOL     OW46718   4.793   4.831   3.670 -0.3373  0.0849  0.4717
15340SOL    HW146719   4.799   4.748   3.624  0.3207  0.1960  0.3474
15340SOL    HW246720   4.850   4.890   3.621  0.3448  0.2181  1.3966
15341SOL     OW46721   3.589   5.890   0.501  0.0543  0.0755 -0.0019
15341SOL    HW146722   3.634   5.967   0.536 -0.4336 -0.3909  1.7690
15341SOL    HW246723   3.612   5.889   0.408  0.5636  2.0010  0.0557
15342SOL     OW46724   3.056   7.307   3.642  0.0204 -0.4258  0.0961
15342SOL    HW146725   3.145   7.271   3.641  0.4643  0.5377  1.3475
15342SOL    HW246726   3.061   7.384   3.585 -0.4241 -1.2130 -1.0349
15343SOL     OW46727   1.729   7.032   4.815  0.7725  0.5041  0.0934
15343SOL    HW146728   1.690   7.055   4.899  1.2382 -0.6141  0.6456
15343SOL    HW246729   1.700   7.100   4.754 -0.9195  0.4368  0.7852
15344SOL     OW46730   5.249   5.880   1.865 -0.3474  0.3591 -0.1273
15344SOL    HW146731   5.206   5.875   1.951  1.1974  1.0813  0.7349
15344SOL    HW246732   5.329   5.829   1.876 -1.5968 -2.2527 -2.1571
15345SOL     OW46733   1.792   6.712   5.265  0.0417  0.0701 -0.1735
15345SOL    HW146734   1.722   6.648   5.280 -1.3709  1.1881 -1.6071
15345SOL    HW246735   1.794   6.723   5.170 -0.7758  3.1779  0.0692
15346SOL     OW46736   0.772   0.937   7.163 -0.3065  0.0189  0.1537
15346SOL    HW146737   0.817   0.872   7.218 -1.4839  0.0354  1.1912
15346SOL    HW246738   0.791   1.021   7.205 -0.4214  0.1331 -0.0233
15347SOL     OW46739   5.405   1.590   2.029 -0.0009 -0.3201  0.8119
15347SOL    HW146740   5.381   1.624   2.115  2.8634  0.7244  1.3291
15347SOL    HW246741   5.468   1.520   2.048 -0.2544 -0.8923 -0.4086
15348SOL     OW46742   5.230   5.708   2.630 -0.4727  0.5672 -0.2202
15348SOL    HW146743   5.306   5.766   2.633 -1.4328  1.8485 -0.3014
15348SOL    HW246744   5.190   5.718   2.716  0.9236 -2.2045  0.8909
15349SOL     OW46745   4.442   5.416   4.498  0.4759  0.1390 -0.4323
15349SOL    HW146746   4.431   5.510   4.514  1.7852  0.4104 -1.0132
15349SOL    HW246747   4.492   5.411   4.417 -1.0441 -1.1067 -1.3540
15350SOL     OW46748   7.389   5.220   3.042  0.1182  0.1561 -0.9031
15350SOL    HW146749   7.466   5.235   3.097 -0.0426  1.5884 -1.0225
15350SOL    HW246750   7.317   5.262   3.089 -0.0362  1.3124 -2.1124
15351SOL     OW46751   4.722   4.757   0.048  0.2169  0.2953  0.4696
15351SOL    HW146752   4.731   4.841   0.002  1.7315  0.4750  1.0472
15351SOL    HW246753   4.647   4.715   0.006  2.1356 -0.0404 -2.9413
15352SOL     OW46754   2.135   3.838   4.386 -0.2186 -0.4933  0.0935
15352SOL    HW146755   2.219   3.883   4.396 -0.5445  0.1246  0.1362
15352SOL    HW246756   2.118   3.799   4.471 -0.8836  1.0167  0.6901
15353SOL     OW46757   0.366   2.698   0.289  0.1478 -0.0307 -0.1116
15353SOL    HW146758   0.393   2.647   0.213  0.3178 -0.7561  0.4216
15353SOL    HW246759   0.308   2.640   0.338  0.7151  0.1107  0.7501
15354SOL     OW46760   7.754   2.121   2.564  0.4504  0.4358  0.1144
15354SOL    HW146761   7.684   2.182   2.587  2.0018  2.0767  0.7401
15354SOL    HW246762   7.799   2.104   2.646  2.5945  1.8415 -0.6724
15355SOL     OW46763   4.028   5.150   0.072 -0.0112  0.6974  0.2653
15355SOL    HW146764   4.066   5.121   0.155 -0.8601 -0.1953  0.3487
15355SOL    HW246765   4.022   5.071   0.019  1.1717  1.3725 -0.9271
15356SOL     OW46766   2.768   7.879   3.046  0.5843 -0.6278  0.0074
15356SOL    HW146767   2.672   7.882   3.047  0.6174  1.0178  0.5959
15356SOL    HW246768   2.794   7.941   2.978  1.2475 -2.2158 -1.2533
15357SOL     OW46769   5.710   4.087   5.964 -0.7043 -0.5903  0.5268
15357SOL    HW146770   5.722   3.993   5.975  2.0521 -0.2902  0.7900
15357SOL    HW246771   5.710   4.121   6.054 -1.9708 -0.3099  0.4488
15358SOL     OW46772   3.492   5.168   3.449  0.0966 -0.1774 -0.0798
15358SOL    HW146773   3.531   5.161   3.362 -0.2169  1.1583 -0.3408
15358SOL    HW246774   3.420   5.104   3.448  0.4087 -0.5258 -0.6189
15359SOL     OW46775   3.141   6.578   7.500 -0.2353 -0.0429 -0.5294
15359SOL    HW146776   3.119   6.505   7.442 -0.4537 -0.9662  0.6616
15359SOL    HW246777   3.235   6.589   7.491 -0.1886 -0.5294 -0.6660
15360SOL     OW46778   3.929   2.497   7.079 -0.9287 -0.3838 -0.5124
15360SOL    HW146779   3.863   2.563   7.101 -0.0782  0.3374 -0.0458
15360SOL    HW246780   3.882   2.414   7.080 -2.0785  0.2259 -1.3293
15361SOL     OW46781   0.569   4.495   6.854  0.8053  0.6462  0.2336
15361SOL    HW146782   0.591   4.416   6.903  0.8884  0.9256  0.6544
15361SOL    HW246783   0.486   4.524   6.890  0.6685  0.6357 -0.0662
15362SOL     OW46784   2.568   2.244   0.707  0.6554 -0.5027 -0.2136
15362SOL    HW146785   2.563   2.234   0.802  0.5135 -0.3210 -0.2006
15362SOL    HW246786   2.649   2.292   0.692 -0.6578  1.9722  0.0327
15363SOL     OW46787   4.169   3.318   3.463  0.2145 -0.1887 -0.0812
15363SOL    HW146788   4.083   3.281   3.444 -0.2703  0.7536  0.2375
15363SOL    HW246789   4.164   3.408   3.432  1.6335 -0.5637 -1.5709
15364SOL     OW46790   1.228   7.418   7.335  0.3307 -0.2236  0.5424
15364SOL    HW146791   1.257   7.389   7.422  0.4681 -2.1058 -0.0913
15364SOL    HW246792   1.136   7.395   7.331  0.1985  0.3153  0.3512
15365SOL     OW46793   1.550   0.195   6.931 -0.1463 -0.5309  1.4719
15365SOL    HW146794   1.582   0.107   6.951 -0.3893 -1.3060 -1.1187
15365SOL    HW246795   1.615   0.231   6.871 -0.4544  0.7642  1.8850
15366SOL     OW46796   2.073   5.600   6.158 -0.3324 -1.3180 -0.7058
15366SOL    HW146797   2.163   5.569   6.170  0.0151 -0.7372 -1.6208
15366SOL    HW246798   2.076   5.650   6.076 -1.1066  0.1387  0.1066
15367SOL     OW46799   2.021   5.967   2.954 -0.6108  0.4858  0.5537
15367SOL    HW146800   2.099   6.023   2.954 -0.0460 -0.2802  1.5469
15367SOL    HW246801   1.980   5.984   2.869  1.5827 -0.3846 -0.7725
15368SOL     OW46802   3.935   7.126   7.421 -0.5279 -0.3957  0.2032
15368SOL    HW146803   3.907   7.131   7.329  0.3001 -0.5544 -0.0709
15368SOL    HW246804   3.854   7.117   7.471 -1.1639  1.6920 -0.3450
15369SOL     OW46805   4.502   2.272   0.070  0.1639 -0.1237 -0.4023
15369SOL    HW146806   4.462   2.328   0.004  2.0622 -0.4758 -1.9428
15369SOL    HW246807   4.474   2.183   0.047 -0.9568 -0.0687  0.6443
15370SOL     OW46808   3.170   5.044   5.899  0.3012  0.1407  0.0633
15370SOL    HW146809   3.128   5.098   5.966  2.0378  1.8069 -0.0837
15370SOL    HW246810   3.193   5.106   5.829  0.1884 -1.2375 -1.2587
15371SOL     OW46811   1.124   0.656   3.884 -0.0609  0.0119 -0.4716
15371SOL    HW146812   1.134   0.683   3.976 -0.6258  0.6630 -0.6003
15371SOL    HW246813   1.157   0.566   3.883  1.5683  0.5512  0.0255
15372SOL     OW46814   1.476   3.567   7.504  0.0325  0.0230  0.9301
15372SOL    HW146815   1.452   3.644   7.451  1.3667 -0.2345 -0.1119
15372SOL    HW246816   1.529   3.602   7.575  0.8106  0.0513  0.3398
15373SOL     OW46817   6.449   5.959   6.887 -0.3315 -0.5857 -0.3803
15373SOL    HW146818   6.523   5.918   6.842  0.1310  0.1120 -0.2631
15373SOL    HW246819   6.489   6.014   6.954 -0.9923 -0.9081  0.2845
15374SOL     OW46820   7.739   0.808   1.758  0.5465 -0.1927 -0.6150
15374SOL    HW146821   7.671   0.770   1.813  1.2984 -2.4264 -1.1238
15374SOL    HW246822   7.738   0.901   1.779  0.4449 -0.8430  2.8086
15375SOL     OW46823   6.033   7.151   4.438 -1.3205 -0.1308  0.3178
15375SOL    HW146824   6.082   7.231   4.456 -0.4335 -0.6096  0.0791
15375SOL    HW246825   5.946   7.168   4.474 -1.5583  1.4519 -0.8931
15376SOL     OW46826   7.901   4.497   5.946 -0.5141 -0.0127  0.5949
15376SOL    HW146827   7.897   4.592   5.957 -1.6011 -0.0947  1.0346
15376SOL    HW246828   7.883   4.462   6.034  0.2443 -0.6354  0.5186
15377SOL     OW46829   5.950   5.712   0.029 -0.1606  0.4758 -0.6849
15377SOL    HW146830   5.856   5.711   0.009 -0.7907  1.2166  1.8338
15377SOL    HW246831   5.969   5.624   0.060  0.2361  0.0616 -2.0188
15378SOL     OW46832   2.952   1.331   6.565 -0.5038  0.0268  0.0669
15378SOL    HW146833   2.929   1.415   6.526 -0.7662  0.0876  0.3486
15378SOL    HW246834   2.888   1.269   6.527 -0.3348 -0.0404 -0.1113
15379SOL     OW46835   5.034   2.773   2.158  0.1140 -0.2546 -0.9428
15379SOL    HW146836   5.083   2.690   2.165  0.4723 -0.0153 -0.5458
15379SOL    HW246837   4.997   2.786   2.245 -0.3990 -0.2716 -1.1565
15380SOL     OW46838   6.413   4.976   4.875  0.3853 -0.2221 -0.2992
15380SOL    HW146839   6.497   4.964   4.919 -1.0047 -0.0188  2.6589
15380SOL    HW246840   6.355   4.912   4.916 -1.3105  0.7259 -1.1086
15381SOL     OW46841   2.693   0.142   4.578  0.0573  0.6659 -0.0041
15381SOL    HW146842   2.622   0.079   4.566  1.2991 -0.8836  0.4476
15381SOL    HW246843   2.651   0.220   4.613 -1.3132 -0.5241  1.1044
15382SOL     OW46844   1.264   2.775   0.912 -0.4156  0.4274 -0.0183
15382SOL    HW146845   1.326   2.805   0.978 -0.2130  0.7641 -0.3595
15382SOL    HW246846   1.311   2.782   0.829 -0.9966  0.9593 -0.3135
15383SOL     OW46847   6.550   3.411   7.512 -0.1034 -0.3060  0.2619
15383SOL    HW146848   6.627   3.451   7.472  0.4963 -0.5773  1.1183
15383SOL    HW246849   6.525   3.342   7.451 -1.0116  1.1831 -1.1175
15384SOL     OW46850   7.428   5.360   4.449  0.1698 -0.0152 -0.0741
15384SOL    HW146851   7.340   5.370   4.483 -0.1741 -0.8862 -0.6619
15384SOL    HW246852   7.476   5.437   4.480 -0.6209  0.1361  0.7824
15385SOL     OW46853   1.644   3.832   5.477  0.1248  0.1294 -0.0729
15385SOL    HW146854   1.662   3.831   5.383  0.8943 -1.6996  0.0652
15385SOL    HW246855   1.549   3.816   5.484  0.1186 -0.0363 -0.5237
15386SOL     OW46856   5.957   7.302   6.061 -0.2411 -0.0479 -0.0991
15386SOL    HW146857   6.026   7.283   5.997  0.3444  0.4584  0.3574
15386SOL    HW246858   5.914   7.381   6.027  0.5066  0.6162  0.4471
15387SOL     OW46859   1.977   1.784   0.385  0.2014  0.1754 -0.1477
15387SOL    HW146860   1.988   1.868   0.339  2.1594  1.0811  1.7983
15387SOL    HW246861   1.903   1.799   0.444  0.5673  0.5425  0.2182
15388SOL     OW46862   6.462   4.778   4.661 -0.2342 -0.1267 -0.2648
15388SOL    HW146863   6.498   4.772   4.572 -0.9501  2.2752 -0.7831
15388SOL    HW246864   6.515   4.844   4.705 -0.1149 -1.0308  1.0255
15389SOL     OW46865   0.879   1.150   2.395  0.1501 -0.3683  0.1787
15389SOL    HW146866   0.882   1.220   2.330 -1.2101  0.3899  0.8948
15389SOL    HW246867   0.943   1.177   2.461  1.6828 -1.2377 -0.8664
15390SOL     OW46868   7.277   3.419   3.906 -0.3862 -0.3733 -0.3434
15390SOL    HW146869   7.212   3.350   3.891 -1.9501  0.8990  0.2355
15390SOL    HW246870   7.361   3.375   3.901 -1.3270 -2.2941 -0.0820
15391SOL     OW46871   5.546   4.850   0.544  0.3654  0.1466 -0.4974
15391SOL    HW146872   5.549   4.797   0.464  2.4672 -1.2997  0.4527
15391SOL    HW246873   5.532   4.939   0.513  2.2310 -0.1964 -2.6007
15392SOL     OW46874   7.030   3.838   1.534  0.2174  0.3610 -0.6627
15392SOL    HW146875   6.955   3.842   1.593  1.4804 -0.4829  1.0967
15392SOL    HW246876   7.057   3.746   1.536  1.7740  0.7903 -0.5716
15393SOL     OW46877   0.578   3.686   7.687 -0.4505 -0.3475  0.1032
15393SOL    HW146878   0.636   3.610   7.685  0.3808  0.2703  0.3366
15393SOL    HW246879   0.491   3.649   7.704 -0.1530 -1.2915 -0.3427
15394SOL     OW46880   5.761   5.376   2.769  0.3206  0.2135 -0.3149
15394SOL    HW146881   5.762   5.457   2.717 -1.5896  0.2335 -0.3815
15394SOL    HW246882   5.785   5.404   2.857  4.0039  0.1241 -1.1299
15395SOL     OW46883   3.227   0.808   5.156 -0.1973 -0.2520  0.4002
15395SOL    HW146884   3.272   0.812   5.071  1.5628  1.4496  1.3283
15395SOL    HW246885   3.145   0.763   5.137  1.1744 -2.0795 -1.7161
15396SOL     OW46886   0.818   0.298   1.226 -0.5097 -0.0039  0.6870
15396SOL    HW146887   0.779   0.315   1.311  0.8854  1.3801  1.0935
15396SOL    HW246888   0.876   0.223   1.240  0.0574  0.4994  1.0880
15397SOL     OW46889   5.447   1.714   2.858  0.5842 -0.7236  0.1694
15397SOL    HW146890   5.440   1.618   2.850  0.0061 -0.6805  0.0826
15397SOL    HW246891   5.509   1.739   2.790  0.7165 -1.0365  0.1727
15398SOL     OW46892   5.806   1.392   1.577  0.2686 -0.3945 -0.8982
15398SOL    HW146893   5.867   1.346   1.634  0.1109 -0.7474 -1.0091
15398SOL    HW246894   5.751   1.444   1.636  0.9163  0.2201 -0.8266
15399SOL     OW46895   6.470   3.604   5.684  0.2408  0.3057 -0.5038
15399SOL    HW146896   6.418   3.670   5.640 -1.1666 -1.0717 -1.0012
15399SOL    HW246897   6.551   3.599   5.633 -0.2613  0.5927 -1.3344
15400SOL     OW46898   0.965   7.793   3.531 -0.1184 -0.1584 -0.0236
15400SOL    HW146899   0.992   7.748   3.451 -0.4578  0.6880 -0.6368
15400SOL    HW246900   1.044   7.796   3.585  0.8063  1.4036 -1.3601
15401SOL     OW46901   1.323   0.537   7.494  0.2517 -0.0296 -0.4839
15401SOL    HW146902   1.401   0.549   7.548 -0.3112  0.5446  0.2185
15401SOL    HW246903   1.274   0.618   7.503 -0.1757 -0.1802 -1.3435
15402SOL     OW46904   3.122   6.923   3.726  0.1962 -0.3791  0.3818
15402SOL    HW146905   3.215   6.925   3.707  0.5432 -0.6695  1.8890
15402SOL    HW246906   3.108   6.999   3.784 -0.2039 -1.1130  1.2802
15403SOL     OW46907   7.286   1.399   3.722 -0.2606  0.1775 -0.5154
15403SOL    HW146908   7.210   1.342   3.737  0.3135 -0.7570 -1.0545
15403SOL    HW246909   7.322   1.414   3.809  0.1202 -1.0635 -0.4421
15404SOL     OW46910   5.264   4.723   0.642  0.3636 -0.2729 -0.1404
15404SOL    HW146911   5.312   4.769   0.574 -0.7619  0.1757 -0.6496
15404SOL    HW246912   5.172   4.731   0.616  0.1224 -3.1453 -0.4987
15405SOL     OW46913   5.564   0.599   5.884  0.5183 -0.2270  0.0773
15405SOL    HW146914   5.529   0.511   5.901  1.4403 -1.0166 -1.7476
15405SOL    HW246915   5.657   0.584   5.868  0.4488  0.8431 -1.6116
15406SOL     OW46916   1.388   3.184   6.248  0.2853 -0.0295 -0.1176
15406SOL    HW146917   1.351   3.225   6.326  2.1029 -0.7711  1.2076
15406SOL    HW246918   1.390   3.254   6.183 -1.4187  0.5600  0.4052
15407SOL     OW46919   4.456   3.361   3.152  0.2706  0.3779  0.9861
15407SOL    HW146920   4.429   3.309   3.227  1.6536  0.1884  1.3830
15407SOL    HW246921   4.498   3.438   3.190  2.1861 -0.3516  0.4520
15408SOL     OW46922   1.968   1.875   2.380 -0.5246 -0.7372 -0.4261
15408SOL    HW146923   2.059   1.899   2.397 -0.7580 -0.7503  0.9397
15408SOL    HW246924   1.974   1.792   2.333  0.1657 -2.3161  2.2850
15409SOL     OW46925   2.226   2.615   1.118 -0.3679  0.3395 -0.1381
15409SOL    HW146926   2.269   2.691   1.158 -0.0719 -0.5165  1.2813
15409SOL    HW246927   2.139   2.614   1.157 -0.6745  0.4507 -0.8234
15410SOL     OW46928   1.380   6.947   4.034  0.4283 -0.2640  0.3648
15410SOL    HW146929   1.304   6.893   4.015 -0.4756  0.2285  2.2735
15410SOL    HW246930   1.449   6.915   3.976 -0.5989 -2.2155  0.1703
15411SOL     OW46931   7.671   7.789   1.422 -0.1667  0.0810 -0.4131
15411SOL    HW146932   7.733   7.812   1.491 -1.2300 -0.0963  0.6191
15411SOL    HW246933   7.708   7.828   1.343  1.2094  0.0599  0.1929
15412SOL     OW46934   4.898   6.622   5.202  0.1726 -0.6591  0.6937
15412SOL    HW146935   4.947   6.661   5.275 -0.6962  0.5242  0.6735
15412SOL    HW246936   4.948   6.649   5.124  0.3308 -0.7543  0.7605
15413SOL     OW46937   5.329   4.521   3.243  0.0615 -0.0866 -0.2573
15413SOL    HW146938   5.332   4.555   3.332 -0.6008 -0.2787 -0.1599
15413SOL    HW246939   5.306   4.596   3.189 -1.3390 -0.3405 -0.0494
15414SOL     OW46940   5.388   3.104   5.476  0.5996 -0.1161  0.4096
15414SOL    HW146941   5.336   3.180   5.499 -0.3751 -0.7249  0.3049
15414SOL    HW246942   5.325   3.041   5.441  1.5520 -0.4853 -0.7378
15415SOL     OW46943   1.971   6.920   0.792 -0.2492 -0.2389  0.1208
15415SOL    HW146944   2.054   6.890   0.829  0.0975 -0.4959 -0.8389
15415SOL    HW246945   1.996   6.995   0.737 -0.8997  0.8481  1.2421
15416SOL     OW46946   6.653   0.367   4.171  0.3921 -0.1176  0.6236
15416SOL    HW146947   6.665   0.387   4.078  1.2359  1.0005  0.9496
15416SOL    HW246948   6.594   0.436   4.203  1.6725  0.6823  1.3244
15417SOL     OW46949   0.152   7.385   5.763  0.2770 -0.2897  0.2018
15417SOL    HW146950   0.181   7.460   5.711  2.0414 -1.8026 -1.1649
15417SOL    HW246951   0.123   7.321   5.698  0.5189 -1.4498  1.1939
15418SOL     OW46952   4.998   0.107   1.535  0.0234  0.1269  0.1224
15418SOL    HW146953   5.027   0.109   1.626 -0.9853 -1.2896  0.5033
15418SOL    HW246954   4.903   0.118   1.539 -0.1761 -1.0384 -0.6358
15419SOL     OW46955   2.122   3.970   3.566  0.2117  0.4556 -0.1850
15419SOL    HW146956   2.088   3.933   3.647  1.8269 -0.2997  0.1856
15419SOL    HW246957   2.153   4.057   3.591  0.5380  0.2947 -0.0168
15420SOL     OW46958   1.597   6.019   5.344  0.0427 -0.2758 -0.2610
15420SOL    HW146959   1.506   6.017   5.372  0.6036 -1.0855  1.6846
15420SOL    HW246960   1.622   5.926   5.336  0.7645 -0.0657 -0.5532
15421SOL     OW46961   1.495   4.638   7.813  0.3838  0.0291  0.3133
15421SOL    HW146962   1.451   4.564   7.857 -1.2021  0.8100  0.1113
15421SOL    HW246963   1.504   4.704   7.882 -1.9900  1.2084 -0.3943
15422SOL     OW46964   3.072   5.726   5.693  0.0535  0.1088 -0.0107
15422SOL    HW146965   3.016   5.653   5.666  0.6437 -0.0019 -0.9717
15422SOL    HW246966   3.037   5.802   5.646  0.4285  0.1307 -0.2559
15423SOL     OW46967   2.414   7.522   5.732  0.6735  0.0019 -0.3240
15423SOL    HW146968   2.442   7.544   5.643  0.1973  0.7729 -0.2916
15423SOL    HW246969   2.321   7.498   5.723  1.1609 -2.0776 -0.3617
15424SOL     OW46970   7.633   5.511   4.606  0.4357 -0.4478 -0.4347
15424SOL    HW146971   7.648   5.592   4.556 -0.0840  0.8872  1.4575
15424SOL    HW246972   7.718   5.493   4.647 -0.1798  1.0624  1.7248
15425SOL     OW46973   2.338   0.979   0.928  0.3146  0.5995 -0.0307
15425SOL    HW146974   2.246   0.981   0.955 -0.1472 -1.9153 -1.1383
15425SOL    HW246975   2.360   0.886   0.927  2.8537  1.1511  0.0619
15426SOL     OW46976   4.814   2.634   7.653  0.1752 -0.2798 -0.3778
15426SOL    HW146977   4.791   2.716   7.609 -1.8758 -0.1929  0.7002
15426SOL    HW246978   4.861   2.584   7.587 -1.0318  0.6369 -2.0097
15427SOL     OW46979   1.921   4.157   3.736 -0.2850 -0.2763  0.2619
15427SOL    HW146980   1.996   4.214   3.752  0.1124 -0.7478  0.1211
15427SOL    HW246981   1.943   4.076   3.783 -0.7532 -0.3810  0.3046
15428SOL     OW46982   4.732   5.012   1.727 -0.8526  0.0841 -0.3646
15428SOL    HW146983   4.793   4.997   1.654 -0.6568 -0.2639 -0.1342
15428SOL    HW246984   4.648   5.029   1.685 -0.3596  1.7796 -0.7264
15429SOL     OW46985   2.905   3.316   1.159  0.0243 -0.2546  0.7027
15429SOL    HW146986   2.867   3.342   1.075 -0.0566 -0.6663  0.6102
15429SOL    HW246987   2.863   3.373   1.223  1.8078  1.7245  0.2205
15430SOL     OW46988   2.243   6.574   1.533 -0.4635  0.3288 -0.4028
15430SOL    HW146989   2.309   6.549   1.468  0.1444  1.2592 -0.1598
15430SOL    HW246990   2.203   6.653   1.498 -2.1132 -0.7021 -0.9825
15431SOL     OW46991   1.943   6.361   5.748  0.1786 -0.0928  0.1951
15431SOL    HW146992   2.015   6.384   5.690  1.6334  0.5762  2.1520
15431SOL    HW246993   1.870   6.415   5.719  1.8263  2.7658  1.0006
15432SOL     OW46994   3.986   6.273   3.924  0.1674 -0.2671  0.3112
15432SOL    HW146995   4.020   6.336   3.988  1.7234 -0.3695 -0.3522
15432SOL    HW246996   4.047   6.199   3.930  0.5323 -0.1407 -1.4894
15433SOL     OW46997   2.015   5.471   7.836  0.2192 -0.0507  0.0674
15433SOL    HW146998   1.994   5.541   7.774  3.1729  0.0048 -1.0609
15433SOL    HW246999   1.984   5.391   7.794 -0.9997  0.3049  0.2442
15434SOL     OW47000   1.839   3.861   6.297 -0.6178 -0.3752  0.1397
15434SOL    HW147001   1.809   3.916   6.370 -0.1108  0.2412 -0.1011
15434SOL    HW247002   1.932   3.848   6.315 -0.5266 -0.3533 -0.3098
15435SOL     OW47003   0.725   0.733   7.757 -0.4285 -0.2529 -0.2172
15435SOL    HW147004   0.668   0.705   7.828 -1.9173  2.5382 -0.1610
15435SOL    HW247005   0.807   0.757   7.801  0.0330 -2.1187  0.0026
15436SOL     OW47006   4.334   1.623   3.905 -0.3160 -0.0290 -0.3742
15436SOL    HW147007   4.420   1.617   3.945 -1.0254 -3.7837  0.9502
15436SOL    HW247008   4.348   1.601   3.813  0.2018  0.1962 -0.3542
15437SOL     OW47009   6.435   3.768   7.813  0.0401 -0.0442  0.5204
15437SOL    HW147010   6.406   3.843   7.866  0.4386 -0.1388  0.8860
15437SOL    HW247011   6.356   3.734   7.773 -0.1021  0.7649  0.1076
15438SOL     OW47012   1.881   2.782   1.817 -0.0434  0.0447 -0.1857
15438SOL    HW147013   1.888   2.876   1.804  1.6098 -0.1705 -1.1729
15438SOL    HW247014   1.792   2.769   1.851 -0.8913  1.7861 -1.5465
15439SOL     OW47015   3.257   5.914   1.607  0.6132  0.8218 -0.0656
15439SOL    HW147016   3.189   5.980   1.595  0.2570  0.3090 -1.0190
15439SOL    HW247017   3.212   5.831   1.591  1.0547  0.3474  1.1096
15440SOL     OW47018   4.499   7.456   1.078 -0.2611  0.2539 -0.3512
15440SOL    HW147019   4.415   7.500   1.094  0.2495  0.8584  0.8393
15440SOL    HW247020   4.476   7.364   1.066 -0.9588 -0.0005  2.1954
15441SOL     OW47021   6.087   2.385   1.626 -0.1955 -0.5815  1.2328
15441SOL    HW147022   6.133   2.355   1.548  0.2775 -0.6785  1.5481
15441SOL    HW247023   5.996   2.359   1.611 -0.1888 -0.1864  0.5126
15442SOL     OW47024   0.052   3.420   6.964 -0.0126 -0.5218 -0.2753
15442SOL    HW147025   0.136   3.415   6.918 -0.2523  0.1279 -0.8129
15442SOL    HW247026   0.052   3.507   7.004  0.3945 -1.2600  1.3843
15443SOL     OW47027   6.017   7.161   0.985 -0.5410  0.1443 -0.2508
15443SOL    HW147028   5.943   7.128   1.037  0.0279  0.8733  1.0830
15443SOL    HW247029   6.094   7.137   1.036  0.0368  0.9018 -0.7499
15444SOL     OW47030   7.285   2.127   4.201 -0.3648 -1.1144 -0.0826
15444SOL    HW147031   7.191   2.124   4.219 -0.8461  1.3899 -1.6426
15444SOL    HW247032   7.302   2.047   4.151 -1.7929 -1.3549 -0.2341
15445SOL     OW47033   7.361   0.740   5.570 -0.8501 -0.2817  0.0931
15445SOL    HW147034   7.381   0.646   5.570  1.2204  0.1141 -0.1686
15445SOL    HW247035   7.368   0.765   5.662 -1.4468 -0.3831  0.1689
15446SOL     OW47036   0.126   5.008   1.579  0.1913  0.0987 -0.0904
15446SOL    HW147037   0.069   5.085   1.579 -1.5499 -1.1115  1.0767
15446SOL    HW247038   0.161   5.005   1.668  2.0506  0.7506 -0.7625
15447SOL     OW47039   3.705   0.812   4.354 -0.4473 -0.2997 -0.1950
15447SOL    HW147040   3.641   0.745   4.330 -0.1672 -0.0422 -1.7079
15447SOL    HW247041   3.679   0.889   4.305  1.2470 -0.3024 -1.1749
15448SOL     OW47042   7.012   6.705   4.433  0.5224  0.1389  0.1069
15448SOL    HW147043   7.065   6.775   4.395  0.9489 -0.1880  0.0803
15448SOL    HW247044   6.932   6.748   4.464 -0.6771  0.1516 -2.7563
15449SOL     OW47045   0.436   2.066   4.034  0.5793  0.0542  0.1898
15449SOL    HW147046   0.457   2.038   4.123 -1.2199  0.5344  0.8172
15449SOL    HW247047   0.516   2.049   3.984  1.8100  0.2238  1.9789
15450SOL     OW47048   3.115   5.662   5.163 -0.2401  1.0075  0.9736
15450SOL    HW147049   3.139   5.575   5.193 -1.7444 -0.0180 -0.6173
15450SOL    HW247050   3.144   5.665   5.072 -2.7335  1.0346  0.0926
15451SOL     OW47051   1.457   6.273   3.390 -0.1271 -0.2142  0.3134
15451SOL    HW147052   1.416   6.313   3.467 -1.0494 -1.0239  0.2718
15451SOL    HW247053   1.536   6.230   3.424  0.4020  0.8817  0.5005
15452SOL     OW47054   1.054   0.993   5.514  0.2022 -0.2973 -0.3327
15452SOL    HW147055   1.023   0.961   5.429  0.7435  1.0530 -1.0621
15452SOL    HW247056   1.139   1.033   5.495  0.9664 -1.1673  1.0884
15453SOL     OW47057   6.859   5.662   3.689  0.3005  0.0631 -0.9818
15453SOL    HW147058   6.784   5.699   3.736  0.0137  0.4242 -1.7085
15453SOL    HW247059   6.907   5.737   3.656  0.4969 -0.1833 -1.2628
15454SOL     OW47060   1.548   6.527   0.476  0.0589 -0.2389  0.3367
15454SOL    HW147061   1.462   6.531   0.519 -0.4588  1.2769 -0.7504
15454SOL    HW247062   1.589   6.610   0.498  1.2641 -0.9347  0.8040
15455SOL     OW47063   1.653   5.095   5.458  0.4503 -0.2862  0.2935
15455SOL    HW147064   1.609   5.063   5.537  0.4079  0.7182  0.6892
15455SOL    HW247065   1.732   5.041   5.451  0.5042 -0.3223  1.0791
15456SOL     OW47066   3.392   4.875   7.900  0.3073  0.2172 -0.0004
15456SOL    HW147067   3.400   4.935   7.826  0.0786 -1.8637 -1.8051
15456SOL    HW247068   3.449   4.801   7.879 -1.3020 -1.3734  0.8976
15457SOL     OW47069   6.942   7.566   6.999 -0.4013 -0.2041 -0.4922
15457SOL    HW147070   6.960   7.571   6.905  1.6370 -1.1865 -0.2207
15457SOL    HW247071   6.991   7.489   7.028  2.3373  2.2244  2.0119
15458SOL     OW47072   5.176   0.519   4.233 -0.4764  0.5369  0.1419
15458SOL    HW147073   5.096   0.563   4.263 -0.5350 -0.0872  0.9254
15458SOL    HW247074   5.145   0.453   4.171 -0.4915  0.7965 -0.1327
15459SOL     OW47075   3.259   4.689   1.725 -0.2575  0.2557  0.3290
15459SOL    HW147076   3.321   4.675   1.796 -0.6287 -0.7375  0.4675
15459SOL    HW247077   3.181   4.640   1.751 -0.4505  0.0085 -0.6859
15460SOL     OW47078   1.767   0.993   5.727  0.0638 -0.2123 -0.3859
15460SOL    HW147079   1.840   0.932   5.719 -0.7845 -1.1774 -0.9840
15460SOL    HW247080   1.721   0.985   5.644  0.1536  1.5495 -0.6392
15461SOL     OW47081   0.034   0.579   4.901  0.0708  0.2472 -0.0107
15461SOL    HW147082  -0.024   0.570   4.825 -0.4699  2.1024  0.1183
15461SOL    HW247083   0.120   0.556   4.869 -0.2044  0.7299 -1.1443
15462SOL     OW47084   7.676   7.433   4.424 -0.4740  0.3422  0.1590
15462SOL    HW147085   7.604   7.371   4.435 -2.5312  2.4172 -0.6143
15462SOL    HW247086   7.647   7.512   4.469  1.1272  1.4133 -0.5739
15463SOL     OW47087   0.646   6.940   1.930  0.0187  0.1675  0.9259
15463SOL    HW147088   0.667   7.030   1.906 -1.2848  0.3112  0.2140
15463SOL    HW247089   0.717   6.888   1.892 -0.6565  0.6481 -1.1582
15464SOL     OW47090   5.044   7.257   0.087 -0.2605 -0.0736  0.2287
15464SOL    HW147091   5.054   7.321   0.157  0.5404 -0.4649  0.4833
15464SOL    HW247092   5.051   7.308   0.006  0.9724  0.0914  0.4236
15465SOL     OW47093   5.579   2.913   7.090  0.1450 -0.0437 -0.0285
15465SOL    HW147094   5.562   2.919   6.996 -0.3709 -0.0950  0.0626
15465SOL    HW247095   5.497   2.939   7.132 -0.1427 -1.5353  0.3963
15466SOL     OW47096   7.295   7.210   2.320  0.5307 -0.1231 -0.0768
15466SOL    HW147097   7.343   7.163   2.252 -0.4711  1.5915 -2.0753
15466SOL    HW247098   7.268   7.292   2.279 -0.1429  1.0214  2.4036
15467SOL     OW47099   6.664   4.873   3.540 -0.7920  0.5937 -0.0534
15467SOL    HW147100   6.606   4.918   3.479  0.1033 -0.1040 -1.4601
15467SOL    HW247101   6.670   4.932   3.615 -2.2129  1.2941 -0.4643
15468SOL     OW47102   7.020   4.320   6.848 -0.0496  0.0833 -0.5974
15468SOL    HW147103   6.998   4.407   6.812  0.4440  0.1369 -0.7840
15468SOL    HW247104   7.096   4.292   6.796  1.8672  0.9306  1.5371
15469SOL     OW47105   6.545   3.534   6.881  0.2485  0.3315 -0.2921
15469SOL    HW147106   6.592   3.564   6.804  1.1241 -2.0684 -0.7830
15469SOL    HW247107   6.614   3.517   6.946 -0.3604  0.9864  0.5618
15470SOL     OW47108   0.355   5.164   4.117 -0.1726 -0.3123  0.1424
15470SOL    HW147109   0.329   5.084   4.164  2.2894 -0.7365  0.9157
15470SOL    HW247110   0.383   5.224   4.186  1.4138 -0.1158 -0.6410
15471SOL     OW47111   4.058   0.909   3.909 -0.3259 -0.2550 -0.1940
15471SOL    HW147112   4.017   0.925   3.994 -1.0922 -0.1694 -0.5733
15471SOL    HW247113   4.100   0.824   3.919 -0.1473 -0.1111  0.3619
15472SOL     OW47114   2.255   7.646   0.978 -0.1433  0.3219 -0.0007
15472SOL    HW147115   2.311   7.605   1.044  0.0559  0.7591  0.1101
15472SOL    HW247116   2.203   7.710   1.027 -0.8521 -0.1857 -0.0804
15473SOL     OW47117   3.374   4.214   6.204  0.2504 -0.2520  0.0925
15473SOL    HW147118   3.431   4.269   6.150 -1.0564  0.6449 -0.4518
15473SOL    HW247119   3.289   4.258   6.200 -0.7948 -2.1753 -0.1351
15474SOL     OW47120   6.187   2.512   4.934 -0.3751  0.1496  0.4305
15474SOL    HW147121   6.234   2.550   5.009  0.1350  0.9807 -0.2913
15474SOL    HW247122   6.133   2.583   4.901 -0.5584 -0.1965 -0.0222
15475SOL     OW47123   3.622   6.196   5.972 -0.3262 -0.5490  0.1749
15475SOL    HW147124   3.611   6.268   5.909 -1.0017 -1.4379 -0.7514
15475SOL    HW247125   3.581   6.229   6.053 -0.7146  0.0716 -0.2668
15476SOL     OW47126   0.185   1.379   5.405 -0.0829 -0.1270 -0.5932
15476SOL    HW147127   0.202   1.453   5.347  0.2632  0.7650  0.5926
15476SOL    HW247128   0.196   1.302   5.349  1.8075  0.6280 -1.3746
15477SOL     OW47129   4.228   1.630   0.240 -0.7814  0.4031 -0.3094
15477SOL    HW147130   4.318   1.630   0.272 -0.5918 -0.4926 -0.8136
15477SOL    HW247131   4.235   1.643   0.146 -1.0389 -1.6517 -0.6480
15478SOL     OW47132   2.955   7.369   6.652  0.0893  0.1041  0.2759
15478SOL    HW147133   2.868   7.353   6.615 -0.4040 -1.2752  1.9027
15478SOL    HW247134   3.014   7.318   6.597  0.0438  1.6953 -1.3478
15479SOL     OW47135   2.649   7.147   1.823 -0.0972 -0.5108  0.1821
15479SOL    HW147136   2.619   7.173   1.910 -0.8978  0.8977 -0.4722
15479SOL    HW247137   2.580   7.176   1.764  0.9357 -0.4168 -1.0292
15480SOL     OW47138   3.935   0.862   7.061  0.2752 -0.0657  0.5169
15480SOL    HW147139   3.859   0.849   7.004  0.3712  0.2150  0.3218
15480SOL    HW247140   3.917   0.806   7.137 -0.6731  0.8381  0.9947
15481SOL     OW47141   1.762   0.635   4.294 -0.2812  0.0124 -0.4799
15481SOL    HW147142   1.832   0.582   4.333 -0.4368  0.4434  0.4026
15481SOL    HW247143   1.805   0.685   4.225  0.1735 -0.1311 -0.3017
15482SOL     OW47144   6.362   2.506   1.461 -0.0194  0.3279 -0.5607
15482SOL    HW147145   6.357   2.410   1.459 -0.2884  0.2720  1.0289
15482SOL    HW247146   6.281   2.535   1.420 -0.8139 -0.1776  0.5978
15483SOL     OW47147   3.172   5.305   4.831 -0.1893 -0.1589 -0.3609
15483SOL    HW147148   3.238   5.338   4.893 -1.2925  0.2674  0.6274
15483SOL    HW247149   3.113   5.253   4.886 -0.9336 -0.1517 -1.1442
15484SOL     OW47150   2.088   0.028   4.189 -0.0466  0.1964 -0.2095
15484SOL    HW147151   2.081   0.052   4.097 -1.2559  0.9680  0.0583
15484SOL    HW247152   2.135  -0.055   4.188  0.5610  0.5304 -1.4664
15485SOL     OW47153   6.415   4.486   0.513 -0.0737  0.3582 -0.5654
15485SOL    HW147154   6.502   4.498   0.551 -0.0976  1.2356 -0.7656
15485SOL    HW247155   6.355   4.494   0.588  0.0946 -2.3990 -0.0407
15486SOL     OW47156   1.128   0.143   3.656  0.6287 -0.2019  0.2204
15486SOL    HW147157   1.178   0.135   3.738 -1.6753 -0.1065  1.7426
15486SOL    HW247158   1.191   0.122   3.587  3.4568  2.4182  1.7533
15487SOL     OW47159   0.300   1.841   7.869  0.1877 -0.2459 -0.2320
15487SOL    HW147160   0.282   1.747   7.866  0.3251 -0.2592 -0.9220
15487SOL    HW247161   0.233   1.880   7.813 -2.0117  0.4548  2.6783
15488SOL     OW47162   5.830   6.207   7.115 -0.2413  0.3385  0.2423
15488SOL    HW147163   5.855   6.115   7.106  1.9510  0.7367  1.5787
15488SOL    HW247164   5.882   6.239   7.189 -0.7490  2.7232 -0.3496
15489SOL     OW47165   6.780   3.740   4.978 -0.2641  0.2387 -0.5220
15489SOL    HW147166   6.800   3.690   5.057  0.9694 -1.9151 -2.0571
15489SOL    HW247167   6.856   3.797   4.965 -0.7984  1.1409  0.1936
15490SOL     OW47168   1.691   5.618   3.260 -0.3844  0.0076  0.1396
15490SOL    HW147169   1.648   5.590   3.179  0.1372 -1.7534  0.4354
15490SOL    HW247170   1.620   5.651   3.315 -1.4474 -2.8493  0.6262
15491SOL     OW47171   0.458   2.560   0.073 -0.8903 -0.1536 -0.4333
15491SOL    HW147172   0.450   2.468   0.098 -1.9637 -0.2349 -1.0194
15491SOL    HW247173   0.427   2.563  -0.018 -0.9263  0.7946 -0.3990
15492SOL     OW47174   6.491   1.201   5.566 -0.2504  0.6011  0.3429
15492SOL    HW147175   6.547   1.270   5.531  0.8488  0.2033  1.2568
15492SOL    HW247176   6.533   1.120   5.538  0.0854  0.2908  1.6905
15493SOL     OW47177   0.168   1.268   0.598  0.4933  0.0684  0.1619
15493SOL    HW147178   0.132   1.192   0.645  0.3723  0.0273  0.0046
15493SOL    HW247179   0.247   1.291   0.647 -0.3680  0.8922  1.2075
15494SOL     OW47180   1.065   7.964   4.703  0.0982 -0.2842 -0.8783
15494SOL    HW147181   1.035   8.055   4.692  1.8985  0.3832 -0.6621
15494SOL    HW247182   1.001   7.912   4.656 -0.4449  1.2028 -1.8688
15495SOL     OW47183   6.628   0.637   0.453 -1.0917 -0.4768  0.7588
15495SOL    HW147184   6.644   0.712   0.395 -2.2821 -1.3004 -0.6883
15495SOL    HW247185   6.709   0.586   0.449 -0.1276  0.8404  2.0373
15496SOL     OW47186   4.327   7.324   3.908  0.0836 -0.0556  0.0900
15496SOL    HW147187   4.329   7.300   3.816 -0.7909  0.9334 -0.2092
15496SOL    HW247188   4.385   7.400   3.915 -1.4161  1.1766 -0.0918
15497SOL     OW47189   3.314   0.409   4.332  0.3305 -0.5715  0.3186
15497SOL    HW147190   3.331   0.315   4.334  0.0538 -0.6537 -0.6265
15497SOL    HW247191   3.221   0.417   4.313  0.3302 -0.1083  0.4865
15498SOL     OW47192   7.901   0.743   0.584  0.0622 -0.5421 -0.0795
15498SOL    HW147193   7.818   0.789   0.587  1.3446  1.9393 -0.1487
15498SOL    HW247194   7.942   0.762   0.669  1.1075 -0.5573 -0.5622
15499SOL     OW47195   1.704   7.494   2.698  0.1230  0.5869  0.5931
15499SOL    HW147196   1.676   7.402   2.696  1.2084  0.2417 -0.9351
15499SOL    HW247197   1.625   7.544   2.678 -0.4291 -0.0213  1.2109
15500SOL     OW47198   2.135   6.648   1.050 -0.4417  0.6686  0.2084
15500SOL    HW147199   2.130   6.629   0.956  1.1181  2.0302 -0.1971
15500SOL    HW247200   2.110   6.740   1.056 -0.7233  0.5319  1.1675
15501SOL     OW47201   3.266   7.749   2.371  0.2526 -0.0879  0.0351
15501SOL    HW147202   3.273   7.762   2.466 -1.2236  1.5021 -0.0299
15501SOL    HW247203   3.309   7.665   2.355  2.0938  0.4285  1.8624
15502SOL     OW47204   3.859   6.018   1.301  0.0518 -0.1345  0.4430
15502SOL    HW147205   3.865   6.018   1.397 -0.6146  0.1837  0.4880
15502SOL    HW247206   3.785   5.961   1.281 -1.1340  1.4134  0.2232
15503SOL     OW47207   6.595   0.574   0.109 -0.0323 -0.1583 -0.6975
15503SOL    HW147208   6.659   0.583   0.039 -1.3392 -0.2397 -1.9349
15503SOL    HW247209   6.546   0.495   0.088  0.5582 -1.1008  1.1824
15504SOL     OW47210   1.621   1.930   6.313  0.0089  0.0307  0.1054
15504SOL    HW147211   1.693   1.882   6.355  0.6100  1.3721  0.6718
15504SOL    HW247212   1.593   1.994   6.378 -2.6335 -1.3003  0.3894
15505SOL     OW47213   3.687   1.272   2.661 -0.2927  0.2095 -0.0649
15505SOL    HW147214   3.708   1.239   2.748 -3.0406  0.5521  0.8276
15505SOL    HW247215   3.601   1.313   2.671 -1.1783 -0.6292 -3.1678
15506SOL     OW47216   0.506   5.113   5.966 -0.0312  0.3143  0.3497
15506SOL    HW147217   0.559   5.059   6.025 -1.6299 -1.6297  0.1219
15506SOL    HW247218   0.428   5.134   6.017  0.3185  2.0247  0.2393
15507SOL     OW47219   0.231   7.276   0.653 -0.0975  0.4479 -0.4599
15507SOL    HW147220   0.295   7.205   0.658 -0.1551  0.1940 -2.4556
15507SOL    HW247221   0.273   7.342   0.599 -1.4223  0.3495 -1.6651
15508SOL     OW47222   3.135   5.946   5.196  0.6435 -0.0702  0.3908
15508SOL    HW147223   3.044   5.966   5.174  0.2317 -1.3910  0.8079
15508SOL    HW247224   3.152   5.861   5.156  0.6304 -1.4033  2.9844
15509SOL     OW47225   7.593   0.203   3.246 -0.1319  0.1782 -0.0274
15509SOL    HW147226   7.595   0.273   3.311 -1.5933  0.2520 -0.0233
15509SOL    HW247227   7.579   0.248   3.163  3.2610  0.2248 -0.7004
15510SOL     OW47228   4.357   6.747   0.749  0.9578  0.1426  0.1270
15510SOL    HW147229   4.422   6.694   0.795  0.0433  0.2767  1.6196
15510SOL    HW247230   4.329   6.813   0.813  0.5904  1.1709 -1.0450
15511SOL     OW47231   5.426   3.104   3.772  0.2458 -0.0857  0.1931
15511SOL    HW147232   5.496   3.156   3.732 -0.5122  0.6172 -0.2453
15511SOL    HW247233   5.396   3.045   3.702  1.1651 -1.2182  0.7118
15512SOL     OW47234   0.866   6.008   4.057 -0.7121 -0.6954 -0.7092
15512SOL    HW147235   0.774   5.997   4.034 -0.7048  0.0840 -1.1206
15512SOL    HW247236   0.892   5.922   4.089 -1.7510 -0.7579  0.0240
15513SOL     OW47237   6.195   5.844   2.135  0.1623 -0.0681 -0.0031
15513SOL    HW147238   6.158   5.884   2.057 -0.7015  1.5155  1.1531
15513SOL    HW247239   6.119   5.810   2.183  0.5561 -0.0304  0.6591
15514SOL     OW47240   4.701   5.494   1.199 -0.5242 -0.6114  0.0480
15514SOL    HW147241   4.737   5.459   1.281 -1.0466 -1.2170  0.0286
15514SOL    HW247242   4.639   5.562   1.227 -0.3245 -0.4630  0.1325
15515SOL     OW47243   7.602   2.807   0.810 -0.0112  0.4668 -0.4927
15515SOL    HW147244   7.645   2.889   0.837  0.1535  0.2056  0.0636
15515SOL    HW247245   7.542   2.833   0.741 -0.8486  1.2729  0.4959
15516SOL     OW47246   7.073   3.239   3.708 -0.4786 -0.6960 -0.2997
15516SOL    HW147247   7.020   3.260   3.785  0.3830  0.6076 -0.0366
15516SOL    HW247248   7.088   3.144   3.715 -2.8236 -1.1390 -0.4491
15517SOL     OW47249   5.868   3.946   1.556  0.1894 -0.1855  0.2585
15517SOL    HW147250   5.937   3.910   1.612  0.3317  1.2996  1.0910
15517SOL    HW247251   5.904   3.943   1.468  0.8189 -0.5841  0.5235
15518SOL     OW47252   6.993   7.251   5.206 -0.8483 -0.4172 -0.2495
15518SOL    HW147253   7.021   7.333   5.247  1.7780 -0.9072 -0.9003
15518SOL    HW247254   6.959   7.277   5.120  0.2140 -0.0096 -0.5571
15519SOL     OW47255   4.846   0.229   7.214  0.3951  0.5174 -0.1698
15519SOL    HW147256   4.780   0.183   7.266  2.0142  1.4335  2.9635
15519SOL    HW247257   4.806   0.313   7.191  0.9304  1.9261  3.4137
15520SOL     OW47258   6.978   0.547   6.011  0.6942 -0.0015  0.4754
15520SOL    HW147259   6.883   0.539   6.007  0.8477 -1.2808 -1.6034
15520SOL    HW247260   7.001   0.607   5.941  1.4079  0.9498  1.4748
15521SOL     OW47261   1.231   6.204   3.242 -0.1536  0.5826 -1.0573
15521SOL    HW147262   1.236   6.131   3.305 -3.3116  2.0023  1.1176
15521SOL    HW247263   1.308   6.257   3.261  1.0475 -1.0531 -1.1785
15522SOL     OW47264   2.486   2.778   1.782  0.3627 -0.6667 -0.0896
15522SOL    HW147265   2.532   2.766   1.865  0.0761  1.5697  0.4567
15522SOL    HW247266   2.393   2.766   1.804 -0.0562  2.9687  0.7289
15523SOL     OW47267   4.327   0.171   5.575  0.6494 -0.6024 -0.1973
15523SOL    HW147268   4.285   0.172   5.662 -0.7497  0.0670 -0.8413
15523SOL    HW247269   4.421   0.173   5.593  0.4595 -2.4662  1.3363
15524SOL     OW47270   1.910   3.592   5.253  0.2532  0.6562 -0.5246
15524SOL    HW147271   1.916   3.529   5.325 -1.7263 -0.6013 -1.3787
15524SOL    HW247272   1.947   3.546   5.178  0.3159  1.1496 -0.8014
15525SOL     OW47273   1.740   4.228   2.559 -0.2735  0.2649  0.1539
15525SOL    HW147274   1.746   4.288   2.485 -1.3652  2.6042  1.8133
15525SOL    HW247275   1.652   4.190   2.553  1.0038 -2.7643 -1.8886
15526SOL     OW47276   6.380   4.496   7.949 -0.0707  0.8335  0.4626
15526SOL    HW147277   6.318   4.553   7.994  1.7560  1.3423  2.5320
15526SOL    HW247278   6.463   4.544   7.954  1.3916 -1.6447  1.6119
15527SOL     OW47279   6.021   3.200   2.736  0.1127 -0.1905 -0.8708
15527SOL    HW147280   5.937   3.242   2.756 -0.0054 -0.2600 -1.2242
15527SOL    HW247281   6.087   3.261   2.770 -0.0882 -0.6352  0.3922
15528SOL     OW47282   2.455   1.297   4.948  0.4578  0.3413 -0.1693
15528SOL    HW147283   2.414   1.212   4.933 -0.0099  0.4366  0.4965
15528SOL    HW247284   2.549   1.279   4.950  0.3862 -0.0764 -0.5328
15529SOL     OW47285   5.782   2.132   4.781  0.1493  0.6427 -0.5549
15529SOL    HW147286   5.714   2.161   4.721 -1.1195 -0.8606  0.0912
15529SOL    HW247287   5.811   2.048   4.745  0.4576  0.4615  0.0980
15530SOL     OW47288   0.353   0.108   2.307 -0.3142  0.4352 -0.2394
15530SOL    HW147289   0.386   0.142   2.391  0.9651 -0.4226 -0.3642
15530SOL    HW247290   0.291   0.039   2.332  0.1862  0.0672  0.0157
15531SOL     OW47291   4.291   0.971   3.550  0.5446 -0.2886 -0.0340
15531SOL    HW147292   4.264   1.063   3.537 -0.8113 -0.8808 -1.9088
15531SOL    HW247293   4.279   0.956   3.643  0.1841  1.2654  0.2071
15532SOL     OW47294   4.415   6.403   1.973  0.0666  0.1145 -0.5893
15532SOL    HW147295   4.387   6.477   2.026 -1.9396 -0.8400 -0.2294
15532SOL    HW247296   4.444   6.338   2.037 -1.8793 -0.8476 -0.6280
15533SOL     OW47297   0.183   3.470   7.629 -0.0293 -0.1324  0.5840
15533SOL    HW147298   0.276   3.448   7.641  0.3390  1.3110  0.6240
15533SOL    HW247299   0.172   3.471   7.534 -0.0983 -0.6516  0.5846
15534SOL     OW47300   2.048   7.267   0.213  0.4792 -0.7519 -0.9426
15534SOL    HW147301   2.067   7.255   0.120 -0.9689 -0.8918 -1.2462
15534SOL    HW247302   2.000   7.350   0.218  0.7305 -0.6335 -0.2816
15535SOL     OW47303   7.467   3.359   5.435  0.4156 -0.0618 -0.0057
15535SOL    HW147304   7.490   3.451   5.420  1.6700 -0.4205 -0.4187
15535SOL    HW247305   7.477   3.317   5.349 -0.8642 -0.4478  0.0186
15536SOL     OW47306   6.236   7.771   5.199  0.4009 -0.2115 -0.1829
15536SOL    HW147307   6.230   7.715   5.276  0.8234 -1.0837 -0.7621
15536SOL    HW247308   6.249   7.859   5.234 -1.5661 -0.2538  0.7790
15537SOL     OW47309   4.147   1.068   7.031 -0.4533  0.2699  0.1389
15537SOL    HW147310   4.072   1.014   7.056 -2.1430  2.8044  0.9286
15537SOL    HW247311   4.133   1.086   6.938 -0.4884  0.2311  0.1366
15538SOL     OW47312   7.782   0.928   3.090  0.1598  0.1280  0.2959
15538SOL    HW147313   7.812   0.970   3.171 -0.1364 -0.3016  0.6262
15538SOL    HW247314   7.690   0.953   3.082 -0.4115 -1.5372  1.2062
15539SOL     OW47315   7.850   5.547   2.374  0.0559  0.4875  0.0452
15539SOL    HW147316   7.819   5.468   2.418 -2.1413  1.1709 -0.1517
15539SOL    HW247317   7.829   5.618   2.434  1.1507  1.0441 -0.1951
15540SOL     OW47318   2.478   5.685   0.716 -0.2026 -0.7826  0.1858
15540SOL    HW147319   2.488   5.591   0.700  1.5259 -0.6205  0.1126
15540SOL    HW247320   2.521   5.700   0.800  3.9517  0.5971 -1.9050
15541SOL     OW47321   2.412   1.827   2.574  0.0943 -0.1820 -0.3120
15541SOL    HW147322   2.339   1.803   2.631 -0.2887  0.2030 -0.6299
15541SOL    HW247323   2.485   1.774   2.604 -0.4738 -1.0071 -0.3647
15542SOL     OW47324   2.525   4.755   2.156 -0.6832  0.1265  0.0022
15542SOL    HW147325   2.612   4.745   2.116 -0.6621  1.6305 -0.3555
15542SOL    HW247326   2.479   4.816   2.099 -1.7363 -0.0761  0.6103
15543SOL     OW47327   6.818   5.320   1.267 -0.3481  0.2955  0.0027
15543SOL    HW147328   6.887   5.361   1.320  0.8349 -1.2826 -0.2612
15543SOL    HW247329   6.820   5.368   1.185 -0.8768  1.4928  0.6609
15544SOL     OW47330   0.840   5.867   5.253  0.1053 -0.0474  0.1465
15544SOL    HW147331   0.750   5.837   5.268  0.0474 -0.0307 -0.1545
15544SOL    HW247332   0.839   5.901   5.163  0.0632  1.2064  0.5961
15545SOL     OW47333   3.356   3.154   3.079 -0.3884 -0.1455  0.5251
15545SOL    HW147334   3.451   3.160   3.069 -0.5043 -0.7915 -1.3908
15545SOL    HW247335   3.339   3.061   3.092 -0.6490  0.1773  3.0422
15546SOL     OW47336   1.470   1.281   0.209 -0.0180  0.0641  0.3550
15546SOL    HW147337   1.397   1.341   0.192  0.5531  0.4638 -0.7462
15546SOL    HW247338   1.496   1.300   0.299  0.9180  2.3429 -0.3381
15547SOL     OW47339   4.897   5.005   6.775 -0.0824  0.4140  0.2991
15547SOL    HW147340   4.969   5.063   6.750  0.5514 -0.0494  0.9977
15547SOL    HW247341   4.935   4.947   6.841 -0.7318 -0.7426 -0.3169
15548SOL     OW47342   6.148   4.125   6.076 -0.0350 -0.0269 -0.3692
15548SOL    HW147343   6.104   4.093   6.155  0.2188 -0.6130 -0.4642
15548SOL    HW247344   6.203   4.053   6.048  0.4518  0.4503 -0.6581
15549SOL     OW47345   4.911   7.969   3.486  0.1472 -0.1597  0.0552
15549SOL    HW147346   4.999   7.986   3.453  0.0757 -2.2235 -1.3481
15549SOL    HW247347   4.920   7.978   3.581  1.0630  2.8679 -0.1973
15550SOL     OW47348   7.797   5.642   5.712 -0.2157  0.4259  0.0272
15550SOL    HW147349   7.819   5.549   5.703 -0.2878  0.4787 -0.8013
15550SOL    HW247350   7.703   5.643   5.731 -0.1704  0.3187  0.2545
15551SOL     OW47351   1.113   7.886   0.583 -0.0687  0.1730  0.5981
15551SOL    HW147352   1.122   7.812   0.523  0.0916 -1.1338  2.1367
15551SOL    HW247353   1.200   7.926   0.585  0.1573 -0.3135  0.6147
15552SOL     OW47354   7.274   2.703   0.544  0.3110  0.3155 -0.1822
15552SOL    HW147355   7.287   2.797   0.535 -0.2351  0.3459 -0.7692
15552SOL    HW247356   7.343   2.664   0.490  1.3826  0.3417  1.1483
15553SOL     OW47357   4.671   1.722   6.881 -0.0867 -0.8164 -0.7556
15553SOL    HW147358   4.634   1.646   6.925  1.1616 -0.6843  0.6384
15553SOL    HW247359   4.741   1.686   6.826 -0.6776 -0.8398 -1.4971
15554SOL     OW47360   1.009   1.516   0.789  0.3568  0.1672  0.0057
15554SOL    HW147361   1.037   1.537   0.878  0.2844 -1.4354  0.4424
15554SOL    HW247362   0.940   1.451   0.801 -0.5585  0.8706 -1.1993
15555SOL     OW47363   3.071   2.328   5.541  0.2290  0.5212 -0.3539
15555SOL    HW147364   3.144   2.389   5.526  0.2212  0.2539 -1.6542
15555SOL    HW247365   3.111   2.241   5.536 -0.3348  0.3190 -2.4465
15556SOL     OW47366   0.443   1.590   1.111 -0.8724  0.0797  0.5441
15556SOL    HW147367   0.428   1.597   1.017 -1.9271 -1.5079  0.5542
15556SOL    HW247368   0.517   1.531   1.120 -0.4346  0.6469  0.7090
15557SOL     OW47369   1.701   7.534   1.118 -0.1820 -0.3168  0.2123
15557SOL    HW147370   1.736   7.485   1.044 -0.1306 -1.0640  0.7132
15557SOL    HW247371   1.637   7.474   1.158  0.0095 -0.0498  0.9470
15558SOL     OW47372   6.997   2.360   1.238 -0.3627 -0.2486 -0.0614
15558SOL    HW147373   7.064   2.417   1.201 -2.1230  1.2846 -1.1130
15558SOL    HW247374   7.010   2.366   1.332  2.1580 -1.5914 -0.2484
15559SOL     OW47375   2.128   6.706   6.199  0.0878 -0.3974  0.3348
15559SOL    HW147376   2.109   6.619   6.233 -1.9455  0.3774  1.3579
15559SOL    HW247377   2.120   6.764   6.275  1.4733  0.6980 -0.3054
15560SOL     OW47378   4.491   5.941   7.522 -0.0591  0.5436 -0.6064
15560SOL    HW147379   4.573   5.977   7.488  0.6209  0.4899  0.8941
15560SOL    HW247380   4.461   6.006   7.586 -1.0433  0.4167 -0.9156
15561SOL     OW47381   5.147   0.293   4.412 -0.3558 -0.5004  0.3937
15561SOL    HW147382   5.210   0.350   4.368 -1.4332  1.1250  0.8476
15561SOL    HW247383   5.195   0.213   4.431  1.2062  0.2304 -0.3509
15562SOL     OW47384   2.397   4.763   4.697 -0.8881  0.0755 -1.1942
15562SOL    HW147385   2.480   4.719   4.679 -1.4752 -1.1554 -0.9922
15562SOL    HW247386   2.346   4.753   4.617 -1.1407  0.1400 -1.0446
15563SOL     OW47387   0.480   5.084   2.678  0.5221  0.0232  0.1319
15563SOL    HW147388   0.424   5.156   2.706  0.2915 -0.5496  1.1976
15563SOL    HW247389   0.424   5.029   2.623 -0.3151 -1.0941  2.0212
15564SOL     OW47390   5.204   3.336   5.502  0.4573  0.1737  0.0997
15564SOL    HW147391   5.166   3.309   5.585  0.0296  0.2511 -0.0698
15564SOL    HW247392   5.195   3.432   5.502 -0.6388  0.0835 -0.5611
15565SOL     OW47393   2.574   7.306   1.261  0.1276  0.3345 -0.4690
15565SOL    HW147394   2.622   7.348   1.332 -0.6626  2.6962 -1.2311
15565SOL    HW247395   2.639   7.250   1.218  1.0393  0.1541  1.0547
15566SOL     OW47396   0.782   1.260   3.905  0.5081  0.5147  0.3543
15566SOL    HW147397   0.834   1.184   3.878 -0.9826  0.0149 -1.2898
15566SOL    HW247398   0.704   1.221   3.947 -0.8036  1.0318 -1.4769
15567SOL     OW47399   0.421   6.206   4.493  0.0021  0.3455 -0.4430
15567SOL    HW147400   0.486   6.149   4.452  0.5762  1.9937 -1.9834
15567SOL    HW247401   0.348   6.148   4.514 -0.3469 -0.7392 -3.9192
15568SOL     OW47402   2.251   5.641   2.800  0.0779 -0.4781  0.0113
15568SOL    HW147403   2.156   5.654   2.800  0.0155 -0.9075  0.2477
15568SOL    HW247404   2.267   5.578   2.870  0.2078 -2.5360 -1.7316
15569SOL     OW47405   2.365   3.702   4.135  0.7888 -0.6819 -0.2649
15569SOL    HW147406   2.459   3.701   4.155  0.3911 -1.3571  1.8627
15569SOL    HW247407   2.348   3.616   4.096  0.9933 -0.6887 -0.3382
15570SOL     OW47408   6.456   0.538   2.369 -0.4223  0.4373  0.5993
15570SOL    HW147409   6.439   0.631   2.357 -2.1002  0.1366  0.3928
15570SOL    HW247410   6.372   0.495   2.353  0.1983 -1.0846  1.1325
15571SOL     OW47411   1.009   2.465   0.352 -0.4463  0.2042 -0.4260
15571SOL    HW147412   1.046   2.506   0.274 -0.7521 -1.4226 -1.4757
15571SOL    HW247413   0.935   2.520   0.375 -0.4547  0.6225 -1.4077
15572SOL     OW47414   7.699   4.732   1.255  0.0613 -0.2914  0.1718
15572SOL    HW147415   7.612   4.753   1.290  0.0724 -1.8946  1.2563
15572SOL    HW247416   7.759   4.770   1.319  0.1086 -1.2239  0.6993
15573SOL     OW47417   7.920   4.987   7.386  0.2419 -0.0804 -0.0940
15573SOL    HW147418   7.855   4.921   7.359  0.8140 -0.5872 -0.2596
15573SOL    HW247419   8.004   4.942   7.378  0.6009  0.5107  0.3057
15574SOL     OW47420   1.722   1.593   2.420  0.5597  0.1828 -0.1946
15574SOL    HW147421   1.775   1.526   2.462 -0.2075 -0.9049 -0.9201
15574SOL    HW247422   1.738   1.581   2.327 -0.1178  0.5541 -0.3627
15575SOL     OW47423   1.494   4.407   3.985  0.5911 -0.2443  0.4995
15575SOL    HW147424   1.550   4.396   4.061  0.8570 -1.7645  0.1091
15575SOL    HW247425   1.549   4.385   3.910  0.1978  0.7647 -0.1104
15576SOL     OW47426   5.496   0.043   6.537 -0.0861  0.0740  0.0160
15576SOL    HW147427   5.537   0.125   6.563 -1.4268  0.5063  0.8322
15576SOL    HW247428   5.433   0.068   6.470 -0.3023 -0.3301  0.0654
15577SOL     OW47429   5.630   0.930   7.711  0.1694 -0.1137  0.0309
15577SOL    HW147430   5.566   0.972   7.769  1.5371  0.3138  1.2957
15577SOL    HW247431   5.618   0.973   7.626 -0.5057  0.7057  0.5255
15578SOL     OW47432   2.422   2.885   1.517 -0.2324  0.2836 -0.3258
15578SOL    HW147433   2.331   2.855   1.511  0.0815 -0.9957  0.7984
15578SOL    HW247434   2.456   2.844   1.597  1.8252 -0.6800 -1.5906
15579SOL     OW47435   1.238   0.621   2.379  0.2202  0.5919  0.4019
15579SOL    HW147436   1.266   0.643   2.467  0.3461 -0.0646  0.5296
15579SOL    HW247437   1.144   0.639   2.379  0.2855  0.9341  0.5602
15580SOL     OW47438   1.543   2.049   4.734  0.2912  0.2463 -0.7393
15580SOL    HW147439   1.479   2.063   4.664  0.2366 -1.2608 -1.0253
15580SOL    HW247440   1.601   2.124   4.729  0.7959 -0.2250 -2.9882
15581SOL     OW47441   0.412   4.015   3.623  0.5515  0.0477  0.0670
15581SOL    HW147442   0.403   4.096   3.672 -0.0349  1.0156 -1.5440
15581SOL    HW247443   0.401   3.945   3.688  0.3008  1.2550  1.3521
15582SOL     OW47444   2.806   5.474   1.450  0.5938 -0.2396  0.4778
15582SOL    HW147445   2.776   5.560   1.481 -1.0428 -0.6913  0.2359
15582SOL    HW247446   2.854   5.493   1.369  0.9052  0.5094  0.8304
15583SOL     OW47447   5.489   0.776   4.784  0.8614  0.1629 -0.2948
15583SOL    HW147448   5.400   0.782   4.818  1.3363 -0.5051  1.1301
15583SOL    HW247449   5.482   0.805   4.693 -0.4695  1.9864  0.3324
15584SOL     OW47450   6.263   3.706   6.198  0.0646 -0.1390  0.4967
15584SOL    HW147451   6.284   3.658   6.278  0.2336 -0.5345  0.2190
15584SOL    HW247452   6.346   3.741   6.168  0.3844 -1.7660 -0.6413
15585SOL     OW47453   4.232   0.246   1.557  0.1657 -0.0998  0.5586
15585SOL    HW147454   4.197   0.158   1.546  1.6581 -0.4271 -2.6196
15585SOL    HW247455   4.192   0.298   1.487 -0.9761  1.9779  2.5736
15586SOL     OW47456   2.106   2.474   4.025  0.1168 -0.6855 -0.1854
15586SOL    HW147457   2.052   2.450   3.950 -0.5346  0.4471 -0.1033
15586SOL    HW247458   2.044   2.481   4.098  0.3772  0.4083 -0.0443
15587SOL     OW47459   0.572   7.628   7.282 -0.1850 -0.2955  0.0124
15587SOL    HW147460   0.624   7.692   7.233  1.9047 -0.7411  1.5411
15587SOL    HW247461   0.603   7.543   7.252 -1.0230 -0.5868 -0.0451
15588SOL     OW47462   7.842   0.741   5.745  0.6578 -0.4791 -0.0200
15588SOL    HW147463   7.814   0.712   5.659 -0.3632  1.0462 -0.2409
15588SOL    HW247464   7.808   0.675   5.806  0.3373 -0.9236 -0.6775
15589SOL     OW47465   7.187   4.941   2.470 -0.0013 -0.5085 -0.3487
15589SOL    HW147466   7.136   5.020   2.486 -0.7583 -1.3043  1.5143
15589SOL    HW247467   7.148   4.902   2.392 -0.3620  0.3589 -0.6091
15590SOL     OW47468   6.387   6.938   1.594 -0.7217 -0.1048  0.8644
15590SOL    HW147469   6.337   6.857   1.583  0.2174 -0.8754  2.0031
15590SOL    HW247470   6.460   6.930   1.533 -1.3698  0.5376 -0.0254
15591SOL     OW47471   4.107   3.516   5.995  0.0823 -0.1720 -0.6105
15591SOL    HW147472   4.125   3.582   5.927 -0.4324  0.4700 -0.1310
15591SOL    HW247473   4.095   3.567   6.075  1.6103 -0.9827  0.1683
15592SOL     OW47474   4.768   6.697   4.051 -0.2261 -0.3477 -0.0915
15592SOL    HW147475   4.723   6.667   4.130  1.2576  1.4544  1.5120
15592SOL    HW247476   4.840   6.751   4.083  1.0143 -0.3402 -2.6731
15593SOL     OW47477   7.472   2.248   7.265 -0.6780 -0.0833 -0.2199
15593SOL    HW147478   7.403   2.314   7.264 -2.6270 -1.9862 -1.7441
15593SOL    HW247479   7.464   2.207   7.351 -0.1401  0.9652  0.3401
15594SOL     OW47480   3.696   4.983   2.177  0.1647  0.0069 -0.3580
15594SOL    HW147481   3.759   5.054   2.164  0.4686 -0.3309 -0.7897
15594SOL    HW247482   3.689   4.941   2.091 -1.6168  0.8198 -0.6414
15595SOL     OW47483   6.583   2.409   4.998 -0.1012  0.0698  0.1510
15595SOL    HW147484   6.592   2.496   4.958  0.3986 -0.1716 -0.2795
15595SOL    HW247485   6.629   2.417   5.082 -2.4031  1.0105  1.4303
15596SOL     OW47486   3.216   4.822   6.163 -0.2656  0.2980 -0.1412
15596SOL    HW147487   3.146   4.836   6.099  0.6429  0.1467 -1.1970
15596SOL    HW247488   3.269   4.752   6.125 -0.4163 -0.7001  1.4001
15597SOL     OW47489   7.373   1.392   2.039 -0.0857  0.0429 -0.8070
15597SOL    HW147490   7.390   1.429   1.952  0.5309  2.0691  0.1077
15597SOL    HW247491   7.460   1.377   2.076 -0.3441 -1.0536 -0.5963
15598SOL     OW47492   0.357   3.353   2.448 -0.2365 -0.1514 -0.5131
15598SOL    HW147493   0.435   3.366   2.502 -0.6440  0.2471 -0.0131
15598SOL    HW247494   0.306   3.286   2.494 -1.0309  0.8450  0.1175
15599SOL     OW47495   3.589   3.385   3.478  0.6142 -0.4541  0.4688
15599SOL    HW147496   3.496   3.397   3.496  0.6252  1.5592 -0.4489
15599SOL    HW247497   3.596   3.298   3.439 -0.9448 -0.5061  0.2414
15600SOL     OW47498   6.731   3.111   5.356 -0.8050 -0.3022 -0.2789
15600SOL    HW147499   6.652   3.146   5.399  0.0053  1.2406  0.0585
15600SOL    HW247500   6.789   3.187   5.349  1.2912 -1.6884  0.9354
15601SOL     OW47501   7.951   6.222   1.281  0.0005  0.0654  0.1898
15601SOL    HW147502   7.967   6.225   1.375 -1.5191  0.5508  0.4589
15601SOL    HW247503   7.951   6.128   1.260 -0.9963 -0.1152  0.9379
15602SOL     OW47504   3.567   2.564   3.767 -0.2839 -0.1443 -0.0683
15602SOL    HW147505   3.614   2.633   3.721 -1.9961  1.6553  0.7573
15602SOL    HW247506   3.563   2.594   3.858 -3.1317 -0.0736 -0.1310
15603SOL     OW47507   1.406   7.311   0.552  0.3087 -0.3302 -0.1229
15603SOL    HW147508   1.396   7.401   0.582 -1.2544 -0.6232  0.3341
15603SOL    HW247509   1.476   7.315   0.488  1.4062  0.9169  1.0874
15604SOL     OW47510   4.051   3.616   0.434  0.0174  0.3569  0.0864
15604SOL    HW147511   4.035   3.679   0.505  3.5509 -0.7745  2.1444
15604SOL    HW247512   4.125   3.652   0.386 -0.0169 -0.6535 -0.7574
15605SOL     OW47513   5.585   7.043   2.610 -0.4645 -0.3901  0.3339
15605SOL    HW147514   5.523   6.975   2.584 -0.1617 -0.3789 -0.4296
15605SOL    HW247515   5.668   7.016   2.571 -0.6003  1.0578 -1.0373
15606SOL     OW47516   2.340   4.386   5.254  0.4394  0.0207  0.3040
15606SOL    HW147517   2.356   4.407   5.346  1.3324  2.5273 -0.3278
15606SOL    HW247518   2.272   4.320   5.256  0.2159  0.2247  2.7632
15607SOL     OW47519   1.145   7.444   1.449  0.2754  0.3864  0.5116
15607SOL    HW147520   1.195   7.508   1.499  1.0141 -1.8137  2.8211
15607SOL    HW247521   1.085   7.404   1.512 -2.2188  0.6769 -1.4640
15608SOL     OW47522   3.318   3.996   3.138  0.4887 -0.1109 -0.6409
15608SOL    HW147523   3.408   3.979   3.112 -0.0143 -0.2335 -2.3976
15608SOL    HW247524   3.274   4.022   3.058 -1.8061 -3.1885 -0.5609
15609SOL     OW47525   0.674   4.302   1.018  0.1692  0.6958  0.3728
15609SOL    HW147526   0.668   4.207   1.014  0.5508  0.6868  0.0040
15609SOL    HW247527   0.757   4.323   0.976  0.2391  1.1708  0.7358
15610SOL     OW47528   3.810   7.174   7.856 -0.3261  0.2605 -0.1187
15610SOL    HW147529   3.848   7.205   7.938  1.7228 -1.6809 -0.2467
15610SOL    HW247530   3.885   7.158   7.799 -1.5917 -0.1671 -1.7434
15611SOL     OW47531   2.523   0.129   5.633  0.4914 -0.3580 -0.5666
15611SOL    HW147532   2.448   0.190   5.627 -0.7996 -1.9685 -1.7285
15611SOL    HW247533   2.530   0.109   5.727 -0.5135 -0.1329 -0.4302
15612SOL     OW47534   4.617   6.969   3.986 -0.3377  0.1802  0.1316
15612SOL    HW147535   4.533   6.942   3.948 -0.9337 -1.0212  2.1506
15612SOL    HW247536   4.653   6.889   4.024  1.3171  0.8694  0.0936
15613SOL     OW47537   1.957   1.741   7.650 -0.1143  0.1082 -0.1613
15613SOL    HW147538   1.913   1.825   7.666  0.3039  0.3814 -0.4390
15613SOL    HW247539   1.982   1.745   7.558  0.2223 -0.1768 -0.0801
15614SOL     OW47540   7.763   6.964   4.939  0.3397  0.0202  0.9647
15614SOL    HW147541   7.750   6.900   5.009 -1.1379 -2.0089 -0.9916
15614SOL    HW247542   7.852   6.948   4.908 -0.1868 -1.5855  0.1411
15615SOL     OW47543   6.789   0.027   5.129 -0.3420  0.2345  0.3269
15615SOL    HW147544   6.712   0.075   5.098 -1.3406 -0.0826  2.1779
15615SOL    HW247545   6.863   0.077   5.094 -1.3619  0.7616 -1.1915
15616SOL     OW47546   7.558   0.466   2.191 -0.3619  0.1629  0.0728
15616SOL    HW147547   7.510   0.546   2.169  2.1313  1.4342 -1.1198
15616SOL    HW247548   7.641   0.497   2.227 -0.0410 -1.9319  1.2944
15617SOL     OW47549   6.580   6.623   0.271  0.3426  0.1417  0.4404
15617SOL    HW147550   6.487   6.633   0.250 -0.0772 -2.5378  0.6871
15617SOL    HW247551   6.594   6.682   0.345 -1.2237  0.4714  0.5152
15618SOL     OW47552   1.720   7.390   4.345 -0.0586 -0.0944 -0.0516
15618SOL    HW147553   1.722   7.484   4.363  1.4435 -0.2640  0.8119
15618SOL    HW247554   1.795   7.354   4.393 -0.9071 -1.8224  0.0732
15619SOL     OW47555   7.563   1.063   7.242  0.5416 -0.2121 -0.1549
15619SOL    HW147556   7.622   1.109   7.302  0.3561 -0.6531  0.3721
15619SOL    HW247557   7.620   1.034   7.170  0.9066 -0.3542  0.1894
15620SOL     OW47558   5.447   3.975   3.364 -0.2356  0.3462  0.0196
15620SOL    HW147559   5.510   3.920   3.317 -0.6892 -0.2555  0.1028
15620SOL    HW247560   5.492   4.001   3.444  0.4064  1.0635 -0.5561
15621SOL     OW47561   5.055   3.112   2.341 -0.1605  0.1846  0.3743
15621SOL    HW147562   5.108   3.077   2.413  0.8088  1.2232  0.1987
15621SOL    HW247563   4.970   3.068   2.350 -0.1160  0.3704  2.2437
15622SOL     OW47564   6.342   2.201   0.994  0.0901 -0.0566 -0.0354
15622SOL    HW147565   6.425   2.247   0.982 -1.1240  2.5957  0.9639
15622SOL    HW247566   6.354   2.152   1.076  0.3945  1.1111  0.6465
15623SOL     OW47567   7.304   0.838   6.866 -0.6145  0.0702  0.0644
15623SOL    HW147568   7.397   0.858   6.868 -0.7378  0.9810 -1.4805
15623SOL    HW247569   7.287   0.793   6.949  1.2642 -0.4961  0.1814
15624SOL     OW47570   4.111   4.428   6.193  0.0861  0.6199  0.2004
15624SOL    HW147571   4.196   4.402   6.159  1.0681  1.1922  2.0685
15624SOL    HW247572   4.065   4.346   6.210  0.5114  0.2959 -0.2050
15625SOL     OW47573   4.122   1.571   2.598  0.9667  0.0186 -0.4077
15625SOL    HW147574   4.196   1.630   2.611  1.6877 -0.7658 -0.8431
15625SOL    HW247575   4.133   1.503   2.665  0.0523  0.4473  0.2008
15626SOL     OW47576   7.383   0.750   7.907 -0.3221  0.3764  0.4335
15626SOL    HW147577   7.374   0.844   7.925  0.3613  0.5120  0.1345
15626SOL    HW247578   7.308   0.710   7.949 -0.4096  1.0191  0.9148
15627SOL     OW47579   2.040   4.590   7.579  0.0666  0.1611 -0.0598
15627SOL    HW147580   1.963   4.607   7.634  1.4839  2.3725  1.4201
15627SOL    HW247581   2.079   4.511   7.617 -0.6809 -0.1489  0.0865
15628SOL     OW47582   0.362   7.179   1.951 -0.1397  0.0354 -0.5704
15628SOL    HW147583   0.417   7.106   1.981  1.3006  1.0219 -0.6585
15628SOL    HW247584   0.314   7.206   2.029  1.4971  0.8005  0.2446
15629SOL     OW47585   6.243   1.583   0.483 -0.2073 -0.3421  0.5574
15629SOL    HW147586   6.252   1.521   0.411  2.0921 -0.6066  1.0091
15629SOL    HW247587   6.192   1.655   0.446 -0.8187 -1.3792 -0.7006
15630SOL     OW47588   0.199   6.313   1.599  0.5407  0.6089  0.1743
15630SOL    HW147589   0.262   6.269   1.541  1.8423 -0.6533  2.3998
15630SOL    HW247590   0.128   6.250   1.610  0.0638  1.0386 -0.3989
15631SOL     OW47591   7.795   2.734   4.410 -0.2788  0.4687 -0.7140
15631SOL    HW147592   7.845   2.798   4.360 -0.2748  1.0485  0.0117
15631SOL    HW247593   7.720   2.783   4.444 -0.5982 -0.0582 -0.6453
15632SOL     OW47594   1.985   5.227   1.139  0.1669  0.3525 -0.0272
15632SOL    HW147595   2.001   5.294   1.206 -0.3698  1.9616 -1.4321
15632SOL    HW247596   2.050   5.244   1.071  2.5087 -2.9678  1.1521
15633SOL     OW47597   0.672   4.272   1.327  0.1365 -0.2933 -0.5910
15633SOL    HW147598   0.750   4.220   1.307 -0.1733 -0.7445 -0.6359
15633SOL    HW247599   0.616   4.262   1.250  0.8069  1.5397 -1.3902
15634SOL     OW47600   6.902   6.390   1.066 -0.1901  0.6001  0.6454
15634SOL    HW147601   6.812   6.362   1.081 -0.3580  0.6208 -0.3001
15634SOL    HW247602   6.896   6.459   1.000  0.5192  0.5797  0.5453
15635SOL     OW47603   6.519   5.979   6.051  0.6682  0.5699 -0.1500
15635SOL    HW147604   6.480   5.935   6.127  1.2490  0.8604  0.3264
15635SOL    HW247605   6.561   6.057   6.087 -0.8088  1.8282 -1.0650
15636SOL     OW47606   3.596   1.508   5.968  0.0333  0.0471 -0.0145
15636SOL    HW147607   3.551   1.455   5.902  0.2402  2.3646 -2.1356
15636SOL    HW247608   3.594   1.454   6.047  2.0129 -4.0038 -2.4411
15637SOL     OW47609   2.739   2.492   1.782 -0.4491 -0.5139  0.1581
15637SOL    HW147610   2.711   2.452   1.700 -0.7389  1.0211 -0.5300
15637SOL    HW247611   2.717   2.428   1.849 -0.8736 -1.4900 -0.8861
15638SOL     OW47612   1.643   3.273   1.329 -0.9222  0.4898 -0.3123
15638SOL    HW147613   1.695   3.295   1.251  0.7363 -0.5368  0.4357
15638SOL    HW247614   1.621   3.358   1.367  1.1723  0.9946 -0.0921
15639SOL     OW47615   5.388   1.183   5.984 -0.0006  0.5752  0.3279
15639SOL    HW147616   5.440   1.197   5.905 -0.3508 -2.2627 -0.5294
15639SOL    HW247617   5.452   1.167   6.053  0.2815  1.2728  0.2351
15640SOL     OW47618   0.054   1.567   7.671  0.4173  0.4449 -0.2175
15640SOL    HW147619   0.105   1.611   7.739  0.2869  1.2291 -0.6137
15640SOL    HW247620  -0.014   1.630   7.647  0.2947  0.0743 -0.8794
15641SOL     OW47621   4.786   7.041   0.710  0.2309  1.0390  0.3117
15641SOL    HW147622   4.709   7.058   0.656  0.8964  0.8166 -0.7262
15641SOL    HW247623   4.854   7.099   0.675  0.9510  0.2021  0.2674
15642SOL     OW47624   5.540   6.802   1.771 -0.3822 -0.0590  0.4125
15642SOL    HW147625   5.565   6.891   1.798  0.5798 -0.3203  0.4101
15642SOL    HW247626   5.587   6.745   1.833 -0.3449 -0.5843 -0.0982
15643SOL     OW47627   2.764   4.255   0.225 -0.3786  0.0076  0.0797
15643SOL    HW147628   2.693   4.313   0.200  0.5808  1.1909 -0.0025
15643SOL    HW247629   2.752   4.240   0.319 -0.7818  0.1209  0.0464
15644SOL     OW47630   7.473   6.569   1.650 -0.3887 -0.1735 -0.2776
15644SOL    HW147631   7.558   6.533   1.624 -1.5048 -2.2357 -1.3146
15644SOL    HW247632   7.450   6.630   1.580  0.3999  0.7616  0.2439
15645SOL     OW47633   0.455   1.670   5.615 -0.4515  0.2986  0.3175
15645SOL    HW147634   0.497   1.746   5.576  0.2715  0.5498  1.5529
15645SOL    HW247635   0.466   1.601   5.550 -0.0956  0.9344 -0.3175
15646SOL     OW47636   0.480   5.445   6.185  0.3159 -0.1352 -0.3321
15646SOL    HW147637   0.565   5.409   6.210  0.6617 -0.7747 -2.2417
15646SOL    HW247638   0.430   5.370   6.153 -0.5297  0.4209 -0.3638
15647SOL     OW47639   6.272   3.515   5.446 -0.2162  0.1363  0.2451
15647SOL    HW147640   6.346   3.527   5.386  0.1547  0.1942  0.7111
15647SOL    HW247641   6.258   3.602   5.483 -1.8838  0.6346 -1.3973
15648SOL     OW47642   3.504   2.068   5.419 -0.9246  0.2374 -0.8176
15648SOL    HW147643   3.500   2.123   5.341 -2.7263  0.4934 -0.5899
15648SOL    HW247644   3.430   2.097   5.472 -0.3293 -0.6192  0.5303
15649SOL     OW47645   6.471   6.958   6.579  0.2670 -0.2422 -0.2809
15649SOL    HW147646   6.399   6.973   6.517 -2.1857  2.3594  2.8552
15649SOL    HW247647   6.537   7.023   6.554  0.3665 -0.7852 -1.5111
15650SOL     OW47648   6.142   3.527   3.792  0.1382  0.3408  0.0415
15650SOL    HW147649   6.165   3.602   3.737  1.2160  0.2552  0.3428
15650SOL    HW247650   6.210   3.526   3.859 -0.0768 -0.6897  0.2527
15651SOL     OW47651   3.466   1.444   0.417 -0.0173  0.0387  0.1951
15651SOL    HW147652   3.431   1.375   0.474 -0.5199 -1.1356 -1.4776
15651SOL    HW247653   3.548   1.408   0.383  0.1373  0.6134 -0.0558
15652SOL     OW47654   0.341   3.050   6.000  0.3539 -0.0175  0.2700
15652SOL    HW147655   0.349   3.000   5.919 -1.8873  0.6610 -0.4394
15652SOL    HW247656   0.349   3.141   5.972 -1.1705  0.2622  0.6398
15653SOL     OW47657   3.341   6.573   6.398  0.0075  0.1673 -0.3159
15653SOL    HW147658   3.280   6.566   6.471 -0.0497  1.5249 -0.2129
15653SOL    HW247659   3.285   6.579   6.321 -0.0302  1.7601 -0.1922
15654SOL     OW47660   0.692   7.192   0.960 -0.0057 -0.2237 -0.3694
15654SOL    HW147661   0.606   7.212   0.923 -0.8191 -2.0734  0.3777
15654SOL    HW247662   0.750   7.190   0.884 -0.8028  0.1597 -1.0134
15655SOL     OW47663   1.011   6.616   7.648  0.0522  0.9606  0.0111
15655SOL    HW147664   1.033   6.673   7.574 -1.1123  1.0937 -0.2507
15655SOL    HW247665   1.035   6.667   7.725 -1.4225  2.0346 -0.2009
15656SOL     OW47666   6.307   5.837   2.787  0.2573 -0.2625  0.5987
15656SOL    HW147667   6.287   5.761   2.842 -0.0237  0.3927  1.4227
15656SOL    HW247668   6.314   5.801   2.699  0.8696 -1.3619  1.0742
15657SOL     OW47669   3.608   4.392   3.346  0.1178  0.4255  0.0393
15657SOL    HW147670   3.537   4.444   3.308 -0.0867  0.8674  0.9955
15657SOL    HW247671   3.612   4.313   3.291 -0.1528  1.0459 -0.8912
15658SOL     OW47672   3.679   1.821   5.421 -0.4641 -0.5865 -0.7327
15658SOL    HW147673   3.617   1.890   5.399  0.0555  0.5930  1.2019
15658SOL    HW247674   3.763   1.853   5.388 -0.2192 -0.2324  0.1859
15659SOL     OW47675   4.865   3.070   3.580 -0.1601 -0.0897 -0.1643
15659SOL    HW147676   4.822   3.113   3.506 -0.3229  0.4444  0.2362
15659SOL    HW247677   4.919   3.139   3.619 -2.3193  0.4839  2.0006
15660SOL     OW47678   4.786   3.420   7.658 -0.5962 -0.2584  0.0149
15660SOL    HW147679   4.755   3.333   7.633  2.0474 -1.4932  0.6869
15660SOL    HW247680   4.862   3.403   7.714 -0.8718  2.4909  1.3863
15661SOL     OW47681   4.092   4.894   7.630 -0.4725  1.0663 -0.1617
15661SOL    HW147682   4.084   4.865   7.539  0.0802  1.1601 -0.2422
15661SOL    HW247683   4.076   4.815   7.682  2.0236  0.3353 -0.3904
15662SOL     OW47684   3.434   2.826   2.136  0.2174 -0.0347  0.6864
15662SOL    HW147685   3.362   2.786   2.185  1.7058 -2.3060  1.1225
15662SOL    HW247686   3.511   2.775   2.159  1.5594  0.7862 -1.6572
15663SOL     OW47687   4.807   0.815   1.814  0.2054  0.1945 -0.0091
15663SOL    HW147688   4.847   0.880   1.757 -0.5118  0.6629  0.0102
15663SOL    HW247689   4.763   0.755   1.754 -1.0877  1.0467  0.0574
15664SOL     OW47690   6.633   0.038   6.165  0.4416  0.0737  0.0742
15664SOL    HW147691   6.556   0.091   6.186  0.7474  0.3893  0.3890
15664SOL    HW247692   6.629   0.027   6.070 -0.8981 -1.2776  0.2475
15665SOL     OW47693   5.465   4.997   7.310  0.2635  0.3235  0.1403
15665SOL    HW147694   5.417   5.006   7.227 -1.4938 -0.1904  1.0429
15665SOL    HW247695   5.443   5.076   7.359 -0.1945 -0.1993  0.8029
15666SOL     OW47696   6.379   1.227   3.003  0.4759  0.1989  0.3010
15666SOL    HW147697   6.397   1.138   2.972  0.9083  0.1352  0.7256
15666SOL    HW247698   6.414   1.283   2.934 -1.3625  0.0508 -0.8305
15667SOL     OW47699   0.060   5.804   4.569  0.2861  0.4786 -0.0737
15667SOL    HW147700   0.086   5.761   4.487  0.4634 -0.1273  0.2994
15667SOL    HW247701  -0.020   5.851   4.546  0.4269  0.4553 -0.6418
15668SOL     OW47702   3.736   3.357   0.177  0.2657  0.0630  0.6767
15668SOL    HW147703   3.826   3.360   0.209 -0.1804  0.2421  1.9889
15668SOL    HW247704   3.691   3.297   0.237 -0.7618  0.9409  0.8160
15669SOL     OW47705   0.352   1.951   2.398 -0.3305  0.3015 -0.3083
15669SOL    HW147706   0.372   1.986   2.485 -1.3788 -0.8067  0.4030
15669SOL    HW247707   0.353   2.028   2.341  2.0269  0.8344  0.3325
15670SOL     OW47708   7.016   3.182   1.479 -0.4971  0.3527  0.0034
15670SOL    HW147709   7.018   3.143   1.392  0.5569  1.4394 -0.4870
15670SOL    HW247710   6.955   3.127   1.529  0.5276 -1.5974 -0.7749
15671SOL     OW47711   0.827   3.782   6.772 -0.3415 -0.2713 -0.0488
15671SOL    HW147712   0.877   3.852   6.814  0.6807 -0.9292 -0.1480
15671SOL    HW247713   0.860   3.778   6.683 -0.7124 -0.5853 -0.1768
15672SOL     OW47714   1.308   5.194   2.958 -0.1050 -0.4896  0.0505
15672SOL    HW147715   1.364   5.159   2.888 -0.8962 -0.8772 -0.3985
15672SOL    HW247716   1.255   5.120   2.986  0.7346 -0.5257  1.6073
15673SOL     OW47717   7.294   7.166   4.938  0.0960  0.2338  0.3624
15673SOL    HW147718   7.265   7.089   4.889 -0.1755 -0.2642  1.2956
15673SOL    HW247719   7.238   7.237   4.907 -1.0604 -0.3810  0.9927
15674SOL     OW47720   5.932   2.997   3.454 -0.2689  0.8932 -0.0894
15674SOL    HW147721   5.985   2.984   3.376 -0.6162  0.0187 -0.1986
15674SOL    HW247722   5.863   2.930   3.448 -1.3001  1.9102  0.1234
15675SOL     OW47723   4.677   0.473   7.187  0.5899  0.5078 -0.2885
15675SOL    HW147724   4.732   0.493   7.263  2.3719  0.3485 -1.4785
15675SOL    HW247725   4.599   0.527   7.199  1.2077  1.1181  1.2197
15676SOL     OW47726   6.425   3.846   1.316  0.1277  0.1257 -0.9514
15676SOL    HW147727   6.375   3.774   1.355 -0.6789  1.2707  0.2074
15676SOL    HW247728   6.404   3.841   1.222 -1.8423  0.2738 -0.5747
15677SOL     OW47729   7.761   1.189   6.690  0.1389  0.1774  0.6501
15677SOL    HW147730   7.707   1.267   6.678  0.6803  1.4254  4.6739
15677SOL    HW247731   7.827   1.216   6.755  1.7361 -3.0433  0.5572
15678SOL     OW47732   6.244   1.857   0.168  0.4146 -0.8182 -0.4636
15678SOL    HW147733   6.333   1.859   0.204  0.1504  0.7781  0.1828
15678SOL    HW247734   6.213   1.947   0.176 -0.5886 -0.9413 -2.4372
15679SOL     OW47735   6.703   5.768   5.709  0.3490  0.1406  0.7747
15679SOL    HW147736   6.693   5.683   5.752  1.0013  1.4443  3.7388
15679SOL    HW247737   6.621   5.815   5.728 -0.2486  0.0515 -1.3167
15680SOL     OW47738   0.658   0.265   7.874 -0.2210 -0.5783 -0.0707
15680SOL    HW147739   0.634   0.173   7.858  0.0834 -0.4888 -1.1373
15680SOL    HW247740   0.749   0.261   7.902 -1.1174 -0.8487  3.1754
15681SOL     OW47741   7.824   3.739   0.062  0.4586 -0.2524 -0.0739
15681SOL    HW147742   7.885   3.665   0.063 -0.6769 -1.3418  3.4043
15681SOL    HW247743   7.738   3.698   0.050  0.0913  0.9445 -1.8259
15682SOL     OW47744   2.860   5.878   5.533 -1.1565 -0.1701 -1.0173
15682SOL    HW147745   2.911   5.953   5.503 -1.7910  0.5967 -0.2368
15682SOL    HW247746   2.770   5.908   5.531 -1.2692 -0.0698  1.4955
15683SOL     OW47747   1.621   4.037   5.754  0.3410 -0.0479 -0.0271
15683SOL    HW147748   1.624   4.027   5.849  1.2981 -0.5902 -0.0989
15683SOL    HW247749   1.595   4.128   5.740  1.0583  0.2861  0.7601
15684SOL     OW47750   5.452   5.764   5.622 -0.2950 -0.3779  0.5355
15684SOL    HW147751   5.504   5.842   5.641 -1.3820  0.7560 -0.9032
15684SOL    HW247752   5.486   5.731   5.539 -1.5766  0.1853 -0.2562
15685SOL     OW47753   1.742   7.920   4.032  0.3240  0.1346 -0.7574
15685SOL    HW147754   1.711   7.830   4.025  1.5675 -0.3822 -0.1017
15685SOL    HW247755   1.789   7.937   3.950  1.1393 -0.2720 -0.3940
15686SOL     OW47756   1.641   6.653   3.400 -0.4509  0.2171 -0.8743
15686SOL    HW147757   1.723   6.636   3.447 -1.3799  0.0522  0.7505
15686SOL    HW247758   1.663   6.724   3.338  0.7625  0.5877 -0.0553
15687SOL     OW47759   2.445   1.408   3.366  0.0717  0.0259  0.0243
15687SOL    HW147760   2.408   1.368   3.288 -2.2614  1.4145  0.3120
15687SOL    HW247761   2.540   1.406   3.352 -0.2557 -0.1164 -2.6597
15688SOL     OW47762   4.308   5.158   0.975 -0.5405 -0.0481 -0.0905
15688SOL    HW147763   4.310   5.119   1.062  0.4060 -0.1275 -0.1321
15688SOL    HW247764   4.276   5.247   0.989 -1.1879 -0.3277  0.2192
15689SOL     OW47765   2.342   6.219   0.149  0.2332  0.0006  0.6951
15689SOL    HW147766   2.290   6.277   0.204  1.0892 -0.3417  1.9137
15689SOL    HW247767   2.429   6.219   0.189  1.8142  2.0320 -2.3028
15690SOL     OW47768   4.941   3.833   4.335 -1.0044 -0.6151  0.4995
15690SOL    HW147769   4.966   3.924   4.321 -1.6039 -0.7369 -1.7005
15690SOL    HW247770   4.849   3.837   4.358 -1.1867 -0.6805 -0.1940
15691SOL     OW47771   1.375   1.750   3.042 -0.0076  0.1135  0.2489
15691SOL    HW147772   1.391   1.707   3.127  0.6548 -1.3609 -0.5699
15691SOL    HW247773   1.426   1.698   2.980 -1.1036  0.6935 -1.1836
15692SOL     OW47774   7.352   6.241   0.173 -0.1928 -0.1796  0.1261
15692SOL    HW147775   7.273   6.189   0.155 -0.3390  0.4728 -1.3351
15692SOL    HW247776   7.321   6.332   0.171  0.5271  0.0682 -0.1632
15693SOL     OW47777   0.021   5.332   5.424  0.4264 -0.1867  0.0839
15693SOL    HW147778   0.023   5.427   5.434 -0.2814  0.3522 -3.5083
15693SOL    HW247779   0.112   5.304   5.436  0.7448  1.0056  0.5608
15694SOL     OW47780   2.791   1.427   6.175  0.4584  0.0796 -0.0327
15694SOL    HW147781   2.835   1.505   6.209 -0.8319 -0.0343  2.0912
15694SOL    HW247782   2.829   1.355   6.225  2.0700 -0.8025 -2.4001
15695SOL     OW47783   3.766   0.001   0.221  0.2383  0.4544  0.3947
15695SOL    HW147784   3.808  -0.007   0.307  0.4050 -1.5154  0.1720
15695SOL    HW247785   3.779  -0.085   0.180 -1.8072  0.5992 -0.6870
15696SOL     OW47786   6.342   5.938   7.246 -0.0632  0.6092  0.1675
15696SOL    HW147787   6.300   5.992   7.178  0.3410  1.1972  0.3844
15696SOL    HW247788   6.354   5.997   7.320 -0.3611  0.0082  0.7109
15697SOL     OW47789   1.720   6.519   3.112 -0.1435  0.2311 -0.0631
15697SOL    HW147790   1.701   6.591   3.172  1.9462  0.0124  0.9426
15697SOL    HW247791   1.742   6.562   3.029  0.3506  0.7423  0.3205
15698SOL     OW47792   7.086   7.473   4.261  0.1902 -0.2198  0.1451
15698SOL    HW147793   7.069   7.389   4.305  0.1951 -0.0844  0.4068
15698SOL    HW247794   7.099   7.449   4.169 -1.9293 -0.2858 -0.1881
15699SOL     OW47795   7.057   3.816   2.481  0.4408 -0.3157  0.7972
15699SOL    HW147796   7.028   3.903   2.455  3.1978  0.4853  0.0768
15699SOL    HW247797   7.070   3.822   2.576  0.6079  0.0458  0.7507
15700SOL     OW47798   2.235   1.550   1.810 -0.3901 -0.3905 -0.1340
15700SOL    HW147799   2.150   1.517   1.838 -0.5054  0.4614  0.5671
15700SOL    HW247800   2.294   1.476   1.821 -0.3621 -0.0596  2.7792
15701SOL     OW47801   0.857   1.212   5.003  0.5983  0.0601  0.2570
15701SOL    HW147802   0.782   1.262   5.034  1.0004  1.7639 -1.3546
15701SOL    HW247803   0.822   1.156   4.934  0.7824  0.8298 -0.4710
15702SOL     OW47804   3.132   7.797   6.178  0.0826  0.2960  0.4150
15702SOL    HW147805   3.224   7.772   6.168 -0.2277 -1.1921  0.9994
15702SOL    HW247806   3.105   7.756   6.260 -1.1880  0.4780  0.1130
15703SOL     OW47807   6.324   6.272   7.960  0.0392 -0.3521 -0.7324
15703SOL    HW147808   6.253   6.328   7.990 -0.1835  0.2262 -2.2811
15703SOL    HW247809   6.302   6.185   7.995 -0.1892  0.2623  0.7453
15704SOL     OW47810   0.775   6.523   1.069 -0.0615 -0.0808  0.3664
15704SOL    HW147811   0.729   6.605   1.051 -1.3630 -0.3130  2.3088
15704SOL    HW247812   0.843   6.519   1.002  0.8034  3.1256  0.8818
15705SOL     OW47813   3.433   4.667   3.831  0.4368  0.3150 -0.0620
15705SOL    HW147814   3.449   4.667   3.737 -1.2716  1.1328 -0.3851
15705SOL    HW247815   3.498   4.728   3.867 -0.5171  1.9634 -1.0481
15706SOL     OW47816   3.639   2.604   0.487 -0.1323 -0.6737  0.0803
15706SOL    HW147817   3.583   2.669   0.444 -0.6173 -0.7320  0.6062
15706SOL    HW247818   3.726   2.644   0.489 -0.8219  0.8918  2.2884
15707SOL     OW47819   1.229   7.650   4.968 -0.4189  0.0218 -0.1405
15707SOL    HW147820   1.314   7.606   4.974 -0.7075 -0.8827 -1.8357
15707SOL    HW247821   1.250   7.743   4.962  0.5881 -0.2621 -1.8606
15708SOL     OW47822   3.101   6.645   5.357 -0.5998 -0.0479  0.1207
15708SOL    HW147823   3.076   6.559   5.324 -1.3585 -1.0291  2.9330
15708SOL    HW247824   3.058   6.651   5.443  1.4897  2.0859  1.1361
15709SOL     OW47825   4.481   0.217   0.609 -0.3095  0.1815 -0.0665
15709SOL    HW147826   4.535   0.276   0.556  1.2260 -0.6094  0.5489
15709SOL    HW247827   4.544   0.165   0.659 -1.6140 -1.6502 -0.2173
15710SOL     OW47828   6.577   4.912   3.802  0.0984 -0.5096  0.2581
15710SOL    HW147829   6.633   4.989   3.787  1.7898 -1.4804  1.2420
15710SOL    HW247830   6.581   4.898   3.897 -5.1320  1.7078  1.1764
15711SOL     OW47831   3.026   7.331   2.612  0.1726  0.7413 -0.6107
15711SOL    HW147832   3.115   7.299   2.623 -0.0393  0.0773 -0.7663
15711SOL    HW247833   3.012   7.331   2.517 -0.7316 -1.3198 -0.5367
15712SOL     OW47834   2.582   6.418   0.251  0.0722  0.8024 -0.4043
15712SOL    HW147835   2.525   6.392   0.323 -0.9947  1.1416 -1.0925
15712SOL    HW247836   2.582   6.513   0.253  1.1923  0.8004  0.0144
15713SOL     OW47837   1.629   6.039   4.581 -0.4272 -0.2577  0.1130
15713SOL    HW147838   1.599   5.976   4.515 -1.5508  0.1666  0.2038
15713SOL    HW247839   1.706   6.081   4.542 -0.3767 -0.8488 -0.4276
15714SOL     OW47840   4.964   7.065   0.480  0.0454 -0.2207 -0.1190
15714SOL    HW147841   4.960   7.050   0.386  0.8837  2.1612 -0.5911
15714SOL    HW247842   4.998   6.983   0.516 -0.4827 -1.2374 -1.8310
15715SOL     OW47843   3.874   3.047   5.845  0.1006 -0.6881 -0.6819
15715SOL    HW147844   3.906   3.118   5.900  0.1645 -1.4533  0.2852
15715SOL    HW247845   3.784   3.071   5.823  1.0185  1.1379 -2.8365
15716SOL     OW47846   5.971   4.740   2.430  0.3094 -0.0358 -0.3399
15716SOL    HW147847   5.914   4.699   2.366 -0.4510  1.1658 -0.4666
15716SOL    HW247848   6.059   4.714   2.405 -0.1857 -2.6931  0.4006
15717SOL     OW47849   2.430   2.430   1.988  0.6434  0.2603 -0.4711
15717SOL    HW147850   2.378   2.510   1.982  0.0104 -0.1689 -0.7677
15717SOL    HW247851   2.412   2.383   1.907  0.3525 -0.5757  0.0621
15718SOL     OW47852   1.791   6.283   2.024  0.1593  0.5354  0.4140
15718SOL    HW147853   1.875   6.296   2.069  1.4524  1.3275 -2.0603
15718SOL    HW247854   1.751   6.370   2.023  0.8105  0.8411 -1.1490
15719SOL     OW47855   6.816   5.862   6.965 -0.0741  0.1088  0.1930
15719SOL    HW147856   6.776   5.801   6.903 -0.4373  0.6113 -0.0665
15719SOL    HW247857   6.780   5.836   7.050 -1.0781  0.6412 -0.0505
15720SOL     OW47858   1.640   4.331   3.769 -0.3597 -0.7765  0.2345
15720SOL    HW147859   1.575   4.328   3.698 -0.4393 -1.1291  0.3185
15720SOL    HW247860   1.722   4.307   3.727 -0.1742  0.1971  0.0162
15721SOL     OW47861   5.383   7.339   3.673  0.4980  0.2339  0.1220
15721SOL    HW147862   5.379   7.244   3.684  0.6673  0.1373 -0.5490
15721SOL    HW247863   5.377   7.351   3.578  0.5204  0.8906  0.2037
15722SOL     OW47864   3.282   6.429   1.447 -0.3601 -0.2998 -0.3034
15722SOL    HW147865   3.222   6.439   1.520 -0.1840  0.1619 -0.2185
15722SOL    HW247866   3.234   6.462   1.371  0.4942  2.0640  0.1038
15723SOL     OW47867   6.372   5.690   0.692  0.4057  0.2112 -0.1627
15723SOL    HW147868   6.387   5.776   0.652  2.0165 -0.6927 -1.5917
15723SOL    HW247869   6.401   5.701   0.783  0.2273  1.2723 -0.2122
15724SOL     OW47870   6.548   6.998   3.831 -0.4195 -0.4119  0.3769
15724SOL    HW147871   6.518   7.041   3.750 -0.0845  0.7211  0.8294
15724SOL    HW247872   6.538   7.065   3.899  2.1958 -0.2736  0.7377
15725SOL     OW47873   7.071   5.042   6.106  0.4762 -0.4665  0.2112
15725SOL    HW147874   7.135   5.113   6.099  0.9153 -1.0027 -2.3444
15725SOL    HW247875   6.991   5.086   6.136  1.0684  0.8871 -0.0970
15726SOL     OW47876   6.492   7.049   7.571  0.2181 -0.3386 -0.0446
15726SOL    HW147877   6.464   7.138   7.592  4.1280  1.0779 -0.0367
15726SOL    HW247878   6.417   7.010   7.526 -1.7321  2.8344  0.1494
15727SOL     OW47879   1.813   3.702   4.866  0.1397  0.0226  0.1089
15727SOL    HW147880   1.839   3.775   4.809 -1.8760  0.1214 -0.7683
15727SOL    HW247881   1.717   3.706   4.869 -0.0299 -2.4403  0.2447
15728SOL     OW47882   4.570   0.142   6.258  0.4434 -0.3712 -0.2151
15728SOL    HW147883   4.589   0.187   6.340  0.8644 -0.7543 -0.0945
15728SOL    HW247884   4.621   0.189   6.192  0.4605 -0.3379 -0.1782
15729SOL     OW47885   6.640   6.344   6.801 -0.1179 -0.3471 -0.1687
15729SOL    HW147886   6.706   6.275   6.809  0.3155  0.0475 -0.2338
15729SOL    HW247887   6.689   6.425   6.818  0.1360  0.2679 -3.2059
15730SOL     OW47888   6.410   6.931   1.295  0.3373  0.7290 -0.2154
15730SOL    HW147889   6.393   6.841   1.323  0.5502  0.5700 -0.5849
15730SOL    HW247890   6.408   6.927   1.199 -1.6135  1.4991 -0.2569
15731SOL     OW47891   3.331   2.589   7.547  0.2549 -0.0520  0.3033
15731SOL    HW147892   3.285   2.575   7.630  2.8498 -1.2616  1.6433
15731SOL    HW247893   3.331   2.503   7.505  1.5078 -0.1617  0.4920
15732SOL     OW47894   2.821   5.713   5.241 -0.0980  0.5144 -0.7458
15732SOL    HW147895   2.807   5.737   5.149  2.5190  0.4965 -1.2187
15732SOL    HW247896   2.914   5.694   5.247 -0.4229 -0.6622  1.6857
15733SOL     OW47897   2.802   2.831   6.734  0.0545  0.9059  0.0344
15733SOL    HW147898   2.746   2.825   6.812  1.0392 -3.9867  0.7111
15733SOL    HW247899   2.872   2.891   6.759 -0.0925  0.0960  2.7040
15734SOL     OW47900   5.816   4.286   0.273  0.1068  0.1273  0.0316
15734SOL    HW147901   5.819   4.236   0.192 -0.5428  1.9068 -1.1657
15734SOL    HW247902   5.821   4.221   0.342 -1.4945 -1.6370 -1.4112
15735SOL     OW47903   2.255   1.841   0.330 -0.3708  0.5658  0.0752
15735SOL    HW147904   2.177   1.818   0.381 -1.3303  0.7898 -1.2345
15735SOL    HW247905   2.327   1.834   0.392 -1.4080  0.1679  1.2813
15736SOL     OW47906   4.351   6.861   0.492 -0.0942  0.1418  0.3396
15736SOL    HW147907   4.365   6.808   0.570  0.6909 -0.4305 -0.1690
15736SOL    HW247908   4.325   6.947   0.525  1.2159  0.2018  1.2631
15737SOL     OW47909   4.905   7.790   4.793  0.8341  0.9297 -0.2716
15737SOL    HW147910   4.945   7.841   4.864  0.3333  0.5066  0.3257
15737SOL    HW247911   4.826   7.839   4.770  0.2984  0.4042  0.3709
15738SOL     OW47912   7.891   5.742   5.290  0.1882  0.0733  0.3382
15738SOL    HW147913   7.859   5.692   5.215  0.8791 -1.8746  1.2874
15738SOL    HW247914   7.817   5.797   5.316 -0.2653  0.3000 -1.3458
15739SOL     OW47915   1.307   3.326   1.177 -0.3758  0.2026  1.1669
15739SOL    HW147916   1.320   3.292   1.088 -0.2604  2.6193  0.1882
15739SOL    HW247917   1.287   3.248   1.229 -1.2553 -1.2234 -1.1214
15740SOL     OW47918   4.557   4.403   6.517 -0.1926  0.2188 -0.2627
15740SOL    HW147919   4.592   4.446   6.440 -1.6149  0.2118 -0.9526
15740SOL    HW247920   4.504   4.331   6.482 -0.4018 -0.1336  0.7451
15741SOL     OW47921   1.653   7.195   7.586 -0.1644 -0.7866  0.5122
15741SOL    HW147922   1.727   7.253   7.574 -0.5322 -0.2060  1.0288
15741SOL    HW247923   1.645   7.184   7.681 -2.2691  1.1879  0.6424
15742SOL     OW47924   4.188   0.185   4.118  0.1291 -0.2917 -0.9324
15742SOL    HW147925   4.240   0.108   4.097  2.9548  1.5651 -1.3622
15742SOL    HW247926   4.207   0.202   4.210 -1.0809 -0.5258 -0.6349
15743SOL     OW47927   2.496   7.792   2.526 -0.1377  0.1574  0.7352
15743SOL    HW147928   2.466   7.870   2.477  1.7396  1.0371  0.9165
15743SOL    HW247929   2.502   7.823   2.616 -1.4368 -0.8490  1.2009
15744SOL     OW47930   6.644   5.330   3.915  0.5147 -0.3972  0.2451
15744SOL    HW147931   6.686   5.279   3.984 -1.1011  0.3082  1.8201
15744SOL    HW247932   6.576   5.272   3.880  1.5264 -0.8652 -1.0082
15745SOL     OW47933   3.074   3.195   5.573  0.0045 -0.6954 -0.2840
15745SOL    HW147934   2.999   3.250   5.591  1.5765  1.4136  0.1827
15745SOL    HW247935   3.118   3.185   5.657  1.4392  0.0238 -0.8990
15746SOL     OW47936   5.670   0.888   6.018  0.0407 -0.4793 -0.6565
15746SOL    HW147937   5.631   0.976   6.024  0.6877 -0.2526  0.3407
15746SOL    HW247938   5.671   0.870   5.924 -1.0379  0.1517 -0.8175
15747SOL     OW47939   5.687   5.388   5.113  0.1322  0.2941  0.4014
15747SOL    HW147940   5.674   5.474   5.072 -0.7575 -0.7297 -1.5699
15747SOL    HW247941   5.626   5.330   5.069  2.0038 -1.7808  0.3559
15748SOL     OW47942   2.332   1.453   6.182  0.4909  0.0190 -0.1536
15748SOL    HW147943   2.247   1.415   6.161  1.4469 -1.9316 -0.7449
15748SOL    HW247944   2.392   1.412   6.120  2.0519  0.4700  0.9993
15749SOL     OW47945   7.631   4.341   3.494 -0.7339 -0.3688  0.0822
15749SOL    HW147946   7.557   4.308   3.545  0.7056 -1.9114  1.2677
15749SOL    HW247947   7.694   4.371   3.559 -0.4544  1.3283 -0.9175
15750SOL     OW47948   2.094   2.050   3.702  0.5311 -0.1130  0.0812
15750SOL    HW147949   2.178   2.038   3.659 -1.1039 -0.4685 -3.3739
15750SOL    HW247950   2.043   2.103   3.640 -2.5987 -2.0644  0.7755
15751SOL     OW47951   3.883   5.158   2.128 -0.2429 -0.8105 -0.0415
15751SOL    HW147952   3.847   5.174   2.040  1.9222 -2.7838 -1.3970
15751SOL    HW247953   3.973   5.130   2.112  1.4394  2.1406  3.0626
15752SOL     OW47954   7.892   4.698   2.399  0.5146  0.0616 -0.6151
15752SOL    HW147955   7.822   4.709   2.464  3.8469  0.8955  3.2640
15752SOL    HW247956   7.883   4.608   2.369 -1.4786 -0.2180  0.6401
15753SOL     OW47957   7.226   5.257   4.251 -0.4716 -0.4949  0.2402
15753SOL    HW147958   7.305   5.262   4.305  1.8972 -0.5048 -2.9751
15753SOL    HW247959   7.236   5.327   4.187 -2.4320 -1.3331 -1.0782
15754SOL     OW47960   5.696   7.893   1.375 -0.7333 -0.6654  0.4988
15754SOL    HW147961   5.737   7.963   1.324 -0.2035 -0.7354  0.8267
15754SOL    HW247962   5.608   7.885   1.337 -0.4967 -0.4244 -0.1195
15755SOL     OW47963   2.980   4.808   7.410  0.0121  0.1315 -0.3222
15755SOL    HW147964   3.073   4.825   7.394 -0.2731  4.1517  1.0953
15755SOL    HW247965   2.934   4.873   7.357 -2.0289 -1.4561 -0.6327
15756SOL     OW47966   2.934   2.914   5.773  0.1310 -0.1302  0.0805
15756SOL    HW147967   2.983   2.891   5.693  0.3730 -3.2954  0.9827
15756SOL    HW247968   2.988   2.981   5.815  2.0125 -1.0987 -0.6272
15757SOL     OW47969   6.957   1.944   1.871 -0.3567 -0.1926  0.2957
15757SOL    HW147970   6.952   1.858   1.914 -0.8176  0.1871  1.0274
15757SOL    HW247971   6.914   2.003   1.933  1.6715  0.9140  0.7103
15758SOL     OW47972   6.215   7.660   5.440 -0.0222 -0.0933  0.7704
15758SOL    HW147973   6.160   7.701   5.507 -1.3367 -0.5249 -0.0053
15758SOL    HW247974   6.212   7.567   5.460 -0.2097 -0.1987  0.2682
15759SOL     OW47975   7.143   4.246   1.674  0.1279  0.6153 -0.0816
15759SOL    HW147976   7.238   4.250   1.660  0.1154  0.5853 -0.1785
15759SOL    HW247977   7.109   4.201   1.596  0.0516  0.4776  0.0318
15760SOL     OW47978   6.724   4.262   3.344  0.5911  0.3154  0.2391
15760SOL    HW147979   6.706   4.317   3.268  2.2373  1.0018  0.3143
15760SOL    HW247980   6.644   4.210   3.355 -1.0381  2.6568  0.1705
15761SOL     OW47981   6.298   2.306   4.663 -0.2776 -0.6447 -0.6277
15761SOL    HW147982   6.307   2.401   4.672  1.2488 -0.8096 -0.2610
15761SOL    HW247983   6.207   2.289   4.687 -0.6042  0.7225 -0.7869
15762SOL     OW47984   3.665   6.169   7.409 -0.6480 -0.4736  0.1160
15762SOL    HW147985   3.617   6.123   7.478 -2.6253  2.5906  0.9888
15762SOL    HW247986   3.597   6.203   7.351  0.5573  1.8261 -0.0887
15763SOL     OW47987   4.327   2.356   4.842 -0.7180 -0.2974 -0.3842
15763SOL    HW147988   4.326   2.449   4.861 -0.0650 -0.4030  0.2008
15763SOL    HW247989   4.386   2.347   4.768 -1.4694 -0.1529 -1.0141
15764SOL     OW47990   6.762   5.845   1.286 -0.0171 -0.1054  0.7006
15764SOL    HW147991   6.689   5.902   1.312 -0.1592  0.1669 -0.2546
15764SOL    HW247992   6.792   5.806   1.368 -0.0431  1.1871  1.3513
15765SOL     OW47993   0.558   4.855   0.991 -0.1347  0.2635  0.2909
15765SOL    HW147994   0.627   4.890   1.048 -1.7608  0.2146  2.4161
15765SOL    HW247995   0.571   4.761   0.992 -0.0626  0.2747  0.4533
15766SOL     OW47996   1.996   4.435   7.922 -0.6749 -0.4158 -0.0931
15766SOL    HW147997   2.013   4.475   8.007  1.7408 -1.5821  0.0680
15766SOL    HW247998   1.936   4.363   7.941  0.9568 -1.5849  0.9693
15767SOL     OW47999   7.957   5.245   1.530 -0.2811  0.2161 -0.4353
15767SOL    HW148000   8.008   5.296   1.468  0.0409  1.0513  0.4933
15767SOL    HW248001   7.870   5.239   1.490 -0.0222  0.5615 -1.0622
15768SOL     OW48002   7.273   0.791   0.842 -0.9514  0.2007  0.4971
15768SOL    HW148003   7.304   0.820   0.756 -2.2746  0.2963  0.0304
15768SOL    HW248004   7.192   0.743   0.824  0.5996 -3.0059  1.3428
15769SOL     OW48005   4.623   7.708   6.115  0.2654 -0.4369  0.0757
15769SOL    HW148006   4.654   7.702   6.205 -1.0711 -0.7220  0.5458
15769SOL    HW248007   4.546   7.650   6.112  1.6001 -2.2453 -1.8556
15770SOL     OW48008   5.805   0.566   1.894 -0.2134 -0.0147  0.3650
15770SOL    HW148009   5.900   0.556   1.888 -0.0573  1.2335  0.4603
15770SOL    HW248010   5.774   0.483   1.932  0.9032 -0.1663  0.9788
15771SOL     OW48011   4.151   7.415   3.327  0.1459  0.1835  0.9635
15771SOL    HW148012   4.125   7.502   3.296 -0.3768 -0.5610 -0.8582
15771SOL    HW248013   4.220   7.388   3.266  1.0989 -0.2392  2.2033
15772SOL     OW48014   4.699   1.981   6.559 -0.2149 -0.2181 -0.0925
15772SOL    HW148015   4.733   2.006   6.473  0.1126  0.5353  0.2462
15772SOL    HW248016   4.645   2.055   6.586  1.4272  0.5383  1.2904
15773SOL     OW48017   1.766   7.676   2.503 -0.1432  0.3718  0.1260
15773SOL    HW148018   1.773   7.598   2.557  0.2627  1.2627  1.4065
15773SOL    HW248019   1.849   7.721   2.514 -0.3358  0.9565 -0.6595
15774SOL     OW48020   4.107   3.894   5.055  0.1838  0.1063  0.6278
15774SOL    HW148021   4.121   3.961   5.122  0.4151  0.6241  0.0742
15774SOL    HW248022   4.016   3.866   5.067 -0.0986  0.9462  0.4825
15775SOL     OW48023   7.124   7.886   1.951  0.3998  0.1133 -0.7942
15775SOL    HW148024   7.174   7.852   1.877  0.1646 -0.5280 -0.6685
15775SOL    HW248025   7.070   7.812   1.979 -2.2790  1.3347 -2.2972
15776SOL     OW48026   0.360   2.865   1.546  0.1797 -0.7431  0.4198
15776SOL    HW148027   0.349   2.959   1.539  0.9953 -0.5563  1.4471
15776SOL    HW248028   0.370   2.835   1.456  2.7544  0.5323  0.1984
15777SOL     OW48029   1.111   4.093   7.284 -0.1250  0.3235  0.0298
15777SOL    HW148030   1.203   4.077   7.307 -0.1736 -3.2651 -1.5671
15777SOL    HW248031   1.065   4.016   7.318 -2.5621  1.9162  0.5699
15778SOL     OW48032   2.468   1.337   3.943 -0.0182 -0.2034 -0.2024
15778SOL    HW148033   2.500   1.409   3.998  1.0965  0.4160 -1.6057
15778SOL    HW248034   2.379   1.363   3.918  0.7629  1.2870 -1.6113
15779SOL     OW48035   3.608   4.729   5.807  0.1653  0.0758 -0.3979
15779SOL    HW148036   3.647   4.693   5.886  0.4913  0.0781 -0.5546
15779SOL    HW248037   3.665   4.802   5.784 -0.6356  0.8678  0.0653
15780SOL     OW48038   1.482   5.335   2.716  0.2686 -0.6096  0.4340
15780SOL    HW148039   1.532   5.311   2.638  1.3753 -1.9622  1.5021
15780SOL    HW248040   1.408   5.275   2.716 -0.5660  0.3982 -0.3555
15781SOL     OW48041   5.687   7.836   7.294  0.2159 -0.3705 -0.2061
15781SOL    HW148042   5.715   7.850   7.385 -2.2923  0.2166  0.5784
15781SOL    HW248043   5.683   7.925   7.257 -0.6933 -0.4023 -0.2170
15782SOL     OW48044   2.956   6.907   7.091 -0.3784 -0.0292  0.0796
15782SOL    HW148045   2.865   6.930   7.109 -0.7285 -0.0654 -1.4739
15782SOL    HW248046   2.959   6.897   6.996  1.3513  0.3890  0.0667
15783SOL     OW48047   6.329   5.538   5.560 -0.1910  0.1335 -0.1892
15783SOL    HW148048   6.383   5.614   5.539 -0.1522 -0.2836 -1.7231
15783SOL    HW248049   6.356   5.513   5.648  1.0711  0.8227 -0.3597
15784SOL     OW48050   6.596   6.653   7.040 -0.2868  0.8280  0.4651
15784SOL    HW148051   6.591   6.563   7.071  0.8287  0.8673  0.8041
15784SOL    HW248052   6.690   6.673   7.039 -0.4969  1.8714  0.0628
15785SOL     OW48053   3.374   2.416   0.376 -0.4758 -0.6858 -0.0304
15785SOL    HW148054   3.359   2.400   0.470 -2.3108 -2.2570 -0.5165
15785SOL    HW248055   3.355   2.509   0.364 -0.6985 -0.5736  1.0785
15786SOL     OW48056   3.451   5.060   4.267  0.0747 -0.1648 -0.2106
15786SOL    HW148057   3.362   5.046   4.234 -1.1555  2.5452  1.5540
15786SOL    HW248058   3.442   5.050   4.362  0.8804  3.0639  0.3174
15787SOL     OW48059   5.755   1.260   1.929 -0.9690  0.3007 -0.2157
15787SOL    HW148060   5.724   1.181   1.886  0.5004 -0.1365 -0.5226
15787SOL    HW248061   5.847   1.243   1.947 -0.7191  1.7979  0.0631
15788SOL     OW48062   5.932   3.049   5.224 -0.5425  0.0957 -0.4812
15788SOL    HW148063   5.905   3.139   5.244 -1.7002 -0.7720  2.3885
15788SOL    HW248064   5.915   3.000   5.305  2.4604 -2.2114 -1.0692
15789SOL     OW48065   2.340   2.664   0.515 -0.4345 -0.2023 -0.4048
15789SOL    HW148066   2.298   2.710   0.587 -1.1923 -1.7240  0.1669
15789SOL    HW248067   2.370   2.582   0.553  0.0048 -0.6234 -1.6062
15790SOL     OW48068   7.179   3.453   4.499 -0.0934 -0.2963  0.2435
15790SOL    HW148069   7.203   3.366   4.466  0.5119 -0.3233  0.7198
15790SOL    HW248070   7.200   3.449   4.593  1.1943  0.7830  0.0302
15791SOL     OW48071   6.798   7.871   4.569  0.2669 -0.6617 -0.2935
15791SOL    HW148072   6.767   7.825   4.647 -1.0441 -1.5633 -1.2965
15791SOL    HW248073   6.893   7.860   4.571  0.1497 -1.6568  0.5862
15792SOL     OW48074   2.128   5.521   0.637  0.1153  0.8942 -0.0119
15792SOL    HW148075   2.044   5.546   0.600  0.1267 -1.3542 -1.7923
15792SOL    HW248076   2.174   5.478   0.565  1.6027 -0.5131  1.6754
15793SOL     OW48077   1.577   1.030   5.930 -0.6222 -0.3724 -0.5622
15793SOL    HW148078   1.512   0.962   5.914 -1.2051 -0.0018  0.1663
15793SOL    HW248079   1.635   1.026   5.854 -1.0557 -1.2098 -0.8606
15794SOL     OW48080   4.588   7.299   1.385  0.4281  0.2420  0.3829
15794SOL    HW148081   4.510   7.332   1.429  0.1370  1.2253 -0.8202
15794SOL    HW248082   4.556   7.231   1.326  0.3051  1.3660 -0.8847
15795SOL     OW48083   7.764   2.170   3.053  0.4469 -0.3522 -0.1924
15795SOL    HW148084   7.709   2.235   3.095  0.4657 -0.4844  0.0359
15795SOL    HW248085   7.732   2.166   2.963 -1.8421 -2.4757  0.5925
15796SOL     OW48086   2.927   2.849   1.825 -0.6792 -0.3375  0.3483
15796SOL    HW148087   2.958   2.833   1.736  1.1409 -2.1613  1.2368
15796SOL    HW248088   2.971   2.931   1.850  0.3237 -0.8237  0.2166
15797SOL     OW48089   4.100   6.778   2.222  0.3941  0.4695 -0.0217
15797SOL    HW148090   4.046   6.857   2.215  1.7409  1.3789 -0.5060
15797SOL    HW248091   4.086   6.732   2.139 -1.2402 -0.4216  0.6818
15798SOL     OW48092   1.404   3.598   0.716  0.1316  0.0997  0.4840
15798SOL    HW148093   1.425   3.662   0.648  2.2914 -0.2427  0.7795
15798SOL    HW248094   1.482   3.544   0.724 -1.6909 -2.8491  0.0355
15799SOL     OW48095   0.890   5.989   3.234  0.3250  0.6029 -0.1428
15799SOL    HW148096   0.942   5.909   3.232  0.8147  0.9232 -0.4261
15799SOL    HW248097   0.854   5.997   3.146 -0.8552 -0.0292  0.2620
15800SOL     OW48098   6.176   5.757   0.171 -0.2468 -0.1174  0.5199
15800SOL    HW148099   6.089   5.758   0.131 -0.4871 -0.8395  1.0026
15800SOL    HW248100   6.215   5.674   0.143  0.4114  0.3401  0.0588
15801SOL     OW48101   0.450   6.441   2.527  0.0075  0.1641  0.4290
15801SOL    HW148102   0.373   6.488   2.560  0.8992  3.1137 -1.2678
15801SOL    HW248103   0.413   6.370   2.474 -1.5088  0.3572  1.1609
15802SOL     OW48104   3.483   2.842   0.386  0.0981  0.4751  0.1364
15802SOL    HW148105   3.423   2.838   0.461  0.9215 -2.3891  0.7422
15802SOL    HW248106   3.442   2.788   0.319  0.8689  0.4103 -0.2969
15803SOL     OW48107   1.234   7.746   4.568  0.6775 -0.4616  0.0738
15803SOL    HW148108   1.329   7.756   4.571  0.6688 -0.4311  2.5721
15803SOL    HW248109   1.202   7.829   4.533  1.4967  0.4038  1.3001
15804SOL     OW48110   0.074   1.863   5.548 -0.1149  0.2483  0.2577
15804SOL    HW148111   0.008   1.819   5.602  0.4498  0.1517  0.8932
15804SOL    HW248112   0.107   1.795   5.490 -1.0843  0.4719 -0.5779
15805SOL     OW48113   5.762   0.061   4.630  0.0427  0.0758 -0.1579
15805SOL    HW148114   5.711   0.142   4.625  1.9480  1.3803  0.2739
15805SOL    HW248115   5.843   0.086   4.674  1.3543 -1.7255 -1.3596
15806SOL     OW48116   4.582   4.321   5.500 -0.1357  0.4555  0.1380
15806SOL    HW148117   4.514   4.254   5.494  0.6079 -0.2144 -1.4518
15806SOL    HW248118   4.549   4.394   5.448  0.2600  0.2064 -0.4719
15807SOL     OW48119   5.389   4.514   5.476  0.4725 -0.0118 -0.3585
15807SOL    HW148120   5.473   4.517   5.521  1.0599  2.1225 -1.4408
15807SOL    HW248121   5.324   4.502   5.545  1.6438 -2.3625  0.4377
15808SOL     OW48122   2.919   2.129   7.269  0.1483 -0.3772 -0.1909
15808SOL    HW148123   2.978   2.167   7.204  1.6921 -1.7889  0.3091
15808SOL    HW248124   2.944   2.037   7.273 -0.1128 -0.4119  2.1518
15809SOL     OW48125   3.687   6.137   6.841  0.3901 -0.5129 -0.0153
15809SOL    HW148126   3.729   6.141   6.755 -0.4849  0.5045 -0.4251
15809SOL    HW248127   3.760   6.137   6.903  1.0234 -0.2072 -0.7334
15810SOL     OW48128   0.011   6.053   5.925  0.0465  0.5475  0.0410
15810SOL    HW148129  -0.015   6.043   5.834  1.4226  0.4242 -0.3679
15810SOL    HW248130   0.049   5.968   5.949 -1.0546  0.2977  1.0097
15811SOL     OW48131   3.544   6.423   4.864 -0.1744  0.2033  0.2217
15811SOL    HW148132   3.621   6.477   4.881 -1.1501  1.5812  0.4559
15811SOL    HW248133   3.503   6.411   4.950 -1.4360  1.4346 -0.1672
15812SOL     OW48134   3.521   0.277   3.726  0.4613 -0.3768  0.0604
15812SOL    HW148135   3.519   0.251   3.818 -1.3594 -0.4773  0.0308
15812SOL    HW248136   3.496   0.198   3.678  1.2303 -0.2782 -0.5180
15813SOL     OW48137   5.409   1.582   6.872  0.1587  0.0679 -0.3314
15813SOL    HW148138   5.393   1.676   6.883  1.2015  0.1611  0.5128
15813SOL    HW248139   5.475   1.577   6.803  1.6918  0.1087  1.0692
15814SOL     OW48140   2.356   5.335   4.489  0.4639  0.2339 -0.0592
15814SOL    HW148141   2.437   5.284   4.500  1.9053  2.1940 -0.8842
15814SOL    HW248142   2.343   5.378   4.573  0.2093 -0.1683  0.1088
15815SOL     OW48143   0.606   7.167   4.625  0.0635 -0.6088 -0.3513
15815SOL    HW148144   0.654   7.148   4.544  0.6521 -2.2917  0.3464
15815SOL    HW248145   0.516   7.185   4.596  0.2613 -1.1727 -1.3754
15816SOL     OW48146   7.086   3.954   5.193  0.1715 -0.4851  0.5024
15816SOL    HW148147   7.077   3.905   5.111 -1.4169 -0.8842  0.8907
15816SOL    HW248148   7.180   3.975   5.198 -0.0079  1.5292 -2.5378
15817SOL     OW48149   6.193   5.308   3.403  0.1280 -0.0325 -0.0143
15817SOL    HW148150   6.099   5.295   3.417  0.2378 -1.9949 -0.7492
15817SOL    HW248151   6.234   5.269   3.480  0.3707  0.6232  0.1984
15818SOL     OW48152   6.149   7.192   2.692 -0.0384  0.8891 -0.1096
15818SOL    HW148153   6.238   7.226   2.686  0.2061  0.2186 -0.3839
15818SOL    HW248154   6.108   7.217   2.609  0.6839 -0.9449 -1.0898
15819SOL     OW48155   3.828   7.403   6.921 -0.1561 -0.4869 -0.0483
15819SOL    HW148156   3.849   7.383   6.830 -0.7808 -1.7581  0.0668
15819SOL    HW248157   3.903   7.454   6.952 -0.2250  0.5304 -1.4462
15820SOL     OW48158   4.828   4.404   7.152  0.4166  0.4966  0.2171
15820SOL    HW148159   4.870   4.340   7.095  0.3957  1.3400 -0.7851
15820SOL    HW248160   4.738   4.410   7.121  0.5355  1.3225 -0.0015
15821SOL     OW48161   6.536   2.573   3.220 -0.3444  0.2732  0.6792
15821SOL    HW148162   6.603   2.510   3.196 -1.7278 -0.7892 -0.5126
15821SOL    HW248163   6.585   2.649   3.251  1.3834 -0.7103  0.4617
15822SOL     OW48164   7.209   1.017   3.087 -0.1128 -0.5580 -0.2886
15822SOL    HW148165   7.169   1.044   3.170  0.2594 -0.6821 -0.0651
15822SOL    HW248166   7.249   1.097   3.053 -0.9329 -0.3236 -0.7442
15823SOL     OW48167   2.227   5.533   1.157  0.0215  0.2108 -0.2690
15823SOL    HW148168   2.236   5.622   1.124  1.0280  0.6098  0.9956
15823SOL    HW248169   2.221   5.544   1.252  0.6065 -1.0891 -0.0656
15824SOL     OW48170   6.843   4.836   5.794 -0.9783 -0.1268 -0.0753
15824SOL    HW148171   6.794   4.888   5.857  0.5671 -0.0067  1.0727
15824SOL    HW248172   6.815   4.746   5.810 -0.3673 -0.1350  1.0176
15825SOL     OW48173   7.101   1.837   1.147 -0.5192 -0.0065  0.1818
15825SOL    HW148174   7.013   1.855   1.112  0.0670 -0.4220 -1.6050
15825SOL    HW248175   7.134   1.765   1.093  0.5017 -0.6470  1.5823
15826SOL     OW48176   0.694   7.031   2.868 -0.0314  0.0660  0.4681
15826SOL    HW148177   0.619   6.989   2.912 -0.1404  0.8480  1.0440
15826SOL    HW248178   0.687   7.002   2.777 -0.3026 -0.8824  0.7730
15827SOL     OW48179   6.101   1.272   5.221 -0.1686  0.0656 -0.0786
15827SOL    HW148180   6.071   1.300   5.307  0.4293 -0.1405  0.1991
15827SOL    HW248181   6.098   1.176   5.224  0.4124  0.0436 -0.0798
15828SOL     OW48182   7.310   1.749   4.729  0.0402 -0.8221 -0.0550
15828SOL    HW148183   7.244   1.701   4.779  0.0528 -1.6380 -0.7732
15828SOL    HW248184   7.378   1.770   4.792 -1.0953  0.4375  0.7987
15829SOL     OW48185   7.588   7.811   2.491 -0.1665  0.2949  0.3676
15829SOL    HW148186   7.503   7.853   2.477 -0.1071 -0.2289 -2.1220
15829SOL    HW248187   7.645   7.882   2.520 -0.7618  1.3371 -0.8932
15830SOL     OW48188   3.655   7.180   1.013  0.1329 -0.3356 -0.0955
15830SOL    HW148189   3.645   7.091   0.980  0.7500 -0.8712  1.1300
15830SOL    HW248190   3.705   7.225   0.945 -0.3284 -0.8608 -0.8002
15831SOL     OW48191   0.689   1.675   2.977 -0.0568 -0.1745  0.0144
15831SOL    HW148192   0.636   1.606   2.939 -0.0199  0.2146 -0.7569
15831SOL    HW248193   0.649   1.756   2.946 -0.4711  0.1757  1.3966
15832SOL     OW48194   2.503   4.908   0.197  0.3617  0.0057  0.1878
15832SOL    HW148195   2.552   4.989   0.183  1.2757 -0.3832  1.0499
15832SOL    HW248196   2.546   4.843   0.141  0.1664 -0.0966  0.1523
15833SOL     OW48197   4.681   3.187   1.639 -0.4156  0.0502  0.2469
15833SOL    HW148198   4.755   3.226   1.591  0.0020 -1.0719 -0.0505
15833SOL    HW248199   4.711   3.184   1.730 -0.4256  0.3497  0.2623
15834SOL     OW48200   3.843   3.976   0.703 -0.0310 -0.3642  0.0481
15834SOL    HW148201   3.807   4.051   0.752 -0.4473 -0.4724 -0.0911
15834SOL    HW248202   3.784   3.903   0.724 -0.9752 -0.1241 -1.6095
15835SOL     OW48203   5.971   0.412   2.844 -0.1304  0.3771  0.4332
15835SOL    HW148204   5.957   0.319   2.826  0.2392  0.6416 -1.4795
15835SOL    HW248205   6.061   0.417   2.876  0.3271  0.1986 -0.7685
15836SOL     OW48206   1.053   5.564   2.673  0.3525  0.3733 -0.8691
15836SOL    HW148207   1.006   5.587   2.752 -2.0559  2.4745 -2.7729
15836SOL    HW248208   1.142   5.596   2.688  0.0126  0.5568  1.0080
15837SOL     OW48209   2.024   5.068   2.661 -0.0548  0.2889 -0.1070
15837SOL    HW148210   2.037   4.976   2.685 -1.3071 -0.0079 -0.5269
15837SOL    HW248211   2.112   5.105   2.665  0.1686 -0.2354  2.7865
15838SOL     OW48212   6.649   5.362   3.384  0.0909 -0.2544 -0.5990
15838SOL    HW148213   6.629   5.345   3.476 -2.1699  0.5669 -0.8716
15838SOL    HW248214   6.710   5.435   3.385  0.5205 -0.6179  0.2481
15839SOL     OW48215   6.470   5.742   3.499 -0.4549 -0.3455  0.8605
15839SOL    HW148216   6.396   5.702   3.452 -0.1794  0.0815  0.0412
15839SOL    HW248217   6.472   5.697   3.583 -2.1783  0.2312  1.2448
15840SOL     OW48218   1.209   1.951   4.032  0.0493  0.5253  0.0227
15840SOL    HW148219   1.270   2.023   4.046  2.1496 -1.2103  0.2638
15840SOL    HW248220   1.241   1.907   3.954 -1.6449  0.2226 -0.5573
15841SOL     OW48221   1.537   3.803   2.616  0.2619 -0.5406  0.3404
15841SOL    HW148222   1.593   3.807   2.539  1.0031 -0.8627  0.8469
15841SOL    HW248223   1.454   3.767   2.584  1.4599 -3.4436  0.1489
15842SOL     OW48224   1.119   0.402   3.486  0.3711  0.1823  0.3011
15842SOL    HW148225   1.135   0.356   3.403  0.5421 -0.8708  0.9057
15842SOL    HW248226   1.075   0.337   3.541 -0.2263  1.0439  0.8611
15843SOL     OW48227   6.131   6.107   5.248  0.0698  0.4562  0.0537
15843SOL    HW148228   6.177   6.023   5.252  3.0402  1.9825  1.7375
15843SOL    HW248229   6.076   6.108   5.327 -0.2014 -0.0057 -0.1268
15844SOL     OW48230   1.952   4.082   5.938  0.4640 -0.0615 -0.4711
15844SOL    HW148231   1.986   4.014   5.996  0.5457 -0.8000 -1.3614
15844SOL    HW248232   2.030   4.120   5.897  0.3204 -1.0415 -1.7242
15845SOL     OW48233   1.925   5.762   2.506  0.0933 -0.1139 -0.2837
15845SOL    HW148234   1.895   5.837   2.557 -1.4066 -0.1987 -0.9772
15845SOL    HW248235   1.914   5.687   2.565  0.0923  0.0165 -0.1202
15846SOL     OW48236   7.464   4.557   5.864  0.2715 -0.3850  0.0579
15846SOL    HW148237   7.511   4.502   5.802  1.3831  0.3317  0.2524
15846SOL    HW248238   7.443   4.499   5.937 -2.5657 -1.7075 -1.6371
15847SOL     OW48239   7.949   6.877   1.152 -0.1552  0.6185  0.0995
15847SOL    HW148240   8.044   6.886   1.157 -0.0117 -0.6154 -0.0429
15847SOL    HW248241   7.917   6.926   1.228  0.7881 -1.2865  1.8241
15848SOL     OW48242   4.000   3.009   2.826 -0.2547  0.3901  0.4548
15848SOL    HW148243   4.045   2.936   2.870 -2.3346 -1.0100  0.3939
15848SOL    HW248244   3.954   3.054   2.897 -1.3433 -0.1648  0.1190
15849SOL     OW48245   4.371   4.681   6.941  0.1495 -0.4740  0.0574
15849SOL    HW148246   4.384   4.603   6.995  0.0898 -1.5310 -1.4077
15849SOL    HW248247   4.308   4.654   6.874  0.2100  0.7961 -0.5461
15850SOL     OW48248   0.697   1.776   6.015 -0.6950  0.0938 -0.5440
15850SOL    HW148249   0.763   1.710   6.037 -1.0415  0.4122  1.7013
15850SOL    HW248250   0.742   1.836   5.955  0.3035 -0.9747 -0.8954
15851SOL     OW48251   1.479   1.395   7.354 -0.0734 -0.3988  0.0031
15851SOL    HW148252   1.464   1.378   7.261 -0.8764  1.2097 -0.2060
15851SOL    HW248253   1.573   1.387   7.366  0.1901  0.5886 -1.2410
15852SOL     OW48254   0.455   0.360   0.247 -0.5735  0.3195  0.0765
15852SOL    HW148255   0.511   0.403   0.311  0.4166 -1.2106  0.2780
15852SOL    HW248256   0.378   0.333   0.296 -0.5247  0.5343  0.2734
15853SOL     OW48257   1.978   1.653   6.893  0.1793 -0.6260 -0.0913
15853SOL    HW148258   2.055   1.690   6.851 -0.7020  0.4571 -0.8178
15853SOL    HW248259   2.010   1.622   6.978  0.8105  2.9344  1.1379
15854SOL     OW48260   7.182   1.196   6.087  0.2072 -0.4019  0.1777
15854SOL    HW148261   7.239   1.234   6.020 -1.3169  0.4221 -0.6995
15854SOL    HW248262   7.206   1.103   6.088  0.9001 -0.2537 -0.8360
15855SOL     OW48263   5.736   6.228   2.919  0.4000 -0.2659 -0.0564
15855SOL    HW148264   5.827   6.257   2.912  0.4289 -0.1137  0.7748
15855SOL    HW248265   5.707   6.265   3.002 -0.2510 -0.7867 -0.0522
15856SOL     OW48266   5.225   5.858   5.480 -0.4259  0.3884  0.3804
15856SOL    HW148267   5.282   5.899   5.414  0.3034  1.3317  1.5539
15856SOL    HW248268   5.275   5.863   5.561 -2.9134  3.2204  1.9545
15857SOL     OW48269   6.585   7.545   6.593 -0.1529  0.3957 -0.7791
15857SOL    HW148270   6.533   7.470   6.622  0.5783 -0.2668 -1.1360
15857SOL    HW248271   6.641   7.510   6.524 -0.5084  1.5039 -1.6658
15858SOL     OW48272   0.333   5.166   3.186  0.4297 -0.3519  0.0599
15858SOL    HW148273   0.405   5.175   3.248  0.3897 -3.2490  0.6794
15858SOL    HW248274   0.326   5.071   3.171 -0.3654  0.1101 -3.4429
15859SOL     OW48275   2.419   2.650   3.603  0.1696  0.8600  0.5023
15859SOL    HW148276   2.443   2.627   3.514 -0.6934  0.3687  0.3846
15859SOL    HW248277   2.471   2.592   3.658 -1.0009 -0.4895  0.2404
15860SOL     OW48278   6.112   3.856   1.795  0.1469  0.0432 -0.6732
15860SOL    HW148279   6.021   3.870   1.823  0.1088 -0.4941 -0.5221
15860SOL    HW248280   6.155   3.816   1.871  1.0463  2.1338  0.0108
15861SOL     OW48281   5.413   5.064   1.583 -0.3602 -0.0350 -0.4278
15861SOL    HW148282   5.465   5.045   1.661 -2.1462 -4.2787 -0.0103
15861SOL    HW248283   5.456   5.139   1.543  2.9883 -0.1427  2.5159
15862SOL     OW48284   4.343   5.935   7.895  0.0686 -0.0941 -0.2644
15862SOL    HW148285   4.313   6.012   7.847 -0.0559  1.2067  1.8030
15862SOL    HW248286   4.264   5.898   7.934  0.4210  0.1045  0.6590
15863SOL     OW48287   0.581   2.420   6.009  0.1029  0.5951  0.3303
15863SOL    HW148288   0.509   2.483   6.016 -1.0665 -0.8122  1.8743
15863SOL    HW248289   0.659   2.471   6.029 -0.9131  1.4247  2.6125
15864SOL     OW48290   4.413   4.931   2.619  0.4744  0.6110 -0.3693
15864SOL    HW148291   4.341   4.979   2.580  0.1935  0.4638 -0.0353
15864SOL    HW248292   4.430   4.976   2.702 -1.4028 -1.2683  1.1403
15865SOL     OW48293   3.974   7.097   3.728 -0.2892 -0.2153 -0.1759
15865SOL    HW148294   4.001   7.141   3.809 -0.0249  0.3537 -0.5706
15865SOL    HW248295   3.999   7.157   3.658 -0.0149 -0.9567 -0.7222
15866SOL     OW48296   7.876   1.877   4.560  0.3397 -0.1249 -0.4489
15866SOL    HW148297   7.889   1.782   4.560  0.4955 -0.1025 -0.4729
15866SOL    HW248298   7.811   1.892   4.491 -0.7708 -0.3699  0.4980
15867SOL     OW48299   5.471   2.650   1.367  0.0061 -0.2763 -0.6932
15867SOL    HW148300   5.391   2.644   1.418  1.4940 -0.6246  1.7661
15867SOL    HW248301   5.452   2.603   1.286 -1.8769 -1.3510  0.3237
15868SOL     OW48302   6.894   0.063   6.189  0.9484  0.2772 -0.3923
15868SOL    HW148303   6.799   0.052   6.181  1.0274 -1.3037  0.3668
15868SOL    HW248304   6.927   0.050   6.101  0.4077  1.7945 -0.8494
15869SOL     OW48305   3.664   4.067   4.378 -0.1943  0.4730  0.4791
15869SOL    HW148306   3.651   4.058   4.284 -0.3619  0.6821  0.4788
15869SOL    HW248307   3.735   4.007   4.399 -2.3220 -2.1241  0.7746
15870SOL     OW48308   5.031   4.005   7.662 -0.1290  0.5214  0.1746
15870SOL    HW148309   5.040   3.935   7.726 -1.4790  0.8379  0.7546
15870SOL    HW248310   4.979   4.072   7.707 -2.1850  0.2341 -1.5880
15871SOL     OW48311   1.913   5.408   2.022 -0.0715  0.2019  0.5522
15871SOL    HW148312   1.902   5.498   2.049  0.0730 -0.0592  1.5015
15871SOL    HW248313   1.845   5.359   2.070  0.8310 -0.4099  1.2364
15872SOL     OW48314   4.546   3.775   5.665 -0.7410  0.1301 -0.0173
15872SOL    HW148315   4.568   3.802   5.754  1.0114  0.0422 -0.3899
15872SOL    HW248316   4.491   3.847   5.631 -0.3063  0.8045  0.6763
15873SOL     OW48317   0.853   7.265   6.894 -0.6450  0.4181 -0.6866
15873SOL    HW148318   0.823   7.349   6.928 -0.3671  0.8130 -1.4107
15873SOL    HW248319   0.911   7.231   6.962 -0.8007  0.7836 -0.3660
15874SOL     OW48320   3.429   6.401   0.600 -0.7680 -0.2233 -0.6149
15874SOL    HW148321   3.472   6.485   0.583 -0.8497 -0.0026  0.2170
15874SOL    HW248322   3.407   6.368   0.513  1.3569 -0.5094 -1.1007
15875SOL     OW48323   5.642   4.455   3.731 -0.3773 -0.6198  0.6441
15875SOL    HW148324   5.631   4.547   3.755  1.0361 -0.0421 -0.7489
15875SOL    HW248325   5.666   4.457   3.638 -0.4500 -2.4106  0.5543
15876SOL     OW48326   4.861   0.426   0.998 -0.0655  0.2550 -0.1593
15876SOL    HW148327   4.809   0.407   1.076  1.0390  1.3536  0.8916
15876SOL    HW248328   4.892   0.340   0.969 -0.4973 -0.1678  0.5987
15877SOL     OW48329   5.207   7.703   2.119  0.3850  0.0035 -0.5799
15877SOL    HW148330   5.215   7.646   2.196 -1.9876  0.1825 -0.1293
15877SOL    HW248331   5.185   7.643   2.047  4.4869 -0.4508 -1.7334
15878SOL     OW48332   4.656   7.242   2.032  0.2191  0.1961  0.1383
15878SOL    HW148333   4.727   7.294   2.069  0.3621  0.6359 -0.7234
15878SOL    HW248334   4.628   7.184   2.103  2.5727 -1.2127  0.0343
15879SOL     OW48335   7.715   7.374   7.532 -0.2462 -0.2898 -0.0499
15879SOL    HW148336   7.723   7.405   7.442  0.2458  0.0297  0.0951
15879SOL    HW248337   7.674   7.446   7.579 -0.7712 -0.5700 -0.0761
15880SOL     OW48338   0.049   5.506   0.506 -0.6338 -0.2636  0.1158
15880SOL    HW148339   0.030   5.570   0.437 -1.6349 -1.1492 -0.4652
15880SOL    HW248340   0.144   5.503   0.511 -0.5130 -0.8273 -1.8613
15881SOL     OW48341   4.547   7.360   6.157  0.1023 -0.0126  1.2444
15881SOL    HW148342   4.466   7.411   6.152 -0.0147 -0.2803 -0.3179
15881SOL    HW248343   4.530   7.294   6.223 -0.7050  0.3633  1.4232
15882SOL     OW48344   2.185   5.154   7.966 -0.4159 -0.0183  0.1173
15882SOL    HW148345   2.206   5.061   7.979  0.8723 -0.5985 -4.2776
15882SOL    HW248346   2.269   5.198   7.964 -0.9744  1.1708  1.3963
15883SOL     OW48347   2.794   2.136   0.219 -0.8279  0.3144  0.9021
15883SOL    HW148348   2.750   2.099   0.143  0.2721  1.4439 -0.3332
15883SOL    HW248349   2.887   2.139   0.194 -0.2697 -0.2719  2.7045
15884SOL     OW48350   3.953   0.683   6.465  0.0370 -0.0244 -0.3791
15884SOL    HW148351   3.983   0.613   6.523 -0.2848 -0.1865 -0.4053
15884SOL    HW248352   3.930   0.755   6.525 -1.3789 -0.5899 -0.2039
15885SOL     OW48353   2.082   1.627   2.608  0.6501 -0.1008 -0.2386
15885SOL    HW148354   2.151   1.671   2.659  1.0274 -0.7341 -0.1924
15885SOL    HW248355   2.076   1.678   2.528  0.9547  0.1477 -0.1076
15886SOL     OW48356   7.183   3.072   7.943  0.3488 -0.6967 -0.0060
15886SOL    HW148357   7.105   3.101   7.991  1.6712  0.2323  1.6605
15886SOL    HW248358   7.148   3.023   7.869 -1.9139  1.7891 -0.7413
15887SOL     OW48359   2.383   4.519   2.054  0.3880  0.2470  0.2162
15887SOL    HW148360   2.373   4.547   1.963 -1.1462 -0.3463  0.1644
15887SOL    HW248361   2.439   4.585   2.094 -0.5958  1.6681 -0.6587
15888SOL     OW48362   0.309   4.935   4.324  0.5903 -0.3053  0.4642
15888SOL    HW148363   0.261   4.866   4.277  1.0173 -0.4555  0.2408
15888SOL    HW248364   0.258   4.950   4.403 -0.2707  0.1210 -0.1585
15889SOL     OW48365   2.477   1.250   0.549  0.1742 -1.1580 -0.1664
15889SOL    HW148366   2.473   1.296   0.465 -1.0353 -0.5386  0.2168
15889SOL    HW248367   2.394   1.203   0.554  0.2374 -1.1782  0.7040
15890SOL     OW48368   0.307   7.454   4.832 -0.0940 -0.1582 -0.4587
15890SOL    HW148369   0.352   7.377   4.867 -0.6942  0.3521  1.5734
15890SOL    HW248370   0.374   7.503   4.786  1.6047  0.6397  2.5605
15891SOL     OW48371   0.366   2.189   3.721  0.1189 -0.2987  0.1897
15891SOL    HW148372   0.396   2.274   3.691 -1.0096 -0.1510 -0.5958
15891SOL    HW248373   0.371   2.194   3.817 -1.5753  1.3299  0.2520
15892SOL     OW48374   7.298   0.280   6.197 -0.0985  0.3752  0.0033
15892SOL    HW148375   7.272   0.318   6.113  1.5416 -1.1462 -1.2590
15892SOL    HW248376   7.372   0.332   6.226 -0.5861  0.8222  0.4707
15893SOL     OW48377   1.764   0.478   7.429  0.7070 -0.2324  0.3680
15893SOL    HW148378   1.851   0.437   7.428  0.6613 -0.3290 -0.8423
15893SOL    HW248379   1.722   0.444   7.508  2.0734  0.4829  1.4639
15894SOL     OW48380   7.750   7.416   7.240 -0.0948  0.0747 -0.2878
15894SOL    HW148381   7.707   7.501   7.226 -2.2833 -0.5984  1.6127
15894SOL    HW248382   7.701   7.355   7.185 -0.0569 -0.3373  0.1336
15895SOL     OW48383   1.877   0.270   3.240 -0.1660 -0.4532  0.0496
15895SOL    HW148384   1.937   0.343   3.223  1.2601 -1.1302  1.7896
15895SOL    HW248385   1.909   0.199   3.184  0.0108 -0.4791  0.1800
15896SOL     OW48386   0.329   4.306   2.838 -0.2421 -0.1520  0.6022
15896SOL    HW148387   0.364   4.252   2.909 -1.2821 -0.2829  1.0239
15896SOL    HW248388   0.404   4.358   2.809  0.1475  0.0776  1.9575
15897SOL     OW48389   1.315   1.550   1.228 -0.6754  0.1189 -0.6070
15897SOL    HW148390   1.270   1.481   1.276  0.0493 -0.2163 -0.3955
15897SOL    HW248391   1.408   1.532   1.242 -0.4622  1.8475  0.4795
15898SOL     OW48392   5.854   7.604   0.109 -0.0835 -0.2261  0.3533
15898SOL    HW148393   5.809   7.663   0.169 -0.5069 -0.6135  0.4228
15898SOL    HW248394   5.939   7.645   0.093  0.0475 -0.1390  1.2505
15899SOL     OW48395   6.605   0.624   3.610 -0.1555 -0.1277 -0.2570
15899SOL    HW148396   6.649   0.647   3.528 -0.2489 -0.3329 -0.3625
15899SOL    HW248397   6.605   0.706   3.660 -1.0394  0.2772 -0.8830
15900SOL     OW48398   4.857   0.850   2.213 -0.2450 -0.3347  0.2875
15900SOL    HW148399   4.926   0.841   2.279 -1.8940  1.1551  2.3550
15900SOL    HW248400   4.833   0.943   2.216 -3.6288 -1.0974  1.1078
15901SOL     OW48401   6.519   4.839   7.702 -0.3698  0.2619  0.1637
15901SOL    HW148402   6.537   4.891   7.624  0.0315  2.3615  1.5940
15901SOL    HW248403   6.603   4.798   7.723 -0.2933  0.2995 -0.0702
15902SOL     OW48404   3.741   7.365   4.895 -0.2679  0.3304  0.2890
15902SOL    HW148405   3.788   7.336   4.973  0.1008  0.6543  0.1899
15902SOL    HW248406   3.729   7.285   4.844  1.0177  0.3802 -0.1290
15903SOL     OW48407   0.845   3.951   6.204 -0.2474 -0.1324  0.6882
15903SOL    HW148408   0.919   3.991   6.157 -1.2927 -0.3000 -1.2123
15903SOL    HW248409   0.825   4.012   6.275  0.8200  0.6124  0.3681
15904SOL     OW48410   6.577   4.712   0.303  0.0825 -0.1814  0.4002
15904SOL    HW148411   6.503   4.651   0.314  0.1693 -0.2697  0.5018
15904SOL    HW248412   6.653   4.662   0.333  0.2598 -0.2623 -0.1692
15905SOL     OW48413   7.688   4.762   2.972 -0.0480 -0.5563  0.2187
15905SOL    HW148414   7.659   4.811   3.049  0.1407 -0.4715  0.2371
15905SOL    HW248415   7.609   4.752   2.918 -0.2399 -0.8562  0.5532
15906SOL     OW48416   3.027   1.562   3.461  0.2755 -0.2670  0.1327
15906SOL    HW148417   3.063   1.474   3.454 -0.5866 -0.7933  1.8776
15906SOL    HW248418   3.086   1.607   3.522 -0.6090 -0.4030  1.1206
15907SOL     OW48419   7.674   1.175   2.563 -0.5287  0.0654  0.4583
15907SOL    HW148420   7.662   1.097   2.618 -1.7332  1.0374  1.6501
15907SOL    HW248421   7.701   1.140   2.478  0.9966 -1.5186  1.5180
15908SOL     OW48422   6.672   1.206   6.096  0.0647 -0.0178 -0.9150
15908SOL    HW148423   6.590   1.161   6.115  0.1757 -0.6154 -1.8253
15908SOL    HW248424   6.737   1.162   6.152 -0.2838  0.7098  0.0979
15909SOL     OW48425   0.569   4.553   0.186  0.3336 -0.5353 -0.5688
15909SOL    HW148426   0.593   4.513   0.269  0.0999 -0.4032 -0.4364
15909SOL    HW248427   0.496   4.501   0.154  0.6055 -0.7607 -0.8326
15910SOL     OW48428   6.410   2.888   1.838 -0.5662 -0.4991 -0.5781
15910SOL    HW148429   6.486   2.917   1.788  0.2001 -0.2834  0.6801
15910SOL    HW248430   6.336   2.900   1.778  0.2366  0.3661 -1.4300
15911SOL     OW48431   0.298   0.519   3.985  0.1088  0.3584 -0.4618
15911SOL    HW148432   0.364   0.585   4.002  1.2390 -1.1817  1.5288
15911SOL    HW248433   0.216   0.568   3.974  1.3848  2.2391 -2.2376
15912SOL     OW48434   5.354   6.033   4.926 -0.0708  0.1664 -0.7108
15912SOL    HW148435   5.345   5.944   4.891  0.8758  0.4661 -1.7546
15912SOL    HW248436   5.329   6.024   5.018  0.1802 -1.2177 -0.7452
15913SOL     OW48437   2.412   4.779   5.084 -0.4348  0.4479 -0.3078
15913SOL    HW148438   2.459   4.862   5.094  1.2403 -0.3640 -0.9939
15913SOL    HW248439   2.464   4.715   5.133 -0.6950 -0.5302 -1.2471
15914SOL     OW48440   4.105   1.552   4.563 -0.3889 -0.0751 -0.1938
15914SOL    HW148441   4.160   1.562   4.486  0.2792  0.9194  0.4003
15914SOL    HW248442   4.041   1.623   4.557 -0.5747 -0.2246 -0.0232
15915SOL     OW48443   1.627   2.733   6.428  0.4846  0.3201  0.3015
15915SOL    HW148444   1.581   2.665   6.378 -1.4313  1.1431  0.8633
15915SOL    HW248445   1.569   2.752   6.502  0.0465  3.7224 -0.7254
15916SOL     OW48446   3.645   1.732   4.078 -0.0189 -0.3649  0.3925
15916SOL    HW148447   3.707   1.730   4.005  1.9727 -2.1364  1.9922
15916SOL    HW248448   3.606   1.820   4.073 -0.8157 -0.7528 -3.3440
15917SOL     OW48449   0.603   0.794   5.345 -0.0696  0.1856  0.5579
15917SOL    HW148450   0.678   0.770   5.399  0.9147 -0.7595 -1.1299
15917SOL    HW248451   0.580   0.713   5.299  1.9248  1.7455 -3.6786
15918SOL     OW48452   7.970   6.470   4.301  0.4558  0.1369  0.2237
15918SOL    HW148453   7.989   6.408   4.230 -1.4251 -0.4069  0.1439
15918SOL    HW248454   8.017   6.435   4.377 -0.2947 -1.2246  0.0948
15919SOL     OW48455   0.758   2.826   2.240 -0.0788 -0.3838  0.4281
15919SOL    HW148456   0.809   2.752   2.272 -0.8171 -1.1818 -0.2039
15919SOL    HW248457   0.701   2.789   2.173 -0.2190  0.8195 -0.1513
15920SOL     OW48458   5.853   3.571   4.711 -0.5473 -0.3245  0.3928
15920SOL    HW148459   5.820   3.538   4.627  0.2583 -0.0378 -0.0438
15920SOL    HW248460   5.940   3.533   4.720 -1.0783 -1.3151  1.6794
15921SOL     OW48461   7.731   6.455   1.547  0.4071  0.0649 -0.3488
15921SOL    HW148462   7.702   6.472   1.457 -1.1342  0.0150  0.0944
15921SOL    HW248463   7.810   6.507   1.557  0.8583 -0.2798 -1.8696
15922SOL     OW48464   2.731   0.269   2.968  0.1227 -0.5009  0.1382
15922SOL    HW148465   2.771   0.201   2.914 -3.4912 -0.5124 -3.0167
15922SOL    HW248466   2.751   0.244   3.058  5.7589 -1.0452 -0.8908
15923SOL     OW48467   1.087   7.879   7.947  0.4047  0.8021 -0.1214
15923SOL    HW148468   1.036   7.799   7.962  0.1928  0.4633 -2.2602
15923SOL    HW248469   1.091   7.921   8.033 -2.3634  0.1833  0.4319
15924SOL     OW48470   3.906   0.338   0.822 -0.3471 -0.1273 -0.1226
15924SOL    HW148471   3.838   0.295   0.874  1.0254 -1.7762  0.4189
15924SOL    HW248472   3.970   0.368   0.887 -1.1061  2.6247 -0.5019
15925SOL     OW48473   6.371   3.124   5.209  0.5185  0.1229 -0.2892
15925SOL    HW148474   6.339   3.161   5.291 -0.9668 -0.9742 -0.3379
15925SOL    HW248475   6.379   3.199   5.150  2.5348  1.0748  1.0883
15926SOL     OW48476   7.235   1.604   5.113 -0.0594  0.0377 -0.0020
15926SOL    HW148477   7.165   1.548   5.147 -0.0369 -0.7786 -1.2554
15926SOL    HW248478   7.316   1.555   5.132 -0.0122 -0.1848 -0.7605
15927SOL     OW48479   5.409   2.307   7.563  0.3066  0.4427  0.5981
15927SOL    HW148480   5.379   2.247   7.494  1.3726  0.3064  0.2362
15927SOL    HW248481   5.377   2.268   7.644 -0.7060  0.4431  0.2180
15928SOL     OW48482   0.422   4.335   0.385  0.2913  0.2644 -0.1911
15928SOL    HW148483   0.395   4.372   0.469 -1.2792  1.1934 -1.0577
15928SOL    HW248484   0.511   4.304   0.400 -0.1953 -0.2333  1.9950
15929SOL     OW48485   1.121   5.801   6.237  0.3753 -0.1505 -0.0180
15929SOL    HW148486   1.190   5.862   6.209  0.8129  0.2445  1.7790
15929SOL    HW248487   1.166   5.742   6.298 -0.4395 -1.2096 -0.4201
15930SOL     OW48488   0.012   4.598   2.780 -0.1624 -0.1684  0.0329
15930SOL    HW148489  -0.030   4.678   2.812  0.4898  0.4608 -0.6477
15930SOL    HW248490   0.081   4.580   2.844 -0.3825 -0.2491  0.2471
15931SOL     OW48491   6.488   7.701   2.959 -0.1314  0.4926  0.5721
15931SOL    HW148492   6.416   7.762   2.968 -0.4139  0.0723  1.2714
15931SOL    HW248493   6.547   7.722   3.031  1.1904  1.7738 -0.8053
15932SOL     OW48494   7.487   6.084   0.007 -0.3055  0.1216 -0.5218
15932SOL    HW148495   7.420   6.016   0.010  0.3895 -0.5357  1.3728
15932SOL    HW248496   7.446   6.160   0.049 -0.2157  0.0371 -0.2780
15933SOL     OW48497   4.660   2.480   0.230 -0.1199  0.2100 -0.4803
15933SOL    HW148498   4.622   2.392   0.235  1.3057 -0.5180 -1.8156
15933SOL    HW248499   4.621   2.527   0.304 -1.7573 -1.1913 -0.3990
15934SOL     OW48500   2.801   4.177   7.092 -0.0676 -0.7258  0.4885
15934SOL    HW148501   2.800   4.152   7.184 -1.3231  0.6498  0.8856
15934SOL    HW248502   2.823   4.270   7.093  0.3870 -0.8042 -0.6454
15935SOL     OW48503   7.272   0.592   4.849 -0.0202  0.1668 -0.7794
15935SOL    HW148504   7.283   0.498   4.830 -0.9741 -0.2864  0.7126
15935SOL    HW248505   7.223   0.626   4.774 -0.4123 -0.7287 -0.9503
15936SOL     OW48506   7.964   4.423   4.092  0.2399 -0.6921  0.2577
15936SOL    HW148507   7.929   4.512   4.095  0.5508 -0.5909  1.3043
15936SOL    HW248508   7.887   4.367   4.100  0.2589 -0.4693  3.8976
15937SOL     OW48509   0.656   6.737   0.932 -0.2221 -0.0697 -0.3040
15937SOL    HW148510   0.693   6.799   0.996 -0.7400  1.2523 -1.2429
15937SOL    HW248511   0.711   6.747   0.855 -0.2128 -0.9253 -0.4171
15938SOL     OW48512   6.477   1.402   2.322 -0.0852  0.3830 -0.0056
15938SOL    HW148513   6.469   1.345   2.399  1.0313  1.1331  0.6997
15938SOL    HW248514   6.567   1.389   2.292 -0.8001 -0.7054 -1.8782
15939SOL     OW48515   5.859   5.412   0.079 -0.0664 -0.5399  0.2399
15939SOL    HW148516   5.866   5.387  -0.014  0.2065 -2.0115  0.6274
15939SOL    HW248517   5.868   5.329   0.126  0.6641  0.3002  1.6197
15940SOL     OW48518   3.174   1.754   3.856 -0.8192  0.6654 -0.0271
15940SOL    HW148519   3.103   1.693   3.872 -0.8743  0.1557 -1.9687
15940SOL    HW248520   3.184   1.802   3.938 -1.5434 -1.1508  1.1689
15941SOL     OW48521   7.340   5.299   1.953 -1.0262 -0.0221 -0.3664
15941SOL    HW148522   7.430   5.281   1.980 -0.2296  0.7023 -2.3862
15941SOL    HW248523   7.300   5.339   2.030  1.0558  1.7428 -0.0994
15942SOL     OW48524   3.994   6.253   5.372 -0.2234 -0.0053 -0.3671
15942SOL    HW148525   4.072   6.215   5.330  1.2622  0.8481  1.4880
15942SOL    HW248526   3.961   6.315   5.307  1.3542  0.4742 -0.7695
15943SOL     OW48527   5.703   1.134   3.224 -0.0300 -0.6969  0.2288
15943SOL    HW148528   5.724   1.167   3.136  0.0151  1.5674  1.0193
15943SOL    HW248529   5.648   1.202   3.262  0.3989 -1.3873  2.1684
15944SOL     OW48530   0.451   0.197   4.979 -0.1599  0.0927 -0.0089
15944SOL    HW148531   0.525   0.214   4.922  0.4956  0.5587  0.9536
15944SOL    HW248532   0.477   0.120   5.030  1.0367  2.0060  2.5026
15945SOL     OW48533   3.421   0.555   1.587  0.5975  0.1945 -0.4137
15945SOL    HW148534   3.426   0.571   1.492 -0.6671 -0.6128 -0.6396
15945SOL    HW248535   3.403   0.461   1.594 -2.8828  0.8043  0.4651
15946SOL     OW48536   0.333   7.489   6.354  0.1581 -0.2314  0.3599
15946SOL    HW148537   0.401   7.512   6.291 -0.0173 -0.2443  0.1664
15946SOL    HW248538   0.309   7.572   6.395  1.0522 -0.3743  1.1982
15947SOL     OW48539   3.471   0.996   4.284  0.2613  0.3572 -0.5876
15947SOL    HW148540   3.419   0.938   4.339  0.7438 -0.0042 -0.5049
15947SOL    HW248541   3.512   1.057   4.346 -3.5600  3.6566 -0.8910
15948SOL     OW48542   1.484   0.607   2.951  0.1410  0.2435  0.1042
15948SOL    HW148543   1.562   0.645   2.911  0.6545 -0.4740  0.3916
15948SOL    HW248544   1.463   0.532   2.895  0.8388 -0.7449  1.1299
15949SOL     OW48545   4.930   0.137   2.597 -0.0130  0.0841  0.0066
15949SOL    HW148546   4.999   0.074   2.617 -0.6729 -0.4815  0.5611
15949SOL    HW248547   4.965   0.221   2.628  0.7211 -0.0617 -0.4000
15950SOL     OW48548   6.072   2.618   1.325 -0.6211 -0.4808 -0.2466
15950SOL    HW148549   6.077   2.709   1.295 -1.7090 -0.8917 -1.8133
15950SOL    HW248550   5.987   2.612   1.368  0.2644 -0.3034  1.5947
15951SOL     OW48551   7.602   3.377   0.931 -0.0023  0.3806 -0.2002
15951SOL    HW148552   7.655   3.456   0.919 -0.6297  1.1769  1.7828
15951SOL    HW248553   7.594   3.368   1.026 -0.9134 -1.4429 -0.3973
15952SOL     OW48554   6.318   5.327   2.592  0.0126  0.4706  0.0758
15952SOL    HW148555   6.365   5.256   2.549 -1.2074  0.3612 -1.1235
15952SOL    HW248556   6.229   5.294   2.604 -0.1755  1.2284  0.9420
15953SOL     OW48557   1.180   6.579   5.419 -0.1570  0.0243  0.0247
15953SOL    HW148558   1.108   6.573   5.482  0.3105  2.7383  0.9250
15953SOL    HW248559   1.137   6.583   5.334 -1.0324  0.6119  0.4812
15954SOL     OW48560   3.341   3.313   5.459  0.2270  0.2300 -0.1156
15954SOL    HW148561   3.341   3.405   5.487 -0.8993  0.8996 -2.1193
15954SOL    HW248562   3.248   3.290   5.453  0.4916 -1.2376  0.8061
15955SOL     OW48563   4.312   7.748   0.523 -0.1102 -0.1492 -0.6541
15955SOL    HW148564   4.304   7.830   0.572  1.5114 -0.4739  0.2412
15955SOL    HW248565   4.331   7.776   0.433 -1.4918  0.4525 -0.7772
15956SOL     OW48566   1.924   1.795   3.073 -0.4592 -0.2978  0.0351
15956SOL    HW148567   1.947   1.750   2.992 -1.4601 -2.5100  0.8955
15956SOL    HW248568   1.853   1.743   3.110  0.3282  0.2936  2.6092
15957SOL     OW48569   6.482   3.996   0.541  0.1604  0.1269  0.2335
15957SOL    HW148570   6.478   4.075   0.595  0.0579  0.8835 -0.8400
15957SOL    HW248571   6.396   3.955   0.551 -0.2661  0.8869 -0.2564
15958SOL     OW48572   2.320   6.643   3.774 -0.6205 -0.7873 -0.3608
15958SOL    HW148573   2.292   6.566   3.823  1.6830 -1.9491 -0.7353
15958SOL    HW248574   2.329   6.612   3.684 -1.3635  0.4193 -0.8848
15959SOL     OW48575   7.043   4.113   4.594 -0.2837 -0.2581 -0.6269
15959SOL    HW148576   7.112   4.104   4.528  1.0094  2.1054  0.2739
15959SOL    HW248577   6.987   4.182   4.560  0.0834  0.5937  0.4658
15960SOL     OW48578   4.682   1.263   4.710 -0.0297  0.3651 -0.0472
15960SOL    HW148579   4.735   1.220   4.777  0.7504  2.1914  0.5711
15960SOL    HW248580   4.647   1.342   4.753 -1.9773  0.0404 -0.9142
15961SOL     OW48581   4.688   3.082   4.031 -0.7058  0.0094 -0.6507
15961SOL    HW148582   4.674   3.175   4.017  0.6056  0.3144 -0.0634
15961SOL    HW248583   4.710   3.074   4.124 -0.1684 -0.8050 -0.8349
15962SOL     OW48584   6.629   3.982   7.862  0.0709  0.4598  0.2792
15962SOL    HW148585   6.699   3.959   7.923  1.2084  1.7080 -0.5037
15962SOL    HW248586   6.582   3.899   7.847  0.2822 -0.0346  2.1607
15963SOL     OW48587   5.026   4.511   3.976  0.1852 -0.0445 -0.4762
15963SOL    HW148588   4.952   4.540   4.028  1.0707  1.2803  0.0994
15963SOL    HW248589   5.100   4.562   4.009  1.1032 -0.4056 -1.8892
15964SOL     OW48590   4.519   3.429   5.526  0.1239  0.5863 -0.9172
15964SOL    HW148591   4.491   3.450   5.615  0.9698  3.3468 -1.1959
15964SOL    HW248592   4.613   3.415   5.533 -0.0595 -0.8941 -1.1573
15965SOL     OW48593   6.577   2.464   1.975 -0.9382 -0.2355  0.0934
15965SOL    HW148594   6.672   2.451   1.971 -0.5695  1.7531  1.2398
15965SOL    HW248595   6.550   2.468   1.883  0.2475  0.1886 -0.2612
15966SOL     OW48596   4.016   7.406   2.256  0.0285  0.0579 -0.3921
15966SOL    HW148597   4.024   7.345   2.330  0.3794  0.7710  0.1710
15966SOL    HW248598   4.027   7.351   2.178  1.0992 -0.4888  0.1226
15967SOL     OW48599   2.573   2.266   7.323 -0.1126 -0.0802  0.1440
15967SOL    HW148600   2.554   2.249   7.415  0.0515  0.0100  0.1965
15967SOL    HW248601   2.666   2.245   7.314 -0.1533 -0.1900 -0.0247
15968SOL     OW48602   1.562   0.771   7.627 -0.2467  0.4213 -0.3322
15968SOL    HW148603   1.639   0.817   7.659  0.7562 -0.2699 -1.6346
15968SOL    HW248604   1.533   0.823   7.552 -0.4733  0.1647 -0.4239
15969SOL     OW48605   0.801   6.557   4.285 -0.3335  0.4869  0.1238
15969SOL    HW148606   0.770   6.468   4.301  0.4412 -0.8371 -4.4574
15969SOL    HW248607   0.884   6.562   4.333  1.0422 -2.4222 -1.6447
15970SOL     OW48608   7.906   3.909   6.317 -0.6214 -0.2263 -0.4586
15970SOL    HW148609   7.889   3.979   6.255 -0.1994  1.3705  1.1496
15970SOL    HW248610   7.856   3.834   6.283  0.4550  0.2157 -3.2598
15971SOL     OW48611   7.237   7.937   6.488  0.0002 -0.0069  0.4034
15971SOL    HW148612   7.141   7.939   6.484  0.0561  0.1139 -1.7491
15971SOL    HW248613   7.265   7.925   6.398  2.0564  0.9422  0.8630
15972SOL     OW48614   5.468   2.608   5.705  0.2420  0.1412  0.1608
15972SOL    HW148615   5.461   2.561   5.788 -0.3554 -0.5856 -0.2936
15972SOL    HW248616   5.396   2.575   5.652 -0.4967  1.9134 -0.0093
15973SOL     OW48617   7.944   7.560   1.352  0.0442 -0.0184 -0.1405
15973SOL    HW148618   7.876   7.600   1.298  0.0800  0.1148 -0.0874
15973SOL    HW248619   7.990   7.634   1.392 -0.1847 -0.1288  0.3266
15974SOL     OW48620   3.442   7.465   2.673 -0.3556 -0.8000 -0.1402
15974SOL    HW148621   3.409   7.394   2.618  2.1428 -2.9309  0.8891
15974SOL    HW248622   3.450   7.540   2.614 -2.0608 -1.6536 -1.5380
15975SOL     OW48623   4.884   7.142   6.704 -0.3900 -0.5573 -0.1530
15975SOL    HW148624   4.953   7.191   6.659 -2.2453  1.2893 -1.1886
15975SOL    HW248625   4.927   7.104   6.780  1.4907  1.6841  0.0262
15976SOL     OW48626   7.949   6.362   7.916 -0.0817 -0.1676  0.4016
15976SOL    HW148627   7.901   6.380   7.835 -0.0727  0.9079  0.6198
15976SOL    HW248628   7.881   6.354   7.983 -0.0593 -0.5464  0.3817
15977SOL     OW48629   3.389   3.778   5.420 -0.5103  0.3845  0.9119
15977SOL    HW148630   3.421   3.816   5.338 -2.4504 -0.0251 -0.0815
15977SOL    HW248631   3.345   3.850   5.465  0.5166  0.5996  1.6254
15978SOL     OW48632   1.174   5.322   1.863 -0.7390 -0.1428 -0.3503
15978SOL    HW148633   1.232   5.274   1.804 -1.1635 -0.2044 -0.7262
15978SOL    HW248634   1.114   5.368   1.804  0.4241  1.8524 -0.0704
15979SOL     OW48635   0.317   3.159   4.984  0.1522 -0.0942  0.5053
15979SOL    HW148636   0.278   3.095   5.043  1.5246 -0.4456  1.0602
15979SOL    HW248637   0.407   3.170   5.015  0.4967  0.7413 -0.6896
15980SOL     OW48638   4.239   0.310   1.828 -0.1287  0.1841 -0.1027
15980SOL    HW148639   4.148   0.318   1.856 -0.0018  0.7362  0.1689
15980SOL    HW248640   4.233   0.288   1.735 -0.5739  3.6901 -1.0596
15981SOL     OW48641   5.379   5.762   4.847  0.1630  0.2502  0.3540
15981SOL    HW148642   5.422   5.681   4.872 -0.7621 -0.2851  0.2422
15981SOL    HW248643   5.421   5.788   4.766  1.1993  0.4627  0.9462
15982SOL     OW48644   4.766   6.107   3.420  0.8345  0.2728  0.0769
15982SOL    HW148645   4.860   6.089   3.416  0.7825 -0.5487  1.8297
15982SOL    HW248646   4.754   6.155   3.501 -0.4570 -1.1401  0.7767
15983SOL     OW48647   5.783   5.673   0.390 -0.5267  0.1044  0.2006
15983SOL    HW148648   5.742   5.681   0.304  0.7481 -1.3146 -0.5889
15983SOL    HW248649   5.713   5.642   0.447 -1.1194  0.0057 -0.5669
15984SOL     OW48650   5.142   3.754   5.332  0.5752  0.2326 -0.7438
15984SOL    HW148651   5.114   3.844   5.348  0.2387  0.0429 -0.2372
15984SOL    HW248652   5.154   3.717   5.419 -0.9373 -0.7279 -0.9076
15985SOL     OW48653   7.965   4.121   5.720  0.3691 -0.2378 -0.3183
15985SOL    HW148654   7.935   4.079   5.640 -0.6584 -0.2651  0.0760
15985SOL    HW248655   7.963   4.052   5.786  1.2243 -0.2174 -0.2568
15986SOL     OW48656   0.668   5.864   3.341  0.0803  0.1884 -0.3038
15986SOL    HW148657   0.735   5.927   3.313  1.5671 -0.5354  1.3938
15986SOL    HW248658   0.623   5.909   3.413  0.4619 -0.2990  0.2405
15987SOL     OW48659   3.913   3.086   6.321 -0.4698  0.1021  0.5064
15987SOL    HW148660   3.865   3.016   6.278  0.1020  0.3898 -0.6212
15987SOL    HW248661   4.002   3.080   6.287 -0.6768  2.0972 -0.5907
15988SOL     OW48662   1.124   3.288   5.947  0.2359  0.4838  0.5068
15988SOL    HW148663   1.029   3.301   5.944  0.2464  0.5458 -3.2016
15988SOL    HW248664   1.151   3.285   5.856  3.5180 -2.0425  1.3838
15989SOL     OW48665   5.277   7.522   5.475 -0.2697  0.4509 -0.2693
15989SOL    HW148666   5.237   7.589   5.530  1.4614  0.1588  1.4380
15989SOL    HW248667   5.243   7.440   5.509  0.8754  0.2641  0.4992
15990SOL     OW48668   6.897   2.773   6.234  0.4211  0.1368  0.0224
15990SOL    HW148669   6.956   2.849   6.228 -0.5864  0.8600 -1.3048
15990SOL    HW248670   6.829   2.791   6.170 -1.3401 -0.6057  1.5983
15991SOL     OW48671   1.795   0.552   6.563  0.3430  0.1183 -0.4953
15991SOL    HW148672   1.762   0.624   6.616 -1.8826  0.0945 -1.7453
15991SOL    HW248673   1.841   0.594   6.491  0.3498  0.2518 -0.4134
15992SOL     OW48674   3.851   7.712   1.598  0.1608  0.1439 -0.5157
15992SOL    HW148675   3.807   7.756   1.525  0.6644  1.3445 -0.1265
15992SOL    HW248676   3.899   7.782   1.642  0.6438 -0.7398  0.3962
15993SOL     OW48677   0.948   5.674   2.891  0.1645  0.3541 -0.1895
15993SOL    HW148678   1.021   5.715   2.938  0.5898 -0.8657  0.2523
15993SOL    HW248679   0.878   5.668   2.956  0.5704 -0.8370  0.1699
15994SOL     OW48680   6.151   5.836   0.449 -0.9083  0.1617  0.3212
15994SOL    HW148681   6.184   5.756   0.488  0.2008  0.8321  0.7932
15994SOL    HW248682   6.177   5.832   0.357  1.3408  1.0632  0.8504
15995SOL     OW48683   3.630   1.520   7.856  0.1709  0.2134 -0.1861
15995SOL    HW148684   3.670   1.606   7.850 -0.0479  0.3600  0.3951
15995SOL    HW248685   3.569   1.526   7.930 -1.2755  0.1415 -1.3088
15996SOL     OW48686   4.769   1.151   2.674 -0.0060  0.0856  0.8312
15996SOL    HW148687   4.713   1.224   2.646  1.1929  0.9904  0.7174
15996SOL    HW248688   4.858   1.186   2.671  0.6685 -1.5925  0.1704
15997SOL     OW48689   4.287   2.210   3.191  0.0649  0.2566  0.1977
15997SOL    HW148690   4.214   2.152   3.173 -0.6936  1.1111  0.4414
15997SOL    HW248691   4.355   2.153   3.227 -1.3344 -0.2218  2.2476
15998SOL     OW48692   6.636   2.060   0.376  0.2608 -0.6265 -0.2965
15998SOL    HW148693   6.562   2.108   0.337  1.8356  1.7734 -0.5205
15998SOL    HW248694   6.699   2.128   0.399  0.8440 -2.1978  3.4865
15999SOL     OW48695   6.700   7.392   5.823  0.3308  0.3218 -0.4221
15999SOL    HW148696   6.661   7.418   5.740  0.6392 -0.9100 -0.9805
15999SOL    HW248697   6.793   7.411   5.814  0.5085 -0.6289 -0.7169
16000SOL     OW48698   5.413   2.823   4.680  0.2195 -0.2259 -0.0004
16000SOL    HW148699   5.491   2.878   4.691 -0.2618  0.2608  1.0700
16000SOL    HW248700   5.349   2.859   4.741 -0.6085 -1.0720 -0.3451
16001SOL     OW48701   5.483   0.740   6.768  0.1923 -0.5231  0.0989
16001SOL    HW148702   5.466   0.835   6.762  0.3089 -0.5850 -1.9047
16001SOL    HW248703   5.576   0.731   6.751  0.3936 -0.9627  1.2916
16002SOL     OW48704   0.090   7.070   7.656  0.4311  0.3129 -0.0074
16002SOL    HW148705   0.049   7.153   7.632  0.9374  1.6175  3.0378
16002SOL    HW248706   0.070   7.060   7.749  0.8167 -2.7884 -0.1532
16003SOL     OW48707   3.531   5.771   1.311  0.3299  0.4798  0.1813
16003SOL    HW148708   3.537   5.831   1.385 -0.4931  0.5260  0.2182
16003SOL    HW248709   3.567   5.820   1.237  1.7977  0.1905  0.6738
16004SOL     OW48710   2.528   0.699   0.423 -0.7660 -0.2035  0.1594
16004SOL    HW148711   2.606   0.670   0.470 -1.0339  0.9185  1.3566
16004SOL    HW248712   2.467   0.727   0.492 -2.0684 -0.6382 -0.7671
16005SOL     OW48713   1.848   3.819   3.384 -0.5402  0.0453 -0.0132
16005SOL    HW148714   1.832   3.738   3.434 -0.1041 -0.3399 -0.4859
16005SOL    HW248715   1.943   3.824   3.377 -0.5883  0.2497 -0.5562
16006SOL     OW48716   4.983   7.646   4.249  0.0326  0.3771  0.1957
16006SOL    HW148717   5.019   7.718   4.196 -0.3051  0.5486  0.1990
16006SOL    HW248718   4.944   7.690   4.324 -0.1048  0.1797  0.2372
16007SOL     OW48719   2.485   7.370   4.130  0.1761 -0.7021  0.4863
16007SOL    HW148720   2.417   7.400   4.069 -1.3257 -1.6264  1.6590
16007SOL    HW248721   2.530   7.300   4.083 -0.1496 -0.5809 -0.0183
16008SOL     OW48722   4.170   5.517   3.874  0.1780  0.4845  0.1977
16008SOL    HW148723   4.210   5.583   3.931  0.7609 -0.2657  0.6724
16008SOL    HW248724   4.161   5.561   3.789 -1.1719  1.7886  0.9735
16009SOL     OW48725   5.322   0.917   1.325 -0.3200  0.0962  0.5046
16009SOL    HW148726   5.349   0.841   1.274 -1.0478  0.8845 -1.1091
16009SOL    HW248727   5.268   0.882   1.395  2.0887 -1.1866  1.8430
16010SOL     OW48728   3.549   5.982   3.657  0.2411  0.2850 -0.9079
16010SOL    HW148729   3.497   5.960   3.734 -1.0709 -0.2580 -1.9328
16010SOL    HW248730   3.608   6.052   3.688  0.4784 -0.6306  0.8419
16011SOL     OW48731   1.800   4.787   1.276  1.0160 -0.1202 -0.6428
16011SOL    HW148732   1.783   4.696   1.253 -0.9172  0.1022 -0.3048
16011SOL    HW248733   1.859   4.782   1.351  0.3664 -1.1374 -0.1759
16012SOL     OW48734   4.516   2.507   6.797 -0.1931  0.3040  0.1840
16012SOL    HW148735   4.484   2.475   6.881  0.3170 -0.4284  0.1129
16012SOL    HW248736   4.545   2.597   6.814  0.0607  0.1057  0.8358
16013SOL     OW48737   7.665   5.929   3.338  0.1761  0.6042 -0.2226
16013SOL    HW148738   7.733   5.907   3.402 -0.5385 -0.6489  0.1265
16013SOL    HW248739   7.707   5.994   3.281  1.8240 -0.4583 -0.2878
16014SOL     OW48740   5.051   4.303   6.248  0.1151  0.4021 -0.5331
16014SOL    HW148741   5.137   4.328   6.214  0.1685  0.0243 -0.6781
16014SOL    HW248742   5.062   4.305   6.344  0.2101  0.6137 -0.5484
16015SOL     OW48743   5.617   7.088   4.011  0.3172  0.0083  0.2911
16015SOL    HW148744   5.591   7.045   4.093 -0.4681 -0.1404 -0.0205
16015SOL    HW248745   5.585   7.178   4.020  0.0457 -0.0642  0.0677
16016SOL     OW48746   2.839   1.021   5.452  0.0499  0.1739 -0.1237
16016SOL    HW148747   2.783   1.023   5.530 -2.4300 -0.5831 -1.7758
16016SOL    HW248748   2.857   1.114   5.434  0.1351  0.3850  0.9667
16017SOL     OW48749   5.016   0.731   2.863 -0.3445 -0.0856 -0.2954
16017SOL    HW148750   4.956   0.805   2.862 -0.5493 -0.2545 -0.9437
16017SOL    HW248751   5.058   0.735   2.949  0.5389  1.5121 -0.7592
16018SOL     OW48752   1.509   0.119   5.094  0.0714  0.0260  0.1609
16018SOL    HW148753   1.489   0.057   5.024 -1.3663 -0.2281  0.7588
16018SOL    HW248754   1.554   0.066   5.160  1.6226  0.3110 -0.6208
16019SOL     OW48755   7.722   1.135   1.039  0.1983  0.3430 -0.0789
16019SOL    HW148756   7.697   1.225   1.058  1.3827  0.4837  0.8942
16019SOL    HW248757   7.761   1.103   1.121 -0.3403 -1.1029 -0.3569
16020SOL     OW48758   7.314   5.665   5.581 -0.4196 -0.3262 -0.3409
16020SOL    HW148759   7.224   5.668   5.549 -0.4161 -1.4398 -0.4790
16020SOL    HW248760   7.367   5.680   5.503 -0.4687 -0.2712 -0.3644
16021SOL     OW48761   0.111   2.539   7.763 -0.0330  0.0279  0.2175
16021SOL    HW148762   0.123   2.476   7.693  2.3470  0.0095  0.5521
16021SOL    HW248763   0.098   2.486   7.842 -1.0405  0.0304  0.0671
16022SOL     OW48764   1.230   0.374   0.183  0.3749  0.0067  0.1256
16022SOL    HW148765   1.170   0.364   0.257 -0.8728 -0.1133 -0.8637
16022SOL    HW248766   1.313   0.337   0.214 -0.4850 -1.2841  1.0007
16023SOL     OW48767   4.542   7.640   3.002  0.0358  0.5818  0.1637
16023SOL    HW148768   4.585   7.723   2.981  1.6596 -0.2202  0.1398
16023SOL    HW248769   4.596   7.574   2.958 -0.6532 -0.5604  0.9995
16024SOL     OW48770   0.232   0.798   0.845 -0.3912 -0.3907 -0.1753
16024SOL    HW148771   0.295   0.776   0.776 -0.9473 -0.4259 -0.6730
16024SOL    HW248772   0.217   0.716   0.891 -0.9168 -0.6302 -0.7576
16025SOL     OW48773   4.024   0.173   0.250 -0.4413 -0.2780 -0.3976
16025SOL    HW148774   4.040   0.118   0.174  1.2327 -1.2702  0.6260
16025SOL    HW248775   4.096   0.235   0.251 -0.1200 -0.6455  0.6870
16026SOL     OW48776   2.174   6.863   3.855 -0.3576  0.2589  0.5415
16026SOL    HW148777   2.245   6.810   3.818 -1.2980 -1.5622  1.2049
16026SOL    HW248778   2.117   6.883   3.781  0.8130  1.7760 -0.0051
16027SOL     OW48779   0.580   1.022   2.622  0.1253 -0.2584 -0.7743
16027SOL    HW148780   0.664   1.053   2.655  0.2021 -1.8902  0.6675
16027SOL    HW248781   0.516   1.084   2.658  0.5388  0.0586 -0.5732
16028SOL     OW48782   6.254   4.483   5.891  0.1767 -0.2343  0.4140
16028SOL    HW148783   6.324   4.454   5.832 -0.9488 -0.4229 -0.8708
16028SOL    HW248784   6.283   4.454   5.978  0.6455 -2.3676 -0.3747
16029SOL     OW48785   7.727   3.064   5.103 -0.3449 -0.2483 -0.3959
16029SOL    HW148786   7.735   3.025   5.190 -0.6044 -1.1695 -0.7727
16029SOL    HW248787   7.700   2.992   5.046  2.1017 -0.2442 -1.7091
16030SOL     OW48788   6.364   1.671   3.496  0.1664 -0.2363  0.2296
16030SOL    HW148789   6.378   1.749   3.550 -0.1741 -0.4138  0.5812
16030SOL    HW248790   6.439   1.669   3.436  1.5742 -1.0741  1.9263
16031SOL     OW48791   1.568   7.118   5.040 -0.0222 -0.3971 -0.6999
16031SOL    HW148792   1.535   7.029   5.024 -1.8240 -0.2415  1.6172
16031SOL    HW248793   1.596   7.117   5.131  0.5672  1.2609 -0.8353
16032SOL     OW48794   1.055   6.920   2.511  0.2709 -0.4909 -0.0492
16032SOL    HW148795   1.105   6.851   2.556 -0.1023 -0.0471  1.0888
16032SOL    HW248796   0.971   6.878   2.491 -0.0924 -0.2927  0.9673
16033SOL     OW48797   2.810   3.547   7.876  0.0565 -0.0126  0.0111
16033SOL    HW148798   2.737   3.486   7.870  0.0943 -0.1873  1.0175
16033SOL    HW248799   2.824   3.558   7.970  1.0075  0.4011 -0.1627
16034SOL     OW48800   5.272   4.707   7.498  0.2940 -0.5206  0.4133
16034SOL    HW148801   5.282   4.620   7.460  0.5752 -0.0862 -0.5288
16034SOL    HW248802   5.340   4.711   7.566  2.1978 -0.0411 -1.4284
16035SOL     OW48803   7.281   3.912   2.023 -0.6443  0.4318 -0.2286
16035SOL    HW148804   7.353   3.855   1.997 -0.1413  0.2386  1.4404
16035SOL    HW248805   7.301   3.996   1.982  0.5380  0.3743  0.1886
16036SOL     OW48806   0.915   0.388   1.856 -0.0498 -0.1569 -0.2235
16036SOL    HW148807   0.922   0.399   1.761  0.0746 -1.2397 -0.3461
16036SOL    HW248808   0.932   0.476   1.891 -1.6347  0.6166 -1.2556
16037SOL     OW48809   1.960   4.026   5.002 -0.0918 -0.4679 -0.7553
16037SOL    HW148810   1.959   4.025   4.907 -0.4614 -0.7461 -0.7491
16037SOL    HW248811   1.971   3.935   5.028 -0.8387 -0.4996 -0.5255
16038SOL     OW48812   3.930   5.235   3.599 -0.2002  0.6463  0.1532
16038SOL    HW148813   3.930   5.305   3.664  1.0057  1.0603 -0.2644
16038SOL    HW248814   3.851   5.184   3.618 -1.3317  2.3482  0.2100
16039SOL     OW48815   2.035   3.951   0.398  0.5326 -0.0201 -0.1994
16039SOL    HW148816   2.051   3.987   0.311  1.6591  0.7497  0.3037
16039SOL    HW248817   1.952   3.991   0.425 -0.3430 -1.0219 -1.2820
16040SOL     OW48818   6.859   0.475   0.234 -0.1014  0.0081 -0.0730
16040SOL    HW148819   6.856   0.478   0.329 -0.8205  0.8856 -0.1082
16040SOL    HW248820   6.780   0.521   0.206 -0.4819 -1.2301 -1.0915
16041SOL     OW48821   1.862   3.169   7.473  0.2223  0.1079 -0.0460
16041SOL    HW148822   1.875   3.264   7.481  0.8890 -0.0365  0.7238
16041SOL    HW248823   1.943   3.131   7.506  0.4282 -0.7174 -1.4349
16042SOL     OW48824   4.729   1.447   0.081 -0.5012 -0.2938 -0.0826
16042SOL    HW148825   4.747   1.523   0.137  1.2118 -1.0588  0.4852
16042SOL    HW248826   4.635   1.433   0.089 -0.4054 -0.0654  2.2593
16043SOL     OW48827   0.318   3.333   2.810 -0.2220 -0.0066  0.2916
16043SOL    HW148828   0.313   3.395   2.737  0.3909  0.5784  0.7266
16043SOL    HW248829   0.411   3.310   2.815 -0.6431 -2.1732 -0.8275
16044SOL     OW48830   7.893   1.272   0.508  0.3185 -0.0481 -0.5179
16044SOL    HW148831   7.986   1.284   0.526  0.2342  0.4353 -0.3991
16044SOL    HW248832   7.856   1.244   0.591 -0.0936  2.3111  0.1506
16045SOL     OW48833   2.512   4.992   7.193 -0.2234 -0.5439  0.2496
16045SOL    HW148834   2.545   4.954   7.274 -1.8971  0.6043  1.5380
16045SOL    HW248835   2.478   4.917   7.144  0.9243 -1.2693  0.5201
16046SOL     OW48836   5.698   0.104   0.412  0.0714  0.3773  0.2204
16046SOL    HW148837   5.749   0.023   0.416  1.4523  1.1243 -1.1963
16046SOL    HW248838   5.725   0.145   0.330 -1.4417  1.7398  0.3589
16047SOL     OW48839   7.860   0.468   5.158  0.0376  0.5724 -0.4551
16047SOL    HW148840   7.881   0.562   5.156 -0.2678  0.6534 -3.3179
16047SOL    HW248841   7.941   0.425   5.131  0.1732 -0.0383  0.8462
16048SOL     OW48842   2.066   5.391   6.505 -0.1539  0.2319  0.4286
16048SOL    HW148843   2.062   5.369   6.412 -0.8924 -0.9003  0.7109
16048SOL    HW248844   2.108   5.477   6.507 -0.7205  0.5734 -0.9913
16049SOL     OW48845   4.273   0.111   0.949 -0.1983 -0.2183  0.3955
16049SOL    HW148846   4.248   0.202   0.963  1.0900  0.0522  1.0633
16049SOL    HW248847   4.194   0.061   0.971 -0.3321  0.6208  1.9345
16050SOL     OW48848   1.807   3.634   6.814 -0.1231 -0.2496 -0.3139
16050SOL    HW148849   1.848   3.658   6.896  0.4292  1.1247 -0.9648
16050SOL    HW248850   1.875   3.648   6.748 -1.0466  0.2608 -1.1880
16051SOL     OW48851   6.828   6.886   0.638  0.1333 -0.2472 -0.1868
16051SOL    HW148852   6.880   6.868   0.716 -0.7698  1.3868  0.8663
16051SOL    HW248853   6.837   6.981   0.625 -0.5668 -0.3272 -1.4552
16052SOL     OW48854   6.796   6.550   0.065  0.3949  0.4924  0.4064
16052SOL    HW148855   6.861   6.494   0.107 -1.0001 -0.5450  1.2452
16052SOL    HW248856   6.714   6.501   0.069 -0.4360  1.6814 -0.7913
16053SOL     OW48857   1.690   3.448   2.234 -0.2301 -0.0252  0.5951
16053SOL    HW148858   1.738   3.528   2.211  0.8716 -1.1727 -1.3799
16053SOL    HW248859   1.758   3.387   2.261 -0.8577 -0.8772  0.2807
16054SOL     OW48860   1.461   0.490   5.151 -0.5477 -0.2442 -0.7747
16054SOL    HW148861   1.545   0.444   5.154 -0.3560  0.0805 -1.0758
16054SOL    HW248862   1.441   0.509   5.243 -0.3539 -0.4368 -0.6914
16055SOL     OW48863   2.896   2.247   6.746  0.4394  0.7884  0.2752
16055SOL    HW148864   2.933   2.177   6.692 -0.2029  0.6827 -0.0410
16055SOL    HW248865   2.899   2.325   6.691  2.9066  1.4946  1.2725
16056SOL     OW48866   6.000   5.652   0.621  0.2529  0.3482 -0.3463
16056SOL    HW148867   5.945   5.574   0.630  1.7312 -0.6580  0.4924
16056SOL    HW248868   5.964   5.699   0.547 -0.8379 -1.0208 -0.7273
16057SOL     OW48869   6.689   7.906   1.170 -0.4573 -0.0256  0.2142
16057SOL    HW148870   6.767   7.849   1.167 -1.5154 -1.5148 -0.5214
16057SOL    HW248871   6.641   7.876   1.247 -0.5693  0.5288  0.3603
16058SOL     OW48872   2.111   6.551   5.201 -0.1138 -0.5197  0.5458
16058SOL    HW148873   2.051   6.579   5.132  0.6419 -0.6754 -0.1996
16058SOL    HW248874   2.177   6.621   5.205  0.1942 -0.8145  0.6710
16059SOL     OW48875   0.543   0.328   5.532  0.1469  0.0545  0.6532
16059SOL    HW148876   0.561   0.255   5.474  0.4350  1.1006 -0.6389
16059SOL    HW248877   0.523   0.401   5.473  2.0891  1.6026  1.7737
16060SOL     OW48878   5.397   0.437   7.960 -0.6313 -0.1633 -0.1102
16060SOL    HW148879   5.339   0.430   7.884 -1.6071  1.8935  0.3967
16060SOL    HW248880   5.485   0.432   7.922 -1.1038 -0.0529 -1.2766
16061SOL     OW48881   7.135   1.503   4.134 -0.0020 -0.4742  0.2863
16061SOL    HW148882   7.106   1.479   4.222 -0.5449 -2.3999 -0.3716
16061SOL    HW248883   7.069   1.564   4.103 -1.0970 -1.5661  0.3905
16062SOL     OW48884   3.023   7.675   4.089  0.3144 -0.4491 -0.1548
16062SOL    HW148885   2.952   7.659   4.028  0.8866  0.8017 -1.1912
16062SOL    HW248886   2.995   7.633   4.170 -0.9134 -1.2648 -0.9740
16063SOL     OW48887   5.941   7.531   3.155 -0.0807  0.5286 -0.1644
16063SOL    HW148888   5.954   7.442   3.121  1.0864  1.3389 -1.9939
16063SOL    HW248889   6.007   7.583   3.111 -0.9052  2.3763  0.6904
16064SOL     OW48890   6.895   4.322   4.490  0.2277 -0.7262  0.5635
16064SOL    HW148891   6.878   4.307   4.397  1.4089 -0.6217  0.3090
16064SOL    HW248892   6.809   4.334   4.529 -0.3479 -1.7590 -0.3402
16065SOL     OW48893   0.367   7.200   2.999 -0.7039 -0.0430  0.4676
16065SOL    HW148894   0.301   7.138   2.967 -0.0937 -0.5767  0.2349
16065SOL    HW248895   0.330   7.233   3.082 -1.5785  0.1933  0.0024
16066SOL     OW48896   3.484   1.114   0.412  0.0343  0.1391 -0.1990
16066SOL    HW148897   3.434   1.144   0.336 -1.3333 -0.7255  0.3266
16066SOL    HW248898   3.423   1.121   0.485 -0.1563 -3.1428  0.0982
16067SOL     OW48899   4.102   7.093   7.087 -0.1495  0.3010  0.0597
16067SOL    HW148900   4.008   7.100   7.103  0.1614  0.6191  1.9787
16067SOL    HW248901   4.133   7.183   7.084  0.0838  0.2085 -0.8597
16068SOL     OW48902   6.768   2.573   4.588 -0.0957  0.4076 -1.0199
16068SOL    HW148903   6.822   2.608   4.659 -0.8176  1.0169 -0.7633
16068SOL    HW248904   6.778   2.478   4.594 -1.4321  0.3384  0.9496
16069SOL     OW48905   0.720   1.363   4.697 -0.2993  0.7043  0.1343
16069SOL    HW148906   0.681   1.375   4.783 -1.6862  3.4308 -0.7704
16069SOL    HW248907   0.815   1.360   4.714 -0.5946 -1.9580  1.9588
16070SOL     OW48908   2.104   1.126   3.887  0.2485 -0.2292  0.3765
16070SOL    HW148909   2.121   1.032   3.882 -1.2896 -0.5211  0.1890
16070SOL    HW248910   2.026   1.140   3.833  0.4843  1.1641  0.3550
16071SOL     OW48911   3.569   3.048   5.845 -0.0660  0.7284  0.8402
16071SOL    HW148912   3.542   3.044   5.936 -1.9967 -0.3231  0.2986
16071SOL    HW248913   3.569   3.141   5.824 -0.8689  0.9191  1.6036
16072SOL     OW48914   1.502   6.465   3.845 -0.1453 -0.4236  0.3050
16072SOL    HW148915   1.532   6.387   3.797  1.6752  0.0322  0.6154
16072SOL    HW248916   1.407   6.456   3.848 -0.5543  0.0433 -4.2980
16073SOL     OW48917   3.277   1.022   6.486  0.4902  0.1635 -0.4291
16073SOL    HW148918   3.245   0.942   6.527  2.8568 -1.1787 -1.0262
16073SOL    HW248919   3.370   1.006   6.470  1.6363  3.7685  1.2727
16074SOL     OW48920   5.484   4.824   3.070 -0.1311 -0.3180  0.1089
16074SOL    HW148921   5.525   4.903   3.034  1.0960 -1.4159 -1.0149
16074SOL    HW248922   5.537   4.801   3.146  0.0718 -0.5349 -0.0920
16075SOL     OW48923   1.703   4.929   2.417  0.3244 -0.0459 -0.8515
16075SOL    HW148924   1.680   5.021   2.400 -1.1193 -0.3053 -0.4440
16075SOL    HW248925   1.702   4.922   2.513 -2.1697 -1.0458 -0.8668
16076SOL     OW48926   0.871   5.091   7.759 -0.0981  0.0006 -0.0530
16076SOL    HW148927   0.955   5.136   7.752  0.4128 -0.7003  1.1865
16076SOL    HW248928   0.812   5.142   7.704  1.2108  0.3113 -1.2161
16077SOL     OW48929   5.804   1.662   3.051 -0.3286 -0.2584  0.4546
16077SOL    HW148930   5.858   1.678   3.128 -0.8340 -0.3618  0.8332
16077SOL    HW248931   5.790   1.749   3.013 -0.7748 -0.1049  0.9552
16078SOL     OW48932   0.772   2.642   4.399 -0.0860  0.1708 -0.0471
16078SOL    HW148933   0.704   2.576   4.407 -0.4071  0.5155  0.0856
16078SOL    HW248934   0.726   2.722   4.373  0.1315  0.6632  1.0310
16079SOL     OW48935   3.027   2.831   1.570  0.2680 -0.6837  0.3458
16079SOL    HW148936   3.121   2.822   1.556  0.2688  1.9376 -2.3295
16079SOL    HW248937   2.988   2.766   1.512  0.4967  0.8949 -1.7124
16080SOL     OW48938   3.215   1.523   4.868 -0.0142  0.1196 -0.0210
16080SOL    HW148939   3.209   1.443   4.816  0.0284  0.5521 -0.6972
16080SOL    HW248940   3.237   1.493   4.956 -1.2273 -0.7034  0.0190
16081SOL     OW48941   2.843   2.780   1.056  0.2756  0.2296  0.2716
16081SOL    HW148942   2.877   2.694   1.081 -0.6847  0.0816  1.1524
16081SOL    HW248943   2.752   2.779   1.086 -0.2206  0.9789 -1.0912
16082SOL     OW48944   2.805   2.710   3.164  0.4144  0.2099  0.6592
16082SOL    HW148945   2.810   2.688   3.071 -0.1264 -0.3552  0.7598
16082SOL    HW248946   2.893   2.739   3.186  0.3889  0.9701 -0.1797
16083SOL     OW48947   3.080   2.331   7.805 -0.1615  0.1738 -0.4309
16083SOL    HW148948   3.146   2.264   7.785  0.8556  0.4108  1.7165
16083SOL    HW248949   2.997   2.284   7.804  0.6015 -1.4321  1.8653
16084SOL     OW48950   7.079   0.878   0.167  0.1390  0.6104 -0.2352
16084SOL    HW148951   7.083   0.877   0.263 -0.8734 -1.0804 -0.1868
16084SOL    HW248952   7.038   0.962   0.147  1.8184  1.7357  0.6931
16085SOL     OW48953   7.105   1.660   4.878 -0.4259  0.3864 -0.0760
16085SOL    HW148954   7.037   1.717   4.915  1.5226  1.5270  2.0607
16085SOL    HW248955   7.132   1.605   4.952 -0.8947 -2.0597 -1.6010
16086SOL     OW48956   6.768   6.907   3.262 -0.0280  0.1059 -0.0141
16086SOL    HW148957   6.694   6.896   3.201  0.5370 -0.9404 -0.5345
16086SOL    HW248958   6.782   6.820   3.298 -0.1125  0.6384  1.3721
16087SOL     OW48959   0.680   6.162   1.648  0.4572 -0.0720  0.2350
16087SOL    HW148960   0.601   6.114   1.670  0.0707  0.7074  0.5919
16087SOL    HW248961   0.679   6.167   1.552  0.3632 -0.5373  0.2127
16088SOL     OW48962   6.897   2.753   1.408 -0.1014 -0.7025 -0.0868
16088SOL    HW148963   6.937   2.765   1.494 -1.3989  1.7121  0.2625
16088SOL    HW248964   6.856   2.666   1.413  0.9284 -1.1442  1.2439
16089SOL     OW48965   3.477   5.582   6.680 -0.3340 -0.2238  0.3066
16089SOL    HW148966   3.459   5.599   6.588 -2.5209 -2.1370  0.3164
16089SOL    HW248967   3.569   5.556   6.682 -0.6632 -1.6982 -1.5837
16090SOL     OW48968   3.498   3.287   4.494 -0.3014  0.2133 -0.0976
16090SOL    HW148969   3.408   3.267   4.521 -0.5999 -0.7301 -1.7043
16090SOL    HW248970   3.510   3.379   4.518 -0.7571 -0.3163  2.5409
16091SOL     OW48971   5.515   4.452   6.832 -0.4329  0.0986  0.2377
16091SOL    HW148972   5.466   4.378   6.796 -2.0559  1.6545 -0.9494
16091SOL    HW248973   5.525   4.512   6.758  0.3878  1.2959  1.2791
16092SOL     OW48974   2.093   3.681   0.486  0.5180  0.0285  0.1593
16092SOL    HW148975   2.087   3.776   0.498  0.8933  0.1505 -0.5705
16092SOL    HW248976   2.127   3.670   0.397  0.8041 -0.7893  0.3612
16093SOL     OW48977   7.151   6.996   1.982 -0.3233  0.0844 -0.8591
16093SOL    HW148978   7.155   6.929   1.914  1.5808  1.1873 -1.9176
16093SOL    HW248979   7.062   7.030   1.976 -1.9665 -3.4046  0.8970
16094SOL     OW48980   3.354   5.872   2.302 -0.1598  0.0592 -0.0883
16094SOL    HW148981   3.441   5.903   2.277  0.2769 -2.2817 -1.7579
16094SOL    HW248982   3.369   5.805   2.368 -0.6922 -0.1505 -0.1680
16095SOL     OW48983   0.605   7.788   2.185  0.3532  0.5059 -0.1516
16095SOL    HW148984   0.559   7.872   2.192 -0.5431  0.0362 -0.2019
16095SOL    HW248985   0.557   7.730   2.245 -0.9670 -0.7843 -2.3427
16096SOL     OW48986   3.003   0.713   0.595  0.1913  0.4267 -0.5790
16096SOL    HW148987   2.998   0.638   0.655 -2.4331  1.1970  0.3009
16096SOL    HW248988   3.083   0.758   0.620  0.3764 -0.5818  0.7634
16097SOL     OW48989   0.047   3.997   2.337  0.9703  0.0673  0.2420
16097SOL    HW148990  -0.020   4.010   2.404 -1.1039  0.2254 -1.7507
16097SOL    HW248991   0.129   4.026   2.379  0.0175 -1.0181  3.0658
16098SOL     OW48992   2.116   2.378   0.748  0.0442 -0.2769  0.1372
16098SOL    HW148993   2.040   2.408   0.698  0.0513 -1.9116 -0.9271
16098SOL    HW248994   2.149   2.457   0.792 -1.2398  0.7852 -0.7416
16099SOL     OW48995   7.956   3.523   0.726  0.1034  0.1300 -0.1022
16099SOL    HW148996   7.874   3.538   0.679 -1.1550 -0.6968  1.7175
16099SOL    HW248997   8.022   3.516   0.657 -1.4422  0.2306 -1.6625
16100SOL     OW48998   2.498   2.774   5.744  0.5487 -0.0288  0.5437
16100SOL    HW148999   2.435   2.823   5.797  1.9465 -0.5315  2.7739
16100SOL    HW249000   2.580   2.822   5.752  0.9017 -0.3265 -0.9047
16101SOL     OW49001   3.905   5.763   3.306 -0.4899  0.1984  0.4074
16101SOL    HW149002   3.824   5.813   3.301  0.2487  1.5864  1.6137
16101SOL    HW249003   3.907   5.711   3.226 -4.3425 -2.7068  1.8593
16102SOL     OW49004   4.915   5.883   5.111 -0.0655 -0.0558  0.3830
16102SOL    HW149005   4.863   5.804   5.121  1.5085 -1.1592  0.2289
16102SOL    HW249006   4.878   5.927   5.035 -0.7832 -0.7742  0.3031
16103SOL     OW49007   5.402   4.182   1.085 -0.7631 -0.1352  0.1316
16103SOL    HW149008   5.463   4.125   1.038 -2.7082 -1.4504 -0.9438
16103SOL    HW249009   5.372   4.129   1.158 -0.9468  0.3339  0.3974
16104SOL     OW49010   6.905   6.441   7.364 -0.3382 -0.3474  0.3816
16104SOL    HW149011   6.945   6.358   7.339  1.1671  0.6895 -0.8095
16104SOL    HW249012   6.948   6.465   7.446  0.1138 -0.1936  0.1086
16105SOL     OW49013   7.142   1.625   5.537 -0.0867  0.1975  0.0317
16105SOL    HW149014   7.108   1.675   5.611 -0.5627 -0.2822  0.1453
16105SOL    HW249015   7.225   1.668   5.515 -0.1305  0.5818  0.5894
16106SOL     OW49016   4.709   6.663   4.574  0.0938  0.2203 -0.0600
16106SOL    HW149017   4.790   6.714   4.575  0.3522 -0.1585 -1.1083
16106SOL    HW249018   4.655   6.704   4.642  0.4985  1.5550 -0.5102
16107SOL     OW49019   7.550   6.589   3.420 -0.3442 -0.2674  0.3393
16107SOL    HW149020   7.577   6.681   3.411 -0.8238 -0.1787 -0.2235
16107SOL    HW249021   7.459   6.587   3.391 -0.3235 -0.9321  0.3030
16108SOL     OW49022   3.855   6.361   4.473 -0.1871 -0.3216  0.0526
16108SOL    HW149023   3.827   6.324   4.556  2.3061  1.5902  1.9009
16108SOL    HW249024   3.803   6.441   4.463  0.0109 -0.1823  0.1342
16109SOL     OW49025   1.018   6.004   1.472  0.1687 -0.0801 -0.6262
16109SOL    HW149026   1.019   6.095   1.502  0.3328 -0.6313  1.1685
16109SOL    HW249027   1.065   5.956   1.540 -1.9684 -1.8652 -0.3110
16110SOL     OW49028   5.705   2.935   4.311  0.0966 -0.4087 -0.5337
16110SOL    HW149029   5.696   3.028   4.289 -0.0704 -0.6537 -1.5633
16110SOL    HW249030   5.791   2.928   4.352 -1.4703  0.8863  3.4522
16111SOL     OW49031   4.790   0.879   6.002  0.7366  0.0596 -0.0098
16111SOL    HW149032   4.746   0.930   5.935  0.6623 -0.6804 -0.5437
16111SOL    HW249033   4.729   0.807   6.021  0.3662  0.7402  1.4965
16112SOL     OW49034   2.482   3.350   2.737 -0.3283  0.3495  0.1569
16112SOL    HW149035   2.409   3.343   2.797 -0.7370 -0.2287 -0.3923
16112SOL    HW249036   2.465   3.283   2.670  2.0428 -1.6685  1.4245
16113SOL     OW49037   1.359   6.133   3.987  0.6464  0.2027  0.3308
16113SOL    HW149038   1.446   6.145   3.949 -0.6132  2.5728 -2.1517
16113SOL    HW249039   1.358   6.193   4.062  0.9057  0.7922 -0.1271
16114SOL     OW49040   0.451   3.680   3.216 -0.3990  0.2594 -0.1688
16114SOL    HW149041   0.483   3.744   3.279 -0.5483  2.1508 -1.8772
16114SOL    HW249042   0.526   3.664   3.158 -0.5177 -0.7409 -0.0612
16115SOL     OW49043   0.856   2.053   4.889  0.4252 -0.2569  0.3631
16115SOL    HW149044   0.792   2.036   4.821 -0.7272  0.5818  1.2038
16115SOL    HW249045   0.929   2.095   4.844  0.1039 -0.6044 -0.4975
16116SOL     OW49046   0.854   7.774   1.463 -0.0759  0.4501  0.1211
16116SOL    HW149047   0.794   7.843   1.492 -1.0190 -0.8144  1.3641
16116SOL    HW249048   0.913   7.761   1.538 -1.0041 -1.2316  0.5982
16117SOL     OW49049   2.267   2.584   4.501 -0.8139 -0.4374  0.6373
16117SOL    HW149050   2.195   2.529   4.532  0.2225 -0.4692  3.2511
16117SOL    HW249051   2.226   2.668   4.480 -2.0111 -1.3491 -0.8070
16118SOL     OW49052   4.092   0.631   3.550 -0.4429 -0.3111  0.0015
16118SOL    HW149053   4.153   0.675   3.609 -0.6726  0.1957 -0.1341
16118SOL    HW249054   4.124   0.541   3.546 -0.0192 -0.1816  0.3524
16119SOL     OW49055   3.267   2.234   0.203 -0.2096 -0.1879  0.1099
16119SOL    HW149056   3.329   2.164   0.185  0.6271  0.6793 -0.5162
16119SOL    HW249057   3.300   2.276   0.283  1.2355  1.5130 -1.2705
16120SOL     OW49058   6.488   1.212   5.850  0.3444 -0.5729  0.2029
16120SOL    HW149059   6.484   1.171   5.764 -0.8540  0.7302 -0.4046
16120SOL    HW249060   6.569   1.263   5.848  1.0125 -1.6022  0.3736
16121SOL     OW49061   3.329   2.241   7.765  0.4714 -0.0939  0.1218
16121SOL    HW149062   3.404   2.293   7.793 -0.3297  0.9002  0.4983
16121SOL    HW249063   3.342   2.156   7.806  0.9959  0.3154  0.8298
16122SOL     OW49064   6.180   5.811   6.807 -0.8432  0.2754  0.0151
16122SOL    HW149065   6.182   5.729   6.858 -0.5541  0.3003  0.0414
16122SOL    HW249066   6.266   5.851   6.821 -0.3067 -0.2954 -1.4342
16123SOL     OW49067   7.046   4.748   3.346 -0.0601 -0.1608  0.3247
16123SOL    HW149068   7.093   4.753   3.263 -0.2900 -0.9781  0.1350
16123SOL    HW249069   6.984   4.821   3.343  0.4986  0.3109  0.1412
16124SOL     OW49070   1.194   0.089   1.348 -0.4313 -0.2118 -0.1411
16124SOL    HW149071   1.240   0.006   1.331  0.4423  0.3278 -0.4834
16124SOL    HW249072   1.232   0.121   1.430  0.3753  0.6108 -0.8171
16125SOL     OW49073   4.924   2.163   5.665 -0.2725  0.3640  0.3850
16125SOL    HW149074   4.884   2.145   5.580 -1.5637 -0.9803  1.2227
16125SOL    HW249075   5.013   2.130   5.658 -0.7242 -0.8044 -0.1037
16126SOL     OW49076   2.744   1.022   5.748  0.1705  0.0307  0.0658
16126SOL    HW149077   2.755   1.117   5.758  0.0102  0.0412  0.1339
16126SOL    HW249078   2.834   0.988   5.747  0.2221  0.1639  0.2233
16127SOL     OW49079   7.705   3.549   0.588 -0.0835 -0.5930 -0.1332
16127SOL    HW149080   7.640   3.591   0.531 -0.9622 -0.4704  0.9223
16127SOL    HW249081   7.666   3.463   0.608  1.4454 -1.7610 -1.8437
16128SOL     OW49082   4.664   4.416   1.706  0.6421 -0.3089  0.1255
16128SOL    HW149083   4.694   4.334   1.665 -1.9871 -0.9480 -0.7092
16128SOL    HW249084   4.613   4.387   1.782  0.6332  0.6309  0.4869
16129SOL     OW49085   0.859   4.934   4.561  0.7169 -0.3543  0.3318
16129SOL    HW149086   0.925   4.994   4.595  0.8105  0.7531 -1.6595
16129SOL    HW249087   0.795   4.991   4.518  0.3797 -1.6155 -0.9118
16130SOL     OW49088   4.789   5.268   6.793 -0.0889 -0.4185  0.4652
16130SOL    HW149089   4.856   5.333   6.770 -0.5583  0.0293  0.3342
16130SOL    HW249090   4.838   5.190   6.818  0.4679 -0.7195 -1.4303
16131SOL     OW49091   6.768   6.848   6.286  0.0715 -0.1753  0.0125
16131SOL    HW149092   6.796   6.855   6.195 -0.5453  0.3042 -0.1444
16131SOL    HW249093   6.738   6.758   6.296  0.0861 -0.2114 -0.2772
16132SOL     OW49094   2.140   6.324   1.608 -0.3085 -0.6615  0.1581
16132SOL    HW149095   2.202   6.275   1.664 -1.4049 -0.4528  1.6201
16132SOL    HW249096   2.195   6.386   1.562  0.6069 -0.4325  1.4825
16133SOL     OW49097   0.579   2.302   5.735  0.0503  0.1984  0.1841
16133SOL    HW149098   0.531   2.219   5.731 -0.9983  0.7844  0.1060
16133SOL    HW249099   0.525   2.358   5.791  1.3989  0.4275  1.3134
16134SOL     OW49100   2.568   4.711   3.245  1.0693 -0.5388 -0.3347
16134SOL    HW149101   2.493   4.668   3.285  1.5319 -0.5728  0.5233
16134SOL    HW249102   2.611   4.643   3.193  1.3343 -0.9191  0.3621
16135SOL     OW49103   1.372   6.302   4.201  0.1263  0.0834 -0.3431
16135SOL    HW149104   1.410   6.385   4.173  2.5319 -0.6424  0.5104
16135SOL    HW249105   1.348   6.315   4.292 -1.9522  0.5696 -0.9017
16136SOL     OW49106   0.193   0.992   7.394  0.4633  0.0456 -0.3103
16136SOL    HW149107   0.247   0.913   7.394  0.6023  0.1393 -0.5711
16136SOL    HW249108   0.245   1.057   7.440  0.4028  0.0247 -0.2105
16137SOL     OW49109   0.553   6.652   3.462 -0.1850 -0.2598 -0.1433
16137SOL    HW149110   0.517   6.580   3.411  0.2717 -2.7172  2.7762
16137SOL    HW249111   0.479   6.712   3.475 -1.3211 -1.5964 -0.2879
16138SOL     OW49112   7.864   0.243   2.840  0.2788 -0.3150  0.0322
16138SOL    HW149113   7.866   0.319   2.899  2.8797  1.0729 -1.6617
16138SOL    HW249114   7.823   0.174   2.892 -0.3804  1.6758  2.3552
16139SOL     OW49115   7.166   2.322   3.817 -0.3683  0.0848  0.3282
16139SOL    HW149116   7.233   2.337   3.750 -0.1741  0.3949  0.5821
16139SOL    HW249117   7.210   2.267   3.882  0.1003  1.3982  1.1666
16140SOL     OW49118   0.598   1.954   0.222 -0.1144 -0.4425  0.0971
16140SOL    HW149119   0.671   1.929   0.278 -0.0768 -1.3592 -0.3428
16140SOL    HW249120   0.639   1.992   0.144 -0.1757  1.6797  1.0130
16141SOL     OW49121   4.299   3.226   3.994  0.0625  0.4650  0.0673
16141SOL    HW149122   4.232   3.244   3.928  0.1054  1.6057  0.3198
16141SOL    HW249123   4.281   3.136   4.022 -1.0155  0.5571 -0.2710
16142SOL     OW49124   4.383   0.555   4.174 -0.2063  0.3670 -0.3569
16142SOL    HW149125   4.379   0.470   4.218  1.8193 -0.2099 -1.1567
16142SOL    HW249126   4.465   0.552   4.124 -0.3437  2.6024 -0.8135
16143SOL     OW49127   6.259   1.598   2.929  0.2167 -0.2998 -0.2383
16143SOL    HW149128   6.275   1.557   3.014 -1.3275  0.0109  0.2302
16143SOL    HW249129   6.311   1.546   2.868 -0.3941 -1.9380  0.5657
16144SOL     OW49130   1.012   5.367   7.435  0.3972  0.3720  0.5225
16144SOL    HW149131   0.932   5.415   7.458  0.2533  0.4844 -0.2110
16144SOL    HW249132   0.995   5.332   7.348  1.9258  2.1176 -0.5217
16145SOL     OW49133   3.313   4.819   5.103  0.1848 -0.4508  0.0718
16145SOL    HW149134   3.324   4.860   5.189 -0.7991 -1.8137  0.8801
16145SOL    HW249135   3.393   4.842   5.056  0.0597  1.6128  0.7865
16146SOL     OW49136   0.052   5.608   1.135 -0.2502  0.1341 -0.6860
16146SOL    HW149137   0.072   5.658   1.214 -2.2970  1.0252 -0.6629
16146SOL    HW249138   0.003   5.532   1.166  0.3186 -0.3679 -0.9872
16147SOL     OW49139   1.598   5.302   1.542 -0.7307  0.1862  0.2787
16147SOL    HW149140   1.677   5.248   1.535 -0.8771  0.1243 -0.9669
16147SOL    HW249141   1.543   5.254   1.605 -0.2049 -0.2932  0.3856
16148SOL     OW49142   4.847   0.684   0.043  0.1165 -0.0559  0.1961
16148SOL    HW149143   4.842   0.747  -0.028 -0.7960 -0.6472 -0.2849
16148SOL    HW249144   4.767   0.697   0.093  1.1089  0.8928  1.6088
16149SOL     OW49145   6.169   0.347   3.016 -0.3161  0.5658 -0.1924
16149SOL    HW149146   6.126   0.371   3.099  0.1156  0.1013  0.1672
16149SOL    HW249147   6.260   0.330   3.040  0.3740  2.6088 -1.1128
16150SOL     OW49148   3.847   1.253   7.821  0.3895 -0.3891 -0.0863
16150SOL    HW149149   3.774   1.194   7.800  1.2769 -1.2515 -0.8598
16150SOL    HW249150   3.809   1.320   7.877 -0.9427 -0.9625 -0.2798
16151SOL     OW49151   5.443   4.045   4.381  0.0784  0.2900 -0.3319
16151SOL    HW149152   5.515   4.001   4.426 -0.7297  0.3385  1.0676
16151SOL    HW249153   5.472   4.051   4.289  1.4933 -0.3992  0.0400
16152SOL     OW49154   5.727   4.543   1.893  0.3610 -0.4050  0.2522
16152SOL    HW149155   5.819   4.524   1.873  0.1201  0.7269 -2.3830
16152SOL    HW249156   5.681   4.527   1.810 -1.5205  0.7753  1.0091
16153SOL     OW49157   0.254   0.968   3.932 -0.0885 -0.3270 -0.0627
16153SOL    HW149158   0.193   0.960   3.858 -1.3823  1.2335  0.7646
16153SOL    HW249159   0.264   0.879   3.964  1.6831 -1.2980 -2.9579
16154SOL     OW49160   1.073   1.685   6.755 -0.1754 -0.7730 -0.2507
16154SOL    HW149161   1.101   1.775   6.743 -0.7882 -0.1762  2.1092
16154SOL    HW249162   0.981   1.684   6.729 -0.4575 -0.4307  0.6932
16155SOL     OW49163   2.490   2.016   1.457 -0.0306  0.4063 -0.3795
16155SOL    HW149164   2.425   1.970   1.405 -0.6678  1.1298 -0.2509
16155SOL    HW249165   2.513   2.093   1.404 -0.0780  0.7137  0.0354
16156SOL     OW49166   3.213   3.221   7.033  0.2541  0.1685  0.7101
16156SOL    HW149167   3.242   3.204   6.943  0.2336 -0.1638  0.7639
16156SOL    HW249168   3.273   3.170   7.087 -0.7482 -0.9796  0.7926
16157SOL     OW49169   3.719   5.623   1.054  0.1948  0.3096 -0.4922
16157SOL    HW149170   3.706   5.555   0.988 -0.0731 -1.0957  0.9434
16157SOL    HW249171   3.814   5.631   1.061  0.2354 -0.1450 -0.4630
16158SOL     OW49172   0.659   5.585   1.365 -0.5908  0.0994  0.5146
16158SOL    HW149173   0.563   5.588   1.367 -0.5594  1.6118  0.7210
16158SOL    HW249174   0.687   5.674   1.387  0.8300  0.6793 -3.0106
16159SOL     OW49175   0.135   7.594   4.679 -0.0214 -0.1465 -0.1311
16159SOL    HW149176   0.168   7.630   4.596 -0.4695  1.0957  0.2069
16159SOL    HW249177   0.210   7.549   4.717  0.4788  0.1606 -0.7247
16160SOL     OW49178   6.115   6.607   2.668  0.0877 -0.3863  0.1556
16160SOL    HW149179   6.088   6.673   2.732  2.3982  1.4667 -0.6318
16160SOL    HW249180   6.184   6.557   2.712 -2.0522 -2.8642  0.9755
16161SOL     OW49181   3.935   4.361   0.763 -0.2982 -0.1539 -0.1757
16161SOL    HW149182   3.997   4.338   0.694  0.6674 -0.6443  0.8216
16161SOL    HW249183   3.894   4.441   0.733  0.9772  0.3037 -0.7751
16162SOL     OW49184   6.812   3.198   4.701  0.2095 -0.1519 -0.0587
16162SOL    HW149185   6.849   3.112   4.722  2.6680  0.5920 -1.0160
16162SOL    HW249186   6.861   3.227   4.625 -1.2270  1.7306 -0.3262
16163SOL     OW49187   4.909   3.006   6.663 -0.2004  0.1125 -0.3030
16163SOL    HW149188   4.847   3.044   6.601 -0.3885  1.6246  0.7684
16163SOL    HW249189   4.895   3.054   6.745  2.6944  0.9024 -0.1423
16164SOL     OW49190   0.862   1.151   7.300 -0.9247 -0.1677 -0.0061
16164SOL    HW149191   0.956   1.159   7.283 -1.1881  1.6738 -0.7847
16164SOL    HW249192   0.855   1.157   7.395 -0.4642  3.3232 -0.0756
16165SOL     OW49193   4.748   5.911   1.110 -0.1439 -0.3836 -0.2830
16165SOL    HW149194   4.838   5.891   1.138 -0.5928 -0.1695  1.4186
16165SOL    HW249195   4.713   5.827   1.082  0.1963 -0.7073  0.2330
16166SOL     OW49196   2.625   7.251   2.125 -1.4111 -0.0727 -0.1482
16166SOL    HW149197   2.632   7.292   2.211 -1.8303 -0.5678  0.1245
16166SOL    HW249198   2.531   7.257   2.104 -1.0681  1.7222 -1.4013
16167SOL     OW49199   0.459   6.745   5.329  0.2870 -0.6257 -0.2209
16167SOL    HW149200   0.398   6.775   5.397 -0.2327  0.6264 -1.1964
16167SOL    HW249201   0.415   6.670   5.290 -0.3307 -0.1566 -0.4528
16168SOL     OW49202   1.258   1.465   0.628  0.6287  0.0551  0.2390
16168SOL    HW149203   1.267   1.537   0.566  1.8143 -0.2658  0.0248
16168SOL    HW249204   1.178   1.487   0.678  0.7809  1.3402 -0.0386
16169SOL     OW49205   3.777   6.565   4.885 -0.6556  0.1831  0.2505
16169SOL    HW149206   3.806   6.649   4.923  0.1208 -0.3849  0.9595
16169SOL    HW249207   3.856   6.512   4.882 -1.0958 -0.4481 -0.4250
16170SOL     OW49208   1.520   1.524   0.726 -0.0434  0.4743 -0.3601
16170SOL    HW149209   1.502   1.593   0.790 -1.3067  0.3507 -0.5422
16170SOL    HW249210   1.433   1.501   0.692  0.5012 -0.2477 -1.2934
16171SOL     OW49211   6.229   6.767   0.454  0.2121  0.1815 -0.1104
16171SOL    HW149212   6.271   6.721   0.381 -2.4597 -1.7960 -0.5873
16171SOL    HW249213   6.179   6.837   0.411 -0.1340 -0.0247 -0.0563
16172SOL     OW49214   6.653   5.111   1.181  0.3315 -0.2010  0.7494
16172SOL    HW149215   6.687   5.192   1.219 -1.3275  0.3950  1.0334
16172SOL    HW249216   6.698   5.103   1.096 -0.4631  1.7649  0.0870
16173SOL     OW49217   6.633   4.295   6.947  0.3281  0.0263 -0.7055
16173SOL    HW149218   6.565   4.250   6.896  0.6925 -0.2126 -0.9902
16173SOL    HW249219   6.672   4.225   7.001  0.3524  0.1615 -0.5458
16174SOL     OW49220   3.848   7.700   2.539 -0.0238  0.3300  0.1288
16174SOL    HW149221   3.786   7.722   2.608 -1.8991 -0.7153 -1.1515
16174SOL    HW249222   3.839   7.605   2.529  1.0750  0.3081 -0.7698
16175SOL     OW49223   4.168   2.198   0.611 -0.4631 -0.4556 -0.0603
16175SOL    HW149224   4.259   2.192   0.641 -1.3912 -0.8125  3.0580
16175SOL    HW249225   4.144   2.290   0.625 -1.1670 -0.8099  1.2230
16176SOL     OW49226   5.373   4.310   3.778  0.1857 -0.2859 -0.2920
16176SOL    HW149227   5.365   4.405   3.772 -0.6832 -0.3053  0.4005
16176SOL    HW249228   5.406   4.293   3.866  2.0602 -0.5591 -0.9990
16177SOL     OW49229   7.169   4.089   4.173  0.5096  0.3595  0.6030
16177SOL    HW149230   7.105   4.159   4.158 -0.5012 -0.8884 -1.2955
16177SOL    HW249231   7.115   4.011   4.191  1.5941 -0.1001  2.0226
16178SOL     OW49232   6.923   3.120   0.687 -0.4567 -0.2805 -0.3001
16178SOL    HW149233   6.905   3.036   0.730  0.4179 -0.3538 -0.0536
16178SOL    HW249234   6.853   3.178   0.718 -0.4685 -0.6334  0.3660
16179SOL     OW49235   6.620   5.156   3.219 -0.7073  0.3723  0.6519
16179SOL    HW149236   6.645   5.221   3.285  1.4385 -0.3532  0.6276
16179SOL    HW249237   6.585   5.083   3.269  0.1372  0.1673  0.9688
16180SOL     OW49238   7.679   2.996   7.287  0.2807 -0.4075  0.2527
16180SOL    HW149239   7.699   2.964   7.199  0.6056  2.0087 -0.6424
16180SOL    HW249240   7.709   3.087   7.286 -1.9500  0.4432  2.0721
16181SOL     OW49241   4.808   3.606   3.920  0.6049 -0.4134 -0.0952
16181SOL    HW149242   4.748   3.647   3.983 -1.4995 -2.0242 -0.9452
16181SOL    HW249243   4.876   3.567   3.975  1.6077  2.3953  0.8295
16182SOL     OW49244   0.283   4.563   7.412 -0.4504 -0.3674  0.1688
16182SOL    HW149245   0.219   4.520   7.468  0.1194 -2.0595 -0.4291
16182SOL    HW249246   0.348   4.600   7.472 -1.0027 -0.2472  0.6959
16183SOL     OW49247   2.254   0.198   1.430 -0.0223 -0.1463 -0.5592
16183SOL    HW149248   2.194   0.232   1.497 -1.4756  0.5190 -2.1428
16183SOL    HW249249   2.332   0.252   1.439 -0.3315  0.1654  0.3707
16184SOL     OW49250   3.029   1.345   0.368  0.7162  0.2292 -0.4429
16184SOL    HW149251   2.948   1.298   0.350 -1.3793  3.5029 -0.4633
16184SOL    HW249252   3.098   1.288   0.335 -1.7225 -1.7131 -2.6197
16185SOL     OW49253   0.216   6.196   2.934 -0.5292  0.1161 -0.7076
16185SOL    HW149254   0.292   6.253   2.931 -1.1671  0.9484 -2.8909
16185SOL    HW249255   0.141   6.254   2.918 -1.6368 -0.7292  1.0636
16186SOL     OW49256   3.117   3.346   2.049 -0.2499  0.5240  0.6130
16186SOL    HW149257   3.202   3.338   2.005 -0.2903  0.4365  0.5508
16186SOL    HW249258   3.095   3.440   2.041  0.5353  0.8343  1.9424
16187SOL     OW49259   7.494   4.443   1.598  0.3420  1.1518  0.7441
16187SOL    HW149260   7.464   4.472   1.512  0.9061  0.4444  0.2910
16187SOL    HW249261   7.452   4.358   1.611  0.5257  1.1008  1.0140
16188SOL     OW49262   4.292   0.360   7.655 -0.1856 -0.0714  0.5937
16188SOL    HW149263   4.212   0.315   7.682 -0.7410  0.6453  0.1953
16188SOL    HW249264   4.350   0.354   7.732 -0.4432 -0.9732  0.7320
16189SOL     OW49265   0.748   1.456   1.449 -0.3380 -0.2173  0.0624
16189SOL    HW149266   0.808   1.475   1.377  1.1727 -0.0690  1.3114
16189SOL    HW249267   0.670   1.508   1.429 -1.5979 -3.0219 -3.3970
16190SOL     OW49268   5.031   0.564   4.863 -0.2552 -0.1559  0.4450
16190SOL    HW149269   5.016   0.518   4.781 -0.4474 -0.1841  0.4959
16190SOL    HW249270   4.949   0.555   4.911 -1.0078  1.9375 -0.3577
16191SOL     OW49271   2.869   3.886   4.228  0.2057 -0.2709 -0.0472
16191SOL    HW149272   2.911   3.958   4.181  0.2093 -0.3788 -0.2109
16191SOL    HW249273   2.811   3.846   4.163 -0.5313  0.1871  0.3075
16192SOL     OW49274   4.161   0.125   7.790 -0.7006 -0.5787 -0.2321
16192SOL    HW149275   4.148   0.108   7.697  0.6595 -0.9003 -0.3716
16192SOL    HW249276   4.237   0.072   7.814 -0.2184  0.5239  0.7554
16193SOL     OW49277   0.507   6.081   0.853 -0.1860  0.5067  0.3086
16193SOL    HW149278   0.548   6.090   0.939  1.4757  0.6642 -0.4727
16193SOL    HW249279   0.540   5.998   0.819  0.8229  1.4027 -1.0093
16194SOL     OW49280   6.099   1.499   6.226 -0.1161 -0.4260  0.1271
16194SOL    HW149281   6.040   1.524   6.155  0.5617 -2.2423 -1.1462
16194SOL    HW249282   6.063   1.417   6.260 -1.9401  1.6042  3.7595
16195SOL     OW49283   4.289   6.572   0.467  0.4779 -0.5975  0.2969
16195SOL    HW149284   4.275   6.646   0.526  1.4396 -0.5418  0.4656
16195SOL    HW249285   4.334   6.507   0.521  0.0699 -1.1182  0.0151
16196SOL     OW49286   0.257   4.779   5.355 -0.2888 -0.0417 -0.0773
16196SOL    HW149287   0.191   4.848   5.360 -0.0662  0.1499  0.2915
16196SOL    HW249288   0.293   4.775   5.443 -0.2359 -0.5679 -0.1210
16197SOL     OW49289   0.697   7.644   5.261 -0.1801 -0.3057 -0.6078
16197SOL    HW149290   0.655   7.720   5.302  0.6243 -1.0402  1.7052
16197SOL    HW249291   0.777   7.680   5.222 -0.6370  0.3057 -1.0035
16198SOL     OW49292   2.677   5.216   0.702 -0.0527  0.0732  0.5200
16198SOL    HW149293   2.739   5.198   0.632  0.5410  0.1997  1.0115
16198SOL    HW249294   2.676   5.312   0.709  0.0836  0.0470  0.8658
16199SOL     OW49295   7.277   3.108   6.430  0.4434  0.6057 -0.0707
16199SOL    HW149296   7.191   3.100   6.388  1.4373 -0.5661 -1.9699
16199SOL    HW249297   7.292   3.202   6.435  0.0878  0.8091 -2.0164
16200SOL     OW49298   0.940   2.280   7.765  0.3640  0.1604  0.2411
16200SOL    HW149299   1.023   2.313   7.731  1.1028 -1.8074  0.0185
16200SOL    HW249300   0.963   2.236   7.846 -0.3538 -0.9302 -0.1311
16201SOL     OW49301   5.837   3.737   3.671  0.3967 -0.1388 -0.8477
16201SOL    HW149302   5.846   3.648   3.636  0.3518 -0.1881 -0.7312
16201SOL    HW249303   5.927   3.768   3.680  0.4057 -0.0141 -1.2969
16202SOL     OW49304   5.912   6.736   1.047 -0.0411  0.1847 -0.1881
16202SOL    HW149305   5.997   6.753   1.006  0.2595 -1.0236 -0.0832
16202SOL    HW249306   5.891   6.645   1.025 -1.6502  0.6558 -0.7972
16203SOL     OW49307   2.755   2.928   4.142 -0.2684  0.3260 -0.5615
16203SOL    HW149308   2.731   3.021   4.144  1.9128  0.9349 -0.2279
16203SOL    HW249309   2.733   2.899   4.054  0.5186  1.5974 -1.1982
16204SOL     OW49310   3.098   2.370   2.989 -0.0180  0.4235  0.2720
16204SOL    HW149311   3.048   2.420   2.925 -1.2951  1.0813  1.7213
16204SOL    HW249312   3.039   2.359   3.063  0.6550 -2.1882  0.5333
16205SOL     OW49313   0.722   1.171   0.083 -0.4363  0.0571 -0.0005
16205SOL    HW149314   0.809   1.164   0.046 -0.0672 -2.6144  1.1877
16205SOL    HW249315   0.693   1.081   0.097 -2.0231  0.8420  2.6939
16206SOL     OW49316   5.872   0.259   7.149  0.0720  0.1446  0.4407
16206SOL    HW149317   5.819   0.268   7.069 -1.1640 -0.3999  1.1745
16206SOL    HW249318   5.844   0.331   7.205 -0.8431 -0.8672  1.3360
16207SOL     OW49319   6.668   4.568   0.563  0.3661  0.4809 -0.3715
16207SOL    HW149320   6.720   4.519   0.626  0.0769  0.9482  0.2380
16207SOL    HW249321   6.732   4.620   0.514  0.3638  2.4298  1.5761
16208SOL     OW49322   5.649   3.579   6.863 -0.2399  0.1262  0.0176
16208SOL    HW149323   5.680   3.645   6.801  0.0261 -0.1406 -0.1324
16208SOL    HW249324   5.729   3.544   6.903 -0.3690 -0.2996 -0.1003
16209SOL     OW49325   3.454   0.261   2.344  0.0262  0.4235  0.0133
16209SOL    HW149326   3.521   0.194   2.333 -0.5905 -0.4669  1.3558
16209SOL    HW249327   3.488   0.338   2.299  1.3796 -0.3814 -0.3688
16210SOL     OW49328   7.239   6.826   5.693  0.3543 -0.5370  0.0187
16210SOL    HW149329   7.166   6.764   5.684 -0.1243  0.1122 -0.7199
16210SOL    HW249330   7.305   6.779   5.744 -1.0910 -0.6689  1.8316
16211SOL     OW49331   0.038   4.821   5.675 -0.6269  0.5899 -0.0337
16211SOL    HW149332   0.071   4.796   5.589 -0.3453  1.3479 -0.1611
16211SOL    HW249333  -0.052   4.789   5.678  0.1014 -1.5272  0.3120
16212SOL     OW49334   5.707   6.976   3.789 -0.6520 -0.4163 -0.1290
16212SOL    HW149335   5.677   7.013   3.872 -1.2522 -1.4516  0.1323
16212SOL    HW249336   5.801   6.991   3.789 -0.9378  1.7964 -0.4000
16213SOL     OW49337   3.545   4.209   7.078  0.4352  0.0468 -0.8279
16213SOL    HW149338   3.565   4.162   7.159 -1.0898  0.1318 -0.3547
16213SOL    HW249339   3.470   4.161   7.041 -0.4841  1.4500 -0.8721
16214SOL     OW49340   3.724   2.792   6.816  0.0538  0.3618 -0.0331
16214SOL    HW149341   3.719   2.753   6.903  1.2224  0.7944  0.2522
16214SOL    HW249342   3.636   2.826   6.800 -0.0052  0.8813  1.2772
16215SOL     OW49343   5.723   5.863   1.150  0.2144  0.3686 -0.5684
16215SOL    HW149344   5.702   5.916   1.074  0.1372  1.6100  0.2787
16215SOL    HW249345   5.640   5.855   1.198 -0.1046 -1.7139 -1.3493
16216SOL     OW49346   2.182   1.357   1.412  0.4412 -0.4305 -0.1230
16216SOL    HW149347   2.092   1.327   1.396 -1.1708  3.2044  1.1017
16216SOL    HW249348   2.199   1.334   1.503  0.6603 -0.8307 -0.2611
16217SOL     OW49349   0.736   3.776   3.576  0.0566 -0.6032  0.3335
16217SOL    HW149350   0.828   3.761   3.551  0.0546 -2.8320  1.4197
16217SOL    HW249351   0.690   3.699   3.545 -1.2179 -0.1193  0.9545
16218SOL     OW49352   4.357   7.900   4.114 -0.5109 -0.7733  0.4442
16218SOL    HW149353   4.378   7.833   4.179 -1.4401 -0.8188  0.7136
16218SOL    HW249354   4.365   7.856   4.030  0.4061 -0.7980  0.5391
16219SOL     OW49355   0.557   7.083   1.516 -0.2373  0.0751 -0.8071
16219SOL    HW149356   0.536   7.063   1.425  0.9184  1.8751 -1.5157
16219SOL    HW249357   0.623   7.018   1.540 -0.2627 -0.1688 -1.3770
16220SOL     OW49358   5.749   6.917   0.204 -0.4470 -0.5436  0.0828
16220SOL    HW149359   5.684   6.850   0.181 -0.1054 -1.4667  1.6442
16220SOL    HW249360   5.830   6.886   0.163 -0.7686  0.1534 -1.1312
16221SOL     OW49361   5.472   6.054   0.281  0.2071 -0.4123  0.4555
16221SOL    HW149362   5.404   6.118   0.262  0.0432 -0.0624  2.0155
16221SOL    HW249363   5.446   6.016   0.365 -0.0721 -3.0665 -0.7445
16222SOL     OW49364   7.563   0.936   4.281 -0.1424  0.0012  0.0987
16222SOL    HW149365   7.619   1.013   4.284 -0.0124 -0.1233  1.0902
16222SOL    HW249366   7.592   0.888   4.204 -0.9868  1.4986 -1.2214
16223SOL     OW49367   5.295   4.140   0.654  0.5963 -0.2853  0.4063
16223SOL    HW149368   5.375   4.092   0.632  1.4406  0.0156  2.6004
16223SOL    HW249369   5.325   4.226   0.683 -0.3644 -0.5937  2.4991
16224SOL     OW49370   4.098   7.227   5.759  0.1534 -0.1911  0.1508
16224SOL    HW149371   4.065   7.151   5.712  1.4791 -0.9499  0.4106
16224SOL    HW249372   4.189   7.205   5.781  0.8466  1.7971 -0.5063
16225SOL     OW49373   5.027   1.311   2.454  0.5746 -0.2175  0.2032
16225SOL    HW149374   4.934   1.306   2.477  0.3169  1.5268 -0.3010
16225SOL    HW249375   5.049   1.223   2.422 -1.7154  0.0829 -2.6195
16226SOL     OW49376   3.845   1.509   3.468  0.2522 -0.8199 -0.7563
16226SOL    HW149377   3.792   1.442   3.425 -1.8147 -0.2804  0.7702
16226SOL    HW249378   3.906   1.538   3.400 -0.7707 -2.1600 -2.3412
16227SOL     OW49379   6.541   1.519   7.061 -0.1210  0.0015 -0.2748
16227SOL    HW149380   6.539   1.545   7.153  1.5629  1.7502 -0.6812
16227SOL    HW249381   6.462   1.465   7.050 -1.5613  1.5718  1.6529
16228SOL     OW49382   1.249   7.762   3.641 -0.3327  0.3036  0.1466
16228SOL    HW149383   1.275   7.848   3.607  0.2070 -0.4656 -1.5278
16228SOL    HW249384   1.300   7.700   3.589  0.0782 -1.0217  2.0464
16229SOL     OW49385   1.309   7.122   4.611  0.2313 -0.4805 -0.5292
16229SOL    HW149386   1.391   7.167   4.632 -0.4385  0.5594 -0.0230
16229SOL    HW249387   1.265   7.114   4.696 -0.0341 -1.3647 -0.7437
16230SOL     OW49388   3.036   2.138   0.102  0.6711  0.0018 -0.9912
16230SOL    HW149389   3.111   2.155   0.158  0.1933 -0.9455 -0.0292
16230SOL    HW249390   3.068   2.076   0.036  1.3383  1.4156 -2.0513
16231SOL     OW49391   7.057   5.254   1.889 -0.0141 -0.0553  1.0312
16231SOL    HW149392   7.014   5.222   1.810  0.2083  1.3764  0.2937
16231SOL    HW249393   7.146   5.218   1.884  0.0087  0.0539  0.6082
16232SOL     OW49394   7.760   6.698   7.918 -0.3491 -0.5047  0.4798
16232SOL    HW149395   7.697   6.626   7.923 -1.6902  0.3588 -1.9215
16232SOL    HW249396   7.714   6.772   7.959 -0.5886 -0.0863 -0.5117
16233SOL     OW49397   2.404   1.097   0.169 -0.3637  0.4282  0.3990
16233SOL    HW149398   2.392   1.003   0.155 -0.6991  0.5951 -0.4686
16233SOL    HW249399   2.495   1.113   0.147  0.0217  0.1248  1.6537
16234SOL     OW49400   6.149   2.928   0.760 -0.4234 -0.3225 -0.1599
16234SOL    HW149401   6.110   2.860   0.815 -1.6741 -0.2807 -0.9537
16234SOL    HW249402   6.178   2.881   0.681  1.3687 -0.3864  0.4927
16235SOL     OW49403   5.827   7.112   6.646  0.4494 -0.0153 -0.7720
16235SOL    HW149404   5.880   7.123   6.725 -0.9741 -1.3951  0.4261
16235SOL    HW249405   5.742   7.083   6.678 -0.6275  0.7967 -2.7430
16236SOL     OW49406   0.070   6.513   5.661  0.2260  0.4775 -0.4354
16236SOL    HW149407   0.138   6.581   5.666 -0.2735  0.9166  0.8273
16236SOL    HW249408   0.013   6.531   5.736 -1.0752 -0.1129 -1.2516
16237SOL     OW49409   3.123   6.124   1.525 -0.4809  0.3222 -0.3051
16237SOL    HW149410   3.154   6.148   1.438  1.1632  0.7287  0.3464
16237SOL    HW249411   3.108   6.207   1.569  1.3356  0.2071  0.6439
16238SOL     OW49412   0.098   1.995   4.778 -0.4234 -0.6963 -0.3511
16238SOL    HW149413   0.004   1.994   4.760 -0.3004  0.8207 -1.2318
16238SOL    HW249414   0.138   1.960   4.699 -0.1701  0.5470 -0.7962
16239SOL     OW49415   5.988   5.031   0.391  0.2932  0.1466  0.1638
16239SOL    HW149416   6.042   5.109   0.405 -1.3728  1.2300  0.9298
16239SOL    HW249417   5.930   5.056   0.319 -0.4858 -0.2543  0.6425
16240SOL     OW49418   3.098   3.884   6.871 -0.1730  0.1252 -0.2636
16240SOL    HW149419   3.040   3.958   6.858 -0.2997 -0.3333 -2.8757
16240SOL    HW249420   3.169   3.897   6.808  0.9606 -0.8532  0.7584
16241SOL     OW49421   4.481   0.457   3.301  0.6306  0.0404 -0.4385
16241SOL    HW149422   4.523   0.422   3.222 -0.7568  0.6756 -1.5058
16241SOL    HW249423   4.429   0.531   3.270  0.0218  0.2851  1.0707
16242SOL     OW49424   5.820   0.461   5.902  0.5924  0.4957 -0.5871
16242SOL    HW149425   5.817   0.514   5.982 -1.3305 -0.7462  0.2437
16242SOL    HW249426   5.898   0.406   5.912  1.3551  1.5819 -0.4263
16243SOL     OW49427   6.656   1.649   6.817 -0.1429  0.1410 -0.5314
16243SOL    HW149428   6.747   1.626   6.840 -0.4906 -0.8588 -0.0868
16243SOL    HW249429   6.608   1.641   6.899 -1.1699 -2.1998 -1.2918
16244SOL     OW49430   7.518   4.497   2.706  0.5978  0.7364 -0.3348
16244SOL    HW149431   7.457   4.458   2.644 -0.1598  0.2182  0.6980
16244SOL    HW249432   7.485   4.586   2.720  0.1744  0.5204  0.0757
16245SOL     OW49433   1.356   3.318   0.316 -0.2868 -0.1916  0.2975
16245SOL    HW149434   1.269   3.298   0.282  0.3695  0.1678 -1.7151
16245SOL    HW249435   1.366   3.259   0.391 -2.0994 -0.5119  0.3376
16246SOL     OW49436   2.299   0.317   2.135  0.4410 -0.1816  0.4074
16246SOL    HW149437   2.287   0.408   2.109  0.6560  0.0185  0.9900
16246SOL    HW249438   2.310   0.270   2.053 -2.0383 -0.0640 -0.0815
16247SOL     OW49439   6.930   7.089   3.391 -0.4026 -0.1136 -0.3007
16247SOL    HW149440   6.898   7.173   3.357  0.8978  0.9984  1.0528
16247SOL    HW249441   6.882   7.023   3.341 -0.1934  1.3990 -2.6900
16248SOL     OW49442   7.558   0.416   1.534 -0.3957  0.3063  0.0986
16248SOL    HW149443   7.467   0.445   1.527 -0.4304  0.4148  0.9782
16248SOL    HW249444   7.581   0.428   1.626  0.2234 -0.5672  0.0750
16249SOL     OW49445   1.077   0.570   3.012  0.4464 -0.3522 -0.0025
16249SOL    HW149446   0.981   0.573   3.008  0.4163  0.0539  0.7640
16249SOL    HW249447   1.098   0.477   3.000 -0.1457 -0.6880  1.3314
16250SOL     OW49448   3.559   1.421   6.495  0.1827  0.0070  0.0555
16250SOL    HW149449   3.631   1.386   6.547  0.2917 -2.1034 -1.3753
16250SOL    HW249450   3.483   1.415   6.551  0.5069 -1.1147  0.4033
16251SOL     OW49451   1.460   7.425   5.414  0.1780 -0.4839 -0.0469
16251SOL    HW149452   1.467   7.507   5.461  1.9906 -0.5108 -0.1852
16251SOL    HW249453   1.440   7.360   5.481  0.7371 -0.2240  0.3771
16252SOL     OW49454   3.590   7.122   2.631  0.0233 -0.3013  0.3295
16252SOL    HW149455   3.499   7.117   2.603  0.2468 -1.5040 -0.2582
16252SOL    HW249456   3.586   7.116   2.727 -0.5863  1.2942  0.4361
16253SOL     OW49457   2.141   5.589   4.153  0.0564 -0.0402 -0.2015
16253SOL    HW149458   2.202   5.659   4.178 -0.2191  0.4381 -0.8426
16253SOL    HW249459   2.055   5.622   4.181  0.0846 -0.7561  0.7947
16254SOL     OW49460   5.612   1.326   5.537  0.1608  0.2720 -0.2491
16254SOL    HW149461   5.519   1.324   5.561  0.1539 -3.6651 -0.0100
16254SOL    HW249462   5.613   1.354   5.445 -1.1914  0.8347 -0.1122
16255SOL     OW49463   7.666   6.893   3.650 -0.3162  0.4655  0.1044
16255SOL    HW149464   7.699   6.845   3.727  1.3172  1.3004 -0.0237
16255SOL    HW249465   7.604   6.956   3.686  0.2573  0.6910  0.7267
16256SOL     OW49466   3.978   6.316   0.362  0.3219 -0.0844 -0.1302
16256SOL    HW149467   4.046   6.294   0.426  0.1534  1.0690  0.4586
16256SOL    HW249468   3.943   6.231   0.334 -0.4965 -0.6163  2.2700
16257SOL     OW49469   2.379   7.657   1.612  0.4439 -0.0000  0.2477
16257SOL    HW149470   2.359   7.750   1.623  3.5341  0.7045  0.7432
16257SOL    HW249471   2.367   7.619   1.699 -1.5929 -0.2927 -0.1203
16258SOL     OW49472   3.350   7.386   0.807 -0.1942  0.3302  0.1171
16258SOL    HW149473   3.385   7.360   0.892  0.3608  1.0227  0.1060
16258SOL    HW249474   3.263   7.346   0.804 -1.4170  2.5278  2.1903
16259SOL     OW49475   1.811   2.578   4.159  0.1646  0.0560 -0.2721
16259SOL    HW149476   1.747   2.523   4.113  0.6882  0.9049 -2.1236
16259SOL    HW249477   1.865   2.517   4.208 -0.8476 -0.8451 -0.2470
16260SOL     OW49478   7.721   4.677   6.314  0.0680  0.0518  0.0472
16260SOL    HW149479   7.701   4.639   6.228 -2.2965 -0.2836  0.6645
16260SOL    HW249480   7.755   4.604   6.365  0.4248 -0.0028 -0.2620
16261SOL     OW49481   6.445   1.205   3.700 -0.3672 -0.0939 -0.1722
16261SOL    HW149482   6.356   1.198   3.733 -0.3128  1.3627  0.3233
16261SOL    HW249483   6.459   1.299   3.686  1.1781 -0.2705  0.0184
16262SOL     OW49484   0.790   4.701   3.440 -0.3209  0.2985 -0.2760
16262SOL    HW149485   0.812   4.729   3.351 -0.0411  2.7966  0.4842
16262SOL    HW249486   0.875   4.684   3.481 -0.4394 -0.6858 -0.4279
16263SOL     OW49487   0.384   7.306   6.544  0.0857 -0.3719 -0.4865
16263SOL    HW149488   0.471   7.333   6.574 -1.0392  3.7203 -0.3253
16263SOL    HW249489   0.366   7.362   6.469 -2.5493 -0.8837 -0.3230
16264SOL     OW49490   4.046   3.575   5.001  0.2456  0.2177 -0.0067
16264SOL    HW149491   3.965   3.549   4.958  0.7751 -0.2167 -0.7772
16264SOL    HW249492   4.038   3.669   5.013 -0.0482  0.2989 -0.7872
16265SOL     OW49493   6.169   7.122   6.659 -0.4677  0.0504  0.7062
16265SOL    HW149494   6.140   7.060   6.726 -3.2127  1.0864  0.6062
16265SOL    HW249495   6.164   7.072   6.577 -0.6003 -0.2027  0.8662
16266SOL     OW49496   1.970   2.853   2.409 -0.1443 -0.0113 -0.3834
16266SOL    HW149497   1.989   2.875   2.501 -0.2855  0.9383 -0.5636
16266SOL    HW249498   1.887   2.808   2.412 -0.0327 -0.1990 -0.0166
16267SOL     OW49499   3.013   5.037   0.747 -0.0769 -0.4667  0.3781
16267SOL    HW149500   2.991   5.069   0.660 -0.0337 -0.8736  0.2190
16267SOL    HW249501   2.939   4.982   0.773 -0.0328 -0.4482  0.5475
16268SOL     OW49502   4.861   2.680   3.989  0.5036 -0.5054 -0.0017
16268SOL    HW149503   4.892   2.770   4.005 -0.5444 -0.0848 -0.2505
16268SOL    HW249504   4.768   2.683   4.010  0.5237 -1.6324  0.3234
16269SOL     OW49505   3.969   3.424   6.281 -0.6399 -0.6225 -0.1890
16269SOL    HW149506   4.039   3.378   6.328 -0.6698 -0.7517 -0.2685
16269SOL    HW249507   3.914   3.353   6.246 -0.3411 -0.5313 -0.8370
16270SOL     OW49508   4.018   6.644   2.444 -0.2023  0.6930 -0.7430
16270SOL    HW149509   4.046   6.705   2.375 -0.2578  1.6983  0.0937
16270SOL    HW249510   3.934   6.611   2.413 -1.0873  2.4829 -0.3843
16271SOL     OW49511   0.858   3.153   1.921 -0.4300 -0.0517 -0.1490
16271SOL    HW149512   0.895   3.066   1.905  1.0712  0.4559  0.3861
16271SOL    HW249513   0.835   3.153   2.014 -1.4121 -0.2120 -0.3793
16272SOL     OW49514   4.260   3.713   1.339  0.1702  0.2854  0.8396
16272SOL    HW149515   4.191   3.694   1.403  0.7042  0.0051  1.3492
16272SOL    HW249516   4.247   3.648   1.269 -1.1449  1.3474  0.0654
16273SOL     OW49517   0.894   5.490   1.416 -1.1847  0.5618 -0.0444
16273SOL    HW149518   0.953   5.484   1.341  1.2639 -0.3780  1.8316
16273SOL    HW249519   0.810   5.515   1.378 -0.2002 -0.3810 -3.1389
16274SOL     OW49520   2.038   7.781   1.376 -0.3234 -0.0492  0.2268
16274SOL    HW149521   2.067   7.850   1.317 -0.3352 -0.2288  0.0111
16274SOL    HW249522   2.066   7.700   1.334 -0.8903 -0.2128  0.1496
16275SOL     OW49523   5.648   7.537   2.613  0.1716  0.7142 -0.0708
16275SOL    HW149524   5.626   7.567   2.524 -0.1075 -0.4501 -0.4150
16275SOL    HW249525   5.743   7.535   2.615  0.1837  1.0213 -0.2451
16276SOL     OW49526   7.118   0.500   1.818 -0.2751  0.2522  0.2302
16276SOL    HW149527   7.062   0.577   1.806 -0.1320  0.1403 -1.4636
16276SOL    HW249528   7.204   0.537   1.841 -0.2663  0.6046 -0.3365
16277SOL     OW49529   0.249   5.180   5.502  0.0480 -0.3086 -0.5061
16277SOL    HW149530   0.341   5.184   5.527 -0.0298  1.7939 -0.3726
16277SOL    HW249531   0.205   5.140   5.576  0.2820  2.7704  1.4598
16278SOL     OW49532   5.446   0.421   3.144 -0.2236 -0.0233 -0.6043
16278SOL    HW149533   5.493   0.340   3.128  1.2817 -0.0785  3.1098
16278SOL    HW249534   5.414   0.414   3.234 -0.0556  3.4304 -0.1058
16279SOL     OW49535   7.150   7.714   6.277 -0.2373  0.1351  0.2871
16279SOL    HW149536   7.228   7.659   6.278  0.2687  0.8073 -0.6058
16279SOL    HW249537   7.181   7.799   6.246 -1.0235  0.9064  1.5264
16280SOL     OW49538   1.473   7.245   7.269  0.8489  0.1181 -0.3448
16280SOL    HW149539   1.436   7.325   7.306  1.6266  0.1327  0.4551
16280SOL    HW249540   1.548   7.276   7.217  2.2492 -0.1670  1.3924
16281SOL     OW49541   2.352   7.216   6.637  0.1006  0.1143  0.0535
16281SOL    HW149542   2.382   7.305   6.622  0.3088  0.0643  0.1757
16281SOL    HW249543   2.264   7.214   6.600  1.2836 -0.5527 -3.0341
16282SOL     OW49544   1.373   0.259   7.490  0.1710 -0.7896  0.6071
16282SOL    HW149545   1.349   0.350   7.505  1.5688 -0.4002  0.6069
16282SOL    HW249546   1.379   0.252   7.394  1.1990 -0.5676  0.6521
16283SOL     OW49547   2.170   7.463   1.605  0.5038 -0.0420  0.1519
16283SOL    HW149548   2.132   7.446   1.518  0.4975 -1.1718  0.3561
16283SOL    HW249549   2.231   7.535   1.590 -0.1765  0.3962 -0.6024
16284SOL     OW49550   0.187   1.053   6.666  0.1220 -0.0055  0.4695
16284SOL    HW149551   0.128   1.019   6.599 -1.9264  1.3351  1.5022
16284SOL    HW249552   0.223   0.976   6.709  0.5282 -0.8654 -1.3354
16285SOL     OW49553   5.395   3.559   5.785  1.0619  1.0915  0.5331
16285SOL    HW149554   5.429   3.558   5.696 -0.0876 -0.4010  0.0844
16285SOL    HW249555   5.390   3.652   5.808 -0.6282  1.6560 -1.7703
16286SOL     OW49556   6.911   7.763   3.455  0.2530  0.6773 -0.2349
16286SOL    HW149557   6.943   7.820   3.525 -0.3436 -0.2424  0.8180
16286SOL    HW249558   6.866   7.692   3.500  2.1200 -1.3940 -1.4141
16287SOL     OW49559   7.689   0.357   6.357  0.2159 -0.6088 -0.0115
16287SOL    HW149560   7.654   0.354   6.446  0.0602 -1.0949 -0.0871
16287SOL    HW249561   7.634   0.421   6.312  0.9396  0.4028  0.5113
16288SOL     OW49562   7.785   2.673   1.773  0.2772  0.0854 -1.0043
16288SOL    HW149563   7.764   2.581   1.788 -2.1090  0.5460 -1.1441
16288SOL    HW249564   7.863   2.689   1.827 -0.6046 -1.4428  0.8285
16289SOL     OW49565   1.956   7.337   1.285 -0.0205  0.2108  0.1317
16289SOL    HW149566   1.997   7.284   1.353 -2.4910  0.0240  1.5807
16289SOL    HW249567   1.961   7.283   1.206 -1.1254 -1.5796  1.2289
16290SOL     OW49568   7.809   0.002   5.980 -0.0553  0.0122  0.0398
16290SOL    HW149569   7.821   0.077   6.038 -0.9069 -0.8469  1.3803
16290SOL    HW249570   7.875  -0.061   6.008 -1.6933 -1.1686  1.4378
16291SOL     OW49571   1.740   4.453   0.558  0.1917 -0.2662  0.2609
16291SOL    HW149572   1.750   4.543   0.589 -0.6335  0.2564 -0.9355
16291SOL    HW249573   1.823   4.434   0.514 -0.0126  0.2827 -0.3766
16292SOL     OW49574   2.932   0.058   2.294  0.3406  0.2187  0.3578
16292SOL    HW149575   2.844   0.095   2.297 -0.5985 -1.6944 -1.2803
16292SOL    HW249576   2.989   0.133   2.274 -1.0255  1.3338  0.4965
16293SOL     OW49577   3.496   7.386   7.538 -0.4256  0.3981 -0.4484
16293SOL    HW149578   3.524   7.465   7.585  2.4429  0.1152 -1.4845
16293SOL    HW249579   3.515   7.405   7.446 -0.4297 -1.2105 -0.8083
16294SOL     OW49580   0.037   5.268   0.374 -0.8170 -0.5252  0.3324
16294SOL    HW149581   0.023   5.353   0.416 -0.3180 -0.5063  0.4607
16294SOL    HW249582   0.070   5.290   0.287  2.7733 -0.5710  1.5254
16295SOL     OW49583   5.322   6.476   6.872 -0.0884 -0.0893  0.1094
16295SOL    HW149584   5.249   6.538   6.877  1.3851  1.8432 -0.8790
16295SOL    HW249585   5.345   6.458   6.963 -2.1589 -1.2863  0.4633
16296SOL     OW49586   5.723   7.716   6.662  0.5974 -0.2198  0.2587
16296SOL    HW149587   5.737   7.621   6.657  1.7641 -0.1248  1.2560
16296SOL    HW249588   5.785   7.746   6.728  0.0560  1.2145  0.1541
16297SOL     OW49589   6.144   3.219   0.970  0.3561 -0.0166 -0.0113
16297SOL    HW149590   6.230   3.210   1.011  0.7313 -1.5332 -1.0453
16297SOL    HW249591   6.085   3.169   1.027  0.5040 -0.4360 -0.2168
16298SOL     OW49592   3.277   7.427   1.519 -0.2638  0.2926  0.0030
16298SOL    HW149593   3.296   7.487   1.448  1.0355 -0.5840 -0.4189
16298SOL    HW249594   3.289   7.479   1.599 -2.3771  1.4577 -0.3861
16299SOL     OW49595   7.781   1.472   6.867  0.1308 -0.2273 -0.1359
16299SOL    HW149596   7.768   1.450   6.775 -0.9778  0.5603 -0.1816
16299SOL    HW249597   7.700   1.446   6.910 -0.9035  2.8139 -0.0456
16300SOL     OW49598   7.548   5.456   5.179  0.0889  0.3996  0.3456
16300SOL    HW149599   7.576   5.449   5.270  0.4048 -0.0532  0.2222
16300SOL    HW249600   7.524   5.366   5.154 -0.2093  0.5579  0.0507
16301SOL     OW49601   6.800   3.985   5.933  0.0727 -0.2306  0.5752
16301SOL    HW149602   6.866   4.053   5.919 -0.2375  0.3288  1.6412
16301SOL    HW249603   6.807   3.965   6.027 -0.3114 -1.1811  0.4113
16302SOL     OW49604   1.039   2.033   7.919 -0.0556  0.1288 -0.6948
16302SOL    HW149605   0.951   2.020   7.954 -0.4063  1.0996 -1.1870
16302SOL    HW249606   1.078   1.946   7.920 -0.7773 -0.2018  0.1698
16303SOL     OW49607   1.707   3.340   6.272  0.0329 -0.1765 -0.3083
16303SOL    HW149608   1.666   3.351   6.357  0.6979 -0.5286  0.0663
16303SOL    HW249609   1.670   3.410   6.218 -0.9333 -0.3917  0.0484
16304SOL     OW49610   0.767   1.408   1.711  0.2142  0.1948 -0.0233
16304SOL    HW149611   0.855   1.435   1.740  0.5011 -0.1816 -0.5234
16304SOL    HW249612   0.758   1.447   1.624 -1.0470  2.1709  0.9110
16305SOL     OW49613   0.892   4.614   3.791  0.6326  0.4221 -0.1238
16305SOL    HW149614   0.881   4.706   3.813  0.4536  0.1320  1.0631
16305SOL    HW249615   0.980   4.608   3.755 -0.5580  1.6585 -3.6869
16306SOL     OW49616   4.135   1.620   3.492 -0.3968 -0.1605 -0.2476
16306SOL    HW149617   4.109   1.712   3.496  2.8576  0.9589 -1.0343
16306SOL    HW249618   4.097   1.588   3.410 -0.6595  0.8221 -0.5221
16307SOL     OW49619   3.169   3.252   4.522  0.2232  0.6880 -0.3613
16307SOL    HW149620   3.102   3.320   4.531  0.0996  0.4991  0.2300
16307SOL    HW249621   3.181   3.242   4.428  0.3039  1.5861 -0.4505
16308SOL     OW49622   5.920   3.243   0.034  0.6294 -0.1209  0.3811
16308SOL    HW149623   5.882   3.331   0.027  0.7183 -0.1275 -0.2250
16308SOL    HW249624   5.847   3.183   0.019  0.8350 -0.1338 -0.6836
16309SOL     OW49625   5.725   4.516   2.901  0.3617  0.2128  0.0402
16309SOL    HW149626   5.743   4.535   2.993  2.5708 -0.5753 -0.1729
16309SOL    HW249627   5.708   4.422   2.900  0.8157  0.1363 -0.4217
16310SOL     OW49628   7.681   0.822   6.894  1.0310  0.3925 -0.1062
16310SOL    HW149629   7.711   0.851   6.808  2.5413  0.2756  0.3561
16310SOL    HW249630   7.735   0.870   6.957 -0.2599  0.7117  0.8107
16311SOL     OW49631   2.497   6.036   7.788 -0.0067  0.1954 -0.1648
16311SOL    HW149632   2.426   5.986   7.747  0.3482  0.0036 -0.5521
16311SOL    HW249633   2.562   6.047   7.718 -0.3200  1.6931 -0.2637
16312SOL     OW49634   1.687   4.371   5.944  0.2032  0.4519 -0.2615
16312SOL    HW149635   1.783   4.366   5.949  0.1165 -0.0418  1.8706
16312SOL    HW249636   1.658   4.354   6.033 -1.7985  2.8613 -0.3602
16313SOL     OW49637   2.490   0.959   5.343  0.0914 -0.3688  0.4764
16313SOL    HW149638   2.482   0.897   5.415  3.1616 -0.1307  1.1653
16313SOL    HW249639   2.463   1.043   5.381  0.1072 -0.5305  0.8481
16314SOL     OW49640   3.418   4.158   0.573  0.3104 -0.4001  0.3021
16314SOL    HW149641   3.424   4.251   0.595 -0.0603  0.2553 -2.1055
16314SOL    HW249642   3.507   4.125   0.582  0.1442 -0.3004  2.9189
16315SOL     OW49643   5.120   7.405   2.524  0.1367 -0.0303 -0.1755
16315SOL    HW149644   5.053   7.338   2.510 -1.9299  1.6713  0.9476
16315SOL    HW249645   5.165   7.377   2.604 -0.5358 -0.2467  0.1387
16316SOL     OW49646   1.174   0.352   5.759 -0.0497  0.2697 -0.7119
16316SOL    HW149647   1.183   0.263   5.792 -2.5639  0.2298  0.0514
16316SOL    HW249648   1.118   0.343   5.681  0.7052  1.0560 -1.3654
16317SOL     OW49649   4.244   5.340   7.446  0.5903  0.1772 -0.6899
16317SOL    HW149650   4.149   5.341   7.436  0.4063  1.6876  0.7174
16317SOL    HW249651   4.259   5.320   7.538  1.6723 -0.5832 -1.0044
16318SOL     OW49652   0.739   0.820   1.671 -0.3151 -0.1170  0.7639
16318SOL    HW149653   0.652   0.846   1.639  0.3979  0.4764 -0.8291
16318SOL    HW249654   0.739   0.844   1.763 -2.0400 -0.6716  0.9481
16319SOL     OW49655   4.942   0.905   2.483 -0.0734  0.0959  0.4226
16319SOL    HW149656   4.867   0.943   2.437 -0.0968  0.0940  0.4586
16319SOL    HW249657   5.011   0.971   2.474 -0.5567  0.8271  1.7515
16320SOL     OW49658   6.453   6.334   0.812  0.2514  0.1726  0.4888
16320SOL    HW149659   6.387   6.355   0.745  0.7931  1.6150  0.3730
16320SOL    HW249660   6.534   6.326   0.762  0.5195  0.4518  0.8869
16321SOL     OW49661   6.421   2.426   6.298  0.0439 -0.1109  0.3340
16321SOL    HW149662   6.446   2.438   6.389 -0.4306 -0.3497  0.4953
16321SOL    HW249663   6.502   2.443   6.249 -0.0677  1.5741  0.6831
16322SOL     OW49664   7.366   6.997   2.683  0.4235  0.8164 -0.6177
16322SOL    HW149665   7.297   6.937   2.710  1.9154  0.2965  2.4651
16322SOL    HW249666   7.320   7.076   2.655 -1.4475  0.6045  1.6208
16323SOL     OW49667   3.223   2.116   5.070 -0.2793  0.6382 -0.0025
16323SOL    HW149668   3.161   2.066   5.017 -0.0799 -1.2593  1.4483
16323SOL    HW249669   3.297   2.133   5.012 -0.1310 -1.2373 -0.4090
16324SOL     OW49670   2.037   6.280   0.722 -0.0324 -0.0080 -0.2049
16324SOL    HW149671   1.959   6.332   0.703  0.3091  0.9807  1.0280
16324SOL    HW249672   2.005   6.190   0.725 -0.3516 -0.1688 -3.9946
16325SOL     OW49673   1.047   1.640   6.348 -0.8761 -0.4588 -0.2481
16325SOL    HW149674   1.064   1.734   6.351 -0.0184 -0.5977 -0.4462
16325SOL    HW249675   1.010   1.625   6.261  0.3644 -0.4988 -0.8044
16326SOL     OW49676   4.677   5.973   4.969 -0.0366 -0.1416  0.5390
16326SOL    HW149677   4.691   6.012   4.883 -0.1329 -0.4557  0.3768
16326SOL    HW249678   4.680   5.878   4.952 -1.1712 -0.2184  0.6935
16327SOL     OW49679   3.014   6.080   2.277  0.2222  0.1203 -0.2326
16327SOL    HW149680   3.084   6.068   2.213  0.3268 -0.6712  0.0237
16327SOL    HW249681   2.983   6.170   2.261  1.3223  0.5099 -0.3119
16328SOL     OW49682   4.449   7.788   5.241 -0.6444 -0.1853  0.3774
16328SOL    HW149683   4.446   7.699   5.276 -0.5284 -0.6642 -0.7844
16328SOL    HW249684   4.449   7.776   5.146 -2.1240  1.0915  0.1696
16329SOL     OW49685   4.487   4.721   5.831  0.3936 -0.1286 -0.0166
16329SOL    HW149686   4.451   4.644   5.876 -1.2065 -0.2803 -1.4365
16329SOL    HW249687   4.565   4.688   5.786  2.1250  0.0615  2.6181
16330SOL     OW49688   0.898   3.127   3.826 -0.5232 -0.3810 -0.3325
16330SOL    HW149689   0.901   3.193   3.757 -0.5778  0.2253  0.2318
16330SOL    HW249690   0.953   3.056   3.794 -0.0973  0.1320 -0.7564
16331SOL     OW49691   7.869   6.675   7.137  0.5448 -0.3135 -0.2038
16331SOL    HW149692   7.872   6.632   7.223  0.1954  0.8388  0.4058
16331SOL    HW249693   7.870   6.603   7.074  1.5409 -1.1587  0.7492
16332SOL     OW49694   6.652   4.382   2.175 -0.1223  0.0424 -0.0699
16332SOL    HW149695   6.606   4.417   2.250 -1.0853 -0.3325 -0.4631
16332SOL    HW249696   6.638   4.447   2.106 -0.1564 -0.1187 -0.2162
16333SOL     OW49697   3.286   4.219   4.410  0.9383  0.7386  0.0159
16333SOL    HW149698   3.312   4.130   4.387 -0.8701  0.4596 -1.0696
16333SOL    HW249699   3.244   4.254   4.332 -0.0964  1.8661  1.0215
16334SOL     OW49700   1.725   7.154   3.905  0.5861  0.7143 -0.2786
16334SOL    HW149701   1.817   7.157   3.877  1.1006  1.2945  1.3418
16334SOL    HW249702   1.726   7.097   3.982 -0.5214  0.2662 -0.5817
16335SOL     OW49703   0.580   0.755   7.530 -0.4473  0.4881 -0.5305
16335SOL    HW149704   0.641   0.755   7.603  1.6448 -1.2709 -2.1258
16335SOL    HW249705   0.577   0.663   7.501 -1.9179  0.9662 -2.0677
16336SOL     OW49706   2.774   4.875   5.389 -0.5091  0.2209  0.5384
16336SOL    HW149707   2.813   4.840   5.309  0.3210 -0.0659  1.0525
16336SOL    HW249708   2.680   4.863   5.377 -0.3080 -1.2646  0.2701
16337SOL     OW49709   0.298   0.780   5.229 -0.3373  0.0040  0.7353
16337SOL    HW149710   0.245   0.725   5.287  1.8257 -0.6604  2.2517
16337SOL    HW249711   0.326   0.853   5.285  0.6210  0.1293  0.1201
16338SOL     OW49712   3.433   5.299   3.911 -0.4410  0.0426  0.0471
16338SOL    HW149713   3.454   5.205   3.906 -1.5353 -0.2408  0.4383
16338SOL    HW249714   3.433   5.318   4.005  0.7274  0.6773 -0.0704
16339SOL     OW49715   4.353   4.452   1.733 -0.3252 -0.2087  0.1547
16339SOL    HW149716   4.393   4.500   1.805  1.1270 -1.0737 -0.0423
16339SOL    HW249717   4.400   4.481   1.655 -0.6529 -0.6239 -0.2061
16340SOL     OW49718   1.111   4.156   6.323  0.7408  0.1843  0.3300
16340SOL    HW149719   1.175   4.173   6.254 -0.3871  2.7213 -0.2062
16340SOL    HW249720   1.158   4.174   6.404  1.2524  0.0881  0.0585
16341SOL     OW49721   3.696   6.194   4.888 -0.1027 -0.3157 -0.4926
16341SOL    HW149722   3.642   6.270   4.866  0.5898 -0.4086 -2.7616
16341SOL    HW249723   3.701   6.144   4.806  0.5171 -2.1552  0.6123
16342SOL     OW49724   0.433   2.736   5.780  0.6302 -0.2049  0.4026
16342SOL    HW149725   0.441   2.693   5.865  0.8928 -1.0606 -0.0428
16342SOL    HW249726   0.428   2.664   5.718 -1.2871  0.3777 -0.1741
16343SOL     OW49727   0.530   2.338   1.314 -0.4205  0.4695 -0.1474
16343SOL    HW149728   0.501   2.325   1.404 -2.2677 -1.5725 -0.9550
16343SOL    HW249729   0.471   2.284   1.261  0.5471  1.6428 -2.6109
16344SOL     OW49730   6.761   1.667   2.881 -0.4062 -0.4444 -0.3662
16344SOL    HW149731   6.683   1.704   2.838  0.5912  1.2260 -0.8363
16344SOL    HW249732   6.749   1.689   2.974  0.0406  0.9035 -0.6010
16345SOL     OW49733   6.360   6.634   3.868  0.1463  0.0499  0.1250
16345SOL    HW149734   6.429   6.640   3.803  0.4283  0.2081  0.4380
16345SOL    HW249735   6.283   6.604   3.819  1.1343 -3.0855  0.2283
16346SOL     OW49736   3.877   3.798   5.120  0.1738 -0.2020  0.4557
16346SOL    HW149737   3.816   3.754   5.060  0.7718  1.1217 -1.2075
16346SOL    HW249738   3.836   3.790   5.206 -2.5088  0.8568 -0.6100
16347SOL     OW49739   7.792   3.759   7.333  0.0491  0.2697  0.6837
16347SOL    HW149740   7.872   3.711   7.311  0.4997  1.1805  0.3010
16347SOL    HW249741   7.722   3.712   7.287  0.1627 -1.2354  1.9498
16348SOL     OW49742   1.889   4.699   6.029 -0.0841  0.5665 -0.5002
16348SOL    HW149743   1.881   4.755   5.952 -0.6242  0.0047 -0.8587
16348SOL    HW249744   1.849   4.750   6.100 -0.1925  0.8056 -0.7337
16349SOL     OW49745   2.941   3.199   2.190  0.6740 -0.1629  0.1640
16349SOL    HW149746   2.945   3.131   2.123 -0.1887  0.4398 -0.5364
16349SOL    HW249747   2.994   3.271   2.155  1.5018 -0.4274  0.8528
16350SOL     OW49748   3.370   5.505   0.734  0.1149  0.1247 -0.3534
16350SOL    HW149749   3.421   5.429   0.708 -0.3417 -1.4528  2.7938
16350SOL    HW249750   3.282   5.488   0.700  0.6362  0.6877 -2.0493
16351SOL     OW49751   6.173   3.251   7.076 -0.0213  0.5496 -0.2241
16351SOL    HW149752   6.231   3.284   7.008  3.4313 -1.3504  1.5256
16351SOL    HW249753   6.191   3.306   7.152  1.5150 -1.5588  1.0484
16352SOL     OW49754   2.493   3.706   0.504 -0.7828 -0.3026  0.4298
16352SOL    HW149755   2.525   3.796   0.508  1.7933 -1.0573 -1.2023
16352SOL    HW249756   2.500   3.674   0.594 -0.8829  0.8305  0.8580
16353SOL     OW49757   1.370   2.819   5.121  0.0292  0.5874 -0.5367
16353SOL    HW149758   1.289   2.784   5.158  0.1559  0.8480  0.0053
16353SOL    HW249759   1.342   2.887   5.060 -0.1585  1.1513  0.1495
16354SOL     OW49760   7.390   6.437   2.298 -0.1315 -0.5798  0.5495
16354SOL    HW149761   7.373   6.492   2.222 -2.5599 -0.6686  0.9758
16354SOL    HW249762   7.456   6.485   2.348 -0.3250  0.6804 -0.3718
16355SOL     OW49763   6.440   7.133   6.137 -0.0319 -0.0299 -0.1171
16355SOL    HW149764   6.365   7.163   6.189  0.4204  1.5925 -0.3341
16355SOL    HW249765   6.419   7.043   6.114 -1.3772  0.0224  0.8060
16356SOL     OW49766   3.058   5.244   0.326  0.1003  0.5551 -0.0313
16356SOL    HW149767   3.006   5.193   0.387  0.5848  1.0730  0.8337
16356SOL    HW249768   3.122   5.182   0.292 -0.9313 -0.0316 -0.9496
16357SOL     OW49769   4.409   1.755   3.484  0.2152  0.6119 -0.6942
16357SOL    HW149770   4.352   1.787   3.554  0.5998 -0.4391  0.1335
16357SOL    HW249771   4.495   1.792   3.505  0.5977 -0.6480  0.1036
16358SOL     OW49772   2.755   7.208   7.480  0.5065 -0.4527 -0.6097
16358SOL    HW149773   2.715   7.292   7.501 -0.6132 -1.0398 -0.3712
16358SOL    HW249774   2.847   7.230   7.461  1.0347  0.4200  2.4965
16359SOL     OW49775   0.178   1.282   5.705 -0.2107 -0.3606  1.1392
16359SOL    HW149776   0.139   1.231   5.635  1.0098 -0.3249  0.4077
16359SOL    HW249777   0.240   1.340   5.661 -1.0533  1.2902  2.0093
16360SOL     OW49778   4.181   2.595   3.890 -0.6529  0.3063 -0.4817
16360SOL    HW149779   4.086   2.582   3.889 -0.6999  0.6598 -0.8910
16360SOL    HW249780   4.210   2.553   3.971 -0.7640 -2.5425 -1.8063
16361SOL     OW49781   2.580   5.139   6.871  0.6884  0.2987  0.2143
16361SOL    HW149782   2.548   5.049   6.883  1.3361  0.0362  0.0419
16361SOL    HW249783   2.671   5.136   6.901  0.5053  1.0735  0.8813
16362SOL     OW49784   4.557   7.544   2.478 -0.4819 -0.1925  0.7309
16362SOL    HW149785   4.534   7.589   2.397  1.0496  0.3370  0.5633
16362SOL    HW249786   4.514   7.458   2.471  0.0813 -0.3748 -0.8965
16363SOL     OW49787   2.586   1.503   1.612 -0.0500  0.3234  0.3904
16363SOL    HW149788   2.633   1.489   1.694 -1.2565 -0.1389  1.0316
16363SOL    HW249789   2.592   1.597   1.595  0.7143  0.3278  0.6942
16364SOL     OW49790   3.522   5.506   3.766  0.0144  0.3014  0.4560
16364SOL    HW149791   3.492   5.421   3.800 -1.2936  0.4360 -0.2645
16364SOL    HW249792   3.594   5.531   3.823 -0.5003 -0.6291  1.5587
16365SOL     OW49793   0.660   4.097   3.189 -0.4702 -0.3866 -0.8151
16365SOL    HW149794   0.695   4.091   3.278 -0.9027  0.9307 -0.5368
16365SOL    HW249795   0.686   4.014   3.148 -1.2405 -1.5178  0.8727
16366SOL     OW49796   2.371   4.011   1.314  0.0755  0.7050  0.5424
16366SOL    HW149797   2.419   3.934   1.345 -1.3898 -0.3755  0.2310
16366SOL    HW249798   2.289   3.976   1.279 -0.2817  2.3402 -0.3632
16367SOL     OW49799   7.698   7.730   0.355 -0.3514 -0.2196 -0.3605
16367SOL    HW149800   7.718   7.753   0.264 -1.6392 -1.0291 -0.8760
16367SOL    HW249801   7.603   7.724   0.358 -0.2636 -1.6402  0.6742
16368SOL     OW49802   2.543   5.184   6.609  0.1606 -0.2517 -0.1803
16368SOL    HW149803   2.559   5.179   6.703  1.0048  1.0627 -0.2303
16368SOL    HW249804   2.563   5.096   6.577 -0.8565 -0.9319  0.9479
16369SOL     OW49805   5.146   5.525   4.104  0.1991 -0.5559  0.1991
16369SOL    HW149806   5.160   5.576   4.184 -1.0844  0.9635 -0.4829
16369SOL    HW249807   5.084   5.577   4.053 -0.1637 -2.1982 -1.1439
16370SOL     OW49808   7.752   1.807   0.753 -0.3376  0.1903 -0.4743
16370SOL    HW149809   7.813   1.832   0.822 -0.7898  0.8614 -0.3084
16370SOL    HW249810   7.750   1.712   0.756  0.9390  0.1456 -0.6888
16371SOL     OW49811   0.598   6.040   5.411  0.6189  0.2038  0.1688
16371SOL    HW149812   0.565   6.127   5.389 -1.5967 -0.8181 -0.9003
16371SOL    HW249813   0.691   6.053   5.426  0.3941  2.7165 -0.1641
16372SOL     OW49814   2.035   4.295   2.688  0.1172 -0.4836  0.0153
16372SOL    HW149815   2.002   4.208   2.665  3.8727 -1.8513 -0.8347
16372SOL    HW249816   2.014   4.305   2.781  0.1481 -2.6093  0.2878
16373SOL     OW49817   2.343   5.064   3.652 -0.2473 -0.2615 -0.0624
16373SOL    HW149818   2.306   5.140   3.606 -2.8322 -1.5543 -0.3022
16373SOL    HW249819   2.344   5.090   3.744  4.3525  2.1022 -0.5113
16374SOL     OW49820   7.613   5.636   0.350 -0.3480 -0.1594  0.6723
16374SOL    HW149821   7.591   5.722   0.313  1.1646 -0.1394 -0.2230
16374SOL    HW249822   7.528   5.595   0.366 -1.0769  0.5853 -1.0581
16375SOL     OW49823   5.013   7.919   2.156 -0.8324  0.2526 -0.2713
16375SOL    HW149824   5.067   7.841   2.165  0.1490  0.9165 -0.1768
16375SOL    HW249825   5.071   7.991   2.181 -1.9610  0.9414  0.4715
16376SOL     OW49826   3.014   0.326   2.643 -0.5380  0.0968 -0.0045
16376SOL    HW149827   3.009   0.363   2.731  0.2669  1.3686 -0.4672
16376SOL    HW249828   3.090   0.368   2.604 -0.5983 -0.8179 -1.1522
16377SOL     OW49829   5.101   1.270   1.253 -0.0212 -0.8564  0.0622
16377SOL    HW149830   5.166   1.201   1.241 -0.3550 -1.3599  1.0468
16377SOL    HW249831   5.147   1.337   1.305  0.3020 -0.3226 -0.8903
16378SOL     OW49832   4.604   0.063   5.233  0.0089 -0.7526 -0.1988
16378SOL    HW149833   4.609  -0.030   5.215 -1.4702 -0.9899  0.5294
16378SOL    HW249834   4.511   0.082   5.243  0.3191  0.6778  0.3185
16379SOL     OW49835   7.802   4.329   0.749 -0.1911  0.1687  0.0469
16379SOL    HW149836   7.879   4.355   0.699  0.1870 -2.9883 -1.2499
16379SOL    HW249837   7.802   4.386   0.825  2.3476  1.5048 -0.8535
16380SOL     OW49838   0.174   4.416   7.698 -0.2960 -0.3359 -0.0717
16380SOL    HW149839   0.117   4.380   7.766 -1.0792  0.4350 -0.2997
16380SOL    HW249840   0.228   4.342   7.670 -0.0055 -0.6826  1.3317
16381SOL     OW49841   5.643   3.936   2.537 -0.9053  0.2558 -0.0245
16381SOL    HW149842   5.702   3.896   2.600 -0.2387 -1.8119 -1.8287
16381SOL    HW249843   5.655   4.030   2.548  1.7363 -0.0821  0.5788
16382SOL     OW49844   1.664   5.982   1.035 -0.4624 -0.6847 -0.3766
16382SOL    HW149845   1.721   6.059   1.028 -1.4301  0.5888  3.5045
16382SOL    HW249846   1.716   5.919   1.085 -1.8674  0.0363  2.1447
16383SOL     OW49847   1.224   5.231   4.464 -0.0410  0.3322 -0.5180
16383SOL    HW149848   1.292   5.179   4.506 -0.2503  1.3637  1.2252
16383SOL    HW249849   1.262   5.259   4.381  0.6772 -1.1988 -0.7222
16384SOL     OW49850   7.968   7.138   3.831 -0.0364 -0.5485  0.4665
16384SOL    HW149851   7.931   7.165   3.916 -0.2906 -0.2810  0.2750
16384SOL    HW249852   8.023   7.212   3.805  0.3294 -0.7831  0.5654
16385SOL     OW49853   0.076   1.741   3.652  0.6166  0.4574  0.0916
16385SOL    HW149854   0.078   1.676   3.582 -0.6906 -0.1588  0.5965
16385SOL    HW249855   0.045   1.821   3.610  0.6946  0.3344 -0.2015
16386SOL     OW49856   5.688   1.326   7.406  0.2297 -0.7000 -0.1595
16386SOL    HW149857   5.624   1.393   7.431 -1.0821 -1.8003 -0.4396
16386SOL    HW249858   5.741   1.368   7.339 -0.8590 -0.0733 -0.6627
16387SOL     OW49859   3.293   4.802   1.485 -0.2213  0.2478  0.5263
16387SOL    HW149860   3.355   4.742   1.444  1.6623  0.7714  2.3933
16387SOL    HW249861   3.294   4.778   1.578 -0.8622  1.9275  1.0148
16388SOL     OW49862   2.613   0.088   0.425  0.0723 -0.6055 -1.0065
16388SOL    HW149863   2.552   0.025   0.387  0.7743 -0.3937 -2.5615
16388SOL    HW249864   2.688   0.088   0.365  0.3853  1.1882 -0.6649
16389SOL     OW49865   7.144   7.886   0.612 -0.4204  0.2254  0.0365
16389SOL    HW149866   7.135   7.843   0.696  1.1420 -0.3474 -0.0570
16389SOL    HW249867   7.074   7.952   0.611 -1.6388 -0.9979  0.9713
16390SOL     OW49868   7.562   6.475   3.669  0.3250  0.5016 -0.1199
16390SOL    HW149869   7.648   6.498   3.703  0.5434 -0.3977 -0.0479
16390SOL    HW249870   7.567   6.492   3.575  0.6741  0.1735 -0.1595
16391SOL     OW49871   0.004   5.582   3.898  0.0586  0.3332  0.1740
16391SOL    HW149872   0.076   5.555   3.842  0.4438  0.1686  0.7371
16391SOL    HW249873   0.039   5.653   3.951 -0.0334 -0.0773  0.7978
16392SOL     OW49874   5.319   3.261   0.632 -0.7394  0.0106 -0.6197
16392SOL    HW149875   5.268   3.325   0.683  0.2722  0.7633 -0.5234
16392SOL    HW249876   5.326   3.185   0.690 -1.1017  0.1947 -0.3305
16393SOL     OW49877   1.825   0.350   2.882  0.0211  0.6981  0.2047
16393SOL    HW149878   1.877   0.327   2.959  1.3396 -1.2408 -1.1746
16393SOL    HW249879   1.864   0.431   2.850 -1.1778  2.0958  2.0564
16394SOL     OW49880   0.343   3.309   0.128 -0.4428  0.2806  0.2558
16394SOL    HW149881   0.291   3.326   0.207 -0.7728 -0.7508  0.2794
16394SOL    HW249882   0.279   3.312   0.057 -0.2202  0.7724  0.0738
16395SOL     OW49883   4.102   7.203   2.073  0.4813  1.0730 -0.8947
16395SOL    HW149884   4.188   7.174   2.042  0.9082  1.7879 -0.4110
16395SOL    HW249885   4.081   7.144   2.145 -0.2420 -0.2140 -2.0923
16396SOL     OW49886   2.840   2.060   2.122  0.6851  0.3370 -0.1730
16396SOL    HW149887   2.866   1.969   2.134  0.0579 -0.1297 -2.0864
16396SOL    HW249888   2.901   2.095   2.058  0.0740  0.8476 -0.4901
16397SOL     OW49889   2.055   2.265   6.024  0.1942 -0.5414  0.1640
16397SOL    HW149890   2.098   2.263   5.938  0.7169  0.5674  0.3866
16397SOL    HW249891   2.123   2.293   6.084 -0.5036 -0.0223  0.7310
16398SOL     OW49892   0.411   2.956   0.729  0.8026 -0.0618 -0.6120
16398SOL    HW149893   0.494   2.962   0.682  2.4032 -1.7026  1.7835
16398SOL    HW249894   0.413   2.870   0.772 -1.8975  0.0767  0.0003
16399SOL     OW49895   1.104   2.863   0.337  0.1872  0.4173 -0.3719
16399SOL    HW149896   1.111   2.836   0.429  0.3145  0.8719 -0.2443
16399SOL    HW249897   1.152   2.795   0.289  1.1932  0.8329  0.0210
16400SOL     OW49898   1.759   0.115   4.606 -0.1382  0.0194 -0.0188
16400SOL    HW149899   1.801   0.140   4.524  1.2334 -1.1850  0.2849
16400SOL    HW249900   1.673   0.081   4.579 -0.5692  1.5674 -0.7349
16401SOL     OW49901   2.369   6.241   7.519  0.2838 -0.0386  0.3644
16401SOL    HW149902   2.360   6.257   7.425  0.8778 -2.9915 -0.2875
16401SOL    HW249903   2.369   6.328   7.558  1.2481  1.3591 -2.4679
16402SOL     OW49904   7.818   4.376   5.714 -0.1780  1.2720 -0.0328
16402SOL    HW149905   7.867   4.430   5.776  0.9367  1.9773 -1.4706
16402SOL    HW249906   7.868   4.295   5.707 -0.6284  0.9475  0.4207
16403SOL     OW49907   6.064   5.069   6.099 -0.4915 -0.7387 -0.2490
16403SOL    HW149908   6.152   5.039   6.122  0.1930  0.3486 -1.2892
16403SOL    HW249909   6.022   4.994   6.058  0.2979 -0.9929 -0.5984
16404SOL     OW49910   2.173   1.246   2.044  0.3977  0.1469 -0.1444
16404SOL    HW149911   2.260   1.220   2.073 -0.3181 -1.2042  0.8579
16404SOL    HW249912   2.147   1.178   1.981 -0.5551 -0.3518  0.7578
16405SOL     OW49913   7.940   0.782   3.498  0.3715  0.2594 -0.2470
16405SOL    HW149914   7.975   0.713   3.441 -0.9262 -2.2117  1.7036
16405SOL    HW249915   7.997   0.780   3.575 -0.6397  0.1681  0.5185
16406SOL     OW49916   1.377   7.817   3.999  0.6417 -0.8006 -0.0526
16406SOL    HW149917   1.310   7.753   4.026  0.2315  0.5688  2.3900
16406SOL    HW249918   1.326   7.889   3.961  0.7427 -0.0726  1.1515
16407SOL     OW49919   6.504   7.305   5.267  0.0051 -0.1952 -0.2485
16407SOL    HW149920   6.451   7.341   5.338 -0.1939 -0.8601 -0.0478
16407SOL    HW249921   6.442   7.252   5.216  0.6250 -1.6352  0.4548
16408SOL     OW49922   5.827   3.920   7.033  0.2166  0.7406  0.5668
16408SOL    HW149923   5.734   3.936   7.019  0.2688  0.9125  0.4000
16408SOL    HW249924   5.833   3.879   7.119 -0.1213 -0.3720  0.0713
16409SOL     OW49925   5.544   0.451   3.599  0.1255  0.0456  0.4837
16409SOL    HW149926   5.576   0.377   3.650  1.6946 -0.0158 -0.5252
16409SOL    HW249927   5.623   0.496   3.569 -0.7060  0.2324 -1.6385
16410SOL     OW49928   2.455   6.546   6.283  0.7912 -0.7350 -0.2092
16410SOL    HW149929   2.483   6.617   6.340 -0.2880 -0.1935 -0.3278
16410SOL    HW249930   2.455   6.584   6.195 -0.1886 -0.7405 -0.2227
16411SOL     OW49931   5.441   4.608   1.682  0.0181 -0.1420 -0.1476
16411SOL    HW149932   5.380   4.540   1.711 -0.4325 -0.2082 -1.2227
16411SOL    HW249933   5.396   4.690   1.700  0.1075 -0.1521  0.1343
16412SOL     OW49934   4.540   3.214   2.369 -0.3581  0.8204 -0.2343
16412SOL    HW149935   4.571   3.169   2.447  0.8375 -1.2135 -1.7598
16412SOL    HW249936   4.475   3.276   2.400  0.4199  0.4251  2.3933
16413SOL     OW49937   2.018   3.764   7.399  0.7320  0.1058  0.2830
16413SOL    HW149938   2.056   3.676   7.401 -3.0764 -1.7747 -0.7057
16413SOL    HW249939   2.013   3.786   7.306 -0.5342  0.2044  0.3493
16414SOL     OW49940   1.945   2.202   3.359  0.3275  0.3742  0.6911
16414SOL    HW149941   1.894   2.120   3.356  1.5690 -0.4421  1.0162
16414SOL    HW249942   2.000   2.199   3.282  1.3715  0.2191  1.4239
16415SOL     OW49943   0.044   4.633   1.259 -0.5910 -0.0409 -0.8798
16415SOL    HW149944  -0.001   4.699   1.312 -0.3677 -0.2621 -0.4056
16415SOL    HW249945   0.064   4.677   1.177 -1.3181  0.1802 -0.9421
16416SOL     OW49946   0.175   1.869   5.008 -0.2610  0.2626  0.2423
16416SOL    HW149947   0.166   1.930   5.081 -1.0201 -1.2945  1.5269
16416SOL    HW249948   0.156   1.921   4.930 -1.2243  1.5705  1.3027
16417SOL     OW49949   1.186   5.879   2.657  0.1197 -0.0738 -0.0834
16417SOL    HW149950   1.212   5.941   2.724 -1.2509  1.0958 -0.5984
16417SOL    HW249951   1.221   5.795   2.687  0.1916  0.5596  1.6813
16418SOL     OW49952   6.850   5.954   0.702 -0.1488  0.1197 -0.4146
16418SOL    HW149953   6.807   6.006   0.769  0.5820 -0.4011  0.4850
16418SOL    HW249954   6.920   5.907   0.749  2.2268  1.8479 -1.9929
16419SOL     OW49955   5.070   4.431   2.860 -0.2982 -0.7848 -0.0425
16419SOL    HW149956   5.131   4.451   2.789  0.7868 -0.4673  0.9467
16419SOL    HW249957   5.106   4.477   2.936 -2.6941  0.8257  0.2174
16420SOL     OW49958   4.584   0.840   4.006  0.1794  0.2566 -0.0007
16420SOL    HW149959   4.565   0.767   3.946 -0.0276  1.0471 -0.9122
16420SOL    HW249960   4.633   0.903   3.953 -0.5718  1.2610  0.4659
16421SOL     OW49961   1.626   3.967   3.456 -0.3263  0.0238 -0.0876
16421SOL    HW149962   1.698   3.929   3.406 -0.0701 -1.2016  1.1520
16421SOL    HW249963   1.591   3.894   3.507 -1.1916  1.0203  0.7914
16422SOL     OW49964   2.369   5.143   0.331  0.0373  0.1869  0.3969
16422SOL    HW149965   2.461   5.132   0.305  0.0235 -3.5242  1.3742
16422SOL    HW249966   2.370   5.219   0.389  2.6843 -0.2913  1.1098
16423SOL     OW49967   2.641   4.581   3.581 -0.4248  0.6406 -0.4492
16423SOL    HW149968   2.572   4.635   3.621 -0.3587  0.3884  0.0084
16423SOL    HW249969   2.594   4.511   3.536 -0.4276 -0.7648  1.6307
16424SOL     OW49970   2.920   6.220   0.381  0.0035 -1.0411 -0.2837
16424SOL    HW149971   2.903   6.254   0.293  1.1013 -0.1243 -0.1661
16424SOL    HW249972   3.003   6.172   0.373  1.8062  1.6174  0.8088
16425SOL     OW49973   4.911   4.878   4.052  0.0588  0.3947  0.0193
16425SOL    HW149974   4.867   4.940   4.109 -0.7339 -1.8602  2.0401
16425SOL    HW249975   4.843   4.815   4.027  0.7271  0.4676 -2.2497
16426SOL     OW49976   0.801   2.054   0.070  0.2546 -0.3839 -0.0201
16426SOL    HW149977   0.785   2.145   0.044  0.1708 -0.9467 -2.1542
16426SOL    HW249978   0.821   2.058   0.163  0.3139  1.8312 -0.0881
16427SOL     OW49979   4.883   4.411   2.367 -0.0847 -0.3966 -0.3308
16427SOL    HW149980   4.923   4.498   2.377 -0.3734 -0.3560  0.5609
16427SOL    HW249981   4.807   4.413   2.425 -0.5560 -0.9757 -0.9123
16428SOL     OW49982   1.073   7.653   3.338 -0.2812  0.4976 -0.4730
16428SOL    HW149983   1.017   7.686   3.268  0.1441  1.2151 -0.4873
16428SOL    HW249984   1.140   7.601   3.294 -2.8899 -3.4372 -0.2409
16429SOL     OW49985   6.995   1.060   6.663 -0.3226 -0.1579  0.5962
16429SOL    HW149986   7.086   1.089   6.654  0.1293 -1.8082 -0.5695
16429SOL    HW249987   6.947   1.140   6.686  1.1980  1.0105 -0.1047
16430SOL     OW49988   2.621   6.556   1.060 -0.1249  0.5226 -0.5679
16430SOL    HW149989   2.610   6.494   0.988  1.1439 -1.5448  0.8952
16430SOL    HW249990   2.685   6.620   1.028  0.7188 -0.5867 -1.1757
16431SOL     OW49991   4.361   0.836   5.010 -0.0841  0.0720 -0.1828
16431SOL    HW149992   4.356   0.895   4.936  1.4448  0.5577  0.0669
16431SOL    HW249993   4.281   0.853   5.060 -0.0576  1.3361 -0.5475
16432SOL     OW49994   0.825   1.444   5.838  0.6566 -0.1298  0.6433
16432SOL    HW149995   0.785   1.381   5.779 -0.4862  1.6285 -0.5756
16432SOL    HW249996   0.912   1.458   5.803  0.8716 -0.9184  0.8491
16433SOL     OW49997   4.674   7.584   1.247 -0.2926 -0.1134  0.0533
16433SOL    HW149998   4.651   7.537   1.168  0.8671 -1.7125  0.6236
16433SOL    HW249999   4.594   7.632   1.271 -0.1996  1.8498 -2.9713
16434SOL     OW50000   3.119   6.482   4.893 -0.1777 -0.2888 -0.3367
16434SOL    HW150001   3.030   6.460   4.864  0.1324 -1.8252 -0.2248
16434SOL    HW250002   3.148   6.404   4.941  1.2283  0.1908 -0.3714
16435SOL     OW50003   3.916   2.417   7.828 -0.5001 -0.3338 -0.3701
16435SOL    HW150004   3.983   2.354   7.854 -1.1239 -0.9815 -0.3033
16435SOL    HW250005   3.833   2.373   7.846 -0.9615  0.7291  0.2313
16436SOL     OW50006   2.149   3.670   6.299 -0.6039  0.2266 -0.4065
16436SOL    HW150007   2.207   3.661   6.374 -0.6480  0.9189 -0.2842
16436SOL    HW250008   2.074   3.614   6.319 -1.7867  2.2412  1.2333
16437SOL     OW50009   0.664   7.307   7.477  0.5007  0.3865  0.2296
16437SOL    HW150010   0.759   7.316   7.472  0.4691  0.1322 -1.9065
16437SOL    HW250011   0.640   7.254   7.400 -1.3393  0.1651  0.8857
16438SOL     OW50012   7.344   0.449   6.814  0.8601 -0.1047 -0.4699
16438SOL    HW150013   7.352   0.361   6.850  1.6206 -0.1084 -0.6315
16438SOL    HW250014   7.256   0.477   6.839  0.8904 -0.6156  0.2462
16439SOL     OW50015   3.925   3.304   4.547 -0.4889 -0.1211 -0.5761
16439SOL    HW150016   3.831   3.319   4.545 -0.5525  0.2790  2.1262
16439SOL    HW250017   3.934   3.208   4.547 -0.7870 -0.1787 -1.9794
16440SOL     OW50018   7.003   3.240   6.380 -0.0797  0.1086 -0.4744
16440SOL    HW150019   6.952   3.218   6.301 -0.9761  1.0976 -0.1911
16440SOL    HW250020   6.974   3.177   6.446 -0.5414  0.3199 -0.4725
16441SOL     OW50021   0.816   4.521   6.748  0.1986  0.2120  0.9458
16441SOL    HW150022   0.722   4.504   6.759  0.2238 -1.1595 -0.6718
16441SOL    HW250023   0.857   4.435   6.757  0.9978  0.3306 -1.2099
16442SOL     OW50024   3.324   2.177   1.389 -0.4599 -0.7901 -0.2404
16442SOL    HW150025   3.304   2.214   1.475  0.2027  1.3756 -0.9637
16442SOL    HW250026   3.338   2.253   1.332  0.7507 -2.1594 -1.8847
16443SOL     OW50027   7.829   0.212   4.364 -0.3435 -0.3172 -0.1746
16443SOL    HW150028   7.900   0.250   4.414  0.6915 -1.7074 -0.5282
16443SOL    HW250029   7.812   0.127   4.406 -1.4385 -0.2427 -0.4179
16444SOL     OW50030   2.542   0.761   2.531  0.3099  0.1012  0.0889
16444SOL    HW150031   2.541   0.792   2.621  1.6690 -1.5707  0.7391
16444SOL    HW250032   2.628   0.787   2.497  0.1518 -0.0498 -0.4456
16445SOL     OW50033   0.653   5.313   5.871  0.4304 -1.1223 -0.5581
16445SOL    HW150034   0.609   5.359   5.800 -0.4543 -0.2047  0.5278
16445SOL    HW250035   0.589   5.246   5.899 -0.2819  0.1022  0.9118
16446SOL     OW50036   4.173   1.950   2.100 -0.0922  0.0904  0.2006
16446SOL    HW150037   4.184   1.951   2.195 -0.0324  1.4798  0.2119
16446SOL    HW250038   4.248   2.000   2.067 -0.8095  0.7603 -0.4735
16447SOL     OW50039   6.208   6.561   1.065 -0.3096  0.6251 -0.0886
16447SOL    HW150040   6.198   6.615   0.987 -0.3151  1.1795  0.2961
16447SOL    HW250041   6.126   6.512   1.071  0.0328 -0.0881 -0.9283
16448SOL     OW50042   1.307   3.987   5.336 -0.1256  0.8702 -0.5186
16448SOL    HW150043   1.246   4.005   5.264 -1.8132  0.2681  0.7153
16448SOL    HW250044   1.265   4.025   5.413  1.2015  0.6646  0.3297
16449SOL     OW50045   6.973   4.621   6.784  0.1954 -0.1419  0.3529
16449SOL    HW150046   6.883   4.590   6.781  0.5648 -1.1938 -0.3007
16449SOL    HW250047   6.965   4.716   6.788 -0.9501 -0.2436  1.1208
16450SOL     OW50048   1.928   0.820   5.985 -0.7691  0.4585  0.5396
16450SOL    HW150049   2.010   0.807   6.034  0.2564 -0.5088 -1.3183
16450SOL    HW250050   1.870   0.751   6.016 -0.5330  0.5232  1.1446
16451SOL     OW50051   6.330   1.588   6.045 -0.2635 -0.0863  0.1121
16451SOL    HW150052   6.333   1.496   6.019 -0.5690  0.2851 -1.3654
16451SOL    HW250053   6.295   1.587   6.134 -0.1344 -1.4068  0.1660
16452SOL     OW50054   4.127   7.618   7.243 -0.2499  0.0087 -0.0994
16452SOL    HW150055   4.131   7.524   7.261 -2.1996 -0.8507 -3.3468
16452SOL    HW250056   4.062   7.650   7.305  0.2766 -0.7952  0.9083
16453SOL     OW50057   3.811   7.593   4.721  0.0485  0.3795  0.2590
16453SOL    HW150058   3.755   7.542   4.780  0.8364 -1.7229 -0.7420
16453SOL    HW250059   3.868   7.529   4.679  1.0464  2.0838 -1.1441
16454SOL     OW50060   1.348   7.269   7.549 -0.3328  0.1910 -0.0007
16454SOL    HW150061   1.431   7.229   7.525 -0.4115 -0.9759  1.5414
16454SOL    HW250062   1.329   7.236   7.636 -1.9741  1.1574  0.0587
16455SOL     OW50063   4.365   2.043   0.010 -0.1012 -0.2208  0.0063
16455SOL    HW150064   4.332   2.019  -0.077 -0.5009 -0.9365  0.3489
16455SOL    HW250065   4.287   2.053   0.064  0.0590  1.5254 -0.0120
16456SOL     OW50066   6.479   4.130   4.922 -0.2416  0.4415 -0.2306
16456SOL    HW150067   6.468   4.182   5.001  1.2251 -0.7305  0.8094
16456SOL    HW250068   6.391   4.127   4.883 -1.3151  0.0106  2.0324
16457SOL     OW50069   6.356   2.279   4.947 -0.2489 -0.1384 -0.1765
16457SOL    HW150070   6.434   2.327   4.975 -1.1499  0.7306  0.9233
16457SOL    HW250071   6.290   2.346   4.930 -0.3889 -0.7674 -2.4645
16458SOL     OW50072   2.349   2.379   4.074  0.5255  0.3395  0.1301
16458SOL    HW150073   2.318   2.377   4.164 -1.1458 -1.4557 -0.3927
16458SOL    HW250074   2.282   2.428   4.026  0.2376 -0.6035 -0.4648
16459SOL     OW50075   6.302   1.370   2.091 -0.1493 -0.2316 -0.6669
16459SOL    HW150076   6.333   1.400   2.177 -2.1751 -0.7301  0.2927
16459SOL    HW250077   6.371   1.312   2.059  0.8807  0.3890  0.3727
16460SOL     OW50078   3.775   4.659   3.592  0.0359 -0.2254  0.4472
16460SOL    HW150079   3.715   4.611   3.535 -1.0973  0.3344  1.1229
16460SOL    HW250080   3.790   4.742   3.547 -1.7809  0.6991  1.4379
16461SOL     OW50081   4.860   5.432   7.418  0.2282  0.0920 -0.1768
16461SOL    HW150082   4.807   5.511   7.429 -2.8173 -1.7033 -0.7164
16461SOL    HW250083   4.859   5.389   7.503 -0.6543 -0.7509 -0.5873
16462SOL     OW50084   1.170   2.480   0.890 -0.2345 -0.1798  0.2654
16462SOL    HW150085   1.093   2.492   0.945  1.1180 -0.7597  2.4468
16462SOL    HW250086   1.237   2.536   0.930  1.0684 -1.3437 -0.1809
16463SOL     OW50087   5.546   6.249   3.323 -0.0158  0.1397  0.2676
16463SOL    HW150088   5.507   6.282   3.403 -0.0494 -0.1350  0.3651
16463SOL    HW250089   5.534   6.154   3.327 -0.3117  0.1494 -0.2145
16464SOL     OW50090   4.861   4.976   7.575 -0.5434 -0.3547 -0.3481
16464SOL    HW150091   4.902   4.933   7.500 -0.4481 -0.1158 -0.4339
16464SOL    HW250092   4.865   5.070   7.555  0.4426 -0.2118  0.4384
16465SOL     OW50093   3.010   7.065   6.027 -0.0688  0.0024  0.1085
16465SOL    HW150094   3.027   6.986   5.976 -0.6489  0.7793 -1.3604
16465SOL    HW250095   2.940   7.040   6.088 -2.5779  0.1228 -2.4965
16466SOL     OW50096   5.165   7.936   1.375 -0.0370  0.0485  0.0995
16466SOL    HW150097   5.124   7.850   1.368  0.7274 -0.2733 -0.5739
16466SOL    HW250098   5.094   7.994   1.401  0.0265 -1.2498  3.6559
16467SOL     OW50099   5.920   0.537   0.756  0.2936  0.4399  0.0300
16467SOL    HW150100   5.973   0.552   0.678 -1.2555  1.7573 -0.8244
16467SOL    HW250101   5.896   0.624   0.786  0.1471 -0.0804  1.4923
16468SOL     OW50102   2.299   7.567   0.378 -0.2522 -0.1031 -0.0635
16468SOL    HW150103   2.207   7.591   0.368 -0.2002 -0.1024 -0.5490
16468SOL    HW250104   2.329   7.617   0.454 -0.3936  0.6312 -0.4832
16469SOL     OW50105   3.060   7.259   7.789 -0.0923 -0.1210 -0.7931
16469SOL    HW150106   3.059   7.351   7.762 -0.9515 -0.0487 -0.5589
16469SOL    HW250107   3.123   7.217   7.730  2.0962  1.0400  0.5939
16470SOL     OW50108   3.105   6.221   6.294 -0.9484 -0.2050 -0.2084
16470SOL    HW150109   3.078   6.266   6.374  0.3463 -0.5370  0.4477
16470SOL    HW250110   3.199   6.206   6.305 -0.9610 -1.2957 -1.2791
16471SOL     OW50111   5.453   0.613   0.428  0.3324  0.0923 -0.3325
16471SOL    HW150112   5.394   0.666   0.482  1.1389 -0.5741  1.2778
16471SOL    HW250113   5.409   0.607   0.344 -1.3429  0.5855  0.4554
16472SOL     OW50114   5.484   3.676   4.195 -0.0393 -0.2420 -0.4546
16472SOL    HW150115   5.390   3.690   4.184 -0.0329  0.5422  0.4094
16472SOL    HW250116   5.516   3.659   4.107 -1.0066 -0.6505 -0.7436
16473SOL     OW50117   3.685   2.395   7.644  0.4113  0.0867  0.3776
16473SOL    HW150118   3.706   2.487   7.658  0.8479 -0.1966  1.6972
16473SOL    HW250119   3.625   2.373   7.715 -0.0207 -0.5437 -0.1750
16474SOL     OW50120   0.231   6.561   2.651  0.0010  0.8918  0.3767
16474SOL    HW150121   0.208   6.593   2.738  1.1821  0.4318  0.8697
16474SOL    HW250122   0.244   6.640   2.599 -3.1245  1.2208 -0.1129
16475NA      NA50123   4.820   7.959   2.205  0.2426  0.5349 -0.1283
16476NA      NA50124   5.453   4.610   0.997 -0.1624 -0.5506  0.3689
16477NA      NA50125   3.747   5.047   1.554 -0.0090 -0.1003  0.3614
16478NA      NA50126   6.323   2.551   3.204 -0.3548 -0.2421  0.0978
16479NA      NA50127   3.937   1.982   6.819 -0.0553 -0.3443  0.0984
16480NA      NA50128   4.511   6.161   1.425 -0.3513  0.2555  0.4028
16481NA      NA50129   1.401   7.165   3.546 -0.0031 -0.0935 -0.3012
16482NA      NA50130   1.520   1.075   0.904  0.0527  0.2864  0.2891
16483NA      NA50131   7.758   4.156   6.899  0.0445 -0.5154  0.0880
16484NA      NA50132   7.597   3.838   6.326  0.0012  0.1481 -0.1910
16485NA      NA50133   7.467   3.242   5.618  0.2131  0.4986 -0.3888
16486NA      NA50134   0.046   3.958   1.644 -0.1583 -0.7182  0.2986
16487NA      NA50135   1.525   5.502   1.549  0.2407  0.1717  0.3960
16488NA      NA50136   0.307   0.223   7.271  0.1297 -0.1045 -0.1461
16489NA      NA50137   3.755   7.287   0.488 -0.0517 -0.0236 -0.1101
16490NA      NA50138   2.012   3.061   5.336 -0.1933  0.1637  0.2609
16491NA      NA50139   7.348   3.204   7.892 -0.7161  0.3444 -0.8960
16492NA      NA50140   7.736   2.942   3.040  0.8215  0.2895  0.4966
16493NA      NA50141   1.033   4.210   3.324  0.2518 -0.6016  0.1106
16494NA      NA50142   1.742   4.018   5.559 -0.2160 -0.1344 -0.3212
16495NA      NA50143   3.882   0.978   3.508  0.1567  0.0902  0.1465
16496NA      NA50144   7.193   1.137   5.068  0.0537 -0.4300  0.1157
16497NA      NA50145   1.098   1.006   3.222 -0.1566  0.0329  0.2017
16498NA      NA50146   3.973   5.781   5.119  0.3018 -0.0799  0.1553
16499NA      NA50147   7.859   5.129   0.410 -0.1488  0.2459  0.1016
16500NA      NA50148   0.814   4.142   5.291 -0.1764  0.8090  0.4192
16501NA      NA50149   5.278   2.873   4.506 -0.1206 -0.7477 -0.1615
16502NA      NA50150   4.432   4.876   6.961 -0.0531  0.2937  0.2210
16503NA      NA50151   7.443   4.537   3.283 -0.1084 -0.1737 -0.1386
16504NA      NA50152   7.230   6.288   2.284 -0.3556  0.3559  0.2431
16505NA      NA50153   7.304   5.631   2.597 -0.1178  0.1771 -0.0300
16506NA      NA50154   6.319   1.848   5.226 -0.7371 -0.1068  0.0005
16507NA      NA50155   5.964   0.096   0.811  0.1914 -0.0155  0.0150
16508NA      NA50156   3.018   5.496   0.847 -0.9254 -0.2961 -0.2772
16509NA      NA50157   7.898   0.804   6.546  0.1614 -0.5335  0.0942
16510NA      NA50158   6.670   1.264   0.566 -0.5079 -0.0324  0.1529
16511NA      NA50159   5.411   6.416   6.680 -0.1660 -0.2288 -0.0088
16512NA      NA50160   5.802   5.251   5.242 -0.1577 -0.1245 -0.3098
16513NA      NA50161   0.759   1.483   6.631 -0.1272 -0.1884  0.0335
16514NA      NA50162   4.038   5.223   3.419 -0.1776  0.4125  0.8190
16515NA      NA50163   2.939   2.846   0.846 -0.6835  0.6183 -0.3168
16516NA      NA50164   6.043   0.415   7.621  0.1241  0.1287  0.1263
16517NA      NA50165   6.417   0.333   0.944 -0.0546 -0.0207  0.3399
16518NA      NA50166   4.781   7.399   1.382 -0.6359 -0.5338  0.2304
16519NA      NA50167   4.546   1.597   1.848 -0.1737 -0.3851 -0.0646
16520NA      NA50168   0.365   1.173   3.966  0.4031  0.3358  0.5054
16521CL      CL50169   7.722   4.128   7.651 -0.0059 -0.0506 -0.1439
16522CL      CL50170   6.736   2.012   5.146 -0.0104 -0.0051 -0.4310
16523CL      CL50171   0.973   3.460   3.341 -0.3011 -0.5373  0.1166
16524CL      CL50172   3.471   7.686   1.887  0.3435  0.0106 -0.1904
16525CL      CL50173   1.912   0.720   4.005 -0.1398 -0.0383  0.2782
16526CL      CL50174   6.710   3.351   0.730 -0.0727  0.0303  0.0319
16527CL      CL50175   3.692   5.059   1.326  0.1262 -0.1078  0.0509
16528CL      CL50176   6.868   0.226   5.747 -0.0887  0.0440  0.0143
16529CL      CL50177   4.705   4.444   4.390 -0.0867  0.1758 -0.0285
16530CL      CL50178   0.817   3.584   2.600 -0.1062  0.0070  0.2737
16531CL      CL50179   1.208   7.693   0.339 -0.3162 -0.3462 -0.1045
16532CL      CL50180   7.044   6.747   7.463 -0.1990  0.1827  0.0949
16533CL      CL50181   0.902   4.497   1.588  0.1076  0.7112  0.2213
16534CL      CL50182   7.004   5.739   5.437 -0.2327 -0.3963 -0.3451
16535CL      CL50183   1.047   2.636   5.672 -0.0515 -0.3359  0.0391
16536CL      CL50184   7.601   3.921   6.576  0.2542 -0.2611 -0.1347
16537CL      CL50185   1.744   7.103   5.555 -0.4081  0.3806 -0.0712
16538CL      CL50186   3.420   2.307   1.669  0.0398  0.0995  0.1540
16539CL      CL50187   2.526   0.014   7.078  0.3944 -0.4442 -0.4285
16540CL      CL50188   1.773   1.005   1.387  0.3411 -0.4520  0.5713
16541CL      CL50189   6.763   5.971   6.540  0.1679  0.0338 -0.2449
16542CL      CL50190   6.369   0.831   2.276  0.3353  0.1427 -0.1208
16543CL      CL50191   5.971   6.823   0.018  0.3448 -0.0242  0.0458
16544CL      CL50192   2.801   5.105   2.721  0.0096 -0.5093 -0.0931
16545CL      CL50193   1.556   5.216   6.398 -0.0825  0.2360 -0.3566
16546CL      CL50194   7.364   5.853   4.834  0.4650  0.0649 -0.4727
16547CL      CL50195   3.221   0.743   2.892  0.8805  0.2968 -0.1622
16548CL      CL50196   2.093   7.193   7.887 -0.2380 -0.2710 -0.3648
16549CL      CL50197   5.274   2.397   1.374 -0.1129 -0.3304 -0.2640
16550CL      CL50198   6.927   1.539   7.004  0.0523 -0.1667 -0.4096
16551CL      CL50199   7.254   3.265   5.737 -0.1525  0.1887 -0.0283
16552CL      CL50200   6.807   6.567   1.747  0.1019 -0.3391 -0.3456
16553CL      CL50201   1.700   6.829   3.150  0.4895  0.5310 -0.5051
16554CL      CL50202   3.790   7.270   0.734  0.0353  0.1097 -0.5849
16555CL      CL50203   0.977   5.759   4.211 -0.2452  0.1585  0.0358
16556CL      CL50204   0.656   2.235   2.528 -0.0411 -0.2347  0.3312
16557CL      CL50205   0.322   0.541   6.681 -0.1174 -0.0566  0.3532
16558CL      CL50206   5.843   5.960   4.270 -0.2444 -0.1384 -0.3804
16559CL      CL50207   3.455   2.956   3.568 -0.0150  0.0727 -0.3395
16560CL      CL50208   5.837   2.613   4.047  0.0311  0.0054  0.0536
16561CL      CL50209   2.637   3.608   4.984  0.3577 -0.1477  0.1048
16562CL      CL50210   0.277   5.198   6.161 -0.4837  0.1925  0.0156
16563CL      CL50211   7.747   2.917   5.785 -0.0029  0.0061 -0.6131
16564CL      CL50212   5.962   7.291   2.482  0.1250 -0.0110 -0.1589
16565CL      CL50213   0.510   0.278   5.952 -0.3947 -0.2029 -0.0974
16566CL      CL50214   0.208   7.335   3.671  0.1894 -0.0849 -0.3665
16567CL      CL50215   2.112   6.845   1.446 -0.3190 -0.3711 -0.0989
16568CL      CL50216   7.893   4.521   7.128 -0.6505 -0.1994  0.1186
16569CL      CL50217   2.981   6.594   1.538 -0.2352 -0.0230 -0.1835
16570CL      CL50218   4.536   3.943   5.944 -0.2433  0.0690  0.0809
16571CL      CL50219   6.891   3.596   4.047  0.1909 -0.1863 -0.1223
16572CL      CL50220   0.935   7.356   7.345  0.0917 -0.0084 -0.1003
16573CL      CL50221   6.244   0.204   3.889 -0.6449 -0.1236  0.4743
16574CL      CL50222   4.882   5.859   0.550 -0.7531  0.0461 -0.6347
16575CL      CL50223   2.783   6.174   5.420 -0.4078 -0.9331 -0.0269
16576CL      CL50224   6.572   4.136   3.693  0.2238 -0.1101 -0.2290
16577CL      CL50225   0.078   7.900   1.362 -0.1278 -0.1142  0.0162
16578CL      CL50226   0.863   3.837   2.046 -0.1779  0.0414 -0.1286
16579CL      CL50227   5.103   5.787   5.962  0.2390  0.0343  0.1976
16580CL      CL50228   7.320   4.307   6.698  0.2493 -0.0696 -0.2792
   7.97695   7.97695   7.97695
