;
;   File g4npocore_petim_betagalactose.itp  was generated
;   By user: sairam (1000)
;   On host: sairam
;   At date: Sat. September  6 18:43:26 2023
;
;   This is a standalone topology file
;
;   Created by:
;   ParmEd:       amb2gro_top_gro.py, VERSION 3.4.1
;   Executable:   amb2gro_top_gro.py
;   Library dir:  /usr/local/gromacs/share/gromacs/top
;   Command line:
;     ./amb2gro_top_gro.py -p g4npocore_petim_betagalactose.prmtop -c g4npocore_petim_betagalactose.inpcrd -t g4npocore_petim_betagalactose.itp -g g4npocore_petim_betagalactose.gro -b g4npocore_petim_betagalactose.pdb
;

;[ defaults ]
;; nbfunc        comb-rule       gen-pairs       fudgeLJ fudgeQQ
;1               2               yes             0.5          0.83333333  
;
;[ atomtypes ]
;; name    at.num    mass    charge ptype  sigma      epsilon
;os             8  16.000000  0.00000000  A     0.30000123        0.71128
;c3             6  12.010000  0.00000000  A     0.33996695      0.4577296
;h1             1   1.008000  0.00000000  A      0.2471353      0.0656888
;hc             1   1.008000  0.00000000  A     0.26495328      0.0656888
;n3             7  14.010000  0.00000000  A     0.32499985        0.71128
;h2             1   1.008000  0.00000000  A     0.22931733      0.0656888
;oh             8  16.000000  0.00000000  A     0.30664734      0.8803136
;ho             1   1.008000  0.00000000  A              0              0


[ moleculetype ]
; Name            nrexcl
g4npocore_petim_betagalactose         3

[ atoms ]
;   nr       type  resnr residue  atom   cgnr    charge       mass  typeB    chargeB      massB
; residue    1 aaa rtp aaa q -0.0
    1         os      1    aaa     O1      1 -0.43807400  16.000000   ; qtot -0.438074
    2         c3      1    aaa     C1      2 0.04509800  12.010000   ; qtot -0.392976
    3         h1      1    aaa     H1      3 0.04771700   1.008000   ; qtot -0.345259
    4         h1      1    aaa     H2      4 0.04771700   1.008000   ; qtot -0.297542
    5         c3      1    aaa     C2      5 0.04509800  12.010000   ; qtot -0.252444
    6         h1      1    aaa     H3      6 0.04771700   1.008000   ; qtot -0.204727
    7         h1      1    aaa     H4      7 0.04771700   1.008000   ; qtot -0.157010
    8         c3      1    aaa     C3      8 0.05658600  12.010000   ; qtot -0.100424
    9         hc      1    aaa     H5      9 0.04933800   1.008000   ; qtot -0.051086
   10         hc      1    aaa     H6     10 0.04933800   1.008000   ; qtot -0.001748
   11         c3      1    aaa     C4     11 0.05658600  12.010000   ; qtot 0.054838
   12         hc      1    aaa     H7     12 0.04933800   1.008000   ; qtot 0.104176
   13         hc      1    aaa     H8     13 0.04933800   1.008000   ; qtot 0.153514
   14         c3      1    aaa     C5     14 0.00989700  12.010000   ; qtot 0.163411
   15         h1      1    aaa     H9     15 0.04845500   1.008000   ; qtot 0.211866
   16         h1      1    aaa    H10     16 0.04845500   1.008000   ; qtot 0.260321
   17         c3      1    aaa     C6     17 0.00989700  12.010000   ; qtot 0.270218
   18         h1      1    aaa    H11     18 0.04845500   1.008000   ; qtot 0.318673
   19         h1      1    aaa    H12     19 0.04845500   1.008000   ; qtot 0.367128
   20         n3      1    aaa     N1     20 -0.59936800  14.010000   ; qtot -0.232240
   21         n3      1    aaa     N2     21 -0.59936800  14.010000   ; qtot -0.831608
   22         c3      1    aaa     C7     22 0.08030200  12.010000   ; qtot -0.751306
   23         h1      1    aaa    H13     23 0.05071600   1.008000   ; qtot -0.700590
   24         h1      1    aaa    H14     24 0.05071600   1.008000   ; qtot -0.649874
   25         c3      1    aaa     C8     25 0.08030200  12.010000   ; qtot -0.569572
   26         h1      1    aaa    H15     26 0.05071600   1.008000   ; qtot -0.518856
   27         h1      1    aaa    H16     27 0.05071600   1.008000   ; qtot -0.468140
   28         c3      1    aaa     C9     28 0.08030200  12.010000   ; qtot -0.387838
   29         h1      1    aaa    H17     29 0.05071600   1.008000   ; qtot -0.337122
   30         h1      1    aaa    H18     30 0.05071600   1.008000   ; qtot -0.286406
   31         c3      1    aaa    C10     31 0.08030200  12.010000   ; qtot -0.206104
   32         h1      1    aaa    H19     32 0.05071600   1.008000   ; qtot -0.155388
   33         h1      1    aaa    H20     33 0.05071600   1.008000   ; qtot -0.104672
   34         c3      1    aaa    C11     34 0.10287800  12.010000   ; qtot -0.001794
   35         hc      1    aaa    H21     35 0.06787400   1.008000   ; qtot 0.066080
   36         hc      1    aaa    H22     36 0.06787400   1.008000   ; qtot 0.133954
   37         c3      1    aaa    C12     37 0.10287800  12.010000   ; qtot 0.236832
   38         hc      1    aaa    H23     38 0.06787400   1.008000   ; qtot 0.304706
   39         hc      1    aaa    H24     39 0.06787400   1.008000   ; qtot 0.372580
   40         c3      1    aaa    C13     40 0.10287800  12.010000   ; qtot 0.475458
   41         hc      1    aaa    H25     41 0.06787400   1.008000   ; qtot 0.543332
   42         hc      1    aaa    H26     42 0.06787400   1.008000   ; qtot 0.611206
   43         c3      1    aaa    C14     43 0.10287800  12.010000   ; qtot 0.714084
   44         hc      1    aaa    H27     44 0.06787400   1.008000   ; qtot 0.781958
   45         hc      1    aaa    H28     45 0.06787400   1.008000   ; qtot 0.849832
   46         c3      1    aaa    C15     46 -0.72585200  12.010000   ; qtot 0.123980
   47         h1      1    aaa    H29     47 0.25669700   1.008000   ; qtot 0.380677
   48         h1      1    aaa    H30     48 0.25669700   1.008000   ; qtot 0.637374
   49         c3      1    aaa    C16     49 -0.72585200  12.010000   ; qtot -0.088478
   50         h1      1    aaa    H31     50 0.25669700   1.008000   ; qtot 0.168219
   51         h1      1    aaa    H32     51 0.25669700   1.008000   ; qtot 0.424916
   52         c3      1    aaa    C17     52 -0.72585200  12.010000   ; qtot -0.300936
   53         h1      1    aaa    H33     53 0.25669700   1.008000   ; qtot -0.044239
   54         h1      1    aaa    H34     54 0.25669700   1.008000   ; qtot 0.212458
   55         c3      1    aaa    C18     55 -0.72585200  12.010000   ; qtot -0.513394
   56         h1      1    aaa    H35     56 0.25669700   1.008000   ; qtot -0.256697
   57         h1      1    aaa    H36     57 0.25669700   1.008000   ; qtot -0.000000
; residue    2 bbb rtp bbb q -0.0
   58         n3      2    bbb     N1     58 -0.59685800  14.010000   ; qtot -0.596858
   59         c3      2    bbb     C1     59 0.10137000  12.010000   ; qtot -0.495488
   60         h1      2    bbb     H1     60 0.04411300   1.008000   ; qtot -0.451375
   61         h1      2    bbb     H2     61 0.04411300   1.008000   ; qtot -0.407262
   62         c3      2    bbb     C2     62 0.10137000  12.010000   ; qtot -0.305892
   63         h1      2    bbb     H3     63 0.04411300   1.008000   ; qtot -0.261779
   64         h1      2    bbb     H4     64 0.04411300   1.008000   ; qtot -0.217666
   65         c3      2    bbb     C3     65 -0.00195300  12.010000   ; qtot -0.219619
   66         h1      2    bbb     H5     66 0.05064400   1.008000   ; qtot -0.168975
   67         h1      2    bbb     H6     67 0.05064400   1.008000   ; qtot -0.118331
   68         c3      2    bbb     C4     68 -0.01612100  12.010000   ; qtot -0.134452
   69         hc      2    bbb     H7     69 0.04936100   1.008000   ; qtot -0.085091
   70         hc      2    bbb     H8     70 0.04936100   1.008000   ; qtot -0.035730
   71         c3      2    bbb     C5     71 0.11363000  12.010000   ; qtot 0.077900
   72         hc      2    bbb     H9     72 0.06265900   1.008000   ; qtot 0.140559
   73         hc      2    bbb    H10     73 0.06265900   1.008000   ; qtot 0.203218
   74         c3      2    bbb     C6     74 0.11363000  12.010000   ; qtot 0.316848
   75         hc      2    bbb    H11     75 0.06265900   1.008000   ; qtot 0.379507
   76         hc      2    bbb    H12     76 0.06265900   1.008000   ; qtot 0.442166
   77         c3      2    bbb     C7     77 0.05858200  12.010000   ; qtot 0.500748
   78         h1      2    bbb    H13     78 0.06123400   1.008000   ; qtot 0.561982
   79         h1      2    bbb    H14     79 0.06123400   1.008000   ; qtot 0.623216
   80         c3      2    bbb     C8     80 -0.72423400  12.010000   ; qtot -0.101018
   81         h1      2    bbb    H15     81 0.25637600   1.008000   ; qtot 0.155358
   82         h1      2    bbb    H16     82 0.25637600   1.008000   ; qtot 0.411734
   83         c3      2    bbb     C9     83 -0.72423400  12.010000   ; qtot -0.312500
   84         h1      2    bbb    H17     84 0.25637600   1.008000   ; qtot -0.056124
   85         h1      2    bbb    H18     85 0.25637600   1.008000   ; qtot 0.200252
   86         os      2    bbb     O1     86 -0.20025300  16.000000   ; qtot -0.000001
; residue    3 bbb rtp bbb q -0.0
   87         n3      3    bbb     N1     87 -0.59685800  14.010000   ; qtot -0.596859
   88         c3      3    bbb     C1     88 0.10137000  12.010000   ; qtot -0.495489
   89         h1      3    bbb     H1     89 0.04411300   1.008000   ; qtot -0.451376
   90         h1      3    bbb     H2     90 0.04411300   1.008000   ; qtot -0.407263
   91         c3      3    bbb     C2     91 0.10137000  12.010000   ; qtot -0.305893
   92         h1      3    bbb     H3     92 0.04411300   1.008000   ; qtot -0.261780
   93         h1      3    bbb     H4     93 0.04411300   1.008000   ; qtot -0.217667
   94         c3      3    bbb     C3     94 -0.00195300  12.010000   ; qtot -0.219620
   95         h1      3    bbb     H5     95 0.05064400   1.008000   ; qtot -0.168976
   96         h1      3    bbb     H6     96 0.05064400   1.008000   ; qtot -0.118332
   97         c3      3    bbb     C4     97 -0.01612100  12.010000   ; qtot -0.134453
   98         hc      3    bbb     H7     98 0.04936100   1.008000   ; qtot -0.085092
   99         hc      3    bbb     H8     99 0.04936100   1.008000   ; qtot -0.035731
  100         c3      3    bbb     C5    100 0.11363000  12.010000   ; qtot 0.077899
  101         hc      3    bbb     H9    101 0.06265900   1.008000   ; qtot 0.140558
  102         hc      3    bbb    H10    102 0.06265900   1.008000   ; qtot 0.203217
  103         c3      3    bbb     C6    103 0.11363000  12.010000   ; qtot 0.316847
  104         hc      3    bbb    H11    104 0.06265900   1.008000   ; qtot 0.379506
  105         hc      3    bbb    H12    105 0.06265900   1.008000   ; qtot 0.442165
  106         c3      3    bbb     C7    106 0.05858200  12.010000   ; qtot 0.500747
  107         h1      3    bbb    H13    107 0.06123400   1.008000   ; qtot 0.561981
  108         h1      3    bbb    H14    108 0.06123400   1.008000   ; qtot 0.623215
  109         c3      3    bbb     C8    109 -0.72423400  12.010000   ; qtot -0.101019
  110         h1      3    bbb    H15    110 0.25637600   1.008000   ; qtot 0.155357
  111         h1      3    bbb    H16    111 0.25637600   1.008000   ; qtot 0.411733
  112         c3      3    bbb     C9    112 -0.72423400  12.010000   ; qtot -0.312501
  113         h1      3    bbb    H17    113 0.25637600   1.008000   ; qtot -0.056125
  114         h1      3    bbb    H18    114 0.25637600   1.008000   ; qtot 0.200251
  115         os      3    bbb     O1    115 -0.20025300  16.000000   ; qtot -0.000002
; residue    4 bbb rtp bbb q -0.0
  116         n3      4    bbb     N1    116 -0.59685800  14.010000   ; qtot -0.596860
  117         c3      4    bbb     C1    117 0.10137000  12.010000   ; qtot -0.495490
  118         h1      4    bbb     H1    118 0.04411300   1.008000   ; qtot -0.451377
  119         h1      4    bbb     H2    119 0.04411300   1.008000   ; qtot -0.407264
  120         c3      4    bbb     C2    120 0.10137000  12.010000   ; qtot -0.305894
  121         h1      4    bbb     H3    121 0.04411300   1.008000   ; qtot -0.261781
  122         h1      4    bbb     H4    122 0.04411300   1.008000   ; qtot -0.217668
  123         c3      4    bbb     C3    123 -0.00195300  12.010000   ; qtot -0.219621
  124         h1      4    bbb     H5    124 0.05064400   1.008000   ; qtot -0.168977
  125         h1      4    bbb     H6    125 0.05064400   1.008000   ; qtot -0.118333
  126         c3      4    bbb     C4    126 -0.01612100  12.010000   ; qtot -0.134454
  127         hc      4    bbb     H7    127 0.04936100   1.008000   ; qtot -0.085093
  128         hc      4    bbb     H8    128 0.04936100   1.008000   ; qtot -0.035732
  129         c3      4    bbb     C5    129 0.11363000  12.010000   ; qtot 0.077898
  130         hc      4    bbb     H9    130 0.06265900   1.008000   ; qtot 0.140557
  131         hc      4    bbb    H10    131 0.06265900   1.008000   ; qtot 0.203216
  132         c3      4    bbb     C6    132 0.11363000  12.010000   ; qtot 0.316846
  133         hc      4    bbb    H11    133 0.06265900   1.008000   ; qtot 0.379505
  134         hc      4    bbb    H12    134 0.06265900   1.008000   ; qtot 0.442164
  135         c3      4    bbb     C7    135 0.05858200  12.010000   ; qtot 0.500746
  136         h1      4    bbb    H13    136 0.06123400   1.008000   ; qtot 0.561980
  137         h1      4    bbb    H14    137 0.06123400   1.008000   ; qtot 0.623214
  138         c3      4    bbb     C8    138 -0.72423400  12.010000   ; qtot -0.101020
  139         h1      4    bbb    H15    139 0.25637600   1.008000   ; qtot 0.155356
  140         h1      4    bbb    H16    140 0.25637600   1.008000   ; qtot 0.411732
  141         c3      4    bbb     C9    141 -0.72423400  12.010000   ; qtot -0.312502
  142         h1      4    bbb    H17    142 0.25637600   1.008000   ; qtot -0.056126
  143         h1      4    bbb    H18    143 0.25637600   1.008000   ; qtot 0.200250
  144         os      4    bbb     O1    144 -0.20025300  16.000000   ; qtot -0.000003
; residue    5 bbb rtp bbb q -0.0
  145         n3      5    bbb     N1    145 -0.59685800  14.010000   ; qtot -0.596861
  146         c3      5    bbb     C1    146 0.10137000  12.010000   ; qtot -0.495491
  147         h1      5    bbb     H1    147 0.04411300   1.008000   ; qtot -0.451378
  148         h1      5    bbb     H2    148 0.04411300   1.008000   ; qtot -0.407265
  149         c3      5    bbb     C2    149 0.10137000  12.010000   ; qtot -0.305895
  150         h1      5    bbb     H3    150 0.04411300   1.008000   ; qtot -0.261782
  151         h1      5    bbb     H4    151 0.04411300   1.008000   ; qtot -0.217669
  152         c3      5    bbb     C3    152 -0.00195300  12.010000   ; qtot -0.219622
  153         h1      5    bbb     H5    153 0.05064400   1.008000   ; qtot -0.168978
  154         h1      5    bbb     H6    154 0.05064400   1.008000   ; qtot -0.118334
  155         c3      5    bbb     C4    155 -0.01612100  12.010000   ; qtot -0.134455
  156         hc      5    bbb     H7    156 0.04936100   1.008000   ; qtot -0.085094
  157         hc      5    bbb     H8    157 0.04936100   1.008000   ; qtot -0.035733
  158         c3      5    bbb     C5    158 0.11363000  12.010000   ; qtot 0.077897
  159         hc      5    bbb     H9    159 0.06265900   1.008000   ; qtot 0.140556
  160         hc      5    bbb    H10    160 0.06265900   1.008000   ; qtot 0.203215
  161         c3      5    bbb     C6    161 0.11363000  12.010000   ; qtot 0.316845
  162         hc      5    bbb    H11    162 0.06265900   1.008000   ; qtot 0.379504
  163         hc      5    bbb    H12    163 0.06265900   1.008000   ; qtot 0.442163
  164         c3      5    bbb     C7    164 0.05858200  12.010000   ; qtot 0.500745
  165         h1      5    bbb    H13    165 0.06123400   1.008000   ; qtot 0.561979
  166         h1      5    bbb    H14    166 0.06123400   1.008000   ; qtot 0.623213
  167         c3      5    bbb     C8    167 -0.72423400  12.010000   ; qtot -0.101021
  168         h1      5    bbb    H15    168 0.25637600   1.008000   ; qtot 0.155355
  169         h1      5    bbb    H16    169 0.25637600   1.008000   ; qtot 0.411731
  170         c3      5    bbb     C9    170 -0.72423400  12.010000   ; qtot -0.312503
  171         h1      5    bbb    H17    171 0.25637600   1.008000   ; qtot -0.056127
  172         h1      5    bbb    H18    172 0.25637600   1.008000   ; qtot 0.200249
  173         os      5    bbb     O1    173 -0.20025300  16.000000   ; qtot -0.000004
; residue    6 bbb rtp bbb q -0.0
  174         n3      6    bbb     N1    174 -0.59685800  14.010000   ; qtot -0.596862
  175         c3      6    bbb     C1    175 0.10137000  12.010000   ; qtot -0.495492
  176         h1      6    bbb     H1    176 0.04411300   1.008000   ; qtot -0.451379
  177         h1      6    bbb     H2    177 0.04411300   1.008000   ; qtot -0.407266
  178         c3      6    bbb     C2    178 0.10137000  12.010000   ; qtot -0.305896
  179         h1      6    bbb     H3    179 0.04411300   1.008000   ; qtot -0.261783
  180         h1      6    bbb     H4    180 0.04411300   1.008000   ; qtot -0.217670
  181         c3      6    bbb     C3    181 -0.00195300  12.010000   ; qtot -0.219623
  182         h1      6    bbb     H5    182 0.05064400   1.008000   ; qtot -0.168979
  183         h1      6    bbb     H6    183 0.05064400   1.008000   ; qtot -0.118335
  184         c3      6    bbb     C4    184 -0.01612100  12.010000   ; qtot -0.134456
  185         hc      6    bbb     H7    185 0.04936100   1.008000   ; qtot -0.085095
  186         hc      6    bbb     H8    186 0.04936100   1.008000   ; qtot -0.035734
  187         c3      6    bbb     C5    187 0.11363000  12.010000   ; qtot 0.077896
  188         hc      6    bbb     H9    188 0.06265900   1.008000   ; qtot 0.140555
  189         hc      6    bbb    H10    189 0.06265900   1.008000   ; qtot 0.203214
  190         c3      6    bbb     C6    190 0.11363000  12.010000   ; qtot 0.316844
  191         hc      6    bbb    H11    191 0.06265900   1.008000   ; qtot 0.379503
  192         hc      6    bbb    H12    192 0.06265900   1.008000   ; qtot 0.442162
  193         c3      6    bbb     C7    193 0.05858200  12.010000   ; qtot 0.500744
  194         h1      6    bbb    H13    194 0.06123400   1.008000   ; qtot 0.561978
  195         h1      6    bbb    H14    195 0.06123400   1.008000   ; qtot 0.623212
  196         c3      6    bbb     C8    196 -0.72423400  12.010000   ; qtot -0.101022
  197         h1      6    bbb    H15    197 0.25637600   1.008000   ; qtot 0.155354
  198         h1      6    bbb    H16    198 0.25637600   1.008000   ; qtot 0.411730
  199         c3      6    bbb     C9    199 -0.72423400  12.010000   ; qtot -0.312504
  200         h1      6    bbb    H17    200 0.25637600   1.008000   ; qtot -0.056128
  201         h1      6    bbb    H18    201 0.25637600   1.008000   ; qtot 0.200248
  202         os      6    bbb     O1    202 -0.20025300  16.000000   ; qtot -0.000005
; residue    7 bbb rtp bbb q -0.0
  203         n3      7    bbb     N1    203 -0.59685800  14.010000   ; qtot -0.596863
  204         c3      7    bbb     C1    204 0.10137000  12.010000   ; qtot -0.495493
  205         h1      7    bbb     H1    205 0.04411300   1.008000   ; qtot -0.451380
  206         h1      7    bbb     H2    206 0.04411300   1.008000   ; qtot -0.407267
  207         c3      7    bbb     C2    207 0.10137000  12.010000   ; qtot -0.305897
  208         h1      7    bbb     H3    208 0.04411300   1.008000   ; qtot -0.261784
  209         h1      7    bbb     H4    209 0.04411300   1.008000   ; qtot -0.217671
  210         c3      7    bbb     C3    210 -0.00195300  12.010000   ; qtot -0.219624
  211         h1      7    bbb     H5    211 0.05064400   1.008000   ; qtot -0.168980
  212         h1      7    bbb     H6    212 0.05064400   1.008000   ; qtot -0.118336
  213         c3      7    bbb     C4    213 -0.01612100  12.010000   ; qtot -0.134457
  214         hc      7    bbb     H7    214 0.04936100   1.008000   ; qtot -0.085096
  215         hc      7    bbb     H8    215 0.04936100   1.008000   ; qtot -0.035735
  216         c3      7    bbb     C5    216 0.11363000  12.010000   ; qtot 0.077895
  217         hc      7    bbb     H9    217 0.06265900   1.008000   ; qtot 0.140554
  218         hc      7    bbb    H10    218 0.06265900   1.008000   ; qtot 0.203213
  219         c3      7    bbb     C6    219 0.11363000  12.010000   ; qtot 0.316843
  220         hc      7    bbb    H11    220 0.06265900   1.008000   ; qtot 0.379502
  221         hc      7    bbb    H12    221 0.06265900   1.008000   ; qtot 0.442161
  222         c3      7    bbb     C7    222 0.05858200  12.010000   ; qtot 0.500743
  223         h1      7    bbb    H13    223 0.06123400   1.008000   ; qtot 0.561977
  224         h1      7    bbb    H14    224 0.06123400   1.008000   ; qtot 0.623211
  225         c3      7    bbb     C8    225 -0.72423400  12.010000   ; qtot -0.101023
  226         h1      7    bbb    H15    226 0.25637600   1.008000   ; qtot 0.155353
  227         h1      7    bbb    H16    227 0.25637600   1.008000   ; qtot 0.411729
  228         c3      7    bbb     C9    228 -0.72423400  12.010000   ; qtot -0.312505
  229         h1      7    bbb    H17    229 0.25637600   1.008000   ; qtot -0.056129
  230         h1      7    bbb    H18    230 0.25637600   1.008000   ; qtot 0.200247
  231         os      7    bbb     O1    231 -0.20025300  16.000000   ; qtot -0.000006
; residue    8 bbb rtp bbb q -0.0
  232         n3      8    bbb     N1    232 -0.59685800  14.010000   ; qtot -0.596864
  233         c3      8    bbb     C1    233 0.10137000  12.010000   ; qtot -0.495494
  234         h1      8    bbb     H1    234 0.04411300   1.008000   ; qtot -0.451381
  235         h1      8    bbb     H2    235 0.04411300   1.008000   ; qtot -0.407268
  236         c3      8    bbb     C2    236 0.10137000  12.010000   ; qtot -0.305898
  237         h1      8    bbb     H3    237 0.04411300   1.008000   ; qtot -0.261785
  238         h1      8    bbb     H4    238 0.04411300   1.008000   ; qtot -0.217672
  239         c3      8    bbb     C3    239 -0.00195300  12.010000   ; qtot -0.219625
  240         h1      8    bbb     H5    240 0.05064400   1.008000   ; qtot -0.168981
  241         h1      8    bbb     H6    241 0.05064400   1.008000   ; qtot -0.118337
  242         c3      8    bbb     C4    242 -0.01612100  12.010000   ; qtot -0.134458
  243         hc      8    bbb     H7    243 0.04936100   1.008000   ; qtot -0.085097
  244         hc      8    bbb     H8    244 0.04936100   1.008000   ; qtot -0.035736
  245         c3      8    bbb     C5    245 0.11363000  12.010000   ; qtot 0.077894
  246         hc      8    bbb     H9    246 0.06265900   1.008000   ; qtot 0.140553
  247         hc      8    bbb    H10    247 0.06265900   1.008000   ; qtot 0.203212
  248         c3      8    bbb     C6    248 0.11363000  12.010000   ; qtot 0.316842
  249         hc      8    bbb    H11    249 0.06265900   1.008000   ; qtot 0.379501
  250         hc      8    bbb    H12    250 0.06265900   1.008000   ; qtot 0.442160
  251         c3      8    bbb     C7    251 0.05858200  12.010000   ; qtot 0.500742
  252         h1      8    bbb    H13    252 0.06123400   1.008000   ; qtot 0.561976
  253         h1      8    bbb    H14    253 0.06123400   1.008000   ; qtot 0.623210
  254         c3      8    bbb     C8    254 -0.72423400  12.010000   ; qtot -0.101024
  255         h1      8    bbb    H15    255 0.25637600   1.008000   ; qtot 0.155352
  256         h1      8    bbb    H16    256 0.25637600   1.008000   ; qtot 0.411728
  257         c3      8    bbb     C9    257 -0.72423400  12.010000   ; qtot -0.312506
  258         h1      8    bbb    H17    258 0.25637600   1.008000   ; qtot -0.056130
  259         h1      8    bbb    H18    259 0.25637600   1.008000   ; qtot 0.200246
  260         os      8    bbb     O1    260 -0.20025300  16.000000   ; qtot -0.000007
; residue    9 bbb rtp bbb q -0.0
  261         n3      9    bbb     N1    261 -0.59685800  14.010000   ; qtot -0.596865
  262         c3      9    bbb     C1    262 0.10137000  12.010000   ; qtot -0.495495
  263         h1      9    bbb     H1    263 0.04411300   1.008000   ; qtot -0.451382
  264         h1      9    bbb     H2    264 0.04411300   1.008000   ; qtot -0.407269
  265         c3      9    bbb     C2    265 0.10137000  12.010000   ; qtot -0.305899
  266         h1      9    bbb     H3    266 0.04411300   1.008000   ; qtot -0.261786
  267         h1      9    bbb     H4    267 0.04411300   1.008000   ; qtot -0.217673
  268         c3      9    bbb     C3    268 -0.00195300  12.010000   ; qtot -0.219626
  269         h1      9    bbb     H5    269 0.05064400   1.008000   ; qtot -0.168982
  270         h1      9    bbb     H6    270 0.05064400   1.008000   ; qtot -0.118338
  271         c3      9    bbb     C4    271 -0.01612100  12.010000   ; qtot -0.134459
  272         hc      9    bbb     H7    272 0.04936100   1.008000   ; qtot -0.085098
  273         hc      9    bbb     H8    273 0.04936100   1.008000   ; qtot -0.035737
  274         c3      9    bbb     C5    274 0.11363000  12.010000   ; qtot 0.077893
  275         hc      9    bbb     H9    275 0.06265900   1.008000   ; qtot 0.140552
  276         hc      9    bbb    H10    276 0.06265900   1.008000   ; qtot 0.203211
  277         c3      9    bbb     C6    277 0.11363000  12.010000   ; qtot 0.316841
  278         hc      9    bbb    H11    278 0.06265900   1.008000   ; qtot 0.379500
  279         hc      9    bbb    H12    279 0.06265900   1.008000   ; qtot 0.442159
  280         c3      9    bbb     C7    280 0.05858200  12.010000   ; qtot 0.500741
  281         h1      9    bbb    H13    281 0.06123400   1.008000   ; qtot 0.561975
  282         h1      9    bbb    H14    282 0.06123400   1.008000   ; qtot 0.623209
  283         c3      9    bbb     C8    283 -0.72423400  12.010000   ; qtot -0.101025
  284         h1      9    bbb    H15    284 0.25637600   1.008000   ; qtot 0.155351
  285         h1      9    bbb    H16    285 0.25637600   1.008000   ; qtot 0.411727
  286         c3      9    bbb     C9    286 -0.72423400  12.010000   ; qtot -0.312507
  287         h1      9    bbb    H17    287 0.25637600   1.008000   ; qtot -0.056131
  288         h1      9    bbb    H18    288 0.25637600   1.008000   ; qtot 0.200245
  289         os      9    bbb     O1    289 -0.20025300  16.000000   ; qtot -0.000008
; residue   10 bbb rtp bbb q -0.0
  290         n3     10    bbb     N1    290 -0.59685800  14.010000   ; qtot -0.596866
  291         c3     10    bbb     C1    291 0.10137000  12.010000   ; qtot -0.495496
  292         h1     10    bbb     H1    292 0.04411300   1.008000   ; qtot -0.451383
  293         h1     10    bbb     H2    293 0.04411300   1.008000   ; qtot -0.407270
  294         c3     10    bbb     C2    294 0.10137000  12.010000   ; qtot -0.305900
  295         h1     10    bbb     H3    295 0.04411300   1.008000   ; qtot -0.261787
  296         h1     10    bbb     H4    296 0.04411300   1.008000   ; qtot -0.217674
  297         c3     10    bbb     C3    297 -0.00195300  12.010000   ; qtot -0.219627
  298         h1     10    bbb     H5    298 0.05064400   1.008000   ; qtot -0.168983
  299         h1     10    bbb     H6    299 0.05064400   1.008000   ; qtot -0.118339
  300         c3     10    bbb     C4    300 -0.01612100  12.010000   ; qtot -0.134460
  301         hc     10    bbb     H7    301 0.04936100   1.008000   ; qtot -0.085099
  302         hc     10    bbb     H8    302 0.04936100   1.008000   ; qtot -0.035738
  303         c3     10    bbb     C5    303 0.11363000  12.010000   ; qtot 0.077892
  304         hc     10    bbb     H9    304 0.06265900   1.008000   ; qtot 0.140551
  305         hc     10    bbb    H10    305 0.06265900   1.008000   ; qtot 0.203210
  306         c3     10    bbb     C6    306 0.11363000  12.010000   ; qtot 0.316840
  307         hc     10    bbb    H11    307 0.06265900   1.008000   ; qtot 0.379499
  308         hc     10    bbb    H12    308 0.06265900   1.008000   ; qtot 0.442158
  309         c3     10    bbb     C7    309 0.05858200  12.010000   ; qtot 0.500740
  310         h1     10    bbb    H13    310 0.06123400   1.008000   ; qtot 0.561974
  311         h1     10    bbb    H14    311 0.06123400   1.008000   ; qtot 0.623208
  312         c3     10    bbb     C8    312 -0.72423400  12.010000   ; qtot -0.101026
  313         h1     10    bbb    H15    313 0.25637600   1.008000   ; qtot 0.155350
  314         h1     10    bbb    H16    314 0.25637600   1.008000   ; qtot 0.411726
  315         c3     10    bbb     C9    315 -0.72423400  12.010000   ; qtot -0.312508
  316         h1     10    bbb    H17    316 0.25637600   1.008000   ; qtot -0.056132
  317         h1     10    bbb    H18    317 0.25637600   1.008000   ; qtot 0.200244
  318         os     10    bbb     O1    318 -0.20025300  16.000000   ; qtot -0.000009
; residue   11 bbb rtp bbb q -0.0
  319         n3     11    bbb     N1    319 -0.59685800  14.010000   ; qtot -0.596867
  320         c3     11    bbb     C1    320 0.10137000  12.010000   ; qtot -0.495497
  321         h1     11    bbb     H1    321 0.04411300   1.008000   ; qtot -0.451384
  322         h1     11    bbb     H2    322 0.04411300   1.008000   ; qtot -0.407271
  323         c3     11    bbb     C2    323 0.10137000  12.010000   ; qtot -0.305901
  324         h1     11    bbb     H3    324 0.04411300   1.008000   ; qtot -0.261788
  325         h1     11    bbb     H4    325 0.04411300   1.008000   ; qtot -0.217675
  326         c3     11    bbb     C3    326 -0.00195300  12.010000   ; qtot -0.219628
  327         h1     11    bbb     H5    327 0.05064400   1.008000   ; qtot -0.168984
  328         h1     11    bbb     H6    328 0.05064400   1.008000   ; qtot -0.118340
  329         c3     11    bbb     C4    329 -0.01612100  12.010000   ; qtot -0.134461
  330         hc     11    bbb     H7    330 0.04936100   1.008000   ; qtot -0.085100
  331         hc     11    bbb     H8    331 0.04936100   1.008000   ; qtot -0.035739
  332         c3     11    bbb     C5    332 0.11363000  12.010000   ; qtot 0.077891
  333         hc     11    bbb     H9    333 0.06265900   1.008000   ; qtot 0.140550
  334         hc     11    bbb    H10    334 0.06265900   1.008000   ; qtot 0.203209
  335         c3     11    bbb     C6    335 0.11363000  12.010000   ; qtot 0.316839
  336         hc     11    bbb    H11    336 0.06265900   1.008000   ; qtot 0.379498
  337         hc     11    bbb    H12    337 0.06265900   1.008000   ; qtot 0.442157
  338         c3     11    bbb     C7    338 0.05858200  12.010000   ; qtot 0.500739
  339         h1     11    bbb    H13    339 0.06123400   1.008000   ; qtot 0.561973
  340         h1     11    bbb    H14    340 0.06123400   1.008000   ; qtot 0.623207
  341         c3     11    bbb     C8    341 -0.72423400  12.010000   ; qtot -0.101027
  342         h1     11    bbb    H15    342 0.25637600   1.008000   ; qtot 0.155349
  343         h1     11    bbb    H16    343 0.25637600   1.008000   ; qtot 0.411725
  344         c3     11    bbb     C9    344 -0.72423400  12.010000   ; qtot -0.312509
  345         h1     11    bbb    H17    345 0.25637600   1.008000   ; qtot -0.056133
  346         h1     11    bbb    H18    346 0.25637600   1.008000   ; qtot 0.200243
  347         os     11    bbb     O1    347 -0.20025300  16.000000   ; qtot -0.000010
; residue   12 bbb rtp bbb q -0.0
  348         n3     12    bbb     N1    348 -0.59685800  14.010000   ; qtot -0.596868
  349         c3     12    bbb     C1    349 0.10137000  12.010000   ; qtot -0.495498
  350         h1     12    bbb     H1    350 0.04411300   1.008000   ; qtot -0.451385
  351         h1     12    bbb     H2    351 0.04411300   1.008000   ; qtot -0.407272
  352         c3     12    bbb     C2    352 0.10137000  12.010000   ; qtot -0.305902
  353         h1     12    bbb     H3    353 0.04411300   1.008000   ; qtot -0.261789
  354         h1     12    bbb     H4    354 0.04411300   1.008000   ; qtot -0.217676
  355         c3     12    bbb     C3    355 -0.00195300  12.010000   ; qtot -0.219629
  356         h1     12    bbb     H5    356 0.05064400   1.008000   ; qtot -0.168985
  357         h1     12    bbb     H6    357 0.05064400   1.008000   ; qtot -0.118341
  358         c3     12    bbb     C4    358 -0.01612100  12.010000   ; qtot -0.134462
  359         hc     12    bbb     H7    359 0.04936100   1.008000   ; qtot -0.085101
  360         hc     12    bbb     H8    360 0.04936100   1.008000   ; qtot -0.035740
  361         c3     12    bbb     C5    361 0.11363000  12.010000   ; qtot 0.077890
  362         hc     12    bbb     H9    362 0.06265900   1.008000   ; qtot 0.140549
  363         hc     12    bbb    H10    363 0.06265900   1.008000   ; qtot 0.203208
  364         c3     12    bbb     C6    364 0.11363000  12.010000   ; qtot 0.316838
  365         hc     12    bbb    H11    365 0.06265900   1.008000   ; qtot 0.379497
  366         hc     12    bbb    H12    366 0.06265900   1.008000   ; qtot 0.442156
  367         c3     12    bbb     C7    367 0.05858200  12.010000   ; qtot 0.500738
  368         h1     12    bbb    H13    368 0.06123400   1.008000   ; qtot 0.561972
  369         h1     12    bbb    H14    369 0.06123400   1.008000   ; qtot 0.623206
  370         c3     12    bbb     C8    370 -0.72423400  12.010000   ; qtot -0.101028
  371         h1     12    bbb    H15    371 0.25637600   1.008000   ; qtot 0.155348
  372         h1     12    bbb    H16    372 0.25637600   1.008000   ; qtot 0.411724
  373         c3     12    bbb     C9    373 -0.72423400  12.010000   ; qtot -0.312510
  374         h1     12    bbb    H17    374 0.25637600   1.008000   ; qtot -0.056134
  375         h1     12    bbb    H18    375 0.25637600   1.008000   ; qtot 0.200242
  376         os     12    bbb     O1    376 -0.20025300  16.000000   ; qtot -0.000011
; residue   13 bbb rtp bbb q -0.0
  377         n3     13    bbb     N1    377 -0.59685800  14.010000   ; qtot -0.596869
  378         c3     13    bbb     C1    378 0.10137000  12.010000   ; qtot -0.495499
  379         h1     13    bbb     H1    379 0.04411300   1.008000   ; qtot -0.451386
  380         h1     13    bbb     H2    380 0.04411300   1.008000   ; qtot -0.407273
  381         c3     13    bbb     C2    381 0.10137000  12.010000   ; qtot -0.305903
  382         h1     13    bbb     H3    382 0.04411300   1.008000   ; qtot -0.261790
  383         h1     13    bbb     H4    383 0.04411300   1.008000   ; qtot -0.217677
  384         c3     13    bbb     C3    384 -0.00195300  12.010000   ; qtot -0.219630
  385         h1     13    bbb     H5    385 0.05064400   1.008000   ; qtot -0.168986
  386         h1     13    bbb     H6    386 0.05064400   1.008000   ; qtot -0.118342
  387         c3     13    bbb     C4    387 -0.01612100  12.010000   ; qtot -0.134463
  388         hc     13    bbb     H7    388 0.04936100   1.008000   ; qtot -0.085102
  389         hc     13    bbb     H8    389 0.04936100   1.008000   ; qtot -0.035741
  390         c3     13    bbb     C5    390 0.11363000  12.010000   ; qtot 0.077889
  391         hc     13    bbb     H9    391 0.06265900   1.008000   ; qtot 0.140548
  392         hc     13    bbb    H10    392 0.06265900   1.008000   ; qtot 0.203207
  393         c3     13    bbb     C6    393 0.11363000  12.010000   ; qtot 0.316837
  394         hc     13    bbb    H11    394 0.06265900   1.008000   ; qtot 0.379496
  395         hc     13    bbb    H12    395 0.06265900   1.008000   ; qtot 0.442155
  396         c3     13    bbb     C7    396 0.05858200  12.010000   ; qtot 0.500737
  397         h1     13    bbb    H13    397 0.06123400   1.008000   ; qtot 0.561971
  398         h1     13    bbb    H14    398 0.06123400   1.008000   ; qtot 0.623205
  399         c3     13    bbb     C8    399 -0.72423400  12.010000   ; qtot -0.101029
  400         h1     13    bbb    H15    400 0.25637600   1.008000   ; qtot 0.155347
  401         h1     13    bbb    H16    401 0.25637600   1.008000   ; qtot 0.411723
  402         c3     13    bbb     C9    402 -0.72423400  12.010000   ; qtot -0.312511
  403         h1     13    bbb    H17    403 0.25637600   1.008000   ; qtot -0.056135
  404         h1     13    bbb    H18    404 0.25637600   1.008000   ; qtot 0.200241
  405         os     13    bbb     O1    405 -0.20025300  16.000000   ; qtot -0.000012
; residue   14 bbb rtp bbb q -0.0
  406         n3     14    bbb     N1    406 -0.59685800  14.010000   ; qtot -0.596870
  407         c3     14    bbb     C1    407 0.10137000  12.010000   ; qtot -0.495500
  408         h1     14    bbb     H1    408 0.04411300   1.008000   ; qtot -0.451387
  409         h1     14    bbb     H2    409 0.04411300   1.008000   ; qtot -0.407274
  410         c3     14    bbb     C2    410 0.10137000  12.010000   ; qtot -0.305904
  411         h1     14    bbb     H3    411 0.04411300   1.008000   ; qtot -0.261791
  412         h1     14    bbb     H4    412 0.04411300   1.008000   ; qtot -0.217678
  413         c3     14    bbb     C3    413 -0.00195300  12.010000   ; qtot -0.219631
  414         h1     14    bbb     H5    414 0.05064400   1.008000   ; qtot -0.168987
  415         h1     14    bbb     H6    415 0.05064400   1.008000   ; qtot -0.118343
  416         c3     14    bbb     C4    416 -0.01612100  12.010000   ; qtot -0.134464
  417         hc     14    bbb     H7    417 0.04936100   1.008000   ; qtot -0.085103
  418         hc     14    bbb     H8    418 0.04936100   1.008000   ; qtot -0.035742
  419         c3     14    bbb     C5    419 0.11363000  12.010000   ; qtot 0.077888
  420         hc     14    bbb     H9    420 0.06265900   1.008000   ; qtot 0.140547
  421         hc     14    bbb    H10    421 0.06265900   1.008000   ; qtot 0.203206
  422         c3     14    bbb     C6    422 0.11363000  12.010000   ; qtot 0.316836
  423         hc     14    bbb    H11    423 0.06265900   1.008000   ; qtot 0.379495
  424         hc     14    bbb    H12    424 0.06265900   1.008000   ; qtot 0.442154
  425         c3     14    bbb     C7    425 0.05858200  12.010000   ; qtot 0.500736
  426         h1     14    bbb    H13    426 0.06123400   1.008000   ; qtot 0.561970
  427         h1     14    bbb    H14    427 0.06123400   1.008000   ; qtot 0.623204
  428         c3     14    bbb     C8    428 -0.72423400  12.010000   ; qtot -0.101030
  429         h1     14    bbb    H15    429 0.25637600   1.008000   ; qtot 0.155346
  430         h1     14    bbb    H16    430 0.25637600   1.008000   ; qtot 0.411722
  431         c3     14    bbb     C9    431 -0.72423400  12.010000   ; qtot -0.312512
  432         h1     14    bbb    H17    432 0.25637600   1.008000   ; qtot -0.056136
  433         h1     14    bbb    H18    433 0.25637600   1.008000   ; qtot 0.200240
  434         os     14    bbb     O1    434 -0.20025300  16.000000   ; qtot -0.000013
; residue   15 bbb rtp bbb q -0.0
  435         n3     15    bbb     N1    435 -0.59685800  14.010000   ; qtot -0.596871
  436         c3     15    bbb     C1    436 0.10137000  12.010000   ; qtot -0.495501
  437         h1     15    bbb     H1    437 0.04411300   1.008000   ; qtot -0.451388
  438         h1     15    bbb     H2    438 0.04411300   1.008000   ; qtot -0.407275
  439         c3     15    bbb     C2    439 0.10137000  12.010000   ; qtot -0.305905
  440         h1     15    bbb     H3    440 0.04411300   1.008000   ; qtot -0.261792
  441         h1     15    bbb     H4    441 0.04411300   1.008000   ; qtot -0.217679
  442         c3     15    bbb     C3    442 -0.00195300  12.010000   ; qtot -0.219632
  443         h1     15    bbb     H5    443 0.05064400   1.008000   ; qtot -0.168988
  444         h1     15    bbb     H6    444 0.05064400   1.008000   ; qtot -0.118344
  445         c3     15    bbb     C4    445 -0.01612100  12.010000   ; qtot -0.134465
  446         hc     15    bbb     H7    446 0.04936100   1.008000   ; qtot -0.085104
  447         hc     15    bbb     H8    447 0.04936100   1.008000   ; qtot -0.035743
  448         c3     15    bbb     C5    448 0.11363000  12.010000   ; qtot 0.077887
  449         hc     15    bbb     H9    449 0.06265900   1.008000   ; qtot 0.140546
  450         hc     15    bbb    H10    450 0.06265900   1.008000   ; qtot 0.203205
  451         c3     15    bbb     C6    451 0.11363000  12.010000   ; qtot 0.316835
  452         hc     15    bbb    H11    452 0.06265900   1.008000   ; qtot 0.379494
  453         hc     15    bbb    H12    453 0.06265900   1.008000   ; qtot 0.442153
  454         c3     15    bbb     C7    454 0.05858200  12.010000   ; qtot 0.500735
  455         h1     15    bbb    H13    455 0.06123400   1.008000   ; qtot 0.561969
  456         h1     15    bbb    H14    456 0.06123400   1.008000   ; qtot 0.623203
  457         c3     15    bbb     C8    457 -0.72423400  12.010000   ; qtot -0.101031
  458         h1     15    bbb    H15    458 0.25637600   1.008000   ; qtot 0.155345
  459         h1     15    bbb    H16    459 0.25637600   1.008000   ; qtot 0.411721
  460         c3     15    bbb     C9    460 -0.72423400  12.010000   ; qtot -0.312513
  461         h1     15    bbb    H17    461 0.25637600   1.008000   ; qtot -0.056137
  462         h1     15    bbb    H18    462 0.25637600   1.008000   ; qtot 0.200239
  463         os     15    bbb     O1    463 -0.20025300  16.000000   ; qtot -0.000014
; residue   16 bbb rtp bbb q -0.0
  464         n3     16    bbb     N1    464 -0.59685800  14.010000   ; qtot -0.596872
  465         c3     16    bbb     C1    465 0.10137000  12.010000   ; qtot -0.495502
  466         h1     16    bbb     H1    466 0.04411300   1.008000   ; qtot -0.451389
  467         h1     16    bbb     H2    467 0.04411300   1.008000   ; qtot -0.407276
  468         c3     16    bbb     C2    468 0.10137000  12.010000   ; qtot -0.305906
  469         h1     16    bbb     H3    469 0.04411300   1.008000   ; qtot -0.261793
  470         h1     16    bbb     H4    470 0.04411300   1.008000   ; qtot -0.217680
  471         c3     16    bbb     C3    471 -0.00195300  12.010000   ; qtot -0.219633
  472         h1     16    bbb     H5    472 0.05064400   1.008000   ; qtot -0.168989
  473         h1     16    bbb     H6    473 0.05064400   1.008000   ; qtot -0.118345
  474         c3     16    bbb     C4    474 -0.01612100  12.010000   ; qtot -0.134466
  475         hc     16    bbb     H7    475 0.04936100   1.008000   ; qtot -0.085105
  476         hc     16    bbb     H8    476 0.04936100   1.008000   ; qtot -0.035744
  477         c3     16    bbb     C5    477 0.11363000  12.010000   ; qtot 0.077886
  478         hc     16    bbb     H9    478 0.06265900   1.008000   ; qtot 0.140545
  479         hc     16    bbb    H10    479 0.06265900   1.008000   ; qtot 0.203204
  480         c3     16    bbb     C6    480 0.11363000  12.010000   ; qtot 0.316834
  481         hc     16    bbb    H11    481 0.06265900   1.008000   ; qtot 0.379493
  482         hc     16    bbb    H12    482 0.06265900   1.008000   ; qtot 0.442152
  483         c3     16    bbb     C7    483 0.05858200  12.010000   ; qtot 0.500734
  484         h1     16    bbb    H13    484 0.06123400   1.008000   ; qtot 0.561968
  485         h1     16    bbb    H14    485 0.06123400   1.008000   ; qtot 0.623202
  486         c3     16    bbb     C8    486 -0.72423400  12.010000   ; qtot -0.101032
  487         h1     16    bbb    H15    487 0.25637600   1.008000   ; qtot 0.155344
  488         h1     16    bbb    H16    488 0.25637600   1.008000   ; qtot 0.411720
  489         c3     16    bbb     C9    489 -0.72423400  12.010000   ; qtot -0.312514
  490         h1     16    bbb    H17    490 0.25637600   1.008000   ; qtot -0.056138
  491         h1     16    bbb    H18    491 0.25637600   1.008000   ; qtot 0.200238
  492         os     16    bbb     O1    492 -0.20025300  16.000000   ; qtot -0.000015
; residue   17 bbb rtp bbb q -0.0
  493         n3     17    bbb     N1    493 -0.59685800  14.010000   ; qtot -0.596873
  494         c3     17    bbb     C1    494 0.10137000  12.010000   ; qtot -0.495503
  495         h1     17    bbb     H1    495 0.04411300   1.008000   ; qtot -0.451390
  496         h1     17    bbb     H2    496 0.04411300   1.008000   ; qtot -0.407277
  497         c3     17    bbb     C2    497 0.10137000  12.010000   ; qtot -0.305907
  498         h1     17    bbb     H3    498 0.04411300   1.008000   ; qtot -0.261794
  499         h1     17    bbb     H4    499 0.04411300   1.008000   ; qtot -0.217681
  500         c3     17    bbb     C3    500 -0.00195300  12.010000   ; qtot -0.219634
  501         h1     17    bbb     H5    501 0.05064400   1.008000   ; qtot -0.168990
  502         h1     17    bbb     H6    502 0.05064400   1.008000   ; qtot -0.118346
  503         c3     17    bbb     C4    503 -0.01612100  12.010000   ; qtot -0.134467
  504         hc     17    bbb     H7    504 0.04936100   1.008000   ; qtot -0.085106
  505         hc     17    bbb     H8    505 0.04936100   1.008000   ; qtot -0.035745
  506         c3     17    bbb     C5    506 0.11363000  12.010000   ; qtot 0.077885
  507         hc     17    bbb     H9    507 0.06265900   1.008000   ; qtot 0.140544
  508         hc     17    bbb    H10    508 0.06265900   1.008000   ; qtot 0.203203
  509         c3     17    bbb     C6    509 0.11363000  12.010000   ; qtot 0.316833
  510         hc     17    bbb    H11    510 0.06265900   1.008000   ; qtot 0.379492
  511         hc     17    bbb    H12    511 0.06265900   1.008000   ; qtot 0.442151
  512         c3     17    bbb     C7    512 0.05858200  12.010000   ; qtot 0.500733
  513         h1     17    bbb    H13    513 0.06123400   1.008000   ; qtot 0.561967
  514         h1     17    bbb    H14    514 0.06123400   1.008000   ; qtot 0.623201
  515         c3     17    bbb     C8    515 -0.72423400  12.010000   ; qtot -0.101033
  516         h1     17    bbb    H15    516 0.25637600   1.008000   ; qtot 0.155343
  517         h1     17    bbb    H16    517 0.25637600   1.008000   ; qtot 0.411719
  518         c3     17    bbb     C9    518 -0.72423400  12.010000   ; qtot -0.312515
  519         h1     17    bbb    H17    519 0.25637600   1.008000   ; qtot -0.056139
  520         h1     17    bbb    H18    520 0.25637600   1.008000   ; qtot 0.200237
  521         os     17    bbb     O1    521 -0.20025300  16.000000   ; qtot -0.000016
; residue   18 bbb rtp bbb q -0.0
  522         n3     18    bbb     N1    522 -0.59685800  14.010000   ; qtot -0.596874
  523         c3     18    bbb     C1    523 0.10137000  12.010000   ; qtot -0.495504
  524         h1     18    bbb     H1    524 0.04411300   1.008000   ; qtot -0.451391
  525         h1     18    bbb     H2    525 0.04411300   1.008000   ; qtot -0.407278
  526         c3     18    bbb     C2    526 0.10137000  12.010000   ; qtot -0.305908
  527         h1     18    bbb     H3    527 0.04411300   1.008000   ; qtot -0.261795
  528         h1     18    bbb     H4    528 0.04411300   1.008000   ; qtot -0.217682
  529         c3     18    bbb     C3    529 -0.00195300  12.010000   ; qtot -0.219635
  530         h1     18    bbb     H5    530 0.05064400   1.008000   ; qtot -0.168991
  531         h1     18    bbb     H6    531 0.05064400   1.008000   ; qtot -0.118347
  532         c3     18    bbb     C4    532 -0.01612100  12.010000   ; qtot -0.134468
  533         hc     18    bbb     H7    533 0.04936100   1.008000   ; qtot -0.085107
  534         hc     18    bbb     H8    534 0.04936100   1.008000   ; qtot -0.035746
  535         c3     18    bbb     C5    535 0.11363000  12.010000   ; qtot 0.077884
  536         hc     18    bbb     H9    536 0.06265900   1.008000   ; qtot 0.140543
  537         hc     18    bbb    H10    537 0.06265900   1.008000   ; qtot 0.203202
  538         c3     18    bbb     C6    538 0.11363000  12.010000   ; qtot 0.316832
  539         hc     18    bbb    H11    539 0.06265900   1.008000   ; qtot 0.379491
  540         hc     18    bbb    H12    540 0.06265900   1.008000   ; qtot 0.442150
  541         c3     18    bbb     C7    541 0.05858200  12.010000   ; qtot 0.500732
  542         h1     18    bbb    H13    542 0.06123400   1.008000   ; qtot 0.561966
  543         h1     18    bbb    H14    543 0.06123400   1.008000   ; qtot 0.623200
  544         c3     18    bbb     C8    544 -0.72423400  12.010000   ; qtot -0.101034
  545         h1     18    bbb    H15    545 0.25637600   1.008000   ; qtot 0.155342
  546         h1     18    bbb    H16    546 0.25637600   1.008000   ; qtot 0.411718
  547         c3     18    bbb     C9    547 -0.72423400  12.010000   ; qtot -0.312516
  548         h1     18    bbb    H17    548 0.25637600   1.008000   ; qtot -0.056140
  549         h1     18    bbb    H18    549 0.25637600   1.008000   ; qtot 0.200236
  550         os     18    bbb     O1    550 -0.20025300  16.000000   ; qtot -0.000017
; residue   19 bbb rtp bbb q -0.0
  551         n3     19    bbb     N1    551 -0.59685800  14.010000   ; qtot -0.596875
  552         c3     19    bbb     C1    552 0.10137000  12.010000   ; qtot -0.495505
  553         h1     19    bbb     H1    553 0.04411300   1.008000   ; qtot -0.451392
  554         h1     19    bbb     H2    554 0.04411300   1.008000   ; qtot -0.407279
  555         c3     19    bbb     C2    555 0.10137000  12.010000   ; qtot -0.305909
  556         h1     19    bbb     H3    556 0.04411300   1.008000   ; qtot -0.261796
  557         h1     19    bbb     H4    557 0.04411300   1.008000   ; qtot -0.217683
  558         c3     19    bbb     C3    558 -0.00195300  12.010000   ; qtot -0.219636
  559         h1     19    bbb     H5    559 0.05064400   1.008000   ; qtot -0.168992
  560         h1     19    bbb     H6    560 0.05064400   1.008000   ; qtot -0.118348
  561         c3     19    bbb     C4    561 -0.01612100  12.010000   ; qtot -0.134469
  562         hc     19    bbb     H7    562 0.04936100   1.008000   ; qtot -0.085108
  563         hc     19    bbb     H8    563 0.04936100   1.008000   ; qtot -0.035747
  564         c3     19    bbb     C5    564 0.11363000  12.010000   ; qtot 0.077883
  565         hc     19    bbb     H9    565 0.06265900   1.008000   ; qtot 0.140542
  566         hc     19    bbb    H10    566 0.06265900   1.008000   ; qtot 0.203201
  567         c3     19    bbb     C6    567 0.11363000  12.010000   ; qtot 0.316831
  568         hc     19    bbb    H11    568 0.06265900   1.008000   ; qtot 0.379490
  569         hc     19    bbb    H12    569 0.06265900   1.008000   ; qtot 0.442149
  570         c3     19    bbb     C7    570 0.05858200  12.010000   ; qtot 0.500731
  571         h1     19    bbb    H13    571 0.06123400   1.008000   ; qtot 0.561965
  572         h1     19    bbb    H14    572 0.06123400   1.008000   ; qtot 0.623199
  573         c3     19    bbb     C8    573 -0.72423400  12.010000   ; qtot -0.101035
  574         h1     19    bbb    H15    574 0.25637600   1.008000   ; qtot 0.155341
  575         h1     19    bbb    H16    575 0.25637600   1.008000   ; qtot 0.411717
  576         c3     19    bbb     C9    576 -0.72423400  12.010000   ; qtot -0.312517
  577         h1     19    bbb    H17    577 0.25637600   1.008000   ; qtot -0.056141
  578         h1     19    bbb    H18    578 0.25637600   1.008000   ; qtot 0.200235
  579         os     19    bbb     O1    579 -0.20025300  16.000000   ; qtot -0.000018
; residue   20 bbb rtp bbb q -0.0
  580         n3     20    bbb     N1    580 -0.59685800  14.010000   ; qtot -0.596876
  581         c3     20    bbb     C1    581 0.10137000  12.010000   ; qtot -0.495506
  582         h1     20    bbb     H1    582 0.04411300   1.008000   ; qtot -0.451393
  583         h1     20    bbb     H2    583 0.04411300   1.008000   ; qtot -0.407280
  584         c3     20    bbb     C2    584 0.10137000  12.010000   ; qtot -0.305910
  585         h1     20    bbb     H3    585 0.04411300   1.008000   ; qtot -0.261797
  586         h1     20    bbb     H4    586 0.04411300   1.008000   ; qtot -0.217684
  587         c3     20    bbb     C3    587 -0.00195300  12.010000   ; qtot -0.219637
  588         h1     20    bbb     H5    588 0.05064400   1.008000   ; qtot -0.168993
  589         h1     20    bbb     H6    589 0.05064400   1.008000   ; qtot -0.118349
  590         c3     20    bbb     C4    590 -0.01612100  12.010000   ; qtot -0.134470
  591         hc     20    bbb     H7    591 0.04936100   1.008000   ; qtot -0.085109
  592         hc     20    bbb     H8    592 0.04936100   1.008000   ; qtot -0.035748
  593         c3     20    bbb     C5    593 0.11363000  12.010000   ; qtot 0.077882
  594         hc     20    bbb     H9    594 0.06265900   1.008000   ; qtot 0.140541
  595         hc     20    bbb    H10    595 0.06265900   1.008000   ; qtot 0.203200
  596         c3     20    bbb     C6    596 0.11363000  12.010000   ; qtot 0.316830
  597         hc     20    bbb    H11    597 0.06265900   1.008000   ; qtot 0.379489
  598         hc     20    bbb    H12    598 0.06265900   1.008000   ; qtot 0.442148
  599         c3     20    bbb     C7    599 0.05858200  12.010000   ; qtot 0.500730
  600         h1     20    bbb    H13    600 0.06123400   1.008000   ; qtot 0.561964
  601         h1     20    bbb    H14    601 0.06123400   1.008000   ; qtot 0.623198
  602         c3     20    bbb     C8    602 -0.72423400  12.010000   ; qtot -0.101036
  603         h1     20    bbb    H15    603 0.25637600   1.008000   ; qtot 0.155340
  604         h1     20    bbb    H16    604 0.25637600   1.008000   ; qtot 0.411716
  605         c3     20    bbb     C9    605 -0.72423400  12.010000   ; qtot -0.312518
  606         h1     20    bbb    H17    606 0.25637600   1.008000   ; qtot -0.056142
  607         h1     20    bbb    H18    607 0.25637600   1.008000   ; qtot 0.200234
  608         os     20    bbb     O1    608 -0.20025300  16.000000   ; qtot -0.000019
; residue   21 bbb rtp bbb q -0.0
  609         n3     21    bbb     N1    609 -0.59685800  14.010000   ; qtot -0.596877
  610         c3     21    bbb     C1    610 0.10137000  12.010000   ; qtot -0.495507
  611         h1     21    bbb     H1    611 0.04411300   1.008000   ; qtot -0.451394
  612         h1     21    bbb     H2    612 0.04411300   1.008000   ; qtot -0.407281
  613         c3     21    bbb     C2    613 0.10137000  12.010000   ; qtot -0.305911
  614         h1     21    bbb     H3    614 0.04411300   1.008000   ; qtot -0.261798
  615         h1     21    bbb     H4    615 0.04411300   1.008000   ; qtot -0.217685
  616         c3     21    bbb     C3    616 -0.00195300  12.010000   ; qtot -0.219638
  617         h1     21    bbb     H5    617 0.05064400   1.008000   ; qtot -0.168994
  618         h1     21    bbb     H6    618 0.05064400   1.008000   ; qtot -0.118350
  619         c3     21    bbb     C4    619 -0.01612100  12.010000   ; qtot -0.134471
  620         hc     21    bbb     H7    620 0.04936100   1.008000   ; qtot -0.085110
  621         hc     21    bbb     H8    621 0.04936100   1.008000   ; qtot -0.035749
  622         c3     21    bbb     C5    622 0.11363000  12.010000   ; qtot 0.077881
  623         hc     21    bbb     H9    623 0.06265900   1.008000   ; qtot 0.140540
  624         hc     21    bbb    H10    624 0.06265900   1.008000   ; qtot 0.203199
  625         c3     21    bbb     C6    625 0.11363000  12.010000   ; qtot 0.316829
  626         hc     21    bbb    H11    626 0.06265900   1.008000   ; qtot 0.379488
  627         hc     21    bbb    H12    627 0.06265900   1.008000   ; qtot 0.442147
  628         c3     21    bbb     C7    628 0.05858200  12.010000   ; qtot 0.500729
  629         h1     21    bbb    H13    629 0.06123400   1.008000   ; qtot 0.561963
  630         h1     21    bbb    H14    630 0.06123400   1.008000   ; qtot 0.623197
  631         c3     21    bbb     C8    631 -0.72423400  12.010000   ; qtot -0.101037
  632         h1     21    bbb    H15    632 0.25637600   1.008000   ; qtot 0.155339
  633         h1     21    bbb    H16    633 0.25637600   1.008000   ; qtot 0.411715
  634         c3     21    bbb     C9    634 -0.72423400  12.010000   ; qtot -0.312519
  635         h1     21    bbb    H17    635 0.25637600   1.008000   ; qtot -0.056143
  636         h1     21    bbb    H18    636 0.25637600   1.008000   ; qtot 0.200233
  637         os     21    bbb     O1    637 -0.20025300  16.000000   ; qtot -0.000020
; residue   22 bbb rtp bbb q -0.0
  638         n3     22    bbb     N1    638 -0.59685800  14.010000   ; qtot -0.596878
  639         c3     22    bbb     C1    639 0.10137000  12.010000   ; qtot -0.495508
  640         h1     22    bbb     H1    640 0.04411300   1.008000   ; qtot -0.451395
  641         h1     22    bbb     H2    641 0.04411300   1.008000   ; qtot -0.407282
  642         c3     22    bbb     C2    642 0.10137000  12.010000   ; qtot -0.305912
  643         h1     22    bbb     H3    643 0.04411300   1.008000   ; qtot -0.261799
  644         h1     22    bbb     H4    644 0.04411300   1.008000   ; qtot -0.217686
  645         c3     22    bbb     C3    645 -0.00195300  12.010000   ; qtot -0.219639
  646         h1     22    bbb     H5    646 0.05064400   1.008000   ; qtot -0.168995
  647         h1     22    bbb     H6    647 0.05064400   1.008000   ; qtot -0.118351
  648         c3     22    bbb     C4    648 -0.01612100  12.010000   ; qtot -0.134472
  649         hc     22    bbb     H7    649 0.04936100   1.008000   ; qtot -0.085111
  650         hc     22    bbb     H8    650 0.04936100   1.008000   ; qtot -0.035750
  651         c3     22    bbb     C5    651 0.11363000  12.010000   ; qtot 0.077880
  652         hc     22    bbb     H9    652 0.06265900   1.008000   ; qtot 0.140539
  653         hc     22    bbb    H10    653 0.06265900   1.008000   ; qtot 0.203198
  654         c3     22    bbb     C6    654 0.11363000  12.010000   ; qtot 0.316828
  655         hc     22    bbb    H11    655 0.06265900   1.008000   ; qtot 0.379487
  656         hc     22    bbb    H12    656 0.06265900   1.008000   ; qtot 0.442146
  657         c3     22    bbb     C7    657 0.05858200  12.010000   ; qtot 0.500728
  658         h1     22    bbb    H13    658 0.06123400   1.008000   ; qtot 0.561962
  659         h1     22    bbb    H14    659 0.06123400   1.008000   ; qtot 0.623196
  660         c3     22    bbb     C8    660 -0.72423400  12.010000   ; qtot -0.101038
  661         h1     22    bbb    H15    661 0.25637600   1.008000   ; qtot 0.155338
  662         h1     22    bbb    H16    662 0.25637600   1.008000   ; qtot 0.411714
  663         c3     22    bbb     C9    663 -0.72423400  12.010000   ; qtot -0.312520
  664         h1     22    bbb    H17    664 0.25637600   1.008000   ; qtot -0.056144
  665         h1     22    bbb    H18    665 0.25637600   1.008000   ; qtot 0.200232
  666         os     22    bbb     O1    666 -0.20025300  16.000000   ; qtot -0.000021
; residue   23 bbb rtp bbb q -0.0
  667         n3     23    bbb     N1    667 -0.59685800  14.010000   ; qtot -0.596879
  668         c3     23    bbb     C1    668 0.10137000  12.010000   ; qtot -0.495509
  669         h1     23    bbb     H1    669 0.04411300   1.008000   ; qtot -0.451396
  670         h1     23    bbb     H2    670 0.04411300   1.008000   ; qtot -0.407283
  671         c3     23    bbb     C2    671 0.10137000  12.010000   ; qtot -0.305913
  672         h1     23    bbb     H3    672 0.04411300   1.008000   ; qtot -0.261800
  673         h1     23    bbb     H4    673 0.04411300   1.008000   ; qtot -0.217687
  674         c3     23    bbb     C3    674 -0.00195300  12.010000   ; qtot -0.219640
  675         h1     23    bbb     H5    675 0.05064400   1.008000   ; qtot -0.168996
  676         h1     23    bbb     H6    676 0.05064400   1.008000   ; qtot -0.118352
  677         c3     23    bbb     C4    677 -0.01612100  12.010000   ; qtot -0.134473
  678         hc     23    bbb     H7    678 0.04936100   1.008000   ; qtot -0.085112
  679         hc     23    bbb     H8    679 0.04936100   1.008000   ; qtot -0.035751
  680         c3     23    bbb     C5    680 0.11363000  12.010000   ; qtot 0.077879
  681         hc     23    bbb     H9    681 0.06265900   1.008000   ; qtot 0.140538
  682         hc     23    bbb    H10    682 0.06265900   1.008000   ; qtot 0.203197
  683         c3     23    bbb     C6    683 0.11363000  12.010000   ; qtot 0.316827
  684         hc     23    bbb    H11    684 0.06265900   1.008000   ; qtot 0.379486
  685         hc     23    bbb    H12    685 0.06265900   1.008000   ; qtot 0.442145
  686         c3     23    bbb     C7    686 0.05858200  12.010000   ; qtot 0.500727
  687         h1     23    bbb    H13    687 0.06123400   1.008000   ; qtot 0.561961
  688         h1     23    bbb    H14    688 0.06123400   1.008000   ; qtot 0.623195
  689         c3     23    bbb     C8    689 -0.72423400  12.010000   ; qtot -0.101039
  690         h1     23    bbb    H15    690 0.25637600   1.008000   ; qtot 0.155337
  691         h1     23    bbb    H16    691 0.25637600   1.008000   ; qtot 0.411713
  692         c3     23    bbb     C9    692 -0.72423400  12.010000   ; qtot -0.312521
  693         h1     23    bbb    H17    693 0.25637600   1.008000   ; qtot -0.056145
  694         h1     23    bbb    H18    694 0.25637600   1.008000   ; qtot 0.200231
  695         os     23    bbb     O1    695 -0.20025300  16.000000   ; qtot -0.000022
; residue   24 bbb rtp bbb q -0.0
  696         n3     24    bbb     N1    696 -0.59685800  14.010000   ; qtot -0.596880
  697         c3     24    bbb     C1    697 0.10137000  12.010000   ; qtot -0.495510
  698         h1     24    bbb     H1    698 0.04411300   1.008000   ; qtot -0.451397
  699         h1     24    bbb     H2    699 0.04411300   1.008000   ; qtot -0.407284
  700         c3     24    bbb     C2    700 0.10137000  12.010000   ; qtot -0.305914
  701         h1     24    bbb     H3    701 0.04411300   1.008000   ; qtot -0.261801
  702         h1     24    bbb     H4    702 0.04411300   1.008000   ; qtot -0.217688
  703         c3     24    bbb     C3    703 -0.00195300  12.010000   ; qtot -0.219641
  704         h1     24    bbb     H5    704 0.05064400   1.008000   ; qtot -0.168997
  705         h1     24    bbb     H6    705 0.05064400   1.008000   ; qtot -0.118353
  706         c3     24    bbb     C4    706 -0.01612100  12.010000   ; qtot -0.134474
  707         hc     24    bbb     H7    707 0.04936100   1.008000   ; qtot -0.085113
  708         hc     24    bbb     H8    708 0.04936100   1.008000   ; qtot -0.035752
  709         c3     24    bbb     C5    709 0.11363000  12.010000   ; qtot 0.077878
  710         hc     24    bbb     H9    710 0.06265900   1.008000   ; qtot 0.140537
  711         hc     24    bbb    H10    711 0.06265900   1.008000   ; qtot 0.203196
  712         c3     24    bbb     C6    712 0.11363000  12.010000   ; qtot 0.316826
  713         hc     24    bbb    H11    713 0.06265900   1.008000   ; qtot 0.379485
  714         hc     24    bbb    H12    714 0.06265900   1.008000   ; qtot 0.442144
  715         c3     24    bbb     C7    715 0.05858200  12.010000   ; qtot 0.500726
  716         h1     24    bbb    H13    716 0.06123400   1.008000   ; qtot 0.561960
  717         h1     24    bbb    H14    717 0.06123400   1.008000   ; qtot 0.623194
  718         c3     24    bbb     C8    718 -0.72423400  12.010000   ; qtot -0.101040
  719         h1     24    bbb    H15    719 0.25637600   1.008000   ; qtot 0.155336
  720         h1     24    bbb    H16    720 0.25637600   1.008000   ; qtot 0.411712
  721         c3     24    bbb     C9    721 -0.72423400  12.010000   ; qtot -0.312522
  722         h1     24    bbb    H17    722 0.25637600   1.008000   ; qtot -0.056146
  723         h1     24    bbb    H18    723 0.25637600   1.008000   ; qtot 0.200230
  724         os     24    bbb     O1    724 -0.20025300  16.000000   ; qtot -0.000023
; residue   25 bbb rtp bbb q -0.0
  725         n3     25    bbb     N1    725 -0.59685800  14.010000   ; qtot -0.596881
  726         c3     25    bbb     C1    726 0.10137000  12.010000   ; qtot -0.495511
  727         h1     25    bbb     H1    727 0.04411300   1.008000   ; qtot -0.451398
  728         h1     25    bbb     H2    728 0.04411300   1.008000   ; qtot -0.407285
  729         c3     25    bbb     C2    729 0.10137000  12.010000   ; qtot -0.305915
  730         h1     25    bbb     H3    730 0.04411300   1.008000   ; qtot -0.261802
  731         h1     25    bbb     H4    731 0.04411300   1.008000   ; qtot -0.217689
  732         c3     25    bbb     C3    732 -0.00195300  12.010000   ; qtot -0.219642
  733         h1     25    bbb     H5    733 0.05064400   1.008000   ; qtot -0.168998
  734         h1     25    bbb     H6    734 0.05064400   1.008000   ; qtot -0.118354
  735         c3     25    bbb     C4    735 -0.01612100  12.010000   ; qtot -0.134475
  736         hc     25    bbb     H7    736 0.04936100   1.008000   ; qtot -0.085114
  737         hc     25    bbb     H8    737 0.04936100   1.008000   ; qtot -0.035753
  738         c3     25    bbb     C5    738 0.11363000  12.010000   ; qtot 0.077877
  739         hc     25    bbb     H9    739 0.06265900   1.008000   ; qtot 0.140536
  740         hc     25    bbb    H10    740 0.06265900   1.008000   ; qtot 0.203195
  741         c3     25    bbb     C6    741 0.11363000  12.010000   ; qtot 0.316825
  742         hc     25    bbb    H11    742 0.06265900   1.008000   ; qtot 0.379484
  743         hc     25    bbb    H12    743 0.06265900   1.008000   ; qtot 0.442143
  744         c3     25    bbb     C7    744 0.05858200  12.010000   ; qtot 0.500725
  745         h1     25    bbb    H13    745 0.06123400   1.008000   ; qtot 0.561959
  746         h1     25    bbb    H14    746 0.06123400   1.008000   ; qtot 0.623193
  747         c3     25    bbb     C8    747 -0.72423400  12.010000   ; qtot -0.101041
  748         h1     25    bbb    H15    748 0.25637600   1.008000   ; qtot 0.155335
  749         h1     25    bbb    H16    749 0.25637600   1.008000   ; qtot 0.411711
  750         c3     25    bbb     C9    750 -0.72423400  12.010000   ; qtot -0.312523
  751         h1     25    bbb    H17    751 0.25637600   1.008000   ; qtot -0.056147
  752         h1     25    bbb    H18    752 0.25637600   1.008000   ; qtot 0.200229
  753         os     25    bbb     O1    753 -0.20025300  16.000000   ; qtot -0.000024
; residue   26 bbb rtp bbb q -0.0
  754         n3     26    bbb     N1    754 -0.59685800  14.010000   ; qtot -0.596882
  755         c3     26    bbb     C1    755 0.10137000  12.010000   ; qtot -0.495512
  756         h1     26    bbb     H1    756 0.04411300   1.008000   ; qtot -0.451399
  757         h1     26    bbb     H2    757 0.04411300   1.008000   ; qtot -0.407286
  758         c3     26    bbb     C2    758 0.10137000  12.010000   ; qtot -0.305916
  759         h1     26    bbb     H3    759 0.04411300   1.008000   ; qtot -0.261803
  760         h1     26    bbb     H4    760 0.04411300   1.008000   ; qtot -0.217690
  761         c3     26    bbb     C3    761 -0.00195300  12.010000   ; qtot -0.219643
  762         h1     26    bbb     H5    762 0.05064400   1.008000   ; qtot -0.168999
  763         h1     26    bbb     H6    763 0.05064400   1.008000   ; qtot -0.118355
  764         c3     26    bbb     C4    764 -0.01612100  12.010000   ; qtot -0.134476
  765         hc     26    bbb     H7    765 0.04936100   1.008000   ; qtot -0.085115
  766         hc     26    bbb     H8    766 0.04936100   1.008000   ; qtot -0.035754
  767         c3     26    bbb     C5    767 0.11363000  12.010000   ; qtot 0.077876
  768         hc     26    bbb     H9    768 0.06265900   1.008000   ; qtot 0.140535
  769         hc     26    bbb    H10    769 0.06265900   1.008000   ; qtot 0.203194
  770         c3     26    bbb     C6    770 0.11363000  12.010000   ; qtot 0.316824
  771         hc     26    bbb    H11    771 0.06265900   1.008000   ; qtot 0.379483
  772         hc     26    bbb    H12    772 0.06265900   1.008000   ; qtot 0.442142
  773         c3     26    bbb     C7    773 0.05858200  12.010000   ; qtot 0.500724
  774         h1     26    bbb    H13    774 0.06123400   1.008000   ; qtot 0.561958
  775         h1     26    bbb    H14    775 0.06123400   1.008000   ; qtot 0.623192
  776         c3     26    bbb     C8    776 -0.72423400  12.010000   ; qtot -0.101042
  777         h1     26    bbb    H15    777 0.25637600   1.008000   ; qtot 0.155334
  778         h1     26    bbb    H16    778 0.25637600   1.008000   ; qtot 0.411710
  779         c3     26    bbb     C9    779 -0.72423400  12.010000   ; qtot -0.312524
  780         h1     26    bbb    H17    780 0.25637600   1.008000   ; qtot -0.056148
  781         h1     26    bbb    H18    781 0.25637600   1.008000   ; qtot 0.200228
  782         os     26    bbb     O1    782 -0.20025300  16.000000   ; qtot -0.000025
; residue   27 bbb rtp bbb q -0.0
  783         n3     27    bbb     N1    783 -0.59685800  14.010000   ; qtot -0.596883
  784         c3     27    bbb     C1    784 0.10137000  12.010000   ; qtot -0.495513
  785         h1     27    bbb     H1    785 0.04411300   1.008000   ; qtot -0.451400
  786         h1     27    bbb     H2    786 0.04411300   1.008000   ; qtot -0.407287
  787         c3     27    bbb     C2    787 0.10137000  12.010000   ; qtot -0.305917
  788         h1     27    bbb     H3    788 0.04411300   1.008000   ; qtot -0.261804
  789         h1     27    bbb     H4    789 0.04411300   1.008000   ; qtot -0.217691
  790         c3     27    bbb     C3    790 -0.00195300  12.010000   ; qtot -0.219644
  791         h1     27    bbb     H5    791 0.05064400   1.008000   ; qtot -0.169000
  792         h1     27    bbb     H6    792 0.05064400   1.008000   ; qtot -0.118356
  793         c3     27    bbb     C4    793 -0.01612100  12.010000   ; qtot -0.134477
  794         hc     27    bbb     H7    794 0.04936100   1.008000   ; qtot -0.085116
  795         hc     27    bbb     H8    795 0.04936100   1.008000   ; qtot -0.035755
  796         c3     27    bbb     C5    796 0.11363000  12.010000   ; qtot 0.077875
  797         hc     27    bbb     H9    797 0.06265900   1.008000   ; qtot 0.140534
  798         hc     27    bbb    H10    798 0.06265900   1.008000   ; qtot 0.203193
  799         c3     27    bbb     C6    799 0.11363000  12.010000   ; qtot 0.316823
  800         hc     27    bbb    H11    800 0.06265900   1.008000   ; qtot 0.379482
  801         hc     27    bbb    H12    801 0.06265900   1.008000   ; qtot 0.442141
  802         c3     27    bbb     C7    802 0.05858200  12.010000   ; qtot 0.500723
  803         h1     27    bbb    H13    803 0.06123400   1.008000   ; qtot 0.561957
  804         h1     27    bbb    H14    804 0.06123400   1.008000   ; qtot 0.623191
  805         c3     27    bbb     C8    805 -0.72423400  12.010000   ; qtot -0.101043
  806         h1     27    bbb    H15    806 0.25637600   1.008000   ; qtot 0.155333
  807         h1     27    bbb    H16    807 0.25637600   1.008000   ; qtot 0.411709
  808         c3     27    bbb     C9    808 -0.72423400  12.010000   ; qtot -0.312525
  809         h1     27    bbb    H17    809 0.25637600   1.008000   ; qtot -0.056149
  810         h1     27    bbb    H18    810 0.25637600   1.008000   ; qtot 0.200227
  811         os     27    bbb     O1    811 -0.20025300  16.000000   ; qtot -0.000026
; residue   28 bbb rtp bbb q -0.0
  812         n3     28    bbb     N1    812 -0.59685800  14.010000   ; qtot -0.596884
  813         c3     28    bbb     C1    813 0.10137000  12.010000   ; qtot -0.495514
  814         h1     28    bbb     H1    814 0.04411300   1.008000   ; qtot -0.451401
  815         h1     28    bbb     H2    815 0.04411300   1.008000   ; qtot -0.407288
  816         c3     28    bbb     C2    816 0.10137000  12.010000   ; qtot -0.305918
  817         h1     28    bbb     H3    817 0.04411300   1.008000   ; qtot -0.261805
  818         h1     28    bbb     H4    818 0.04411300   1.008000   ; qtot -0.217692
  819         c3     28    bbb     C3    819 -0.00195300  12.010000   ; qtot -0.219645
  820         h1     28    bbb     H5    820 0.05064400   1.008000   ; qtot -0.169001
  821         h1     28    bbb     H6    821 0.05064400   1.008000   ; qtot -0.118357
  822         c3     28    bbb     C4    822 -0.01612100  12.010000   ; qtot -0.134478
  823         hc     28    bbb     H7    823 0.04936100   1.008000   ; qtot -0.085117
  824         hc     28    bbb     H8    824 0.04936100   1.008000   ; qtot -0.035756
  825         c3     28    bbb     C5    825 0.11363000  12.010000   ; qtot 0.077874
  826         hc     28    bbb     H9    826 0.06265900   1.008000   ; qtot 0.140533
  827         hc     28    bbb    H10    827 0.06265900   1.008000   ; qtot 0.203192
  828         c3     28    bbb     C6    828 0.11363000  12.010000   ; qtot 0.316822
  829         hc     28    bbb    H11    829 0.06265900   1.008000   ; qtot 0.379481
  830         hc     28    bbb    H12    830 0.06265900   1.008000   ; qtot 0.442140
  831         c3     28    bbb     C7    831 0.05858200  12.010000   ; qtot 0.500722
  832         h1     28    bbb    H13    832 0.06123400   1.008000   ; qtot 0.561956
  833         h1     28    bbb    H14    833 0.06123400   1.008000   ; qtot 0.623190
  834         c3     28    bbb     C8    834 -0.72423400  12.010000   ; qtot -0.101044
  835         h1     28    bbb    H15    835 0.25637600   1.008000   ; qtot 0.155332
  836         h1     28    bbb    H16    836 0.25637600   1.008000   ; qtot 0.411708
  837         c3     28    bbb     C9    837 -0.72423400  12.010000   ; qtot -0.312526
  838         h1     28    bbb    H17    838 0.25637600   1.008000   ; qtot -0.056150
  839         h1     28    bbb    H18    839 0.25637600   1.008000   ; qtot 0.200226
  840         os     28    bbb     O1    840 -0.20025300  16.000000   ; qtot -0.000027
; residue   29 bbb rtp bbb q -0.0
  841         n3     29    bbb     N1    841 -0.59685800  14.010000   ; qtot -0.596885
  842         c3     29    bbb     C1    842 0.10137000  12.010000   ; qtot -0.495515
  843         h1     29    bbb     H1    843 0.04411300   1.008000   ; qtot -0.451402
  844         h1     29    bbb     H2    844 0.04411300   1.008000   ; qtot -0.407289
  845         c3     29    bbb     C2    845 0.10137000  12.010000   ; qtot -0.305919
  846         h1     29    bbb     H3    846 0.04411300   1.008000   ; qtot -0.261806
  847         h1     29    bbb     H4    847 0.04411300   1.008000   ; qtot -0.217693
  848         c3     29    bbb     C3    848 -0.00195300  12.010000   ; qtot -0.219646
  849         h1     29    bbb     H5    849 0.05064400   1.008000   ; qtot -0.169002
  850         h1     29    bbb     H6    850 0.05064400   1.008000   ; qtot -0.118358
  851         c3     29    bbb     C4    851 -0.01612100  12.010000   ; qtot -0.134479
  852         hc     29    bbb     H7    852 0.04936100   1.008000   ; qtot -0.085118
  853         hc     29    bbb     H8    853 0.04936100   1.008000   ; qtot -0.035757
  854         c3     29    bbb     C5    854 0.11363000  12.010000   ; qtot 0.077873
  855         hc     29    bbb     H9    855 0.06265900   1.008000   ; qtot 0.140532
  856         hc     29    bbb    H10    856 0.06265900   1.008000   ; qtot 0.203191
  857         c3     29    bbb     C6    857 0.11363000  12.010000   ; qtot 0.316821
  858         hc     29    bbb    H11    858 0.06265900   1.008000   ; qtot 0.379480
  859         hc     29    bbb    H12    859 0.06265900   1.008000   ; qtot 0.442139
  860         c3     29    bbb     C7    860 0.05858200  12.010000   ; qtot 0.500721
  861         h1     29    bbb    H13    861 0.06123400   1.008000   ; qtot 0.561955
  862         h1     29    bbb    H14    862 0.06123400   1.008000   ; qtot 0.623189
  863         c3     29    bbb     C8    863 -0.72423400  12.010000   ; qtot -0.101045
  864         h1     29    bbb    H15    864 0.25637600   1.008000   ; qtot 0.155331
  865         h1     29    bbb    H16    865 0.25637600   1.008000   ; qtot 0.411707
  866         c3     29    bbb     C9    866 -0.72423400  12.010000   ; qtot -0.312527
  867         h1     29    bbb    H17    867 0.25637600   1.008000   ; qtot -0.056151
  868         h1     29    bbb    H18    868 0.25637600   1.008000   ; qtot 0.200225
  869         os     29    bbb     O1    869 -0.20025300  16.000000   ; qtot -0.000028
; residue   30 bbb rtp bbb q -0.0
  870         n3     30    bbb     N1    870 -0.59685800  14.010000   ; qtot -0.596886
  871         c3     30    bbb     C1    871 0.10137000  12.010000   ; qtot -0.495516
  872         h1     30    bbb     H1    872 0.04411300   1.008000   ; qtot -0.451403
  873         h1     30    bbb     H2    873 0.04411300   1.008000   ; qtot -0.407290
  874         c3     30    bbb     C2    874 0.10137000  12.010000   ; qtot -0.305920
  875         h1     30    bbb     H3    875 0.04411300   1.008000   ; qtot -0.261807
  876         h1     30    bbb     H4    876 0.04411300   1.008000   ; qtot -0.217694
  877         c3     30    bbb     C3    877 -0.00195300  12.010000   ; qtot -0.219647
  878         h1     30    bbb     H5    878 0.05064400   1.008000   ; qtot -0.169003
  879         h1     30    bbb     H6    879 0.05064400   1.008000   ; qtot -0.118359
  880         c3     30    bbb     C4    880 -0.01612100  12.010000   ; qtot -0.134480
  881         hc     30    bbb     H7    881 0.04936100   1.008000   ; qtot -0.085119
  882         hc     30    bbb     H8    882 0.04936100   1.008000   ; qtot -0.035758
  883         c3     30    bbb     C5    883 0.11363000  12.010000   ; qtot 0.077872
  884         hc     30    bbb     H9    884 0.06265900   1.008000   ; qtot 0.140531
  885         hc     30    bbb    H10    885 0.06265900   1.008000   ; qtot 0.203190
  886         c3     30    bbb     C6    886 0.11363000  12.010000   ; qtot 0.316820
  887         hc     30    bbb    H11    887 0.06265900   1.008000   ; qtot 0.379479
  888         hc     30    bbb    H12    888 0.06265900   1.008000   ; qtot 0.442138
  889         c3     30    bbb     C7    889 0.05858200  12.010000   ; qtot 0.500720
  890         h1     30    bbb    H13    890 0.06123400   1.008000   ; qtot 0.561954
  891         h1     30    bbb    H14    891 0.06123400   1.008000   ; qtot 0.623188
  892         c3     30    bbb     C8    892 -0.72423400  12.010000   ; qtot -0.101046
  893         h1     30    bbb    H15    893 0.25637600   1.008000   ; qtot 0.155330
  894         h1     30    bbb    H16    894 0.25637600   1.008000   ; qtot 0.411706
  895         c3     30    bbb     C9    895 -0.72423400  12.010000   ; qtot -0.312528
  896         h1     30    bbb    H17    896 0.25637600   1.008000   ; qtot -0.056152
  897         h1     30    bbb    H18    897 0.25637600   1.008000   ; qtot 0.200224
  898         os     30    bbb     O1    898 -0.20025300  16.000000   ; qtot -0.000029
; residue   31 bbb rtp bbb q -0.0
  899         n3     31    bbb     N1    899 -0.59685800  14.010000   ; qtot -0.596887
  900         c3     31    bbb     C1    900 0.10137000  12.010000   ; qtot -0.495517
  901         h1     31    bbb     H1    901 0.04411300   1.008000   ; qtot -0.451404
  902         h1     31    bbb     H2    902 0.04411300   1.008000   ; qtot -0.407291
  903         c3     31    bbb     C2    903 0.10137000  12.010000   ; qtot -0.305921
  904         h1     31    bbb     H3    904 0.04411300   1.008000   ; qtot -0.261808
  905         h1     31    bbb     H4    905 0.04411300   1.008000   ; qtot -0.217695
  906         c3     31    bbb     C3    906 -0.00195300  12.010000   ; qtot -0.219648
  907         h1     31    bbb     H5    907 0.05064400   1.008000   ; qtot -0.169004
  908         h1     31    bbb     H6    908 0.05064400   1.008000   ; qtot -0.118360
  909         c3     31    bbb     C4    909 -0.01612100  12.010000   ; qtot -0.134481
  910         hc     31    bbb     H7    910 0.04936100   1.008000   ; qtot -0.085120
  911         hc     31    bbb     H8    911 0.04936100   1.008000   ; qtot -0.035759
  912         c3     31    bbb     C5    912 0.11363000  12.010000   ; qtot 0.077871
  913         hc     31    bbb     H9    913 0.06265900   1.008000   ; qtot 0.140530
  914         hc     31    bbb    H10    914 0.06265900   1.008000   ; qtot 0.203189
  915         c3     31    bbb     C6    915 0.11363000  12.010000   ; qtot 0.316819
  916         hc     31    bbb    H11    916 0.06265900   1.008000   ; qtot 0.379478
  917         hc     31    bbb    H12    917 0.06265900   1.008000   ; qtot 0.442137
  918         c3     31    bbb     C7    918 0.05858200  12.010000   ; qtot 0.500719
  919         h1     31    bbb    H13    919 0.06123400   1.008000   ; qtot 0.561953
  920         h1     31    bbb    H14    920 0.06123400   1.008000   ; qtot 0.623187
  921         c3     31    bbb     C8    921 -0.72423400  12.010000   ; qtot -0.101047
  922         h1     31    bbb    H15    922 0.25637600   1.008000   ; qtot 0.155329
  923         h1     31    bbb    H16    923 0.25637600   1.008000   ; qtot 0.411705
  924         c3     31    bbb     C9    924 -0.72423400  12.010000   ; qtot -0.312529
  925         h1     31    bbb    H17    925 0.25637600   1.008000   ; qtot -0.056153
  926         h1     31    bbb    H18    926 0.25637600   1.008000   ; qtot 0.200223
  927         os     31    bbb     O1    927 -0.20025300  16.000000   ; qtot -0.000030
; residue   32 bbb rtp bbb q -0.0
  928         n3     32    bbb     N1    928 -0.59685800  14.010000   ; qtot -0.596888
  929         c3     32    bbb     C1    929 0.10137000  12.010000   ; qtot -0.495518
  930         h1     32    bbb     H1    930 0.04411300   1.008000   ; qtot -0.451405
  931         h1     32    bbb     H2    931 0.04411300   1.008000   ; qtot -0.407292
  932         c3     32    bbb     C2    932 0.10137000  12.010000   ; qtot -0.305922
  933         h1     32    bbb     H3    933 0.04411300   1.008000   ; qtot -0.261809
  934         h1     32    bbb     H4    934 0.04411300   1.008000   ; qtot -0.217696
  935         c3     32    bbb     C3    935 -0.00195300  12.010000   ; qtot -0.219649
  936         h1     32    bbb     H5    936 0.05064400   1.008000   ; qtot -0.169005
  937         h1     32    bbb     H6    937 0.05064400   1.008000   ; qtot -0.118361
  938         c3     32    bbb     C4    938 -0.01612100  12.010000   ; qtot -0.134482
  939         hc     32    bbb     H7    939 0.04936100   1.008000   ; qtot -0.085121
  940         hc     32    bbb     H8    940 0.04936100   1.008000   ; qtot -0.035760
  941         c3     32    bbb     C5    941 0.11363000  12.010000   ; qtot 0.077870
  942         hc     32    bbb     H9    942 0.06265900   1.008000   ; qtot 0.140529
  943         hc     32    bbb    H10    943 0.06265900   1.008000   ; qtot 0.203188
  944         c3     32    bbb     C6    944 0.11363000  12.010000   ; qtot 0.316818
  945         hc     32    bbb    H11    945 0.06265900   1.008000   ; qtot 0.379477
  946         hc     32    bbb    H12    946 0.06265900   1.008000   ; qtot 0.442136
  947         c3     32    bbb     C7    947 0.05858200  12.010000   ; qtot 0.500718
  948         h1     32    bbb    H13    948 0.06123400   1.008000   ; qtot 0.561952
  949         h1     32    bbb    H14    949 0.06123400   1.008000   ; qtot 0.623186
  950         c3     32    bbb     C8    950 -0.72423400  12.010000   ; qtot -0.101048
  951         h1     32    bbb    H15    951 0.25637600   1.008000   ; qtot 0.155328
  952         h1     32    bbb    H16    952 0.25637600   1.008000   ; qtot 0.411704
  953         c3     32    bbb     C9    953 -0.72423400  12.010000   ; qtot -0.312530
  954         h1     32    bbb    H17    954 0.25637600   1.008000   ; qtot -0.056154
  955         h1     32    bbb    H18    955 0.25637600   1.008000   ; qtot 0.200222
  956         os     32    bbb     O1    956 -0.20025300  16.000000   ; qtot -0.000031
; residue   33 bbb rtp bbb q -0.0
  957         n3     33    bbb     N1    957 -0.59685800  14.010000   ; qtot -0.596889
  958         c3     33    bbb     C1    958 0.10137000  12.010000   ; qtot -0.495519
  959         h1     33    bbb     H1    959 0.04411300   1.008000   ; qtot -0.451406
  960         h1     33    bbb     H2    960 0.04411300   1.008000   ; qtot -0.407293
  961         c3     33    bbb     C2    961 0.10137000  12.010000   ; qtot -0.305923
  962         h1     33    bbb     H3    962 0.04411300   1.008000   ; qtot -0.261810
  963         h1     33    bbb     H4    963 0.04411300   1.008000   ; qtot -0.217697
  964         c3     33    bbb     C3    964 -0.00195300  12.010000   ; qtot -0.219650
  965         h1     33    bbb     H5    965 0.05064400   1.008000   ; qtot -0.169006
  966         h1     33    bbb     H6    966 0.05064400   1.008000   ; qtot -0.118362
  967         c3     33    bbb     C4    967 -0.01612100  12.010000   ; qtot -0.134483
  968         hc     33    bbb     H7    968 0.04936100   1.008000   ; qtot -0.085122
  969         hc     33    bbb     H8    969 0.04936100   1.008000   ; qtot -0.035761
  970         c3     33    bbb     C5    970 0.11363000  12.010000   ; qtot 0.077869
  971         hc     33    bbb     H9    971 0.06265900   1.008000   ; qtot 0.140528
  972         hc     33    bbb    H10    972 0.06265900   1.008000   ; qtot 0.203187
  973         c3     33    bbb     C6    973 0.11363000  12.010000   ; qtot 0.316817
  974         hc     33    bbb    H11    974 0.06265900   1.008000   ; qtot 0.379476
  975         hc     33    bbb    H12    975 0.06265900   1.008000   ; qtot 0.442135
  976         c3     33    bbb     C7    976 0.05858200  12.010000   ; qtot 0.500717
  977         h1     33    bbb    H13    977 0.06123400   1.008000   ; qtot 0.561951
  978         h1     33    bbb    H14    978 0.06123400   1.008000   ; qtot 0.623185
  979         c3     33    bbb     C8    979 -0.72423400  12.010000   ; qtot -0.101049
  980         h1     33    bbb    H15    980 0.25637600   1.008000   ; qtot 0.155327
  981         h1     33    bbb    H16    981 0.25637600   1.008000   ; qtot 0.411703
  982         c3     33    bbb     C9    982 -0.72423400  12.010000   ; qtot -0.312531
  983         h1     33    bbb    H17    983 0.25637600   1.008000   ; qtot -0.056155
  984         h1     33    bbb    H18    984 0.25637600   1.008000   ; qtot 0.200221
  985         os     33    bbb     O1    985 -0.20025300  16.000000   ; qtot -0.000032
; residue   34 bbb rtp bbb q -0.0
  986         n3     34    bbb     N1    986 -0.59685800  14.010000   ; qtot -0.596890
  987         c3     34    bbb     C1    987 0.10137000  12.010000   ; qtot -0.495520
  988         h1     34    bbb     H1    988 0.04411300   1.008000   ; qtot -0.451407
  989         h1     34    bbb     H2    989 0.04411300   1.008000   ; qtot -0.407294
  990         c3     34    bbb     C2    990 0.10137000  12.010000   ; qtot -0.305924
  991         h1     34    bbb     H3    991 0.04411300   1.008000   ; qtot -0.261811
  992         h1     34    bbb     H4    992 0.04411300   1.008000   ; qtot -0.217698
  993         c3     34    bbb     C3    993 -0.00195300  12.010000   ; qtot -0.219651
  994         h1     34    bbb     H5    994 0.05064400   1.008000   ; qtot -0.169007
  995         h1     34    bbb     H6    995 0.05064400   1.008000   ; qtot -0.118363
  996         c3     34    bbb     C4    996 -0.01612100  12.010000   ; qtot -0.134484
  997         hc     34    bbb     H7    997 0.04936100   1.008000   ; qtot -0.085123
  998         hc     34    bbb     H8    998 0.04936100   1.008000   ; qtot -0.035762
  999         c3     34    bbb     C5    999 0.11363000  12.010000   ; qtot 0.077868
 1000         hc     34    bbb     H9   1000 0.06265900   1.008000   ; qtot 0.140527
 1001         hc     34    bbb    H10   1001 0.06265900   1.008000   ; qtot 0.203186
 1002         c3     34    bbb     C6   1002 0.11363000  12.010000   ; qtot 0.316816
 1003         hc     34    bbb    H11   1003 0.06265900   1.008000   ; qtot 0.379475
 1004         hc     34    bbb    H12   1004 0.06265900   1.008000   ; qtot 0.442134
 1005         c3     34    bbb     C7   1005 0.05858200  12.010000   ; qtot 0.500716
 1006         h1     34    bbb    H13   1006 0.06123400   1.008000   ; qtot 0.561950
 1007         h1     34    bbb    H14   1007 0.06123400   1.008000   ; qtot 0.623184
 1008         c3     34    bbb     C8   1008 -0.72423400  12.010000   ; qtot -0.101050
 1009         h1     34    bbb    H15   1009 0.25637600   1.008000   ; qtot 0.155326
 1010         h1     34    bbb    H16   1010 0.25637600   1.008000   ; qtot 0.411702
 1011         c3     34    bbb     C9   1011 -0.72423400  12.010000   ; qtot -0.312532
 1012         h1     34    bbb    H17   1012 0.25637600   1.008000   ; qtot -0.056156
 1013         h1     34    bbb    H18   1013 0.25637600   1.008000   ; qtot 0.200220
 1014         os     34    bbb     O1   1014 -0.20025300  16.000000   ; qtot -0.000033
; residue   35 bbb rtp bbb q -0.0
 1015         n3     35    bbb     N1   1015 -0.59685800  14.010000   ; qtot -0.596891
 1016         c3     35    bbb     C1   1016 0.10137000  12.010000   ; qtot -0.495521
 1017         h1     35    bbb     H1   1017 0.04411300   1.008000   ; qtot -0.451408
 1018         h1     35    bbb     H2   1018 0.04411300   1.008000   ; qtot -0.407295
 1019         c3     35    bbb     C2   1019 0.10137000  12.010000   ; qtot -0.305925
 1020         h1     35    bbb     H3   1020 0.04411300   1.008000   ; qtot -0.261812
 1021         h1     35    bbb     H4   1021 0.04411300   1.008000   ; qtot -0.217699
 1022         c3     35    bbb     C3   1022 -0.00195300  12.010000   ; qtot -0.219652
 1023         h1     35    bbb     H5   1023 0.05064400   1.008000   ; qtot -0.169008
 1024         h1     35    bbb     H6   1024 0.05064400   1.008000   ; qtot -0.118364
 1025         c3     35    bbb     C4   1025 -0.01612100  12.010000   ; qtot -0.134485
 1026         hc     35    bbb     H7   1026 0.04936100   1.008000   ; qtot -0.085124
 1027         hc     35    bbb     H8   1027 0.04936100   1.008000   ; qtot -0.035763
 1028         c3     35    bbb     C5   1028 0.11363000  12.010000   ; qtot 0.077867
 1029         hc     35    bbb     H9   1029 0.06265900   1.008000   ; qtot 0.140526
 1030         hc     35    bbb    H10   1030 0.06265900   1.008000   ; qtot 0.203185
 1031         c3     35    bbb     C6   1031 0.11363000  12.010000   ; qtot 0.316815
 1032         hc     35    bbb    H11   1032 0.06265900   1.008000   ; qtot 0.379474
 1033         hc     35    bbb    H12   1033 0.06265900   1.008000   ; qtot 0.442133
 1034         c3     35    bbb     C7   1034 0.05858200  12.010000   ; qtot 0.500715
 1035         h1     35    bbb    H13   1035 0.06123400   1.008000   ; qtot 0.561949
 1036         h1     35    bbb    H14   1036 0.06123400   1.008000   ; qtot 0.623183
 1037         c3     35    bbb     C8   1037 -0.72423400  12.010000   ; qtot -0.101051
 1038         h1     35    bbb    H15   1038 0.25637600   1.008000   ; qtot 0.155325
 1039         h1     35    bbb    H16   1039 0.25637600   1.008000   ; qtot 0.411701
 1040         c3     35    bbb     C9   1040 -0.72423400  12.010000   ; qtot -0.312533
 1041         h1     35    bbb    H17   1041 0.25637600   1.008000   ; qtot -0.056157
 1042         h1     35    bbb    H18   1042 0.25637600   1.008000   ; qtot 0.200219
 1043         os     35    bbb     O1   1043 -0.20025300  16.000000   ; qtot -0.000034
; residue   36 bbb rtp bbb q -0.0
 1044         n3     36    bbb     N1   1044 -0.59685800  14.010000   ; qtot -0.596892
 1045         c3     36    bbb     C1   1045 0.10137000  12.010000   ; qtot -0.495522
 1046         h1     36    bbb     H1   1046 0.04411300   1.008000   ; qtot -0.451409
 1047         h1     36    bbb     H2   1047 0.04411300   1.008000   ; qtot -0.407296
 1048         c3     36    bbb     C2   1048 0.10137000  12.010000   ; qtot -0.305926
 1049         h1     36    bbb     H3   1049 0.04411300   1.008000   ; qtot -0.261813
 1050         h1     36    bbb     H4   1050 0.04411300   1.008000   ; qtot -0.217700
 1051         c3     36    bbb     C3   1051 -0.00195300  12.010000   ; qtot -0.219653
 1052         h1     36    bbb     H5   1052 0.05064400   1.008000   ; qtot -0.169009
 1053         h1     36    bbb     H6   1053 0.05064400   1.008000   ; qtot -0.118365
 1054         c3     36    bbb     C4   1054 -0.01612100  12.010000   ; qtot -0.134486
 1055         hc     36    bbb     H7   1055 0.04936100   1.008000   ; qtot -0.085125
 1056         hc     36    bbb     H8   1056 0.04936100   1.008000   ; qtot -0.035764
 1057         c3     36    bbb     C5   1057 0.11363000  12.010000   ; qtot 0.077866
 1058         hc     36    bbb     H9   1058 0.06265900   1.008000   ; qtot 0.140525
 1059         hc     36    bbb    H10   1059 0.06265900   1.008000   ; qtot 0.203184
 1060         c3     36    bbb     C6   1060 0.11363000  12.010000   ; qtot 0.316814
 1061         hc     36    bbb    H11   1061 0.06265900   1.008000   ; qtot 0.379473
 1062         hc     36    bbb    H12   1062 0.06265900   1.008000   ; qtot 0.442132
 1063         c3     36    bbb     C7   1063 0.05858200  12.010000   ; qtot 0.500714
 1064         h1     36    bbb    H13   1064 0.06123400   1.008000   ; qtot 0.561948
 1065         h1     36    bbb    H14   1065 0.06123400   1.008000   ; qtot 0.623182
 1066         c3     36    bbb     C8   1066 -0.72423400  12.010000   ; qtot -0.101052
 1067         h1     36    bbb    H15   1067 0.25637600   1.008000   ; qtot 0.155324
 1068         h1     36    bbb    H16   1068 0.25637600   1.008000   ; qtot 0.411700
 1069         c3     36    bbb     C9   1069 -0.72423400  12.010000   ; qtot -0.312534
 1070         h1     36    bbb    H17   1070 0.25637600   1.008000   ; qtot -0.056158
 1071         h1     36    bbb    H18   1071 0.25637600   1.008000   ; qtot 0.200218
 1072         os     36    bbb     O1   1072 -0.20025300  16.000000   ; qtot -0.000035
; residue   37 bbb rtp bbb q -0.0
 1073         n3     37    bbb     N1   1073 -0.59685800  14.010000   ; qtot -0.596893
 1074         c3     37    bbb     C1   1074 0.10137000  12.010000   ; qtot -0.495523
 1075         h1     37    bbb     H1   1075 0.04411300   1.008000   ; qtot -0.451410
 1076         h1     37    bbb     H2   1076 0.04411300   1.008000   ; qtot -0.407297
 1077         c3     37    bbb     C2   1077 0.10137000  12.010000   ; qtot -0.305927
 1078         h1     37    bbb     H3   1078 0.04411300   1.008000   ; qtot -0.261814
 1079         h1     37    bbb     H4   1079 0.04411300   1.008000   ; qtot -0.217701
 1080         c3     37    bbb     C3   1080 -0.00195300  12.010000   ; qtot -0.219654
 1081         h1     37    bbb     H5   1081 0.05064400   1.008000   ; qtot -0.169010
 1082         h1     37    bbb     H6   1082 0.05064400   1.008000   ; qtot -0.118366
 1083         c3     37    bbb     C4   1083 -0.01612100  12.010000   ; qtot -0.134487
 1084         hc     37    bbb     H7   1084 0.04936100   1.008000   ; qtot -0.085126
 1085         hc     37    bbb     H8   1085 0.04936100   1.008000   ; qtot -0.035765
 1086         c3     37    bbb     C5   1086 0.11363000  12.010000   ; qtot 0.077865
 1087         hc     37    bbb     H9   1087 0.06265900   1.008000   ; qtot 0.140524
 1088         hc     37    bbb    H10   1088 0.06265900   1.008000   ; qtot 0.203183
 1089         c3     37    bbb     C6   1089 0.11363000  12.010000   ; qtot 0.316813
 1090         hc     37    bbb    H11   1090 0.06265900   1.008000   ; qtot 0.379472
 1091         hc     37    bbb    H12   1091 0.06265900   1.008000   ; qtot 0.442131
 1092         c3     37    bbb     C7   1092 0.05858200  12.010000   ; qtot 0.500713
 1093         h1     37    bbb    H13   1093 0.06123400   1.008000   ; qtot 0.561947
 1094         h1     37    bbb    H14   1094 0.06123400   1.008000   ; qtot 0.623181
 1095         c3     37    bbb     C8   1095 -0.72423400  12.010000   ; qtot -0.101053
 1096         h1     37    bbb    H15   1096 0.25637600   1.008000   ; qtot 0.155323
 1097         h1     37    bbb    H16   1097 0.25637600   1.008000   ; qtot 0.411699
 1098         c3     37    bbb     C9   1098 -0.72423400  12.010000   ; qtot -0.312535
 1099         h1     37    bbb    H17   1099 0.25637600   1.008000   ; qtot -0.056159
 1100         h1     37    bbb    H18   1100 0.25637600   1.008000   ; qtot 0.200217
 1101         os     37    bbb     O1   1101 -0.20025300  16.000000   ; qtot -0.000036
; residue   38 bbb rtp bbb q -0.0
 1102         n3     38    bbb     N1   1102 -0.59685800  14.010000   ; qtot -0.596894
 1103         c3     38    bbb     C1   1103 0.10137000  12.010000   ; qtot -0.495524
 1104         h1     38    bbb     H1   1104 0.04411300   1.008000   ; qtot -0.451411
 1105         h1     38    bbb     H2   1105 0.04411300   1.008000   ; qtot -0.407298
 1106         c3     38    bbb     C2   1106 0.10137000  12.010000   ; qtot -0.305928
 1107         h1     38    bbb     H3   1107 0.04411300   1.008000   ; qtot -0.261815
 1108         h1     38    bbb     H4   1108 0.04411300   1.008000   ; qtot -0.217702
 1109         c3     38    bbb     C3   1109 -0.00195300  12.010000   ; qtot -0.219655
 1110         h1     38    bbb     H5   1110 0.05064400   1.008000   ; qtot -0.169011
 1111         h1     38    bbb     H6   1111 0.05064400   1.008000   ; qtot -0.118367
 1112         c3     38    bbb     C4   1112 -0.01612100  12.010000   ; qtot -0.134488
 1113         hc     38    bbb     H7   1113 0.04936100   1.008000   ; qtot -0.085127
 1114         hc     38    bbb     H8   1114 0.04936100   1.008000   ; qtot -0.035766
 1115         c3     38    bbb     C5   1115 0.11363000  12.010000   ; qtot 0.077864
 1116         hc     38    bbb     H9   1116 0.06265900   1.008000   ; qtot 0.140523
 1117         hc     38    bbb    H10   1117 0.06265900   1.008000   ; qtot 0.203182
 1118         c3     38    bbb     C6   1118 0.11363000  12.010000   ; qtot 0.316812
 1119         hc     38    bbb    H11   1119 0.06265900   1.008000   ; qtot 0.379471
 1120         hc     38    bbb    H12   1120 0.06265900   1.008000   ; qtot 0.442130
 1121         c3     38    bbb     C7   1121 0.05858200  12.010000   ; qtot 0.500712
 1122         h1     38    bbb    H13   1122 0.06123400   1.008000   ; qtot 0.561946
 1123         h1     38    bbb    H14   1123 0.06123400   1.008000   ; qtot 0.623180
 1124         c3     38    bbb     C8   1124 -0.72423400  12.010000   ; qtot -0.101054
 1125         h1     38    bbb    H15   1125 0.25637600   1.008000   ; qtot 0.155322
 1126         h1     38    bbb    H16   1126 0.25637600   1.008000   ; qtot 0.411698
 1127         c3     38    bbb     C9   1127 -0.72423400  12.010000   ; qtot -0.312536
 1128         h1     38    bbb    H17   1128 0.25637600   1.008000   ; qtot -0.056160
 1129         h1     38    bbb    H18   1129 0.25637600   1.008000   ; qtot 0.200216
 1130         os     38    bbb     O1   1130 -0.20025300  16.000000   ; qtot -0.000037
; residue   39 bbb rtp bbb q -0.0
 1131         n3     39    bbb     N1   1131 -0.59685800  14.010000   ; qtot -0.596895
 1132         c3     39    bbb     C1   1132 0.10137000  12.010000   ; qtot -0.495525
 1133         h1     39    bbb     H1   1133 0.04411300   1.008000   ; qtot -0.451412
 1134         h1     39    bbb     H2   1134 0.04411300   1.008000   ; qtot -0.407299
 1135         c3     39    bbb     C2   1135 0.10137000  12.010000   ; qtot -0.305929
 1136         h1     39    bbb     H3   1136 0.04411300   1.008000   ; qtot -0.261816
 1137         h1     39    bbb     H4   1137 0.04411300   1.008000   ; qtot -0.217703
 1138         c3     39    bbb     C3   1138 -0.00195300  12.010000   ; qtot -0.219656
 1139         h1     39    bbb     H5   1139 0.05064400   1.008000   ; qtot -0.169012
 1140         h1     39    bbb     H6   1140 0.05064400   1.008000   ; qtot -0.118368
 1141         c3     39    bbb     C4   1141 -0.01612100  12.010000   ; qtot -0.134489
 1142         hc     39    bbb     H7   1142 0.04936100   1.008000   ; qtot -0.085128
 1143         hc     39    bbb     H8   1143 0.04936100   1.008000   ; qtot -0.035767
 1144         c3     39    bbb     C5   1144 0.11363000  12.010000   ; qtot 0.077863
 1145         hc     39    bbb     H9   1145 0.06265900   1.008000   ; qtot 0.140522
 1146         hc     39    bbb    H10   1146 0.06265900   1.008000   ; qtot 0.203181
 1147         c3     39    bbb     C6   1147 0.11363000  12.010000   ; qtot 0.316811
 1148         hc     39    bbb    H11   1148 0.06265900   1.008000   ; qtot 0.379470
 1149         hc     39    bbb    H12   1149 0.06265900   1.008000   ; qtot 0.442129
 1150         c3     39    bbb     C7   1150 0.05858200  12.010000   ; qtot 0.500711
 1151         h1     39    bbb    H13   1151 0.06123400   1.008000   ; qtot 0.561945
 1152         h1     39    bbb    H14   1152 0.06123400   1.008000   ; qtot 0.623179
 1153         c3     39    bbb     C8   1153 -0.72423400  12.010000   ; qtot -0.101055
 1154         h1     39    bbb    H15   1154 0.25637600   1.008000   ; qtot 0.155321
 1155         h1     39    bbb    H16   1155 0.25637600   1.008000   ; qtot 0.411697
 1156         c3     39    bbb     C9   1156 -0.72423400  12.010000   ; qtot -0.312537
 1157         h1     39    bbb    H17   1157 0.25637600   1.008000   ; qtot -0.056161
 1158         h1     39    bbb    H18   1158 0.25637600   1.008000   ; qtot 0.200215
 1159         os     39    bbb     O1   1159 -0.20025300  16.000000   ; qtot -0.000038
; residue   40 bbb rtp bbb q -0.0
 1160         n3     40    bbb     N1   1160 -0.59685800  14.010000   ; qtot -0.596896
 1161         c3     40    bbb     C1   1161 0.10137000  12.010000   ; qtot -0.495526
 1162         h1     40    bbb     H1   1162 0.04411300   1.008000   ; qtot -0.451413
 1163         h1     40    bbb     H2   1163 0.04411300   1.008000   ; qtot -0.407300
 1164         c3     40    bbb     C2   1164 0.10137000  12.010000   ; qtot -0.305930
 1165         h1     40    bbb     H3   1165 0.04411300   1.008000   ; qtot -0.261817
 1166         h1     40    bbb     H4   1166 0.04411300   1.008000   ; qtot -0.217704
 1167         c3     40    bbb     C3   1167 -0.00195300  12.010000   ; qtot -0.219657
 1168         h1     40    bbb     H5   1168 0.05064400   1.008000   ; qtot -0.169013
 1169         h1     40    bbb     H6   1169 0.05064400   1.008000   ; qtot -0.118369
 1170         c3     40    bbb     C4   1170 -0.01612100  12.010000   ; qtot -0.134490
 1171         hc     40    bbb     H7   1171 0.04936100   1.008000   ; qtot -0.085129
 1172         hc     40    bbb     H8   1172 0.04936100   1.008000   ; qtot -0.035768
 1173         c3     40    bbb     C5   1173 0.11363000  12.010000   ; qtot 0.077862
 1174         hc     40    bbb     H9   1174 0.06265900   1.008000   ; qtot 0.140521
 1175         hc     40    bbb    H10   1175 0.06265900   1.008000   ; qtot 0.203180
 1176         c3     40    bbb     C6   1176 0.11363000  12.010000   ; qtot 0.316810
 1177         hc     40    bbb    H11   1177 0.06265900   1.008000   ; qtot 0.379469
 1178         hc     40    bbb    H12   1178 0.06265900   1.008000   ; qtot 0.442128
 1179         c3     40    bbb     C7   1179 0.05858200  12.010000   ; qtot 0.500710
 1180         h1     40    bbb    H13   1180 0.06123400   1.008000   ; qtot 0.561944
 1181         h1     40    bbb    H14   1181 0.06123400   1.008000   ; qtot 0.623178
 1182         c3     40    bbb     C8   1182 -0.72423400  12.010000   ; qtot -0.101056
 1183         h1     40    bbb    H15   1183 0.25637600   1.008000   ; qtot 0.155320
 1184         h1     40    bbb    H16   1184 0.25637600   1.008000   ; qtot 0.411696
 1185         c3     40    bbb     C9   1185 -0.72423400  12.010000   ; qtot -0.312538
 1186         h1     40    bbb    H17   1186 0.25637600   1.008000   ; qtot -0.056162
 1187         h1     40    bbb    H18   1187 0.25637600   1.008000   ; qtot 0.200214
 1188         os     40    bbb     O1   1188 -0.20025300  16.000000   ; qtot -0.000039
; residue   41 bbb rtp bbb q -0.0
 1189         n3     41    bbb     N1   1189 -0.59685800  14.010000   ; qtot -0.596897
 1190         c3     41    bbb     C1   1190 0.10137000  12.010000   ; qtot -0.495527
 1191         h1     41    bbb     H1   1191 0.04411300   1.008000   ; qtot -0.451414
 1192         h1     41    bbb     H2   1192 0.04411300   1.008000   ; qtot -0.407301
 1193         c3     41    bbb     C2   1193 0.10137000  12.010000   ; qtot -0.305931
 1194         h1     41    bbb     H3   1194 0.04411300   1.008000   ; qtot -0.261818
 1195         h1     41    bbb     H4   1195 0.04411300   1.008000   ; qtot -0.217705
 1196         c3     41    bbb     C3   1196 -0.00195300  12.010000   ; qtot -0.219658
 1197         h1     41    bbb     H5   1197 0.05064400   1.008000   ; qtot -0.169014
 1198         h1     41    bbb     H6   1198 0.05064400   1.008000   ; qtot -0.118370
 1199         c3     41    bbb     C4   1199 -0.01612100  12.010000   ; qtot -0.134491
 1200         hc     41    bbb     H7   1200 0.04936100   1.008000   ; qtot -0.085130
 1201         hc     41    bbb     H8   1201 0.04936100   1.008000   ; qtot -0.035769
 1202         c3     41    bbb     C5   1202 0.11363000  12.010000   ; qtot 0.077861
 1203         hc     41    bbb     H9   1203 0.06265900   1.008000   ; qtot 0.140520
 1204         hc     41    bbb    H10   1204 0.06265900   1.008000   ; qtot 0.203179
 1205         c3     41    bbb     C6   1205 0.11363000  12.010000   ; qtot 0.316809
 1206         hc     41    bbb    H11   1206 0.06265900   1.008000   ; qtot 0.379468
 1207         hc     41    bbb    H12   1207 0.06265900   1.008000   ; qtot 0.442127
 1208         c3     41    bbb     C7   1208 0.05858200  12.010000   ; qtot 0.500709
 1209         h1     41    bbb    H13   1209 0.06123400   1.008000   ; qtot 0.561943
 1210         h1     41    bbb    H14   1210 0.06123400   1.008000   ; qtot 0.623177
 1211         c3     41    bbb     C8   1211 -0.72423400  12.010000   ; qtot -0.101057
 1212         h1     41    bbb    H15   1212 0.25637600   1.008000   ; qtot 0.155319
 1213         h1     41    bbb    H16   1213 0.25637600   1.008000   ; qtot 0.411695
 1214         c3     41    bbb     C9   1214 -0.72423400  12.010000   ; qtot -0.312539
 1215         h1     41    bbb    H17   1215 0.25637600   1.008000   ; qtot -0.056163
 1216         h1     41    bbb    H18   1216 0.25637600   1.008000   ; qtot 0.200213
 1217         os     41    bbb     O1   1217 -0.20025300  16.000000   ; qtot -0.000040
; residue   42 bbb rtp bbb q -0.0
 1218         n3     42    bbb     N1   1218 -0.59685800  14.010000   ; qtot -0.596898
 1219         c3     42    bbb     C1   1219 0.10137000  12.010000   ; qtot -0.495528
 1220         h1     42    bbb     H1   1220 0.04411300   1.008000   ; qtot -0.451415
 1221         h1     42    bbb     H2   1221 0.04411300   1.008000   ; qtot -0.407302
 1222         c3     42    bbb     C2   1222 0.10137000  12.010000   ; qtot -0.305932
 1223         h1     42    bbb     H3   1223 0.04411300   1.008000   ; qtot -0.261819
 1224         h1     42    bbb     H4   1224 0.04411300   1.008000   ; qtot -0.217706
 1225         c3     42    bbb     C3   1225 -0.00195300  12.010000   ; qtot -0.219659
 1226         h1     42    bbb     H5   1226 0.05064400   1.008000   ; qtot -0.169015
 1227         h1     42    bbb     H6   1227 0.05064400   1.008000   ; qtot -0.118371
 1228         c3     42    bbb     C4   1228 -0.01612100  12.010000   ; qtot -0.134492
 1229         hc     42    bbb     H7   1229 0.04936100   1.008000   ; qtot -0.085131
 1230         hc     42    bbb     H8   1230 0.04936100   1.008000   ; qtot -0.035770
 1231         c3     42    bbb     C5   1231 0.11363000  12.010000   ; qtot 0.077860
 1232         hc     42    bbb     H9   1232 0.06265900   1.008000   ; qtot 0.140519
 1233         hc     42    bbb    H10   1233 0.06265900   1.008000   ; qtot 0.203178
 1234         c3     42    bbb     C6   1234 0.11363000  12.010000   ; qtot 0.316808
 1235         hc     42    bbb    H11   1235 0.06265900   1.008000   ; qtot 0.379467
 1236         hc     42    bbb    H12   1236 0.06265900   1.008000   ; qtot 0.442126
 1237         c3     42    bbb     C7   1237 0.05858200  12.010000   ; qtot 0.500708
 1238         h1     42    bbb    H13   1238 0.06123400   1.008000   ; qtot 0.561942
 1239         h1     42    bbb    H14   1239 0.06123400   1.008000   ; qtot 0.623176
 1240         c3     42    bbb     C8   1240 -0.72423400  12.010000   ; qtot -0.101058
 1241         h1     42    bbb    H15   1241 0.25637600   1.008000   ; qtot 0.155318
 1242         h1     42    bbb    H16   1242 0.25637600   1.008000   ; qtot 0.411694
 1243         c3     42    bbb     C9   1243 -0.72423400  12.010000   ; qtot -0.312540
 1244         h1     42    bbb    H17   1244 0.25637600   1.008000   ; qtot -0.056164
 1245         h1     42    bbb    H18   1245 0.25637600   1.008000   ; qtot 0.200212
 1246         os     42    bbb     O1   1246 -0.20025300  16.000000   ; qtot -0.000041
; residue   43 bbb rtp bbb q -0.0
 1247         n3     43    bbb     N1   1247 -0.59685800  14.010000   ; qtot -0.596899
 1248         c3     43    bbb     C1   1248 0.10137000  12.010000   ; qtot -0.495529
 1249         h1     43    bbb     H1   1249 0.04411300   1.008000   ; qtot -0.451416
 1250         h1     43    bbb     H2   1250 0.04411300   1.008000   ; qtot -0.407303
 1251         c3     43    bbb     C2   1251 0.10137000  12.010000   ; qtot -0.305933
 1252         h1     43    bbb     H3   1252 0.04411300   1.008000   ; qtot -0.261820
 1253         h1     43    bbb     H4   1253 0.04411300   1.008000   ; qtot -0.217707
 1254         c3     43    bbb     C3   1254 -0.00195300  12.010000   ; qtot -0.219660
 1255         h1     43    bbb     H5   1255 0.05064400   1.008000   ; qtot -0.169016
 1256         h1     43    bbb     H6   1256 0.05064400   1.008000   ; qtot -0.118372
 1257         c3     43    bbb     C4   1257 -0.01612100  12.010000   ; qtot -0.134493
 1258         hc     43    bbb     H7   1258 0.04936100   1.008000   ; qtot -0.085132
 1259         hc     43    bbb     H8   1259 0.04936100   1.008000   ; qtot -0.035771
 1260         c3     43    bbb     C5   1260 0.11363000  12.010000   ; qtot 0.077859
 1261         hc     43    bbb     H9   1261 0.06265900   1.008000   ; qtot 0.140518
 1262         hc     43    bbb    H10   1262 0.06265900   1.008000   ; qtot 0.203177
 1263         c3     43    bbb     C6   1263 0.11363000  12.010000   ; qtot 0.316807
 1264         hc     43    bbb    H11   1264 0.06265900   1.008000   ; qtot 0.379466
 1265         hc     43    bbb    H12   1265 0.06265900   1.008000   ; qtot 0.442125
 1266         c3     43    bbb     C7   1266 0.05858200  12.010000   ; qtot 0.500707
 1267         h1     43    bbb    H13   1267 0.06123400   1.008000   ; qtot 0.561941
 1268         h1     43    bbb    H14   1268 0.06123400   1.008000   ; qtot 0.623175
 1269         c3     43    bbb     C8   1269 -0.72423400  12.010000   ; qtot -0.101059
 1270         h1     43    bbb    H15   1270 0.25637600   1.008000   ; qtot 0.155317
 1271         h1     43    bbb    H16   1271 0.25637600   1.008000   ; qtot 0.411693
 1272         c3     43    bbb     C9   1272 -0.72423400  12.010000   ; qtot -0.312541
 1273         h1     43    bbb    H17   1273 0.25637600   1.008000   ; qtot -0.056165
 1274         h1     43    bbb    H18   1274 0.25637600   1.008000   ; qtot 0.200211
 1275         os     43    bbb     O1   1275 -0.20025300  16.000000   ; qtot -0.000042
; residue   44 bbb rtp bbb q -0.0
 1276         n3     44    bbb     N1   1276 -0.59685800  14.010000   ; qtot -0.596900
 1277         c3     44    bbb     C1   1277 0.10137000  12.010000   ; qtot -0.495530
 1278         h1     44    bbb     H1   1278 0.04411300   1.008000   ; qtot -0.451417
 1279         h1     44    bbb     H2   1279 0.04411300   1.008000   ; qtot -0.407304
 1280         c3     44    bbb     C2   1280 0.10137000  12.010000   ; qtot -0.305934
 1281         h1     44    bbb     H3   1281 0.04411300   1.008000   ; qtot -0.261821
 1282         h1     44    bbb     H4   1282 0.04411300   1.008000   ; qtot -0.217708
 1283         c3     44    bbb     C3   1283 -0.00195300  12.010000   ; qtot -0.219661
 1284         h1     44    bbb     H5   1284 0.05064400   1.008000   ; qtot -0.169017
 1285         h1     44    bbb     H6   1285 0.05064400   1.008000   ; qtot -0.118373
 1286         c3     44    bbb     C4   1286 -0.01612100  12.010000   ; qtot -0.134494
 1287         hc     44    bbb     H7   1287 0.04936100   1.008000   ; qtot -0.085133
 1288         hc     44    bbb     H8   1288 0.04936100   1.008000   ; qtot -0.035772
 1289         c3     44    bbb     C5   1289 0.11363000  12.010000   ; qtot 0.077858
 1290         hc     44    bbb     H9   1290 0.06265900   1.008000   ; qtot 0.140517
 1291         hc     44    bbb    H10   1291 0.06265900   1.008000   ; qtot 0.203176
 1292         c3     44    bbb     C6   1292 0.11363000  12.010000   ; qtot 0.316806
 1293         hc     44    bbb    H11   1293 0.06265900   1.008000   ; qtot 0.379465
 1294         hc     44    bbb    H12   1294 0.06265900   1.008000   ; qtot 0.442124
 1295         c3     44    bbb     C7   1295 0.05858200  12.010000   ; qtot 0.500706
 1296         h1     44    bbb    H13   1296 0.06123400   1.008000   ; qtot 0.561940
 1297         h1     44    bbb    H14   1297 0.06123400   1.008000   ; qtot 0.623174
 1298         c3     44    bbb     C8   1298 -0.72423400  12.010000   ; qtot -0.101060
 1299         h1     44    bbb    H15   1299 0.25637600   1.008000   ; qtot 0.155316
 1300         h1     44    bbb    H16   1300 0.25637600   1.008000   ; qtot 0.411692
 1301         c3     44    bbb     C9   1301 -0.72423400  12.010000   ; qtot -0.312542
 1302         h1     44    bbb    H17   1302 0.25637600   1.008000   ; qtot -0.056166
 1303         h1     44    bbb    H18   1303 0.25637600   1.008000   ; qtot 0.200210
 1304         os     44    bbb     O1   1304 -0.20025300  16.000000   ; qtot -0.000043
; residue   45 bbb rtp bbb q -0.0
 1305         n3     45    bbb     N1   1305 -0.59685800  14.010000   ; qtot -0.596901
 1306         c3     45    bbb     C1   1306 0.10137000  12.010000   ; qtot -0.495531
 1307         h1     45    bbb     H1   1307 0.04411300   1.008000   ; qtot -0.451418
 1308         h1     45    bbb     H2   1308 0.04411300   1.008000   ; qtot -0.407305
 1309         c3     45    bbb     C2   1309 0.10137000  12.010000   ; qtot -0.305935
 1310         h1     45    bbb     H3   1310 0.04411300   1.008000   ; qtot -0.261822
 1311         h1     45    bbb     H4   1311 0.04411300   1.008000   ; qtot -0.217709
 1312         c3     45    bbb     C3   1312 -0.00195300  12.010000   ; qtot -0.219662
 1313         h1     45    bbb     H5   1313 0.05064400   1.008000   ; qtot -0.169018
 1314         h1     45    bbb     H6   1314 0.05064400   1.008000   ; qtot -0.118374
 1315         c3     45    bbb     C4   1315 -0.01612100  12.010000   ; qtot -0.134495
 1316         hc     45    bbb     H7   1316 0.04936100   1.008000   ; qtot -0.085134
 1317         hc     45    bbb     H8   1317 0.04936100   1.008000   ; qtot -0.035773
 1318         c3     45    bbb     C5   1318 0.11363000  12.010000   ; qtot 0.077857
 1319         hc     45    bbb     H9   1319 0.06265900   1.008000   ; qtot 0.140516
 1320         hc     45    bbb    H10   1320 0.06265900   1.008000   ; qtot 0.203175
 1321         c3     45    bbb     C6   1321 0.11363000  12.010000   ; qtot 0.316805
 1322         hc     45    bbb    H11   1322 0.06265900   1.008000   ; qtot 0.379464
 1323         hc     45    bbb    H12   1323 0.06265900   1.008000   ; qtot 0.442123
 1324         c3     45    bbb     C7   1324 0.05858200  12.010000   ; qtot 0.500705
 1325         h1     45    bbb    H13   1325 0.06123400   1.008000   ; qtot 0.561939
 1326         h1     45    bbb    H14   1326 0.06123400   1.008000   ; qtot 0.623173
 1327         c3     45    bbb     C8   1327 -0.72423400  12.010000   ; qtot -0.101061
 1328         h1     45    bbb    H15   1328 0.25637600   1.008000   ; qtot 0.155315
 1329         h1     45    bbb    H16   1329 0.25637600   1.008000   ; qtot 0.411691
 1330         c3     45    bbb     C9   1330 -0.72423400  12.010000   ; qtot -0.312543
 1331         h1     45    bbb    H17   1331 0.25637600   1.008000   ; qtot -0.056167
 1332         h1     45    bbb    H18   1332 0.25637600   1.008000   ; qtot 0.200209
 1333         os     45    bbb     O1   1333 -0.20025300  16.000000   ; qtot -0.000044
; residue   46 bbb rtp bbb q -0.0
 1334         n3     46    bbb     N1   1334 -0.59685800  14.010000   ; qtot -0.596902
 1335         c3     46    bbb     C1   1335 0.10137000  12.010000   ; qtot -0.495532
 1336         h1     46    bbb     H1   1336 0.04411300   1.008000   ; qtot -0.451419
 1337         h1     46    bbb     H2   1337 0.04411300   1.008000   ; qtot -0.407306
 1338         c3     46    bbb     C2   1338 0.10137000  12.010000   ; qtot -0.305936
 1339         h1     46    bbb     H3   1339 0.04411300   1.008000   ; qtot -0.261823
 1340         h1     46    bbb     H4   1340 0.04411300   1.008000   ; qtot -0.217710
 1341         c3     46    bbb     C3   1341 -0.00195300  12.010000   ; qtot -0.219663
 1342         h1     46    bbb     H5   1342 0.05064400   1.008000   ; qtot -0.169019
 1343         h1     46    bbb     H6   1343 0.05064400   1.008000   ; qtot -0.118375
 1344         c3     46    bbb     C4   1344 -0.01612100  12.010000   ; qtot -0.134496
 1345         hc     46    bbb     H7   1345 0.04936100   1.008000   ; qtot -0.085135
 1346         hc     46    bbb     H8   1346 0.04936100   1.008000   ; qtot -0.035774
 1347         c3     46    bbb     C5   1347 0.11363000  12.010000   ; qtot 0.077856
 1348         hc     46    bbb     H9   1348 0.06265900   1.008000   ; qtot 0.140515
 1349         hc     46    bbb    H10   1349 0.06265900   1.008000   ; qtot 0.203174
 1350         c3     46    bbb     C6   1350 0.11363000  12.010000   ; qtot 0.316804
 1351         hc     46    bbb    H11   1351 0.06265900   1.008000   ; qtot 0.379463
 1352         hc     46    bbb    H12   1352 0.06265900   1.008000   ; qtot 0.442122
 1353         c3     46    bbb     C7   1353 0.05858200  12.010000   ; qtot 0.500704
 1354         h1     46    bbb    H13   1354 0.06123400   1.008000   ; qtot 0.561938
 1355         h1     46    bbb    H14   1355 0.06123400   1.008000   ; qtot 0.623172
 1356         c3     46    bbb     C8   1356 -0.72423400  12.010000   ; qtot -0.101062
 1357         h1     46    bbb    H15   1357 0.25637600   1.008000   ; qtot 0.155314
 1358         h1     46    bbb    H16   1358 0.25637600   1.008000   ; qtot 0.411690
 1359         c3     46    bbb     C9   1359 -0.72423400  12.010000   ; qtot -0.312544
 1360         h1     46    bbb    H17   1360 0.25637600   1.008000   ; qtot -0.056168
 1361         h1     46    bbb    H18   1361 0.25637600   1.008000   ; qtot 0.200208
 1362         os     46    bbb     O1   1362 -0.20025300  16.000000   ; qtot -0.000045
; residue   47 bbb rtp bbb q -0.0
 1363         n3     47    bbb     N1   1363 -0.59685800  14.010000   ; qtot -0.596903
 1364         c3     47    bbb     C1   1364 0.10137000  12.010000   ; qtot -0.495533
 1365         h1     47    bbb     H1   1365 0.04411300   1.008000   ; qtot -0.451420
 1366         h1     47    bbb     H2   1366 0.04411300   1.008000   ; qtot -0.407307
 1367         c3     47    bbb     C2   1367 0.10137000  12.010000   ; qtot -0.305937
 1368         h1     47    bbb     H3   1368 0.04411300   1.008000   ; qtot -0.261824
 1369         h1     47    bbb     H4   1369 0.04411300   1.008000   ; qtot -0.217711
 1370         c3     47    bbb     C3   1370 -0.00195300  12.010000   ; qtot -0.219664
 1371         h1     47    bbb     H5   1371 0.05064400   1.008000   ; qtot -0.169020
 1372         h1     47    bbb     H6   1372 0.05064400   1.008000   ; qtot -0.118376
 1373         c3     47    bbb     C4   1373 -0.01612100  12.010000   ; qtot -0.134497
 1374         hc     47    bbb     H7   1374 0.04936100   1.008000   ; qtot -0.085136
 1375         hc     47    bbb     H8   1375 0.04936100   1.008000   ; qtot -0.035775
 1376         c3     47    bbb     C5   1376 0.11363000  12.010000   ; qtot 0.077855
 1377         hc     47    bbb     H9   1377 0.06265900   1.008000   ; qtot 0.140514
 1378         hc     47    bbb    H10   1378 0.06265900   1.008000   ; qtot 0.203173
 1379         c3     47    bbb     C6   1379 0.11363000  12.010000   ; qtot 0.316803
 1380         hc     47    bbb    H11   1380 0.06265900   1.008000   ; qtot 0.379462
 1381         hc     47    bbb    H12   1381 0.06265900   1.008000   ; qtot 0.442121
 1382         c3     47    bbb     C7   1382 0.05858200  12.010000   ; qtot 0.500703
 1383         h1     47    bbb    H13   1383 0.06123400   1.008000   ; qtot 0.561937
 1384         h1     47    bbb    H14   1384 0.06123400   1.008000   ; qtot 0.623171
 1385         c3     47    bbb     C8   1385 -0.72423400  12.010000   ; qtot -0.101063
 1386         h1     47    bbb    H15   1386 0.25637600   1.008000   ; qtot 0.155313
 1387         h1     47    bbb    H16   1387 0.25637600   1.008000   ; qtot 0.411689
 1388         c3     47    bbb     C9   1388 -0.72423400  12.010000   ; qtot -0.312545
 1389         h1     47    bbb    H17   1389 0.25637600   1.008000   ; qtot -0.056169
 1390         h1     47    bbb    H18   1390 0.25637600   1.008000   ; qtot 0.200207
 1391         os     47    bbb     O1   1391 -0.20025300  16.000000   ; qtot -0.000046
; residue   48 bbb rtp bbb q -0.0
 1392         n3     48    bbb     N1   1392 -0.59685800  14.010000   ; qtot -0.596904
 1393         c3     48    bbb     C1   1393 0.10137000  12.010000   ; qtot -0.495534
 1394         h1     48    bbb     H1   1394 0.04411300   1.008000   ; qtot -0.451421
 1395         h1     48    bbb     H2   1395 0.04411300   1.008000   ; qtot -0.407308
 1396         c3     48    bbb     C2   1396 0.10137000  12.010000   ; qtot -0.305938
 1397         h1     48    bbb     H3   1397 0.04411300   1.008000   ; qtot -0.261825
 1398         h1     48    bbb     H4   1398 0.04411300   1.008000   ; qtot -0.217712
 1399         c3     48    bbb     C3   1399 -0.00195300  12.010000   ; qtot -0.219665
 1400         h1     48    bbb     H5   1400 0.05064400   1.008000   ; qtot -0.169021
 1401         h1     48    bbb     H6   1401 0.05064400   1.008000   ; qtot -0.118377
 1402         c3     48    bbb     C4   1402 -0.01612100  12.010000   ; qtot -0.134498
 1403         hc     48    bbb     H7   1403 0.04936100   1.008000   ; qtot -0.085137
 1404         hc     48    bbb     H8   1404 0.04936100   1.008000   ; qtot -0.035776
 1405         c3     48    bbb     C5   1405 0.11363000  12.010000   ; qtot 0.077854
 1406         hc     48    bbb     H9   1406 0.06265900   1.008000   ; qtot 0.140513
 1407         hc     48    bbb    H10   1407 0.06265900   1.008000   ; qtot 0.203172
 1408         c3     48    bbb     C6   1408 0.11363000  12.010000   ; qtot 0.316802
 1409         hc     48    bbb    H11   1409 0.06265900   1.008000   ; qtot 0.379461
 1410         hc     48    bbb    H12   1410 0.06265900   1.008000   ; qtot 0.442120
 1411         c3     48    bbb     C7   1411 0.05858200  12.010000   ; qtot 0.500702
 1412         h1     48    bbb    H13   1412 0.06123400   1.008000   ; qtot 0.561936
 1413         h1     48    bbb    H14   1413 0.06123400   1.008000   ; qtot 0.623170
 1414         c3     48    bbb     C8   1414 -0.72423400  12.010000   ; qtot -0.101064
 1415         h1     48    bbb    H15   1415 0.25637600   1.008000   ; qtot 0.155312
 1416         h1     48    bbb    H16   1416 0.25637600   1.008000   ; qtot 0.411688
 1417         c3     48    bbb     C9   1417 -0.72423400  12.010000   ; qtot -0.312546
 1418         h1     48    bbb    H17   1418 0.25637600   1.008000   ; qtot -0.056170
 1419         h1     48    bbb    H18   1419 0.25637600   1.008000   ; qtot 0.200206
 1420         os     48    bbb     O1   1420 -0.20025300  16.000000   ; qtot -0.000047
; residue   49 bbb rtp bbb q -0.0
 1421         n3     49    bbb     N1   1421 -0.59685800  14.010000   ; qtot -0.596905
 1422         c3     49    bbb     C1   1422 0.10137000  12.010000   ; qtot -0.495535
 1423         h1     49    bbb     H1   1423 0.04411300   1.008000   ; qtot -0.451422
 1424         h1     49    bbb     H2   1424 0.04411300   1.008000   ; qtot -0.407309
 1425         c3     49    bbb     C2   1425 0.10137000  12.010000   ; qtot -0.305939
 1426         h1     49    bbb     H3   1426 0.04411300   1.008000   ; qtot -0.261826
 1427         h1     49    bbb     H4   1427 0.04411300   1.008000   ; qtot -0.217713
 1428         c3     49    bbb     C3   1428 -0.00195300  12.010000   ; qtot -0.219666
 1429         h1     49    bbb     H5   1429 0.05064400   1.008000   ; qtot -0.169022
 1430         h1     49    bbb     H6   1430 0.05064400   1.008000   ; qtot -0.118378
 1431         c3     49    bbb     C4   1431 -0.01612100  12.010000   ; qtot -0.134499
 1432         hc     49    bbb     H7   1432 0.04936100   1.008000   ; qtot -0.085138
 1433         hc     49    bbb     H8   1433 0.04936100   1.008000   ; qtot -0.035777
 1434         c3     49    bbb     C5   1434 0.11363000  12.010000   ; qtot 0.077853
 1435         hc     49    bbb     H9   1435 0.06265900   1.008000   ; qtot 0.140512
 1436         hc     49    bbb    H10   1436 0.06265900   1.008000   ; qtot 0.203171
 1437         c3     49    bbb     C6   1437 0.11363000  12.010000   ; qtot 0.316801
 1438         hc     49    bbb    H11   1438 0.06265900   1.008000   ; qtot 0.379460
 1439         hc     49    bbb    H12   1439 0.06265900   1.008000   ; qtot 0.442119
 1440         c3     49    bbb     C7   1440 0.05858200  12.010000   ; qtot 0.500701
 1441         h1     49    bbb    H13   1441 0.06123400   1.008000   ; qtot 0.561935
 1442         h1     49    bbb    H14   1442 0.06123400   1.008000   ; qtot 0.623169
 1443         c3     49    bbb     C8   1443 -0.72423400  12.010000   ; qtot -0.101065
 1444         h1     49    bbb    H15   1444 0.25637600   1.008000   ; qtot 0.155311
 1445         h1     49    bbb    H16   1445 0.25637600   1.008000   ; qtot 0.411687
 1446         c3     49    bbb     C9   1446 -0.72423400  12.010000   ; qtot -0.312547
 1447         h1     49    bbb    H17   1447 0.25637600   1.008000   ; qtot -0.056171
 1448         h1     49    bbb    H18   1448 0.25637600   1.008000   ; qtot 0.200205
 1449         os     49    bbb     O1   1449 -0.20025300  16.000000   ; qtot -0.000048
; residue   50 bbb rtp bbb q -0.0
 1450         n3     50    bbb     N1   1450 -0.59685800  14.010000   ; qtot -0.596906
 1451         c3     50    bbb     C1   1451 0.10137000  12.010000   ; qtot -0.495536
 1452         h1     50    bbb     H1   1452 0.04411300   1.008000   ; qtot -0.451423
 1453         h1     50    bbb     H2   1453 0.04411300   1.008000   ; qtot -0.407310
 1454         c3     50    bbb     C2   1454 0.10137000  12.010000   ; qtot -0.305940
 1455         h1     50    bbb     H3   1455 0.04411300   1.008000   ; qtot -0.261827
 1456         h1     50    bbb     H4   1456 0.04411300   1.008000   ; qtot -0.217714
 1457         c3     50    bbb     C3   1457 -0.00195300  12.010000   ; qtot -0.219667
 1458         h1     50    bbb     H5   1458 0.05064400   1.008000   ; qtot -0.169023
 1459         h1     50    bbb     H6   1459 0.05064400   1.008000   ; qtot -0.118379
 1460         c3     50    bbb     C4   1460 -0.01612100  12.010000   ; qtot -0.134500
 1461         hc     50    bbb     H7   1461 0.04936100   1.008000   ; qtot -0.085139
 1462         hc     50    bbb     H8   1462 0.04936100   1.008000   ; qtot -0.035778
 1463         c3     50    bbb     C5   1463 0.11363000  12.010000   ; qtot 0.077852
 1464         hc     50    bbb     H9   1464 0.06265900   1.008000   ; qtot 0.140511
 1465         hc     50    bbb    H10   1465 0.06265900   1.008000   ; qtot 0.203170
 1466         c3     50    bbb     C6   1466 0.11363000  12.010000   ; qtot 0.316800
 1467         hc     50    bbb    H11   1467 0.06265900   1.008000   ; qtot 0.379459
 1468         hc     50    bbb    H12   1468 0.06265900   1.008000   ; qtot 0.442118
 1469         c3     50    bbb     C7   1469 0.05858200  12.010000   ; qtot 0.500700
 1470         h1     50    bbb    H13   1470 0.06123400   1.008000   ; qtot 0.561934
 1471         h1     50    bbb    H14   1471 0.06123400   1.008000   ; qtot 0.623168
 1472         c3     50    bbb     C8   1472 -0.72423400  12.010000   ; qtot -0.101066
 1473         h1     50    bbb    H15   1473 0.25637600   1.008000   ; qtot 0.155310
 1474         h1     50    bbb    H16   1474 0.25637600   1.008000   ; qtot 0.411686
 1475         c3     50    bbb     C9   1475 -0.72423400  12.010000   ; qtot -0.312548
 1476         h1     50    bbb    H17   1476 0.25637600   1.008000   ; qtot -0.056172
 1477         h1     50    bbb    H18   1477 0.25637600   1.008000   ; qtot 0.200204
 1478         os     50    bbb     O1   1478 -0.20025300  16.000000   ; qtot -0.000049
; residue   51 bbb rtp bbb q -0.0
 1479         n3     51    bbb     N1   1479 -0.59685800  14.010000   ; qtot -0.596907
 1480         c3     51    bbb     C1   1480 0.10137000  12.010000   ; qtot -0.495537
 1481         h1     51    bbb     H1   1481 0.04411300   1.008000   ; qtot -0.451424
 1482         h1     51    bbb     H2   1482 0.04411300   1.008000   ; qtot -0.407311
 1483         c3     51    bbb     C2   1483 0.10137000  12.010000   ; qtot -0.305941
 1484         h1     51    bbb     H3   1484 0.04411300   1.008000   ; qtot -0.261828
 1485         h1     51    bbb     H4   1485 0.04411300   1.008000   ; qtot -0.217715
 1486         c3     51    bbb     C3   1486 -0.00195300  12.010000   ; qtot -0.219668
 1487         h1     51    bbb     H5   1487 0.05064400   1.008000   ; qtot -0.169024
 1488         h1     51    bbb     H6   1488 0.05064400   1.008000   ; qtot -0.118380
 1489         c3     51    bbb     C4   1489 -0.01612100  12.010000   ; qtot -0.134501
 1490         hc     51    bbb     H7   1490 0.04936100   1.008000   ; qtot -0.085140
 1491         hc     51    bbb     H8   1491 0.04936100   1.008000   ; qtot -0.035779
 1492         c3     51    bbb     C5   1492 0.11363000  12.010000   ; qtot 0.077851
 1493         hc     51    bbb     H9   1493 0.06265900   1.008000   ; qtot 0.140510
 1494         hc     51    bbb    H10   1494 0.06265900   1.008000   ; qtot 0.203169
 1495         c3     51    bbb     C6   1495 0.11363000  12.010000   ; qtot 0.316799
 1496         hc     51    bbb    H11   1496 0.06265900   1.008000   ; qtot 0.379458
 1497         hc     51    bbb    H12   1497 0.06265900   1.008000   ; qtot 0.442117
 1498         c3     51    bbb     C7   1498 0.05858200  12.010000   ; qtot 0.500699
 1499         h1     51    bbb    H13   1499 0.06123400   1.008000   ; qtot 0.561933
 1500         h1     51    bbb    H14   1500 0.06123400   1.008000   ; qtot 0.623167
 1501         c3     51    bbb     C8   1501 -0.72423400  12.010000   ; qtot -0.101067
 1502         h1     51    bbb    H15   1502 0.25637600   1.008000   ; qtot 0.155309
 1503         h1     51    bbb    H16   1503 0.25637600   1.008000   ; qtot 0.411685
 1504         c3     51    bbb     C9   1504 -0.72423400  12.010000   ; qtot -0.312549
 1505         h1     51    bbb    H17   1505 0.25637600   1.008000   ; qtot -0.056173
 1506         h1     51    bbb    H18   1506 0.25637600   1.008000   ; qtot 0.200203
 1507         os     51    bbb     O1   1507 -0.20025300  16.000000   ; qtot -0.000050
; residue   52 bbb rtp bbb q -0.0
 1508         n3     52    bbb     N1   1508 -0.59685800  14.010000   ; qtot -0.596908
 1509         c3     52    bbb     C1   1509 0.10137000  12.010000   ; qtot -0.495538
 1510         h1     52    bbb     H1   1510 0.04411300   1.008000   ; qtot -0.451425
 1511         h1     52    bbb     H2   1511 0.04411300   1.008000   ; qtot -0.407312
 1512         c3     52    bbb     C2   1512 0.10137000  12.010000   ; qtot -0.305942
 1513         h1     52    bbb     H3   1513 0.04411300   1.008000   ; qtot -0.261829
 1514         h1     52    bbb     H4   1514 0.04411300   1.008000   ; qtot -0.217716
 1515         c3     52    bbb     C3   1515 -0.00195300  12.010000   ; qtot -0.219669
 1516         h1     52    bbb     H5   1516 0.05064400   1.008000   ; qtot -0.169025
 1517         h1     52    bbb     H6   1517 0.05064400   1.008000   ; qtot -0.118381
 1518         c3     52    bbb     C4   1518 -0.01612100  12.010000   ; qtot -0.134502
 1519         hc     52    bbb     H7   1519 0.04936100   1.008000   ; qtot -0.085141
 1520         hc     52    bbb     H8   1520 0.04936100   1.008000   ; qtot -0.035780
 1521         c3     52    bbb     C5   1521 0.11363000  12.010000   ; qtot 0.077850
 1522         hc     52    bbb     H9   1522 0.06265900   1.008000   ; qtot 0.140509
 1523         hc     52    bbb    H10   1523 0.06265900   1.008000   ; qtot 0.203168
 1524         c3     52    bbb     C6   1524 0.11363000  12.010000   ; qtot 0.316798
 1525         hc     52    bbb    H11   1525 0.06265900   1.008000   ; qtot 0.379457
 1526         hc     52    bbb    H12   1526 0.06265900   1.008000   ; qtot 0.442116
 1527         c3     52    bbb     C7   1527 0.05858200  12.010000   ; qtot 0.500698
 1528         h1     52    bbb    H13   1528 0.06123400   1.008000   ; qtot 0.561932
 1529         h1     52    bbb    H14   1529 0.06123400   1.008000   ; qtot 0.623166
 1530         c3     52    bbb     C8   1530 -0.72423400  12.010000   ; qtot -0.101068
 1531         h1     52    bbb    H15   1531 0.25637600   1.008000   ; qtot 0.155308
 1532         h1     52    bbb    H16   1532 0.25637600   1.008000   ; qtot 0.411684
 1533         c3     52    bbb     C9   1533 -0.72423400  12.010000   ; qtot -0.312550
 1534         h1     52    bbb    H17   1534 0.25637600   1.008000   ; qtot -0.056174
 1535         h1     52    bbb    H18   1535 0.25637600   1.008000   ; qtot 0.200202
 1536         os     52    bbb     O1   1536 -0.20025300  16.000000   ; qtot -0.000051
; residue   53 bbb rtp bbb q -0.0
 1537         n3     53    bbb     N1   1537 -0.59685800  14.010000   ; qtot -0.596909
 1538         c3     53    bbb     C1   1538 0.10137000  12.010000   ; qtot -0.495539
 1539         h1     53    bbb     H1   1539 0.04411300   1.008000   ; qtot -0.451426
 1540         h1     53    bbb     H2   1540 0.04411300   1.008000   ; qtot -0.407313
 1541         c3     53    bbb     C2   1541 0.10137000  12.010000   ; qtot -0.305943
 1542         h1     53    bbb     H3   1542 0.04411300   1.008000   ; qtot -0.261830
 1543         h1     53    bbb     H4   1543 0.04411300   1.008000   ; qtot -0.217717
 1544         c3     53    bbb     C3   1544 -0.00195300  12.010000   ; qtot -0.219670
 1545         h1     53    bbb     H5   1545 0.05064400   1.008000   ; qtot -0.169026
 1546         h1     53    bbb     H6   1546 0.05064400   1.008000   ; qtot -0.118382
 1547         c3     53    bbb     C4   1547 -0.01612100  12.010000   ; qtot -0.134503
 1548         hc     53    bbb     H7   1548 0.04936100   1.008000   ; qtot -0.085142
 1549         hc     53    bbb     H8   1549 0.04936100   1.008000   ; qtot -0.035781
 1550         c3     53    bbb     C5   1550 0.11363000  12.010000   ; qtot 0.077849
 1551         hc     53    bbb     H9   1551 0.06265900   1.008000   ; qtot 0.140508
 1552         hc     53    bbb    H10   1552 0.06265900   1.008000   ; qtot 0.203167
 1553         c3     53    bbb     C6   1553 0.11363000  12.010000   ; qtot 0.316797
 1554         hc     53    bbb    H11   1554 0.06265900   1.008000   ; qtot 0.379456
 1555         hc     53    bbb    H12   1555 0.06265900   1.008000   ; qtot 0.442115
 1556         c3     53    bbb     C7   1556 0.05858200  12.010000   ; qtot 0.500697
 1557         h1     53    bbb    H13   1557 0.06123400   1.008000   ; qtot 0.561931
 1558         h1     53    bbb    H14   1558 0.06123400   1.008000   ; qtot 0.623165
 1559         c3     53    bbb     C8   1559 -0.72423400  12.010000   ; qtot -0.101069
 1560         h1     53    bbb    H15   1560 0.25637600   1.008000   ; qtot 0.155307
 1561         h1     53    bbb    H16   1561 0.25637600   1.008000   ; qtot 0.411683
 1562         c3     53    bbb     C9   1562 -0.72423400  12.010000   ; qtot -0.312551
 1563         h1     53    bbb    H17   1563 0.25637600   1.008000   ; qtot -0.056175
 1564         h1     53    bbb    H18   1564 0.25637600   1.008000   ; qtot 0.200201
 1565         os     53    bbb     O1   1565 -0.20025300  16.000000   ; qtot -0.000052
; residue   54 bbb rtp bbb q -0.0
 1566         n3     54    bbb     N1   1566 -0.59685800  14.010000   ; qtot -0.596910
 1567         c3     54    bbb     C1   1567 0.10137000  12.010000   ; qtot -0.495540
 1568         h1     54    bbb     H1   1568 0.04411300   1.008000   ; qtot -0.451427
 1569         h1     54    bbb     H2   1569 0.04411300   1.008000   ; qtot -0.407314
 1570         c3     54    bbb     C2   1570 0.10137000  12.010000   ; qtot -0.305944
 1571         h1     54    bbb     H3   1571 0.04411300   1.008000   ; qtot -0.261831
 1572         h1     54    bbb     H4   1572 0.04411300   1.008000   ; qtot -0.217718
 1573         c3     54    bbb     C3   1573 -0.00195300  12.010000   ; qtot -0.219671
 1574         h1     54    bbb     H5   1574 0.05064400   1.008000   ; qtot -0.169027
 1575         h1     54    bbb     H6   1575 0.05064400   1.008000   ; qtot -0.118383
 1576         c3     54    bbb     C4   1576 -0.01612100  12.010000   ; qtot -0.134504
 1577         hc     54    bbb     H7   1577 0.04936100   1.008000   ; qtot -0.085143
 1578         hc     54    bbb     H8   1578 0.04936100   1.008000   ; qtot -0.035782
 1579         c3     54    bbb     C5   1579 0.11363000  12.010000   ; qtot 0.077848
 1580         hc     54    bbb     H9   1580 0.06265900   1.008000   ; qtot 0.140507
 1581         hc     54    bbb    H10   1581 0.06265900   1.008000   ; qtot 0.203166
 1582         c3     54    bbb     C6   1582 0.11363000  12.010000   ; qtot 0.316796
 1583         hc     54    bbb    H11   1583 0.06265900   1.008000   ; qtot 0.379455
 1584         hc     54    bbb    H12   1584 0.06265900   1.008000   ; qtot 0.442114
 1585         c3     54    bbb     C7   1585 0.05858200  12.010000   ; qtot 0.500696
 1586         h1     54    bbb    H13   1586 0.06123400   1.008000   ; qtot 0.561930
 1587         h1     54    bbb    H14   1587 0.06123400   1.008000   ; qtot 0.623164
 1588         c3     54    bbb     C8   1588 -0.72423400  12.010000   ; qtot -0.101070
 1589         h1     54    bbb    H15   1589 0.25637600   1.008000   ; qtot 0.155306
 1590         h1     54    bbb    H16   1590 0.25637600   1.008000   ; qtot 0.411682
 1591         c3     54    bbb     C9   1591 -0.72423400  12.010000   ; qtot -0.312552
 1592         h1     54    bbb    H17   1592 0.25637600   1.008000   ; qtot -0.056176
 1593         h1     54    bbb    H18   1593 0.25637600   1.008000   ; qtot 0.200200
 1594         os     54    bbb     O1   1594 -0.20025300  16.000000   ; qtot -0.000053
; residue   55 bbb rtp bbb q -0.0
 1595         n3     55    bbb     N1   1595 -0.59685800  14.010000   ; qtot -0.596911
 1596         c3     55    bbb     C1   1596 0.10137000  12.010000   ; qtot -0.495541
 1597         h1     55    bbb     H1   1597 0.04411300   1.008000   ; qtot -0.451428
 1598         h1     55    bbb     H2   1598 0.04411300   1.008000   ; qtot -0.407315
 1599         c3     55    bbb     C2   1599 0.10137000  12.010000   ; qtot -0.305945
 1600         h1     55    bbb     H3   1600 0.04411300   1.008000   ; qtot -0.261832
 1601         h1     55    bbb     H4   1601 0.04411300   1.008000   ; qtot -0.217719
 1602         c3     55    bbb     C3   1602 -0.00195300  12.010000   ; qtot -0.219672
 1603         h1     55    bbb     H5   1603 0.05064400   1.008000   ; qtot -0.169028
 1604         h1     55    bbb     H6   1604 0.05064400   1.008000   ; qtot -0.118384
 1605         c3     55    bbb     C4   1605 -0.01612100  12.010000   ; qtot -0.134505
 1606         hc     55    bbb     H7   1606 0.04936100   1.008000   ; qtot -0.085144
 1607         hc     55    bbb     H8   1607 0.04936100   1.008000   ; qtot -0.035783
 1608         c3     55    bbb     C5   1608 0.11363000  12.010000   ; qtot 0.077847
 1609         hc     55    bbb     H9   1609 0.06265900   1.008000   ; qtot 0.140506
 1610         hc     55    bbb    H10   1610 0.06265900   1.008000   ; qtot 0.203165
 1611         c3     55    bbb     C6   1611 0.11363000  12.010000   ; qtot 0.316795
 1612         hc     55    bbb    H11   1612 0.06265900   1.008000   ; qtot 0.379454
 1613         hc     55    bbb    H12   1613 0.06265900   1.008000   ; qtot 0.442113
 1614         c3     55    bbb     C7   1614 0.05858200  12.010000   ; qtot 0.500695
 1615         h1     55    bbb    H13   1615 0.06123400   1.008000   ; qtot 0.561929
 1616         h1     55    bbb    H14   1616 0.06123400   1.008000   ; qtot 0.623163
 1617         c3     55    bbb     C8   1617 -0.72423400  12.010000   ; qtot -0.101071
 1618         h1     55    bbb    H15   1618 0.25637600   1.008000   ; qtot 0.155305
 1619         h1     55    bbb    H16   1619 0.25637600   1.008000   ; qtot 0.411681
 1620         c3     55    bbb     C9   1620 -0.72423400  12.010000   ; qtot -0.312553
 1621         h1     55    bbb    H17   1621 0.25637600   1.008000   ; qtot -0.056177
 1622         h1     55    bbb    H18   1622 0.25637600   1.008000   ; qtot 0.200199
 1623         os     55    bbb     O1   1623 -0.20025300  16.000000   ; qtot -0.000054
; residue   56 bbb rtp bbb q -0.0
 1624         n3     56    bbb     N1   1624 -0.59685800  14.010000   ; qtot -0.596912
 1625         c3     56    bbb     C1   1625 0.10137000  12.010000   ; qtot -0.495542
 1626         h1     56    bbb     H1   1626 0.04411300   1.008000   ; qtot -0.451429
 1627         h1     56    bbb     H2   1627 0.04411300   1.008000   ; qtot -0.407316
 1628         c3     56    bbb     C2   1628 0.10137000  12.010000   ; qtot -0.305946
 1629         h1     56    bbb     H3   1629 0.04411300   1.008000   ; qtot -0.261833
 1630         h1     56    bbb     H4   1630 0.04411300   1.008000   ; qtot -0.217720
 1631         c3     56    bbb     C3   1631 -0.00195300  12.010000   ; qtot -0.219673
 1632         h1     56    bbb     H5   1632 0.05064400   1.008000   ; qtot -0.169029
 1633         h1     56    bbb     H6   1633 0.05064400   1.008000   ; qtot -0.118385
 1634         c3     56    bbb     C4   1634 -0.01612100  12.010000   ; qtot -0.134506
 1635         hc     56    bbb     H7   1635 0.04936100   1.008000   ; qtot -0.085145
 1636         hc     56    bbb     H8   1636 0.04936100   1.008000   ; qtot -0.035784
 1637         c3     56    bbb     C5   1637 0.11363000  12.010000   ; qtot 0.077846
 1638         hc     56    bbb     H9   1638 0.06265900   1.008000   ; qtot 0.140505
 1639         hc     56    bbb    H10   1639 0.06265900   1.008000   ; qtot 0.203164
 1640         c3     56    bbb     C6   1640 0.11363000  12.010000   ; qtot 0.316794
 1641         hc     56    bbb    H11   1641 0.06265900   1.008000   ; qtot 0.379453
 1642         hc     56    bbb    H12   1642 0.06265900   1.008000   ; qtot 0.442112
 1643         c3     56    bbb     C7   1643 0.05858200  12.010000   ; qtot 0.500694
 1644         h1     56    bbb    H13   1644 0.06123400   1.008000   ; qtot 0.561928
 1645         h1     56    bbb    H14   1645 0.06123400   1.008000   ; qtot 0.623162
 1646         c3     56    bbb     C8   1646 -0.72423400  12.010000   ; qtot -0.101072
 1647         h1     56    bbb    H15   1647 0.25637600   1.008000   ; qtot 0.155304
 1648         h1     56    bbb    H16   1648 0.25637600   1.008000   ; qtot 0.411680
 1649         c3     56    bbb     C9   1649 -0.72423400  12.010000   ; qtot -0.312554
 1650         h1     56    bbb    H17   1650 0.25637600   1.008000   ; qtot -0.056178
 1651         h1     56    bbb    H18   1651 0.25637600   1.008000   ; qtot 0.200198
 1652         os     56    bbb     O1   1652 -0.20025300  16.000000   ; qtot -0.000055
; residue   57 bbb rtp bbb q -0.0
 1653         n3     57    bbb     N1   1653 -0.59685800  14.010000   ; qtot -0.596913
 1654         c3     57    bbb     C1   1654 0.10137000  12.010000   ; qtot -0.495543
 1655         h1     57    bbb     H1   1655 0.04411300   1.008000   ; qtot -0.451430
 1656         h1     57    bbb     H2   1656 0.04411300   1.008000   ; qtot -0.407317
 1657         c3     57    bbb     C2   1657 0.10137000  12.010000   ; qtot -0.305947
 1658         h1     57    bbb     H3   1658 0.04411300   1.008000   ; qtot -0.261834
 1659         h1     57    bbb     H4   1659 0.04411300   1.008000   ; qtot -0.217721
 1660         c3     57    bbb     C3   1660 -0.00195300  12.010000   ; qtot -0.219674
 1661         h1     57    bbb     H5   1661 0.05064400   1.008000   ; qtot -0.169030
 1662         h1     57    bbb     H6   1662 0.05064400   1.008000   ; qtot -0.118386
 1663         c3     57    bbb     C4   1663 -0.01612100  12.010000   ; qtot -0.134507
 1664         hc     57    bbb     H7   1664 0.04936100   1.008000   ; qtot -0.085146
 1665         hc     57    bbb     H8   1665 0.04936100   1.008000   ; qtot -0.035785
 1666         c3     57    bbb     C5   1666 0.11363000  12.010000   ; qtot 0.077845
 1667         hc     57    bbb     H9   1667 0.06265900   1.008000   ; qtot 0.140504
 1668         hc     57    bbb    H10   1668 0.06265900   1.008000   ; qtot 0.203163
 1669         c3     57    bbb     C6   1669 0.11363000  12.010000   ; qtot 0.316793
 1670         hc     57    bbb    H11   1670 0.06265900   1.008000   ; qtot 0.379452
 1671         hc     57    bbb    H12   1671 0.06265900   1.008000   ; qtot 0.442111
 1672         c3     57    bbb     C7   1672 0.05858200  12.010000   ; qtot 0.500693
 1673         h1     57    bbb    H13   1673 0.06123400   1.008000   ; qtot 0.561927
 1674         h1     57    bbb    H14   1674 0.06123400   1.008000   ; qtot 0.623161
 1675         c3     57    bbb     C8   1675 -0.72423400  12.010000   ; qtot -0.101073
 1676         h1     57    bbb    H15   1676 0.25637600   1.008000   ; qtot 0.155303
 1677         h1     57    bbb    H16   1677 0.25637600   1.008000   ; qtot 0.411679
 1678         c3     57    bbb     C9   1678 -0.72423400  12.010000   ; qtot -0.312555
 1679         h1     57    bbb    H17   1679 0.25637600   1.008000   ; qtot -0.056179
 1680         h1     57    bbb    H18   1680 0.25637600   1.008000   ; qtot 0.200197
 1681         os     57    bbb     O1   1681 -0.20025300  16.000000   ; qtot -0.000056
; residue   58 bbb rtp bbb q -0.0
 1682         n3     58    bbb     N1   1682 -0.59685800  14.010000   ; qtot -0.596914
 1683         c3     58    bbb     C1   1683 0.10137000  12.010000   ; qtot -0.495544
 1684         h1     58    bbb     H1   1684 0.04411300   1.008000   ; qtot -0.451431
 1685         h1     58    bbb     H2   1685 0.04411300   1.008000   ; qtot -0.407318
 1686         c3     58    bbb     C2   1686 0.10137000  12.010000   ; qtot -0.305948
 1687         h1     58    bbb     H3   1687 0.04411300   1.008000   ; qtot -0.261835
 1688         h1     58    bbb     H4   1688 0.04411300   1.008000   ; qtot -0.217722
 1689         c3     58    bbb     C3   1689 -0.00195300  12.010000   ; qtot -0.219675
 1690         h1     58    bbb     H5   1690 0.05064400   1.008000   ; qtot -0.169031
 1691         h1     58    bbb     H6   1691 0.05064400   1.008000   ; qtot -0.118387
 1692         c3     58    bbb     C4   1692 -0.01612100  12.010000   ; qtot -0.134508
 1693         hc     58    bbb     H7   1693 0.04936100   1.008000   ; qtot -0.085147
 1694         hc     58    bbb     H8   1694 0.04936100   1.008000   ; qtot -0.035786
 1695         c3     58    bbb     C5   1695 0.11363000  12.010000   ; qtot 0.077844
 1696         hc     58    bbb     H9   1696 0.06265900   1.008000   ; qtot 0.140503
 1697         hc     58    bbb    H10   1697 0.06265900   1.008000   ; qtot 0.203162
 1698         c3     58    bbb     C6   1698 0.11363000  12.010000   ; qtot 0.316792
 1699         hc     58    bbb    H11   1699 0.06265900   1.008000   ; qtot 0.379451
 1700         hc     58    bbb    H12   1700 0.06265900   1.008000   ; qtot 0.442110
 1701         c3     58    bbb     C7   1701 0.05858200  12.010000   ; qtot 0.500692
 1702         h1     58    bbb    H13   1702 0.06123400   1.008000   ; qtot 0.561926
 1703         h1     58    bbb    H14   1703 0.06123400   1.008000   ; qtot 0.623160
 1704         c3     58    bbb     C8   1704 -0.72423400  12.010000   ; qtot -0.101074
 1705         h1     58    bbb    H15   1705 0.25637600   1.008000   ; qtot 0.155302
 1706         h1     58    bbb    H16   1706 0.25637600   1.008000   ; qtot 0.411678
 1707         c3     58    bbb     C9   1707 -0.72423400  12.010000   ; qtot -0.312556
 1708         h1     58    bbb    H17   1708 0.25637600   1.008000   ; qtot -0.056180
 1709         h1     58    bbb    H18   1709 0.25637600   1.008000   ; qtot 0.200196
 1710         os     58    bbb     O1   1710 -0.20025300  16.000000   ; qtot -0.000057
; residue   59 bbb rtp bbb q -0.0
 1711         n3     59    bbb     N1   1711 -0.59685800  14.010000   ; qtot -0.596915
 1712         c3     59    bbb     C1   1712 0.10137000  12.010000   ; qtot -0.495545
 1713         h1     59    bbb     H1   1713 0.04411300   1.008000   ; qtot -0.451432
 1714         h1     59    bbb     H2   1714 0.04411300   1.008000   ; qtot -0.407319
 1715         c3     59    bbb     C2   1715 0.10137000  12.010000   ; qtot -0.305949
 1716         h1     59    bbb     H3   1716 0.04411300   1.008000   ; qtot -0.261836
 1717         h1     59    bbb     H4   1717 0.04411300   1.008000   ; qtot -0.217723
 1718         c3     59    bbb     C3   1718 -0.00195300  12.010000   ; qtot -0.219676
 1719         h1     59    bbb     H5   1719 0.05064400   1.008000   ; qtot -0.169032
 1720         h1     59    bbb     H6   1720 0.05064400   1.008000   ; qtot -0.118388
 1721         c3     59    bbb     C4   1721 -0.01612100  12.010000   ; qtot -0.134509
 1722         hc     59    bbb     H7   1722 0.04936100   1.008000   ; qtot -0.085148
 1723         hc     59    bbb     H8   1723 0.04936100   1.008000   ; qtot -0.035787
 1724         c3     59    bbb     C5   1724 0.11363000  12.010000   ; qtot 0.077843
 1725         hc     59    bbb     H9   1725 0.06265900   1.008000   ; qtot 0.140502
 1726         hc     59    bbb    H10   1726 0.06265900   1.008000   ; qtot 0.203161
 1727         c3     59    bbb     C6   1727 0.11363000  12.010000   ; qtot 0.316791
 1728         hc     59    bbb    H11   1728 0.06265900   1.008000   ; qtot 0.379450
 1729         hc     59    bbb    H12   1729 0.06265900   1.008000   ; qtot 0.442109
 1730         c3     59    bbb     C7   1730 0.05858200  12.010000   ; qtot 0.500691
 1731         h1     59    bbb    H13   1731 0.06123400   1.008000   ; qtot 0.561925
 1732         h1     59    bbb    H14   1732 0.06123400   1.008000   ; qtot 0.623159
 1733         c3     59    bbb     C8   1733 -0.72423400  12.010000   ; qtot -0.101075
 1734         h1     59    bbb    H15   1734 0.25637600   1.008000   ; qtot 0.155301
 1735         h1     59    bbb    H16   1735 0.25637600   1.008000   ; qtot 0.411677
 1736         c3     59    bbb     C9   1736 -0.72423400  12.010000   ; qtot -0.312557
 1737         h1     59    bbb    H17   1737 0.25637600   1.008000   ; qtot -0.056181
 1738         h1     59    bbb    H18   1738 0.25637600   1.008000   ; qtot 0.200195
 1739         os     59    bbb     O1   1739 -0.20025300  16.000000   ; qtot -0.000058
; residue   60 bbb rtp bbb q -0.0
 1740         n3     60    bbb     N1   1740 -0.59685800  14.010000   ; qtot -0.596916
 1741         c3     60    bbb     C1   1741 0.10137000  12.010000   ; qtot -0.495546
 1742         h1     60    bbb     H1   1742 0.04411300   1.008000   ; qtot -0.451433
 1743         h1     60    bbb     H2   1743 0.04411300   1.008000   ; qtot -0.407320
 1744         c3     60    bbb     C2   1744 0.10137000  12.010000   ; qtot -0.305950
 1745         h1     60    bbb     H3   1745 0.04411300   1.008000   ; qtot -0.261837
 1746         h1     60    bbb     H4   1746 0.04411300   1.008000   ; qtot -0.217724
 1747         c3     60    bbb     C3   1747 -0.00195300  12.010000   ; qtot -0.219677
 1748         h1     60    bbb     H5   1748 0.05064400   1.008000   ; qtot -0.169033
 1749         h1     60    bbb     H6   1749 0.05064400   1.008000   ; qtot -0.118389
 1750         c3     60    bbb     C4   1750 -0.01612100  12.010000   ; qtot -0.134510
 1751         hc     60    bbb     H7   1751 0.04936100   1.008000   ; qtot -0.085149
 1752         hc     60    bbb     H8   1752 0.04936100   1.008000   ; qtot -0.035788
 1753         c3     60    bbb     C5   1753 0.11363000  12.010000   ; qtot 0.077842
 1754         hc     60    bbb     H9   1754 0.06265900   1.008000   ; qtot 0.140501
 1755         hc     60    bbb    H10   1755 0.06265900   1.008000   ; qtot 0.203160
 1756         c3     60    bbb     C6   1756 0.11363000  12.010000   ; qtot 0.316790
 1757         hc     60    bbb    H11   1757 0.06265900   1.008000   ; qtot 0.379449
 1758         hc     60    bbb    H12   1758 0.06265900   1.008000   ; qtot 0.442108
 1759         c3     60    bbb     C7   1759 0.05858200  12.010000   ; qtot 0.500690
 1760         h1     60    bbb    H13   1760 0.06123400   1.008000   ; qtot 0.561924
 1761         h1     60    bbb    H14   1761 0.06123400   1.008000   ; qtot 0.623158
 1762         c3     60    bbb     C8   1762 -0.72423400  12.010000   ; qtot -0.101076
 1763         h1     60    bbb    H15   1763 0.25637600   1.008000   ; qtot 0.155300
 1764         h1     60    bbb    H16   1764 0.25637600   1.008000   ; qtot 0.411676
 1765         c3     60    bbb     C9   1765 -0.72423400  12.010000   ; qtot -0.312558
 1766         h1     60    bbb    H17   1766 0.25637600   1.008000   ; qtot -0.056182
 1767         h1     60    bbb    H18   1767 0.25637600   1.008000   ; qtot 0.200194
 1768         os     60    bbb     O1   1768 -0.20025300  16.000000   ; qtot -0.000059
; residue   61 bbb rtp bbb q -0.0
 1769         n3     61    bbb     N1   1769 -0.59685800  14.010000   ; qtot -0.596917
 1770         c3     61    bbb     C1   1770 0.10137000  12.010000   ; qtot -0.495547
 1771         h1     61    bbb     H1   1771 0.04411300   1.008000   ; qtot -0.451434
 1772         h1     61    bbb     H2   1772 0.04411300   1.008000   ; qtot -0.407321
 1773         c3     61    bbb     C2   1773 0.10137000  12.010000   ; qtot -0.305951
 1774         h1     61    bbb     H3   1774 0.04411300   1.008000   ; qtot -0.261838
 1775         h1     61    bbb     H4   1775 0.04411300   1.008000   ; qtot -0.217725
 1776         c3     61    bbb     C3   1776 -0.00195300  12.010000   ; qtot -0.219678
 1777         h1     61    bbb     H5   1777 0.05064400   1.008000   ; qtot -0.169034
 1778         h1     61    bbb     H6   1778 0.05064400   1.008000   ; qtot -0.118390
 1779         c3     61    bbb     C4   1779 -0.01612100  12.010000   ; qtot -0.134511
 1780         hc     61    bbb     H7   1780 0.04936100   1.008000   ; qtot -0.085150
 1781         hc     61    bbb     H8   1781 0.04936100   1.008000   ; qtot -0.035789
 1782         c3     61    bbb     C5   1782 0.11363000  12.010000   ; qtot 0.077841
 1783         hc     61    bbb     H9   1783 0.06265900   1.008000   ; qtot 0.140500
 1784         hc     61    bbb    H10   1784 0.06265900   1.008000   ; qtot 0.203159
 1785         c3     61    bbb     C6   1785 0.11363000  12.010000   ; qtot 0.316789
 1786         hc     61    bbb    H11   1786 0.06265900   1.008000   ; qtot 0.379448
 1787         hc     61    bbb    H12   1787 0.06265900   1.008000   ; qtot 0.442107
 1788         c3     61    bbb     C7   1788 0.05858200  12.010000   ; qtot 0.500689
 1789         h1     61    bbb    H13   1789 0.06123400   1.008000   ; qtot 0.561923
 1790         h1     61    bbb    H14   1790 0.06123400   1.008000   ; qtot 0.623157
 1791         c3     61    bbb     C8   1791 -0.72423400  12.010000   ; qtot -0.101077
 1792         h1     61    bbb    H15   1792 0.25637600   1.008000   ; qtot 0.155299
 1793         h1     61    bbb    H16   1793 0.25637600   1.008000   ; qtot 0.411675
 1794         c3     61    bbb     C9   1794 -0.72423400  12.010000   ; qtot -0.312559
 1795         h1     61    bbb    H17   1795 0.25637600   1.008000   ; qtot -0.056183
 1796         h1     61    bbb    H18   1796 0.25637600   1.008000   ; qtot 0.200193
 1797         os     61    bbb     O1   1797 -0.20025300  16.000000   ; qtot -0.000060
; residue   62 ccc rtp ccc q 0.0
 1798         c3     62    ccc     C1   1798 -0.33178800  12.010000   ; qtot -0.331848
 1799         c3     62    ccc     C2   1799 0.30606500  12.010000   ; qtot -0.025783
 1800         h1     62    ccc     H1   1800 0.11662300   1.008000   ; qtot 0.090840
 1801         h1     62    ccc     H2   1801 0.11526800   1.008000   ; qtot 0.206108
 1802         c3     62    ccc     C3   1802 0.15592700  12.010000   ; qtot 0.362035
 1803         c3     62    ccc     C4   1803 0.28383300  12.010000   ; qtot 0.645868
 1804         c3     62    ccc     C5   1804 0.32403300  12.010000   ; qtot 0.969901
 1805         h1     62    ccc     H3   1805 0.13386900   1.008000   ; qtot 1.103770
 1806         h1     62    ccc     H4   1806 0.10146700   1.008000   ; qtot 1.205237
 1807         h2     62    ccc     H5   1807 0.10960400   1.008000   ; qtot 1.314841
 1808         os     62    ccc     O1   1808 -0.28650000  16.000000   ; qtot 1.028341
 1809         oh     62    ccc     O2   1809 -0.86012500  16.000000   ; qtot 0.168216
 1810         oh     62    ccc     O3   1810 -0.83772800  16.000000   ; qtot -0.669512
 1811         oh     62    ccc     O4   1811 -0.77449700  16.000000   ; qtot -1.444009
 1812         c3     62    ccc     C6   1812 0.37576500  12.010000   ; qtot -1.068244
 1813         ho     62    ccc     H6   1813 0.53656000   1.008000   ; qtot -0.531684
 1814         ho     62    ccc     H7   1814 0.49492100   1.008000   ; qtot -0.036763
 1815         ho     62    ccc     H8   1815 0.51297200   1.008000   ; qtot 0.476209
 1816         h1     62    ccc     H9   1816 0.05653400   1.008000   ; qtot 0.532743
 1817         h1     62    ccc    H10   1817 0.05653400   1.008000   ; qtot 0.589277
 1818         oh     62    ccc     O5   1818 -0.84113600  16.000000   ; qtot -0.251859
 1819         ho     62    ccc    H11   1819 0.51201600   1.008000   ; qtot 0.260157
 1820         os     62    ccc     O6   1820 -0.26013600  16.000000   ; qtot 0.000021
; residue   63 ccc rtp ccc q 0.0
 1821         c3     63    ccc     C1   1821 -0.33178800  12.010000   ; qtot -0.331767
 1822         c3     63    ccc     C2   1822 0.30606500  12.010000   ; qtot -0.025702
 1823         h1     63    ccc     H1   1823 0.11662300   1.008000   ; qtot 0.090921
 1824         h1     63    ccc     H2   1824 0.11526800   1.008000   ; qtot 0.206189
 1825         c3     63    ccc     C3   1825 0.15592700  12.010000   ; qtot 0.362116
 1826         c3     63    ccc     C4   1826 0.28383300  12.010000   ; qtot 0.645949
 1827         c3     63    ccc     C5   1827 0.32403300  12.010000   ; qtot 0.969982
 1828         h1     63    ccc     H3   1828 0.13386900   1.008000   ; qtot 1.103851
 1829         h1     63    ccc     H4   1829 0.10146700   1.008000   ; qtot 1.205318
 1830         h2     63    ccc     H5   1830 0.10960400   1.008000   ; qtot 1.314922
 1831         os     63    ccc     O1   1831 -0.28650000  16.000000   ; qtot 1.028422
 1832         oh     63    ccc     O2   1832 -0.86012500  16.000000   ; qtot 0.168297
 1833         oh     63    ccc     O3   1833 -0.83772800  16.000000   ; qtot -0.669431
 1834         oh     63    ccc     O4   1834 -0.77449700  16.000000   ; qtot -1.443928
 1835         c3     63    ccc     C6   1835 0.37576500  12.010000   ; qtot -1.068163
 1836         ho     63    ccc     H6   1836 0.53656000   1.008000   ; qtot -0.531603
 1837         ho     63    ccc     H7   1837 0.49492100   1.008000   ; qtot -0.036682
 1838         ho     63    ccc     H8   1838 0.51297200   1.008000   ; qtot 0.476290
 1839         h1     63    ccc     H9   1839 0.05653400   1.008000   ; qtot 0.532824
 1840         h1     63    ccc    H10   1840 0.05653400   1.008000   ; qtot 0.589358
 1841         oh     63    ccc     O5   1841 -0.84113600  16.000000   ; qtot -0.251778
 1842         ho     63    ccc    H11   1842 0.51201600   1.008000   ; qtot 0.260238
 1843         os     63    ccc     O6   1843 -0.26013600  16.000000   ; qtot 0.000102
; residue   64 ccc rtp ccc q 0.0
 1844         c3     64    ccc     C1   1844 -0.33178800  12.010000   ; qtot -0.331686
 1845         c3     64    ccc     C2   1845 0.30606500  12.010000   ; qtot -0.025621
 1846         h1     64    ccc     H1   1846 0.11662300   1.008000   ; qtot 0.091002
 1847         h1     64    ccc     H2   1847 0.11526800   1.008000   ; qtot 0.206270
 1848         c3     64    ccc     C3   1848 0.15592700  12.010000   ; qtot 0.362197
 1849         c3     64    ccc     C4   1849 0.28383300  12.010000   ; qtot 0.646030
 1850         c3     64    ccc     C5   1850 0.32403300  12.010000   ; qtot 0.970063
 1851         h1     64    ccc     H3   1851 0.13386900   1.008000   ; qtot 1.103932
 1852         h1     64    ccc     H4   1852 0.10146700   1.008000   ; qtot 1.205399
 1853         h2     64    ccc     H5   1853 0.10960400   1.008000   ; qtot 1.315003
 1854         os     64    ccc     O1   1854 -0.28650000  16.000000   ; qtot 1.028503
 1855         oh     64    ccc     O2   1855 -0.86012500  16.000000   ; qtot 0.168378
 1856         oh     64    ccc     O3   1856 -0.83772800  16.000000   ; qtot -0.669350
 1857         oh     64    ccc     O4   1857 -0.77449700  16.000000   ; qtot -1.443847
 1858         c3     64    ccc     C6   1858 0.37576500  12.010000   ; qtot -1.068082
 1859         ho     64    ccc     H6   1859 0.53656000   1.008000   ; qtot -0.531522
 1860         ho     64    ccc     H7   1860 0.49492100   1.008000   ; qtot -0.036601
 1861         ho     64    ccc     H8   1861 0.51297200   1.008000   ; qtot 0.476371
 1862         h1     64    ccc     H9   1862 0.05653400   1.008000   ; qtot 0.532905
 1863         h1     64    ccc    H10   1863 0.05653400   1.008000   ; qtot 0.589439
 1864         oh     64    ccc     O5   1864 -0.84113600  16.000000   ; qtot -0.251697
 1865         ho     64    ccc    H11   1865 0.51201600   1.008000   ; qtot 0.260319
 1866         os     64    ccc     O6   1866 -0.26013600  16.000000   ; qtot 0.000183
; residue   65 ccc rtp ccc q 0.0
 1867         c3     65    ccc     C1   1867 -0.33178800  12.010000   ; qtot -0.331605
 1868         c3     65    ccc     C2   1868 0.30606500  12.010000   ; qtot -0.025540
 1869         h1     65    ccc     H1   1869 0.11662300   1.008000   ; qtot 0.091083
 1870         h1     65    ccc     H2   1870 0.11526800   1.008000   ; qtot 0.206351
 1871         c3     65    ccc     C3   1871 0.15592700  12.010000   ; qtot 0.362278
 1872         c3     65    ccc     C4   1872 0.28383300  12.010000   ; qtot 0.646111
 1873         c3     65    ccc     C5   1873 0.32403300  12.010000   ; qtot 0.970144
 1874         h1     65    ccc     H3   1874 0.13386900   1.008000   ; qtot 1.104013
 1875         h1     65    ccc     H4   1875 0.10146700   1.008000   ; qtot 1.205480
 1876         h2     65    ccc     H5   1876 0.10960400   1.008000   ; qtot 1.315084
 1877         os     65    ccc     O1   1877 -0.28650000  16.000000   ; qtot 1.028584
 1878         oh     65    ccc     O2   1878 -0.86012500  16.000000   ; qtot 0.168459
 1879         oh     65    ccc     O3   1879 -0.83772800  16.000000   ; qtot -0.669269
 1880         oh     65    ccc     O4   1880 -0.77449700  16.000000   ; qtot -1.443766
 1881         c3     65    ccc     C6   1881 0.37576500  12.010000   ; qtot -1.068001
 1882         ho     65    ccc     H6   1882 0.53656000   1.008000   ; qtot -0.531441
 1883         ho     65    ccc     H7   1883 0.49492100   1.008000   ; qtot -0.036520
 1884         ho     65    ccc     H8   1884 0.51297200   1.008000   ; qtot 0.476452
 1885         h1     65    ccc     H9   1885 0.05653400   1.008000   ; qtot 0.532986
 1886         h1     65    ccc    H10   1886 0.05653400   1.008000   ; qtot 0.589520
 1887         oh     65    ccc     O5   1887 -0.84113600  16.000000   ; qtot -0.251616
 1888         ho     65    ccc    H11   1888 0.51201600   1.008000   ; qtot 0.260400
 1889         os     65    ccc     O6   1889 -0.26013600  16.000000   ; qtot 0.000264
; residue   66 ccc rtp ccc q 0.0
 1890         c3     66    ccc     C1   1890 -0.33178800  12.010000   ; qtot -0.331524
 1891         c3     66    ccc     C2   1891 0.30606500  12.010000   ; qtot -0.025459
 1892         h1     66    ccc     H1   1892 0.11662300   1.008000   ; qtot 0.091164
 1893         h1     66    ccc     H2   1893 0.11526800   1.008000   ; qtot 0.206432
 1894         c3     66    ccc     C3   1894 0.15592700  12.010000   ; qtot 0.362359
 1895         c3     66    ccc     C4   1895 0.28383300  12.010000   ; qtot 0.646192
 1896         c3     66    ccc     C5   1896 0.32403300  12.010000   ; qtot 0.970225
 1897         h1     66    ccc     H3   1897 0.13386900   1.008000   ; qtot 1.104094
 1898         h1     66    ccc     H4   1898 0.10146700   1.008000   ; qtot 1.205561
 1899         h2     66    ccc     H5   1899 0.10960400   1.008000   ; qtot 1.315165
 1900         os     66    ccc     O1   1900 -0.28650000  16.000000   ; qtot 1.028665
 1901         oh     66    ccc     O2   1901 -0.86012500  16.000000   ; qtot 0.168540
 1902         oh     66    ccc     O3   1902 -0.83772800  16.000000   ; qtot -0.669188
 1903         oh     66    ccc     O4   1903 -0.77449700  16.000000   ; qtot -1.443685
 1904         c3     66    ccc     C6   1904 0.37576500  12.010000   ; qtot -1.067920
 1905         ho     66    ccc     H6   1905 0.53656000   1.008000   ; qtot -0.531360
 1906         ho     66    ccc     H7   1906 0.49492100   1.008000   ; qtot -0.036439
 1907         ho     66    ccc     H8   1907 0.51297200   1.008000   ; qtot 0.476533
 1908         h1     66    ccc     H9   1908 0.05653400   1.008000   ; qtot 0.533067
 1909         h1     66    ccc    H10   1909 0.05653400   1.008000   ; qtot 0.589601
 1910         oh     66    ccc     O5   1910 -0.84113600  16.000000   ; qtot -0.251535
 1911         ho     66    ccc    H11   1911 0.51201600   1.008000   ; qtot 0.260481
 1912         os     66    ccc     O6   1912 -0.26013600  16.000000   ; qtot 0.000345
; residue   67 ccc rtp ccc q 0.0
 1913         c3     67    ccc     C1   1913 -0.33178800  12.010000   ; qtot -0.331443
 1914         c3     67    ccc     C2   1914 0.30606500  12.010000   ; qtot -0.025378
 1915         h1     67    ccc     H1   1915 0.11662300   1.008000   ; qtot 0.091245
 1916         h1     67    ccc     H2   1916 0.11526800   1.008000   ; qtot 0.206513
 1917         c3     67    ccc     C3   1917 0.15592700  12.010000   ; qtot 0.362440
 1918         c3     67    ccc     C4   1918 0.28383300  12.010000   ; qtot 0.646273
 1919         c3     67    ccc     C5   1919 0.32403300  12.010000   ; qtot 0.970306
 1920         h1     67    ccc     H3   1920 0.13386900   1.008000   ; qtot 1.104175
 1921         h1     67    ccc     H4   1921 0.10146700   1.008000   ; qtot 1.205642
 1922         h2     67    ccc     H5   1922 0.10960400   1.008000   ; qtot 1.315246
 1923         os     67    ccc     O1   1923 -0.28650000  16.000000   ; qtot 1.028746
 1924         oh     67    ccc     O2   1924 -0.86012500  16.000000   ; qtot 0.168621
 1925         oh     67    ccc     O3   1925 -0.83772800  16.000000   ; qtot -0.669107
 1926         oh     67    ccc     O4   1926 -0.77449700  16.000000   ; qtot -1.443604
 1927         c3     67    ccc     C6   1927 0.37576500  12.010000   ; qtot -1.067839
 1928         ho     67    ccc     H6   1928 0.53656000   1.008000   ; qtot -0.531279
 1929         ho     67    ccc     H7   1929 0.49492100   1.008000   ; qtot -0.036358
 1930         ho     67    ccc     H8   1930 0.51297200   1.008000   ; qtot 0.476614
 1931         h1     67    ccc     H9   1931 0.05653400   1.008000   ; qtot 0.533148
 1932         h1     67    ccc    H10   1932 0.05653400   1.008000   ; qtot 0.589682
 1933         oh     67    ccc     O5   1933 -0.84113600  16.000000   ; qtot -0.251454
 1934         ho     67    ccc    H11   1934 0.51201600   1.008000   ; qtot 0.260562
 1935         os     67    ccc     O6   1935 -0.26013600  16.000000   ; qtot 0.000426
; residue   68 ccc rtp ccc q 0.0
 1936         c3     68    ccc     C1   1936 -0.33178800  12.010000   ; qtot -0.331362
 1937         c3     68    ccc     C2   1937 0.30606500  12.010000   ; qtot -0.025297
 1938         h1     68    ccc     H1   1938 0.11662300   1.008000   ; qtot 0.091326
 1939         h1     68    ccc     H2   1939 0.11526800   1.008000   ; qtot 0.206594
 1940         c3     68    ccc     C3   1940 0.15592700  12.010000   ; qtot 0.362521
 1941         c3     68    ccc     C4   1941 0.28383300  12.010000   ; qtot 0.646354
 1942         c3     68    ccc     C5   1942 0.32403300  12.010000   ; qtot 0.970387
 1943         h1     68    ccc     H3   1943 0.13386900   1.008000   ; qtot 1.104256
 1944         h1     68    ccc     H4   1944 0.10146700   1.008000   ; qtot 1.205723
 1945         h2     68    ccc     H5   1945 0.10960400   1.008000   ; qtot 1.315327
 1946         os     68    ccc     O1   1946 -0.28650000  16.000000   ; qtot 1.028827
 1947         oh     68    ccc     O2   1947 -0.86012500  16.000000   ; qtot 0.168702
 1948         oh     68    ccc     O3   1948 -0.83772800  16.000000   ; qtot -0.669026
 1949         oh     68    ccc     O4   1949 -0.77449700  16.000000   ; qtot -1.443523
 1950         c3     68    ccc     C6   1950 0.37576500  12.010000   ; qtot -1.067758
 1951         ho     68    ccc     H6   1951 0.53656000   1.008000   ; qtot -0.531198
 1952         ho     68    ccc     H7   1952 0.49492100   1.008000   ; qtot -0.036277
 1953         ho     68    ccc     H8   1953 0.51297200   1.008000   ; qtot 0.476695
 1954         h1     68    ccc     H9   1954 0.05653400   1.008000   ; qtot 0.533229
 1955         h1     68    ccc    H10   1955 0.05653400   1.008000   ; qtot 0.589763
 1956         oh     68    ccc     O5   1956 -0.84113600  16.000000   ; qtot -0.251373
 1957         ho     68    ccc    H11   1957 0.51201600   1.008000   ; qtot 0.260643
 1958         os     68    ccc     O6   1958 -0.26013600  16.000000   ; qtot 0.000507
; residue   69 ccc rtp ccc q 0.0
 1959         c3     69    ccc     C1   1959 -0.33178800  12.010000   ; qtot -0.331281
 1960         c3     69    ccc     C2   1960 0.30606500  12.010000   ; qtot -0.025216
 1961         h1     69    ccc     H1   1961 0.11662300   1.008000   ; qtot 0.091407
 1962         h1     69    ccc     H2   1962 0.11526800   1.008000   ; qtot 0.206675
 1963         c3     69    ccc     C3   1963 0.15592700  12.010000   ; qtot 0.362602
 1964         c3     69    ccc     C4   1964 0.28383300  12.010000   ; qtot 0.646435
 1965         c3     69    ccc     C5   1965 0.32403300  12.010000   ; qtot 0.970468
 1966         h1     69    ccc     H3   1966 0.13386900   1.008000   ; qtot 1.104337
 1967         h1     69    ccc     H4   1967 0.10146700   1.008000   ; qtot 1.205804
 1968         h2     69    ccc     H5   1968 0.10960400   1.008000   ; qtot 1.315408
 1969         os     69    ccc     O1   1969 -0.28650000  16.000000   ; qtot 1.028908
 1970         oh     69    ccc     O2   1970 -0.86012500  16.000000   ; qtot 0.168783
 1971         oh     69    ccc     O3   1971 -0.83772800  16.000000   ; qtot -0.668945
 1972         oh     69    ccc     O4   1972 -0.77449700  16.000000   ; qtot -1.443442
 1973         c3     69    ccc     C6   1973 0.37576500  12.010000   ; qtot -1.067677
 1974         ho     69    ccc     H6   1974 0.53656000   1.008000   ; qtot -0.531117
 1975         ho     69    ccc     H7   1975 0.49492100   1.008000   ; qtot -0.036196
 1976         ho     69    ccc     H8   1976 0.51297200   1.008000   ; qtot 0.476776
 1977         h1     69    ccc     H9   1977 0.05653400   1.008000   ; qtot 0.533310
 1978         h1     69    ccc    H10   1978 0.05653400   1.008000   ; qtot 0.589844
 1979         oh     69    ccc     O5   1979 -0.84113600  16.000000   ; qtot -0.251292
 1980         ho     69    ccc    H11   1980 0.51201600   1.008000   ; qtot 0.260724
 1981         os     69    ccc     O6   1981 -0.26013600  16.000000   ; qtot 0.000588
; residue   70 ccc rtp ccc q 0.0
 1982         c3     70    ccc     C1   1982 -0.33178800  12.010000   ; qtot -0.331200
 1983         c3     70    ccc     C2   1983 0.30606500  12.010000   ; qtot -0.025135
 1984         h1     70    ccc     H1   1984 0.11662300   1.008000   ; qtot 0.091488
 1985         h1     70    ccc     H2   1985 0.11526800   1.008000   ; qtot 0.206756
 1986         c3     70    ccc     C3   1986 0.15592700  12.010000   ; qtot 0.362683
 1987         c3     70    ccc     C4   1987 0.28383300  12.010000   ; qtot 0.646516
 1988         c3     70    ccc     C5   1988 0.32403300  12.010000   ; qtot 0.970549
 1989         h1     70    ccc     H3   1989 0.13386900   1.008000   ; qtot 1.104418
 1990         h1     70    ccc     H4   1990 0.10146700   1.008000   ; qtot 1.205885
 1991         h2     70    ccc     H5   1991 0.10960400   1.008000   ; qtot 1.315489
 1992         os     70    ccc     O1   1992 -0.28650000  16.000000   ; qtot 1.028989
 1993         oh     70    ccc     O2   1993 -0.86012500  16.000000   ; qtot 0.168864
 1994         oh     70    ccc     O3   1994 -0.83772800  16.000000   ; qtot -0.668864
 1995         oh     70    ccc     O4   1995 -0.77449700  16.000000   ; qtot -1.443361
 1996         c3     70    ccc     C6   1996 0.37576500  12.010000   ; qtot -1.067596
 1997         ho     70    ccc     H6   1997 0.53656000   1.008000   ; qtot -0.531036
 1998         ho     70    ccc     H7   1998 0.49492100   1.008000   ; qtot -0.036115
 1999         ho     70    ccc     H8   1999 0.51297200   1.008000   ; qtot 0.476857
 2000         h1     70    ccc     H9   2000 0.05653400   1.008000   ; qtot 0.533391
 2001         h1     70    ccc    H10   2001 0.05653400   1.008000   ; qtot 0.589925
 2002         oh     70    ccc     O5   2002 -0.84113600  16.000000   ; qtot -0.251211
 2003         ho     70    ccc    H11   2003 0.51201600   1.008000   ; qtot 0.260805
 2004         os     70    ccc     O6   2004 -0.26013600  16.000000   ; qtot 0.000669
; residue   71 ccc rtp ccc q 0.0
 2005         c3     71    ccc     C1   2005 -0.33178800  12.010000   ; qtot -0.331119
 2006         c3     71    ccc     C2   2006 0.30606500  12.010000   ; qtot -0.025054
 2007         h1     71    ccc     H1   2007 0.11662300   1.008000   ; qtot 0.091569
 2008         h1     71    ccc     H2   2008 0.11526800   1.008000   ; qtot 0.206837
 2009         c3     71    ccc     C3   2009 0.15592700  12.010000   ; qtot 0.362764
 2010         c3     71    ccc     C4   2010 0.28383300  12.010000   ; qtot 0.646597
 2011         c3     71    ccc     C5   2011 0.32403300  12.010000   ; qtot 0.970630
 2012         h1     71    ccc     H3   2012 0.13386900   1.008000   ; qtot 1.104499
 2013         h1     71    ccc     H4   2013 0.10146700   1.008000   ; qtot 1.205966
 2014         h2     71    ccc     H5   2014 0.10960400   1.008000   ; qtot 1.315570
 2015         os     71    ccc     O1   2015 -0.28650000  16.000000   ; qtot 1.029070
 2016         oh     71    ccc     O2   2016 -0.86012500  16.000000   ; qtot 0.168945
 2017         oh     71    ccc     O3   2017 -0.83772800  16.000000   ; qtot -0.668783
 2018         oh     71    ccc     O4   2018 -0.77449700  16.000000   ; qtot -1.443280
 2019         c3     71    ccc     C6   2019 0.37576500  12.010000   ; qtot -1.067515
 2020         ho     71    ccc     H6   2020 0.53656000   1.008000   ; qtot -0.530955
 2021         ho     71    ccc     H7   2021 0.49492100   1.008000   ; qtot -0.036034
 2022         ho     71    ccc     H8   2022 0.51297200   1.008000   ; qtot 0.476938
 2023         h1     71    ccc     H9   2023 0.05653400   1.008000   ; qtot 0.533472
 2024         h1     71    ccc    H10   2024 0.05653400   1.008000   ; qtot 0.590006
 2025         oh     71    ccc     O5   2025 -0.84113600  16.000000   ; qtot -0.251130
 2026         ho     71    ccc    H11   2026 0.51201600   1.008000   ; qtot 0.260886
 2027         os     71    ccc     O6   2027 -0.26013600  16.000000   ; qtot 0.000750
; residue   72 ccc rtp ccc q 0.0
 2028         c3     72    ccc     C1   2028 -0.33178800  12.010000   ; qtot -0.331038
 2029         c3     72    ccc     C2   2029 0.30606500  12.010000   ; qtot -0.024973
 2030         h1     72    ccc     H1   2030 0.11662300   1.008000   ; qtot 0.091650
 2031         h1     72    ccc     H2   2031 0.11526800   1.008000   ; qtot 0.206918
 2032         c3     72    ccc     C3   2032 0.15592700  12.010000   ; qtot 0.362845
 2033         c3     72    ccc     C4   2033 0.28383300  12.010000   ; qtot 0.646678
 2034         c3     72    ccc     C5   2034 0.32403300  12.010000   ; qtot 0.970711
 2035         h1     72    ccc     H3   2035 0.13386900   1.008000   ; qtot 1.104580
 2036         h1     72    ccc     H4   2036 0.10146700   1.008000   ; qtot 1.206047
 2037         h2     72    ccc     H5   2037 0.10960400   1.008000   ; qtot 1.315651
 2038         os     72    ccc     O1   2038 -0.28650000  16.000000   ; qtot 1.029151
 2039         oh     72    ccc     O2   2039 -0.86012500  16.000000   ; qtot 0.169026
 2040         oh     72    ccc     O3   2040 -0.83772800  16.000000   ; qtot -0.668702
 2041         oh     72    ccc     O4   2041 -0.77449700  16.000000   ; qtot -1.443199
 2042         c3     72    ccc     C6   2042 0.37576500  12.010000   ; qtot -1.067434
 2043         ho     72    ccc     H6   2043 0.53656000   1.008000   ; qtot -0.530874
 2044         ho     72    ccc     H7   2044 0.49492100   1.008000   ; qtot -0.035953
 2045         ho     72    ccc     H8   2045 0.51297200   1.008000   ; qtot 0.477019
 2046         h1     72    ccc     H9   2046 0.05653400   1.008000   ; qtot 0.533553
 2047         h1     72    ccc    H10   2047 0.05653400   1.008000   ; qtot 0.590087
 2048         oh     72    ccc     O5   2048 -0.84113600  16.000000   ; qtot -0.251049
 2049         ho     72    ccc    H11   2049 0.51201600   1.008000   ; qtot 0.260967
 2050         os     72    ccc     O6   2050 -0.26013600  16.000000   ; qtot 0.000831
; residue   73 ccc rtp ccc q 0.0
 2051         c3     73    ccc     C1   2051 -0.33178800  12.010000   ; qtot -0.330957
 2052         c3     73    ccc     C2   2052 0.30606500  12.010000   ; qtot -0.024892
 2053         h1     73    ccc     H1   2053 0.11662300   1.008000   ; qtot 0.091731
 2054         h1     73    ccc     H2   2054 0.11526800   1.008000   ; qtot 0.206999
 2055         c3     73    ccc     C3   2055 0.15592700  12.010000   ; qtot 0.362926
 2056         c3     73    ccc     C4   2056 0.28383300  12.010000   ; qtot 0.646759
 2057         c3     73    ccc     C5   2057 0.32403300  12.010000   ; qtot 0.970792
 2058         h1     73    ccc     H3   2058 0.13386900   1.008000   ; qtot 1.104661
 2059         h1     73    ccc     H4   2059 0.10146700   1.008000   ; qtot 1.206128
 2060         h2     73    ccc     H5   2060 0.10960400   1.008000   ; qtot 1.315732
 2061         os     73    ccc     O1   2061 -0.28650000  16.000000   ; qtot 1.029232
 2062         oh     73    ccc     O2   2062 -0.86012500  16.000000   ; qtot 0.169107
 2063         oh     73    ccc     O3   2063 -0.83772800  16.000000   ; qtot -0.668621
 2064         oh     73    ccc     O4   2064 -0.77449700  16.000000   ; qtot -1.443118
 2065         c3     73    ccc     C6   2065 0.37576500  12.010000   ; qtot -1.067353
 2066         ho     73    ccc     H6   2066 0.53656000   1.008000   ; qtot -0.530793
 2067         ho     73    ccc     H7   2067 0.49492100   1.008000   ; qtot -0.035872
 2068         ho     73    ccc     H8   2068 0.51297200   1.008000   ; qtot 0.477100
 2069         h1     73    ccc     H9   2069 0.05653400   1.008000   ; qtot 0.533634
 2070         h1     73    ccc    H10   2070 0.05653400   1.008000   ; qtot 0.590168
 2071         oh     73    ccc     O5   2071 -0.84113600  16.000000   ; qtot -0.250968
 2072         ho     73    ccc    H11   2072 0.51201600   1.008000   ; qtot 0.261048
 2073         os     73    ccc     O6   2073 -0.26013600  16.000000   ; qtot 0.000912
; residue   74 ccc rtp ccc q 0.0
 2074         c3     74    ccc     C1   2074 -0.33178800  12.010000   ; qtot -0.330876
 2075         c3     74    ccc     C2   2075 0.30606500  12.010000   ; qtot -0.024811
 2076         h1     74    ccc     H1   2076 0.11662300   1.008000   ; qtot 0.091812
 2077         h1     74    ccc     H2   2077 0.11526800   1.008000   ; qtot 0.207080
 2078         c3     74    ccc     C3   2078 0.15592700  12.010000   ; qtot 0.363007
 2079         c3     74    ccc     C4   2079 0.28383300  12.010000   ; qtot 0.646840
 2080         c3     74    ccc     C5   2080 0.32403300  12.010000   ; qtot 0.970873
 2081         h1     74    ccc     H3   2081 0.13386900   1.008000   ; qtot 1.104742
 2082         h1     74    ccc     H4   2082 0.10146700   1.008000   ; qtot 1.206209
 2083         h2     74    ccc     H5   2083 0.10960400   1.008000   ; qtot 1.315813
 2084         os     74    ccc     O1   2084 -0.28650000  16.000000   ; qtot 1.029313
 2085         oh     74    ccc     O2   2085 -0.86012500  16.000000   ; qtot 0.169188
 2086         oh     74    ccc     O3   2086 -0.83772800  16.000000   ; qtot -0.668540
 2087         oh     74    ccc     O4   2087 -0.77449700  16.000000   ; qtot -1.443037
 2088         c3     74    ccc     C6   2088 0.37576500  12.010000   ; qtot -1.067272
 2089         ho     74    ccc     H6   2089 0.53656000   1.008000   ; qtot -0.530712
 2090         ho     74    ccc     H7   2090 0.49492100   1.008000   ; qtot -0.035791
 2091         ho     74    ccc     H8   2091 0.51297200   1.008000   ; qtot 0.477181
 2092         h1     74    ccc     H9   2092 0.05653400   1.008000   ; qtot 0.533715
 2093         h1     74    ccc    H10   2093 0.05653400   1.008000   ; qtot 0.590249
 2094         oh     74    ccc     O5   2094 -0.84113600  16.000000   ; qtot -0.250887
 2095         ho     74    ccc    H11   2095 0.51201600   1.008000   ; qtot 0.261129
 2096         os     74    ccc     O6   2096 -0.26013600  16.000000   ; qtot 0.000993
; residue   75 ccc rtp ccc q 0.0
 2097         c3     75    ccc     C1   2097 -0.33178800  12.010000   ; qtot -0.330795
 2098         c3     75    ccc     C2   2098 0.30606500  12.010000   ; qtot -0.024730
 2099         h1     75    ccc     H1   2099 0.11662300   1.008000   ; qtot 0.091893
 2100         h1     75    ccc     H2   2100 0.11526800   1.008000   ; qtot 0.207161
 2101         c3     75    ccc     C3   2101 0.15592700  12.010000   ; qtot 0.363088
 2102         c3     75    ccc     C4   2102 0.28383300  12.010000   ; qtot 0.646921
 2103         c3     75    ccc     C5   2103 0.32403300  12.010000   ; qtot 0.970954
 2104         h1     75    ccc     H3   2104 0.13386900   1.008000   ; qtot 1.104823
 2105         h1     75    ccc     H4   2105 0.10146700   1.008000   ; qtot 1.206290
 2106         h2     75    ccc     H5   2106 0.10960400   1.008000   ; qtot 1.315894
 2107         os     75    ccc     O1   2107 -0.28650000  16.000000   ; qtot 1.029394
 2108         oh     75    ccc     O2   2108 -0.86012500  16.000000   ; qtot 0.169269
 2109         oh     75    ccc     O3   2109 -0.83772800  16.000000   ; qtot -0.668459
 2110         oh     75    ccc     O4   2110 -0.77449700  16.000000   ; qtot -1.442956
 2111         c3     75    ccc     C6   2111 0.37576500  12.010000   ; qtot -1.067191
 2112         ho     75    ccc     H6   2112 0.53656000   1.008000   ; qtot -0.530631
 2113         ho     75    ccc     H7   2113 0.49492100   1.008000   ; qtot -0.035710
 2114         ho     75    ccc     H8   2114 0.51297200   1.008000   ; qtot 0.477262
 2115         h1     75    ccc     H9   2115 0.05653400   1.008000   ; qtot 0.533796
 2116         h1     75    ccc    H10   2116 0.05653400   1.008000   ; qtot 0.590330
 2117         oh     75    ccc     O5   2117 -0.84113600  16.000000   ; qtot -0.250806
 2118         ho     75    ccc    H11   2118 0.51201600   1.008000   ; qtot 0.261210
 2119         os     75    ccc     O6   2119 -0.26013600  16.000000   ; qtot 0.001074
; residue   76 ccc rtp ccc q 0.0
 2120         c3     76    ccc     C1   2120 -0.33178800  12.010000   ; qtot -0.330714
 2121         c3     76    ccc     C2   2121 0.30606500  12.010000   ; qtot -0.024649
 2122         h1     76    ccc     H1   2122 0.11662300   1.008000   ; qtot 0.091974
 2123         h1     76    ccc     H2   2123 0.11526800   1.008000   ; qtot 0.207242
 2124         c3     76    ccc     C3   2124 0.15592700  12.010000   ; qtot 0.363169
 2125         c3     76    ccc     C4   2125 0.28383300  12.010000   ; qtot 0.647002
 2126         c3     76    ccc     C5   2126 0.32403300  12.010000   ; qtot 0.971035
 2127         h1     76    ccc     H3   2127 0.13386900   1.008000   ; qtot 1.104904
 2128         h1     76    ccc     H4   2128 0.10146700   1.008000   ; qtot 1.206371
 2129         h2     76    ccc     H5   2129 0.10960400   1.008000   ; qtot 1.315975
 2130         os     76    ccc     O1   2130 -0.28650000  16.000000   ; qtot 1.029475
 2131         oh     76    ccc     O2   2131 -0.86012500  16.000000   ; qtot 0.169350
 2132         oh     76    ccc     O3   2132 -0.83772800  16.000000   ; qtot -0.668378
 2133         oh     76    ccc     O4   2133 -0.77449700  16.000000   ; qtot -1.442875
 2134         c3     76    ccc     C6   2134 0.37576500  12.010000   ; qtot -1.067110
 2135         ho     76    ccc     H6   2135 0.53656000   1.008000   ; qtot -0.530550
 2136         ho     76    ccc     H7   2136 0.49492100   1.008000   ; qtot -0.035629
 2137         ho     76    ccc     H8   2137 0.51297200   1.008000   ; qtot 0.477343
 2138         h1     76    ccc     H9   2138 0.05653400   1.008000   ; qtot 0.533877
 2139         h1     76    ccc    H10   2139 0.05653400   1.008000   ; qtot 0.590411
 2140         oh     76    ccc     O5   2140 -0.84113600  16.000000   ; qtot -0.250725
 2141         ho     76    ccc    H11   2141 0.51201600   1.008000   ; qtot 0.261291
 2142         os     76    ccc     O6   2142 -0.26013600  16.000000   ; qtot 0.001155
; residue   77 ccc rtp ccc q 0.0
 2143         c3     77    ccc     C1   2143 -0.33178800  12.010000   ; qtot -0.330633
 2144         c3     77    ccc     C2   2144 0.30606500  12.010000   ; qtot -0.024568
 2145         h1     77    ccc     H1   2145 0.11662300   1.008000   ; qtot 0.092055
 2146         h1     77    ccc     H2   2146 0.11526800   1.008000   ; qtot 0.207323
 2147         c3     77    ccc     C3   2147 0.15592700  12.010000   ; qtot 0.363250
 2148         c3     77    ccc     C4   2148 0.28383300  12.010000   ; qtot 0.647083
 2149         c3     77    ccc     C5   2149 0.32403300  12.010000   ; qtot 0.971116
 2150         h1     77    ccc     H3   2150 0.13386900   1.008000   ; qtot 1.104985
 2151         h1     77    ccc     H4   2151 0.10146700   1.008000   ; qtot 1.206452
 2152         h2     77    ccc     H5   2152 0.10960400   1.008000   ; qtot 1.316056
 2153         os     77    ccc     O1   2153 -0.28650000  16.000000   ; qtot 1.029556
 2154         oh     77    ccc     O2   2154 -0.86012500  16.000000   ; qtot 0.169431
 2155         oh     77    ccc     O3   2155 -0.83772800  16.000000   ; qtot -0.668297
 2156         oh     77    ccc     O4   2156 -0.77449700  16.000000   ; qtot -1.442794
 2157         c3     77    ccc     C6   2157 0.37576500  12.010000   ; qtot -1.067029
 2158         ho     77    ccc     H6   2158 0.53656000   1.008000   ; qtot -0.530469
 2159         ho     77    ccc     H7   2159 0.49492100   1.008000   ; qtot -0.035548
 2160         ho     77    ccc     H8   2160 0.51297200   1.008000   ; qtot 0.477424
 2161         h1     77    ccc     H9   2161 0.05653400   1.008000   ; qtot 0.533958
 2162         h1     77    ccc    H10   2162 0.05653400   1.008000   ; qtot 0.590492
 2163         oh     77    ccc     O5   2163 -0.84113600  16.000000   ; qtot -0.250644
 2164         ho     77    ccc    H11   2164 0.51201600   1.008000   ; qtot 0.261372
 2165         os     77    ccc     O6   2165 -0.26013600  16.000000   ; qtot 0.001236
; residue   78 ccc rtp ccc q 0.0
 2166         c3     78    ccc     C1   2166 -0.33178800  12.010000   ; qtot -0.330552
 2167         c3     78    ccc     C2   2167 0.30606500  12.010000   ; qtot -0.024487
 2168         h1     78    ccc     H1   2168 0.11662300   1.008000   ; qtot 0.092136
 2169         h1     78    ccc     H2   2169 0.11526800   1.008000   ; qtot 0.207404
 2170         c3     78    ccc     C3   2170 0.15592700  12.010000   ; qtot 0.363331
 2171         c3     78    ccc     C4   2171 0.28383300  12.010000   ; qtot 0.647164
 2172         c3     78    ccc     C5   2172 0.32403300  12.010000   ; qtot 0.971197
 2173         h1     78    ccc     H3   2173 0.13386900   1.008000   ; qtot 1.105066
 2174         h1     78    ccc     H4   2174 0.10146700   1.008000   ; qtot 1.206533
 2175         h2     78    ccc     H5   2175 0.10960400   1.008000   ; qtot 1.316137
 2176         os     78    ccc     O1   2176 -0.28650000  16.000000   ; qtot 1.029637
 2177         oh     78    ccc     O2   2177 -0.86012500  16.000000   ; qtot 0.169512
 2178         oh     78    ccc     O3   2178 -0.83772800  16.000000   ; qtot -0.668216
 2179         oh     78    ccc     O4   2179 -0.77449700  16.000000   ; qtot -1.442713
 2180         c3     78    ccc     C6   2180 0.37576500  12.010000   ; qtot -1.066948
 2181         ho     78    ccc     H6   2181 0.53656000   1.008000   ; qtot -0.530388
 2182         ho     78    ccc     H7   2182 0.49492100   1.008000   ; qtot -0.035467
 2183         ho     78    ccc     H8   2183 0.51297200   1.008000   ; qtot 0.477505
 2184         h1     78    ccc     H9   2184 0.05653400   1.008000   ; qtot 0.534039
 2185         h1     78    ccc    H10   2185 0.05653400   1.008000   ; qtot 0.590573
 2186         oh     78    ccc     O5   2186 -0.84113600  16.000000   ; qtot -0.250563
 2187         ho     78    ccc    H11   2187 0.51201600   1.008000   ; qtot 0.261453
 2188         os     78    ccc     O6   2188 -0.26013600  16.000000   ; qtot 0.001317
; residue   79 ccc rtp ccc q 0.0
 2189         c3     79    ccc     C1   2189 -0.33178800  12.010000   ; qtot -0.330471
 2190         c3     79    ccc     C2   2190 0.30606500  12.010000   ; qtot -0.024406
 2191         h1     79    ccc     H1   2191 0.11662300   1.008000   ; qtot 0.092217
 2192         h1     79    ccc     H2   2192 0.11526800   1.008000   ; qtot 0.207485
 2193         c3     79    ccc     C3   2193 0.15592700  12.010000   ; qtot 0.363412
 2194         c3     79    ccc     C4   2194 0.28383300  12.010000   ; qtot 0.647245
 2195         c3     79    ccc     C5   2195 0.32403300  12.010000   ; qtot 0.971278
 2196         h1     79    ccc     H3   2196 0.13386900   1.008000   ; qtot 1.105147
 2197         h1     79    ccc     H4   2197 0.10146700   1.008000   ; qtot 1.206614
 2198         h2     79    ccc     H5   2198 0.10960400   1.008000   ; qtot 1.316218
 2199         os     79    ccc     O1   2199 -0.28650000  16.000000   ; qtot 1.029718
 2200         oh     79    ccc     O2   2200 -0.86012500  16.000000   ; qtot 0.169593
 2201         oh     79    ccc     O3   2201 -0.83772800  16.000000   ; qtot -0.668135
 2202         oh     79    ccc     O4   2202 -0.77449700  16.000000   ; qtot -1.442632
 2203         c3     79    ccc     C6   2203 0.37576500  12.010000   ; qtot -1.066867
 2204         ho     79    ccc     H6   2204 0.53656000   1.008000   ; qtot -0.530307
 2205         ho     79    ccc     H7   2205 0.49492100   1.008000   ; qtot -0.035386
 2206         ho     79    ccc     H8   2206 0.51297200   1.008000   ; qtot 0.477586
 2207         h1     79    ccc     H9   2207 0.05653400   1.008000   ; qtot 0.534120
 2208         h1     79    ccc    H10   2208 0.05653400   1.008000   ; qtot 0.590654
 2209         oh     79    ccc     O5   2209 -0.84113600  16.000000   ; qtot -0.250482
 2210         ho     79    ccc    H11   2210 0.51201600   1.008000   ; qtot 0.261534
 2211         os     79    ccc     O6   2211 -0.26013600  16.000000   ; qtot 0.001398
; residue   80 ccc rtp ccc q 0.0
 2212         c3     80    ccc     C1   2212 -0.33178800  12.010000   ; qtot -0.330390
 2213         c3     80    ccc     C2   2213 0.30606500  12.010000   ; qtot -0.024325
 2214         h1     80    ccc     H1   2214 0.11662300   1.008000   ; qtot 0.092298
 2215         h1     80    ccc     H2   2215 0.11526800   1.008000   ; qtot 0.207566
 2216         c3     80    ccc     C3   2216 0.15592700  12.010000   ; qtot 0.363493
 2217         c3     80    ccc     C4   2217 0.28383300  12.010000   ; qtot 0.647326
 2218         c3     80    ccc     C5   2218 0.32403300  12.010000   ; qtot 0.971359
 2219         h1     80    ccc     H3   2219 0.13386900   1.008000   ; qtot 1.105228
 2220         h1     80    ccc     H4   2220 0.10146700   1.008000   ; qtot 1.206695
 2221         h2     80    ccc     H5   2221 0.10960400   1.008000   ; qtot 1.316299
 2222         os     80    ccc     O1   2222 -0.28650000  16.000000   ; qtot 1.029799
 2223         oh     80    ccc     O2   2223 -0.86012500  16.000000   ; qtot 0.169674
 2224         oh     80    ccc     O3   2224 -0.83772800  16.000000   ; qtot -0.668054
 2225         oh     80    ccc     O4   2225 -0.77449700  16.000000   ; qtot -1.442551
 2226         c3     80    ccc     C6   2226 0.37576500  12.010000   ; qtot -1.066786
 2227         ho     80    ccc     H6   2227 0.53656000   1.008000   ; qtot -0.530226
 2228         ho     80    ccc     H7   2228 0.49492100   1.008000   ; qtot -0.035305
 2229         ho     80    ccc     H8   2229 0.51297200   1.008000   ; qtot 0.477667
 2230         h1     80    ccc     H9   2230 0.05653400   1.008000   ; qtot 0.534201
 2231         h1     80    ccc    H10   2231 0.05653400   1.008000   ; qtot 0.590735
 2232         oh     80    ccc     O5   2232 -0.84113600  16.000000   ; qtot -0.250401
 2233         ho     80    ccc    H11   2233 0.51201600   1.008000   ; qtot 0.261615
 2234         os     80    ccc     O6   2234 -0.26013600  16.000000   ; qtot 0.001479
; residue   81 ccc rtp ccc q 0.0
 2235         c3     81    ccc     C1   2235 -0.33178800  12.010000   ; qtot -0.330309
 2236         c3     81    ccc     C2   2236 0.30606500  12.010000   ; qtot -0.024244
 2237         h1     81    ccc     H1   2237 0.11662300   1.008000   ; qtot 0.092379
 2238         h1     81    ccc     H2   2238 0.11526800   1.008000   ; qtot 0.207647
 2239         c3     81    ccc     C3   2239 0.15592700  12.010000   ; qtot 0.363574
 2240         c3     81    ccc     C4   2240 0.28383300  12.010000   ; qtot 0.647407
 2241         c3     81    ccc     C5   2241 0.32403300  12.010000   ; qtot 0.971440
 2242         h1     81    ccc     H3   2242 0.13386900   1.008000   ; qtot 1.105309
 2243         h1     81    ccc     H4   2243 0.10146700   1.008000   ; qtot 1.206776
 2244         h2     81    ccc     H5   2244 0.10960400   1.008000   ; qtot 1.316380
 2245         os     81    ccc     O1   2245 -0.28650000  16.000000   ; qtot 1.029880
 2246         oh     81    ccc     O2   2246 -0.86012500  16.000000   ; qtot 0.169755
 2247         oh     81    ccc     O3   2247 -0.83772800  16.000000   ; qtot -0.667973
 2248         oh     81    ccc     O4   2248 -0.77449700  16.000000   ; qtot -1.442470
 2249         c3     81    ccc     C6   2249 0.37576500  12.010000   ; qtot -1.066705
 2250         ho     81    ccc     H6   2250 0.53656000   1.008000   ; qtot -0.530145
 2251         ho     81    ccc     H7   2251 0.49492100   1.008000   ; qtot -0.035224
 2252         ho     81    ccc     H8   2252 0.51297200   1.008000   ; qtot 0.477748
 2253         h1     81    ccc     H9   2253 0.05653400   1.008000   ; qtot 0.534282
 2254         h1     81    ccc    H10   2254 0.05653400   1.008000   ; qtot 0.590816
 2255         oh     81    ccc     O5   2255 -0.84113600  16.000000   ; qtot -0.250320
 2256         ho     81    ccc    H11   2256 0.51201600   1.008000   ; qtot 0.261696
 2257         os     81    ccc     O6   2257 -0.26013600  16.000000   ; qtot 0.001560
; residue   82 ccc rtp ccc q 0.0
 2258         c3     82    ccc     C1   2258 -0.33178800  12.010000   ; qtot -0.330228
 2259         c3     82    ccc     C2   2259 0.30606500  12.010000   ; qtot -0.024163
 2260         h1     82    ccc     H1   2260 0.11662300   1.008000   ; qtot 0.092460
 2261         h1     82    ccc     H2   2261 0.11526800   1.008000   ; qtot 0.207728
 2262         c3     82    ccc     C3   2262 0.15592700  12.010000   ; qtot 0.363655
 2263         c3     82    ccc     C4   2263 0.28383300  12.010000   ; qtot 0.647488
 2264         c3     82    ccc     C5   2264 0.32403300  12.010000   ; qtot 0.971521
 2265         h1     82    ccc     H3   2265 0.13386900   1.008000   ; qtot 1.105390
 2266         h1     82    ccc     H4   2266 0.10146700   1.008000   ; qtot 1.206857
 2267         h2     82    ccc     H5   2267 0.10960400   1.008000   ; qtot 1.316461
 2268         os     82    ccc     O1   2268 -0.28650000  16.000000   ; qtot 1.029961
 2269         oh     82    ccc     O2   2269 -0.86012500  16.000000   ; qtot 0.169836
 2270         oh     82    ccc     O3   2270 -0.83772800  16.000000   ; qtot -0.667892
 2271         oh     82    ccc     O4   2271 -0.77449700  16.000000   ; qtot -1.442389
 2272         c3     82    ccc     C6   2272 0.37576500  12.010000   ; qtot -1.066624
 2273         ho     82    ccc     H6   2273 0.53656000   1.008000   ; qtot -0.530064
 2274         ho     82    ccc     H7   2274 0.49492100   1.008000   ; qtot -0.035143
 2275         ho     82    ccc     H8   2275 0.51297200   1.008000   ; qtot 0.477829
 2276         h1     82    ccc     H9   2276 0.05653400   1.008000   ; qtot 0.534363
 2277         h1     82    ccc    H10   2277 0.05653400   1.008000   ; qtot 0.590897
 2278         oh     82    ccc     O5   2278 -0.84113600  16.000000   ; qtot -0.250239
 2279         ho     82    ccc    H11   2279 0.51201600   1.008000   ; qtot 0.261777
 2280         os     82    ccc     O6   2280 -0.26013600  16.000000   ; qtot 0.001641
; residue   83 ccc rtp ccc q 0.0
 2281         c3     83    ccc     C1   2281 -0.33178800  12.010000   ; qtot -0.330147
 2282         c3     83    ccc     C2   2282 0.30606500  12.010000   ; qtot -0.024082
 2283         h1     83    ccc     H1   2283 0.11662300   1.008000   ; qtot 0.092541
 2284         h1     83    ccc     H2   2284 0.11526800   1.008000   ; qtot 0.207809
 2285         c3     83    ccc     C3   2285 0.15592700  12.010000   ; qtot 0.363736
 2286         c3     83    ccc     C4   2286 0.28383300  12.010000   ; qtot 0.647569
 2287         c3     83    ccc     C5   2287 0.32403300  12.010000   ; qtot 0.971602
 2288         h1     83    ccc     H3   2288 0.13386900   1.008000   ; qtot 1.105471
 2289         h1     83    ccc     H4   2289 0.10146700   1.008000   ; qtot 1.206938
 2290         h2     83    ccc     H5   2290 0.10960400   1.008000   ; qtot 1.316542
 2291         os     83    ccc     O1   2291 -0.28650000  16.000000   ; qtot 1.030042
 2292         oh     83    ccc     O2   2292 -0.86012500  16.000000   ; qtot 0.169917
 2293         oh     83    ccc     O3   2293 -0.83772800  16.000000   ; qtot -0.667811
 2294         oh     83    ccc     O4   2294 -0.77449700  16.000000   ; qtot -1.442308
 2295         c3     83    ccc     C6   2295 0.37576500  12.010000   ; qtot -1.066543
 2296         ho     83    ccc     H6   2296 0.53656000   1.008000   ; qtot -0.529983
 2297         ho     83    ccc     H7   2297 0.49492100   1.008000   ; qtot -0.035062
 2298         ho     83    ccc     H8   2298 0.51297200   1.008000   ; qtot 0.477910
 2299         h1     83    ccc     H9   2299 0.05653400   1.008000   ; qtot 0.534444
 2300         h1     83    ccc    H10   2300 0.05653400   1.008000   ; qtot 0.590978
 2301         oh     83    ccc     O5   2301 -0.84113600  16.000000   ; qtot -0.250158
 2302         ho     83    ccc    H11   2302 0.51201600   1.008000   ; qtot 0.261858
 2303         os     83    ccc     O6   2303 -0.26013600  16.000000   ; qtot 0.001722
; residue   84 ccc rtp ccc q 0.0
 2304         c3     84    ccc     C1   2304 -0.33178800  12.010000   ; qtot -0.330066
 2305         c3     84    ccc     C2   2305 0.30606500  12.010000   ; qtot -0.024001
 2306         h1     84    ccc     H1   2306 0.11662300   1.008000   ; qtot 0.092622
 2307         h1     84    ccc     H2   2307 0.11526800   1.008000   ; qtot 0.207890
 2308         c3     84    ccc     C3   2308 0.15592700  12.010000   ; qtot 0.363817
 2309         c3     84    ccc     C4   2309 0.28383300  12.010000   ; qtot 0.647650
 2310         c3     84    ccc     C5   2310 0.32403300  12.010000   ; qtot 0.971683
 2311         h1     84    ccc     H3   2311 0.13386900   1.008000   ; qtot 1.105552
 2312         h1     84    ccc     H4   2312 0.10146700   1.008000   ; qtot 1.207019
 2313         h2     84    ccc     H5   2313 0.10960400   1.008000   ; qtot 1.316623
 2314         os     84    ccc     O1   2314 -0.28650000  16.000000   ; qtot 1.030123
 2315         oh     84    ccc     O2   2315 -0.86012500  16.000000   ; qtot 0.169998
 2316         oh     84    ccc     O3   2316 -0.83772800  16.000000   ; qtot -0.667730
 2317         oh     84    ccc     O4   2317 -0.77449700  16.000000   ; qtot -1.442227
 2318         c3     84    ccc     C6   2318 0.37576500  12.010000   ; qtot -1.066462
 2319         ho     84    ccc     H6   2319 0.53656000   1.008000   ; qtot -0.529902
 2320         ho     84    ccc     H7   2320 0.49492100   1.008000   ; qtot -0.034981
 2321         ho     84    ccc     H8   2321 0.51297200   1.008000   ; qtot 0.477991
 2322         h1     84    ccc     H9   2322 0.05653400   1.008000   ; qtot 0.534525
 2323         h1     84    ccc    H10   2323 0.05653400   1.008000   ; qtot 0.591059
 2324         oh     84    ccc     O5   2324 -0.84113600  16.000000   ; qtot -0.250077
 2325         ho     84    ccc    H11   2325 0.51201600   1.008000   ; qtot 0.261939
 2326         os     84    ccc     O6   2326 -0.26013600  16.000000   ; qtot 0.001803
; residue   85 ccc rtp ccc q 0.0
 2327         c3     85    ccc     C1   2327 -0.33178800  12.010000   ; qtot -0.329985
 2328         c3     85    ccc     C2   2328 0.30606500  12.010000   ; qtot -0.023920
 2329         h1     85    ccc     H1   2329 0.11662300   1.008000   ; qtot 0.092703
 2330         h1     85    ccc     H2   2330 0.11526800   1.008000   ; qtot 0.207971
 2331         c3     85    ccc     C3   2331 0.15592700  12.010000   ; qtot 0.363898
 2332         c3     85    ccc     C4   2332 0.28383300  12.010000   ; qtot 0.647731
 2333         c3     85    ccc     C5   2333 0.32403300  12.010000   ; qtot 0.971764
 2334         h1     85    ccc     H3   2334 0.13386900   1.008000   ; qtot 1.105633
 2335         h1     85    ccc     H4   2335 0.10146700   1.008000   ; qtot 1.207100
 2336         h2     85    ccc     H5   2336 0.10960400   1.008000   ; qtot 1.316704
 2337         os     85    ccc     O1   2337 -0.28650000  16.000000   ; qtot 1.030204
 2338         oh     85    ccc     O2   2338 -0.86012500  16.000000   ; qtot 0.170079
 2339         oh     85    ccc     O3   2339 -0.83772800  16.000000   ; qtot -0.667649
 2340         oh     85    ccc     O4   2340 -0.77449700  16.000000   ; qtot -1.442146
 2341         c3     85    ccc     C6   2341 0.37576500  12.010000   ; qtot -1.066381
 2342         ho     85    ccc     H6   2342 0.53656000   1.008000   ; qtot -0.529821
 2343         ho     85    ccc     H7   2343 0.49492100   1.008000   ; qtot -0.034900
 2344         ho     85    ccc     H8   2344 0.51297200   1.008000   ; qtot 0.478072
 2345         h1     85    ccc     H9   2345 0.05653400   1.008000   ; qtot 0.534606
 2346         h1     85    ccc    H10   2346 0.05653400   1.008000   ; qtot 0.591140
 2347         oh     85    ccc     O5   2347 -0.84113600  16.000000   ; qtot -0.249996
 2348         ho     85    ccc    H11   2348 0.51201600   1.008000   ; qtot 0.262020
 2349         os     85    ccc     O6   2349 -0.26013600  16.000000   ; qtot 0.001884
; residue   86 ccc rtp ccc q 0.0
 2350         c3     86    ccc     C1   2350 -0.33178800  12.010000   ; qtot -0.329904
 2351         c3     86    ccc     C2   2351 0.30606500  12.010000   ; qtot -0.023839
 2352         h1     86    ccc     H1   2352 0.11662300   1.008000   ; qtot 0.092784
 2353         h1     86    ccc     H2   2353 0.11526800   1.008000   ; qtot 0.208052
 2354         c3     86    ccc     C3   2354 0.15592700  12.010000   ; qtot 0.363979
 2355         c3     86    ccc     C4   2355 0.28383300  12.010000   ; qtot 0.647812
 2356         c3     86    ccc     C5   2356 0.32403300  12.010000   ; qtot 0.971845
 2357         h1     86    ccc     H3   2357 0.13386900   1.008000   ; qtot 1.105714
 2358         h1     86    ccc     H4   2358 0.10146700   1.008000   ; qtot 1.207181
 2359         h2     86    ccc     H5   2359 0.10960400   1.008000   ; qtot 1.316785
 2360         os     86    ccc     O1   2360 -0.28650000  16.000000   ; qtot 1.030285
 2361         oh     86    ccc     O2   2361 -0.86012500  16.000000   ; qtot 0.170160
 2362         oh     86    ccc     O3   2362 -0.83772800  16.000000   ; qtot -0.667568
 2363         oh     86    ccc     O4   2363 -0.77449700  16.000000   ; qtot -1.442065
 2364         c3     86    ccc     C6   2364 0.37576500  12.010000   ; qtot -1.066300
 2365         ho     86    ccc     H6   2365 0.53656000   1.008000   ; qtot -0.529740
 2366         ho     86    ccc     H7   2366 0.49492100   1.008000   ; qtot -0.034819
 2367         ho     86    ccc     H8   2367 0.51297200   1.008000   ; qtot 0.478153
 2368         h1     86    ccc     H9   2368 0.05653400   1.008000   ; qtot 0.534687
 2369         h1     86    ccc    H10   2369 0.05653400   1.008000   ; qtot 0.591221
 2370         oh     86    ccc     O5   2370 -0.84113600  16.000000   ; qtot -0.249915
 2371         ho     86    ccc    H11   2371 0.51201600   1.008000   ; qtot 0.262101
 2372         os     86    ccc     O6   2372 -0.26013600  16.000000   ; qtot 0.001965
; residue   87 ccc rtp ccc q 0.0
 2373         c3     87    ccc     C1   2373 -0.33178800  12.010000   ; qtot -0.329823
 2374         c3     87    ccc     C2   2374 0.30606500  12.010000   ; qtot -0.023758
 2375         h1     87    ccc     H1   2375 0.11662300   1.008000   ; qtot 0.092865
 2376         h1     87    ccc     H2   2376 0.11526800   1.008000   ; qtot 0.208133
 2377         c3     87    ccc     C3   2377 0.15592700  12.010000   ; qtot 0.364060
 2378         c3     87    ccc     C4   2378 0.28383300  12.010000   ; qtot 0.647893
 2379         c3     87    ccc     C5   2379 0.32403300  12.010000   ; qtot 0.971926
 2380         h1     87    ccc     H3   2380 0.13386900   1.008000   ; qtot 1.105795
 2381         h1     87    ccc     H4   2381 0.10146700   1.008000   ; qtot 1.207262
 2382         h2     87    ccc     H5   2382 0.10960400   1.008000   ; qtot 1.316866
 2383         os     87    ccc     O1   2383 -0.28650000  16.000000   ; qtot 1.030366
 2384         oh     87    ccc     O2   2384 -0.86012500  16.000000   ; qtot 0.170241
 2385         oh     87    ccc     O3   2385 -0.83772800  16.000000   ; qtot -0.667487
 2386         oh     87    ccc     O4   2386 -0.77449700  16.000000   ; qtot -1.441984
 2387         c3     87    ccc     C6   2387 0.37576500  12.010000   ; qtot -1.066219
 2388         ho     87    ccc     H6   2388 0.53656000   1.008000   ; qtot -0.529659
 2389         ho     87    ccc     H7   2389 0.49492100   1.008000   ; qtot -0.034738
 2390         ho     87    ccc     H8   2390 0.51297200   1.008000   ; qtot 0.478234
 2391         h1     87    ccc     H9   2391 0.05653400   1.008000   ; qtot 0.534768
 2392         h1     87    ccc    H10   2392 0.05653400   1.008000   ; qtot 0.591302
 2393         oh     87    ccc     O5   2393 -0.84113600  16.000000   ; qtot -0.249834
 2394         ho     87    ccc    H11   2394 0.51201600   1.008000   ; qtot 0.262182
 2395         os     87    ccc     O6   2395 -0.26013600  16.000000   ; qtot 0.002046
; residue   88 ccc rtp ccc q 0.0
 2396         c3     88    ccc     C1   2396 -0.33178800  12.010000   ; qtot -0.329742
 2397         c3     88    ccc     C2   2397 0.30606500  12.010000   ; qtot -0.023677
 2398         h1     88    ccc     H1   2398 0.11662300   1.008000   ; qtot 0.092946
 2399         h1     88    ccc     H2   2399 0.11526800   1.008000   ; qtot 0.208214
 2400         c3     88    ccc     C3   2400 0.15592700  12.010000   ; qtot 0.364141
 2401         c3     88    ccc     C4   2401 0.28383300  12.010000   ; qtot 0.647974
 2402         c3     88    ccc     C5   2402 0.32403300  12.010000   ; qtot 0.972007
 2403         h1     88    ccc     H3   2403 0.13386900   1.008000   ; qtot 1.105876
 2404         h1     88    ccc     H4   2404 0.10146700   1.008000   ; qtot 1.207343
 2405         h2     88    ccc     H5   2405 0.10960400   1.008000   ; qtot 1.316947
 2406         os     88    ccc     O1   2406 -0.28650000  16.000000   ; qtot 1.030447
 2407         oh     88    ccc     O2   2407 -0.86012500  16.000000   ; qtot 0.170322
 2408         oh     88    ccc     O3   2408 -0.83772800  16.000000   ; qtot -0.667406
 2409         oh     88    ccc     O4   2409 -0.77449700  16.000000   ; qtot -1.441903
 2410         c3     88    ccc     C6   2410 0.37576500  12.010000   ; qtot -1.066138
 2411         ho     88    ccc     H6   2411 0.53656000   1.008000   ; qtot -0.529578
 2412         ho     88    ccc     H7   2412 0.49492100   1.008000   ; qtot -0.034657
 2413         ho     88    ccc     H8   2413 0.51297200   1.008000   ; qtot 0.478315
 2414         h1     88    ccc     H9   2414 0.05653400   1.008000   ; qtot 0.534849
 2415         h1     88    ccc    H10   2415 0.05653400   1.008000   ; qtot 0.591383
 2416         oh     88    ccc     O5   2416 -0.84113600  16.000000   ; qtot -0.249753
 2417         ho     88    ccc    H11   2417 0.51201600   1.008000   ; qtot 0.262263
 2418         os     88    ccc     O6   2418 -0.26013600  16.000000   ; qtot 0.002127
; residue   89 ccc rtp ccc q 0.0
 2419         c3     89    ccc     C1   2419 -0.33178800  12.010000   ; qtot -0.329661
 2420         c3     89    ccc     C2   2420 0.30606500  12.010000   ; qtot -0.023596
 2421         h1     89    ccc     H1   2421 0.11662300   1.008000   ; qtot 0.093027
 2422         h1     89    ccc     H2   2422 0.11526800   1.008000   ; qtot 0.208295
 2423         c3     89    ccc     C3   2423 0.15592700  12.010000   ; qtot 0.364222
 2424         c3     89    ccc     C4   2424 0.28383300  12.010000   ; qtot 0.648055
 2425         c3     89    ccc     C5   2425 0.32403300  12.010000   ; qtot 0.972088
 2426         h1     89    ccc     H3   2426 0.13386900   1.008000   ; qtot 1.105957
 2427         h1     89    ccc     H4   2427 0.10146700   1.008000   ; qtot 1.207424
 2428         h2     89    ccc     H5   2428 0.10960400   1.008000   ; qtot 1.317028
 2429         os     89    ccc     O1   2429 -0.28650000  16.000000   ; qtot 1.030528
 2430         oh     89    ccc     O2   2430 -0.86012500  16.000000   ; qtot 0.170403
 2431         oh     89    ccc     O3   2431 -0.83772800  16.000000   ; qtot -0.667325
 2432         oh     89    ccc     O4   2432 -0.77449700  16.000000   ; qtot -1.441822
 2433         c3     89    ccc     C6   2433 0.37576500  12.010000   ; qtot -1.066057
 2434         ho     89    ccc     H6   2434 0.53656000   1.008000   ; qtot -0.529497
 2435         ho     89    ccc     H7   2435 0.49492100   1.008000   ; qtot -0.034576
 2436         ho     89    ccc     H8   2436 0.51297200   1.008000   ; qtot 0.478396
 2437         h1     89    ccc     H9   2437 0.05653400   1.008000   ; qtot 0.534930
 2438         h1     89    ccc    H10   2438 0.05653400   1.008000   ; qtot 0.591464
 2439         oh     89    ccc     O5   2439 -0.84113600  16.000000   ; qtot -0.249672
 2440         ho     89    ccc    H11   2440 0.51201600   1.008000   ; qtot 0.262344
 2441         os     89    ccc     O6   2441 -0.26013600  16.000000   ; qtot 0.002208
; residue   90 ccc rtp ccc q 0.0
 2442         c3     90    ccc     C1   2442 -0.33178800  12.010000   ; qtot -0.329580
 2443         c3     90    ccc     C2   2443 0.30606500  12.010000   ; qtot -0.023515
 2444         h1     90    ccc     H1   2444 0.11662300   1.008000   ; qtot 0.093108
 2445         h1     90    ccc     H2   2445 0.11526800   1.008000   ; qtot 0.208376
 2446         c3     90    ccc     C3   2446 0.15592700  12.010000   ; qtot 0.364303
 2447         c3     90    ccc     C4   2447 0.28383300  12.010000   ; qtot 0.648136
 2448         c3     90    ccc     C5   2448 0.32403300  12.010000   ; qtot 0.972169
 2449         h1     90    ccc     H3   2449 0.13386900   1.008000   ; qtot 1.106038
 2450         h1     90    ccc     H4   2450 0.10146700   1.008000   ; qtot 1.207505
 2451         h2     90    ccc     H5   2451 0.10960400   1.008000   ; qtot 1.317109
 2452         os     90    ccc     O1   2452 -0.28650000  16.000000   ; qtot 1.030609
 2453         oh     90    ccc     O2   2453 -0.86012500  16.000000   ; qtot 0.170484
 2454         oh     90    ccc     O3   2454 -0.83772800  16.000000   ; qtot -0.667244
 2455         oh     90    ccc     O4   2455 -0.77449700  16.000000   ; qtot -1.441741
 2456         c3     90    ccc     C6   2456 0.37576500  12.010000   ; qtot -1.065976
 2457         ho     90    ccc     H6   2457 0.53656000   1.008000   ; qtot -0.529416
 2458         ho     90    ccc     H7   2458 0.49492100   1.008000   ; qtot -0.034495
 2459         ho     90    ccc     H8   2459 0.51297200   1.008000   ; qtot 0.478477
 2460         h1     90    ccc     H9   2460 0.05653400   1.008000   ; qtot 0.535011
 2461         h1     90    ccc    H10   2461 0.05653400   1.008000   ; qtot 0.591545
 2462         oh     90    ccc     O5   2462 -0.84113600  16.000000   ; qtot -0.249591
 2463         ho     90    ccc    H11   2463 0.51201600   1.008000   ; qtot 0.262425
 2464         os     90    ccc     O6   2464 -0.26013600  16.000000   ; qtot 0.002289
; residue   91 ccc rtp ccc q 0.0
 2465         c3     91    ccc     C1   2465 -0.33178800  12.010000   ; qtot -0.329499
 2466         c3     91    ccc     C2   2466 0.30606500  12.010000   ; qtot -0.023434
 2467         h1     91    ccc     H1   2467 0.11662300   1.008000   ; qtot 0.093189
 2468         h1     91    ccc     H2   2468 0.11526800   1.008000   ; qtot 0.208457
 2469         c3     91    ccc     C3   2469 0.15592700  12.010000   ; qtot 0.364384
 2470         c3     91    ccc     C4   2470 0.28383300  12.010000   ; qtot 0.648217
 2471         c3     91    ccc     C5   2471 0.32403300  12.010000   ; qtot 0.972250
 2472         h1     91    ccc     H3   2472 0.13386900   1.008000   ; qtot 1.106119
 2473         h1     91    ccc     H4   2473 0.10146700   1.008000   ; qtot 1.207586
 2474         h2     91    ccc     H5   2474 0.10960400   1.008000   ; qtot 1.317190
 2475         os     91    ccc     O1   2475 -0.28650000  16.000000   ; qtot 1.030690
 2476         oh     91    ccc     O2   2476 -0.86012500  16.000000   ; qtot 0.170565
 2477         oh     91    ccc     O3   2477 -0.83772800  16.000000   ; qtot -0.667163
 2478         oh     91    ccc     O4   2478 -0.77449700  16.000000   ; qtot -1.441660
 2479         c3     91    ccc     C6   2479 0.37576500  12.010000   ; qtot -1.065895
 2480         ho     91    ccc     H6   2480 0.53656000   1.008000   ; qtot -0.529335
 2481         ho     91    ccc     H7   2481 0.49492100   1.008000   ; qtot -0.034414
 2482         ho     91    ccc     H8   2482 0.51297200   1.008000   ; qtot 0.478558
 2483         h1     91    ccc     H9   2483 0.05653400   1.008000   ; qtot 0.535092
 2484         h1     91    ccc    H10   2484 0.05653400   1.008000   ; qtot 0.591626
 2485         oh     91    ccc     O5   2485 -0.84113600  16.000000   ; qtot -0.249510
 2486         ho     91    ccc    H11   2486 0.51201600   1.008000   ; qtot 0.262506
 2487         os     91    ccc     O6   2487 -0.26013600  16.000000   ; qtot 0.002370
; residue   92 ccc rtp ccc q 0.0
 2488         c3     92    ccc     C1   2488 -0.33178800  12.010000   ; qtot -0.329418
 2489         c3     92    ccc     C2   2489 0.30606500  12.010000   ; qtot -0.023353
 2490         h1     92    ccc     H1   2490 0.11662300   1.008000   ; qtot 0.093270
 2491         h1     92    ccc     H2   2491 0.11526800   1.008000   ; qtot 0.208538
 2492         c3     92    ccc     C3   2492 0.15592700  12.010000   ; qtot 0.364465
 2493         c3     92    ccc     C4   2493 0.28383300  12.010000   ; qtot 0.648298
 2494         c3     92    ccc     C5   2494 0.32403300  12.010000   ; qtot 0.972331
 2495         h1     92    ccc     H3   2495 0.13386900   1.008000   ; qtot 1.106200
 2496         h1     92    ccc     H4   2496 0.10146700   1.008000   ; qtot 1.207667
 2497         h2     92    ccc     H5   2497 0.10960400   1.008000   ; qtot 1.317271
 2498         os     92    ccc     O1   2498 -0.28650000  16.000000   ; qtot 1.030771
 2499         oh     92    ccc     O2   2499 -0.86012500  16.000000   ; qtot 0.170646
 2500         oh     92    ccc     O3   2500 -0.83772800  16.000000   ; qtot -0.667082
 2501         oh     92    ccc     O4   2501 -0.77449700  16.000000   ; qtot -1.441579
 2502         c3     92    ccc     C6   2502 0.37576500  12.010000   ; qtot -1.065814
 2503         ho     92    ccc     H6   2503 0.53656000   1.008000   ; qtot -0.529254
 2504         ho     92    ccc     H7   2504 0.49492100   1.008000   ; qtot -0.034333
 2505         ho     92    ccc     H8   2505 0.51297200   1.008000   ; qtot 0.478639
 2506         h1     92    ccc     H9   2506 0.05653400   1.008000   ; qtot 0.535173
 2507         h1     92    ccc    H10   2507 0.05653400   1.008000   ; qtot 0.591707
 2508         oh     92    ccc     O5   2508 -0.84113600  16.000000   ; qtot -0.249429
 2509         ho     92    ccc    H11   2509 0.51201600   1.008000   ; qtot 0.262587
 2510         os     92    ccc     O6   2510 -0.26013600  16.000000   ; qtot 0.002451
; residue   93 ccc rtp ccc q 0.0
 2511         c3     93    ccc     C1   2511 -0.33178800  12.010000   ; qtot -0.329337
 2512         c3     93    ccc     C2   2512 0.30606500  12.010000   ; qtot -0.023272
 2513         h1     93    ccc     H1   2513 0.11662300   1.008000   ; qtot 0.093351
 2514         h1     93    ccc     H2   2514 0.11526800   1.008000   ; qtot 0.208619
 2515         c3     93    ccc     C3   2515 0.15592700  12.010000   ; qtot 0.364546
 2516         c3     93    ccc     C4   2516 0.28383300  12.010000   ; qtot 0.648379
 2517         c3     93    ccc     C5   2517 0.32403300  12.010000   ; qtot 0.972412
 2518         h1     93    ccc     H3   2518 0.13386900   1.008000   ; qtot 1.106281
 2519         h1     93    ccc     H4   2519 0.10146700   1.008000   ; qtot 1.207748
 2520         h2     93    ccc     H5   2520 0.10960400   1.008000   ; qtot 1.317352
 2521         os     93    ccc     O1   2521 -0.28650000  16.000000   ; qtot 1.030852
 2522         oh     93    ccc     O2   2522 -0.86012500  16.000000   ; qtot 0.170727
 2523         oh     93    ccc     O3   2523 -0.83772800  16.000000   ; qtot -0.667001
 2524         oh     93    ccc     O4   2524 -0.77449700  16.000000   ; qtot -1.441498
 2525         c3     93    ccc     C6   2525 0.37576500  12.010000   ; qtot -1.065733
 2526         ho     93    ccc     H6   2526 0.53656000   1.008000   ; qtot -0.529173
 2527         ho     93    ccc     H7   2527 0.49492100   1.008000   ; qtot -0.034252
 2528         ho     93    ccc     H8   2528 0.51297200   1.008000   ; qtot 0.478720
 2529         h1     93    ccc     H9   2529 0.05653400   1.008000   ; qtot 0.535254
 2530         h1     93    ccc    H10   2530 0.05653400   1.008000   ; qtot 0.591788
 2531         oh     93    ccc     O5   2531 -0.84113600  16.000000   ; qtot -0.249348
 2532         ho     93    ccc    H11   2532 0.51201600   1.008000   ; qtot 0.262668
 2533         os     93    ccc     O6   2533 -0.26013600  16.000000   ; qtot 0.002532
; residue   94 ccc rtp ccc q 0.0
 2534         c3     94    ccc     C1   2534 -0.33178800  12.010000   ; qtot -0.329256
 2535         c3     94    ccc     C2   2535 0.30606500  12.010000   ; qtot -0.023191
 2536         h1     94    ccc     H1   2536 0.11662300   1.008000   ; qtot 0.093432
 2537         h1     94    ccc     H2   2537 0.11526800   1.008000   ; qtot 0.208700
 2538         c3     94    ccc     C3   2538 0.15592700  12.010000   ; qtot 0.364627
 2539         c3     94    ccc     C4   2539 0.28383300  12.010000   ; qtot 0.648460
 2540         c3     94    ccc     C5   2540 0.32403300  12.010000   ; qtot 0.972493
 2541         h1     94    ccc     H3   2541 0.13386900   1.008000   ; qtot 1.106362
 2542         h1     94    ccc     H4   2542 0.10146700   1.008000   ; qtot 1.207829
 2543         h2     94    ccc     H5   2543 0.10960400   1.008000   ; qtot 1.317433
 2544         os     94    ccc     O1   2544 -0.28650000  16.000000   ; qtot 1.030933
 2545         oh     94    ccc     O2   2545 -0.86012500  16.000000   ; qtot 0.170808
 2546         oh     94    ccc     O3   2546 -0.83772800  16.000000   ; qtot -0.666920
 2547         oh     94    ccc     O4   2547 -0.77449700  16.000000   ; qtot -1.441417
 2548         c3     94    ccc     C6   2548 0.37576500  12.010000   ; qtot -1.065652
 2549         ho     94    ccc     H6   2549 0.53656000   1.008000   ; qtot -0.529092
 2550         ho     94    ccc     H7   2550 0.49492100   1.008000   ; qtot -0.034171
 2551         ho     94    ccc     H8   2551 0.51297200   1.008000   ; qtot 0.478801
 2552         h1     94    ccc     H9   2552 0.05653400   1.008000   ; qtot 0.535335
 2553         h1     94    ccc    H10   2553 0.05653400   1.008000   ; qtot 0.591869
 2554         oh     94    ccc     O5   2554 -0.84113600  16.000000   ; qtot -0.249267
 2555         ho     94    ccc    H11   2555 0.51201600   1.008000   ; qtot 0.262749
 2556         os     94    ccc     O6   2556 -0.26013600  16.000000   ; qtot 0.002613
; residue   95 ccc rtp ccc q 0.0
 2557         c3     95    ccc     C1   2557 -0.33178800  12.010000   ; qtot -0.329175
 2558         c3     95    ccc     C2   2558 0.30606500  12.010000   ; qtot -0.023110
 2559         h1     95    ccc     H1   2559 0.11662300   1.008000   ; qtot 0.093513
 2560         h1     95    ccc     H2   2560 0.11526800   1.008000   ; qtot 0.208781
 2561         c3     95    ccc     C3   2561 0.15592700  12.010000   ; qtot 0.364708
 2562         c3     95    ccc     C4   2562 0.28383300  12.010000   ; qtot 0.648541
 2563         c3     95    ccc     C5   2563 0.32403300  12.010000   ; qtot 0.972574
 2564         h1     95    ccc     H3   2564 0.13386900   1.008000   ; qtot 1.106443
 2565         h1     95    ccc     H4   2565 0.10146700   1.008000   ; qtot 1.207910
 2566         h2     95    ccc     H5   2566 0.10960400   1.008000   ; qtot 1.317514
 2567         os     95    ccc     O1   2567 -0.28650000  16.000000   ; qtot 1.031014
 2568         oh     95    ccc     O2   2568 -0.86012500  16.000000   ; qtot 0.170889
 2569         oh     95    ccc     O3   2569 -0.83772800  16.000000   ; qtot -0.666839
 2570         oh     95    ccc     O4   2570 -0.77449700  16.000000   ; qtot -1.441336
 2571         c3     95    ccc     C6   2571 0.37576500  12.010000   ; qtot -1.065571
 2572         ho     95    ccc     H6   2572 0.53656000   1.008000   ; qtot -0.529011
 2573         ho     95    ccc     H7   2573 0.49492100   1.008000   ; qtot -0.034090
 2574         ho     95    ccc     H8   2574 0.51297200   1.008000   ; qtot 0.478882
 2575         h1     95    ccc     H9   2575 0.05653400   1.008000   ; qtot 0.535416
 2576         h1     95    ccc    H10   2576 0.05653400   1.008000   ; qtot 0.591950
 2577         oh     95    ccc     O5   2577 -0.84113600  16.000000   ; qtot -0.249186
 2578         ho     95    ccc    H11   2578 0.51201600   1.008000   ; qtot 0.262830
 2579         os     95    ccc     O6   2579 -0.26013600  16.000000   ; qtot 0.002694
; residue   96 ccc rtp ccc q 0.0
 2580         c3     96    ccc     C1   2580 -0.33178800  12.010000   ; qtot -0.329094
 2581         c3     96    ccc     C2   2581 0.30606500  12.010000   ; qtot -0.023029
 2582         h1     96    ccc     H1   2582 0.11662300   1.008000   ; qtot 0.093594
 2583         h1     96    ccc     H2   2583 0.11526800   1.008000   ; qtot 0.208862
 2584         c3     96    ccc     C3   2584 0.15592700  12.010000   ; qtot 0.364789
 2585         c3     96    ccc     C4   2585 0.28383300  12.010000   ; qtot 0.648622
 2586         c3     96    ccc     C5   2586 0.32403300  12.010000   ; qtot 0.972655
 2587         h1     96    ccc     H3   2587 0.13386900   1.008000   ; qtot 1.106524
 2588         h1     96    ccc     H4   2588 0.10146700   1.008000   ; qtot 1.207991
 2589         h2     96    ccc     H5   2589 0.10960400   1.008000   ; qtot 1.317595
 2590         os     96    ccc     O1   2590 -0.28650000  16.000000   ; qtot 1.031095
 2591         oh     96    ccc     O2   2591 -0.86012500  16.000000   ; qtot 0.170970
 2592         oh     96    ccc     O3   2592 -0.83772800  16.000000   ; qtot -0.666758
 2593         oh     96    ccc     O4   2593 -0.77449700  16.000000   ; qtot -1.441255
 2594         c3     96    ccc     C6   2594 0.37576500  12.010000   ; qtot -1.065490
 2595         ho     96    ccc     H6   2595 0.53656000   1.008000   ; qtot -0.528930
 2596         ho     96    ccc     H7   2596 0.49492100   1.008000   ; qtot -0.034009
 2597         ho     96    ccc     H8   2597 0.51297200   1.008000   ; qtot 0.478963
 2598         h1     96    ccc     H9   2598 0.05653400   1.008000   ; qtot 0.535497
 2599         h1     96    ccc    H10   2599 0.05653400   1.008000   ; qtot 0.592031
 2600         oh     96    ccc     O5   2600 -0.84113600  16.000000   ; qtot -0.249105
 2601         ho     96    ccc    H11   2601 0.51201600   1.008000   ; qtot 0.262911
 2602         os     96    ccc     O6   2602 -0.26013600  16.000000   ; qtot 0.002775
; residue   97 ccc rtp ccc q 0.0
 2603         c3     97    ccc     C1   2603 -0.33178800  12.010000   ; qtot -0.329013
 2604         c3     97    ccc     C2   2604 0.30606500  12.010000   ; qtot -0.022948
 2605         h1     97    ccc     H1   2605 0.11662300   1.008000   ; qtot 0.093675
 2606         h1     97    ccc     H2   2606 0.11526800   1.008000   ; qtot 0.208943
 2607         c3     97    ccc     C3   2607 0.15592700  12.010000   ; qtot 0.364870
 2608         c3     97    ccc     C4   2608 0.28383300  12.010000   ; qtot 0.648703
 2609         c3     97    ccc     C5   2609 0.32403300  12.010000   ; qtot 0.972736
 2610         h1     97    ccc     H3   2610 0.13386900   1.008000   ; qtot 1.106605
 2611         h1     97    ccc     H4   2611 0.10146700   1.008000   ; qtot 1.208072
 2612         h2     97    ccc     H5   2612 0.10960400   1.008000   ; qtot 1.317676
 2613         os     97    ccc     O1   2613 -0.28650000  16.000000   ; qtot 1.031176
 2614         oh     97    ccc     O2   2614 -0.86012500  16.000000   ; qtot 0.171051
 2615         oh     97    ccc     O3   2615 -0.83772800  16.000000   ; qtot -0.666677
 2616         oh     97    ccc     O4   2616 -0.77449700  16.000000   ; qtot -1.441174
 2617         c3     97    ccc     C6   2617 0.37576500  12.010000   ; qtot -1.065409
 2618         ho     97    ccc     H6   2618 0.53656000   1.008000   ; qtot -0.528849
 2619         ho     97    ccc     H7   2619 0.49492100   1.008000   ; qtot -0.033928
 2620         ho     97    ccc     H8   2620 0.51297200   1.008000   ; qtot 0.479044
 2621         h1     97    ccc     H9   2621 0.05653400   1.008000   ; qtot 0.535578
 2622         h1     97    ccc    H10   2622 0.05653400   1.008000   ; qtot 0.592112
 2623         oh     97    ccc     O5   2623 -0.84113600  16.000000   ; qtot -0.249024
 2624         ho     97    ccc    H11   2624 0.51201600   1.008000   ; qtot 0.262992
 2625         os     97    ccc     O6   2625 -0.26013600  16.000000   ; qtot 0.002856
; residue   98 ccc rtp ccc q 0.0
 2626         c3     98    ccc     C1   2626 -0.33178800  12.010000   ; qtot -0.328932
 2627         c3     98    ccc     C2   2627 0.30606500  12.010000   ; qtot -0.022867
 2628         h1     98    ccc     H1   2628 0.11662300   1.008000   ; qtot 0.093756
 2629         h1     98    ccc     H2   2629 0.11526800   1.008000   ; qtot 0.209024
 2630         c3     98    ccc     C3   2630 0.15592700  12.010000   ; qtot 0.364951
 2631         c3     98    ccc     C4   2631 0.28383300  12.010000   ; qtot 0.648784
 2632         c3     98    ccc     C5   2632 0.32403300  12.010000   ; qtot 0.972817
 2633         h1     98    ccc     H3   2633 0.13386900   1.008000   ; qtot 1.106686
 2634         h1     98    ccc     H4   2634 0.10146700   1.008000   ; qtot 1.208153
 2635         h2     98    ccc     H5   2635 0.10960400   1.008000   ; qtot 1.317757
 2636         os     98    ccc     O1   2636 -0.28650000  16.000000   ; qtot 1.031257
 2637         oh     98    ccc     O2   2637 -0.86012500  16.000000   ; qtot 0.171132
 2638         oh     98    ccc     O3   2638 -0.83772800  16.000000   ; qtot -0.666596
 2639         oh     98    ccc     O4   2639 -0.77449700  16.000000   ; qtot -1.441093
 2640         c3     98    ccc     C6   2640 0.37576500  12.010000   ; qtot -1.065328
 2641         ho     98    ccc     H6   2641 0.53656000   1.008000   ; qtot -0.528768
 2642         ho     98    ccc     H7   2642 0.49492100   1.008000   ; qtot -0.033847
 2643         ho     98    ccc     H8   2643 0.51297200   1.008000   ; qtot 0.479125
 2644         h1     98    ccc     H9   2644 0.05653400   1.008000   ; qtot 0.535659
 2645         h1     98    ccc    H10   2645 0.05653400   1.008000   ; qtot 0.592193
 2646         oh     98    ccc     O5   2646 -0.84113600  16.000000   ; qtot -0.248943
 2647         ho     98    ccc    H11   2647 0.51201600   1.008000   ; qtot 0.263073
 2648         os     98    ccc     O6   2648 -0.26013600  16.000000   ; qtot 0.002937
; residue   99 ccc rtp ccc q 0.0
 2649         c3     99    ccc     C1   2649 -0.33178800  12.010000   ; qtot -0.328851
 2650         c3     99    ccc     C2   2650 0.30606500  12.010000   ; qtot -0.022786
 2651         h1     99    ccc     H1   2651 0.11662300   1.008000   ; qtot 0.093837
 2652         h1     99    ccc     H2   2652 0.11526800   1.008000   ; qtot 0.209105
 2653         c3     99    ccc     C3   2653 0.15592700  12.010000   ; qtot 0.365032
 2654         c3     99    ccc     C4   2654 0.28383300  12.010000   ; qtot 0.648865
 2655         c3     99    ccc     C5   2655 0.32403300  12.010000   ; qtot 0.972898
 2656         h1     99    ccc     H3   2656 0.13386900   1.008000   ; qtot 1.106767
 2657         h1     99    ccc     H4   2657 0.10146700   1.008000   ; qtot 1.208234
 2658         h2     99    ccc     H5   2658 0.10960400   1.008000   ; qtot 1.317838
 2659         os     99    ccc     O1   2659 -0.28650000  16.000000   ; qtot 1.031338
 2660         oh     99    ccc     O2   2660 -0.86012500  16.000000   ; qtot 0.171213
 2661         oh     99    ccc     O3   2661 -0.83772800  16.000000   ; qtot -0.666515
 2662         oh     99    ccc     O4   2662 -0.77449700  16.000000   ; qtot -1.441012
 2663         c3     99    ccc     C6   2663 0.37576500  12.010000   ; qtot -1.065247
 2664         ho     99    ccc     H6   2664 0.53656000   1.008000   ; qtot -0.528687
 2665         ho     99    ccc     H7   2665 0.49492100   1.008000   ; qtot -0.033766
 2666         ho     99    ccc     H8   2666 0.51297200   1.008000   ; qtot 0.479206
 2667         h1     99    ccc     H9   2667 0.05653400   1.008000   ; qtot 0.535740
 2668         h1     99    ccc    H10   2668 0.05653400   1.008000   ; qtot 0.592274
 2669         oh     99    ccc     O5   2669 -0.84113600  16.000000   ; qtot -0.248862
 2670         ho     99    ccc    H11   2670 0.51201600   1.008000   ; qtot 0.263154
 2671         os     99    ccc     O6   2671 -0.26013600  16.000000   ; qtot 0.003018
; residue  100 ccc rtp ccc q 0.0
 2672         c3    100    ccc     C1   2672 -0.33178800  12.010000   ; qtot -0.328770
 2673         c3    100    ccc     C2   2673 0.30606500  12.010000   ; qtot -0.022705
 2674         h1    100    ccc     H1   2674 0.11662300   1.008000   ; qtot 0.093918
 2675         h1    100    ccc     H2   2675 0.11526800   1.008000   ; qtot 0.209186
 2676         c3    100    ccc     C3   2676 0.15592700  12.010000   ; qtot 0.365113
 2677         c3    100    ccc     C4   2677 0.28383300  12.010000   ; qtot 0.648946
 2678         c3    100    ccc     C5   2678 0.32403300  12.010000   ; qtot 0.972979
 2679         h1    100    ccc     H3   2679 0.13386900   1.008000   ; qtot 1.106848
 2680         h1    100    ccc     H4   2680 0.10146700   1.008000   ; qtot 1.208315
 2681         h2    100    ccc     H5   2681 0.10960400   1.008000   ; qtot 1.317919
 2682         os    100    ccc     O1   2682 -0.28650000  16.000000   ; qtot 1.031419
 2683         oh    100    ccc     O2   2683 -0.86012500  16.000000   ; qtot 0.171294
 2684         oh    100    ccc     O3   2684 -0.83772800  16.000000   ; qtot -0.666434
 2685         oh    100    ccc     O4   2685 -0.77449700  16.000000   ; qtot -1.440931
 2686         c3    100    ccc     C6   2686 0.37576500  12.010000   ; qtot -1.065166
 2687         ho    100    ccc     H6   2687 0.53656000   1.008000   ; qtot -0.528606
 2688         ho    100    ccc     H7   2688 0.49492100   1.008000   ; qtot -0.033685
 2689         ho    100    ccc     H8   2689 0.51297200   1.008000   ; qtot 0.479287
 2690         h1    100    ccc     H9   2690 0.05653400   1.008000   ; qtot 0.535821
 2691         h1    100    ccc    H10   2691 0.05653400   1.008000   ; qtot 0.592355
 2692         oh    100    ccc     O5   2692 -0.84113600  16.000000   ; qtot -0.248781
 2693         ho    100    ccc    H11   2693 0.51201600   1.008000   ; qtot 0.263235
 2694         os    100    ccc     O6   2694 -0.26013600  16.000000   ; qtot 0.003099
; residue  101 ccc rtp ccc q 0.0
 2695         c3    101    ccc     C1   2695 -0.33178800  12.010000   ; qtot -0.328689
 2696         c3    101    ccc     C2   2696 0.30606500  12.010000   ; qtot -0.022624
 2697         h1    101    ccc     H1   2697 0.11662300   1.008000   ; qtot 0.093999
 2698         h1    101    ccc     H2   2698 0.11526800   1.008000   ; qtot 0.209267
 2699         c3    101    ccc     C3   2699 0.15592700  12.010000   ; qtot 0.365194
 2700         c3    101    ccc     C4   2700 0.28383300  12.010000   ; qtot 0.649027
 2701         c3    101    ccc     C5   2701 0.32403300  12.010000   ; qtot 0.973060
 2702         h1    101    ccc     H3   2702 0.13386900   1.008000   ; qtot 1.106929
 2703         h1    101    ccc     H4   2703 0.10146700   1.008000   ; qtot 1.208396
 2704         h2    101    ccc     H5   2704 0.10960400   1.008000   ; qtot 1.318000
 2705         os    101    ccc     O1   2705 -0.28650000  16.000000   ; qtot 1.031500
 2706         oh    101    ccc     O2   2706 -0.86012500  16.000000   ; qtot 0.171375
 2707         oh    101    ccc     O3   2707 -0.83772800  16.000000   ; qtot -0.666353
 2708         oh    101    ccc     O4   2708 -0.77449700  16.000000   ; qtot -1.440850
 2709         c3    101    ccc     C6   2709 0.37576500  12.010000   ; qtot -1.065085
 2710         ho    101    ccc     H6   2710 0.53656000   1.008000   ; qtot -0.528525
 2711         ho    101    ccc     H7   2711 0.49492100   1.008000   ; qtot -0.033604
 2712         ho    101    ccc     H8   2712 0.51297200   1.008000   ; qtot 0.479368
 2713         h1    101    ccc     H9   2713 0.05653400   1.008000   ; qtot 0.535902
 2714         h1    101    ccc    H10   2714 0.05653400   1.008000   ; qtot 0.592436
 2715         oh    101    ccc     O5   2715 -0.84113600  16.000000   ; qtot -0.248700
 2716         ho    101    ccc    H11   2716 0.51201600   1.008000   ; qtot 0.263316
 2717         os    101    ccc     O6   2717 -0.26013600  16.000000   ; qtot 0.003180
; residue  102 ccc rtp ccc q 0.0
 2718         c3    102    ccc     C1   2718 -0.33178800  12.010000   ; qtot -0.328608
 2719         c3    102    ccc     C2   2719 0.30606500  12.010000   ; qtot -0.022543
 2720         h1    102    ccc     H1   2720 0.11662300   1.008000   ; qtot 0.094080
 2721         h1    102    ccc     H2   2721 0.11526800   1.008000   ; qtot 0.209348
 2722         c3    102    ccc     C3   2722 0.15592700  12.010000   ; qtot 0.365275
 2723         c3    102    ccc     C4   2723 0.28383300  12.010000   ; qtot 0.649108
 2724         c3    102    ccc     C5   2724 0.32403300  12.010000   ; qtot 0.973141
 2725         h1    102    ccc     H3   2725 0.13386900   1.008000   ; qtot 1.107010
 2726         h1    102    ccc     H4   2726 0.10146700   1.008000   ; qtot 1.208477
 2727         h2    102    ccc     H5   2727 0.10960400   1.008000   ; qtot 1.318081
 2728         os    102    ccc     O1   2728 -0.28650000  16.000000   ; qtot 1.031581
 2729         oh    102    ccc     O2   2729 -0.86012500  16.000000   ; qtot 0.171456
 2730         oh    102    ccc     O3   2730 -0.83772800  16.000000   ; qtot -0.666272
 2731         oh    102    ccc     O4   2731 -0.77449700  16.000000   ; qtot -1.440769
 2732         c3    102    ccc     C6   2732 0.37576500  12.010000   ; qtot -1.065004
 2733         ho    102    ccc     H6   2733 0.53656000   1.008000   ; qtot -0.528444
 2734         ho    102    ccc     H7   2734 0.49492100   1.008000   ; qtot -0.033523
 2735         ho    102    ccc     H8   2735 0.51297200   1.008000   ; qtot 0.479449
 2736         h1    102    ccc     H9   2736 0.05653400   1.008000   ; qtot 0.535983
 2737         h1    102    ccc    H10   2737 0.05653400   1.008000   ; qtot 0.592517
 2738         oh    102    ccc     O5   2738 -0.84113600  16.000000   ; qtot -0.248619
 2739         ho    102    ccc    H11   2739 0.51201600   1.008000   ; qtot 0.263397
 2740         os    102    ccc     O6   2740 -0.26013600  16.000000   ; qtot 0.003261
; residue  103 ccc rtp ccc q 0.0
 2741         c3    103    ccc     C1   2741 -0.33178800  12.010000   ; qtot -0.328527
 2742         c3    103    ccc     C2   2742 0.30606500  12.010000   ; qtot -0.022462
 2743         h1    103    ccc     H1   2743 0.11662300   1.008000   ; qtot 0.094161
 2744         h1    103    ccc     H2   2744 0.11526800   1.008000   ; qtot 0.209429
 2745         c3    103    ccc     C3   2745 0.15592700  12.010000   ; qtot 0.365356
 2746         c3    103    ccc     C4   2746 0.28383300  12.010000   ; qtot 0.649189
 2747         c3    103    ccc     C5   2747 0.32403300  12.010000   ; qtot 0.973222
 2748         h1    103    ccc     H3   2748 0.13386900   1.008000   ; qtot 1.107091
 2749         h1    103    ccc     H4   2749 0.10146700   1.008000   ; qtot 1.208558
 2750         h2    103    ccc     H5   2750 0.10960400   1.008000   ; qtot 1.318162
 2751         os    103    ccc     O1   2751 -0.28650000  16.000000   ; qtot 1.031662
 2752         oh    103    ccc     O2   2752 -0.86012500  16.000000   ; qtot 0.171537
 2753         oh    103    ccc     O3   2753 -0.83772800  16.000000   ; qtot -0.666191
 2754         oh    103    ccc     O4   2754 -0.77449700  16.000000   ; qtot -1.440688
 2755         c3    103    ccc     C6   2755 0.37576500  12.010000   ; qtot -1.064923
 2756         ho    103    ccc     H6   2756 0.53656000   1.008000   ; qtot -0.528363
 2757         ho    103    ccc     H7   2757 0.49492100   1.008000   ; qtot -0.033442
 2758         ho    103    ccc     H8   2758 0.51297200   1.008000   ; qtot 0.479530
 2759         h1    103    ccc     H9   2759 0.05653400   1.008000   ; qtot 0.536064
 2760         h1    103    ccc    H10   2760 0.05653400   1.008000   ; qtot 0.592598
 2761         oh    103    ccc     O5   2761 -0.84113600  16.000000   ; qtot -0.248538
 2762         ho    103    ccc    H11   2762 0.51201600   1.008000   ; qtot 0.263478
 2763         os    103    ccc     O6   2763 -0.26013600  16.000000   ; qtot 0.003342
; residue  104 ccc rtp ccc q 0.0
 2764         c3    104    ccc     C1   2764 -0.33178800  12.010000   ; qtot -0.328446
 2765         c3    104    ccc     C2   2765 0.30606500  12.010000   ; qtot -0.022381
 2766         h1    104    ccc     H1   2766 0.11662300   1.008000   ; qtot 0.094242
 2767         h1    104    ccc     H2   2767 0.11526800   1.008000   ; qtot 0.209510
 2768         c3    104    ccc     C3   2768 0.15592700  12.010000   ; qtot 0.365437
 2769         c3    104    ccc     C4   2769 0.28383300  12.010000   ; qtot 0.649270
 2770         c3    104    ccc     C5   2770 0.32403300  12.010000   ; qtot 0.973303
 2771         h1    104    ccc     H3   2771 0.13386900   1.008000   ; qtot 1.107172
 2772         h1    104    ccc     H4   2772 0.10146700   1.008000   ; qtot 1.208639
 2773         h2    104    ccc     H5   2773 0.10960400   1.008000   ; qtot 1.318243
 2774         os    104    ccc     O1   2774 -0.28650000  16.000000   ; qtot 1.031743
 2775         oh    104    ccc     O2   2775 -0.86012500  16.000000   ; qtot 0.171618
 2776         oh    104    ccc     O3   2776 -0.83772800  16.000000   ; qtot -0.666110
 2777         oh    104    ccc     O4   2777 -0.77449700  16.000000   ; qtot -1.440607
 2778         c3    104    ccc     C6   2778 0.37576500  12.010000   ; qtot -1.064842
 2779         ho    104    ccc     H6   2779 0.53656000   1.008000   ; qtot -0.528282
 2780         ho    104    ccc     H7   2780 0.49492100   1.008000   ; qtot -0.033361
 2781         ho    104    ccc     H8   2781 0.51297200   1.008000   ; qtot 0.479611
 2782         h1    104    ccc     H9   2782 0.05653400   1.008000   ; qtot 0.536145
 2783         h1    104    ccc    H10   2783 0.05653400   1.008000   ; qtot 0.592679
 2784         oh    104    ccc     O5   2784 -0.84113600  16.000000   ; qtot -0.248457
 2785         ho    104    ccc    H11   2785 0.51201600   1.008000   ; qtot 0.263559
 2786         os    104    ccc     O6   2786 -0.26013600  16.000000   ; qtot 0.003423
; residue  105 ccc rtp ccc q 0.0
 2787         c3    105    ccc     C1   2787 -0.33178800  12.010000   ; qtot -0.328365
 2788         c3    105    ccc     C2   2788 0.30606500  12.010000   ; qtot -0.022300
 2789         h1    105    ccc     H1   2789 0.11662300   1.008000   ; qtot 0.094323
 2790         h1    105    ccc     H2   2790 0.11526800   1.008000   ; qtot 0.209591
 2791         c3    105    ccc     C3   2791 0.15592700  12.010000   ; qtot 0.365518
 2792         c3    105    ccc     C4   2792 0.28383300  12.010000   ; qtot 0.649351
 2793         c3    105    ccc     C5   2793 0.32403300  12.010000   ; qtot 0.973384
 2794         h1    105    ccc     H3   2794 0.13386900   1.008000   ; qtot 1.107253
 2795         h1    105    ccc     H4   2795 0.10146700   1.008000   ; qtot 1.208720
 2796         h2    105    ccc     H5   2796 0.10960400   1.008000   ; qtot 1.318324
 2797         os    105    ccc     O1   2797 -0.28650000  16.000000   ; qtot 1.031824
 2798         oh    105    ccc     O2   2798 -0.86012500  16.000000   ; qtot 0.171699
 2799         oh    105    ccc     O3   2799 -0.83772800  16.000000   ; qtot -0.666029
 2800         oh    105    ccc     O4   2800 -0.77449700  16.000000   ; qtot -1.440526
 2801         c3    105    ccc     C6   2801 0.37576500  12.010000   ; qtot -1.064761
 2802         ho    105    ccc     H6   2802 0.53656000   1.008000   ; qtot -0.528201
 2803         ho    105    ccc     H7   2803 0.49492100   1.008000   ; qtot -0.033280
 2804         ho    105    ccc     H8   2804 0.51297200   1.008000   ; qtot 0.479692
 2805         h1    105    ccc     H9   2805 0.05653400   1.008000   ; qtot 0.536226
 2806         h1    105    ccc    H10   2806 0.05653400   1.008000   ; qtot 0.592760
 2807         oh    105    ccc     O5   2807 -0.84113600  16.000000   ; qtot -0.248376
 2808         ho    105    ccc    H11   2808 0.51201600   1.008000   ; qtot 0.263640
 2809         os    105    ccc     O6   2809 -0.26013600  16.000000   ; qtot 0.003504
; residue  106 ccc rtp ccc q 0.0
 2810         c3    106    ccc     C1   2810 -0.33178800  12.010000   ; qtot -0.328284
 2811         c3    106    ccc     C2   2811 0.30606500  12.010000   ; qtot -0.022219
 2812         h1    106    ccc     H1   2812 0.11662300   1.008000   ; qtot 0.094404
 2813         h1    106    ccc     H2   2813 0.11526800   1.008000   ; qtot 0.209672
 2814         c3    106    ccc     C3   2814 0.15592700  12.010000   ; qtot 0.365599
 2815         c3    106    ccc     C4   2815 0.28383300  12.010000   ; qtot 0.649432
 2816         c3    106    ccc     C5   2816 0.32403300  12.010000   ; qtot 0.973465
 2817         h1    106    ccc     H3   2817 0.13386900   1.008000   ; qtot 1.107334
 2818         h1    106    ccc     H4   2818 0.10146700   1.008000   ; qtot 1.208801
 2819         h2    106    ccc     H5   2819 0.10960400   1.008000   ; qtot 1.318405
 2820         os    106    ccc     O1   2820 -0.28650000  16.000000   ; qtot 1.031905
 2821         oh    106    ccc     O2   2821 -0.86012500  16.000000   ; qtot 0.171780
 2822         oh    106    ccc     O3   2822 -0.83772800  16.000000   ; qtot -0.665948
 2823         oh    106    ccc     O4   2823 -0.77449700  16.000000   ; qtot -1.440445
 2824         c3    106    ccc     C6   2824 0.37576500  12.010000   ; qtot -1.064680
 2825         ho    106    ccc     H6   2825 0.53656000   1.008000   ; qtot -0.528120
 2826         ho    106    ccc     H7   2826 0.49492100   1.008000   ; qtot -0.033199
 2827         ho    106    ccc     H8   2827 0.51297200   1.008000   ; qtot 0.479773
 2828         h1    106    ccc     H9   2828 0.05653400   1.008000   ; qtot 0.536307
 2829         h1    106    ccc    H10   2829 0.05653400   1.008000   ; qtot 0.592841
 2830         oh    106    ccc     O5   2830 -0.84113600  16.000000   ; qtot -0.248295
 2831         ho    106    ccc    H11   2831 0.51201600   1.008000   ; qtot 0.263721
 2832         os    106    ccc     O6   2832 -0.26013600  16.000000   ; qtot 0.003585
; residue  107 ccc rtp ccc q 0.0
 2833         c3    107    ccc     C1   2833 -0.33178800  12.010000   ; qtot -0.328203
 2834         c3    107    ccc     C2   2834 0.30606500  12.010000   ; qtot -0.022138
 2835         h1    107    ccc     H1   2835 0.11662300   1.008000   ; qtot 0.094485
 2836         h1    107    ccc     H2   2836 0.11526800   1.008000   ; qtot 0.209753
 2837         c3    107    ccc     C3   2837 0.15592700  12.010000   ; qtot 0.365680
 2838         c3    107    ccc     C4   2838 0.28383300  12.010000   ; qtot 0.649513
 2839         c3    107    ccc     C5   2839 0.32403300  12.010000   ; qtot 0.973546
 2840         h1    107    ccc     H3   2840 0.13386900   1.008000   ; qtot 1.107415
 2841         h1    107    ccc     H4   2841 0.10146700   1.008000   ; qtot 1.208882
 2842         h2    107    ccc     H5   2842 0.10960400   1.008000   ; qtot 1.318486
 2843         os    107    ccc     O1   2843 -0.28650000  16.000000   ; qtot 1.031986
 2844         oh    107    ccc     O2   2844 -0.86012500  16.000000   ; qtot 0.171861
 2845         oh    107    ccc     O3   2845 -0.83772800  16.000000   ; qtot -0.665867
 2846         oh    107    ccc     O4   2846 -0.77449700  16.000000   ; qtot -1.440364
 2847         c3    107    ccc     C6   2847 0.37576500  12.010000   ; qtot -1.064599
 2848         ho    107    ccc     H6   2848 0.53656000   1.008000   ; qtot -0.528039
 2849         ho    107    ccc     H7   2849 0.49492100   1.008000   ; qtot -0.033118
 2850         ho    107    ccc     H8   2850 0.51297200   1.008000   ; qtot 0.479854
 2851         h1    107    ccc     H9   2851 0.05653400   1.008000   ; qtot 0.536388
 2852         h1    107    ccc    H10   2852 0.05653400   1.008000   ; qtot 0.592922
 2853         oh    107    ccc     O5   2853 -0.84113600  16.000000   ; qtot -0.248214
 2854         ho    107    ccc    H11   2854 0.51201600   1.008000   ; qtot 0.263802
 2855         os    107    ccc     O6   2855 -0.26013600  16.000000   ; qtot 0.003666
; residue  108 ccc rtp ccc q 0.0
 2856         c3    108    ccc     C1   2856 -0.33178800  12.010000   ; qtot -0.328122
 2857         c3    108    ccc     C2   2857 0.30606500  12.010000   ; qtot -0.022057
 2858         h1    108    ccc     H1   2858 0.11662300   1.008000   ; qtot 0.094566
 2859         h1    108    ccc     H2   2859 0.11526800   1.008000   ; qtot 0.209834
 2860         c3    108    ccc     C3   2860 0.15592700  12.010000   ; qtot 0.365761
 2861         c3    108    ccc     C4   2861 0.28383300  12.010000   ; qtot 0.649594
 2862         c3    108    ccc     C5   2862 0.32403300  12.010000   ; qtot 0.973627
 2863         h1    108    ccc     H3   2863 0.13386900   1.008000   ; qtot 1.107496
 2864         h1    108    ccc     H4   2864 0.10146700   1.008000   ; qtot 1.208963
 2865         h2    108    ccc     H5   2865 0.10960400   1.008000   ; qtot 1.318567
 2866         os    108    ccc     O1   2866 -0.28650000  16.000000   ; qtot 1.032067
 2867         oh    108    ccc     O2   2867 -0.86012500  16.000000   ; qtot 0.171942
 2868         oh    108    ccc     O3   2868 -0.83772800  16.000000   ; qtot -0.665786
 2869         oh    108    ccc     O4   2869 -0.77449700  16.000000   ; qtot -1.440283
 2870         c3    108    ccc     C6   2870 0.37576500  12.010000   ; qtot -1.064518
 2871         ho    108    ccc     H6   2871 0.53656000   1.008000   ; qtot -0.527958
 2872         ho    108    ccc     H7   2872 0.49492100   1.008000   ; qtot -0.033037
 2873         ho    108    ccc     H8   2873 0.51297200   1.008000   ; qtot 0.479935
 2874         h1    108    ccc     H9   2874 0.05653400   1.008000   ; qtot 0.536469
 2875         h1    108    ccc    H10   2875 0.05653400   1.008000   ; qtot 0.593003
 2876         oh    108    ccc     O5   2876 -0.84113600  16.000000   ; qtot -0.248133
 2877         ho    108    ccc    H11   2877 0.51201600   1.008000   ; qtot 0.263883
 2878         os    108    ccc     O6   2878 -0.26013600  16.000000   ; qtot 0.003747
; residue  109 ccc rtp ccc q 0.0
 2879         c3    109    ccc     C1   2879 -0.33178800  12.010000   ; qtot -0.328041
 2880         c3    109    ccc     C2   2880 0.30606500  12.010000   ; qtot -0.021976
 2881         h1    109    ccc     H1   2881 0.11662300   1.008000   ; qtot 0.094647
 2882         h1    109    ccc     H2   2882 0.11526800   1.008000   ; qtot 0.209915
 2883         c3    109    ccc     C3   2883 0.15592700  12.010000   ; qtot 0.365842
 2884         c3    109    ccc     C4   2884 0.28383300  12.010000   ; qtot 0.649675
 2885         c3    109    ccc     C5   2885 0.32403300  12.010000   ; qtot 0.973708
 2886         h1    109    ccc     H3   2886 0.13386900   1.008000   ; qtot 1.107577
 2887         h1    109    ccc     H4   2887 0.10146700   1.008000   ; qtot 1.209044
 2888         h2    109    ccc     H5   2888 0.10960400   1.008000   ; qtot 1.318648
 2889         os    109    ccc     O1   2889 -0.28650000  16.000000   ; qtot 1.032148
 2890         oh    109    ccc     O2   2890 -0.86012500  16.000000   ; qtot 0.172023
 2891         oh    109    ccc     O3   2891 -0.83772800  16.000000   ; qtot -0.665705
 2892         oh    109    ccc     O4   2892 -0.77449700  16.000000   ; qtot -1.440202
 2893         c3    109    ccc     C6   2893 0.37576500  12.010000   ; qtot -1.064437
 2894         ho    109    ccc     H6   2894 0.53656000   1.008000   ; qtot -0.527877
 2895         ho    109    ccc     H7   2895 0.49492100   1.008000   ; qtot -0.032956
 2896         ho    109    ccc     H8   2896 0.51297200   1.008000   ; qtot 0.480016
 2897         h1    109    ccc     H9   2897 0.05653400   1.008000   ; qtot 0.536550
 2898         h1    109    ccc    H10   2898 0.05653400   1.008000   ; qtot 0.593084
 2899         oh    109    ccc     O5   2899 -0.84113600  16.000000   ; qtot -0.248052
 2900         ho    109    ccc    H11   2900 0.51201600   1.008000   ; qtot 0.263964
 2901         os    109    ccc     O6   2901 -0.26013600  16.000000   ; qtot 0.003828
; residue  110 ccc rtp ccc q 0.0
 2902         c3    110    ccc     C1   2902 -0.33178800  12.010000   ; qtot -0.327960
 2903         c3    110    ccc     C2   2903 0.30606500  12.010000   ; qtot -0.021895
 2904         h1    110    ccc     H1   2904 0.11662300   1.008000   ; qtot 0.094728
 2905         h1    110    ccc     H2   2905 0.11526800   1.008000   ; qtot 0.209996
 2906         c3    110    ccc     C3   2906 0.15592700  12.010000   ; qtot 0.365923
 2907         c3    110    ccc     C4   2907 0.28383300  12.010000   ; qtot 0.649756
 2908         c3    110    ccc     C5   2908 0.32403300  12.010000   ; qtot 0.973789
 2909         h1    110    ccc     H3   2909 0.13386900   1.008000   ; qtot 1.107658
 2910         h1    110    ccc     H4   2910 0.10146700   1.008000   ; qtot 1.209125
 2911         h2    110    ccc     H5   2911 0.10960400   1.008000   ; qtot 1.318729
 2912         os    110    ccc     O1   2912 -0.28650000  16.000000   ; qtot 1.032229
 2913         oh    110    ccc     O2   2913 -0.86012500  16.000000   ; qtot 0.172104
 2914         oh    110    ccc     O3   2914 -0.83772800  16.000000   ; qtot -0.665624
 2915         oh    110    ccc     O4   2915 -0.77449700  16.000000   ; qtot -1.440121
 2916         c3    110    ccc     C6   2916 0.37576500  12.010000   ; qtot -1.064356
 2917         ho    110    ccc     H6   2917 0.53656000   1.008000   ; qtot -0.527796
 2918         ho    110    ccc     H7   2918 0.49492100   1.008000   ; qtot -0.032875
 2919         ho    110    ccc     H8   2919 0.51297200   1.008000   ; qtot 0.480097
 2920         h1    110    ccc     H9   2920 0.05653400   1.008000   ; qtot 0.536631
 2921         h1    110    ccc    H10   2921 0.05653400   1.008000   ; qtot 0.593165
 2922         oh    110    ccc     O5   2922 -0.84113600  16.000000   ; qtot -0.247971
 2923         ho    110    ccc    H11   2923 0.51201600   1.008000   ; qtot 0.264045
 2924         os    110    ccc     O6   2924 -0.26013600  16.000000   ; qtot 0.003909
; residue  111 ccc rtp ccc q 0.0
 2925         c3    111    ccc     C1   2925 -0.33178800  12.010000   ; qtot -0.327879
 2926         c3    111    ccc     C2   2926 0.30606500  12.010000   ; qtot -0.021814
 2927         h1    111    ccc     H1   2927 0.11662300   1.008000   ; qtot 0.094809
 2928         h1    111    ccc     H2   2928 0.11526800   1.008000   ; qtot 0.210077
 2929         c3    111    ccc     C3   2929 0.15592700  12.010000   ; qtot 0.366004
 2930         c3    111    ccc     C4   2930 0.28383300  12.010000   ; qtot 0.649837
 2931         c3    111    ccc     C5   2931 0.32403300  12.010000   ; qtot 0.973870
 2932         h1    111    ccc     H3   2932 0.13386900   1.008000   ; qtot 1.107739
 2933         h1    111    ccc     H4   2933 0.10146700   1.008000   ; qtot 1.209206
 2934         h2    111    ccc     H5   2934 0.10960400   1.008000   ; qtot 1.318810
 2935         os    111    ccc     O1   2935 -0.28650000  16.000000   ; qtot 1.032310
 2936         oh    111    ccc     O2   2936 -0.86012500  16.000000   ; qtot 0.172185
 2937         oh    111    ccc     O3   2937 -0.83772800  16.000000   ; qtot -0.665543
 2938         oh    111    ccc     O4   2938 -0.77449700  16.000000   ; qtot -1.440040
 2939         c3    111    ccc     C6   2939 0.37576500  12.010000   ; qtot -1.064275
 2940         ho    111    ccc     H6   2940 0.53656000   1.008000   ; qtot -0.527715
 2941         ho    111    ccc     H7   2941 0.49492100   1.008000   ; qtot -0.032794
 2942         ho    111    ccc     H8   2942 0.51297200   1.008000   ; qtot 0.480178
 2943         h1    111    ccc     H9   2943 0.05653400   1.008000   ; qtot 0.536712
 2944         h1    111    ccc    H10   2944 0.05653400   1.008000   ; qtot 0.593246
 2945         oh    111    ccc     O5   2945 -0.84113600  16.000000   ; qtot -0.247890
 2946         ho    111    ccc    H11   2946 0.51201600   1.008000   ; qtot 0.264126
 2947         os    111    ccc     O6   2947 -0.26013600  16.000000   ; qtot 0.003990
; residue  112 ccc rtp ccc q 0.0
 2948         c3    112    ccc     C1   2948 -0.33178800  12.010000   ; qtot -0.327798
 2949         c3    112    ccc     C2   2949 0.30606500  12.010000   ; qtot -0.021733
 2950         h1    112    ccc     H1   2950 0.11662300   1.008000   ; qtot 0.094890
 2951         h1    112    ccc     H2   2951 0.11526800   1.008000   ; qtot 0.210158
 2952         c3    112    ccc     C3   2952 0.15592700  12.010000   ; qtot 0.366085
 2953         c3    112    ccc     C4   2953 0.28383300  12.010000   ; qtot 0.649918
 2954         c3    112    ccc     C5   2954 0.32403300  12.010000   ; qtot 0.973951
 2955         h1    112    ccc     H3   2955 0.13386900   1.008000   ; qtot 1.107820
 2956         h1    112    ccc     H4   2956 0.10146700   1.008000   ; qtot 1.209287
 2957         h2    112    ccc     H5   2957 0.10960400   1.008000   ; qtot 1.318891
 2958         os    112    ccc     O1   2958 -0.28650000  16.000000   ; qtot 1.032391
 2959         oh    112    ccc     O2   2959 -0.86012500  16.000000   ; qtot 0.172266
 2960         oh    112    ccc     O3   2960 -0.83772800  16.000000   ; qtot -0.665462
 2961         oh    112    ccc     O4   2961 -0.77449700  16.000000   ; qtot -1.439959
 2962         c3    112    ccc     C6   2962 0.37576500  12.010000   ; qtot -1.064194
 2963         ho    112    ccc     H6   2963 0.53656000   1.008000   ; qtot -0.527634
 2964         ho    112    ccc     H7   2964 0.49492100   1.008000   ; qtot -0.032713
 2965         ho    112    ccc     H8   2965 0.51297200   1.008000   ; qtot 0.480259
 2966         h1    112    ccc     H9   2966 0.05653400   1.008000   ; qtot 0.536793
 2967         h1    112    ccc    H10   2967 0.05653400   1.008000   ; qtot 0.593327
 2968         oh    112    ccc     O5   2968 -0.84113600  16.000000   ; qtot -0.247809
 2969         ho    112    ccc    H11   2969 0.51201600   1.008000   ; qtot 0.264207
 2970         os    112    ccc     O6   2970 -0.26013600  16.000000   ; qtot 0.004071
; residue  113 ccc rtp ccc q 0.0
 2971         c3    113    ccc     C1   2971 -0.33178800  12.010000   ; qtot -0.327717
 2972         c3    113    ccc     C2   2972 0.30606500  12.010000   ; qtot -0.021652
 2973         h1    113    ccc     H1   2973 0.11662300   1.008000   ; qtot 0.094971
 2974         h1    113    ccc     H2   2974 0.11526800   1.008000   ; qtot 0.210239
 2975         c3    113    ccc     C3   2975 0.15592700  12.010000   ; qtot 0.366166
 2976         c3    113    ccc     C4   2976 0.28383300  12.010000   ; qtot 0.649999
 2977         c3    113    ccc     C5   2977 0.32403300  12.010000   ; qtot 0.974032
 2978         h1    113    ccc     H3   2978 0.13386900   1.008000   ; qtot 1.107901
 2979         h1    113    ccc     H4   2979 0.10146700   1.008000   ; qtot 1.209368
 2980         h2    113    ccc     H5   2980 0.10960400   1.008000   ; qtot 1.318972
 2981         os    113    ccc     O1   2981 -0.28650000  16.000000   ; qtot 1.032472
 2982         oh    113    ccc     O2   2982 -0.86012500  16.000000   ; qtot 0.172347
 2983         oh    113    ccc     O3   2983 -0.83772800  16.000000   ; qtot -0.665381
 2984         oh    113    ccc     O4   2984 -0.77449700  16.000000   ; qtot -1.439878
 2985         c3    113    ccc     C6   2985 0.37576500  12.010000   ; qtot -1.064113
 2986         ho    113    ccc     H6   2986 0.53656000   1.008000   ; qtot -0.527553
 2987         ho    113    ccc     H7   2987 0.49492100   1.008000   ; qtot -0.032632
 2988         ho    113    ccc     H8   2988 0.51297200   1.008000   ; qtot 0.480340
 2989         h1    113    ccc     H9   2989 0.05653400   1.008000   ; qtot 0.536874
 2990         h1    113    ccc    H10   2990 0.05653400   1.008000   ; qtot 0.593408
 2991         oh    113    ccc     O5   2991 -0.84113600  16.000000   ; qtot -0.247728
 2992         ho    113    ccc    H11   2992 0.51201600   1.008000   ; qtot 0.264288
 2993         os    113    ccc     O6   2993 -0.26013600  16.000000   ; qtot 0.004152
; residue  114 ccc rtp ccc q 0.0
 2994         c3    114    ccc     C1   2994 -0.33178800  12.010000   ; qtot -0.327636
 2995         c3    114    ccc     C2   2995 0.30606500  12.010000   ; qtot -0.021571
 2996         h1    114    ccc     H1   2996 0.11662300   1.008000   ; qtot 0.095052
 2997         h1    114    ccc     H2   2997 0.11526800   1.008000   ; qtot 0.210320
 2998         c3    114    ccc     C3   2998 0.15592700  12.010000   ; qtot 0.366247
 2999         c3    114    ccc     C4   2999 0.28383300  12.010000   ; qtot 0.650080
 3000         c3    114    ccc     C5   3000 0.32403300  12.010000   ; qtot 0.974113
 3001         h1    114    ccc     H3   3001 0.13386900   1.008000   ; qtot 1.107982
 3002         h1    114    ccc     H4   3002 0.10146700   1.008000   ; qtot 1.209449
 3003         h2    114    ccc     H5   3003 0.10960400   1.008000   ; qtot 1.319053
 3004         os    114    ccc     O1   3004 -0.28650000  16.000000   ; qtot 1.032553
 3005         oh    114    ccc     O2   3005 -0.86012500  16.000000   ; qtot 0.172428
 3006         oh    114    ccc     O3   3006 -0.83772800  16.000000   ; qtot -0.665300
 3007         oh    114    ccc     O4   3007 -0.77449700  16.000000   ; qtot -1.439797
 3008         c3    114    ccc     C6   3008 0.37576500  12.010000   ; qtot -1.064032
 3009         ho    114    ccc     H6   3009 0.53656000   1.008000   ; qtot -0.527472
 3010         ho    114    ccc     H7   3010 0.49492100   1.008000   ; qtot -0.032551
 3011         ho    114    ccc     H8   3011 0.51297200   1.008000   ; qtot 0.480421
 3012         h1    114    ccc     H9   3012 0.05653400   1.008000   ; qtot 0.536955
 3013         h1    114    ccc    H10   3013 0.05653400   1.008000   ; qtot 0.593489
 3014         oh    114    ccc     O5   3014 -0.84113600  16.000000   ; qtot -0.247647
 3015         ho    114    ccc    H11   3015 0.51201600   1.008000   ; qtot 0.264369
 3016         os    114    ccc     O6   3016 -0.26013600  16.000000   ; qtot 0.004233
; residue  115 ccc rtp ccc q 0.0
 3017         c3    115    ccc     C1   3017 -0.33178800  12.010000   ; qtot -0.327555
 3018         c3    115    ccc     C2   3018 0.30606500  12.010000   ; qtot -0.021490
 3019         h1    115    ccc     H1   3019 0.11662300   1.008000   ; qtot 0.095133
 3020         h1    115    ccc     H2   3020 0.11526800   1.008000   ; qtot 0.210401
 3021         c3    115    ccc     C3   3021 0.15592700  12.010000   ; qtot 0.366328
 3022         c3    115    ccc     C4   3022 0.28383300  12.010000   ; qtot 0.650161
 3023         c3    115    ccc     C5   3023 0.32403300  12.010000   ; qtot 0.974194
 3024         h1    115    ccc     H3   3024 0.13386900   1.008000   ; qtot 1.108063
 3025         h1    115    ccc     H4   3025 0.10146700   1.008000   ; qtot 1.209530
 3026         h2    115    ccc     H5   3026 0.10960400   1.008000   ; qtot 1.319134
 3027         os    115    ccc     O1   3027 -0.28650000  16.000000   ; qtot 1.032634
 3028         oh    115    ccc     O2   3028 -0.86012500  16.000000   ; qtot 0.172509
 3029         oh    115    ccc     O3   3029 -0.83772800  16.000000   ; qtot -0.665219
 3030         oh    115    ccc     O4   3030 -0.77449700  16.000000   ; qtot -1.439716
 3031         c3    115    ccc     C6   3031 0.37576500  12.010000   ; qtot -1.063951
 3032         ho    115    ccc     H6   3032 0.53656000   1.008000   ; qtot -0.527391
 3033         ho    115    ccc     H7   3033 0.49492100   1.008000   ; qtot -0.032470
 3034         ho    115    ccc     H8   3034 0.51297200   1.008000   ; qtot 0.480502
 3035         h1    115    ccc     H9   3035 0.05653400   1.008000   ; qtot 0.537036
 3036         h1    115    ccc    H10   3036 0.05653400   1.008000   ; qtot 0.593570
 3037         oh    115    ccc     O5   3037 -0.84113600  16.000000   ; qtot -0.247566
 3038         ho    115    ccc    H11   3038 0.51201600   1.008000   ; qtot 0.264450
 3039         os    115    ccc     O6   3039 -0.26013600  16.000000   ; qtot 0.004314
; residue  116 ccc rtp ccc q 0.0
 3040         c3    116    ccc     C1   3040 -0.33178800  12.010000   ; qtot -0.327474
 3041         c3    116    ccc     C2   3041 0.30606500  12.010000   ; qtot -0.021409
 3042         h1    116    ccc     H1   3042 0.11662300   1.008000   ; qtot 0.095214
 3043         h1    116    ccc     H2   3043 0.11526800   1.008000   ; qtot 0.210482
 3044         c3    116    ccc     C3   3044 0.15592700  12.010000   ; qtot 0.366409
 3045         c3    116    ccc     C4   3045 0.28383300  12.010000   ; qtot 0.650242
 3046         c3    116    ccc     C5   3046 0.32403300  12.010000   ; qtot 0.974275
 3047         h1    116    ccc     H3   3047 0.13386900   1.008000   ; qtot 1.108144
 3048         h1    116    ccc     H4   3048 0.10146700   1.008000   ; qtot 1.209611
 3049         h2    116    ccc     H5   3049 0.10960400   1.008000   ; qtot 1.319215
 3050         os    116    ccc     O1   3050 -0.28650000  16.000000   ; qtot 1.032715
 3051         oh    116    ccc     O2   3051 -0.86012500  16.000000   ; qtot 0.172590
 3052         oh    116    ccc     O3   3052 -0.83772800  16.000000   ; qtot -0.665138
 3053         oh    116    ccc     O4   3053 -0.77449700  16.000000   ; qtot -1.439635
 3054         c3    116    ccc     C6   3054 0.37576500  12.010000   ; qtot -1.063870
 3055         ho    116    ccc     H6   3055 0.53656000   1.008000   ; qtot -0.527310
 3056         ho    116    ccc     H7   3056 0.49492100   1.008000   ; qtot -0.032389
 3057         ho    116    ccc     H8   3057 0.51297200   1.008000   ; qtot 0.480583
 3058         h1    116    ccc     H9   3058 0.05653400   1.008000   ; qtot 0.537117
 3059         h1    116    ccc    H10   3059 0.05653400   1.008000   ; qtot 0.593651
 3060         oh    116    ccc     O5   3060 -0.84113600  16.000000   ; qtot -0.247485
 3061         ho    116    ccc    H11   3061 0.51201600   1.008000   ; qtot 0.264531
 3062         os    116    ccc     O6   3062 -0.26013600  16.000000   ; qtot 0.004395
; residue  117 ccc rtp ccc q 0.0
 3063         c3    117    ccc     C1   3063 -0.33178800  12.010000   ; qtot -0.327393
 3064         c3    117    ccc     C2   3064 0.30606500  12.010000   ; qtot -0.021328
 3065         h1    117    ccc     H1   3065 0.11662300   1.008000   ; qtot 0.095295
 3066         h1    117    ccc     H2   3066 0.11526800   1.008000   ; qtot 0.210563
 3067         c3    117    ccc     C3   3067 0.15592700  12.010000   ; qtot 0.366490
 3068         c3    117    ccc     C4   3068 0.28383300  12.010000   ; qtot 0.650323
 3069         c3    117    ccc     C5   3069 0.32403300  12.010000   ; qtot 0.974356
 3070         h1    117    ccc     H3   3070 0.13386900   1.008000   ; qtot 1.108225
 3071         h1    117    ccc     H4   3071 0.10146700   1.008000   ; qtot 1.209692
 3072         h2    117    ccc     H5   3072 0.10960400   1.008000   ; qtot 1.319296
 3073         os    117    ccc     O1   3073 -0.28650000  16.000000   ; qtot 1.032796
 3074         oh    117    ccc     O2   3074 -0.86012500  16.000000   ; qtot 0.172671
 3075         oh    117    ccc     O3   3075 -0.83772800  16.000000   ; qtot -0.665057
 3076         oh    117    ccc     O4   3076 -0.77449700  16.000000   ; qtot -1.439554
 3077         c3    117    ccc     C6   3077 0.37576500  12.010000   ; qtot -1.063789
 3078         ho    117    ccc     H6   3078 0.53656000   1.008000   ; qtot -0.527229
 3079         ho    117    ccc     H7   3079 0.49492100   1.008000   ; qtot -0.032308
 3080         ho    117    ccc     H8   3080 0.51297200   1.008000   ; qtot 0.480664
 3081         h1    117    ccc     H9   3081 0.05653400   1.008000   ; qtot 0.537198
 3082         h1    117    ccc    H10   3082 0.05653400   1.008000   ; qtot 0.593732
 3083         oh    117    ccc     O5   3083 -0.84113600  16.000000   ; qtot -0.247404
 3084         ho    117    ccc    H11   3084 0.51201600   1.008000   ; qtot 0.264612
 3085         os    117    ccc     O6   3085 -0.26013600  16.000000   ; qtot 0.004476
; residue  118 ccc rtp ccc q 0.0
 3086         c3    118    ccc     C1   3086 -0.33178800  12.010000   ; qtot -0.327312
 3087         c3    118    ccc     C2   3087 0.30606500  12.010000   ; qtot -0.021247
 3088         h1    118    ccc     H1   3088 0.11662300   1.008000   ; qtot 0.095376
 3089         h1    118    ccc     H2   3089 0.11526800   1.008000   ; qtot 0.210644
 3090         c3    118    ccc     C3   3090 0.15592700  12.010000   ; qtot 0.366571
 3091         c3    118    ccc     C4   3091 0.28383300  12.010000   ; qtot 0.650404
 3092         c3    118    ccc     C5   3092 0.32403300  12.010000   ; qtot 0.974437
 3093         h1    118    ccc     H3   3093 0.13386900   1.008000   ; qtot 1.108306
 3094         h1    118    ccc     H4   3094 0.10146700   1.008000   ; qtot 1.209773
 3095         h2    118    ccc     H5   3095 0.10960400   1.008000   ; qtot 1.319377
 3096         os    118    ccc     O1   3096 -0.28650000  16.000000   ; qtot 1.032877
 3097         oh    118    ccc     O2   3097 -0.86012500  16.000000   ; qtot 0.172752
 3098         oh    118    ccc     O3   3098 -0.83772800  16.000000   ; qtot -0.664976
 3099         oh    118    ccc     O4   3099 -0.77449700  16.000000   ; qtot -1.439473
 3100         c3    118    ccc     C6   3100 0.37576500  12.010000   ; qtot -1.063708
 3101         ho    118    ccc     H6   3101 0.53656000   1.008000   ; qtot -0.527148
 3102         ho    118    ccc     H7   3102 0.49492100   1.008000   ; qtot -0.032227
 3103         ho    118    ccc     H8   3103 0.51297200   1.008000   ; qtot 0.480745
 3104         h1    118    ccc     H9   3104 0.05653400   1.008000   ; qtot 0.537279
 3105         h1    118    ccc    H10   3105 0.05653400   1.008000   ; qtot 0.593813
 3106         oh    118    ccc     O5   3106 -0.84113600  16.000000   ; qtot -0.247323
 3107         ho    118    ccc    H11   3107 0.51201600   1.008000   ; qtot 0.264693
 3108         os    118    ccc     O6   3108 -0.26013600  16.000000   ; qtot 0.004557
; residue  119 ccc rtp ccc q 0.0
 3109         c3    119    ccc     C1   3109 -0.33178800  12.010000   ; qtot -0.327231
 3110         c3    119    ccc     C2   3110 0.30606500  12.010000   ; qtot -0.021166
 3111         h1    119    ccc     H1   3111 0.11662300   1.008000   ; qtot 0.095457
 3112         h1    119    ccc     H2   3112 0.11526800   1.008000   ; qtot 0.210725
 3113         c3    119    ccc     C3   3113 0.15592700  12.010000   ; qtot 0.366652
 3114         c3    119    ccc     C4   3114 0.28383300  12.010000   ; qtot 0.650485
 3115         c3    119    ccc     C5   3115 0.32403300  12.010000   ; qtot 0.974518
 3116         h1    119    ccc     H3   3116 0.13386900   1.008000   ; qtot 1.108387
 3117         h1    119    ccc     H4   3117 0.10146700   1.008000   ; qtot 1.209854
 3118         h2    119    ccc     H5   3118 0.10960400   1.008000   ; qtot 1.319458
 3119         os    119    ccc     O1   3119 -0.28650000  16.000000   ; qtot 1.032958
 3120         oh    119    ccc     O2   3120 -0.86012500  16.000000   ; qtot 0.172833
 3121         oh    119    ccc     O3   3121 -0.83772800  16.000000   ; qtot -0.664895
 3122         oh    119    ccc     O4   3122 -0.77449700  16.000000   ; qtot -1.439392
 3123         c3    119    ccc     C6   3123 0.37576500  12.010000   ; qtot -1.063627
 3124         ho    119    ccc     H6   3124 0.53656000   1.008000   ; qtot -0.527067
 3125         ho    119    ccc     H7   3125 0.49492100   1.008000   ; qtot -0.032146
 3126         ho    119    ccc     H8   3126 0.51297200   1.008000   ; qtot 0.480826
 3127         h1    119    ccc     H9   3127 0.05653400   1.008000   ; qtot 0.537360
 3128         h1    119    ccc    H10   3128 0.05653400   1.008000   ; qtot 0.593894
 3129         oh    119    ccc     O5   3129 -0.84113600  16.000000   ; qtot -0.247242
 3130         ho    119    ccc    H11   3130 0.51201600   1.008000   ; qtot 0.264774
 3131         os    119    ccc     O6   3131 -0.26013600  16.000000   ; qtot 0.004638
; residue  120 ccc rtp ccc q 0.0
 3132         c3    120    ccc     C1   3132 -0.33178800  12.010000   ; qtot -0.327150
 3133         c3    120    ccc     C2   3133 0.30606500  12.010000   ; qtot -0.021085
 3134         h1    120    ccc     H1   3134 0.11662300   1.008000   ; qtot 0.095538
 3135         h1    120    ccc     H2   3135 0.11526800   1.008000   ; qtot 0.210806
 3136         c3    120    ccc     C3   3136 0.15592700  12.010000   ; qtot 0.366733
 3137         c3    120    ccc     C4   3137 0.28383300  12.010000   ; qtot 0.650566
 3138         c3    120    ccc     C5   3138 0.32403300  12.010000   ; qtot 0.974599
 3139         h1    120    ccc     H3   3139 0.13386900   1.008000   ; qtot 1.108468
 3140         h1    120    ccc     H4   3140 0.10146700   1.008000   ; qtot 1.209935
 3141         h2    120    ccc     H5   3141 0.10960400   1.008000   ; qtot 1.319539
 3142         os    120    ccc     O1   3142 -0.28650000  16.000000   ; qtot 1.033039
 3143         oh    120    ccc     O2   3143 -0.86012500  16.000000   ; qtot 0.172914
 3144         oh    120    ccc     O3   3144 -0.83772800  16.000000   ; qtot -0.664814
 3145         oh    120    ccc     O4   3145 -0.77449700  16.000000   ; qtot -1.439311
 3146         c3    120    ccc     C6   3146 0.37576500  12.010000   ; qtot -1.063546
 3147         ho    120    ccc     H6   3147 0.53656000   1.008000   ; qtot -0.526986
 3148         ho    120    ccc     H7   3148 0.49492100   1.008000   ; qtot -0.032065
 3149         ho    120    ccc     H8   3149 0.51297200   1.008000   ; qtot 0.480907
 3150         h1    120    ccc     H9   3150 0.05653400   1.008000   ; qtot 0.537441
 3151         h1    120    ccc    H10   3151 0.05653400   1.008000   ; qtot 0.593975
 3152         oh    120    ccc     O5   3152 -0.84113600  16.000000   ; qtot -0.247161
 3153         ho    120    ccc    H11   3153 0.51201600   1.008000   ; qtot 0.264855
 3154         os    120    ccc     O6   3154 -0.26013600  16.000000   ; qtot 0.004719
; residue  121 ccc rtp ccc q 0.0
 3155         c3    121    ccc     C1   3155 -0.33178800  12.010000   ; qtot -0.327069
 3156         c3    121    ccc     C2   3156 0.30606500  12.010000   ; qtot -0.021004
 3157         h1    121    ccc     H1   3157 0.11662300   1.008000   ; qtot 0.095619
 3158         h1    121    ccc     H2   3158 0.11526800   1.008000   ; qtot 0.210887
 3159         c3    121    ccc     C3   3159 0.15592700  12.010000   ; qtot 0.366814
 3160         c3    121    ccc     C4   3160 0.28383300  12.010000   ; qtot 0.650647
 3161         c3    121    ccc     C5   3161 0.32403300  12.010000   ; qtot 0.974680
 3162         h1    121    ccc     H3   3162 0.13386900   1.008000   ; qtot 1.108549
 3163         h1    121    ccc     H4   3163 0.10146700   1.008000   ; qtot 1.210016
 3164         h2    121    ccc     H5   3164 0.10960400   1.008000   ; qtot 1.319620
 3165         os    121    ccc     O1   3165 -0.28650000  16.000000   ; qtot 1.033120
 3166         oh    121    ccc     O2   3166 -0.86012500  16.000000   ; qtot 0.172995
 3167         oh    121    ccc     O3   3167 -0.83772800  16.000000   ; qtot -0.664733
 3168         oh    121    ccc     O4   3168 -0.77449700  16.000000   ; qtot -1.439230
 3169         c3    121    ccc     C6   3169 0.37576500  12.010000   ; qtot -1.063465
 3170         ho    121    ccc     H6   3170 0.53656000   1.008000   ; qtot -0.526905
 3171         ho    121    ccc     H7   3171 0.49492100   1.008000   ; qtot -0.031984
 3172         ho    121    ccc     H8   3172 0.51297200   1.008000   ; qtot 0.480988
 3173         h1    121    ccc     H9   3173 0.05653400   1.008000   ; qtot 0.537522
 3174         h1    121    ccc    H10   3174 0.05653400   1.008000   ; qtot 0.594056
 3175         oh    121    ccc     O5   3175 -0.84113600  16.000000   ; qtot -0.247080
 3176         ho    121    ccc    H11   3176 0.51201600   1.008000   ; qtot 0.264936
 3177         os    121    ccc     O6   3177 -0.26013600  16.000000   ; qtot 0.004800
; residue  122 ccc rtp ccc q 0.0
 3178         c3    122    ccc     C1   3178 -0.33178800  12.010000   ; qtot -0.326988
 3179         c3    122    ccc     C2   3179 0.30606500  12.010000   ; qtot -0.020923
 3180         h1    122    ccc     H1   3180 0.11662300   1.008000   ; qtot 0.095700
 3181         h1    122    ccc     H2   3181 0.11526800   1.008000   ; qtot 0.210968
 3182         c3    122    ccc     C3   3182 0.15592700  12.010000   ; qtot 0.366895
 3183         c3    122    ccc     C4   3183 0.28383300  12.010000   ; qtot 0.650728
 3184         c3    122    ccc     C5   3184 0.32403300  12.010000   ; qtot 0.974761
 3185         h1    122    ccc     H3   3185 0.13386900   1.008000   ; qtot 1.108630
 3186         h1    122    ccc     H4   3186 0.10146700   1.008000   ; qtot 1.210097
 3187         h2    122    ccc     H5   3187 0.10960400   1.008000   ; qtot 1.319701
 3188         os    122    ccc     O1   3188 -0.28650000  16.000000   ; qtot 1.033201
 3189         oh    122    ccc     O2   3189 -0.86012500  16.000000   ; qtot 0.173076
 3190         oh    122    ccc     O3   3190 -0.83772800  16.000000   ; qtot -0.664652
 3191         oh    122    ccc     O4   3191 -0.77449700  16.000000   ; qtot -1.439149
 3192         c3    122    ccc     C6   3192 0.37576500  12.010000   ; qtot -1.063384
 3193         ho    122    ccc     H6   3193 0.53656000   1.008000   ; qtot -0.526824
 3194         ho    122    ccc     H7   3194 0.49492100   1.008000   ; qtot -0.031903
 3195         ho    122    ccc     H8   3195 0.51297200   1.008000   ; qtot 0.481069
 3196         h1    122    ccc     H9   3196 0.05653400   1.008000   ; qtot 0.537603
 3197         h1    122    ccc    H10   3197 0.05653400   1.008000   ; qtot 0.594137
 3198         oh    122    ccc     O5   3198 -0.84113600  16.000000   ; qtot -0.246999
 3199         ho    122    ccc    H11   3199 0.51201600   1.008000   ; qtot 0.265017
 3200         os    122    ccc     O6   3200 -0.26013600  16.000000   ; qtot 0.004881
; residue  123 ccc rtp ccc q 0.0
 3201         c3    123    ccc     C1   3201 -0.33178800  12.010000   ; qtot -0.326907
 3202         c3    123    ccc     C2   3202 0.30606500  12.010000   ; qtot -0.020842
 3203         h1    123    ccc     H1   3203 0.11662300   1.008000   ; qtot 0.095781
 3204         h1    123    ccc     H2   3204 0.11526800   1.008000   ; qtot 0.211049
 3205         c3    123    ccc     C3   3205 0.15592700  12.010000   ; qtot 0.366976
 3206         c3    123    ccc     C4   3206 0.28383300  12.010000   ; qtot 0.650809
 3207         c3    123    ccc     C5   3207 0.32403300  12.010000   ; qtot 0.974842
 3208         h1    123    ccc     H3   3208 0.13386900   1.008000   ; qtot 1.108711
 3209         h1    123    ccc     H4   3209 0.10146700   1.008000   ; qtot 1.210178
 3210         h2    123    ccc     H5   3210 0.10960400   1.008000   ; qtot 1.319782
 3211         os    123    ccc     O1   3211 -0.28650000  16.000000   ; qtot 1.033282
 3212         oh    123    ccc     O2   3212 -0.86012500  16.000000   ; qtot 0.173157
 3213         oh    123    ccc     O3   3213 -0.83772800  16.000000   ; qtot -0.664571
 3214         oh    123    ccc     O4   3214 -0.77449700  16.000000   ; qtot -1.439068
 3215         c3    123    ccc     C6   3215 0.37576500  12.010000   ; qtot -1.063303
 3216         ho    123    ccc     H6   3216 0.53656000   1.008000   ; qtot -0.526743
 3217         ho    123    ccc     H7   3217 0.49492100   1.008000   ; qtot -0.031822
 3218         ho    123    ccc     H8   3218 0.51297200   1.008000   ; qtot 0.481150
 3219         h1    123    ccc     H9   3219 0.05653400   1.008000   ; qtot 0.537684
 3220         h1    123    ccc    H10   3220 0.05653400   1.008000   ; qtot 0.594218
 3221         oh    123    ccc     O5   3221 -0.84113600  16.000000   ; qtot -0.246918
 3222         ho    123    ccc    H11   3222 0.51201600   1.008000   ; qtot 0.265098
 3223         os    123    ccc     O6   3223 -0.26013600  16.000000   ; qtot 0.004962
; residue  124 ccc rtp ccc q 0.0
 3224         c3    124    ccc     C1   3224 -0.33178800  12.010000   ; qtot -0.326826
 3225         c3    124    ccc     C2   3225 0.30606500  12.010000   ; qtot -0.020761
 3226         h1    124    ccc     H1   3226 0.11662300   1.008000   ; qtot 0.095862
 3227         h1    124    ccc     H2   3227 0.11526800   1.008000   ; qtot 0.211130
 3228         c3    124    ccc     C3   3228 0.15592700  12.010000   ; qtot 0.367057
 3229         c3    124    ccc     C4   3229 0.28383300  12.010000   ; qtot 0.650890
 3230         c3    124    ccc     C5   3230 0.32403300  12.010000   ; qtot 0.974923
 3231         h1    124    ccc     H3   3231 0.13386900   1.008000   ; qtot 1.108792
 3232         h1    124    ccc     H4   3232 0.10146700   1.008000   ; qtot 1.210259
 3233         h2    124    ccc     H5   3233 0.10960400   1.008000   ; qtot 1.319863
 3234         os    124    ccc     O1   3234 -0.28650000  16.000000   ; qtot 1.033363
 3235         oh    124    ccc     O2   3235 -0.86012500  16.000000   ; qtot 0.173238
 3236         oh    124    ccc     O3   3236 -0.83772800  16.000000   ; qtot -0.664490
 3237         oh    124    ccc     O4   3237 -0.77449700  16.000000   ; qtot -1.438987
 3238         c3    124    ccc     C6   3238 0.37576500  12.010000   ; qtot -1.063222
 3239         ho    124    ccc     H6   3239 0.53656000   1.008000   ; qtot -0.526662
 3240         ho    124    ccc     H7   3240 0.49492100   1.008000   ; qtot -0.031741
 3241         ho    124    ccc     H8   3241 0.51297200   1.008000   ; qtot 0.481231
 3242         h1    124    ccc     H9   3242 0.05653400   1.008000   ; qtot 0.537765
 3243         h1    124    ccc    H10   3243 0.05653400   1.008000   ; qtot 0.594299
 3244         oh    124    ccc     O5   3244 -0.84113600  16.000000   ; qtot -0.246837
 3245         ho    124    ccc    H11   3245 0.51201600   1.008000   ; qtot 0.265179
 3246         os    124    ccc     O6   3246 -0.26013600  16.000000   ; qtot 0.005043
; residue  125 ccc rtp ccc q 0.0
 3247         c3    125    ccc     C1   3247 -0.33178800  12.010000   ; qtot -0.326745
 3248         c3    125    ccc     C2   3248 0.30606500  12.010000   ; qtot -0.020680
 3249         h1    125    ccc     H1   3249 0.11662300   1.008000   ; qtot 0.095943
 3250         h1    125    ccc     H2   3250 0.11526800   1.008000   ; qtot 0.211211
 3251         c3    125    ccc     C3   3251 0.15592700  12.010000   ; qtot 0.367138
 3252         c3    125    ccc     C4   3252 0.28383300  12.010000   ; qtot 0.650971
 3253         c3    125    ccc     C5   3253 0.32403300  12.010000   ; qtot 0.975004
 3254         h1    125    ccc     H3   3254 0.13386900   1.008000   ; qtot 1.108873
 3255         h1    125    ccc     H4   3255 0.10146700   1.008000   ; qtot 1.210340
 3256         h2    125    ccc     H5   3256 0.10960400   1.008000   ; qtot 1.319944
 3257         os    125    ccc     O1   3257 -0.28650000  16.000000   ; qtot 1.033444
 3258         oh    125    ccc     O2   3258 -0.86012500  16.000000   ; qtot 0.173319
 3259         oh    125    ccc     O3   3259 -0.83772800  16.000000   ; qtot -0.664409
 3260         oh    125    ccc     O4   3260 -0.77449700  16.000000   ; qtot -1.438906
 3261         c3    125    ccc     C6   3261 0.37576500  12.010000   ; qtot -1.063141
 3262         ho    125    ccc     H6   3262 0.53656000   1.008000   ; qtot -0.526581
 3263         ho    125    ccc     H7   3263 0.49492100   1.008000   ; qtot -0.031660
 3264         ho    125    ccc     H8   3264 0.51297200   1.008000   ; qtot 0.481312
 3265         h1    125    ccc     H9   3265 0.05653400   1.008000   ; qtot 0.537846
 3266         h1    125    ccc    H10   3266 0.05653400   1.008000   ; qtot 0.594380
 3267         oh    125    ccc     O5   3267 -0.84113600  16.000000   ; qtot -0.246756
 3268         ho    125    ccc    H11   3268 0.51201600   1.008000   ; qtot 0.265260
 3269         os    125    ccc     O6   3269 -0.26013600  16.000000   ; qtot 0.005124

[ bonds ]
;    ai     aj funct         c0         c1         c2         c3
      1      2     1   0.14316 258236.480000
      1      5     1   0.14316 258236.480000
      2      8     1   0.15375 251793.120000
      5     11     1   0.15375 251793.120000
      8     14     1   0.15375 251793.120000
     11     17     1   0.15375 251793.120000
     14     20     1   0.14647 272713.120000
     17     21     1   0.14647 272713.120000
     20     28     1   0.14647 272713.120000
     20     31     1   0.14647 272713.120000
     21     22     1   0.14647 272713.120000
     21     25     1   0.14647 272713.120000
     22     34     1   0.15375 251793.120000
     25     37     1   0.15375 251793.120000
     28     40     1   0.15375 251793.120000
     31     43     1   0.15375 251793.120000
     34     55     1   0.15375 251793.120000
     37     52     1   0.15375 251793.120000
     40     49     1   0.15375 251793.120000
     43     46     1   0.15375 251793.120000
     46     86     1   0.14316 258236.480000
     49    115     1   0.14316 258236.480000
     52    144     1   0.14316 258236.480000
     55    173     1   0.14316 258236.480000
     58     59     1   0.14647 272713.120000
     58     62     1   0.14647 272713.120000
     58     65     1   0.14647 272713.120000
     59     71     1   0.15375 251793.120000
     62     74     1   0.15375 251793.120000
     65     68     1   0.15375 251793.120000
     68     77     1   0.15375 251793.120000
     71     83     1   0.15375 251793.120000
     74     80     1   0.15375 251793.120000
     77     86     1   0.14316 258236.480000
     80    202     1   0.14316 258236.480000
     83    231     1   0.14316 258236.480000
     87     88     1   0.14647 272713.120000
     87     91     1   0.14647 272713.120000
     87     94     1   0.14647 272713.120000
     88    100     1   0.15375 251793.120000
     91    103     1   0.15375 251793.120000
     94     97     1   0.15375 251793.120000
     97    106     1   0.15375 251793.120000
    100    112     1   0.15375 251793.120000
    103    109     1   0.15375 251793.120000
    106    115     1   0.14316 258236.480000
    109    260     1   0.14316 258236.480000
    112    289     1   0.14316 258236.480000
    116    117     1   0.14647 272713.120000
    116    120     1   0.14647 272713.120000
    116    123     1   0.14647 272713.120000
    117    129     1   0.15375 251793.120000
    120    132     1   0.15375 251793.120000
    123    126     1   0.15375 251793.120000
    126    135     1   0.15375 251793.120000
    129    141     1   0.15375 251793.120000
    132    138     1   0.15375 251793.120000
    135    144     1   0.14316 258236.480000
    138    318     1   0.14316 258236.480000
    141    347     1   0.14316 258236.480000
    145    146     1   0.14647 272713.120000
    145    149     1   0.14647 272713.120000
    145    152     1   0.14647 272713.120000
    146    158     1   0.15375 251793.120000
    149    161     1   0.15375 251793.120000
    152    155     1   0.15375 251793.120000
    155    164     1   0.15375 251793.120000
    158    170     1   0.15375 251793.120000
    161    167     1   0.15375 251793.120000
    164    173     1   0.14316 258236.480000
    167    376     1   0.14316 258236.480000
    170    405     1   0.14316 258236.480000
    174    175     1   0.14647 272713.120000
    174    178     1   0.14647 272713.120000
    174    181     1   0.14647 272713.120000
    175    187     1   0.15375 251793.120000
    178    190     1   0.15375 251793.120000
    181    184     1   0.15375 251793.120000
    184    193     1   0.15375 251793.120000
    187    199     1   0.15375 251793.120000
    190    196     1   0.15375 251793.120000
    193    202     1   0.14316 258236.480000
    196    434     1   0.14316 258236.480000
    199    463     1   0.14316 258236.480000
    203    204     1   0.14647 272713.120000
    203    207     1   0.14647 272713.120000
    203    210     1   0.14647 272713.120000
    204    216     1   0.15375 251793.120000
    207    219     1   0.15375 251793.120000
    210    213     1   0.15375 251793.120000
    213    222     1   0.15375 251793.120000
    216    228     1   0.15375 251793.120000
    219    225     1   0.15375 251793.120000
    222    231     1   0.14316 258236.480000
    225    492     1   0.14316 258236.480000
    228    521     1   0.14316 258236.480000
    232    233     1   0.14647 272713.120000
    232    236     1   0.14647 272713.120000
    232    239     1   0.14647 272713.120000
    233    245     1   0.15375 251793.120000
    236    248     1   0.15375 251793.120000
    239    242     1   0.15375 251793.120000
    242    251     1   0.15375 251793.120000
    245    257     1   0.15375 251793.120000
    248    254     1   0.15375 251793.120000
    251    260     1   0.14316 258236.480000
    254    550     1   0.14316 258236.480000
    257    579     1   0.14316 258236.480000
    261    262     1   0.14647 272713.120000
    261    265     1   0.14647 272713.120000
    261    268     1   0.14647 272713.120000
    262    274     1   0.15375 251793.120000
    265    277     1   0.15375 251793.120000
    268    271     1   0.15375 251793.120000
    271    280     1   0.15375 251793.120000
    274    286     1   0.15375 251793.120000
    277    283     1   0.15375 251793.120000
    280    289     1   0.14316 258236.480000
    283    608     1   0.14316 258236.480000
    286    637     1   0.14316 258236.480000
    290    291     1   0.14647 272713.120000
    290    294     1   0.14647 272713.120000
    290    297     1   0.14647 272713.120000
    291    303     1   0.15375 251793.120000
    294    306     1   0.15375 251793.120000
    297    300     1   0.15375 251793.120000
    300    309     1   0.15375 251793.120000
    303    315     1   0.15375 251793.120000
    306    312     1   0.15375 251793.120000
    309    318     1   0.14316 258236.480000
    312    666     1   0.14316 258236.480000
    315    695     1   0.14316 258236.480000
    319    320     1   0.14647 272713.120000
    319    323     1   0.14647 272713.120000
    319    326     1   0.14647 272713.120000
    320    332     1   0.15375 251793.120000
    323    335     1   0.15375 251793.120000
    326    329     1   0.15375 251793.120000
    329    338     1   0.15375 251793.120000
    332    344     1   0.15375 251793.120000
    335    341     1   0.15375 251793.120000
    338    347     1   0.14316 258236.480000
    341    724     1   0.14316 258236.480000
    344    753     1   0.14316 258236.480000
    348    349     1   0.14647 272713.120000
    348    352     1   0.14647 272713.120000
    348    355     1   0.14647 272713.120000
    349    361     1   0.15375 251793.120000
    352    364     1   0.15375 251793.120000
    355    358     1   0.15375 251793.120000
    358    367     1   0.15375 251793.120000
    361    373     1   0.15375 251793.120000
    364    370     1   0.15375 251793.120000
    367    376     1   0.14316 258236.480000
    370    782     1   0.14316 258236.480000
    373    811     1   0.14316 258236.480000
    377    378     1   0.14647 272713.120000
    377    381     1   0.14647 272713.120000
    377    384     1   0.14647 272713.120000
    378    390     1   0.15375 251793.120000
    381    393     1   0.15375 251793.120000
    384    387     1   0.15375 251793.120000
    387    396     1   0.15375 251793.120000
    390    402     1   0.15375 251793.120000
    393    399     1   0.15375 251793.120000
    396    405     1   0.14316 258236.480000
    399    840     1   0.14316 258236.480000
    402    869     1   0.14316 258236.480000
    406    407     1   0.14647 272713.120000
    406    410     1   0.14647 272713.120000
    406    413     1   0.14647 272713.120000
    407    419     1   0.15375 251793.120000
    410    422     1   0.15375 251793.120000
    413    416     1   0.15375 251793.120000
    416    425     1   0.15375 251793.120000
    419    431     1   0.15375 251793.120000
    422    428     1   0.15375 251793.120000
    425    434     1   0.14316 258236.480000
    428    898     1   0.14316 258236.480000
    431    927     1   0.14316 258236.480000
    435    436     1   0.14647 272713.120000
    435    439     1   0.14647 272713.120000
    435    442     1   0.14647 272713.120000
    436    448     1   0.15375 251793.120000
    439    451     1   0.15375 251793.120000
    442    445     1   0.15375 251793.120000
    445    454     1   0.15375 251793.120000
    448    460     1   0.15375 251793.120000
    451    457     1   0.15375 251793.120000
    454    463     1   0.14316 258236.480000
    457    956     1   0.14316 258236.480000
    460    985     1   0.14316 258236.480000
    464    465     1   0.14647 272713.120000
    464    468     1   0.14647 272713.120000
    464    471     1   0.14647 272713.120000
    465    477     1   0.15375 251793.120000
    468    480     1   0.15375 251793.120000
    471    474     1   0.15375 251793.120000
    474    483     1   0.15375 251793.120000
    477    489     1   0.15375 251793.120000
    480    486     1   0.15375 251793.120000
    483    492     1   0.14316 258236.480000
    486   1014     1   0.14316 258236.480000
    489   1043     1   0.14316 258236.480000
    493    494     1   0.14647 272713.120000
    493    497     1   0.14647 272713.120000
    493    500     1   0.14647 272713.120000
    494    506     1   0.15375 251793.120000
    497    509     1   0.15375 251793.120000
    500    503     1   0.15375 251793.120000
    503    512     1   0.15375 251793.120000
    506    518     1   0.15375 251793.120000
    509    515     1   0.15375 251793.120000
    512    521     1   0.14316 258236.480000
    515   1072     1   0.14316 258236.480000
    518   1101     1   0.14316 258236.480000
    522    523     1   0.14647 272713.120000
    522    526     1   0.14647 272713.120000
    522    529     1   0.14647 272713.120000
    523    535     1   0.15375 251793.120000
    526    538     1   0.15375 251793.120000
    529    532     1   0.15375 251793.120000
    532    541     1   0.15375 251793.120000
    535    547     1   0.15375 251793.120000
    538    544     1   0.15375 251793.120000
    541    550     1   0.14316 258236.480000
    544   1130     1   0.14316 258236.480000
    547   1159     1   0.14316 258236.480000
    551    552     1   0.14647 272713.120000
    551    555     1   0.14647 272713.120000
    551    558     1   0.14647 272713.120000
    552    564     1   0.15375 251793.120000
    555    567     1   0.15375 251793.120000
    558    561     1   0.15375 251793.120000
    561    570     1   0.15375 251793.120000
    564    576     1   0.15375 251793.120000
    567    573     1   0.15375 251793.120000
    570    579     1   0.14316 258236.480000
    573   1188     1   0.14316 258236.480000
    576   1217     1   0.14316 258236.480000
    580    581     1   0.14647 272713.120000
    580    584     1   0.14647 272713.120000
    580    587     1   0.14647 272713.120000
    581    593     1   0.15375 251793.120000
    584    596     1   0.15375 251793.120000
    587    590     1   0.15375 251793.120000
    590    599     1   0.15375 251793.120000
    593    605     1   0.15375 251793.120000
    596    602     1   0.15375 251793.120000
    599    608     1   0.14316 258236.480000
    602   1246     1   0.14316 258236.480000
    605   1275     1   0.14316 258236.480000
    609    610     1   0.14647 272713.120000
    609    613     1   0.14647 272713.120000
    609    616     1   0.14647 272713.120000
    610    622     1   0.15375 251793.120000
    613    625     1   0.15375 251793.120000
    616    619     1   0.15375 251793.120000
    619    628     1   0.15375 251793.120000
    622    634     1   0.15375 251793.120000
    625    631     1   0.15375 251793.120000
    628    637     1   0.14316 258236.480000
    631   1304     1   0.14316 258236.480000
    634   1333     1   0.14316 258236.480000
    638    639     1   0.14647 272713.120000
    638    642     1   0.14647 272713.120000
    638    645     1   0.14647 272713.120000
    639    651     1   0.15375 251793.120000
    642    654     1   0.15375 251793.120000
    645    648     1   0.15375 251793.120000
    648    657     1   0.15375 251793.120000
    651    663     1   0.15375 251793.120000
    654    660     1   0.15375 251793.120000
    657    666     1   0.14316 258236.480000
    660   1362     1   0.14316 258236.480000
    663   1391     1   0.14316 258236.480000
    667    668     1   0.14647 272713.120000
    667    671     1   0.14647 272713.120000
    667    674     1   0.14647 272713.120000
    668    680     1   0.15375 251793.120000
    671    683     1   0.15375 251793.120000
    674    677     1   0.15375 251793.120000
    677    686     1   0.15375 251793.120000
    680    692     1   0.15375 251793.120000
    683    689     1   0.15375 251793.120000
    686    695     1   0.14316 258236.480000
    689   1420     1   0.14316 258236.480000
    692   1449     1   0.14316 258236.480000
    696    697     1   0.14647 272713.120000
    696    700     1   0.14647 272713.120000
    696    703     1   0.14647 272713.120000
    697    709     1   0.15375 251793.120000
    700    712     1   0.15375 251793.120000
    703    706     1   0.15375 251793.120000
    706    715     1   0.15375 251793.120000
    709    721     1   0.15375 251793.120000
    712    718     1   0.15375 251793.120000
    715    724     1   0.14316 258236.480000
    718   1478     1   0.14316 258236.480000
    721   1507     1   0.14316 258236.480000
    725    726     1   0.14647 272713.120000
    725    729     1   0.14647 272713.120000
    725    732     1   0.14647 272713.120000
    726    738     1   0.15375 251793.120000
    729    741     1   0.15375 251793.120000
    732    735     1   0.15375 251793.120000
    735    744     1   0.15375 251793.120000
    738    750     1   0.15375 251793.120000
    741    747     1   0.15375 251793.120000
    744    753     1   0.14316 258236.480000
    747   1536     1   0.14316 258236.480000
    750   1565     1   0.14316 258236.480000
    754    755     1   0.14647 272713.120000
    754    758     1   0.14647 272713.120000
    754    761     1   0.14647 272713.120000
    755    767     1   0.15375 251793.120000
    758    770     1   0.15375 251793.120000
    761    764     1   0.15375 251793.120000
    764    773     1   0.15375 251793.120000
    767    779     1   0.15375 251793.120000
    770    776     1   0.15375 251793.120000
    773    782     1   0.14316 258236.480000
    776   1594     1   0.14316 258236.480000
    779   1623     1   0.14316 258236.480000
    783    784     1   0.14647 272713.120000
    783    787     1   0.14647 272713.120000
    783    790     1   0.14647 272713.120000
    784    796     1   0.15375 251793.120000
    787    799     1   0.15375 251793.120000
    790    793     1   0.15375 251793.120000
    793    802     1   0.15375 251793.120000
    796    808     1   0.15375 251793.120000
    799    805     1   0.15375 251793.120000
    802    811     1   0.14316 258236.480000
    805   1652     1   0.14316 258236.480000
    808   1681     1   0.14316 258236.480000
    812    813     1   0.14647 272713.120000
    812    816     1   0.14647 272713.120000
    812    819     1   0.14647 272713.120000
    813    825     1   0.15375 251793.120000
    816    828     1   0.15375 251793.120000
    819    822     1   0.15375 251793.120000
    822    831     1   0.15375 251793.120000
    825    837     1   0.15375 251793.120000
    828    834     1   0.15375 251793.120000
    831    840     1   0.14316 258236.480000
    834   1710     1   0.14316 258236.480000
    837   1739     1   0.14316 258236.480000
    841    842     1   0.14647 272713.120000
    841    845     1   0.14647 272713.120000
    841    848     1   0.14647 272713.120000
    842    854     1   0.15375 251793.120000
    845    857     1   0.15375 251793.120000
    848    851     1   0.15375 251793.120000
    851    860     1   0.15375 251793.120000
    854    866     1   0.15375 251793.120000
    857    863     1   0.15375 251793.120000
    860    869     1   0.14316 258236.480000
    863   1768     1   0.14316 258236.480000
    866   1797     1   0.14316 258236.480000
    870    871     1   0.14647 272713.120000
    870    874     1   0.14647 272713.120000
    870    877     1   0.14647 272713.120000
    871    883     1   0.15375 251793.120000
    874    886     1   0.15375 251793.120000
    877    880     1   0.15375 251793.120000
    880    889     1   0.15375 251793.120000
    883    895     1   0.15375 251793.120000
    886    892     1   0.15375 251793.120000
    889    898     1   0.14316 258236.480000
    892   1808     1   0.14316 258236.480000
    895   1831     1   0.14316 258236.480000
    899    900     1   0.14647 272713.120000
    899    903     1   0.14647 272713.120000
    899    906     1   0.14647 272713.120000
    900    912     1   0.15375 251793.120000
    903    915     1   0.15375 251793.120000
    906    909     1   0.15375 251793.120000
    909    918     1   0.15375 251793.120000
    912    924     1   0.15375 251793.120000
    915    921     1   0.15375 251793.120000
    918    927     1   0.14316 258236.480000
    921   1854     1   0.14316 258236.480000
    924   1877     1   0.14316 258236.480000
    928    929     1   0.14647 272713.120000
    928    932     1   0.14647 272713.120000
    928    935     1   0.14647 272713.120000
    929    941     1   0.15375 251793.120000
    932    944     1   0.15375 251793.120000
    935    938     1   0.15375 251793.120000
    938    947     1   0.15375 251793.120000
    941    953     1   0.15375 251793.120000
    944    950     1   0.15375 251793.120000
    947    956     1   0.14316 258236.480000
    950   1900     1   0.14316 258236.480000
    953   1923     1   0.14316 258236.480000
    957    958     1   0.14647 272713.120000
    957    961     1   0.14647 272713.120000
    957    964     1   0.14647 272713.120000
    958    970     1   0.15375 251793.120000
    961    973     1   0.15375 251793.120000
    964    967     1   0.15375 251793.120000
    967    976     1   0.15375 251793.120000
    970    982     1   0.15375 251793.120000
    973    979     1   0.15375 251793.120000
    976    985     1   0.14316 258236.480000
    979   1946     1   0.14316 258236.480000
    982   1969     1   0.14316 258236.480000
    986    987     1   0.14647 272713.120000
    986    990     1   0.14647 272713.120000
    986    993     1   0.14647 272713.120000
    987    999     1   0.15375 251793.120000
    990   1002     1   0.15375 251793.120000
    993    996     1   0.15375 251793.120000
    996   1005     1   0.15375 251793.120000
    999   1011     1   0.15375 251793.120000
   1002   1008     1   0.15375 251793.120000
   1005   1014     1   0.14316 258236.480000
   1008   1992     1   0.14316 258236.480000
   1011   2015     1   0.14316 258236.480000
   1015   1016     1   0.14647 272713.120000
   1015   1019     1   0.14647 272713.120000
   1015   1022     1   0.14647 272713.120000
   1016   1028     1   0.15375 251793.120000
   1019   1031     1   0.15375 251793.120000
   1022   1025     1   0.15375 251793.120000
   1025   1034     1   0.15375 251793.120000
   1028   1040     1   0.15375 251793.120000
   1031   1037     1   0.15375 251793.120000
   1034   1043     1   0.14316 258236.480000
   1037   2038     1   0.14316 258236.480000
   1040   2061     1   0.14316 258236.480000
   1044   1045     1   0.14647 272713.120000
   1044   1048     1   0.14647 272713.120000
   1044   1051     1   0.14647 272713.120000
   1045   1057     1   0.15375 251793.120000
   1048   1060     1   0.15375 251793.120000
   1051   1054     1   0.15375 251793.120000
   1054   1063     1   0.15375 251793.120000
   1057   1069     1   0.15375 251793.120000
   1060   1066     1   0.15375 251793.120000
   1063   1072     1   0.14316 258236.480000
   1066   2084     1   0.14316 258236.480000
   1069   2107     1   0.14316 258236.480000
   1073   1074     1   0.14647 272713.120000
   1073   1077     1   0.14647 272713.120000
   1073   1080     1   0.14647 272713.120000
   1074   1086     1   0.15375 251793.120000
   1077   1089     1   0.15375 251793.120000
   1080   1083     1   0.15375 251793.120000
   1083   1092     1   0.15375 251793.120000
   1086   1098     1   0.15375 251793.120000
   1089   1095     1   0.15375 251793.120000
   1092   1101     1   0.14316 258236.480000
   1095   2130     1   0.14316 258236.480000
   1098   2153     1   0.14316 258236.480000
   1102   1103     1   0.14647 272713.120000
   1102   1106     1   0.14647 272713.120000
   1102   1109     1   0.14647 272713.120000
   1103   1115     1   0.15375 251793.120000
   1106   1118     1   0.15375 251793.120000
   1109   1112     1   0.15375 251793.120000
   1112   1121     1   0.15375 251793.120000
   1115   1127     1   0.15375 251793.120000
   1118   1124     1   0.15375 251793.120000
   1121   1130     1   0.14316 258236.480000
   1124   2176     1   0.14316 258236.480000
   1127   2199     1   0.14316 258236.480000
   1131   1132     1   0.14647 272713.120000
   1131   1135     1   0.14647 272713.120000
   1131   1138     1   0.14647 272713.120000
   1132   1144     1   0.15375 251793.120000
   1135   1147     1   0.15375 251793.120000
   1138   1141     1   0.15375 251793.120000
   1141   1150     1   0.15375 251793.120000
   1144   1156     1   0.15375 251793.120000
   1147   1153     1   0.15375 251793.120000
   1150   1159     1   0.14316 258236.480000
   1153   2222     1   0.14316 258236.480000
   1156   2245     1   0.14316 258236.480000
   1160   1161     1   0.14647 272713.120000
   1160   1164     1   0.14647 272713.120000
   1160   1167     1   0.14647 272713.120000
   1161   1173     1   0.15375 251793.120000
   1164   1176     1   0.15375 251793.120000
   1167   1170     1   0.15375 251793.120000
   1170   1179     1   0.15375 251793.120000
   1173   1185     1   0.15375 251793.120000
   1176   1182     1   0.15375 251793.120000
   1179   1188     1   0.14316 258236.480000
   1182   2268     1   0.14316 258236.480000
   1185   2291     1   0.14316 258236.480000
   1189   1190     1   0.14647 272713.120000
   1189   1193     1   0.14647 272713.120000
   1189   1196     1   0.14647 272713.120000
   1190   1202     1   0.15375 251793.120000
   1193   1205     1   0.15375 251793.120000
   1196   1199     1   0.15375 251793.120000
   1199   1208     1   0.15375 251793.120000
   1202   1214     1   0.15375 251793.120000
   1205   1211     1   0.15375 251793.120000
   1208   1217     1   0.14316 258236.480000
   1211   2314     1   0.14316 258236.480000
   1214   2337     1   0.14316 258236.480000
   1218   1219     1   0.14647 272713.120000
   1218   1222     1   0.14647 272713.120000
   1218   1225     1   0.14647 272713.120000
   1219   1231     1   0.15375 251793.120000
   1222   1234     1   0.15375 251793.120000
   1225   1228     1   0.15375 251793.120000
   1228   1237     1   0.15375 251793.120000
   1231   1243     1   0.15375 251793.120000
   1234   1240     1   0.15375 251793.120000
   1237   1246     1   0.14316 258236.480000
   1240   2360     1   0.14316 258236.480000
   1243   2383     1   0.14316 258236.480000
   1247   1248     1   0.14647 272713.120000
   1247   1251     1   0.14647 272713.120000
   1247   1254     1   0.14647 272713.120000
   1248   1260     1   0.15375 251793.120000
   1251   1263     1   0.15375 251793.120000
   1254   1257     1   0.15375 251793.120000
   1257   1266     1   0.15375 251793.120000
   1260   1272     1   0.15375 251793.120000
   1263   1269     1   0.15375 251793.120000
   1266   1275     1   0.14316 258236.480000
   1269   2406     1   0.14316 258236.480000
   1272   2429     1   0.14316 258236.480000
   1276   1277     1   0.14647 272713.120000
   1276   1280     1   0.14647 272713.120000
   1276   1283     1   0.14647 272713.120000
   1277   1289     1   0.15375 251793.120000
   1280   1292     1   0.15375 251793.120000
   1283   1286     1   0.15375 251793.120000
   1286   1295     1   0.15375 251793.120000
   1289   1301     1   0.15375 251793.120000
   1292   1298     1   0.15375 251793.120000
   1295   1304     1   0.14316 258236.480000
   1298   2452     1   0.14316 258236.480000
   1301   2475     1   0.14316 258236.480000
   1305   1306     1   0.14647 272713.120000
   1305   1309     1   0.14647 272713.120000
   1305   1312     1   0.14647 272713.120000
   1306   1318     1   0.15375 251793.120000
   1309   1321     1   0.15375 251793.120000
   1312   1315     1   0.15375 251793.120000
   1315   1324     1   0.15375 251793.120000
   1318   1330     1   0.15375 251793.120000
   1321   1327     1   0.15375 251793.120000
   1324   1333     1   0.14316 258236.480000
   1327   2498     1   0.14316 258236.480000
   1330   2521     1   0.14316 258236.480000
   1334   1335     1   0.14647 272713.120000
   1334   1338     1   0.14647 272713.120000
   1334   1341     1   0.14647 272713.120000
   1335   1347     1   0.15375 251793.120000
   1338   1350     1   0.15375 251793.120000
   1341   1344     1   0.15375 251793.120000
   1344   1353     1   0.15375 251793.120000
   1347   1359     1   0.15375 251793.120000
   1350   1356     1   0.15375 251793.120000
   1353   1362     1   0.14316 258236.480000
   1356   2544     1   0.14316 258236.480000
   1359   2567     1   0.14316 258236.480000
   1363   1364     1   0.14647 272713.120000
   1363   1367     1   0.14647 272713.120000
   1363   1370     1   0.14647 272713.120000
   1364   1376     1   0.15375 251793.120000
   1367   1379     1   0.15375 251793.120000
   1370   1373     1   0.15375 251793.120000
   1373   1382     1   0.15375 251793.120000
   1376   1388     1   0.15375 251793.120000
   1379   1385     1   0.15375 251793.120000
   1382   1391     1   0.14316 258236.480000
   1385   2590     1   0.14316 258236.480000
   1388   2613     1   0.14316 258236.480000
   1392   1393     1   0.14647 272713.120000
   1392   1396     1   0.14647 272713.120000
   1392   1399     1   0.14647 272713.120000
   1393   1405     1   0.15375 251793.120000
   1396   1408     1   0.15375 251793.120000
   1399   1402     1   0.15375 251793.120000
   1402   1411     1   0.15375 251793.120000
   1405   1417     1   0.15375 251793.120000
   1408   1414     1   0.15375 251793.120000
   1411   1420     1   0.14316 258236.480000
   1414   2636     1   0.14316 258236.480000
   1417   2659     1   0.14316 258236.480000
   1421   1422     1   0.14647 272713.120000
   1421   1425     1   0.14647 272713.120000
   1421   1428     1   0.14647 272713.120000
   1422   1434     1   0.15375 251793.120000
   1425   1437     1   0.15375 251793.120000
   1428   1431     1   0.15375 251793.120000
   1431   1440     1   0.15375 251793.120000
   1434   1446     1   0.15375 251793.120000
   1437   1443     1   0.15375 251793.120000
   1440   1449     1   0.14316 258236.480000
   1443   2682     1   0.14316 258236.480000
   1446   2705     1   0.14316 258236.480000
   1450   1451     1   0.14647 272713.120000
   1450   1454     1   0.14647 272713.120000
   1450   1457     1   0.14647 272713.120000
   1451   1463     1   0.15375 251793.120000
   1454   1466     1   0.15375 251793.120000
   1457   1460     1   0.15375 251793.120000
   1460   1469     1   0.15375 251793.120000
   1463   1475     1   0.15375 251793.120000
   1466   1472     1   0.15375 251793.120000
   1469   1478     1   0.14316 258236.480000
   1472   2728     1   0.14316 258236.480000
   1475   2751     1   0.14316 258236.480000
   1479   1480     1   0.14647 272713.120000
   1479   1483     1   0.14647 272713.120000
   1479   1486     1   0.14647 272713.120000
   1480   1492     1   0.15375 251793.120000
   1483   1495     1   0.15375 251793.120000
   1486   1489     1   0.15375 251793.120000
   1489   1498     1   0.15375 251793.120000
   1492   1504     1   0.15375 251793.120000
   1495   1501     1   0.15375 251793.120000
   1498   1507     1   0.14316 258236.480000
   1501   2774     1   0.14316 258236.480000
   1504   2797     1   0.14316 258236.480000
   1508   1509     1   0.14647 272713.120000
   1508   1512     1   0.14647 272713.120000
   1508   1515     1   0.14647 272713.120000
   1509   1521     1   0.15375 251793.120000
   1512   1524     1   0.15375 251793.120000
   1515   1518     1   0.15375 251793.120000
   1518   1527     1   0.15375 251793.120000
   1521   1533     1   0.15375 251793.120000
   1524   1530     1   0.15375 251793.120000
   1527   1536     1   0.14316 258236.480000
   1530   2820     1   0.14316 258236.480000
   1533   2843     1   0.14316 258236.480000
   1537   1538     1   0.14647 272713.120000
   1537   1541     1   0.14647 272713.120000
   1537   1544     1   0.14647 272713.120000
   1538   1550     1   0.15375 251793.120000
   1541   1553     1   0.15375 251793.120000
   1544   1547     1   0.15375 251793.120000
   1547   1556     1   0.15375 251793.120000
   1550   1562     1   0.15375 251793.120000
   1553   1559     1   0.15375 251793.120000
   1556   1565     1   0.14316 258236.480000
   1559   2866     1   0.14316 258236.480000
   1562   2889     1   0.14316 258236.480000
   1566   1567     1   0.14647 272713.120000
   1566   1570     1   0.14647 272713.120000
   1566   1573     1   0.14647 272713.120000
   1567   1579     1   0.15375 251793.120000
   1570   1582     1   0.15375 251793.120000
   1573   1576     1   0.15375 251793.120000
   1576   1585     1   0.15375 251793.120000
   1579   1591     1   0.15375 251793.120000
   1582   1588     1   0.15375 251793.120000
   1585   1594     1   0.14316 258236.480000
   1588   2912     1   0.14316 258236.480000
   1591   2935     1   0.14316 258236.480000
   1595   1596     1   0.14647 272713.120000
   1595   1599     1   0.14647 272713.120000
   1595   1602     1   0.14647 272713.120000
   1596   1608     1   0.15375 251793.120000
   1599   1611     1   0.15375 251793.120000
   1602   1605     1   0.15375 251793.120000
   1605   1614     1   0.15375 251793.120000
   1608   1620     1   0.15375 251793.120000
   1611   1617     1   0.15375 251793.120000
   1614   1623     1   0.14316 258236.480000
   1617   2958     1   0.14316 258236.480000
   1620   2981     1   0.14316 258236.480000
   1624   1625     1   0.14647 272713.120000
   1624   1628     1   0.14647 272713.120000
   1624   1631     1   0.14647 272713.120000
   1625   1637     1   0.15375 251793.120000
   1628   1640     1   0.15375 251793.120000
   1631   1634     1   0.15375 251793.120000
   1634   1643     1   0.15375 251793.120000
   1637   1649     1   0.15375 251793.120000
   1640   1646     1   0.15375 251793.120000
   1643   1652     1   0.14316 258236.480000
   1646   3004     1   0.14316 258236.480000
   1649   3027     1   0.14316 258236.480000
   1653   1654     1   0.14647 272713.120000
   1653   1657     1   0.14647 272713.120000
   1653   1660     1   0.14647 272713.120000
   1654   1666     1   0.15375 251793.120000
   1657   1669     1   0.15375 251793.120000
   1660   1663     1   0.15375 251793.120000
   1663   1672     1   0.15375 251793.120000
   1666   1678     1   0.15375 251793.120000
   1669   1675     1   0.15375 251793.120000
   1672   1681     1   0.14316 258236.480000
   1675   3050     1   0.14316 258236.480000
   1678   3073     1   0.14316 258236.480000
   1682   1683     1   0.14647 272713.120000
   1682   1686     1   0.14647 272713.120000
   1682   1689     1   0.14647 272713.120000
   1683   1695     1   0.15375 251793.120000
   1686   1698     1   0.15375 251793.120000
   1689   1692     1   0.15375 251793.120000
   1692   1701     1   0.15375 251793.120000
   1695   1707     1   0.15375 251793.120000
   1698   1704     1   0.15375 251793.120000
   1701   1710     1   0.14316 258236.480000
   1704   3096     1   0.14316 258236.480000
   1707   3119     1   0.14316 258236.480000
   1711   1712     1   0.14647 272713.120000
   1711   1715     1   0.14647 272713.120000
   1711   1718     1   0.14647 272713.120000
   1712   1724     1   0.15375 251793.120000
   1715   1727     1   0.15375 251793.120000
   1718   1721     1   0.15375 251793.120000
   1721   1730     1   0.15375 251793.120000
   1724   1736     1   0.15375 251793.120000
   1727   1733     1   0.15375 251793.120000
   1730   1739     1   0.14316 258236.480000
   1733   3142     1   0.14316 258236.480000
   1736   3165     1   0.14316 258236.480000
   1740   1741     1   0.14647 272713.120000
   1740   1744     1   0.14647 272713.120000
   1740   1747     1   0.14647 272713.120000
   1741   1753     1   0.15375 251793.120000
   1744   1756     1   0.15375 251793.120000
   1747   1750     1   0.15375 251793.120000
   1750   1759     1   0.15375 251793.120000
   1753   1765     1   0.15375 251793.120000
   1756   1762     1   0.15375 251793.120000
   1759   1768     1   0.14316 258236.480000
   1762   3188     1   0.14316 258236.480000
   1765   3211     1   0.14316 258236.480000
   1769   1770     1   0.14647 272713.120000
   1769   1773     1   0.14647 272713.120000
   1769   1776     1   0.14647 272713.120000
   1770   1782     1   0.15375 251793.120000
   1773   1785     1   0.15375 251793.120000
   1776   1779     1   0.15375 251793.120000
   1779   1788     1   0.15375 251793.120000
   1782   1794     1   0.15375 251793.120000
   1785   1791     1   0.15375 251793.120000
   1788   1797     1   0.14316 258236.480000
   1791   3234     1   0.14316 258236.480000
   1794   3257     1   0.14316 258236.480000
   1798   1799     1   0.15375 251793.120000
   1798   1812     1   0.15375 251793.120000
   1798   1820     1   0.14316 258236.480000
   1799   1802     1   0.15375 251793.120000
   1799   1811     1   0.14233 265014.560000
   1802   1803     1   0.15375 251793.120000
   1802   1810     1   0.14233 265014.560000
   1803   1804     1   0.15375 251793.120000
   1803   1809     1   0.14233 265014.560000
   1804   1808     1   0.14316 258236.480000
   1804   1820     1   0.14316 258236.480000
   1812   1818     1   0.14233 265014.560000
   1821   1822     1   0.15375 251793.120000
   1821   1835     1   0.15375 251793.120000
   1821   1843     1   0.14316 258236.480000
   1822   1825     1   0.15375 251793.120000
   1822   1834     1   0.14233 265014.560000
   1825   1826     1   0.15375 251793.120000
   1825   1833     1   0.14233 265014.560000
   1826   1827     1   0.15375 251793.120000
   1826   1832     1   0.14233 265014.560000
   1827   1831     1   0.14316 258236.480000
   1827   1843     1   0.14316 258236.480000
   1835   1841     1   0.14233 265014.560000
   1844   1845     1   0.15375 251793.120000
   1844   1858     1   0.15375 251793.120000
   1844   1866     1   0.14316 258236.480000
   1845   1848     1   0.15375 251793.120000
   1845   1857     1   0.14233 265014.560000
   1848   1849     1   0.15375 251793.120000
   1848   1856     1   0.14233 265014.560000
   1849   1850     1   0.15375 251793.120000
   1849   1855     1   0.14233 265014.560000
   1850   1854     1   0.14316 258236.480000
   1850   1866     1   0.14316 258236.480000
   1858   1864     1   0.14233 265014.560000
   1867   1868     1   0.15375 251793.120000
   1867   1881     1   0.15375 251793.120000
   1867   1889     1   0.14316 258236.480000
   1868   1871     1   0.15375 251793.120000
   1868   1880     1   0.14233 265014.560000
   1871   1872     1   0.15375 251793.120000
   1871   1879     1   0.14233 265014.560000
   1872   1873     1   0.15375 251793.120000
   1872   1878     1   0.14233 265014.560000
   1873   1877     1   0.14316 258236.480000
   1873   1889     1   0.14316 258236.480000
   1881   1887     1   0.14233 265014.560000
   1890   1891     1   0.15375 251793.120000
   1890   1904     1   0.15375 251793.120000
   1890   1912     1   0.14316 258236.480000
   1891   1894     1   0.15375 251793.120000
   1891   1903     1   0.14233 265014.560000
   1894   1895     1   0.15375 251793.120000
   1894   1902     1   0.14233 265014.560000
   1895   1896     1   0.15375 251793.120000
   1895   1901     1   0.14233 265014.560000
   1896   1900     1   0.14316 258236.480000
   1896   1912     1   0.14316 258236.480000
   1904   1910     1   0.14233 265014.560000
   1913   1914     1   0.15375 251793.120000
   1913   1927     1   0.15375 251793.120000
   1913   1935     1   0.14316 258236.480000
   1914   1917     1   0.15375 251793.120000
   1914   1926     1   0.14233 265014.560000
   1917   1918     1   0.15375 251793.120000
   1917   1925     1   0.14233 265014.560000
   1918   1919     1   0.15375 251793.120000
   1918   1924     1   0.14233 265014.560000
   1919   1923     1   0.14316 258236.480000
   1919   1935     1   0.14316 258236.480000
   1927   1933     1   0.14233 265014.560000
   1936   1937     1   0.15375 251793.120000
   1936   1950     1   0.15375 251793.120000
   1936   1958     1   0.14316 258236.480000
   1937   1940     1   0.15375 251793.120000
   1937   1949     1   0.14233 265014.560000
   1940   1941     1   0.15375 251793.120000
   1940   1948     1   0.14233 265014.560000
   1941   1942     1   0.15375 251793.120000
   1941   1947     1   0.14233 265014.560000
   1942   1946     1   0.14316 258236.480000
   1942   1958     1   0.14316 258236.480000
   1950   1956     1   0.14233 265014.560000
   1959   1960     1   0.15375 251793.120000
   1959   1973     1   0.15375 251793.120000
   1959   1981     1   0.14316 258236.480000
   1960   1963     1   0.15375 251793.120000
   1960   1972     1   0.14233 265014.560000
   1963   1964     1   0.15375 251793.120000
   1963   1971     1   0.14233 265014.560000
   1964   1965     1   0.15375 251793.120000
   1964   1970     1   0.14233 265014.560000
   1965   1969     1   0.14316 258236.480000
   1965   1981     1   0.14316 258236.480000
   1973   1979     1   0.14233 265014.560000
   1982   1983     1   0.15375 251793.120000
   1982   1996     1   0.15375 251793.120000
   1982   2004     1   0.14316 258236.480000
   1983   1986     1   0.15375 251793.120000
   1983   1995     1   0.14233 265014.560000
   1986   1987     1   0.15375 251793.120000
   1986   1994     1   0.14233 265014.560000
   1987   1988     1   0.15375 251793.120000
   1987   1993     1   0.14233 265014.560000
   1988   1992     1   0.14316 258236.480000
   1988   2004     1   0.14316 258236.480000
   1996   2002     1   0.14233 265014.560000
   2005   2006     1   0.15375 251793.120000
   2005   2019     1   0.15375 251793.120000
   2005   2027     1   0.14316 258236.480000
   2006   2009     1   0.15375 251793.120000
   2006   2018     1   0.14233 265014.560000
   2009   2010     1   0.15375 251793.120000
   2009   2017     1   0.14233 265014.560000
   2010   2011     1   0.15375 251793.120000
   2010   2016     1   0.14233 265014.560000
   2011   2015     1   0.14316 258236.480000
   2011   2027     1   0.14316 258236.480000
   2019   2025     1   0.14233 265014.560000
   2028   2029     1   0.15375 251793.120000
   2028   2042     1   0.15375 251793.120000
   2028   2050     1   0.14316 258236.480000
   2029   2032     1   0.15375 251793.120000
   2029   2041     1   0.14233 265014.560000
   2032   2033     1   0.15375 251793.120000
   2032   2040     1   0.14233 265014.560000
   2033   2034     1   0.15375 251793.120000
   2033   2039     1   0.14233 265014.560000
   2034   2038     1   0.14316 258236.480000
   2034   2050     1   0.14316 258236.480000
   2042   2048     1   0.14233 265014.560000
   2051   2052     1   0.15375 251793.120000
   2051   2065     1   0.15375 251793.120000
   2051   2073     1   0.14316 258236.480000
   2052   2055     1   0.15375 251793.120000
   2052   2064     1   0.14233 265014.560000
   2055   2056     1   0.15375 251793.120000
   2055   2063     1   0.14233 265014.560000
   2056   2057     1   0.15375 251793.120000
   2056   2062     1   0.14233 265014.560000
   2057   2061     1   0.14316 258236.480000
   2057   2073     1   0.14316 258236.480000
   2065   2071     1   0.14233 265014.560000
   2074   2075     1   0.15375 251793.120000
   2074   2088     1   0.15375 251793.120000
   2074   2096     1   0.14316 258236.480000
   2075   2078     1   0.15375 251793.120000
   2075   2087     1   0.14233 265014.560000
   2078   2079     1   0.15375 251793.120000
   2078   2086     1   0.14233 265014.560000
   2079   2080     1   0.15375 251793.120000
   2079   2085     1   0.14233 265014.560000
   2080   2084     1   0.14316 258236.480000
   2080   2096     1   0.14316 258236.480000
   2088   2094     1   0.14233 265014.560000
   2097   2098     1   0.15375 251793.120000
   2097   2111     1   0.15375 251793.120000
   2097   2119     1   0.14316 258236.480000
   2098   2101     1   0.15375 251793.120000
   2098   2110     1   0.14233 265014.560000
   2101   2102     1   0.15375 251793.120000
   2101   2109     1   0.14233 265014.560000
   2102   2103     1   0.15375 251793.120000
   2102   2108     1   0.14233 265014.560000
   2103   2107     1   0.14316 258236.480000
   2103   2119     1   0.14316 258236.480000
   2111   2117     1   0.14233 265014.560000
   2120   2121     1   0.15375 251793.120000
   2120   2134     1   0.15375 251793.120000
   2120   2142     1   0.14316 258236.480000
   2121   2124     1   0.15375 251793.120000
   2121   2133     1   0.14233 265014.560000
   2124   2125     1   0.15375 251793.120000
   2124   2132     1   0.14233 265014.560000
   2125   2126     1   0.15375 251793.120000
   2125   2131     1   0.14233 265014.560000
   2126   2130     1   0.14316 258236.480000
   2126   2142     1   0.14316 258236.480000
   2134   2140     1   0.14233 265014.560000
   2143   2144     1   0.15375 251793.120000
   2143   2157     1   0.15375 251793.120000
   2143   2165     1   0.14316 258236.480000
   2144   2147     1   0.15375 251793.120000
   2144   2156     1   0.14233 265014.560000
   2147   2148     1   0.15375 251793.120000
   2147   2155     1   0.14233 265014.560000
   2148   2149     1   0.15375 251793.120000
   2148   2154     1   0.14233 265014.560000
   2149   2153     1   0.14316 258236.480000
   2149   2165     1   0.14316 258236.480000
   2157   2163     1   0.14233 265014.560000
   2166   2167     1   0.15375 251793.120000
   2166   2180     1   0.15375 251793.120000
   2166   2188     1   0.14316 258236.480000
   2167   2170     1   0.15375 251793.120000
   2167   2179     1   0.14233 265014.560000
   2170   2171     1   0.15375 251793.120000
   2170   2178     1   0.14233 265014.560000
   2171   2172     1   0.15375 251793.120000
   2171   2177     1   0.14233 265014.560000
   2172   2176     1   0.14316 258236.480000
   2172   2188     1   0.14316 258236.480000
   2180   2186     1   0.14233 265014.560000
   2189   2190     1   0.15375 251793.120000
   2189   2203     1   0.15375 251793.120000
   2189   2211     1   0.14316 258236.480000
   2190   2193     1   0.15375 251793.120000
   2190   2202     1   0.14233 265014.560000
   2193   2194     1   0.15375 251793.120000
   2193   2201     1   0.14233 265014.560000
   2194   2195     1   0.15375 251793.120000
   2194   2200     1   0.14233 265014.560000
   2195   2199     1   0.14316 258236.480000
   2195   2211     1   0.14316 258236.480000
   2203   2209     1   0.14233 265014.560000
   2212   2213     1   0.15375 251793.120000
   2212   2226     1   0.15375 251793.120000
   2212   2234     1   0.14316 258236.480000
   2213   2216     1   0.15375 251793.120000
   2213   2225     1   0.14233 265014.560000
   2216   2217     1   0.15375 251793.120000
   2216   2224     1   0.14233 265014.560000
   2217   2218     1   0.15375 251793.120000
   2217   2223     1   0.14233 265014.560000
   2218   2222     1   0.14316 258236.480000
   2218   2234     1   0.14316 258236.480000
   2226   2232     1   0.14233 265014.560000
   2235   2236     1   0.15375 251793.120000
   2235   2249     1   0.15375 251793.120000
   2235   2257     1   0.14316 258236.480000
   2236   2239     1   0.15375 251793.120000
   2236   2248     1   0.14233 265014.560000
   2239   2240     1   0.15375 251793.120000
   2239   2247     1   0.14233 265014.560000
   2240   2241     1   0.15375 251793.120000
   2240   2246     1   0.14233 265014.560000
   2241   2245     1   0.14316 258236.480000
   2241   2257     1   0.14316 258236.480000
   2249   2255     1   0.14233 265014.560000
   2258   2259     1   0.15375 251793.120000
   2258   2272     1   0.15375 251793.120000
   2258   2280     1   0.14316 258236.480000
   2259   2262     1   0.15375 251793.120000
   2259   2271     1   0.14233 265014.560000
   2262   2263     1   0.15375 251793.120000
   2262   2270     1   0.14233 265014.560000
   2263   2264     1   0.15375 251793.120000
   2263   2269     1   0.14233 265014.560000
   2264   2268     1   0.14316 258236.480000
   2264   2280     1   0.14316 258236.480000
   2272   2278     1   0.14233 265014.560000
   2281   2282     1   0.15375 251793.120000
   2281   2295     1   0.15375 251793.120000
   2281   2303     1   0.14316 258236.480000
   2282   2285     1   0.15375 251793.120000
   2282   2294     1   0.14233 265014.560000
   2285   2286     1   0.15375 251793.120000
   2285   2293     1   0.14233 265014.560000
   2286   2287     1   0.15375 251793.120000
   2286   2292     1   0.14233 265014.560000
   2287   2291     1   0.14316 258236.480000
   2287   2303     1   0.14316 258236.480000
   2295   2301     1   0.14233 265014.560000
   2304   2305     1   0.15375 251793.120000
   2304   2318     1   0.15375 251793.120000
   2304   2326     1   0.14316 258236.480000
   2305   2308     1   0.15375 251793.120000
   2305   2317     1   0.14233 265014.560000
   2308   2309     1   0.15375 251793.120000
   2308   2316     1   0.14233 265014.560000
   2309   2310     1   0.15375 251793.120000
   2309   2315     1   0.14233 265014.560000
   2310   2314     1   0.14316 258236.480000
   2310   2326     1   0.14316 258236.480000
   2318   2324     1   0.14233 265014.560000
   2327   2328     1   0.15375 251793.120000
   2327   2341     1   0.15375 251793.120000
   2327   2349     1   0.14316 258236.480000
   2328   2331     1   0.15375 251793.120000
   2328   2340     1   0.14233 265014.560000
   2331   2332     1   0.15375 251793.120000
   2331   2339     1   0.14233 265014.560000
   2332   2333     1   0.15375 251793.120000
   2332   2338     1   0.14233 265014.560000
   2333   2337     1   0.14316 258236.480000
   2333   2349     1   0.14316 258236.480000
   2341   2347     1   0.14233 265014.560000
   2350   2351     1   0.15375 251793.120000
   2350   2364     1   0.15375 251793.120000
   2350   2372     1   0.14316 258236.480000
   2351   2354     1   0.15375 251793.120000
   2351   2363     1   0.14233 265014.560000
   2354   2355     1   0.15375 251793.120000
   2354   2362     1   0.14233 265014.560000
   2355   2356     1   0.15375 251793.120000
   2355   2361     1   0.14233 265014.560000
   2356   2360     1   0.14316 258236.480000
   2356   2372     1   0.14316 258236.480000
   2364   2370     1   0.14233 265014.560000
   2373   2374     1   0.15375 251793.120000
   2373   2387     1   0.15375 251793.120000
   2373   2395     1   0.14316 258236.480000
   2374   2377     1   0.15375 251793.120000
   2374   2386     1   0.14233 265014.560000
   2377   2378     1   0.15375 251793.120000
   2377   2385     1   0.14233 265014.560000
   2378   2379     1   0.15375 251793.120000
   2378   2384     1   0.14233 265014.560000
   2379   2383     1   0.14316 258236.480000
   2379   2395     1   0.14316 258236.480000
   2387   2393     1   0.14233 265014.560000
   2396   2397     1   0.15375 251793.120000
   2396   2410     1   0.15375 251793.120000
   2396   2418     1   0.14316 258236.480000
   2397   2400     1   0.15375 251793.120000
   2397   2409     1   0.14233 265014.560000
   2400   2401     1   0.15375 251793.120000
   2400   2408     1   0.14233 265014.560000
   2401   2402     1   0.15375 251793.120000
   2401   2407     1   0.14233 265014.560000
   2402   2406     1   0.14316 258236.480000
   2402   2418     1   0.14316 258236.480000
   2410   2416     1   0.14233 265014.560000
   2419   2420     1   0.15375 251793.120000
   2419   2433     1   0.15375 251793.120000
   2419   2441     1   0.14316 258236.480000
   2420   2423     1   0.15375 251793.120000
   2420   2432     1   0.14233 265014.560000
   2423   2424     1   0.15375 251793.120000
   2423   2431     1   0.14233 265014.560000
   2424   2425     1   0.15375 251793.120000
   2424   2430     1   0.14233 265014.560000
   2425   2429     1   0.14316 258236.480000
   2425   2441     1   0.14316 258236.480000
   2433   2439     1   0.14233 265014.560000
   2442   2443     1   0.15375 251793.120000
   2442   2456     1   0.15375 251793.120000
   2442   2464     1   0.14316 258236.480000
   2443   2446     1   0.15375 251793.120000
   2443   2455     1   0.14233 265014.560000
   2446   2447     1   0.15375 251793.120000
   2446   2454     1   0.14233 265014.560000
   2447   2448     1   0.15375 251793.120000
   2447   2453     1   0.14233 265014.560000
   2448   2452     1   0.14316 258236.480000
   2448   2464     1   0.14316 258236.480000
   2456   2462     1   0.14233 265014.560000
   2465   2466     1   0.15375 251793.120000
   2465   2479     1   0.15375 251793.120000
   2465   2487     1   0.14316 258236.480000
   2466   2469     1   0.15375 251793.120000
   2466   2478     1   0.14233 265014.560000
   2469   2470     1   0.15375 251793.120000
   2469   2477     1   0.14233 265014.560000
   2470   2471     1   0.15375 251793.120000
   2470   2476     1   0.14233 265014.560000
   2471   2475     1   0.14316 258236.480000
   2471   2487     1   0.14316 258236.480000
   2479   2485     1   0.14233 265014.560000
   2488   2489     1   0.15375 251793.120000
   2488   2502     1   0.15375 251793.120000
   2488   2510     1   0.14316 258236.480000
   2489   2492     1   0.15375 251793.120000
   2489   2501     1   0.14233 265014.560000
   2492   2493     1   0.15375 251793.120000
   2492   2500     1   0.14233 265014.560000
   2493   2494     1   0.15375 251793.120000
   2493   2499     1   0.14233 265014.560000
   2494   2498     1   0.14316 258236.480000
   2494   2510     1   0.14316 258236.480000
   2502   2508     1   0.14233 265014.560000
   2511   2512     1   0.15375 251793.120000
   2511   2525     1   0.15375 251793.120000
   2511   2533     1   0.14316 258236.480000
   2512   2515     1   0.15375 251793.120000
   2512   2524     1   0.14233 265014.560000
   2515   2516     1   0.15375 251793.120000
   2515   2523     1   0.14233 265014.560000
   2516   2517     1   0.15375 251793.120000
   2516   2522     1   0.14233 265014.560000
   2517   2521     1   0.14316 258236.480000
   2517   2533     1   0.14316 258236.480000
   2525   2531     1   0.14233 265014.560000
   2534   2535     1   0.15375 251793.120000
   2534   2548     1   0.15375 251793.120000
   2534   2556     1   0.14316 258236.480000
   2535   2538     1   0.15375 251793.120000
   2535   2547     1   0.14233 265014.560000
   2538   2539     1   0.15375 251793.120000
   2538   2546     1   0.14233 265014.560000
   2539   2540     1   0.15375 251793.120000
   2539   2545     1   0.14233 265014.560000
   2540   2544     1   0.14316 258236.480000
   2540   2556     1   0.14316 258236.480000
   2548   2554     1   0.14233 265014.560000
   2557   2558     1   0.15375 251793.120000
   2557   2571     1   0.15375 251793.120000
   2557   2579     1   0.14316 258236.480000
   2558   2561     1   0.15375 251793.120000
   2558   2570     1   0.14233 265014.560000
   2561   2562     1   0.15375 251793.120000
   2561   2569     1   0.14233 265014.560000
   2562   2563     1   0.15375 251793.120000
   2562   2568     1   0.14233 265014.560000
   2563   2567     1   0.14316 258236.480000
   2563   2579     1   0.14316 258236.480000
   2571   2577     1   0.14233 265014.560000
   2580   2581     1   0.15375 251793.120000
   2580   2594     1   0.15375 251793.120000
   2580   2602     1   0.14316 258236.480000
   2581   2584     1   0.15375 251793.120000
   2581   2593     1   0.14233 265014.560000
   2584   2585     1   0.15375 251793.120000
   2584   2592     1   0.14233 265014.560000
   2585   2586     1   0.15375 251793.120000
   2585   2591     1   0.14233 265014.560000
   2586   2590     1   0.14316 258236.480000
   2586   2602     1   0.14316 258236.480000
   2594   2600     1   0.14233 265014.560000
   2603   2604     1   0.15375 251793.120000
   2603   2617     1   0.15375 251793.120000
   2603   2625     1   0.14316 258236.480000
   2604   2607     1   0.15375 251793.120000
   2604   2616     1   0.14233 265014.560000
   2607   2608     1   0.15375 251793.120000
   2607   2615     1   0.14233 265014.560000
   2608   2609     1   0.15375 251793.120000
   2608   2614     1   0.14233 265014.560000
   2609   2613     1   0.14316 258236.480000
   2609   2625     1   0.14316 258236.480000
   2617   2623     1   0.14233 265014.560000
   2626   2627     1   0.15375 251793.120000
   2626   2640     1   0.15375 251793.120000
   2626   2648     1   0.14316 258236.480000
   2627   2630     1   0.15375 251793.120000
   2627   2639     1   0.14233 265014.560000
   2630   2631     1   0.15375 251793.120000
   2630   2638     1   0.14233 265014.560000
   2631   2632     1   0.15375 251793.120000
   2631   2637     1   0.14233 265014.560000
   2632   2636     1   0.14316 258236.480000
   2632   2648     1   0.14316 258236.480000
   2640   2646     1   0.14233 265014.560000
   2649   2650     1   0.15375 251793.120000
   2649   2663     1   0.15375 251793.120000
   2649   2671     1   0.14316 258236.480000
   2650   2653     1   0.15375 251793.120000
   2650   2662     1   0.14233 265014.560000
   2653   2654     1   0.15375 251793.120000
   2653   2661     1   0.14233 265014.560000
   2654   2655     1   0.15375 251793.120000
   2654   2660     1   0.14233 265014.560000
   2655   2659     1   0.14316 258236.480000
   2655   2671     1   0.14316 258236.480000
   2663   2669     1   0.14233 265014.560000
   2672   2673     1   0.15375 251793.120000
   2672   2686     1   0.15375 251793.120000
   2672   2694     1   0.14316 258236.480000
   2673   2676     1   0.15375 251793.120000
   2673   2685     1   0.14233 265014.560000
   2676   2677     1   0.15375 251793.120000
   2676   2684     1   0.14233 265014.560000
   2677   2678     1   0.15375 251793.120000
   2677   2683     1   0.14233 265014.560000
   2678   2682     1   0.14316 258236.480000
   2678   2694     1   0.14316 258236.480000
   2686   2692     1   0.14233 265014.560000
   2695   2696     1   0.15375 251793.120000
   2695   2709     1   0.15375 251793.120000
   2695   2717     1   0.14316 258236.480000
   2696   2699     1   0.15375 251793.120000
   2696   2708     1   0.14233 265014.560000
   2699   2700     1   0.15375 251793.120000
   2699   2707     1   0.14233 265014.560000
   2700   2701     1   0.15375 251793.120000
   2700   2706     1   0.14233 265014.560000
   2701   2705     1   0.14316 258236.480000
   2701   2717     1   0.14316 258236.480000
   2709   2715     1   0.14233 265014.560000
   2718   2719     1   0.15375 251793.120000
   2718   2732     1   0.15375 251793.120000
   2718   2740     1   0.14316 258236.480000
   2719   2722     1   0.15375 251793.120000
   2719   2731     1   0.14233 265014.560000
   2722   2723     1   0.15375 251793.120000
   2722   2730     1   0.14233 265014.560000
   2723   2724     1   0.15375 251793.120000
   2723   2729     1   0.14233 265014.560000
   2724   2728     1   0.14316 258236.480000
   2724   2740     1   0.14316 258236.480000
   2732   2738     1   0.14233 265014.560000
   2741   2742     1   0.15375 251793.120000
   2741   2755     1   0.15375 251793.120000
   2741   2763     1   0.14316 258236.480000
   2742   2745     1   0.15375 251793.120000
   2742   2754     1   0.14233 265014.560000
   2745   2746     1   0.15375 251793.120000
   2745   2753     1   0.14233 265014.560000
   2746   2747     1   0.15375 251793.120000
   2746   2752     1   0.14233 265014.560000
   2747   2751     1   0.14316 258236.480000
   2747   2763     1   0.14316 258236.480000
   2755   2761     1   0.14233 265014.560000
   2764   2765     1   0.15375 251793.120000
   2764   2778     1   0.15375 251793.120000
   2764   2786     1   0.14316 258236.480000
   2765   2768     1   0.15375 251793.120000
   2765   2777     1   0.14233 265014.560000
   2768   2769     1   0.15375 251793.120000
   2768   2776     1   0.14233 265014.560000
   2769   2770     1   0.15375 251793.120000
   2769   2775     1   0.14233 265014.560000
   2770   2774     1   0.14316 258236.480000
   2770   2786     1   0.14316 258236.480000
   2778   2784     1   0.14233 265014.560000
   2787   2788     1   0.15375 251793.120000
   2787   2801     1   0.15375 251793.120000
   2787   2809     1   0.14316 258236.480000
   2788   2791     1   0.15375 251793.120000
   2788   2800     1   0.14233 265014.560000
   2791   2792     1   0.15375 251793.120000
   2791   2799     1   0.14233 265014.560000
   2792   2793     1   0.15375 251793.120000
   2792   2798     1   0.14233 265014.560000
   2793   2797     1   0.14316 258236.480000
   2793   2809     1   0.14316 258236.480000
   2801   2807     1   0.14233 265014.560000
   2810   2811     1   0.15375 251793.120000
   2810   2824     1   0.15375 251793.120000
   2810   2832     1   0.14316 258236.480000
   2811   2814     1   0.15375 251793.120000
   2811   2823     1   0.14233 265014.560000
   2814   2815     1   0.15375 251793.120000
   2814   2822     1   0.14233 265014.560000
   2815   2816     1   0.15375 251793.120000
   2815   2821     1   0.14233 265014.560000
   2816   2820     1   0.14316 258236.480000
   2816   2832     1   0.14316 258236.480000
   2824   2830     1   0.14233 265014.560000
   2833   2834     1   0.15375 251793.120000
   2833   2847     1   0.15375 251793.120000
   2833   2855     1   0.14316 258236.480000
   2834   2837     1   0.15375 251793.120000
   2834   2846     1   0.14233 265014.560000
   2837   2838     1   0.15375 251793.120000
   2837   2845     1   0.14233 265014.560000
   2838   2839     1   0.15375 251793.120000
   2838   2844     1   0.14233 265014.560000
   2839   2843     1   0.14316 258236.480000
   2839   2855     1   0.14316 258236.480000
   2847   2853     1   0.14233 265014.560000
   2856   2857     1   0.15375 251793.120000
   2856   2870     1   0.15375 251793.120000
   2856   2878     1   0.14316 258236.480000
   2857   2860     1   0.15375 251793.120000
   2857   2869     1   0.14233 265014.560000
   2860   2861     1   0.15375 251793.120000
   2860   2868     1   0.14233 265014.560000
   2861   2862     1   0.15375 251793.120000
   2861   2867     1   0.14233 265014.560000
   2862   2866     1   0.14316 258236.480000
   2862   2878     1   0.14316 258236.480000
   2870   2876     1   0.14233 265014.560000
   2879   2880     1   0.15375 251793.120000
   2879   2893     1   0.15375 251793.120000
   2879   2901     1   0.14316 258236.480000
   2880   2883     1   0.15375 251793.120000
   2880   2892     1   0.14233 265014.560000
   2883   2884     1   0.15375 251793.120000
   2883   2891     1   0.14233 265014.560000
   2884   2885     1   0.15375 251793.120000
   2884   2890     1   0.14233 265014.560000
   2885   2889     1   0.14316 258236.480000
   2885   2901     1   0.14316 258236.480000
   2893   2899     1   0.14233 265014.560000
   2902   2903     1   0.15375 251793.120000
   2902   2916     1   0.15375 251793.120000
   2902   2924     1   0.14316 258236.480000
   2903   2906     1   0.15375 251793.120000
   2903   2915     1   0.14233 265014.560000
   2906   2907     1   0.15375 251793.120000
   2906   2914     1   0.14233 265014.560000
   2907   2908     1   0.15375 251793.120000
   2907   2913     1   0.14233 265014.560000
   2908   2912     1   0.14316 258236.480000
   2908   2924     1   0.14316 258236.480000
   2916   2922     1   0.14233 265014.560000
   2925   2926     1   0.15375 251793.120000
   2925   2939     1   0.15375 251793.120000
   2925   2947     1   0.14316 258236.480000
   2926   2929     1   0.15375 251793.120000
   2926   2938     1   0.14233 265014.560000
   2929   2930     1   0.15375 251793.120000
   2929   2937     1   0.14233 265014.560000
   2930   2931     1   0.15375 251793.120000
   2930   2936     1   0.14233 265014.560000
   2931   2935     1   0.14316 258236.480000
   2931   2947     1   0.14316 258236.480000
   2939   2945     1   0.14233 265014.560000
   2948   2949     1   0.15375 251793.120000
   2948   2962     1   0.15375 251793.120000
   2948   2970     1   0.14316 258236.480000
   2949   2952     1   0.15375 251793.120000
   2949   2961     1   0.14233 265014.560000
   2952   2953     1   0.15375 251793.120000
   2952   2960     1   0.14233 265014.560000
   2953   2954     1   0.15375 251793.120000
   2953   2959     1   0.14233 265014.560000
   2954   2958     1   0.14316 258236.480000
   2954   2970     1   0.14316 258236.480000
   2962   2968     1   0.14233 265014.560000
   2971   2972     1   0.15375 251793.120000
   2971   2985     1   0.15375 251793.120000
   2971   2993     1   0.14316 258236.480000
   2972   2975     1   0.15375 251793.120000
   2972   2984     1   0.14233 265014.560000
   2975   2976     1   0.15375 251793.120000
   2975   2983     1   0.14233 265014.560000
   2976   2977     1   0.15375 251793.120000
   2976   2982     1   0.14233 265014.560000
   2977   2981     1   0.14316 258236.480000
   2977   2993     1   0.14316 258236.480000
   2985   2991     1   0.14233 265014.560000
   2994   2995     1   0.15375 251793.120000
   2994   3008     1   0.15375 251793.120000
   2994   3016     1   0.14316 258236.480000
   2995   2998     1   0.15375 251793.120000
   2995   3007     1   0.14233 265014.560000
   2998   2999     1   0.15375 251793.120000
   2998   3006     1   0.14233 265014.560000
   2999   3000     1   0.15375 251793.120000
   2999   3005     1   0.14233 265014.560000
   3000   3004     1   0.14316 258236.480000
   3000   3016     1   0.14316 258236.480000
   3008   3014     1   0.14233 265014.560000
   3017   3018     1   0.15375 251793.120000
   3017   3031     1   0.15375 251793.120000
   3017   3039     1   0.14316 258236.480000
   3018   3021     1   0.15375 251793.120000
   3018   3030     1   0.14233 265014.560000
   3021   3022     1   0.15375 251793.120000
   3021   3029     1   0.14233 265014.560000
   3022   3023     1   0.15375 251793.120000
   3022   3028     1   0.14233 265014.560000
   3023   3027     1   0.14316 258236.480000
   3023   3039     1   0.14316 258236.480000
   3031   3037     1   0.14233 265014.560000
   3040   3041     1   0.15375 251793.120000
   3040   3054     1   0.15375 251793.120000
   3040   3062     1   0.14316 258236.480000
   3041   3044     1   0.15375 251793.120000
   3041   3053     1   0.14233 265014.560000
   3044   3045     1   0.15375 251793.120000
   3044   3052     1   0.14233 265014.560000
   3045   3046     1   0.15375 251793.120000
   3045   3051     1   0.14233 265014.560000
   3046   3050     1   0.14316 258236.480000
   3046   3062     1   0.14316 258236.480000
   3054   3060     1   0.14233 265014.560000
   3063   3064     1   0.15375 251793.120000
   3063   3077     1   0.15375 251793.120000
   3063   3085     1   0.14316 258236.480000
   3064   3067     1   0.15375 251793.120000
   3064   3076     1   0.14233 265014.560000
   3067   3068     1   0.15375 251793.120000
   3067   3075     1   0.14233 265014.560000
   3068   3069     1   0.15375 251793.120000
   3068   3074     1   0.14233 265014.560000
   3069   3073     1   0.14316 258236.480000
   3069   3085     1   0.14316 258236.480000
   3077   3083     1   0.14233 265014.560000
   3086   3087     1   0.15375 251793.120000
   3086   3100     1   0.15375 251793.120000
   3086   3108     1   0.14316 258236.480000
   3087   3090     1   0.15375 251793.120000
   3087   3099     1   0.14233 265014.560000
   3090   3091     1   0.15375 251793.120000
   3090   3098     1   0.14233 265014.560000
   3091   3092     1   0.15375 251793.120000
   3091   3097     1   0.14233 265014.560000
   3092   3096     1   0.14316 258236.480000
   3092   3108     1   0.14316 258236.480000
   3100   3106     1   0.14233 265014.560000
   3109   3110     1   0.15375 251793.120000
   3109   3123     1   0.15375 251793.120000
   3109   3131     1   0.14316 258236.480000
   3110   3113     1   0.15375 251793.120000
   3110   3122     1   0.14233 265014.560000
   3113   3114     1   0.15375 251793.120000
   3113   3121     1   0.14233 265014.560000
   3114   3115     1   0.15375 251793.120000
   3114   3120     1   0.14233 265014.560000
   3115   3119     1   0.14316 258236.480000
   3115   3131     1   0.14316 258236.480000
   3123   3129     1   0.14233 265014.560000
   3132   3133     1   0.15375 251793.120000
   3132   3146     1   0.15375 251793.120000
   3132   3154     1   0.14316 258236.480000
   3133   3136     1   0.15375 251793.120000
   3133   3145     1   0.14233 265014.560000
   3136   3137     1   0.15375 251793.120000
   3136   3144     1   0.14233 265014.560000
   3137   3138     1   0.15375 251793.120000
   3137   3143     1   0.14233 265014.560000
   3138   3142     1   0.14316 258236.480000
   3138   3154     1   0.14316 258236.480000
   3146   3152     1   0.14233 265014.560000
   3155   3156     1   0.15375 251793.120000
   3155   3169     1   0.15375 251793.120000
   3155   3177     1   0.14316 258236.480000
   3156   3159     1   0.15375 251793.120000
   3156   3168     1   0.14233 265014.560000
   3159   3160     1   0.15375 251793.120000
   3159   3167     1   0.14233 265014.560000
   3160   3161     1   0.15375 251793.120000
   3160   3166     1   0.14233 265014.560000
   3161   3165     1   0.14316 258236.480000
   3161   3177     1   0.14316 258236.480000
   3169   3175     1   0.14233 265014.560000
   3178   3179     1   0.15375 251793.120000
   3178   3192     1   0.15375 251793.120000
   3178   3200     1   0.14316 258236.480000
   3179   3182     1   0.15375 251793.120000
   3179   3191     1   0.14233 265014.560000
   3182   3183     1   0.15375 251793.120000
   3182   3190     1   0.14233 265014.560000
   3183   3184     1   0.15375 251793.120000
   3183   3189     1   0.14233 265014.560000
   3184   3188     1   0.14316 258236.480000
   3184   3200     1   0.14316 258236.480000
   3192   3198     1   0.14233 265014.560000
   3201   3202     1   0.15375 251793.120000
   3201   3215     1   0.15375 251793.120000
   3201   3223     1   0.14316 258236.480000
   3202   3205     1   0.15375 251793.120000
   3202   3214     1   0.14233 265014.560000
   3205   3206     1   0.15375 251793.120000
   3205   3213     1   0.14233 265014.560000
   3206   3207     1   0.15375 251793.120000
   3206   3212     1   0.14233 265014.560000
   3207   3211     1   0.14316 258236.480000
   3207   3223     1   0.14316 258236.480000
   3215   3221     1   0.14233 265014.560000
   3224   3225     1   0.15375 251793.120000
   3224   3238     1   0.15375 251793.120000
   3224   3246     1   0.14316 258236.480000
   3225   3228     1   0.15375 251793.120000
   3225   3237     1   0.14233 265014.560000
   3228   3229     1   0.15375 251793.120000
   3228   3236     1   0.14233 265014.560000
   3229   3230     1   0.15375 251793.120000
   3229   3235     1   0.14233 265014.560000
   3230   3234     1   0.14316 258236.480000
   3230   3246     1   0.14316 258236.480000
   3238   3244     1   0.14233 265014.560000
   3247   3248     1   0.15375 251793.120000
   3247   3261     1   0.15375 251793.120000
   3247   3269     1   0.14316 258236.480000
   3248   3251     1   0.15375 251793.120000
   3248   3260     1   0.14233 265014.560000
   3251   3252     1   0.15375 251793.120000
   3251   3259     1   0.14233 265014.560000
   3252   3253     1   0.15375 251793.120000
   3252   3258     1   0.14233 265014.560000
   3253   3257     1   0.14316 258236.480000
   3253   3269     1   0.14316 258236.480000
   3261   3267     1   0.14233 265014.560000
      2      3     1   0.10969 276646.080000
      2      4     1   0.10969 276646.080000
      5      6     1   0.10969 276646.080000
      5      7     1   0.10969 276646.080000
      8      9     1   0.10969 276646.080000
      8     10     1   0.10969 276646.080000
     11     12     1   0.10969 276646.080000
     11     13     1   0.10969 276646.080000
     14     15     1   0.10969 276646.080000
     14     16     1   0.10969 276646.080000
     17     18     1   0.10969 276646.080000
     17     19     1   0.10969 276646.080000
     22     23     1   0.10969 276646.080000
     22     24     1   0.10969 276646.080000
     25     26     1   0.10969 276646.080000
     25     27     1   0.10969 276646.080000
     28     29     1   0.10969 276646.080000
     28     30     1   0.10969 276646.080000
     31     32     1   0.10969 276646.080000
     31     33     1   0.10969 276646.080000
     34     35     1   0.10969 276646.080000
     34     36     1   0.10969 276646.080000
     37     38     1   0.10969 276646.080000
     37     39     1   0.10969 276646.080000
     40     41     1   0.10969 276646.080000
     40     42     1   0.10969 276646.080000
     43     44     1   0.10969 276646.080000
     43     45     1   0.10969 276646.080000
     46     47     1   0.10969 276646.080000
     46     48     1   0.10969 276646.080000
     49     50     1   0.10969 276646.080000
     49     51     1   0.10969 276646.080000
     52     53     1   0.10969 276646.080000
     52     54     1   0.10969 276646.080000
     55     56     1   0.10969 276646.080000
     55     57     1   0.10969 276646.080000
     59     60     1   0.10969 276646.080000
     59     61     1   0.10969 276646.080000
     62     63     1   0.10969 276646.080000
     62     64     1   0.10969 276646.080000
     65     66     1   0.10969 276646.080000
     65     67     1   0.10969 276646.080000
     68     69     1   0.10969 276646.080000
     68     70     1   0.10969 276646.080000
     71     72     1   0.10969 276646.080000
     71     73     1   0.10969 276646.080000
     74     75     1   0.10969 276646.080000
     74     76     1   0.10969 276646.080000
     77     78     1   0.10969 276646.080000
     77     79     1   0.10969 276646.080000
     80     81     1   0.10969 276646.080000
     80     82     1   0.10969 276646.080000
     83     84     1   0.10969 276646.080000
     83     85     1   0.10969 276646.080000
     88     89     1   0.10969 276646.080000
     88     90     1   0.10969 276646.080000
     91     92     1   0.10969 276646.080000
     91     93     1   0.10969 276646.080000
     94     95     1   0.10969 276646.080000
     94     96     1   0.10969 276646.080000
     97     98     1   0.10969 276646.080000
     97     99     1   0.10969 276646.080000
    100    101     1   0.10969 276646.080000
    100    102     1   0.10969 276646.080000
    103    104     1   0.10969 276646.080000
    103    105     1   0.10969 276646.080000
    106    107     1   0.10969 276646.080000
    106    108     1   0.10969 276646.080000
    109    110     1   0.10969 276646.080000
    109    111     1   0.10969 276646.080000
    112    113     1   0.10969 276646.080000
    112    114     1   0.10969 276646.080000
    117    118     1   0.10969 276646.080000
    117    119     1   0.10969 276646.080000
    120    121     1   0.10969 276646.080000
    120    122     1   0.10969 276646.080000
    123    124     1   0.10969 276646.080000
    123    125     1   0.10969 276646.080000
    126    127     1   0.10969 276646.080000
    126    128     1   0.10969 276646.080000
    129    130     1   0.10969 276646.080000
    129    131     1   0.10969 276646.080000
    132    133     1   0.10969 276646.080000
    132    134     1   0.10969 276646.080000
    135    136     1   0.10969 276646.080000
    135    137     1   0.10969 276646.080000
    138    139     1   0.10969 276646.080000
    138    140     1   0.10969 276646.080000
    141    142     1   0.10969 276646.080000
    141    143     1   0.10969 276646.080000
    146    147     1   0.10969 276646.080000
    146    148     1   0.10969 276646.080000
    149    150     1   0.10969 276646.080000
    149    151     1   0.10969 276646.080000
    152    153     1   0.10969 276646.080000
    152    154     1   0.10969 276646.080000
    155    156     1   0.10969 276646.080000
    155    157     1   0.10969 276646.080000
    158    159     1   0.10969 276646.080000
    158    160     1   0.10969 276646.080000
    161    162     1   0.10969 276646.080000
    161    163     1   0.10969 276646.080000
    164    165     1   0.10969 276646.080000
    164    166     1   0.10969 276646.080000
    167    168     1   0.10969 276646.080000
    167    169     1   0.10969 276646.080000
    170    171     1   0.10969 276646.080000
    170    172     1   0.10969 276646.080000
    175    176     1   0.10969 276646.080000
    175    177     1   0.10969 276646.080000
    178    179     1   0.10969 276646.080000
    178    180     1   0.10969 276646.080000
    181    182     1   0.10969 276646.080000
    181    183     1   0.10969 276646.080000
    184    185     1   0.10969 276646.080000
    184    186     1   0.10969 276646.080000
    187    188     1   0.10969 276646.080000
    187    189     1   0.10969 276646.080000
    190    191     1   0.10969 276646.080000
    190    192     1   0.10969 276646.080000
    193    194     1   0.10969 276646.080000
    193    195     1   0.10969 276646.080000
    196    197     1   0.10969 276646.080000
    196    198     1   0.10969 276646.080000
    199    200     1   0.10969 276646.080000
    199    201     1   0.10969 276646.080000
    204    205     1   0.10969 276646.080000
    204    206     1   0.10969 276646.080000
    207    208     1   0.10969 276646.080000
    207    209     1   0.10969 276646.080000
    210    211     1   0.10969 276646.080000
    210    212     1   0.10969 276646.080000
    213    214     1   0.10969 276646.080000
    213    215     1   0.10969 276646.080000
    216    217     1   0.10969 276646.080000
    216    218     1   0.10969 276646.080000
    219    220     1   0.10969 276646.080000
    219    221     1   0.10969 276646.080000
    222    223     1   0.10969 276646.080000
    222    224     1   0.10969 276646.080000
    225    226     1   0.10969 276646.080000
    225    227     1   0.10969 276646.080000
    228    229     1   0.10969 276646.080000
    228    230     1   0.10969 276646.080000
    233    234     1   0.10969 276646.080000
    233    235     1   0.10969 276646.080000
    236    237     1   0.10969 276646.080000
    236    238     1   0.10969 276646.080000
    239    240     1   0.10969 276646.080000
    239    241     1   0.10969 276646.080000
    242    243     1   0.10969 276646.080000
    242    244     1   0.10969 276646.080000
    245    246     1   0.10969 276646.080000
    245    247     1   0.10969 276646.080000
    248    249     1   0.10969 276646.080000
    248    250     1   0.10969 276646.080000
    251    252     1   0.10969 276646.080000
    251    253     1   0.10969 276646.080000
    254    255     1   0.10969 276646.080000
    254    256     1   0.10969 276646.080000
    257    258     1   0.10969 276646.080000
    257    259     1   0.10969 276646.080000
    262    263     1   0.10969 276646.080000
    262    264     1   0.10969 276646.080000
    265    266     1   0.10969 276646.080000
    265    267     1   0.10969 276646.080000
    268    269     1   0.10969 276646.080000
    268    270     1   0.10969 276646.080000
    271    272     1   0.10969 276646.080000
    271    273     1   0.10969 276646.080000
    274    275     1   0.10969 276646.080000
    274    276     1   0.10969 276646.080000
    277    278     1   0.10969 276646.080000
    277    279     1   0.10969 276646.080000
    280    281     1   0.10969 276646.080000
    280    282     1   0.10969 276646.080000
    283    284     1   0.10969 276646.080000
    283    285     1   0.10969 276646.080000
    286    287     1   0.10969 276646.080000
    286    288     1   0.10969 276646.080000
    291    292     1   0.10969 276646.080000
    291    293     1   0.10969 276646.080000
    294    295     1   0.10969 276646.080000
    294    296     1   0.10969 276646.080000
    297    298     1   0.10969 276646.080000
    297    299     1   0.10969 276646.080000
    300    301     1   0.10969 276646.080000
    300    302     1   0.10969 276646.080000
    303    304     1   0.10969 276646.080000
    303    305     1   0.10969 276646.080000
    306    307     1   0.10969 276646.080000
    306    308     1   0.10969 276646.080000
    309    310     1   0.10969 276646.080000
    309    311     1   0.10969 276646.080000
    312    313     1   0.10969 276646.080000
    312    314     1   0.10969 276646.080000
    315    316     1   0.10969 276646.080000
    315    317     1   0.10969 276646.080000
    320    321     1   0.10969 276646.080000
    320    322     1   0.10969 276646.080000
    323    324     1   0.10969 276646.080000
    323    325     1   0.10969 276646.080000
    326    327     1   0.10969 276646.080000
    326    328     1   0.10969 276646.080000
    329    330     1   0.10969 276646.080000
    329    331     1   0.10969 276646.080000
    332    333     1   0.10969 276646.080000
    332    334     1   0.10969 276646.080000
    335    336     1   0.10969 276646.080000
    335    337     1   0.10969 276646.080000
    338    339     1   0.10969 276646.080000
    338    340     1   0.10969 276646.080000
    341    342     1   0.10969 276646.080000
    341    343     1   0.10969 276646.080000
    344    345     1   0.10969 276646.080000
    344    346     1   0.10969 276646.080000
    349    350     1   0.10969 276646.080000
    349    351     1   0.10969 276646.080000
    352    353     1   0.10969 276646.080000
    352    354     1   0.10969 276646.080000
    355    356     1   0.10969 276646.080000
    355    357     1   0.10969 276646.080000
    358    359     1   0.10969 276646.080000
    358    360     1   0.10969 276646.080000
    361    362     1   0.10969 276646.080000
    361    363     1   0.10969 276646.080000
    364    365     1   0.10969 276646.080000
    364    366     1   0.10969 276646.080000
    367    368     1   0.10969 276646.080000
    367    369     1   0.10969 276646.080000
    370    371     1   0.10969 276646.080000
    370    372     1   0.10969 276646.080000
    373    374     1   0.10969 276646.080000
    373    375     1   0.10969 276646.080000
    378    379     1   0.10969 276646.080000
    378    380     1   0.10969 276646.080000
    381    382     1   0.10969 276646.080000
    381    383     1   0.10969 276646.080000
    384    385     1   0.10969 276646.080000
    384    386     1   0.10969 276646.080000
    387    388     1   0.10969 276646.080000
    387    389     1   0.10969 276646.080000
    390    391     1   0.10969 276646.080000
    390    392     1   0.10969 276646.080000
    393    394     1   0.10969 276646.080000
    393    395     1   0.10969 276646.080000
    396    397     1   0.10969 276646.080000
    396    398     1   0.10969 276646.080000
    399    400     1   0.10969 276646.080000
    399    401     1   0.10969 276646.080000
    402    403     1   0.10969 276646.080000
    402    404     1   0.10969 276646.080000
    407    408     1   0.10969 276646.080000
    407    409     1   0.10969 276646.080000
    410    411     1   0.10969 276646.080000
    410    412     1   0.10969 276646.080000
    413    414     1   0.10969 276646.080000
    413    415     1   0.10969 276646.080000
    416    417     1   0.10969 276646.080000
    416    418     1   0.10969 276646.080000
    419    420     1   0.10969 276646.080000
    419    421     1   0.10969 276646.080000
    422    423     1   0.10969 276646.080000
    422    424     1   0.10969 276646.080000
    425    426     1   0.10969 276646.080000
    425    427     1   0.10969 276646.080000
    428    429     1   0.10969 276646.080000
    428    430     1   0.10969 276646.080000
    431    432     1   0.10969 276646.080000
    431    433     1   0.10969 276646.080000
    436    437     1   0.10969 276646.080000
    436    438     1   0.10969 276646.080000
    439    440     1   0.10969 276646.080000
    439    441     1   0.10969 276646.080000
    442    443     1   0.10969 276646.080000
    442    444     1   0.10969 276646.080000
    445    446     1   0.10969 276646.080000
    445    447     1   0.10969 276646.080000
    448    449     1   0.10969 276646.080000
    448    450     1   0.10969 276646.080000
    451    452     1   0.10969 276646.080000
    451    453     1   0.10969 276646.080000
    454    455     1   0.10969 276646.080000
    454    456     1   0.10969 276646.080000
    457    458     1   0.10969 276646.080000
    457    459     1   0.10969 276646.080000
    460    461     1   0.10969 276646.080000
    460    462     1   0.10969 276646.080000
    465    466     1   0.10969 276646.080000
    465    467     1   0.10969 276646.080000
    468    469     1   0.10969 276646.080000
    468    470     1   0.10969 276646.080000
    471    472     1   0.10969 276646.080000
    471    473     1   0.10969 276646.080000
    474    475     1   0.10969 276646.080000
    474    476     1   0.10969 276646.080000
    477    478     1   0.10969 276646.080000
    477    479     1   0.10969 276646.080000
    480    481     1   0.10969 276646.080000
    480    482     1   0.10969 276646.080000
    483    484     1   0.10969 276646.080000
    483    485     1   0.10969 276646.080000
    486    487     1   0.10969 276646.080000
    486    488     1   0.10969 276646.080000
    489    490     1   0.10969 276646.080000
    489    491     1   0.10969 276646.080000
    494    495     1   0.10969 276646.080000
    494    496     1   0.10969 276646.080000
    497    498     1   0.10969 276646.080000
    497    499     1   0.10969 276646.080000
    500    501     1   0.10969 276646.080000
    500    502     1   0.10969 276646.080000
    503    504     1   0.10969 276646.080000
    503    505     1   0.10969 276646.080000
    506    507     1   0.10969 276646.080000
    506    508     1   0.10969 276646.080000
    509    510     1   0.10969 276646.080000
    509    511     1   0.10969 276646.080000
    512    513     1   0.10969 276646.080000
    512    514     1   0.10969 276646.080000
    515    516     1   0.10969 276646.080000
    515    517     1   0.10969 276646.080000
    518    519     1   0.10969 276646.080000
    518    520     1   0.10969 276646.080000
    523    524     1   0.10969 276646.080000
    523    525     1   0.10969 276646.080000
    526    527     1   0.10969 276646.080000
    526    528     1   0.10969 276646.080000
    529    530     1   0.10969 276646.080000
    529    531     1   0.10969 276646.080000
    532    533     1   0.10969 276646.080000
    532    534     1   0.10969 276646.080000
    535    536     1   0.10969 276646.080000
    535    537     1   0.10969 276646.080000
    538    539     1   0.10969 276646.080000
    538    540     1   0.10969 276646.080000
    541    542     1   0.10969 276646.080000
    541    543     1   0.10969 276646.080000
    544    545     1   0.10969 276646.080000
    544    546     1   0.10969 276646.080000
    547    548     1   0.10969 276646.080000
    547    549     1   0.10969 276646.080000
    552    553     1   0.10969 276646.080000
    552    554     1   0.10969 276646.080000
    555    556     1   0.10969 276646.080000
    555    557     1   0.10969 276646.080000
    558    559     1   0.10969 276646.080000
    558    560     1   0.10969 276646.080000
    561    562     1   0.10969 276646.080000
    561    563     1   0.10969 276646.080000
    564    565     1   0.10969 276646.080000
    564    566     1   0.10969 276646.080000
    567    568     1   0.10969 276646.080000
    567    569     1   0.10969 276646.080000
    570    571     1   0.10969 276646.080000
    570    572     1   0.10969 276646.080000
    573    574     1   0.10969 276646.080000
    573    575     1   0.10969 276646.080000
    576    577     1   0.10969 276646.080000
    576    578     1   0.10969 276646.080000
    581    582     1   0.10969 276646.080000
    581    583     1   0.10969 276646.080000
    584    585     1   0.10969 276646.080000
    584    586     1   0.10969 276646.080000
    587    588     1   0.10969 276646.080000
    587    589     1   0.10969 276646.080000
    590    591     1   0.10969 276646.080000
    590    592     1   0.10969 276646.080000
    593    594     1   0.10969 276646.080000
    593    595     1   0.10969 276646.080000
    596    597     1   0.10969 276646.080000
    596    598     1   0.10969 276646.080000
    599    600     1   0.10969 276646.080000
    599    601     1   0.10969 276646.080000
    602    603     1   0.10969 276646.080000
    602    604     1   0.10969 276646.080000
    605    606     1   0.10969 276646.080000
    605    607     1   0.10969 276646.080000
    610    611     1   0.10969 276646.080000
    610    612     1   0.10969 276646.080000
    613    614     1   0.10969 276646.080000
    613    615     1   0.10969 276646.080000
    616    617     1   0.10969 276646.080000
    616    618     1   0.10969 276646.080000
    619    620     1   0.10969 276646.080000
    619    621     1   0.10969 276646.080000
    622    623     1   0.10969 276646.080000
    622    624     1   0.10969 276646.080000
    625    626     1   0.10969 276646.080000
    625    627     1   0.10969 276646.080000
    628    629     1   0.10969 276646.080000
    628    630     1   0.10969 276646.080000
    631    632     1   0.10969 276646.080000
    631    633     1   0.10969 276646.080000
    634    635     1   0.10969 276646.080000
    634    636     1   0.10969 276646.080000
    639    640     1   0.10969 276646.080000
    639    641     1   0.10969 276646.080000
    642    643     1   0.10969 276646.080000
    642    644     1   0.10969 276646.080000
    645    646     1   0.10969 276646.080000
    645    647     1   0.10969 276646.080000
    648    649     1   0.10969 276646.080000
    648    650     1   0.10969 276646.080000
    651    652     1   0.10969 276646.080000
    651    653     1   0.10969 276646.080000
    654    655     1   0.10969 276646.080000
    654    656     1   0.10969 276646.080000
    657    658     1   0.10969 276646.080000
    657    659     1   0.10969 276646.080000
    660    661     1   0.10969 276646.080000
    660    662     1   0.10969 276646.080000
    663    664     1   0.10969 276646.080000
    663    665     1   0.10969 276646.080000
    668    669     1   0.10969 276646.080000
    668    670     1   0.10969 276646.080000
    671    672     1   0.10969 276646.080000
    671    673     1   0.10969 276646.080000
    674    675     1   0.10969 276646.080000
    674    676     1   0.10969 276646.080000
    677    678     1   0.10969 276646.080000
    677    679     1   0.10969 276646.080000
    680    681     1   0.10969 276646.080000
    680    682     1   0.10969 276646.080000
    683    684     1   0.10969 276646.080000
    683    685     1   0.10969 276646.080000
    686    687     1   0.10969 276646.080000
    686    688     1   0.10969 276646.080000
    689    690     1   0.10969 276646.080000
    689    691     1   0.10969 276646.080000
    692    693     1   0.10969 276646.080000
    692    694     1   0.10969 276646.080000
    697    698     1   0.10969 276646.080000
    697    699     1   0.10969 276646.080000
    700    701     1   0.10969 276646.080000
    700    702     1   0.10969 276646.080000
    703    704     1   0.10969 276646.080000
    703    705     1   0.10969 276646.080000
    706    707     1   0.10969 276646.080000
    706    708     1   0.10969 276646.080000
    709    710     1   0.10969 276646.080000
    709    711     1   0.10969 276646.080000
    712    713     1   0.10969 276646.080000
    712    714     1   0.10969 276646.080000
    715    716     1   0.10969 276646.080000
    715    717     1   0.10969 276646.080000
    718    719     1   0.10969 276646.080000
    718    720     1   0.10969 276646.080000
    721    722     1   0.10969 276646.080000
    721    723     1   0.10969 276646.080000
    726    727     1   0.10969 276646.080000
    726    728     1   0.10969 276646.080000
    729    730     1   0.10969 276646.080000
    729    731     1   0.10969 276646.080000
    732    733     1   0.10969 276646.080000
    732    734     1   0.10969 276646.080000
    735    736     1   0.10969 276646.080000
    735    737     1   0.10969 276646.080000
    738    739     1   0.10969 276646.080000
    738    740     1   0.10969 276646.080000
    741    742     1   0.10969 276646.080000
    741    743     1   0.10969 276646.080000
    744    745     1   0.10969 276646.080000
    744    746     1   0.10969 276646.080000
    747    748     1   0.10969 276646.080000
    747    749     1   0.10969 276646.080000
    750    751     1   0.10969 276646.080000
    750    752     1   0.10969 276646.080000
    755    756     1   0.10969 276646.080000
    755    757     1   0.10969 276646.080000
    758    759     1   0.10969 276646.080000
    758    760     1   0.10969 276646.080000
    761    762     1   0.10969 276646.080000
    761    763     1   0.10969 276646.080000
    764    765     1   0.10969 276646.080000
    764    766     1   0.10969 276646.080000
    767    768     1   0.10969 276646.080000
    767    769     1   0.10969 276646.080000
    770    771     1   0.10969 276646.080000
    770    772     1   0.10969 276646.080000
    773    774     1   0.10969 276646.080000
    773    775     1   0.10969 276646.080000
    776    777     1   0.10969 276646.080000
    776    778     1   0.10969 276646.080000
    779    780     1   0.10969 276646.080000
    779    781     1   0.10969 276646.080000
    784    785     1   0.10969 276646.080000
    784    786     1   0.10969 276646.080000
    787    788     1   0.10969 276646.080000
    787    789     1   0.10969 276646.080000
    790    791     1   0.10969 276646.080000
    790    792     1   0.10969 276646.080000
    793    794     1   0.10969 276646.080000
    793    795     1   0.10969 276646.080000
    796    797     1   0.10969 276646.080000
    796    798     1   0.10969 276646.080000
    799    800     1   0.10969 276646.080000
    799    801     1   0.10969 276646.080000
    802    803     1   0.10969 276646.080000
    802    804     1   0.10969 276646.080000
    805    806     1   0.10969 276646.080000
    805    807     1   0.10969 276646.080000
    808    809     1   0.10969 276646.080000
    808    810     1   0.10969 276646.080000
    813    814     1   0.10969 276646.080000
    813    815     1   0.10969 276646.080000
    816    817     1   0.10969 276646.080000
    816    818     1   0.10969 276646.080000
    819    820     1   0.10969 276646.080000
    819    821     1   0.10969 276646.080000
    822    823     1   0.10969 276646.080000
    822    824     1   0.10969 276646.080000
    825    826     1   0.10969 276646.080000
    825    827     1   0.10969 276646.080000
    828    829     1   0.10969 276646.080000
    828    830     1   0.10969 276646.080000
    831    832     1   0.10969 276646.080000
    831    833     1   0.10969 276646.080000
    834    835     1   0.10969 276646.080000
    834    836     1   0.10969 276646.080000
    837    838     1   0.10969 276646.080000
    837    839     1   0.10969 276646.080000
    842    843     1   0.10969 276646.080000
    842    844     1   0.10969 276646.080000
    845    846     1   0.10969 276646.080000
    845    847     1   0.10969 276646.080000
    848    849     1   0.10969 276646.080000
    848    850     1   0.10969 276646.080000
    851    852     1   0.10969 276646.080000
    851    853     1   0.10969 276646.080000
    854    855     1   0.10969 276646.080000
    854    856     1   0.10969 276646.080000
    857    858     1   0.10969 276646.080000
    857    859     1   0.10969 276646.080000
    860    861     1   0.10969 276646.080000
    860    862     1   0.10969 276646.080000
    863    864     1   0.10969 276646.080000
    863    865     1   0.10969 276646.080000
    866    867     1   0.10969 276646.080000
    866    868     1   0.10969 276646.080000
    871    872     1   0.10969 276646.080000
    871    873     1   0.10969 276646.080000
    874    875     1   0.10969 276646.080000
    874    876     1   0.10969 276646.080000
    877    878     1   0.10969 276646.080000
    877    879     1   0.10969 276646.080000
    880    881     1   0.10969 276646.080000
    880    882     1   0.10969 276646.080000
    883    884     1   0.10969 276646.080000
    883    885     1   0.10969 276646.080000
    886    887     1   0.10969 276646.080000
    886    888     1   0.10969 276646.080000
    889    890     1   0.10969 276646.080000
    889    891     1   0.10969 276646.080000
    892    893     1   0.10969 276646.080000
    892    894     1   0.10969 276646.080000
    895    896     1   0.10969 276646.080000
    895    897     1   0.10969 276646.080000
    900    901     1   0.10969 276646.080000
    900    902     1   0.10969 276646.080000
    903    904     1   0.10969 276646.080000
    903    905     1   0.10969 276646.080000
    906    907     1   0.10969 276646.080000
    906    908     1   0.10969 276646.080000
    909    910     1   0.10969 276646.080000
    909    911     1   0.10969 276646.080000
    912    913     1   0.10969 276646.080000
    912    914     1   0.10969 276646.080000
    915    916     1   0.10969 276646.080000
    915    917     1   0.10969 276646.080000
    918    919     1   0.10969 276646.080000
    918    920     1   0.10969 276646.080000
    921    922     1   0.10969 276646.080000
    921    923     1   0.10969 276646.080000
    924    925     1   0.10969 276646.080000
    924    926     1   0.10969 276646.080000
    929    930     1   0.10969 276646.080000
    929    931     1   0.10969 276646.080000
    932    933     1   0.10969 276646.080000
    932    934     1   0.10969 276646.080000
    935    936     1   0.10969 276646.080000
    935    937     1   0.10969 276646.080000
    938    939     1   0.10969 276646.080000
    938    940     1   0.10969 276646.080000
    941    942     1   0.10969 276646.080000
    941    943     1   0.10969 276646.080000
    944    945     1   0.10969 276646.080000
    944    946     1   0.10969 276646.080000
    947    948     1   0.10969 276646.080000
    947    949     1   0.10969 276646.080000
    950    951     1   0.10969 276646.080000
    950    952     1   0.10969 276646.080000
    953    954     1   0.10969 276646.080000
    953    955     1   0.10969 276646.080000
    958    959     1   0.10969 276646.080000
    958    960     1   0.10969 276646.080000
    961    962     1   0.10969 276646.080000
    961    963     1   0.10969 276646.080000
    964    965     1   0.10969 276646.080000
    964    966     1   0.10969 276646.080000
    967    968     1   0.10969 276646.080000
    967    969     1   0.10969 276646.080000
    970    971     1   0.10969 276646.080000
    970    972     1   0.10969 276646.080000
    973    974     1   0.10969 276646.080000
    973    975     1   0.10969 276646.080000
    976    977     1   0.10969 276646.080000
    976    978     1   0.10969 276646.080000
    979    980     1   0.10969 276646.080000
    979    981     1   0.10969 276646.080000
    982    983     1   0.10969 276646.080000
    982    984     1   0.10969 276646.080000
    987    988     1   0.10969 276646.080000
    987    989     1   0.10969 276646.080000
    990    991     1   0.10969 276646.080000
    990    992     1   0.10969 276646.080000
    993    994     1   0.10969 276646.080000
    993    995     1   0.10969 276646.080000
    996    997     1   0.10969 276646.080000
    996    998     1   0.10969 276646.080000
    999   1000     1   0.10969 276646.080000
    999   1001     1   0.10969 276646.080000
   1002   1003     1   0.10969 276646.080000
   1002   1004     1   0.10969 276646.080000
   1005   1006     1   0.10969 276646.080000
   1005   1007     1   0.10969 276646.080000
   1008   1009     1   0.10969 276646.080000
   1008   1010     1   0.10969 276646.080000
   1011   1012     1   0.10969 276646.080000
   1011   1013     1   0.10969 276646.080000
   1016   1017     1   0.10969 276646.080000
   1016   1018     1   0.10969 276646.080000
   1019   1020     1   0.10969 276646.080000
   1019   1021     1   0.10969 276646.080000
   1022   1023     1   0.10969 276646.080000
   1022   1024     1   0.10969 276646.080000
   1025   1026     1   0.10969 276646.080000
   1025   1027     1   0.10969 276646.080000
   1028   1029     1   0.10969 276646.080000
   1028   1030     1   0.10969 276646.080000
   1031   1032     1   0.10969 276646.080000
   1031   1033     1   0.10969 276646.080000
   1034   1035     1   0.10969 276646.080000
   1034   1036     1   0.10969 276646.080000
   1037   1038     1   0.10969 276646.080000
   1037   1039     1   0.10969 276646.080000
   1040   1041     1   0.10969 276646.080000
   1040   1042     1   0.10969 276646.080000
   1045   1046     1   0.10969 276646.080000
   1045   1047     1   0.10969 276646.080000
   1048   1049     1   0.10969 276646.080000
   1048   1050     1   0.10969 276646.080000
   1051   1052     1   0.10969 276646.080000
   1051   1053     1   0.10969 276646.080000
   1054   1055     1   0.10969 276646.080000
   1054   1056     1   0.10969 276646.080000
   1057   1058     1   0.10969 276646.080000
   1057   1059     1   0.10969 276646.080000
   1060   1061     1   0.10969 276646.080000
   1060   1062     1   0.10969 276646.080000
   1063   1064     1   0.10969 276646.080000
   1063   1065     1   0.10969 276646.080000
   1066   1067     1   0.10969 276646.080000
   1066   1068     1   0.10969 276646.080000
   1069   1070     1   0.10969 276646.080000
   1069   1071     1   0.10969 276646.080000
   1074   1075     1   0.10969 276646.080000
   1074   1076     1   0.10969 276646.080000
   1077   1078     1   0.10969 276646.080000
   1077   1079     1   0.10969 276646.080000
   1080   1081     1   0.10969 276646.080000
   1080   1082     1   0.10969 276646.080000
   1083   1084     1   0.10969 276646.080000
   1083   1085     1   0.10969 276646.080000
   1086   1087     1   0.10969 276646.080000
   1086   1088     1   0.10969 276646.080000
   1089   1090     1   0.10969 276646.080000
   1089   1091     1   0.10969 276646.080000
   1092   1093     1   0.10969 276646.080000
   1092   1094     1   0.10969 276646.080000
   1095   1096     1   0.10969 276646.080000
   1095   1097     1   0.10969 276646.080000
   1098   1099     1   0.10969 276646.080000
   1098   1100     1   0.10969 276646.080000
   1103   1104     1   0.10969 276646.080000
   1103   1105     1   0.10969 276646.080000
   1106   1107     1   0.10969 276646.080000
   1106   1108     1   0.10969 276646.080000
   1109   1110     1   0.10969 276646.080000
   1109   1111     1   0.10969 276646.080000
   1112   1113     1   0.10969 276646.080000
   1112   1114     1   0.10969 276646.080000
   1115   1116     1   0.10969 276646.080000
   1115   1117     1   0.10969 276646.080000
   1118   1119     1   0.10969 276646.080000
   1118   1120     1   0.10969 276646.080000
   1121   1122     1   0.10969 276646.080000
   1121   1123     1   0.10969 276646.080000
   1124   1125     1   0.10969 276646.080000
   1124   1126     1   0.10969 276646.080000
   1127   1128     1   0.10969 276646.080000
   1127   1129     1   0.10969 276646.080000
   1132   1133     1   0.10969 276646.080000
   1132   1134     1   0.10969 276646.080000
   1135   1136     1   0.10969 276646.080000
   1135   1137     1   0.10969 276646.080000
   1138   1139     1   0.10969 276646.080000
   1138   1140     1   0.10969 276646.080000
   1141   1142     1   0.10969 276646.080000
   1141   1143     1   0.10969 276646.080000
   1144   1145     1   0.10969 276646.080000
   1144   1146     1   0.10969 276646.080000
   1147   1148     1   0.10969 276646.080000
   1147   1149     1   0.10969 276646.080000
   1150   1151     1   0.10969 276646.080000
   1150   1152     1   0.10969 276646.080000
   1153   1154     1   0.10969 276646.080000
   1153   1155     1   0.10969 276646.080000
   1156   1157     1   0.10969 276646.080000
   1156   1158     1   0.10969 276646.080000
   1161   1162     1   0.10969 276646.080000
   1161   1163     1   0.10969 276646.080000
   1164   1165     1   0.10969 276646.080000
   1164   1166     1   0.10969 276646.080000
   1167   1168     1   0.10969 276646.080000
   1167   1169     1   0.10969 276646.080000
   1170   1171     1   0.10969 276646.080000
   1170   1172     1   0.10969 276646.080000
   1173   1174     1   0.10969 276646.080000
   1173   1175     1   0.10969 276646.080000
   1176   1177     1   0.10969 276646.080000
   1176   1178     1   0.10969 276646.080000
   1179   1180     1   0.10969 276646.080000
   1179   1181     1   0.10969 276646.080000
   1182   1183     1   0.10969 276646.080000
   1182   1184     1   0.10969 276646.080000
   1185   1186     1   0.10969 276646.080000
   1185   1187     1   0.10969 276646.080000
   1190   1191     1   0.10969 276646.080000
   1190   1192     1   0.10969 276646.080000
   1193   1194     1   0.10969 276646.080000
   1193   1195     1   0.10969 276646.080000
   1196   1197     1   0.10969 276646.080000
   1196   1198     1   0.10969 276646.080000
   1199   1200     1   0.10969 276646.080000
   1199   1201     1   0.10969 276646.080000
   1202   1203     1   0.10969 276646.080000
   1202   1204     1   0.10969 276646.080000
   1205   1206     1   0.10969 276646.080000
   1205   1207     1   0.10969 276646.080000
   1208   1209     1   0.10969 276646.080000
   1208   1210     1   0.10969 276646.080000
   1211   1212     1   0.10969 276646.080000
   1211   1213     1   0.10969 276646.080000
   1214   1215     1   0.10969 276646.080000
   1214   1216     1   0.10969 276646.080000
   1219   1220     1   0.10969 276646.080000
   1219   1221     1   0.10969 276646.080000
   1222   1223     1   0.10969 276646.080000
   1222   1224     1   0.10969 276646.080000
   1225   1226     1   0.10969 276646.080000
   1225   1227     1   0.10969 276646.080000
   1228   1229     1   0.10969 276646.080000
   1228   1230     1   0.10969 276646.080000
   1231   1232     1   0.10969 276646.080000
   1231   1233     1   0.10969 276646.080000
   1234   1235     1   0.10969 276646.080000
   1234   1236     1   0.10969 276646.080000
   1237   1238     1   0.10969 276646.080000
   1237   1239     1   0.10969 276646.080000
   1240   1241     1   0.10969 276646.080000
   1240   1242     1   0.10969 276646.080000
   1243   1244     1   0.10969 276646.080000
   1243   1245     1   0.10969 276646.080000
   1248   1249     1   0.10969 276646.080000
   1248   1250     1   0.10969 276646.080000
   1251   1252     1   0.10969 276646.080000
   1251   1253     1   0.10969 276646.080000
   1254   1255     1   0.10969 276646.080000
   1254   1256     1   0.10969 276646.080000
   1257   1258     1   0.10969 276646.080000
   1257   1259     1   0.10969 276646.080000
   1260   1261     1   0.10969 276646.080000
   1260   1262     1   0.10969 276646.080000
   1263   1264     1   0.10969 276646.080000
   1263   1265     1   0.10969 276646.080000
   1266   1267     1   0.10969 276646.080000
   1266   1268     1   0.10969 276646.080000
   1269   1270     1   0.10969 276646.080000
   1269   1271     1   0.10969 276646.080000
   1272   1273     1   0.10969 276646.080000
   1272   1274     1   0.10969 276646.080000
   1277   1278     1   0.10969 276646.080000
   1277   1279     1   0.10969 276646.080000
   1280   1281     1   0.10969 276646.080000
   1280   1282     1   0.10969 276646.080000
   1283   1284     1   0.10969 276646.080000
   1283   1285     1   0.10969 276646.080000
   1286   1287     1   0.10969 276646.080000
   1286   1288     1   0.10969 276646.080000
   1289   1290     1   0.10969 276646.080000
   1289   1291     1   0.10969 276646.080000
   1292   1293     1   0.10969 276646.080000
   1292   1294     1   0.10969 276646.080000
   1295   1296     1   0.10969 276646.080000
   1295   1297     1   0.10969 276646.080000
   1298   1299     1   0.10969 276646.080000
   1298   1300     1   0.10969 276646.080000
   1301   1302     1   0.10969 276646.080000
   1301   1303     1   0.10969 276646.080000
   1306   1307     1   0.10969 276646.080000
   1306   1308     1   0.10969 276646.080000
   1309   1310     1   0.10969 276646.080000
   1309   1311     1   0.10969 276646.080000
   1312   1313     1   0.10969 276646.080000
   1312   1314     1   0.10969 276646.080000
   1315   1316     1   0.10969 276646.080000
   1315   1317     1   0.10969 276646.080000
   1318   1319     1   0.10969 276646.080000
   1318   1320     1   0.10969 276646.080000
   1321   1322     1   0.10969 276646.080000
   1321   1323     1   0.10969 276646.080000
   1324   1325     1   0.10969 276646.080000
   1324   1326     1   0.10969 276646.080000
   1327   1328     1   0.10969 276646.080000
   1327   1329     1   0.10969 276646.080000
   1330   1331     1   0.10969 276646.080000
   1330   1332     1   0.10969 276646.080000
   1335   1336     1   0.10969 276646.080000
   1335   1337     1   0.10969 276646.080000
   1338   1339     1   0.10969 276646.080000
   1338   1340     1   0.10969 276646.080000
   1341   1342     1   0.10969 276646.080000
   1341   1343     1   0.10969 276646.080000
   1344   1345     1   0.10969 276646.080000
   1344   1346     1   0.10969 276646.080000
   1347   1348     1   0.10969 276646.080000
   1347   1349     1   0.10969 276646.080000
   1350   1351     1   0.10969 276646.080000
   1350   1352     1   0.10969 276646.080000
   1353   1354     1   0.10969 276646.080000
   1353   1355     1   0.10969 276646.080000
   1356   1357     1   0.10969 276646.080000
   1356   1358     1   0.10969 276646.080000
   1359   1360     1   0.10969 276646.080000
   1359   1361     1   0.10969 276646.080000
   1364   1365     1   0.10969 276646.080000
   1364   1366     1   0.10969 276646.080000
   1367   1368     1   0.10969 276646.080000
   1367   1369     1   0.10969 276646.080000
   1370   1371     1   0.10969 276646.080000
   1370   1372     1   0.10969 276646.080000
   1373   1374     1   0.10969 276646.080000
   1373   1375     1   0.10969 276646.080000
   1376   1377     1   0.10969 276646.080000
   1376   1378     1   0.10969 276646.080000
   1379   1380     1   0.10969 276646.080000
   1379   1381     1   0.10969 276646.080000
   1382   1383     1   0.10969 276646.080000
   1382   1384     1   0.10969 276646.080000
   1385   1386     1   0.10969 276646.080000
   1385   1387     1   0.10969 276646.080000
   1388   1389     1   0.10969 276646.080000
   1388   1390     1   0.10969 276646.080000
   1393   1394     1   0.10969 276646.080000
   1393   1395     1   0.10969 276646.080000
   1396   1397     1   0.10969 276646.080000
   1396   1398     1   0.10969 276646.080000
   1399   1400     1   0.10969 276646.080000
   1399   1401     1   0.10969 276646.080000
   1402   1403     1   0.10969 276646.080000
   1402   1404     1   0.10969 276646.080000
   1405   1406     1   0.10969 276646.080000
   1405   1407     1   0.10969 276646.080000
   1408   1409     1   0.10969 276646.080000
   1408   1410     1   0.10969 276646.080000
   1411   1412     1   0.10969 276646.080000
   1411   1413     1   0.10969 276646.080000
   1414   1415     1   0.10969 276646.080000
   1414   1416     1   0.10969 276646.080000
   1417   1418     1   0.10969 276646.080000
   1417   1419     1   0.10969 276646.080000
   1422   1423     1   0.10969 276646.080000
   1422   1424     1   0.10969 276646.080000
   1425   1426     1   0.10969 276646.080000
   1425   1427     1   0.10969 276646.080000
   1428   1429     1   0.10969 276646.080000
   1428   1430     1   0.10969 276646.080000
   1431   1432     1   0.10969 276646.080000
   1431   1433     1   0.10969 276646.080000
   1434   1435     1   0.10969 276646.080000
   1434   1436     1   0.10969 276646.080000
   1437   1438     1   0.10969 276646.080000
   1437   1439     1   0.10969 276646.080000
   1440   1441     1   0.10969 276646.080000
   1440   1442     1   0.10969 276646.080000
   1443   1444     1   0.10969 276646.080000
   1443   1445     1   0.10969 276646.080000
   1446   1447     1   0.10969 276646.080000
   1446   1448     1   0.10969 276646.080000
   1451   1452     1   0.10969 276646.080000
   1451   1453     1   0.10969 276646.080000
   1454   1455     1   0.10969 276646.080000
   1454   1456     1   0.10969 276646.080000
   1457   1458     1   0.10969 276646.080000
   1457   1459     1   0.10969 276646.080000
   1460   1461     1   0.10969 276646.080000
   1460   1462     1   0.10969 276646.080000
   1463   1464     1   0.10969 276646.080000
   1463   1465     1   0.10969 276646.080000
   1466   1467     1   0.10969 276646.080000
   1466   1468     1   0.10969 276646.080000
   1469   1470     1   0.10969 276646.080000
   1469   1471     1   0.10969 276646.080000
   1472   1473     1   0.10969 276646.080000
   1472   1474     1   0.10969 276646.080000
   1475   1476     1   0.10969 276646.080000
   1475   1477     1   0.10969 276646.080000
   1480   1481     1   0.10969 276646.080000
   1480   1482     1   0.10969 276646.080000
   1483   1484     1   0.10969 276646.080000
   1483   1485     1   0.10969 276646.080000
   1486   1487     1   0.10969 276646.080000
   1486   1488     1   0.10969 276646.080000
   1489   1490     1   0.10969 276646.080000
   1489   1491     1   0.10969 276646.080000
   1492   1493     1   0.10969 276646.080000
   1492   1494     1   0.10969 276646.080000
   1495   1496     1   0.10969 276646.080000
   1495   1497     1   0.10969 276646.080000
   1498   1499     1   0.10969 276646.080000
   1498   1500     1   0.10969 276646.080000
   1501   1502     1   0.10969 276646.080000
   1501   1503     1   0.10969 276646.080000
   1504   1505     1   0.10969 276646.080000
   1504   1506     1   0.10969 276646.080000
   1509   1510     1   0.10969 276646.080000
   1509   1511     1   0.10969 276646.080000
   1512   1513     1   0.10969 276646.080000
   1512   1514     1   0.10969 276646.080000
   1515   1516     1   0.10969 276646.080000
   1515   1517     1   0.10969 276646.080000
   1518   1519     1   0.10969 276646.080000
   1518   1520     1   0.10969 276646.080000
   1521   1522     1   0.10969 276646.080000
   1521   1523     1   0.10969 276646.080000
   1524   1525     1   0.10969 276646.080000
   1524   1526     1   0.10969 276646.080000
   1527   1528     1   0.10969 276646.080000
   1527   1529     1   0.10969 276646.080000
   1530   1531     1   0.10969 276646.080000
   1530   1532     1   0.10969 276646.080000
   1533   1534     1   0.10969 276646.080000
   1533   1535     1   0.10969 276646.080000
   1538   1539     1   0.10969 276646.080000
   1538   1540     1   0.10969 276646.080000
   1541   1542     1   0.10969 276646.080000
   1541   1543     1   0.10969 276646.080000
   1544   1545     1   0.10969 276646.080000
   1544   1546     1   0.10969 276646.080000
   1547   1548     1   0.10969 276646.080000
   1547   1549     1   0.10969 276646.080000
   1550   1551     1   0.10969 276646.080000
   1550   1552     1   0.10969 276646.080000
   1553   1554     1   0.10969 276646.080000
   1553   1555     1   0.10969 276646.080000
   1556   1557     1   0.10969 276646.080000
   1556   1558     1   0.10969 276646.080000
   1559   1560     1   0.10969 276646.080000
   1559   1561     1   0.10969 276646.080000
   1562   1563     1   0.10969 276646.080000
   1562   1564     1   0.10969 276646.080000
   1567   1568     1   0.10969 276646.080000
   1567   1569     1   0.10969 276646.080000
   1570   1571     1   0.10969 276646.080000
   1570   1572     1   0.10969 276646.080000
   1573   1574     1   0.10969 276646.080000
   1573   1575     1   0.10969 276646.080000
   1576   1577     1   0.10969 276646.080000
   1576   1578     1   0.10969 276646.080000
   1579   1580     1   0.10969 276646.080000
   1579   1581     1   0.10969 276646.080000
   1582   1583     1   0.10969 276646.080000
   1582   1584     1   0.10969 276646.080000
   1585   1586     1   0.10969 276646.080000
   1585   1587     1   0.10969 276646.080000
   1588   1589     1   0.10969 276646.080000
   1588   1590     1   0.10969 276646.080000
   1591   1592     1   0.10969 276646.080000
   1591   1593     1   0.10969 276646.080000
   1596   1597     1   0.10969 276646.080000
   1596   1598     1   0.10969 276646.080000
   1599   1600     1   0.10969 276646.080000
   1599   1601     1   0.10969 276646.080000
   1602   1603     1   0.10969 276646.080000
   1602   1604     1   0.10969 276646.080000
   1605   1606     1   0.10969 276646.080000
   1605   1607     1   0.10969 276646.080000
   1608   1609     1   0.10969 276646.080000
   1608   1610     1   0.10969 276646.080000
   1611   1612     1   0.10969 276646.080000
   1611   1613     1   0.10969 276646.080000
   1614   1615     1   0.10969 276646.080000
   1614   1616     1   0.10969 276646.080000
   1617   1618     1   0.10969 276646.080000
   1617   1619     1   0.10969 276646.080000
   1620   1621     1   0.10969 276646.080000
   1620   1622     1   0.10969 276646.080000
   1625   1626     1   0.10969 276646.080000
   1625   1627     1   0.10969 276646.080000
   1628   1629     1   0.10969 276646.080000
   1628   1630     1   0.10969 276646.080000
   1631   1632     1   0.10969 276646.080000
   1631   1633     1   0.10969 276646.080000
   1634   1635     1   0.10969 276646.080000
   1634   1636     1   0.10969 276646.080000
   1637   1638     1   0.10969 276646.080000
   1637   1639     1   0.10969 276646.080000
   1640   1641     1   0.10969 276646.080000
   1640   1642     1   0.10969 276646.080000
   1643   1644     1   0.10969 276646.080000
   1643   1645     1   0.10969 276646.080000
   1646   1647     1   0.10969 276646.080000
   1646   1648     1   0.10969 276646.080000
   1649   1650     1   0.10969 276646.080000
   1649   1651     1   0.10969 276646.080000
   1654   1655     1   0.10969 276646.080000
   1654   1656     1   0.10969 276646.080000
   1657   1658     1   0.10969 276646.080000
   1657   1659     1   0.10969 276646.080000
   1660   1661     1   0.10969 276646.080000
   1660   1662     1   0.10969 276646.080000
   1663   1664     1   0.10969 276646.080000
   1663   1665     1   0.10969 276646.080000
   1666   1667     1   0.10969 276646.080000
   1666   1668     1   0.10969 276646.080000
   1669   1670     1   0.10969 276646.080000
   1669   1671     1   0.10969 276646.080000
   1672   1673     1   0.10969 276646.080000
   1672   1674     1   0.10969 276646.080000
   1675   1676     1   0.10969 276646.080000
   1675   1677     1   0.10969 276646.080000
   1678   1679     1   0.10969 276646.080000
   1678   1680     1   0.10969 276646.080000
   1683   1684     1   0.10969 276646.080000
   1683   1685     1   0.10969 276646.080000
   1686   1687     1   0.10969 276646.080000
   1686   1688     1   0.10969 276646.080000
   1689   1690     1   0.10969 276646.080000
   1689   1691     1   0.10969 276646.080000
   1692   1693     1   0.10969 276646.080000
   1692   1694     1   0.10969 276646.080000
   1695   1696     1   0.10969 276646.080000
   1695   1697     1   0.10969 276646.080000
   1698   1699     1   0.10969 276646.080000
   1698   1700     1   0.10969 276646.080000
   1701   1702     1   0.10969 276646.080000
   1701   1703     1   0.10969 276646.080000
   1704   1705     1   0.10969 276646.080000
   1704   1706     1   0.10969 276646.080000
   1707   1708     1   0.10969 276646.080000
   1707   1709     1   0.10969 276646.080000
   1712   1713     1   0.10969 276646.080000
   1712   1714     1   0.10969 276646.080000
   1715   1716     1   0.10969 276646.080000
   1715   1717     1   0.10969 276646.080000
   1718   1719     1   0.10969 276646.080000
   1718   1720     1   0.10969 276646.080000
   1721   1722     1   0.10969 276646.080000
   1721   1723     1   0.10969 276646.080000
   1724   1725     1   0.10969 276646.080000
   1724   1726     1   0.10969 276646.080000
   1727   1728     1   0.10969 276646.080000
   1727   1729     1   0.10969 276646.080000
   1730   1731     1   0.10969 276646.080000
   1730   1732     1   0.10969 276646.080000
   1733   1734     1   0.10969 276646.080000
   1733   1735     1   0.10969 276646.080000
   1736   1737     1   0.10969 276646.080000
   1736   1738     1   0.10969 276646.080000
   1741   1742     1   0.10969 276646.080000
   1741   1743     1   0.10969 276646.080000
   1744   1745     1   0.10969 276646.080000
   1744   1746     1   0.10969 276646.080000
   1747   1748     1   0.10969 276646.080000
   1747   1749     1   0.10969 276646.080000
   1750   1751     1   0.10969 276646.080000
   1750   1752     1   0.10969 276646.080000
   1753   1754     1   0.10969 276646.080000
   1753   1755     1   0.10969 276646.080000
   1756   1757     1   0.10969 276646.080000
   1756   1758     1   0.10969 276646.080000
   1759   1760     1   0.10969 276646.080000
   1759   1761     1   0.10969 276646.080000
   1762   1763     1   0.10969 276646.080000
   1762   1764     1   0.10969 276646.080000
   1765   1766     1   0.10969 276646.080000
   1765   1767     1   0.10969 276646.080000
   1770   1771     1   0.10969 276646.080000
   1770   1772     1   0.10969 276646.080000
   1773   1774     1   0.10969 276646.080000
   1773   1775     1   0.10969 276646.080000
   1776   1777     1   0.10969 276646.080000
   1776   1778     1   0.10969 276646.080000
   1779   1780     1   0.10969 276646.080000
   1779   1781     1   0.10969 276646.080000
   1782   1783     1   0.10969 276646.080000
   1782   1784     1   0.10969 276646.080000
   1785   1786     1   0.10969 276646.080000
   1785   1787     1   0.10969 276646.080000
   1788   1789     1   0.10969 276646.080000
   1788   1790     1   0.10969 276646.080000
   1791   1792     1   0.10969 276646.080000
   1791   1793     1   0.10969 276646.080000
   1794   1795     1   0.10969 276646.080000
   1794   1796     1   0.10969 276646.080000
   1798   1800     1   0.10969 276646.080000
   1799   1801     1   0.10969 276646.080000
   1802   1806     1   0.10969 276646.080000
   1803   1805     1   0.10969 276646.080000
   1804   1807     1   0.10961 277566.560000
   1809   1815     1   0.09730 310787.520000
   1810   1813     1   0.09730 310787.520000
   1811   1814     1   0.09730 310787.520000
   1812   1816     1   0.10969 276646.080000
   1812   1817     1   0.10969 276646.080000
   1818   1819     1   0.09730 310787.520000
   1821   1823     1   0.10969 276646.080000
   1822   1824     1   0.10969 276646.080000
   1825   1829     1   0.10969 276646.080000
   1826   1828     1   0.10969 276646.080000
   1827   1830     1   0.10961 277566.560000
   1832   1838     1   0.09730 310787.520000
   1833   1836     1   0.09730 310787.520000
   1834   1837     1   0.09730 310787.520000
   1835   1839     1   0.10969 276646.080000
   1835   1840     1   0.10969 276646.080000
   1841   1842     1   0.09730 310787.520000
   1844   1846     1   0.10969 276646.080000
   1845   1847     1   0.10969 276646.080000
   1848   1852     1   0.10969 276646.080000
   1849   1851     1   0.10969 276646.080000
   1850   1853     1   0.10961 277566.560000
   1855   1861     1   0.09730 310787.520000
   1856   1859     1   0.09730 310787.520000
   1857   1860     1   0.09730 310787.520000
   1858   1862     1   0.10969 276646.080000
   1858   1863     1   0.10969 276646.080000
   1864   1865     1   0.09730 310787.520000
   1867   1869     1   0.10969 276646.080000
   1868   1870     1   0.10969 276646.080000
   1871   1875     1   0.10969 276646.080000
   1872   1874     1   0.10969 276646.080000
   1873   1876     1   0.10961 277566.560000
   1878   1884     1   0.09730 310787.520000
   1879   1882     1   0.09730 310787.520000
   1880   1883     1   0.09730 310787.520000
   1881   1885     1   0.10969 276646.080000
   1881   1886     1   0.10969 276646.080000
   1887   1888     1   0.09730 310787.520000
   1890   1892     1   0.10969 276646.080000
   1891   1893     1   0.10969 276646.080000
   1894   1898     1   0.10969 276646.080000
   1895   1897     1   0.10969 276646.080000
   1896   1899     1   0.10961 277566.560000
   1901   1907     1   0.09730 310787.520000
   1902   1905     1   0.09730 310787.520000
   1903   1906     1   0.09730 310787.520000
   1904   1908     1   0.10969 276646.080000
   1904   1909     1   0.10969 276646.080000
   1910   1911     1   0.09730 310787.520000
   1913   1915     1   0.10969 276646.080000
   1914   1916     1   0.10969 276646.080000
   1917   1921     1   0.10969 276646.080000
   1918   1920     1   0.10969 276646.080000
   1919   1922     1   0.10961 277566.560000
   1924   1930     1   0.09730 310787.520000
   1925   1928     1   0.09730 310787.520000
   1926   1929     1   0.09730 310787.520000
   1927   1931     1   0.10969 276646.080000
   1927   1932     1   0.10969 276646.080000
   1933   1934     1   0.09730 310787.520000
   1936   1938     1   0.10969 276646.080000
   1937   1939     1   0.10969 276646.080000
   1940   1944     1   0.10969 276646.080000
   1941   1943     1   0.10969 276646.080000
   1942   1945     1   0.10961 277566.560000
   1947   1953     1   0.09730 310787.520000
   1948   1951     1   0.09730 310787.520000
   1949   1952     1   0.09730 310787.520000
   1950   1954     1   0.10969 276646.080000
   1950   1955     1   0.10969 276646.080000
   1956   1957     1   0.09730 310787.520000
   1959   1961     1   0.10969 276646.080000
   1960   1962     1   0.10969 276646.080000
   1963   1967     1   0.10969 276646.080000
   1964   1966     1   0.10969 276646.080000
   1965   1968     1   0.10961 277566.560000
   1970   1976     1   0.09730 310787.520000
   1971   1974     1   0.09730 310787.520000
   1972   1975     1   0.09730 310787.520000
   1973   1977     1   0.10969 276646.080000
   1973   1978     1   0.10969 276646.080000
   1979   1980     1   0.09730 310787.520000
   1982   1984     1   0.10969 276646.080000
   1983   1985     1   0.10969 276646.080000
   1986   1990     1   0.10969 276646.080000
   1987   1989     1   0.10969 276646.080000
   1988   1991     1   0.10961 277566.560000
   1993   1999     1   0.09730 310787.520000
   1994   1997     1   0.09730 310787.520000
   1995   1998     1   0.09730 310787.520000
   1996   2000     1   0.10969 276646.080000
   1996   2001     1   0.10969 276646.080000
   2002   2003     1   0.09730 310787.520000
   2005   2007     1   0.10969 276646.080000
   2006   2008     1   0.10969 276646.080000
   2009   2013     1   0.10969 276646.080000
   2010   2012     1   0.10969 276646.080000
   2011   2014     1   0.10961 277566.560000
   2016   2022     1   0.09730 310787.520000
   2017   2020     1   0.09730 310787.520000
   2018   2021     1   0.09730 310787.520000
   2019   2023     1   0.10969 276646.080000
   2019   2024     1   0.10969 276646.080000
   2025   2026     1   0.09730 310787.520000
   2028   2030     1   0.10969 276646.080000
   2029   2031     1   0.10969 276646.080000
   2032   2036     1   0.10969 276646.080000
   2033   2035     1   0.10969 276646.080000
   2034   2037     1   0.10961 277566.560000
   2039   2045     1   0.09730 310787.520000
   2040   2043     1   0.09730 310787.520000
   2041   2044     1   0.09730 310787.520000
   2042   2046     1   0.10969 276646.080000
   2042   2047     1   0.10969 276646.080000
   2048   2049     1   0.09730 310787.520000
   2051   2053     1   0.10969 276646.080000
   2052   2054     1   0.10969 276646.080000
   2055   2059     1   0.10969 276646.080000
   2056   2058     1   0.10969 276646.080000
   2057   2060     1   0.10961 277566.560000
   2062   2068     1   0.09730 310787.520000
   2063   2066     1   0.09730 310787.520000
   2064   2067     1   0.09730 310787.520000
   2065   2069     1   0.10969 276646.080000
   2065   2070     1   0.10969 276646.080000
   2071   2072     1   0.09730 310787.520000
   2074   2076     1   0.10969 276646.080000
   2075   2077     1   0.10969 276646.080000
   2078   2082     1   0.10969 276646.080000
   2079   2081     1   0.10969 276646.080000
   2080   2083     1   0.10961 277566.560000
   2085   2091     1   0.09730 310787.520000
   2086   2089     1   0.09730 310787.520000
   2087   2090     1   0.09730 310787.520000
   2088   2092     1   0.10969 276646.080000
   2088   2093     1   0.10969 276646.080000
   2094   2095     1   0.09730 310787.520000
   2097   2099     1   0.10969 276646.080000
   2098   2100     1   0.10969 276646.080000
   2101   2105     1   0.10969 276646.080000
   2102   2104     1   0.10969 276646.080000
   2103   2106     1   0.10961 277566.560000
   2108   2114     1   0.09730 310787.520000
   2109   2112     1   0.09730 310787.520000
   2110   2113     1   0.09730 310787.520000
   2111   2115     1   0.10969 276646.080000
   2111   2116     1   0.10969 276646.080000
   2117   2118     1   0.09730 310787.520000
   2120   2122     1   0.10969 276646.080000
   2121   2123     1   0.10969 276646.080000
   2124   2128     1   0.10969 276646.080000
   2125   2127     1   0.10969 276646.080000
   2126   2129     1   0.10961 277566.560000
   2131   2137     1   0.09730 310787.520000
   2132   2135     1   0.09730 310787.520000
   2133   2136     1   0.09730 310787.520000
   2134   2138     1   0.10969 276646.080000
   2134   2139     1   0.10969 276646.080000
   2140   2141     1   0.09730 310787.520000
   2143   2145     1   0.10969 276646.080000
   2144   2146     1   0.10969 276646.080000
   2147   2151     1   0.10969 276646.080000
   2148   2150     1   0.10969 276646.080000
   2149   2152     1   0.10961 277566.560000
   2154   2160     1   0.09730 310787.520000
   2155   2158     1   0.09730 310787.520000
   2156   2159     1   0.09730 310787.520000
   2157   2161     1   0.10969 276646.080000
   2157   2162     1   0.10969 276646.080000
   2163   2164     1   0.09730 310787.520000
   2166   2168     1   0.10969 276646.080000
   2167   2169     1   0.10969 276646.080000
   2170   2174     1   0.10969 276646.080000
   2171   2173     1   0.10969 276646.080000
   2172   2175     1   0.10961 277566.560000
   2177   2183     1   0.09730 310787.520000
   2178   2181     1   0.09730 310787.520000
   2179   2182     1   0.09730 310787.520000
   2180   2184     1   0.10969 276646.080000
   2180   2185     1   0.10969 276646.080000
   2186   2187     1   0.09730 310787.520000
   2189   2191     1   0.10969 276646.080000
   2190   2192     1   0.10969 276646.080000
   2193   2197     1   0.10969 276646.080000
   2194   2196     1   0.10969 276646.080000
   2195   2198     1   0.10961 277566.560000
   2200   2206     1   0.09730 310787.520000
   2201   2204     1   0.09730 310787.520000
   2202   2205     1   0.09730 310787.520000
   2203   2207     1   0.10969 276646.080000
   2203   2208     1   0.10969 276646.080000
   2209   2210     1   0.09730 310787.520000
   2212   2214     1   0.10969 276646.080000
   2213   2215     1   0.10969 276646.080000
   2216   2220     1   0.10969 276646.080000
   2217   2219     1   0.10969 276646.080000
   2218   2221     1   0.10961 277566.560000
   2223   2229     1   0.09730 310787.520000
   2224   2227     1   0.09730 310787.520000
   2225   2228     1   0.09730 310787.520000
   2226   2230     1   0.10969 276646.080000
   2226   2231     1   0.10969 276646.080000
   2232   2233     1   0.09730 310787.520000
   2235   2237     1   0.10969 276646.080000
   2236   2238     1   0.10969 276646.080000
   2239   2243     1   0.10969 276646.080000
   2240   2242     1   0.10969 276646.080000
   2241   2244     1   0.10961 277566.560000
   2246   2252     1   0.09730 310787.520000
   2247   2250     1   0.09730 310787.520000
   2248   2251     1   0.09730 310787.520000
   2249   2253     1   0.10969 276646.080000
   2249   2254     1   0.10969 276646.080000
   2255   2256     1   0.09730 310787.520000
   2258   2260     1   0.10969 276646.080000
   2259   2261     1   0.10969 276646.080000
   2262   2266     1   0.10969 276646.080000
   2263   2265     1   0.10969 276646.080000
   2264   2267     1   0.10961 277566.560000
   2269   2275     1   0.09730 310787.520000
   2270   2273     1   0.09730 310787.520000
   2271   2274     1   0.09730 310787.520000
   2272   2276     1   0.10969 276646.080000
   2272   2277     1   0.10969 276646.080000
   2278   2279     1   0.09730 310787.520000
   2281   2283     1   0.10969 276646.080000
   2282   2284     1   0.10969 276646.080000
   2285   2289     1   0.10969 276646.080000
   2286   2288     1   0.10969 276646.080000
   2287   2290     1   0.10961 277566.560000
   2292   2298     1   0.09730 310787.520000
   2293   2296     1   0.09730 310787.520000
   2294   2297     1   0.09730 310787.520000
   2295   2299     1   0.10969 276646.080000
   2295   2300     1   0.10969 276646.080000
   2301   2302     1   0.09730 310787.520000
   2304   2306     1   0.10969 276646.080000
   2305   2307     1   0.10969 276646.080000
   2308   2312     1   0.10969 276646.080000
   2309   2311     1   0.10969 276646.080000
   2310   2313     1   0.10961 277566.560000
   2315   2321     1   0.09730 310787.520000
   2316   2319     1   0.09730 310787.520000
   2317   2320     1   0.09730 310787.520000
   2318   2322     1   0.10969 276646.080000
   2318   2323     1   0.10969 276646.080000
   2324   2325     1   0.09730 310787.520000
   2327   2329     1   0.10969 276646.080000
   2328   2330     1   0.10969 276646.080000
   2331   2335     1   0.10969 276646.080000
   2332   2334     1   0.10969 276646.080000
   2333   2336     1   0.10961 277566.560000
   2338   2344     1   0.09730 310787.520000
   2339   2342     1   0.09730 310787.520000
   2340   2343     1   0.09730 310787.520000
   2341   2345     1   0.10969 276646.080000
   2341   2346     1   0.10969 276646.080000
   2347   2348     1   0.09730 310787.520000
   2350   2352     1   0.10969 276646.080000
   2351   2353     1   0.10969 276646.080000
   2354   2358     1   0.10969 276646.080000
   2355   2357     1   0.10969 276646.080000
   2356   2359     1   0.10961 277566.560000
   2361   2367     1   0.09730 310787.520000
   2362   2365     1   0.09730 310787.520000
   2363   2366     1   0.09730 310787.520000
   2364   2368     1   0.10969 276646.080000
   2364   2369     1   0.10969 276646.080000
   2370   2371     1   0.09730 310787.520000
   2373   2375     1   0.10969 276646.080000
   2374   2376     1   0.10969 276646.080000
   2377   2381     1   0.10969 276646.080000
   2378   2380     1   0.10969 276646.080000
   2379   2382     1   0.10961 277566.560000
   2384   2390     1   0.09730 310787.520000
   2385   2388     1   0.09730 310787.520000
   2386   2389     1   0.09730 310787.520000
   2387   2391     1   0.10969 276646.080000
   2387   2392     1   0.10969 276646.080000
   2393   2394     1   0.09730 310787.520000
   2396   2398     1   0.10969 276646.080000
   2397   2399     1   0.10969 276646.080000
   2400   2404     1   0.10969 276646.080000
   2401   2403     1   0.10969 276646.080000
   2402   2405     1   0.10961 277566.560000
   2407   2413     1   0.09730 310787.520000
   2408   2411     1   0.09730 310787.520000
   2409   2412     1   0.09730 310787.520000
   2410   2414     1   0.10969 276646.080000
   2410   2415     1   0.10969 276646.080000
   2416   2417     1   0.09730 310787.520000
   2419   2421     1   0.10969 276646.080000
   2420   2422     1   0.10969 276646.080000
   2423   2427     1   0.10969 276646.080000
   2424   2426     1   0.10969 276646.080000
   2425   2428     1   0.10961 277566.560000
   2430   2436     1   0.09730 310787.520000
   2431   2434     1   0.09730 310787.520000
   2432   2435     1   0.09730 310787.520000
   2433   2437     1   0.10969 276646.080000
   2433   2438     1   0.10969 276646.080000
   2439   2440     1   0.09730 310787.520000
   2442   2444     1   0.10969 276646.080000
   2443   2445     1   0.10969 276646.080000
   2446   2450     1   0.10969 276646.080000
   2447   2449     1   0.10969 276646.080000
   2448   2451     1   0.10961 277566.560000
   2453   2459     1   0.09730 310787.520000
   2454   2457     1   0.09730 310787.520000
   2455   2458     1   0.09730 310787.520000
   2456   2460     1   0.10969 276646.080000
   2456   2461     1   0.10969 276646.080000
   2462   2463     1   0.09730 310787.520000
   2465   2467     1   0.10969 276646.080000
   2466   2468     1   0.10969 276646.080000
   2469   2473     1   0.10969 276646.080000
   2470   2472     1   0.10969 276646.080000
   2471   2474     1   0.10961 277566.560000
   2476   2482     1   0.09730 310787.520000
   2477   2480     1   0.09730 310787.520000
   2478   2481     1   0.09730 310787.520000
   2479   2483     1   0.10969 276646.080000
   2479   2484     1   0.10969 276646.080000
   2485   2486     1   0.09730 310787.520000
   2488   2490     1   0.10969 276646.080000
   2489   2491     1   0.10969 276646.080000
   2492   2496     1   0.10969 276646.080000
   2493   2495     1   0.10969 276646.080000
   2494   2497     1   0.10961 277566.560000
   2499   2505     1   0.09730 310787.520000
   2500   2503     1   0.09730 310787.520000
   2501   2504     1   0.09730 310787.520000
   2502   2506     1   0.10969 276646.080000
   2502   2507     1   0.10969 276646.080000
   2508   2509     1   0.09730 310787.520000
   2511   2513     1   0.10969 276646.080000
   2512   2514     1   0.10969 276646.080000
   2515   2519     1   0.10969 276646.080000
   2516   2518     1   0.10969 276646.080000
   2517   2520     1   0.10961 277566.560000
   2522   2528     1   0.09730 310787.520000
   2523   2526     1   0.09730 310787.520000
   2524   2527     1   0.09730 310787.520000
   2525   2529     1   0.10969 276646.080000
   2525   2530     1   0.10969 276646.080000
   2531   2532     1   0.09730 310787.520000
   2534   2536     1   0.10969 276646.080000
   2535   2537     1   0.10969 276646.080000
   2538   2542     1   0.10969 276646.080000
   2539   2541     1   0.10969 276646.080000
   2540   2543     1   0.10961 277566.560000
   2545   2551     1   0.09730 310787.520000
   2546   2549     1   0.09730 310787.520000
   2547   2550     1   0.09730 310787.520000
   2548   2552     1   0.10969 276646.080000
   2548   2553     1   0.10969 276646.080000
   2554   2555     1   0.09730 310787.520000
   2557   2559     1   0.10969 276646.080000
   2558   2560     1   0.10969 276646.080000
   2561   2565     1   0.10969 276646.080000
   2562   2564     1   0.10969 276646.080000
   2563   2566     1   0.10961 277566.560000
   2568   2574     1   0.09730 310787.520000
   2569   2572     1   0.09730 310787.520000
   2570   2573     1   0.09730 310787.520000
   2571   2575     1   0.10969 276646.080000
   2571   2576     1   0.10969 276646.080000
   2577   2578     1   0.09730 310787.520000
   2580   2582     1   0.10969 276646.080000
   2581   2583     1   0.10969 276646.080000
   2584   2588     1   0.10969 276646.080000
   2585   2587     1   0.10969 276646.080000
   2586   2589     1   0.10961 277566.560000
   2591   2597     1   0.09730 310787.520000
   2592   2595     1   0.09730 310787.520000
   2593   2596     1   0.09730 310787.520000
   2594   2598     1   0.10969 276646.080000
   2594   2599     1   0.10969 276646.080000
   2600   2601     1   0.09730 310787.520000
   2603   2605     1   0.10969 276646.080000
   2604   2606     1   0.10969 276646.080000
   2607   2611     1   0.10969 276646.080000
   2608   2610     1   0.10969 276646.080000
   2609   2612     1   0.10961 277566.560000
   2614   2620     1   0.09730 310787.520000
   2615   2618     1   0.09730 310787.520000
   2616   2619     1   0.09730 310787.520000
   2617   2621     1   0.10969 276646.080000
   2617   2622     1   0.10969 276646.080000
   2623   2624     1   0.09730 310787.520000
   2626   2628     1   0.10969 276646.080000
   2627   2629     1   0.10969 276646.080000
   2630   2634     1   0.10969 276646.080000
   2631   2633     1   0.10969 276646.080000
   2632   2635     1   0.10961 277566.560000
   2637   2643     1   0.09730 310787.520000
   2638   2641     1   0.09730 310787.520000
   2639   2642     1   0.09730 310787.520000
   2640   2644     1   0.10969 276646.080000
   2640   2645     1   0.10969 276646.080000
   2646   2647     1   0.09730 310787.520000
   2649   2651     1   0.10969 276646.080000
   2650   2652     1   0.10969 276646.080000
   2653   2657     1   0.10969 276646.080000
   2654   2656     1   0.10969 276646.080000
   2655   2658     1   0.10961 277566.560000
   2660   2666     1   0.09730 310787.520000
   2661   2664     1   0.09730 310787.520000
   2662   2665     1   0.09730 310787.520000
   2663   2667     1   0.10969 276646.080000
   2663   2668     1   0.10969 276646.080000
   2669   2670     1   0.09730 310787.520000
   2672   2674     1   0.10969 276646.080000
   2673   2675     1   0.10969 276646.080000
   2676   2680     1   0.10969 276646.080000
   2677   2679     1   0.10969 276646.080000
   2678   2681     1   0.10961 277566.560000
   2683   2689     1   0.09730 310787.520000
   2684   2687     1   0.09730 310787.520000
   2685   2688     1   0.09730 310787.520000
   2686   2690     1   0.10969 276646.080000
   2686   2691     1   0.10969 276646.080000
   2692   2693     1   0.09730 310787.520000
   2695   2697     1   0.10969 276646.080000
   2696   2698     1   0.10969 276646.080000
   2699   2703     1   0.10969 276646.080000
   2700   2702     1   0.10969 276646.080000
   2701   2704     1   0.10961 277566.560000
   2706   2712     1   0.09730 310787.520000
   2707   2710     1   0.09730 310787.520000
   2708   2711     1   0.09730 310787.520000
   2709   2713     1   0.10969 276646.080000
   2709   2714     1   0.10969 276646.080000
   2715   2716     1   0.09730 310787.520000
   2718   2720     1   0.10969 276646.080000
   2719   2721     1   0.10969 276646.080000
   2722   2726     1   0.10969 276646.080000
   2723   2725     1   0.10969 276646.080000
   2724   2727     1   0.10961 277566.560000
   2729   2735     1   0.09730 310787.520000
   2730   2733     1   0.09730 310787.520000
   2731   2734     1   0.09730 310787.520000
   2732   2736     1   0.10969 276646.080000
   2732   2737     1   0.10969 276646.080000
   2738   2739     1   0.09730 310787.520000
   2741   2743     1   0.10969 276646.080000
   2742   2744     1   0.10969 276646.080000
   2745   2749     1   0.10969 276646.080000
   2746   2748     1   0.10969 276646.080000
   2747   2750     1   0.10961 277566.560000
   2752   2758     1   0.09730 310787.520000
   2753   2756     1   0.09730 310787.520000
   2754   2757     1   0.09730 310787.520000
   2755   2759     1   0.10969 276646.080000
   2755   2760     1   0.10969 276646.080000
   2761   2762     1   0.09730 310787.520000
   2764   2766     1   0.10969 276646.080000
   2765   2767     1   0.10969 276646.080000
   2768   2772     1   0.10969 276646.080000
   2769   2771     1   0.10969 276646.080000
   2770   2773     1   0.10961 277566.560000
   2775   2781     1   0.09730 310787.520000
   2776   2779     1   0.09730 310787.520000
   2777   2780     1   0.09730 310787.520000
   2778   2782     1   0.10969 276646.080000
   2778   2783     1   0.10969 276646.080000
   2784   2785     1   0.09730 310787.520000
   2787   2789     1   0.10969 276646.080000
   2788   2790     1   0.10969 276646.080000
   2791   2795     1   0.10969 276646.080000
   2792   2794     1   0.10969 276646.080000
   2793   2796     1   0.10961 277566.560000
   2798   2804     1   0.09730 310787.520000
   2799   2802     1   0.09730 310787.520000
   2800   2803     1   0.09730 310787.520000
   2801   2805     1   0.10969 276646.080000
   2801   2806     1   0.10969 276646.080000
   2807   2808     1   0.09730 310787.520000
   2810   2812     1   0.10969 276646.080000
   2811   2813     1   0.10969 276646.080000
   2814   2818     1   0.10969 276646.080000
   2815   2817     1   0.10969 276646.080000
   2816   2819     1   0.10961 277566.560000
   2821   2827     1   0.09730 310787.520000
   2822   2825     1   0.09730 310787.520000
   2823   2826     1   0.09730 310787.520000
   2824   2828     1   0.10969 276646.080000
   2824   2829     1   0.10969 276646.080000
   2830   2831     1   0.09730 310787.520000
   2833   2835     1   0.10969 276646.080000
   2834   2836     1   0.10969 276646.080000
   2837   2841     1   0.10969 276646.080000
   2838   2840     1   0.10969 276646.080000
   2839   2842     1   0.10961 277566.560000
   2844   2850     1   0.09730 310787.520000
   2845   2848     1   0.09730 310787.520000
   2846   2849     1   0.09730 310787.520000
   2847   2851     1   0.10969 276646.080000
   2847   2852     1   0.10969 276646.080000
   2853   2854     1   0.09730 310787.520000
   2856   2858     1   0.10969 276646.080000
   2857   2859     1   0.10969 276646.080000
   2860   2864     1   0.10969 276646.080000
   2861   2863     1   0.10969 276646.080000
   2862   2865     1   0.10961 277566.560000
   2867   2873     1   0.09730 310787.520000
   2868   2871     1   0.09730 310787.520000
   2869   2872     1   0.09730 310787.520000
   2870   2874     1   0.10969 276646.080000
   2870   2875     1   0.10969 276646.080000
   2876   2877     1   0.09730 310787.520000
   2879   2881     1   0.10969 276646.080000
   2880   2882     1   0.10969 276646.080000
   2883   2887     1   0.10969 276646.080000
   2884   2886     1   0.10969 276646.080000
   2885   2888     1   0.10961 277566.560000
   2890   2896     1   0.09730 310787.520000
   2891   2894     1   0.09730 310787.520000
   2892   2895     1   0.09730 310787.520000
   2893   2897     1   0.10969 276646.080000
   2893   2898     1   0.10969 276646.080000
   2899   2900     1   0.09730 310787.520000
   2902   2904     1   0.10969 276646.080000
   2903   2905     1   0.10969 276646.080000
   2906   2910     1   0.10969 276646.080000
   2907   2909     1   0.10969 276646.080000
   2908   2911     1   0.10961 277566.560000
   2913   2919     1   0.09730 310787.520000
   2914   2917     1   0.09730 310787.520000
   2915   2918     1   0.09730 310787.520000
   2916   2920     1   0.10969 276646.080000
   2916   2921     1   0.10969 276646.080000
   2922   2923     1   0.09730 310787.520000
   2925   2927     1   0.10969 276646.080000
   2926   2928     1   0.10969 276646.080000
   2929   2933     1   0.10969 276646.080000
   2930   2932     1   0.10969 276646.080000
   2931   2934     1   0.10961 277566.560000
   2936   2942     1   0.09730 310787.520000
   2937   2940     1   0.09730 310787.520000
   2938   2941     1   0.09730 310787.520000
   2939   2943     1   0.10969 276646.080000
   2939   2944     1   0.10969 276646.080000
   2945   2946     1   0.09730 310787.520000
   2948   2950     1   0.10969 276646.080000
   2949   2951     1   0.10969 276646.080000
   2952   2956     1   0.10969 276646.080000
   2953   2955     1   0.10969 276646.080000
   2954   2957     1   0.10961 277566.560000
   2959   2965     1   0.09730 310787.520000
   2960   2963     1   0.09730 310787.520000
   2961   2964     1   0.09730 310787.520000
   2962   2966     1   0.10969 276646.080000
   2962   2967     1   0.10969 276646.080000
   2968   2969     1   0.09730 310787.520000
   2971   2973     1   0.10969 276646.080000
   2972   2974     1   0.10969 276646.080000
   2975   2979     1   0.10969 276646.080000
   2976   2978     1   0.10969 276646.080000
   2977   2980     1   0.10961 277566.560000
   2982   2988     1   0.09730 310787.520000
   2983   2986     1   0.09730 310787.520000
   2984   2987     1   0.09730 310787.520000
   2985   2989     1   0.10969 276646.080000
   2985   2990     1   0.10969 276646.080000
   2991   2992     1   0.09730 310787.520000
   2994   2996     1   0.10969 276646.080000
   2995   2997     1   0.10969 276646.080000
   2998   3002     1   0.10969 276646.080000
   2999   3001     1   0.10969 276646.080000
   3000   3003     1   0.10961 277566.560000
   3005   3011     1   0.09730 310787.520000
   3006   3009     1   0.09730 310787.520000
   3007   3010     1   0.09730 310787.520000
   3008   3012     1   0.10969 276646.080000
   3008   3013     1   0.10969 276646.080000
   3014   3015     1   0.09730 310787.520000
   3017   3019     1   0.10969 276646.080000
   3018   3020     1   0.10969 276646.080000
   3021   3025     1   0.10969 276646.080000
   3022   3024     1   0.10969 276646.080000
   3023   3026     1   0.10961 277566.560000
   3028   3034     1   0.09730 310787.520000
   3029   3032     1   0.09730 310787.520000
   3030   3033     1   0.09730 310787.520000
   3031   3035     1   0.10969 276646.080000
   3031   3036     1   0.10969 276646.080000
   3037   3038     1   0.09730 310787.520000
   3040   3042     1   0.10969 276646.080000
   3041   3043     1   0.10969 276646.080000
   3044   3048     1   0.10969 276646.080000
   3045   3047     1   0.10969 276646.080000
   3046   3049     1   0.10961 277566.560000
   3051   3057     1   0.09730 310787.520000
   3052   3055     1   0.09730 310787.520000
   3053   3056     1   0.09730 310787.520000
   3054   3058     1   0.10969 276646.080000
   3054   3059     1   0.10969 276646.080000
   3060   3061     1   0.09730 310787.520000
   3063   3065     1   0.10969 276646.080000
   3064   3066     1   0.10969 276646.080000
   3067   3071     1   0.10969 276646.080000
   3068   3070     1   0.10969 276646.080000
   3069   3072     1   0.10961 277566.560000
   3074   3080     1   0.09730 310787.520000
   3075   3078     1   0.09730 310787.520000
   3076   3079     1   0.09730 310787.520000
   3077   3081     1   0.10969 276646.080000
   3077   3082     1   0.10969 276646.080000
   3083   3084     1   0.09730 310787.520000
   3086   3088     1   0.10969 276646.080000
   3087   3089     1   0.10969 276646.080000
   3090   3094     1   0.10969 276646.080000
   3091   3093     1   0.10969 276646.080000
   3092   3095     1   0.10961 277566.560000
   3097   3103     1   0.09730 310787.520000
   3098   3101     1   0.09730 310787.520000
   3099   3102     1   0.09730 310787.520000
   3100   3104     1   0.10969 276646.080000
   3100   3105     1   0.10969 276646.080000
   3106   3107     1   0.09730 310787.520000
   3109   3111     1   0.10969 276646.080000
   3110   3112     1   0.10969 276646.080000
   3113   3117     1   0.10969 276646.080000
   3114   3116     1   0.10969 276646.080000
   3115   3118     1   0.10961 277566.560000
   3120   3126     1   0.09730 310787.520000
   3121   3124     1   0.09730 310787.520000
   3122   3125     1   0.09730 310787.520000
   3123   3127     1   0.10969 276646.080000
   3123   3128     1   0.10969 276646.080000
   3129   3130     1   0.09730 310787.520000
   3132   3134     1   0.10969 276646.080000
   3133   3135     1   0.10969 276646.080000
   3136   3140     1   0.10969 276646.080000
   3137   3139     1   0.10969 276646.080000
   3138   3141     1   0.10961 277566.560000
   3143   3149     1   0.09730 310787.520000
   3144   3147     1   0.09730 310787.520000
   3145   3148     1   0.09730 310787.520000
   3146   3150     1   0.10969 276646.080000
   3146   3151     1   0.10969 276646.080000
   3152   3153     1   0.09730 310787.520000
   3155   3157     1   0.10969 276646.080000
   3156   3158     1   0.10969 276646.080000
   3159   3163     1   0.10969 276646.080000
   3160   3162     1   0.10969 276646.080000
   3161   3164     1   0.10961 277566.560000
   3166   3172     1   0.09730 310787.520000
   3167   3170     1   0.09730 310787.520000
   3168   3171     1   0.09730 310787.520000
   3169   3173     1   0.10969 276646.080000
   3169   3174     1   0.10969 276646.080000
   3175   3176     1   0.09730 310787.520000
   3178   3180     1   0.10969 276646.080000
   3179   3181     1   0.10969 276646.080000
   3182   3186     1   0.10969 276646.080000
   3183   3185     1   0.10969 276646.080000
   3184   3187     1   0.10961 277566.560000
   3189   3195     1   0.09730 310787.520000
   3190   3193     1   0.09730 310787.520000
   3191   3194     1   0.09730 310787.520000
   3192   3196     1   0.10969 276646.080000
   3192   3197     1   0.10969 276646.080000
   3198   3199     1   0.09730 310787.520000
   3201   3203     1   0.10969 276646.080000
   3202   3204     1   0.10969 276646.080000
   3205   3209     1   0.10969 276646.080000
   3206   3208     1   0.10969 276646.080000
   3207   3210     1   0.10961 277566.560000
   3212   3218     1   0.09730 310787.520000
   3213   3216     1   0.09730 310787.520000
   3214   3217     1   0.09730 310787.520000
   3215   3219     1   0.10969 276646.080000
   3215   3220     1   0.10969 276646.080000
   3221   3222     1   0.09730 310787.520000
   3224   3226     1   0.10969 276646.080000
   3225   3227     1   0.10969 276646.080000
   3228   3232     1   0.10969 276646.080000
   3229   3231     1   0.10969 276646.080000
   3230   3233     1   0.10961 277566.560000
   3235   3241     1   0.09730 310787.520000
   3236   3239     1   0.09730 310787.520000
   3237   3240     1   0.09730 310787.520000
   3238   3242     1   0.10969 276646.080000
   3238   3243     1   0.10969 276646.080000
   3244   3245     1   0.09730 310787.520000
   3247   3249     1   0.10969 276646.080000
   3248   3250     1   0.10969 276646.080000
   3251   3255     1   0.10969 276646.080000
   3252   3254     1   0.10969 276646.080000
   3253   3256     1   0.10961 277566.560000
   3258   3264     1   0.09730 310787.520000
   3259   3262     1   0.09730 310787.520000
   3260   3263     1   0.09730 310787.520000
   3261   3265     1   0.10969 276646.080000
   3261   3266     1   0.10969 276646.080000
   3267   3268     1   0.09730 310787.520000

[ pairs ]
;    ai     aj funct         c0         c1         c2         c3
      1     14     1
      1     17     1
      2     11     1
      2     20     1
      5      8     1
      5     21     1
      8     28     1
      8     31     1
     11     22     1
     11     25     1
     14     40     1
     14     43     1
     17     34     1
     17     37     1
     20     49     1
     20     46     1
     21     55     1
     21     52     1
     22     37     1
     22    173     1
     25     34     1
     25    144     1
     28     43     1
     28    115     1
     31     40     1
     31     86     1
     34    164     1
     37    135     1
     40    106     1
     43     77     1
     46     68     1
     49     97     1
     52    126     1
     55    155     1
     58     83     1
     58     80     1
     58     77     1
     59     74     1
     59     68     1
     59    231     1
     62     71     1
     62     68     1
     62    202     1
     65     71     1
     65     74     1
     65     86     1
     71    222     1
     74    193     1
     80    184     1
     83    213     1
     87    112     1
     87    109     1
     87    106     1
     88    103     1
     88     97     1
     88    289     1
     91    100     1
     91     97     1
     91    260     1
     94    100     1
     94    103     1
     94    115     1
    100    280     1
    103    251     1
    109    242     1
    112    271     1
    116    141     1
    116    138     1
    116    135     1
    117    132     1
    117    126     1
    117    347     1
    120    129     1
    120    126     1
    120    318     1
    123    129     1
    123    132     1
    123    144     1
    129    338     1
    132    309     1
    138    300     1
    141    329     1
    145    170     1
    145    167     1
    145    164     1
    146    161     1
    146    155     1
    146    405     1
    149    158     1
    149    155     1
    149    376     1
    152    158     1
    152    161     1
    152    173     1
    158    396     1
    161    367     1
    167    358     1
    170    387     1
    174    199     1
    174    196     1
    174    193     1
    175    190     1
    175    184     1
    175    463     1
    178    187     1
    178    184     1
    178    434     1
    181    187     1
    181    190     1
    181    202     1
    187    454     1
    190    425     1
    196    416     1
    199    445     1
    203    228     1
    203    225     1
    203    222     1
    204    219     1
    204    213     1
    204    521     1
    207    216     1
    207    213     1
    207    492     1
    210    216     1
    210    219     1
    210    231     1
    216    512     1
    219    483     1
    225    474     1
    228    503     1
    232    257     1
    232    254     1
    232    251     1
    233    248     1
    233    242     1
    233    579     1
    236    245     1
    236    242     1
    236    550     1
    239    245     1
    239    248     1
    239    260     1
    245    570     1
    248    541     1
    254    532     1
    257    561     1
    261    286     1
    261    283     1
    261    280     1
    262    277     1
    262    271     1
    262    637     1
    265    274     1
    265    271     1
    265    608     1
    268    274     1
    268    277     1
    268    289     1
    274    628     1
    277    599     1
    283    590     1
    286    619     1
    290    315     1
    290    312     1
    290    309     1
    291    306     1
    291    300     1
    291    695     1
    294    303     1
    294    300     1
    294    666     1
    297    303     1
    297    306     1
    297    318     1
    303    686     1
    306    657     1
    312    648     1
    315    677     1
    319    344     1
    319    341     1
    319    338     1
    320    335     1
    320    329     1
    320    753     1
    323    332     1
    323    329     1
    323    724     1
    326    332     1
    326    335     1
    326    347     1
    332    744     1
    335    715     1
    341    706     1
    344    735     1
    348    373     1
    348    370     1
    348    367     1
    349    364     1
    349    358     1
    349    811     1
    352    361     1
    352    358     1
    352    782     1
    355    361     1
    355    364     1
    355    376     1
    361    802     1
    364    773     1
    370    764     1
    373    793     1
    377    402     1
    377    399     1
    377    396     1
    378    393     1
    378    387     1
    378    869     1
    381    390     1
    381    387     1
    381    840     1
    384    390     1
    384    393     1
    384    405     1
    390    860     1
    393    831     1
    399    822     1
    402    851     1
    406    431     1
    406    428     1
    406    425     1
    407    422     1
    407    416     1
    407    927     1
    410    419     1
    410    416     1
    410    898     1
    413    419     1
    413    422     1
    413    434     1
    419    918     1
    422    889     1
    428    880     1
    431    909     1
    435    460     1
    435    457     1
    435    454     1
    436    451     1
    436    445     1
    436    985     1
    439    448     1
    439    445     1
    439    956     1
    442    448     1
    442    451     1
    442    463     1
    448    976     1
    451    947     1
    457    938     1
    460    967     1
    464    489     1
    464    486     1
    464    483     1
    465    480     1
    465    474     1
    465   1043     1
    468    477     1
    468    474     1
    468   1014     1
    471    477     1
    471    480     1
    471    492     1
    477   1034     1
    480   1005     1
    486    996     1
    489   1025     1
    493    518     1
    493    515     1
    493    512     1
    494    509     1
    494    503     1
    494   1101     1
    497    506     1
    497    503     1
    497   1072     1
    500    506     1
    500    509     1
    500    521     1
    506   1092     1
    509   1063     1
    515   1054     1
    518   1083     1
    522    547     1
    522    544     1
    522    541     1
    523    538     1
    523    532     1
    523   1159     1
    526    535     1
    526    532     1
    526   1130     1
    529    535     1
    529    538     1
    529    550     1
    535   1150     1
    538   1121     1
    544   1112     1
    547   1141     1
    551    576     1
    551    573     1
    551    570     1
    552    567     1
    552    561     1
    552   1217     1
    555    564     1
    555    561     1
    555   1188     1
    558    564     1
    558    567     1
    558    579     1
    564   1208     1
    567   1179     1
    573   1170     1
    576   1199     1
    580    605     1
    580    602     1
    580    599     1
    581    596     1
    581    590     1
    581   1275     1
    584    593     1
    584    590     1
    584   1246     1
    587    593     1
    587    596     1
    587    608     1
    593   1266     1
    596   1237     1
    602   1228     1
    605   1257     1
    609    634     1
    609    631     1
    609    628     1
    610    625     1
    610    619     1
    610   1333     1
    613    622     1
    613    619     1
    613   1304     1
    616    622     1
    616    625     1
    616    637     1
    622   1324     1
    625   1295     1
    631   1286     1
    634   1315     1
    638    663     1
    638    660     1
    638    657     1
    639    654     1
    639    648     1
    639   1391     1
    642    651     1
    642    648     1
    642   1362     1
    645    651     1
    645    654     1
    645    666     1
    651   1382     1
    654   1353     1
    660   1344     1
    663   1373     1
    667    692     1
    667    689     1
    667    686     1
    668    683     1
    668    677     1
    668   1449     1
    671    680     1
    671    677     1
    671   1420     1
    674    680     1
    674    683     1
    674    695     1
    680   1440     1
    683   1411     1
    689   1402     1
    692   1431     1
    696    721     1
    696    718     1
    696    715     1
    697    712     1
    697    706     1
    697   1507     1
    700    709     1
    700    706     1
    700   1478     1
    703    709     1
    703    712     1
    703    724     1
    709   1498     1
    712   1469     1
    718   1460     1
    721   1489     1
    725    750     1
    725    747     1
    725    744     1
    726    741     1
    726    735     1
    726   1565     1
    729    738     1
    729    735     1
    729   1536     1
    732    738     1
    732    741     1
    732    753     1
    738   1556     1
    741   1527     1
    747   1518     1
    750   1547     1
    754    779     1
    754    776     1
    754    773     1
    755    770     1
    755    764     1
    755   1623     1
    758    767     1
    758    764     1
    758   1594     1
    761    767     1
    761    770     1
    761    782     1
    767   1614     1
    770   1585     1
    776   1576     1
    779   1605     1
    783    808     1
    783    805     1
    783    802     1
    784    799     1
    784    793     1
    784   1681     1
    787    796     1
    787    793     1
    787   1652     1
    790    796     1
    790    799     1
    790    811     1
    796   1672     1
    799   1643     1
    805   1634     1
    808   1663     1
    812    837     1
    812    834     1
    812    831     1
    813    828     1
    813    822     1
    813   1739     1
    816    825     1
    816    822     1
    816   1710     1
    819    825     1
    819    828     1
    819    840     1
    825   1730     1
    828   1701     1
    834   1692     1
    837   1721     1
    841    866     1
    841    863     1
    841    860     1
    842    857     1
    842    851     1
    842   1797     1
    845    854     1
    845    851     1
    845   1768     1
    848    854     1
    848    857     1
    848    869     1
    854   1788     1
    857   1759     1
    863   1750     1
    866   1779     1
    870    895     1
    870    892     1
    870    889     1
    871    886     1
    871    880     1
    871   1831     1
    874    883     1
    874    880     1
    874   1808     1
    877    883     1
    877    886     1
    877    898     1
    883   1827     1
    886   1804     1
    892   1803     1
    892   1820     1
    895   1843     1
    895   1826     1
    899    924     1
    899    921     1
    899    918     1
    900    915     1
    900    909     1
    900   1877     1
    903    912     1
    903    909     1
    903   1854     1
    906    912     1
    906    915     1
    906    927     1
    912   1873     1
    915   1850     1
    921   1849     1
    921   1866     1
    924   1889     1
    924   1872     1
    928    953     1
    928    950     1
    928    947     1
    929    944     1
    929    938     1
    929   1923     1
    932    941     1
    932    938     1
    932   1900     1
    935    941     1
    935    944     1
    935    956     1
    941   1919     1
    944   1896     1
    950   1895     1
    950   1912     1
    953   1935     1
    953   1918     1
    957    982     1
    957    979     1
    957    976     1
    958    973     1
    958    967     1
    958   1969     1
    961    970     1
    961    967     1
    961   1946     1
    964    970     1
    964    973     1
    964    985     1
    970   1965     1
    973   1942     1
    979   1941     1
    979   1958     1
    982   1981     1
    982   1964     1
    986   1011     1
    986   1008     1
    986   1005     1
    987   1002     1
    987    996     1
    987   2015     1
    990    999     1
    990    996     1
    990   1992     1
    993    999     1
    993   1002     1
    993   1014     1
    999   2011     1
   1002   1988     1
   1008   1987     1
   1008   2004     1
   1011   2027     1
   1011   2010     1
   1015   1040     1
   1015   1037     1
   1015   1034     1
   1016   1031     1
   1016   1025     1
   1016   2061     1
   1019   1028     1
   1019   1025     1
   1019   2038     1
   1022   1028     1
   1022   1031     1
   1022   1043     1
   1028   2057     1
   1031   2034     1
   1037   2033     1
   1037   2050     1
   1040   2073     1
   1040   2056     1
   1044   1069     1
   1044   1066     1
   1044   1063     1
   1045   1060     1
   1045   1054     1
   1045   2107     1
   1048   1057     1
   1048   1054     1
   1048   2084     1
   1051   1057     1
   1051   1060     1
   1051   1072     1
   1057   2103     1
   1060   2080     1
   1066   2079     1
   1066   2096     1
   1069   2119     1
   1069   2102     1
   1073   1098     1
   1073   1095     1
   1073   1092     1
   1074   1089     1
   1074   1083     1
   1074   2153     1
   1077   1086     1
   1077   1083     1
   1077   2130     1
   1080   1086     1
   1080   1089     1
   1080   1101     1
   1086   2149     1
   1089   2126     1
   1095   2125     1
   1095   2142     1
   1098   2165     1
   1098   2148     1
   1102   1127     1
   1102   1124     1
   1102   1121     1
   1103   1118     1
   1103   1112     1
   1103   2199     1
   1106   1115     1
   1106   1112     1
   1106   2176     1
   1109   1115     1
   1109   1118     1
   1109   1130     1
   1115   2195     1
   1118   2172     1
   1124   2171     1
   1124   2188     1
   1127   2211     1
   1127   2194     1
   1131   1156     1
   1131   1153     1
   1131   1150     1
   1132   1147     1
   1132   1141     1
   1132   2245     1
   1135   1144     1
   1135   1141     1
   1135   2222     1
   1138   1144     1
   1138   1147     1
   1138   1159     1
   1144   2241     1
   1147   2218     1
   1153   2217     1
   1153   2234     1
   1156   2257     1
   1156   2240     1
   1160   1185     1
   1160   1182     1
   1160   1179     1
   1161   1176     1
   1161   1170     1
   1161   2291     1
   1164   1173     1
   1164   1170     1
   1164   2268     1
   1167   1173     1
   1167   1176     1
   1167   1188     1
   1173   2287     1
   1176   2264     1
   1182   2263     1
   1182   2280     1
   1185   2303     1
   1185   2286     1
   1189   1214     1
   1189   1211     1
   1189   1208     1
   1190   1205     1
   1190   1199     1
   1190   2337     1
   1193   1202     1
   1193   1199     1
   1193   2314     1
   1196   1202     1
   1196   1205     1
   1196   1217     1
   1202   2333     1
   1205   2310     1
   1211   2309     1
   1211   2326     1
   1214   2349     1
   1214   2332     1
   1218   1243     1
   1218   1240     1
   1218   1237     1
   1219   1234     1
   1219   1228     1
   1219   2383     1
   1222   1231     1
   1222   1228     1
   1222   2360     1
   1225   1231     1
   1225   1234     1
   1225   1246     1
   1231   2379     1
   1234   2356     1
   1240   2355     1
   1240   2372     1
   1243   2395     1
   1243   2378     1
   1247   1272     1
   1247   1269     1
   1247   1266     1
   1248   1263     1
   1248   1257     1
   1248   2429     1
   1251   1260     1
   1251   1257     1
   1251   2406     1
   1254   1260     1
   1254   1263     1
   1254   1275     1
   1260   2425     1
   1263   2402     1
   1269   2401     1
   1269   2418     1
   1272   2441     1
   1272   2424     1
   1276   1301     1
   1276   1298     1
   1276   1295     1
   1277   1292     1
   1277   1286     1
   1277   2475     1
   1280   1289     1
   1280   1286     1
   1280   2452     1
   1283   1289     1
   1283   1292     1
   1283   1304     1
   1289   2471     1
   1292   2448     1
   1298   2447     1
   1298   2464     1
   1301   2487     1
   1301   2470     1
   1305   1330     1
   1305   1327     1
   1305   1324     1
   1306   1321     1
   1306   1315     1
   1306   2521     1
   1309   1318     1
   1309   1315     1
   1309   2498     1
   1312   1318     1
   1312   1321     1
   1312   1333     1
   1318   2517     1
   1321   2494     1
   1327   2493     1
   1327   2510     1
   1330   2533     1
   1330   2516     1
   1334   1359     1
   1334   1356     1
   1334   1353     1
   1335   1350     1
   1335   1344     1
   1335   2567     1
   1338   1347     1
   1338   1344     1
   1338   2544     1
   1341   1347     1
   1341   1350     1
   1341   1362     1
   1347   2563     1
   1350   2540     1
   1356   2539     1
   1356   2556     1
   1359   2579     1
   1359   2562     1
   1363   1388     1
   1363   1385     1
   1363   1382     1
   1364   1379     1
   1364   1373     1
   1364   2613     1
   1367   1376     1
   1367   1373     1
   1367   2590     1
   1370   1376     1
   1370   1379     1
   1370   1391     1
   1376   2609     1
   1379   2586     1
   1385   2585     1
   1385   2602     1
   1388   2625     1
   1388   2608     1
   1392   1417     1
   1392   1414     1
   1392   1411     1
   1393   1408     1
   1393   1402     1
   1393   2659     1
   1396   1405     1
   1396   1402     1
   1396   2636     1
   1399   1405     1
   1399   1408     1
   1399   1420     1
   1405   2655     1
   1408   2632     1
   1414   2631     1
   1414   2648     1
   1417   2671     1
   1417   2654     1
   1421   1446     1
   1421   1443     1
   1421   1440     1
   1422   1437     1
   1422   1431     1
   1422   2705     1
   1425   1434     1
   1425   1431     1
   1425   2682     1
   1428   1434     1
   1428   1437     1
   1428   1449     1
   1434   2701     1
   1437   2678     1
   1443   2677     1
   1443   2694     1
   1446   2717     1
   1446   2700     1
   1450   1475     1
   1450   1472     1
   1450   1469     1
   1451   1466     1
   1451   1460     1
   1451   2751     1
   1454   1463     1
   1454   1460     1
   1454   2728     1
   1457   1463     1
   1457   1466     1
   1457   1478     1
   1463   2747     1
   1466   2724     1
   1472   2723     1
   1472   2740     1
   1475   2763     1
   1475   2746     1
   1479   1504     1
   1479   1501     1
   1479   1498     1
   1480   1495     1
   1480   1489     1
   1480   2797     1
   1483   1492     1
   1483   1489     1
   1483   2774     1
   1486   1492     1
   1486   1495     1
   1486   1507     1
   1492   2793     1
   1495   2770     1
   1501   2769     1
   1501   2786     1
   1504   2809     1
   1504   2792     1
   1508   1533     1
   1508   1530     1
   1508   1527     1
   1509   1524     1
   1509   1518     1
   1509   2843     1
   1512   1521     1
   1512   1518     1
   1512   2820     1
   1515   1521     1
   1515   1524     1
   1515   1536     1
   1521   2839     1
   1524   2816     1
   1530   2815     1
   1530   2832     1
   1533   2855     1
   1533   2838     1
   1537   1562     1
   1537   1559     1
   1537   1556     1
   1538   1553     1
   1538   1547     1
   1538   2889     1
   1541   1550     1
   1541   1547     1
   1541   2866     1
   1544   1550     1
   1544   1553     1
   1544   1565     1
   1550   2885     1
   1553   2862     1
   1559   2861     1
   1559   2878     1
   1562   2901     1
   1562   2884     1
   1566   1591     1
   1566   1588     1
   1566   1585     1
   1567   1582     1
   1567   1576     1
   1567   2935     1
   1570   1579     1
   1570   1576     1
   1570   2912     1
   1573   1579     1
   1573   1582     1
   1573   1594     1
   1579   2931     1
   1582   2908     1
   1588   2907     1
   1588   2924     1
   1591   2947     1
   1591   2930     1
   1595   1620     1
   1595   1617     1
   1595   1614     1
   1596   1611     1
   1596   1605     1
   1596   2981     1
   1599   1608     1
   1599   1605     1
   1599   2958     1
   1602   1608     1
   1602   1611     1
   1602   1623     1
   1608   2977     1
   1611   2954     1
   1617   2953     1
   1617   2970     1
   1620   2993     1
   1620   2976     1
   1624   1649     1
   1624   1646     1
   1624   1643     1
   1625   1640     1
   1625   1634     1
   1625   3027     1
   1628   1637     1
   1628   1634     1
   1628   3004     1
   1631   1637     1
   1631   1640     1
   1631   1652     1
   1637   3023     1
   1640   3000     1
   1646   2999     1
   1646   3016     1
   1649   3039     1
   1649   3022     1
   1653   1678     1
   1653   1675     1
   1653   1672     1
   1654   1669     1
   1654   1663     1
   1654   3073     1
   1657   1666     1
   1657   1663     1
   1657   3050     1
   1660   1666     1
   1660   1669     1
   1660   1681     1
   1666   3069     1
   1669   3046     1
   1675   3045     1
   1675   3062     1
   1678   3085     1
   1678   3068     1
   1682   1707     1
   1682   1704     1
   1682   1701     1
   1683   1698     1
   1683   1692     1
   1683   3119     1
   1686   1695     1
   1686   1692     1
   1686   3096     1
   1689   1695     1
   1689   1698     1
   1689   1710     1
   1695   3115     1
   1698   3092     1
   1704   3091     1
   1704   3108     1
   1707   3131     1
   1707   3114     1
   1711   1736     1
   1711   1733     1
   1711   1730     1
   1712   1727     1
   1712   1721     1
   1712   3165     1
   1715   1724     1
   1715   1721     1
   1715   3142     1
   1718   1724     1
   1718   1727     1
   1718   1739     1
   1724   3161     1
   1727   3138     1
   1733   3137     1
   1733   3154     1
   1736   3177     1
   1736   3160     1
   1740   1765     1
   1740   1762     1
   1740   1759     1
   1741   1756     1
   1741   1750     1
   1741   3211     1
   1744   1753     1
   1744   1750     1
   1744   3188     1
   1747   1753     1
   1747   1756     1
   1747   1768     1
   1753   3207     1
   1756   3184     1
   1762   3183     1
   1762   3200     1
   1765   3223     1
   1765   3206     1
   1769   1794     1
   1769   1791     1
   1769   1788     1
   1770   1785     1
   1770   1779     1
   1770   3257     1
   1773   1782     1
   1773   1779     1
   1773   3234     1
   1776   1782     1
   1776   1785     1
   1776   1797     1
   1782   3253     1
   1785   3230     1
   1791   3229     1
   1791   3246     1
   1794   3269     1
   1794   3252     1
   1798   1803     1
   1798   1810     1
   1798   1808     1
   1799   1818     1
   1799   1804     1
   1799   1809     1
   1802   1812     1
   1802   1820     1
   1802   1808     1
   1803   1811     1
   1804   1810     1
   1804   1812     1
   1808   1809     1
   1809   1810     1
   1809   1820     1
   1810   1811     1
   1811   1812     1
   1811   1820     1
   1818   1820     1
   1821   1826     1
   1821   1833     1
   1821   1831     1
   1822   1827     1
   1822   1832     1
   1822   1841     1
   1825   1831     1
   1825   1843     1
   1825   1835     1
   1826   1834     1
   1827   1835     1
   1827   1833     1
   1831   1832     1
   1832   1843     1
   1832   1833     1
   1833   1834     1
   1834   1835     1
   1834   1843     1
   1841   1843     1
   1844   1849     1
   1844   1856     1
   1844   1854     1
   1845   1864     1
   1845   1850     1
   1845   1855     1
   1848   1858     1
   1848   1866     1
   1848   1854     1
   1849   1857     1
   1850   1856     1
   1850   1858     1
   1854   1855     1
   1855   1856     1
   1855   1866     1
   1856   1857     1
   1857   1858     1
   1857   1866     1
   1864   1866     1
   1867   1872     1
   1867   1879     1
   1867   1877     1
   1868   1873     1
   1868   1878     1
   1868   1887     1
   1871   1877     1
   1871   1889     1
   1871   1881     1
   1872   1880     1
   1873   1881     1
   1873   1879     1
   1877   1878     1
   1878   1889     1
   1878   1879     1
   1879   1880     1
   1880   1881     1
   1880   1889     1
   1887   1889     1
   1890   1895     1
   1890   1902     1
   1890   1900     1
   1891   1910     1
   1891   1896     1
   1891   1901     1
   1894   1904     1
   1894   1912     1
   1894   1900     1
   1895   1903     1
   1896   1902     1
   1896   1904     1
   1900   1901     1
   1901   1902     1
   1901   1912     1
   1902   1903     1
   1903   1904     1
   1903   1912     1
   1910   1912     1
   1913   1918     1
   1913   1925     1
   1913   1923     1
   1914   1919     1
   1914   1924     1
   1914   1933     1
   1917   1923     1
   1917   1935     1
   1917   1927     1
   1918   1926     1
   1919   1927     1
   1919   1925     1
   1923   1924     1
   1924   1935     1
   1924   1925     1
   1925   1926     1
   1926   1927     1
   1926   1935     1
   1933   1935     1
   1936   1941     1
   1936   1948     1
   1936   1946     1
   1937   1956     1
   1937   1942     1
   1937   1947     1
   1940   1950     1
   1940   1958     1
   1940   1946     1
   1941   1949     1
   1942   1948     1
   1942   1950     1
   1946   1947     1
   1947   1948     1
   1947   1958     1
   1948   1949     1
   1949   1950     1
   1949   1958     1
   1956   1958     1
   1959   1964     1
   1959   1971     1
   1959   1969     1
   1960   1965     1
   1960   1970     1
   1960   1979     1
   1963   1969     1
   1963   1981     1
   1963   1973     1
   1964   1972     1
   1965   1973     1
   1965   1971     1
   1969   1970     1
   1970   1981     1
   1970   1971     1
   1971   1972     1
   1972   1973     1
   1972   1981     1
   1979   1981     1
   1982   1987     1
   1982   1994     1
   1982   1992     1
   1983   2002     1
   1983   1988     1
   1983   1993     1
   1986   1996     1
   1986   2004     1
   1986   1992     1
   1987   1995     1
   1988   1994     1
   1988   1996     1
   1992   1993     1
   1993   1994     1
   1993   2004     1
   1994   1995     1
   1995   1996     1
   1995   2004     1
   2002   2004     1
   2005   2010     1
   2005   2017     1
   2005   2015     1
   2006   2011     1
   2006   2016     1
   2006   2025     1
   2009   2015     1
   2009   2027     1
   2009   2019     1
   2010   2018     1
   2011   2019     1
   2011   2017     1
   2015   2016     1
   2016   2027     1
   2016   2017     1
   2017   2018     1
   2018   2019     1
   2018   2027     1
   2025   2027     1
   2028   2033     1
   2028   2040     1
   2028   2038     1
   2029   2048     1
   2029   2034     1
   2029   2039     1
   2032   2042     1
   2032   2050     1
   2032   2038     1
   2033   2041     1
   2034   2040     1
   2034   2042     1
   2038   2039     1
   2039   2040     1
   2039   2050     1
   2040   2041     1
   2041   2042     1
   2041   2050     1
   2048   2050     1
   2051   2056     1
   2051   2063     1
   2051   2061     1
   2052   2057     1
   2052   2062     1
   2052   2071     1
   2055   2061     1
   2055   2073     1
   2055   2065     1
   2056   2064     1
   2057   2065     1
   2057   2063     1
   2061   2062     1
   2062   2073     1
   2062   2063     1
   2063   2064     1
   2064   2065     1
   2064   2073     1
   2071   2073     1
   2074   2079     1
   2074   2086     1
   2074   2084     1
   2075   2094     1
   2075   2080     1
   2075   2085     1
   2078   2088     1
   2078   2096     1
   2078   2084     1
   2079   2087     1
   2080   2086     1
   2080   2088     1
   2084   2085     1
   2085   2086     1
   2085   2096     1
   2086   2087     1
   2087   2088     1
   2087   2096     1
   2094   2096     1
   2097   2102     1
   2097   2109     1
   2097   2107     1
   2098   2103     1
   2098   2108     1
   2098   2117     1
   2101   2107     1
   2101   2119     1
   2101   2111     1
   2102   2110     1
   2103   2111     1
   2103   2109     1
   2107   2108     1
   2108   2119     1
   2108   2109     1
   2109   2110     1
   2110   2111     1
   2110   2119     1
   2117   2119     1
   2120   2125     1
   2120   2132     1
   2120   2130     1
   2121   2140     1
   2121   2126     1
   2121   2131     1
   2124   2134     1
   2124   2142     1
   2124   2130     1
   2125   2133     1
   2126   2132     1
   2126   2134     1
   2130   2131     1
   2131   2132     1
   2131   2142     1
   2132   2133     1
   2133   2134     1
   2133   2142     1
   2140   2142     1
   2143   2148     1
   2143   2155     1
   2143   2153     1
   2144   2149     1
   2144   2154     1
   2144   2163     1
   2147   2153     1
   2147   2165     1
   2147   2157     1
   2148   2156     1
   2149   2157     1
   2149   2155     1
   2153   2154     1
   2154   2165     1
   2154   2155     1
   2155   2156     1
   2156   2157     1
   2156   2165     1
   2163   2165     1
   2166   2171     1
   2166   2178     1
   2166   2176     1
   2167   2186     1
   2167   2172     1
   2167   2177     1
   2170   2180     1
   2170   2188     1
   2170   2176     1
   2171   2179     1
   2172   2178     1
   2172   2180     1
   2176   2177     1
   2177   2178     1
   2177   2188     1
   2178   2179     1
   2179   2180     1
   2179   2188     1
   2186   2188     1
   2189   2194     1
   2189   2201     1
   2189   2199     1
   2190   2195     1
   2190   2200     1
   2190   2209     1
   2193   2199     1
   2193   2211     1
   2193   2203     1
   2194   2202     1
   2195   2203     1
   2195   2201     1
   2199   2200     1
   2200   2211     1
   2200   2201     1
   2201   2202     1
   2202   2203     1
   2202   2211     1
   2209   2211     1
   2212   2217     1
   2212   2224     1
   2212   2222     1
   2213   2232     1
   2213   2218     1
   2213   2223     1
   2216   2226     1
   2216   2234     1
   2216   2222     1
   2217   2225     1
   2218   2224     1
   2218   2226     1
   2222   2223     1
   2223   2224     1
   2223   2234     1
   2224   2225     1
   2225   2226     1
   2225   2234     1
   2232   2234     1
   2235   2240     1
   2235   2247     1
   2235   2245     1
   2236   2241     1
   2236   2246     1
   2236   2255     1
   2239   2245     1
   2239   2257     1
   2239   2249     1
   2240   2248     1
   2241   2249     1
   2241   2247     1
   2245   2246     1
   2246   2257     1
   2246   2247     1
   2247   2248     1
   2248   2249     1
   2248   2257     1
   2255   2257     1
   2258   2263     1
   2258   2270     1
   2258   2268     1
   2259   2278     1
   2259   2264     1
   2259   2269     1
   2262   2272     1
   2262   2280     1
   2262   2268     1
   2263   2271     1
   2264   2270     1
   2264   2272     1
   2268   2269     1
   2269   2270     1
   2269   2280     1
   2270   2271     1
   2271   2272     1
   2271   2280     1
   2278   2280     1
   2281   2286     1
   2281   2293     1
   2281   2291     1
   2282   2287     1
   2282   2292     1
   2282   2301     1
   2285   2291     1
   2285   2303     1
   2285   2295     1
   2286   2294     1
   2287   2295     1
   2287   2293     1
   2291   2292     1
   2292   2303     1
   2292   2293     1
   2293   2294     1
   2294   2295     1
   2294   2303     1
   2301   2303     1
   2304   2309     1
   2304   2316     1
   2304   2314     1
   2305   2324     1
   2305   2310     1
   2305   2315     1
   2308   2318     1
   2308   2326     1
   2308   2314     1
   2309   2317     1
   2310   2316     1
   2310   2318     1
   2314   2315     1
   2315   2316     1
   2315   2326     1
   2316   2317     1
   2317   2318     1
   2317   2326     1
   2324   2326     1
   2327   2332     1
   2327   2339     1
   2327   2337     1
   2328   2333     1
   2328   2338     1
   2328   2347     1
   2331   2337     1
   2331   2349     1
   2331   2341     1
   2332   2340     1
   2333   2341     1
   2333   2339     1
   2337   2338     1
   2338   2349     1
   2338   2339     1
   2339   2340     1
   2340   2341     1
   2340   2349     1
   2347   2349     1
   2350   2355     1
   2350   2362     1
   2350   2360     1
   2351   2370     1
   2351   2356     1
   2351   2361     1
   2354   2364     1
   2354   2372     1
   2354   2360     1
   2355   2363     1
   2356   2362     1
   2356   2364     1
   2360   2361     1
   2361   2362     1
   2361   2372     1
   2362   2363     1
   2363   2364     1
   2363   2372     1
   2370   2372     1
   2373   2378     1
   2373   2385     1
   2373   2383     1
   2374   2379     1
   2374   2384     1
   2374   2393     1
   2377   2383     1
   2377   2395     1
   2377   2387     1
   2378   2386     1
   2379   2387     1
   2379   2385     1
   2383   2384     1
   2384   2395     1
   2384   2385     1
   2385   2386     1
   2386   2387     1
   2386   2395     1
   2393   2395     1
   2396   2401     1
   2396   2408     1
   2396   2406     1
   2397   2416     1
   2397   2402     1
   2397   2407     1
   2400   2410     1
   2400   2418     1
   2400   2406     1
   2401   2409     1
   2402   2408     1
   2402   2410     1
   2406   2407     1
   2407   2408     1
   2407   2418     1
   2408   2409     1
   2409   2410     1
   2409   2418     1
   2416   2418     1
   2419   2424     1
   2419   2431     1
   2419   2429     1
   2420   2425     1
   2420   2430     1
   2420   2439     1
   2423   2429     1
   2423   2441     1
   2423   2433     1
   2424   2432     1
   2425   2433     1
   2425   2431     1
   2429   2430     1
   2430   2441     1
   2430   2431     1
   2431   2432     1
   2432   2433     1
   2432   2441     1
   2439   2441     1
   2442   2447     1
   2442   2454     1
   2442   2452     1
   2443   2462     1
   2443   2448     1
   2443   2453     1
   2446   2456     1
   2446   2464     1
   2446   2452     1
   2447   2455     1
   2448   2454     1
   2448   2456     1
   2452   2453     1
   2453   2454     1
   2453   2464     1
   2454   2455     1
   2455   2456     1
   2455   2464     1
   2462   2464     1
   2465   2470     1
   2465   2477     1
   2465   2475     1
   2466   2471     1
   2466   2476     1
   2466   2485     1
   2469   2475     1
   2469   2487     1
   2469   2479     1
   2470   2478     1
   2471   2479     1
   2471   2477     1
   2475   2476     1
   2476   2487     1
   2476   2477     1
   2477   2478     1
   2478   2479     1
   2478   2487     1
   2485   2487     1
   2488   2493     1
   2488   2500     1
   2488   2498     1
   2489   2508     1
   2489   2494     1
   2489   2499     1
   2492   2502     1
   2492   2510     1
   2492   2498     1
   2493   2501     1
   2494   2500     1
   2494   2502     1
   2498   2499     1
   2499   2500     1
   2499   2510     1
   2500   2501     1
   2501   2502     1
   2501   2510     1
   2508   2510     1
   2511   2516     1
   2511   2523     1
   2511   2521     1
   2512   2517     1
   2512   2522     1
   2512   2531     1
   2515   2521     1
   2515   2533     1
   2515   2525     1
   2516   2524     1
   2517   2525     1
   2517   2523     1
   2521   2522     1
   2522   2533     1
   2522   2523     1
   2523   2524     1
   2524   2525     1
   2524   2533     1
   2531   2533     1
   2534   2539     1
   2534   2546     1
   2534   2544     1
   2535   2554     1
   2535   2540     1
   2535   2545     1
   2538   2548     1
   2538   2556     1
   2538   2544     1
   2539   2547     1
   2540   2546     1
   2540   2548     1
   2544   2545     1
   2545   2546     1
   2545   2556     1
   2546   2547     1
   2547   2548     1
   2547   2556     1
   2554   2556     1
   2557   2562     1
   2557   2569     1
   2557   2567     1
   2558   2563     1
   2558   2568     1
   2558   2577     1
   2561   2567     1
   2561   2579     1
   2561   2571     1
   2562   2570     1
   2563   2571     1
   2563   2569     1
   2567   2568     1
   2568   2579     1
   2568   2569     1
   2569   2570     1
   2570   2571     1
   2570   2579     1
   2577   2579     1
   2580   2585     1
   2580   2592     1
   2580   2590     1
   2581   2600     1
   2581   2586     1
   2581   2591     1
   2584   2594     1
   2584   2602     1
   2584   2590     1
   2585   2593     1
   2586   2592     1
   2586   2594     1
   2590   2591     1
   2591   2592     1
   2591   2602     1
   2592   2593     1
   2593   2594     1
   2593   2602     1
   2600   2602     1
   2603   2608     1
   2603   2615     1
   2603   2613     1
   2604   2609     1
   2604   2614     1
   2604   2623     1
   2607   2613     1
   2607   2625     1
   2607   2617     1
   2608   2616     1
   2609   2617     1
   2609   2615     1
   2613   2614     1
   2614   2625     1
   2614   2615     1
   2615   2616     1
   2616   2617     1
   2616   2625     1
   2623   2625     1
   2626   2631     1
   2626   2638     1
   2626   2636     1
   2627   2646     1
   2627   2632     1
   2627   2637     1
   2630   2640     1
   2630   2648     1
   2630   2636     1
   2631   2639     1
   2632   2638     1
   2632   2640     1
   2636   2637     1
   2637   2638     1
   2637   2648     1
   2638   2639     1
   2639   2640     1
   2639   2648     1
   2646   2648     1
   2649   2654     1
   2649   2661     1
   2649   2659     1
   2650   2655     1
   2650   2660     1
   2650   2669     1
   2653   2659     1
   2653   2671     1
   2653   2663     1
   2654   2662     1
   2655   2663     1
   2655   2661     1
   2659   2660     1
   2660   2671     1
   2660   2661     1
   2661   2662     1
   2662   2663     1
   2662   2671     1
   2669   2671     1
   2672   2677     1
   2672   2684     1
   2672   2682     1
   2673   2692     1
   2673   2678     1
   2673   2683     1
   2676   2686     1
   2676   2694     1
   2676   2682     1
   2677   2685     1
   2678   2684     1
   2678   2686     1
   2682   2683     1
   2683   2684     1
   2683   2694     1
   2684   2685     1
   2685   2686     1
   2685   2694     1
   2692   2694     1
   2695   2700     1
   2695   2707     1
   2695   2705     1
   2696   2701     1
   2696   2706     1
   2696   2715     1
   2699   2705     1
   2699   2717     1
   2699   2709     1
   2700   2708     1
   2701   2709     1
   2701   2707     1
   2705   2706     1
   2706   2717     1
   2706   2707     1
   2707   2708     1
   2708   2709     1
   2708   2717     1
   2715   2717     1
   2718   2723     1
   2718   2730     1
   2718   2728     1
   2719   2738     1
   2719   2724     1
   2719   2729     1
   2722   2732     1
   2722   2740     1
   2722   2728     1
   2723   2731     1
   2724   2730     1
   2724   2732     1
   2728   2729     1
   2729   2730     1
   2729   2740     1
   2730   2731     1
   2731   2732     1
   2731   2740     1
   2738   2740     1
   2741   2746     1
   2741   2753     1
   2741   2751     1
   2742   2747     1
   2742   2752     1
   2742   2761     1
   2745   2751     1
   2745   2763     1
   2745   2755     1
   2746   2754     1
   2747   2755     1
   2747   2753     1
   2751   2752     1
   2752   2763     1
   2752   2753     1
   2753   2754     1
   2754   2755     1
   2754   2763     1
   2761   2763     1
   2764   2769     1
   2764   2776     1
   2764   2774     1
   2765   2784     1
   2765   2770     1
   2765   2775     1
   2768   2778     1
   2768   2786     1
   2768   2774     1
   2769   2777     1
   2770   2776     1
   2770   2778     1
   2774   2775     1
   2775   2776     1
   2775   2786     1
   2776   2777     1
   2777   2778     1
   2777   2786     1
   2784   2786     1
   2787   2792     1
   2787   2799     1
   2787   2797     1
   2788   2793     1
   2788   2798     1
   2788   2807     1
   2791   2797     1
   2791   2809     1
   2791   2801     1
   2792   2800     1
   2793   2801     1
   2793   2799     1
   2797   2798     1
   2798   2809     1
   2798   2799     1
   2799   2800     1
   2800   2801     1
   2800   2809     1
   2807   2809     1
   2810   2815     1
   2810   2822     1
   2810   2820     1
   2811   2830     1
   2811   2816     1
   2811   2821     1
   2814   2824     1
   2814   2832     1
   2814   2820     1
   2815   2823     1
   2816   2822     1
   2816   2824     1
   2820   2821     1
   2821   2822     1
   2821   2832     1
   2822   2823     1
   2823   2824     1
   2823   2832     1
   2830   2832     1
   2833   2838     1
   2833   2845     1
   2833   2843     1
   2834   2839     1
   2834   2844     1
   2834   2853     1
   2837   2843     1
   2837   2855     1
   2837   2847     1
   2838   2846     1
   2839   2847     1
   2839   2845     1
   2843   2844     1
   2844   2855     1
   2844   2845     1
   2845   2846     1
   2846   2847     1
   2846   2855     1
   2853   2855     1
   2856   2861     1
   2856   2868     1
   2856   2866     1
   2857   2876     1
   2857   2862     1
   2857   2867     1
   2860   2870     1
   2860   2878     1
   2860   2866     1
   2861   2869     1
   2862   2868     1
   2862   2870     1
   2866   2867     1
   2867   2868     1
   2867   2878     1
   2868   2869     1
   2869   2870     1
   2869   2878     1
   2876   2878     1
   2879   2884     1
   2879   2891     1
   2879   2889     1
   2880   2885     1
   2880   2890     1
   2880   2899     1
   2883   2889     1
   2883   2901     1
   2883   2893     1
   2884   2892     1
   2885   2893     1
   2885   2891     1
   2889   2890     1
   2890   2901     1
   2890   2891     1
   2891   2892     1
   2892   2893     1
   2892   2901     1
   2899   2901     1
   2902   2907     1
   2902   2914     1
   2902   2912     1
   2903   2922     1
   2903   2908     1
   2903   2913     1
   2906   2916     1
   2906   2924     1
   2906   2912     1
   2907   2915     1
   2908   2914     1
   2908   2916     1
   2912   2913     1
   2913   2914     1
   2913   2924     1
   2914   2915     1
   2915   2916     1
   2915   2924     1
   2922   2924     1
   2925   2930     1
   2925   2937     1
   2925   2935     1
   2926   2931     1
   2926   2936     1
   2926   2945     1
   2929   2935     1
   2929   2947     1
   2929   2939     1
   2930   2938     1
   2931   2939     1
   2931   2937     1
   2935   2936     1
   2936   2947     1
   2936   2937     1
   2937   2938     1
   2938   2939     1
   2938   2947     1
   2945   2947     1
   2948   2953     1
   2948   2960     1
   2948   2958     1
   2949   2968     1
   2949   2954     1
   2949   2959     1
   2952   2962     1
   2952   2970     1
   2952   2958     1
   2953   2961     1
   2954   2960     1
   2954   2962     1
   2958   2959     1
   2959   2960     1
   2959   2970     1
   2960   2961     1
   2961   2962     1
   2961   2970     1
   2968   2970     1
   2971   2976     1
   2971   2983     1
   2971   2981     1
   2972   2977     1
   2972   2982     1
   2972   2991     1
   2975   2981     1
   2975   2993     1
   2975   2985     1
   2976   2984     1
   2977   2985     1
   2977   2983     1
   2981   2982     1
   2982   2993     1
   2982   2983     1
   2983   2984     1
   2984   2985     1
   2984   2993     1
   2991   2993     1
   2994   2999     1
   2994   3006     1
   2994   3004     1
   2995   3014     1
   2995   3000     1
   2995   3005     1
   2998   3008     1
   2998   3016     1
   2998   3004     1
   2999   3007     1
   3000   3006     1
   3000   3008     1
   3004   3005     1
   3005   3006     1
   3005   3016     1
   3006   3007     1
   3007   3008     1
   3007   3016     1
   3014   3016     1
   3017   3022     1
   3017   3029     1
   3017   3027     1
   3018   3023     1
   3018   3028     1
   3018   3037     1
   3021   3027     1
   3021   3039     1
   3021   3031     1
   3022   3030     1
   3023   3031     1
   3023   3029     1
   3027   3028     1
   3028   3039     1
   3028   3029     1
   3029   3030     1
   3030   3031     1
   3030   3039     1
   3037   3039     1
   3040   3045     1
   3040   3052     1
   3040   3050     1
   3041   3060     1
   3041   3046     1
   3041   3051     1
   3044   3054     1
   3044   3062     1
   3044   3050     1
   3045   3053     1
   3046   3052     1
   3046   3054     1
   3050   3051     1
   3051   3052     1
   3051   3062     1
   3052   3053     1
   3053   3054     1
   3053   3062     1
   3060   3062     1
   3063   3068     1
   3063   3075     1
   3063   3073     1
   3064   3069     1
   3064   3074     1
   3064   3083     1
   3067   3073     1
   3067   3085     1
   3067   3077     1
   3068   3076     1
   3069   3077     1
   3069   3075     1
   3073   3074     1
   3074   3085     1
   3074   3075     1
   3075   3076     1
   3076   3077     1
   3076   3085     1
   3083   3085     1
   3086   3091     1
   3086   3098     1
   3086   3096     1
   3087   3106     1
   3087   3092     1
   3087   3097     1
   3090   3100     1
   3090   3108     1
   3090   3096     1
   3091   3099     1
   3092   3098     1
   3092   3100     1
   3096   3097     1
   3097   3098     1
   3097   3108     1
   3098   3099     1
   3099   3100     1
   3099   3108     1
   3106   3108     1
   3109   3114     1
   3109   3121     1
   3109   3119     1
   3110   3115     1
   3110   3120     1
   3110   3129     1
   3113   3119     1
   3113   3131     1
   3113   3123     1
   3114   3122     1
   3115   3123     1
   3115   3121     1
   3119   3120     1
   3120   3131     1
   3120   3121     1
   3121   3122     1
   3122   3123     1
   3122   3131     1
   3129   3131     1
   3132   3137     1
   3132   3144     1
   3132   3142     1
   3133   3152     1
   3133   3138     1
   3133   3143     1
   3136   3146     1
   3136   3154     1
   3136   3142     1
   3137   3145     1
   3138   3144     1
   3138   3146     1
   3142   3143     1
   3143   3144     1
   3143   3154     1
   3144   3145     1
   3145   3146     1
   3145   3154     1
   3152   3154     1
   3155   3160     1
   3155   3167     1
   3155   3165     1
   3156   3161     1
   3156   3166     1
   3156   3175     1
   3159   3165     1
   3159   3177     1
   3159   3169     1
   3160   3168     1
   3161   3169     1
   3161   3167     1
   3165   3166     1
   3166   3177     1
   3166   3167     1
   3167   3168     1
   3168   3169     1
   3168   3177     1
   3175   3177     1
   3178   3183     1
   3178   3190     1
   3178   3188     1
   3179   3198     1
   3179   3184     1
   3179   3189     1
   3182   3192     1
   3182   3200     1
   3182   3188     1
   3183   3191     1
   3184   3190     1
   3184   3192     1
   3188   3189     1
   3189   3190     1
   3189   3200     1
   3190   3191     1
   3191   3192     1
   3191   3200     1
   3198   3200     1
   3201   3206     1
   3201   3213     1
   3201   3211     1
   3202   3207     1
   3202   3212     1
   3202   3221     1
   3205   3211     1
   3205   3223     1
   3205   3215     1
   3206   3214     1
   3207   3215     1
   3207   3213     1
   3211   3212     1
   3212   3223     1
   3212   3213     1
   3213   3214     1
   3214   3215     1
   3214   3223     1
   3221   3223     1
   3224   3229     1
   3224   3236     1
   3224   3234     1
   3225   3244     1
   3225   3230     1
   3225   3235     1
   3228   3238     1
   3228   3246     1
   3228   3234     1
   3229   3237     1
   3230   3236     1
   3230   3238     1
   3234   3235     1
   3235   3236     1
   3235   3246     1
   3236   3237     1
   3237   3238     1
   3237   3246     1
   3244   3246     1
   3247   3252     1
   3247   3259     1
   3247   3257     1
   3248   3253     1
   3248   3258     1
   3248   3267     1
   3251   3257     1
   3251   3269     1
   3251   3261     1
   3252   3260     1
   3253   3261     1
   3253   3259     1
   3257   3258     1
   3258   3269     1
   3258   3259     1
   3259   3260     1
   3260   3261     1
   3260   3269     1
   3267   3269     1
      1      9     1
      1     10     1
      1     12     1
      1     13     1
      2      6     1
      2      7     1
      2     15     1
      2     16     1
      5      3     1
      3     14     1
      3      9     1
      3     10     1
      5      4     1
      4     14     1
      4      9     1
      4     10     1
      5     18     1
      5     19     1
      6     17     1
      6     12     1
      6     13     1
      7     17     1
      7     12     1
      7     13     1
      9     20     1
      9     15     1
      9     16     1
     10     20     1
     10     15     1
     10     16     1
     12     21     1
     12     18     1
     12     19     1
     13     21     1
     13     18     1
     13     19     1
     14     29     1
     14     30     1
     14     32     1
     14     33     1
     15     28     1
     15     31     1
     16     28     1
     16     31     1
     17     23     1
     17     24     1
     17     26     1
     17     27     1
     18     22     1
     18     25     1
     19     22     1
     19     25     1
     20     41     1
     20     42     1
     20     44     1
     20     45     1
     21     35     1
     21     36     1
     21     38     1
     21     39     1
     22     26     1
     22     27     1
     22     56     1
     22     57     1
     23     25     1
     23     55     1
     23     35     1
     23     36     1
     24     25     1
     24     55     1
     24     35     1
     24     36     1
     25     53     1
     25     54     1
     26     52     1
     26     38     1
     26     39     1
     27     52     1
     27     38     1
     27     39     1
     28     32     1
     28     33     1
     28     50     1
     28     51     1
     29     31     1
     29     49     1
     29     41     1
     29     42     1
     30     31     1
     30     49     1
     30     41     1
     30     42     1
     31     47     1
     31     48     1
     32     46     1
     32     44     1
     32     45     1
     33     46     1
     33     44     1
     33     45     1
     35    173     1
     35     56     1
     35     57     1
     36    173     1
     36     56     1
     36     57     1
     38    144     1
     38     53     1
     38     54     1
     39    144     1
     39     53     1
     39     54     1
     41    115     1
     41     50     1
     41     51     1
     42    115     1
     42     50     1
     42     51     1
     44     86     1
     44     47     1
     44     48     1
     45     86     1
     45     47     1
     45     48     1
     46     78     1
     46     79     1
     47     77     1
     48     77     1
     49    107     1
     49    108     1
     50    106     1
     51    106     1
     52    136     1
     52    137     1
     53    135     1
     54    135     1
     55    165     1
     55    166     1
     56    164     1
     57    164     1
     58     72     1
     58     73     1
     58     75     1
     58     76     1
     58     69     1
     58     70     1
     59     63     1
     59     64     1
     59     66     1
     59     67     1
     59     84     1
     59     85     1
     60     62     1
     60     65     1
     60     83     1
     60     72     1
     60     73     1
     61     62     1
     61     65     1
     61     83     1
     61     72     1
     61     73     1
     62     66     1
     62     67     1
     62     81     1
     62     82     1
     63     65     1
     63     80     1
     63     75     1
     63     76     1
     64     65     1
     64     80     1
     64     75     1
     64     76     1
     65     78     1
     65     79     1
     66     77     1
     66     69     1
     66     70     1
     67     77     1
     67     69     1
     67     70     1
     69     86     1
     69     78     1
     69     79     1
     70     86     1
     70     78     1
     70     79     1
     72    231     1
     72     84     1
     72     85     1
     73    231     1
     73     84     1
     73     85     1
     75    202     1
     75     81     1
     75     82     1
     76    202     1
     76     81     1
     76     82     1
     80    194     1
     80    195     1
     81    193     1
     82    193     1
     83    223     1
     83    224     1
     84    222     1
     85    222     1
     87    101     1
     87    102     1
     87    104     1
     87    105     1
     87     98     1
     87     99     1
     88     92     1
     88     93     1
     88     95     1
     88     96     1
     88    113     1
     88    114     1
     89     91     1
     89     94     1
     89    112     1
     89    101     1
     89    102     1
     90     91     1
     90     94     1
     90    112     1
     90    101     1
     90    102     1
     91     95     1
     91     96     1
     91    110     1
     91    111     1
     92     94     1
     92    109     1
     92    104     1
     92    105     1
     93     94     1
     93    109     1
     93    104     1
     93    105     1
     94    107     1
     94    108     1
     95    106     1
     95     98     1
     95     99     1
     96    106     1
     96     98     1
     96     99     1
     98    115     1
     98    107     1
     98    108     1
     99    115     1
     99    107     1
     99    108     1
    101    289     1
    101    113     1
    101    114     1
    102    289     1
    102    113     1
    102    114     1
    104    260     1
    104    110     1
    104    111     1
    105    260     1
    105    110     1
    105    111     1
    109    252     1
    109    253     1
    110    251     1
    111    251     1
    112    281     1
    112    282     1
    113    280     1
    114    280     1
    116    130     1
    116    131     1
    116    133     1
    116    134     1
    116    127     1
    116    128     1
    117    121     1
    117    122     1
    117    124     1
    117    125     1
    117    142     1
    117    143     1
    118    120     1
    118    123     1
    118    141     1
    118    130     1
    118    131     1
    119    120     1
    119    123     1
    119    141     1
    119    130     1
    119    131     1
    120    124     1
    120    125     1
    120    139     1
    120    140     1
    121    123     1
    121    138     1
    121    133     1
    121    134     1
    122    123     1
    122    138     1
    122    133     1
    122    134     1
    123    136     1
    123    137     1
    124    135     1
    124    127     1
    124    128     1
    125    135     1
    125    127     1
    125    128     1
    127    144     1
    127    136     1
    127    137     1
    128    144     1
    128    136     1
    128    137     1
    130    347     1
    130    142     1
    130    143     1
    131    347     1
    131    142     1
    131    143     1
    133    318     1
    133    139     1
    133    140     1
    134    318     1
    134    139     1
    134    140     1
    138    310     1
    138    311     1
    139    309     1
    140    309     1
    141    339     1
    141    340     1
    142    338     1
    143    338     1
    145    159     1
    145    160     1
    145    162     1
    145    163     1
    145    156     1
    145    157     1
    146    150     1
    146    151     1
    146    153     1
    146    154     1
    146    171     1
    146    172     1
    147    149     1
    147    152     1
    147    170     1
    147    159     1
    147    160     1
    148    149     1
    148    152     1
    148    170     1
    148    159     1
    148    160     1
    149    153     1
    149    154     1
    149    168     1
    149    169     1
    150    152     1
    150    167     1
    150    162     1
    150    163     1
    151    152     1
    151    167     1
    151    162     1
    151    163     1
    152    165     1
    152    166     1
    153    164     1
    153    156     1
    153    157     1
    154    164     1
    154    156     1
    154    157     1
    156    173     1
    156    165     1
    156    166     1
    157    173     1
    157    165     1
    157    166     1
    159    405     1
    159    171     1
    159    172     1
    160    405     1
    160    171     1
    160    172     1
    162    376     1
    162    168     1
    162    169     1
    163    376     1
    163    168     1
    163    169     1
    167    368     1
    167    369     1
    168    367     1
    169    367     1
    170    397     1
    170    398     1
    171    396     1
    172    396     1
    174    188     1
    174    189     1
    174    191     1
    174    192     1
    174    185     1
    174    186     1
    175    179     1
    175    180     1
    175    182     1
    175    183     1
    175    200     1
    175    201     1
    176    178     1
    176    181     1
    176    199     1
    176    188     1
    176    189     1
    177    178     1
    177    181     1
    177    199     1
    177    188     1
    177    189     1
    178    182     1
    178    183     1
    178    197     1
    178    198     1
    179    181     1
    179    196     1
    179    191     1
    179    192     1
    180    181     1
    180    196     1
    180    191     1
    180    192     1
    181    194     1
    181    195     1
    182    193     1
    182    185     1
    182    186     1
    183    193     1
    183    185     1
    183    186     1
    185    202     1
    185    194     1
    185    195     1
    186    202     1
    186    194     1
    186    195     1
    188    463     1
    188    200     1
    188    201     1
    189    463     1
    189    200     1
    189    201     1
    191    434     1
    191    197     1
    191    198     1
    192    434     1
    192    197     1
    192    198     1
    196    426     1
    196    427     1
    197    425     1
    198    425     1
    199    455     1
    199    456     1
    200    454     1
    201    454     1
    203    217     1
    203    218     1
    203    220     1
    203    221     1
    203    214     1
    203    215     1
    204    208     1
    204    209     1
    204    211     1
    204    212     1
    204    229     1
    204    230     1
    205    207     1
    205    210     1
    205    228     1
    205    217     1
    205    218     1
    206    207     1
    206    210     1
    206    228     1
    206    217     1
    206    218     1
    207    211     1
    207    212     1
    207    226     1
    207    227     1
    208    210     1
    208    225     1
    208    220     1
    208    221     1
    209    210     1
    209    225     1
    209    220     1
    209    221     1
    210    223     1
    210    224     1
    211    222     1
    211    214     1
    211    215     1
    212    222     1
    212    214     1
    212    215     1
    214    231     1
    214    223     1
    214    224     1
    215    231     1
    215    223     1
    215    224     1
    217    521     1
    217    229     1
    217    230     1
    218    521     1
    218    229     1
    218    230     1
    220    492     1
    220    226     1
    220    227     1
    221    492     1
    221    226     1
    221    227     1
    225    484     1
    225    485     1
    226    483     1
    227    483     1
    228    513     1
    228    514     1
    229    512     1
    230    512     1
    232    246     1
    232    247     1
    232    249     1
    232    250     1
    232    243     1
    232    244     1
    233    237     1
    233    238     1
    233    240     1
    233    241     1
    233    258     1
    233    259     1
    234    236     1
    234    239     1
    234    257     1
    234    246     1
    234    247     1
    235    236     1
    235    239     1
    235    257     1
    235    246     1
    235    247     1
    236    240     1
    236    241     1
    236    255     1
    236    256     1
    237    239     1
    237    254     1
    237    249     1
    237    250     1
    238    239     1
    238    254     1
    238    249     1
    238    250     1
    239    252     1
    239    253     1
    240    251     1
    240    243     1
    240    244     1
    241    251     1
    241    243     1
    241    244     1
    243    260     1
    243    252     1
    243    253     1
    244    260     1
    244    252     1
    244    253     1
    246    579     1
    246    258     1
    246    259     1
    247    579     1
    247    258     1
    247    259     1
    249    550     1
    249    255     1
    249    256     1
    250    550     1
    250    255     1
    250    256     1
    254    542     1
    254    543     1
    255    541     1
    256    541     1
    257    571     1
    257    572     1
    258    570     1
    259    570     1
    261    275     1
    261    276     1
    261    278     1
    261    279     1
    261    272     1
    261    273     1
    262    266     1
    262    267     1
    262    269     1
    262    270     1
    262    287     1
    262    288     1
    263    265     1
    263    268     1
    263    286     1
    263    275     1
    263    276     1
    264    265     1
    264    268     1
    264    286     1
    264    275     1
    264    276     1
    265    269     1
    265    270     1
    265    284     1
    265    285     1
    266    268     1
    266    283     1
    266    278     1
    266    279     1
    267    268     1
    267    283     1
    267    278     1
    267    279     1
    268    281     1
    268    282     1
    269    280     1
    269    272     1
    269    273     1
    270    280     1
    270    272     1
    270    273     1
    272    289     1
    272    281     1
    272    282     1
    273    289     1
    273    281     1
    273    282     1
    275    637     1
    275    287     1
    275    288     1
    276    637     1
    276    287     1
    276    288     1
    278    608     1
    278    284     1
    278    285     1
    279    608     1
    279    284     1
    279    285     1
    283    600     1
    283    601     1
    284    599     1
    285    599     1
    286    629     1
    286    630     1
    287    628     1
    288    628     1
    290    304     1
    290    305     1
    290    307     1
    290    308     1
    290    301     1
    290    302     1
    291    295     1
    291    296     1
    291    298     1
    291    299     1
    291    316     1
    291    317     1
    292    294     1
    292    297     1
    292    315     1
    292    304     1
    292    305     1
    293    294     1
    293    297     1
    293    315     1
    293    304     1
    293    305     1
    294    298     1
    294    299     1
    294    313     1
    294    314     1
    295    297     1
    295    312     1
    295    307     1
    295    308     1
    296    297     1
    296    312     1
    296    307     1
    296    308     1
    297    310     1
    297    311     1
    298    309     1
    298    301     1
    298    302     1
    299    309     1
    299    301     1
    299    302     1
    301    318     1
    301    310     1
    301    311     1
    302    318     1
    302    310     1
    302    311     1
    304    695     1
    304    316     1
    304    317     1
    305    695     1
    305    316     1
    305    317     1
    307    666     1
    307    313     1
    307    314     1
    308    666     1
    308    313     1
    308    314     1
    312    658     1
    312    659     1
    313    657     1
    314    657     1
    315    687     1
    315    688     1
    316    686     1
    317    686     1
    319    333     1
    319    334     1
    319    336     1
    319    337     1
    319    330     1
    319    331     1
    320    324     1
    320    325     1
    320    327     1
    320    328     1
    320    345     1
    320    346     1
    321    323     1
    321    326     1
    321    344     1
    321    333     1
    321    334     1
    322    323     1
    322    326     1
    322    344     1
    322    333     1
    322    334     1
    323    327     1
    323    328     1
    323    342     1
    323    343     1
    324    326     1
    324    341     1
    324    336     1
    324    337     1
    325    326     1
    325    341     1
    325    336     1
    325    337     1
    326    339     1
    326    340     1
    327    338     1
    327    330     1
    327    331     1
    328    338     1
    328    330     1
    328    331     1
    330    347     1
    330    339     1
    330    340     1
    331    347     1
    331    339     1
    331    340     1
    333    753     1
    333    345     1
    333    346     1
    334    753     1
    334    345     1
    334    346     1
    336    724     1
    336    342     1
    336    343     1
    337    724     1
    337    342     1
    337    343     1
    341    716     1
    341    717     1
    342    715     1
    343    715     1
    344    745     1
    344    746     1
    345    744     1
    346    744     1
    348    362     1
    348    363     1
    348    365     1
    348    366     1
    348    359     1
    348    360     1
    349    353     1
    349    354     1
    349    356     1
    349    357     1
    349    374     1
    349    375     1
    350    352     1
    350    355     1
    350    373     1
    350    362     1
    350    363     1
    351    352     1
    351    355     1
    351    373     1
    351    362     1
    351    363     1
    352    356     1
    352    357     1
    352    371     1
    352    372     1
    353    355     1
    353    370     1
    353    365     1
    353    366     1
    354    355     1
    354    370     1
    354    365     1
    354    366     1
    355    368     1
    355    369     1
    356    367     1
    356    359     1
    356    360     1
    357    367     1
    357    359     1
    357    360     1
    359    376     1
    359    368     1
    359    369     1
    360    376     1
    360    368     1
    360    369     1
    362    811     1
    362    374     1
    362    375     1
    363    811     1
    363    374     1
    363    375     1
    365    782     1
    365    371     1
    365    372     1
    366    782     1
    366    371     1
    366    372     1
    370    774     1
    370    775     1
    371    773     1
    372    773     1
    373    803     1
    373    804     1
    374    802     1
    375    802     1
    377    391     1
    377    392     1
    377    394     1
    377    395     1
    377    388     1
    377    389     1
    378    382     1
    378    383     1
    378    385     1
    378    386     1
    378    403     1
    378    404     1
    379    381     1
    379    384     1
    379    402     1
    379    391     1
    379    392     1
    380    381     1
    380    384     1
    380    402     1
    380    391     1
    380    392     1
    381    385     1
    381    386     1
    381    400     1
    381    401     1
    382    384     1
    382    399     1
    382    394     1
    382    395     1
    383    384     1
    383    399     1
    383    394     1
    383    395     1
    384    397     1
    384    398     1
    385    396     1
    385    388     1
    385    389     1
    386    396     1
    386    388     1
    386    389     1
    388    405     1
    388    397     1
    388    398     1
    389    405     1
    389    397     1
    389    398     1
    391    869     1
    391    403     1
    391    404     1
    392    869     1
    392    403     1
    392    404     1
    394    840     1
    394    400     1
    394    401     1
    395    840     1
    395    400     1
    395    401     1
    399    832     1
    399    833     1
    400    831     1
    401    831     1
    402    861     1
    402    862     1
    403    860     1
    404    860     1
    406    420     1
    406    421     1
    406    423     1
    406    424     1
    406    417     1
    406    418     1
    407    411     1
    407    412     1
    407    414     1
    407    415     1
    407    432     1
    407    433     1
    408    410     1
    408    413     1
    408    431     1
    408    420     1
    408    421     1
    409    410     1
    409    413     1
    409    431     1
    409    420     1
    409    421     1
    410    414     1
    410    415     1
    410    429     1
    410    430     1
    411    413     1
    411    428     1
    411    423     1
    411    424     1
    412    413     1
    412    428     1
    412    423     1
    412    424     1
    413    426     1
    413    427     1
    414    425     1
    414    417     1
    414    418     1
    415    425     1
    415    417     1
    415    418     1
    417    434     1
    417    426     1
    417    427     1
    418    434     1
    418    426     1
    418    427     1
    420    927     1
    420    432     1
    420    433     1
    421    927     1
    421    432     1
    421    433     1
    423    898     1
    423    429     1
    423    430     1
    424    898     1
    424    429     1
    424    430     1
    428    890     1
    428    891     1
    429    889     1
    430    889     1
    431    919     1
    431    920     1
    432    918     1
    433    918     1
    435    449     1
    435    450     1
    435    452     1
    435    453     1
    435    446     1
    435    447     1
    436    440     1
    436    441     1
    436    443     1
    436    444     1
    436    461     1
    436    462     1
    437    439     1
    437    442     1
    437    460     1
    437    449     1
    437    450     1
    438    439     1
    438    442     1
    438    460     1
    438    449     1
    438    450     1
    439    443     1
    439    444     1
    439    458     1
    439    459     1
    440    442     1
    440    457     1
    440    452     1
    440    453     1
    441    442     1
    441    457     1
    441    452     1
    441    453     1
    442    455     1
    442    456     1
    443    454     1
    443    446     1
    443    447     1
    444    454     1
    444    446     1
    444    447     1
    446    463     1
    446    455     1
    446    456     1
    447    463     1
    447    455     1
    447    456     1
    449    985     1
    449    461     1
    449    462     1
    450    985     1
    450    461     1
    450    462     1
    452    956     1
    452    458     1
    452    459     1
    453    956     1
    453    458     1
    453    459     1
    457    948     1
    457    949     1
    458    947     1
    459    947     1
    460    977     1
    460    978     1
    461    976     1
    462    976     1
    464    478     1
    464    479     1
    464    481     1
    464    482     1
    464    475     1
    464    476     1
    465    469     1
    465    470     1
    465    472     1
    465    473     1
    465    490     1
    465    491     1
    466    468     1
    466    471     1
    466    489     1
    466    478     1
    466    479     1
    467    468     1
    467    471     1
    467    489     1
    467    478     1
    467    479     1
    468    472     1
    468    473     1
    468    487     1
    468    488     1
    469    471     1
    469    486     1
    469    481     1
    469    482     1
    470    471     1
    470    486     1
    470    481     1
    470    482     1
    471    484     1
    471    485     1
    472    483     1
    472    475     1
    472    476     1
    473    483     1
    473    475     1
    473    476     1
    475    492     1
    475    484     1
    475    485     1
    476    492     1
    476    484     1
    476    485     1
    478   1043     1
    478    490     1
    478    491     1
    479   1043     1
    479    490     1
    479    491     1
    481   1014     1
    481    487     1
    481    488     1
    482   1014     1
    482    487     1
    482    488     1
    486   1006     1
    486   1007     1
    487   1005     1
    488   1005     1
    489   1035     1
    489   1036     1
    490   1034     1
    491   1034     1
    493    507     1
    493    508     1
    493    510     1
    493    511     1
    493    504     1
    493    505     1
    494    498     1
    494    499     1
    494    501     1
    494    502     1
    494    519     1
    494    520     1
    495    497     1
    495    500     1
    495    518     1
    495    507     1
    495    508     1
    496    497     1
    496    500     1
    496    518     1
    496    507     1
    496    508     1
    497    501     1
    497    502     1
    497    516     1
    497    517     1
    498    500     1
    498    515     1
    498    510     1
    498    511     1
    499    500     1
    499    515     1
    499    510     1
    499    511     1
    500    513     1
    500    514     1
    501    512     1
    501    504     1
    501    505     1
    502    512     1
    502    504     1
    502    505     1
    504    521     1
    504    513     1
    504    514     1
    505    521     1
    505    513     1
    505    514     1
    507   1101     1
    507    519     1
    507    520     1
    508   1101     1
    508    519     1
    508    520     1
    510   1072     1
    510    516     1
    510    517     1
    511   1072     1
    511    516     1
    511    517     1
    515   1064     1
    515   1065     1
    516   1063     1
    517   1063     1
    518   1093     1
    518   1094     1
    519   1092     1
    520   1092     1
    522    536     1
    522    537     1
    522    539     1
    522    540     1
    522    533     1
    522    534     1
    523    527     1
    523    528     1
    523    530     1
    523    531     1
    523    548     1
    523    549     1
    524    526     1
    524    529     1
    524    547     1
    524    536     1
    524    537     1
    525    526     1
    525    529     1
    525    547     1
    525    536     1
    525    537     1
    526    530     1
    526    531     1
    526    545     1
    526    546     1
    527    529     1
    527    544     1
    527    539     1
    527    540     1
    528    529     1
    528    544     1
    528    539     1
    528    540     1
    529    542     1
    529    543     1
    530    541     1
    530    533     1
    530    534     1
    531    541     1
    531    533     1
    531    534     1
    533    550     1
    533    542     1
    533    543     1
    534    550     1
    534    542     1
    534    543     1
    536   1159     1
    536    548     1
    536    549     1
    537   1159     1
    537    548     1
    537    549     1
    539   1130     1
    539    545     1
    539    546     1
    540   1130     1
    540    545     1
    540    546     1
    544   1122     1
    544   1123     1
    545   1121     1
    546   1121     1
    547   1151     1
    547   1152     1
    548   1150     1
    549   1150     1
    551    565     1
    551    566     1
    551    568     1
    551    569     1
    551    562     1
    551    563     1
    552    556     1
    552    557     1
    552    559     1
    552    560     1
    552    577     1
    552    578     1
    553    555     1
    553    558     1
    553    576     1
    553    565     1
    553    566     1
    554    555     1
    554    558     1
    554    576     1
    554    565     1
    554    566     1
    555    559     1
    555    560     1
    555    574     1
    555    575     1
    556    558     1
    556    573     1
    556    568     1
    556    569     1
    557    558     1
    557    573     1
    557    568     1
    557    569     1
    558    571     1
    558    572     1
    559    570     1
    559    562     1
    559    563     1
    560    570     1
    560    562     1
    560    563     1
    562    579     1
    562    571     1
    562    572     1
    563    579     1
    563    571     1
    563    572     1
    565   1217     1
    565    577     1
    565    578     1
    566   1217     1
    566    577     1
    566    578     1
    568   1188     1
    568    574     1
    568    575     1
    569   1188     1
    569    574     1
    569    575     1
    573   1180     1
    573   1181     1
    574   1179     1
    575   1179     1
    576   1209     1
    576   1210     1
    577   1208     1
    578   1208     1
    580    594     1
    580    595     1
    580    597     1
    580    598     1
    580    591     1
    580    592     1
    581    585     1
    581    586     1
    581    588     1
    581    589     1
    581    606     1
    581    607     1
    582    584     1
    582    587     1
    582    605     1
    582    594     1
    582    595     1
    583    584     1
    583    587     1
    583    605     1
    583    594     1
    583    595     1
    584    588     1
    584    589     1
    584    603     1
    584    604     1
    585    587     1
    585    602     1
    585    597     1
    585    598     1
    586    587     1
    586    602     1
    586    597     1
    586    598     1
    587    600     1
    587    601     1
    588    599     1
    588    591     1
    588    592     1
    589    599     1
    589    591     1
    589    592     1
    591    608     1
    591    600     1
    591    601     1
    592    608     1
    592    600     1
    592    601     1
    594   1275     1
    594    606     1
    594    607     1
    595   1275     1
    595    606     1
    595    607     1
    597   1246     1
    597    603     1
    597    604     1
    598   1246     1
    598    603     1
    598    604     1
    602   1238     1
    602   1239     1
    603   1237     1
    604   1237     1
    605   1267     1
    605   1268     1
    606   1266     1
    607   1266     1
    609    623     1
    609    624     1
    609    626     1
    609    627     1
    609    620     1
    609    621     1
    610    614     1
    610    615     1
    610    617     1
    610    618     1
    610    635     1
    610    636     1
    611    613     1
    611    616     1
    611    634     1
    611    623     1
    611    624     1
    612    613     1
    612    616     1
    612    634     1
    612    623     1
    612    624     1
    613    617     1
    613    618     1
    613    632     1
    613    633     1
    614    616     1
    614    631     1
    614    626     1
    614    627     1
    615    616     1
    615    631     1
    615    626     1
    615    627     1
    616    629     1
    616    630     1
    617    628     1
    617    620     1
    617    621     1
    618    628     1
    618    620     1
    618    621     1
    620    637     1
    620    629     1
    620    630     1
    621    637     1
    621    629     1
    621    630     1
    623   1333     1
    623    635     1
    623    636     1
    624   1333     1
    624    635     1
    624    636     1
    626   1304     1
    626    632     1
    626    633     1
    627   1304     1
    627    632     1
    627    633     1
    631   1296     1
    631   1297     1
    632   1295     1
    633   1295     1
    634   1325     1
    634   1326     1
    635   1324     1
    636   1324     1
    638    652     1
    638    653     1
    638    655     1
    638    656     1
    638    649     1
    638    650     1
    639    643     1
    639    644     1
    639    646     1
    639    647     1
    639    664     1
    639    665     1
    640    642     1
    640    645     1
    640    663     1
    640    652     1
    640    653     1
    641    642     1
    641    645     1
    641    663     1
    641    652     1
    641    653     1
    642    646     1
    642    647     1
    642    661     1
    642    662     1
    643    645     1
    643    660     1
    643    655     1
    643    656     1
    644    645     1
    644    660     1
    644    655     1
    644    656     1
    645    658     1
    645    659     1
    646    657     1
    646    649     1
    646    650     1
    647    657     1
    647    649     1
    647    650     1
    649    666     1
    649    658     1
    649    659     1
    650    666     1
    650    658     1
    650    659     1
    652   1391     1
    652    664     1
    652    665     1
    653   1391     1
    653    664     1
    653    665     1
    655   1362     1
    655    661     1
    655    662     1
    656   1362     1
    656    661     1
    656    662     1
    660   1354     1
    660   1355     1
    661   1353     1
    662   1353     1
    663   1383     1
    663   1384     1
    664   1382     1
    665   1382     1
    667    681     1
    667    682     1
    667    684     1
    667    685     1
    667    678     1
    667    679     1
    668    672     1
    668    673     1
    668    675     1
    668    676     1
    668    693     1
    668    694     1
    669    671     1
    669    674     1
    669    692     1
    669    681     1
    669    682     1
    670    671     1
    670    674     1
    670    692     1
    670    681     1
    670    682     1
    671    675     1
    671    676     1
    671    690     1
    671    691     1
    672    674     1
    672    689     1
    672    684     1
    672    685     1
    673    674     1
    673    689     1
    673    684     1
    673    685     1
    674    687     1
    674    688     1
    675    686     1
    675    678     1
    675    679     1
    676    686     1
    676    678     1
    676    679     1
    678    695     1
    678    687     1
    678    688     1
    679    695     1
    679    687     1
    679    688     1
    681   1449     1
    681    693     1
    681    694     1
    682   1449     1
    682    693     1
    682    694     1
    684   1420     1
    684    690     1
    684    691     1
    685   1420     1
    685    690     1
    685    691     1
    689   1412     1
    689   1413     1
    690   1411     1
    691   1411     1
    692   1441     1
    692   1442     1
    693   1440     1
    694   1440     1
    696    710     1
    696    711     1
    696    713     1
    696    714     1
    696    707     1
    696    708     1
    697    701     1
    697    702     1
    697    704     1
    697    705     1
    697    722     1
    697    723     1
    698    700     1
    698    703     1
    698    721     1
    698    710     1
    698    711     1
    699    700     1
    699    703     1
    699    721     1
    699    710     1
    699    711     1
    700    704     1
    700    705     1
    700    719     1
    700    720     1
    701    703     1
    701    718     1
    701    713     1
    701    714     1
    702    703     1
    702    718     1
    702    713     1
    702    714     1
    703    716     1
    703    717     1
    704    715     1
    704    707     1
    704    708     1
    705    715     1
    705    707     1
    705    708     1
    707    724     1
    707    716     1
    707    717     1
    708    724     1
    708    716     1
    708    717     1
    710   1507     1
    710    722     1
    710    723     1
    711   1507     1
    711    722     1
    711    723     1
    713   1478     1
    713    719     1
    713    720     1
    714   1478     1
    714    719     1
    714    720     1
    718   1470     1
    718   1471     1
    719   1469     1
    720   1469     1
    721   1499     1
    721   1500     1
    722   1498     1
    723   1498     1
    725    739     1
    725    740     1
    725    742     1
    725    743     1
    725    736     1
    725    737     1
    726    730     1
    726    731     1
    726    733     1
    726    734     1
    726    751     1
    726    752     1
    727    729     1
    727    732     1
    727    750     1
    727    739     1
    727    740     1
    728    729     1
    728    732     1
    728    750     1
    728    739     1
    728    740     1
    729    733     1
    729    734     1
    729    748     1
    729    749     1
    730    732     1
    730    747     1
    730    742     1
    730    743     1
    731    732     1
    731    747     1
    731    742     1
    731    743     1
    732    745     1
    732    746     1
    733    744     1
    733    736     1
    733    737     1
    734    744     1
    734    736     1
    734    737     1
    736    753     1
    736    745     1
    736    746     1
    737    753     1
    737    745     1
    737    746     1
    739   1565     1
    739    751     1
    739    752     1
    740   1565     1
    740    751     1
    740    752     1
    742   1536     1
    742    748     1
    742    749     1
    743   1536     1
    743    748     1
    743    749     1
    747   1528     1
    747   1529     1
    748   1527     1
    749   1527     1
    750   1557     1
    750   1558     1
    751   1556     1
    752   1556     1
    754    768     1
    754    769     1
    754    771     1
    754    772     1
    754    765     1
    754    766     1
    755    759     1
    755    760     1
    755    762     1
    755    763     1
    755    780     1
    755    781     1
    756    758     1
    756    761     1
    756    779     1
    756    768     1
    756    769     1
    757    758     1
    757    761     1
    757    779     1
    757    768     1
    757    769     1
    758    762     1
    758    763     1
    758    777     1
    758    778     1
    759    761     1
    759    776     1
    759    771     1
    759    772     1
    760    761     1
    760    776     1
    760    771     1
    760    772     1
    761    774     1
    761    775     1
    762    773     1
    762    765     1
    762    766     1
    763    773     1
    763    765     1
    763    766     1
    765    782     1
    765    774     1
    765    775     1
    766    782     1
    766    774     1
    766    775     1
    768   1623     1
    768    780     1
    768    781     1
    769   1623     1
    769    780     1
    769    781     1
    771   1594     1
    771    777     1
    771    778     1
    772   1594     1
    772    777     1
    772    778     1
    776   1586     1
    776   1587     1
    777   1585     1
    778   1585     1
    779   1615     1
    779   1616     1
    780   1614     1
    781   1614     1
    783    797     1
    783    798     1
    783    800     1
    783    801     1
    783    794     1
    783    795     1
    784    788     1
    784    789     1
    784    791     1
    784    792     1
    784    809     1
    784    810     1
    785    787     1
    785    790     1
    785    808     1
    785    797     1
    785    798     1
    786    787     1
    786    790     1
    786    808     1
    786    797     1
    786    798     1
    787    791     1
    787    792     1
    787    806     1
    787    807     1
    788    790     1
    788    805     1
    788    800     1
    788    801     1
    789    790     1
    789    805     1
    789    800     1
    789    801     1
    790    803     1
    790    804     1
    791    802     1
    791    794     1
    791    795     1
    792    802     1
    792    794     1
    792    795     1
    794    811     1
    794    803     1
    794    804     1
    795    811     1
    795    803     1
    795    804     1
    797   1681     1
    797    809     1
    797    810     1
    798   1681     1
    798    809     1
    798    810     1
    800   1652     1
    800    806     1
    800    807     1
    801   1652     1
    801    806     1
    801    807     1
    805   1644     1
    805   1645     1
    806   1643     1
    807   1643     1
    808   1673     1
    808   1674     1
    809   1672     1
    810   1672     1
    812    826     1
    812    827     1
    812    829     1
    812    830     1
    812    823     1
    812    824     1
    813    817     1
    813    818     1
    813    820     1
    813    821     1
    813    838     1
    813    839     1
    814    816     1
    814    819     1
    814    837     1
    814    826     1
    814    827     1
    815    816     1
    815    819     1
    815    837     1
    815    826     1
    815    827     1
    816    820     1
    816    821     1
    816    835     1
    816    836     1
    817    819     1
    817    834     1
    817    829     1
    817    830     1
    818    819     1
    818    834     1
    818    829     1
    818    830     1
    819    832     1
    819    833     1
    820    831     1
    820    823     1
    820    824     1
    821    831     1
    821    823     1
    821    824     1
    823    840     1
    823    832     1
    823    833     1
    824    840     1
    824    832     1
    824    833     1
    826   1739     1
    826    838     1
    826    839     1
    827   1739     1
    827    838     1
    827    839     1
    829   1710     1
    829    835     1
    829    836     1
    830   1710     1
    830    835     1
    830    836     1
    834   1702     1
    834   1703     1
    835   1701     1
    836   1701     1
    837   1731     1
    837   1732     1
    838   1730     1
    839   1730     1
    841    855     1
    841    856     1
    841    858     1
    841    859     1
    841    852     1
    841    853     1
    842    846     1
    842    847     1
    842    849     1
    842    850     1
    842    867     1
    842    868     1
    843    845     1
    843    848     1
    843    866     1
    843    855     1
    843    856     1
    844    845     1
    844    848     1
    844    866     1
    844    855     1
    844    856     1
    845    849     1
    845    850     1
    845    864     1
    845    865     1
    846    848     1
    846    863     1
    846    858     1
    846    859     1
    847    848     1
    847    863     1
    847    858     1
    847    859     1
    848    861     1
    848    862     1
    849    860     1
    849    852     1
    849    853     1
    850    860     1
    850    852     1
    850    853     1
    852    869     1
    852    861     1
    852    862     1
    853    869     1
    853    861     1
    853    862     1
    855   1797     1
    855    867     1
    855    868     1
    856   1797     1
    856    867     1
    856    868     1
    858   1768     1
    858    864     1
    858    865     1
    859   1768     1
    859    864     1
    859    865     1
    863   1760     1
    863   1761     1
    864   1759     1
    865   1759     1
    866   1789     1
    866   1790     1
    867   1788     1
    868   1788     1
    870    884     1
    870    885     1
    870    887     1
    870    888     1
    870    881     1
    870    882     1
    871    875     1
    871    876     1
    871    878     1
    871    879     1
    871    896     1
    871    897     1
    872    874     1
    872    877     1
    872    895     1
    872    884     1
    872    885     1
    873    874     1
    873    877     1
    873    895     1
    873    884     1
    873    885     1
    874    878     1
    874    879     1
    874    893     1
    874    894     1
    875    877     1
    875    892     1
    875    887     1
    875    888     1
    876    877     1
    876    892     1
    876    887     1
    876    888     1
    877    890     1
    877    891     1
    878    889     1
    878    881     1
    878    882     1
    879    889     1
    879    881     1
    879    882     1
    881    898     1
    881    890     1
    881    891     1
    882    898     1
    882    890     1
    882    891     1
    884   1831     1
    884    896     1
    884    897     1
    885   1831     1
    885    896     1
    885    897     1
    887   1808     1
    887    893     1
    887    894     1
    888   1808     1
    888    893     1
    888    894     1
    892   1807     1
    893   1804     1
    894   1804     1
    895   1830     1
    896   1827     1
    897   1827     1
    899    913     1
    899    914     1
    899    916     1
    899    917     1
    899    910     1
    899    911     1
    900    904     1
    900    905     1
    900    907     1
    900    908     1
    900    925     1
    900    926     1
    901    903     1
    901    906     1
    901    924     1
    901    913     1
    901    914     1
    902    903     1
    902    906     1
    902    924     1
    902    913     1
    902    914     1
    903    907     1
    903    908     1
    903    922     1
    903    923     1
    904    906     1
    904    921     1
    904    916     1
    904    917     1
    905    906     1
    905    921     1
    905    916     1
    905    917     1
    906    919     1
    906    920     1
    907    918     1
    907    910     1
    907    911     1
    908    918     1
    908    910     1
    908    911     1
    910    927     1
    910    919     1
    910    920     1
    911    927     1
    911    919     1
    911    920     1
    913   1877     1
    913    925     1
    913    926     1
    914   1877     1
    914    925     1
    914    926     1
    916   1854     1
    916    922     1
    916    923     1
    917   1854     1
    917    922     1
    917    923     1
    921   1853     1
    922   1850     1
    923   1850     1
    924   1876     1
    925   1873     1
    926   1873     1
    928    942     1
    928    943     1
    928    945     1
    928    946     1
    928    939     1
    928    940     1
    929    933     1
    929    934     1
    929    936     1
    929    937     1
    929    954     1
    929    955     1
    930    932     1
    930    935     1
    930    953     1
    930    942     1
    930    943     1
    931    932     1
    931    935     1
    931    953     1
    931    942     1
    931    943     1
    932    936     1
    932    937     1
    932    951     1
    932    952     1
    933    935     1
    933    950     1
    933    945     1
    933    946     1
    934    935     1
    934    950     1
    934    945     1
    934    946     1
    935    948     1
    935    949     1
    936    947     1
    936    939     1
    936    940     1
    937    947     1
    937    939     1
    937    940     1
    939    956     1
    939    948     1
    939    949     1
    940    956     1
    940    948     1
    940    949     1
    942   1923     1
    942    954     1
    942    955     1
    943   1923     1
    943    954     1
    943    955     1
    945   1900     1
    945    951     1
    945    952     1
    946   1900     1
    946    951     1
    946    952     1
    950   1899     1
    951   1896     1
    952   1896     1
    953   1922     1
    954   1919     1
    955   1919     1
    957    971     1
    957    972     1
    957    974     1
    957    975     1
    957    968     1
    957    969     1
    958    962     1
    958    963     1
    958    965     1
    958    966     1
    958    983     1
    958    984     1
    959    961     1
    959    964     1
    959    982     1
    959    971     1
    959    972     1
    960    961     1
    960    964     1
    960    982     1
    960    971     1
    960    972     1
    961    965     1
    961    966     1
    961    980     1
    961    981     1
    962    964     1
    962    979     1
    962    974     1
    962    975     1
    963    964     1
    963    979     1
    963    974     1
    963    975     1
    964    977     1
    964    978     1
    965    976     1
    965    968     1
    965    969     1
    966    976     1
    966    968     1
    966    969     1
    968    985     1
    968    977     1
    968    978     1
    969    985     1
    969    977     1
    969    978     1
    971   1969     1
    971    983     1
    971    984     1
    972   1969     1
    972    983     1
    972    984     1
    974   1946     1
    974    980     1
    974    981     1
    975   1946     1
    975    980     1
    975    981     1
    979   1945     1
    980   1942     1
    981   1942     1
    982   1968     1
    983   1965     1
    984   1965     1
    986   1000     1
    986   1001     1
    986   1003     1
    986   1004     1
    986    997     1
    986    998     1
    987    991     1
    987    992     1
    987    994     1
    987    995     1
    987   1012     1
    987   1013     1
    988    990     1
    988    993     1
    988   1011     1
    988   1000     1
    988   1001     1
    989    990     1
    989    993     1
    989   1011     1
    989   1000     1
    989   1001     1
    990    994     1
    990    995     1
    990   1009     1
    990   1010     1
    991    993     1
    991   1008     1
    991   1003     1
    991   1004     1
    992    993     1
    992   1008     1
    992   1003     1
    992   1004     1
    993   1006     1
    993   1007     1
    994   1005     1
    994    997     1
    994    998     1
    995   1005     1
    995    997     1
    995    998     1
    997   1014     1
    997   1006     1
    997   1007     1
    998   1014     1
    998   1006     1
    998   1007     1
   1000   2015     1
   1000   1012     1
   1000   1013     1
   1001   2015     1
   1001   1012     1
   1001   1013     1
   1003   1992     1
   1003   1009     1
   1003   1010     1
   1004   1992     1
   1004   1009     1
   1004   1010     1
   1008   1991     1
   1009   1988     1
   1010   1988     1
   1011   2014     1
   1012   2011     1
   1013   2011     1
   1015   1029     1
   1015   1030     1
   1015   1032     1
   1015   1033     1
   1015   1026     1
   1015   1027     1
   1016   1020     1
   1016   1021     1
   1016   1023     1
   1016   1024     1
   1016   1041     1
   1016   1042     1
   1017   1019     1
   1017   1022     1
   1017   1040     1
   1017   1029     1
   1017   1030     1
   1018   1019     1
   1018   1022     1
   1018   1040     1
   1018   1029     1
   1018   1030     1
   1019   1023     1
   1019   1024     1
   1019   1038     1
   1019   1039     1
   1020   1022     1
   1020   1037     1
   1020   1032     1
   1020   1033     1
   1021   1022     1
   1021   1037     1
   1021   1032     1
   1021   1033     1
   1022   1035     1
   1022   1036     1
   1023   1034     1
   1023   1026     1
   1023   1027     1
   1024   1034     1
   1024   1026     1
   1024   1027     1
   1026   1043     1
   1026   1035     1
   1026   1036     1
   1027   1043     1
   1027   1035     1
   1027   1036     1
   1029   2061     1
   1029   1041     1
   1029   1042     1
   1030   2061     1
   1030   1041     1
   1030   1042     1
   1032   2038     1
   1032   1038     1
   1032   1039     1
   1033   2038     1
   1033   1038     1
   1033   1039     1
   1037   2037     1
   1038   2034     1
   1039   2034     1
   1040   2060     1
   1041   2057     1
   1042   2057     1
   1044   1058     1
   1044   1059     1
   1044   1061     1
   1044   1062     1
   1044   1055     1
   1044   1056     1
   1045   1049     1
   1045   1050     1
   1045   1052     1
   1045   1053     1
   1045   1070     1
   1045   1071     1
   1046   1048     1
   1046   1051     1
   1046   1069     1
   1046   1058     1
   1046   1059     1
   1047   1048     1
   1047   1051     1
   1047   1069     1
   1047   1058     1
   1047   1059     1
   1048   1052     1
   1048   1053     1
   1048   1067     1
   1048   1068     1
   1049   1051     1
   1049   1066     1
   1049   1061     1
   1049   1062     1
   1050   1051     1
   1050   1066     1
   1050   1061     1
   1050   1062     1
   1051   1064     1
   1051   1065     1
   1052   1063     1
   1052   1055     1
   1052   1056     1
   1053   1063     1
   1053   1055     1
   1053   1056     1
   1055   1072     1
   1055   1064     1
   1055   1065     1
   1056   1072     1
   1056   1064     1
   1056   1065     1
   1058   2107     1
   1058   1070     1
   1058   1071     1
   1059   2107     1
   1059   1070     1
   1059   1071     1
   1061   2084     1
   1061   1067     1
   1061   1068     1
   1062   2084     1
   1062   1067     1
   1062   1068     1
   1066   2083     1
   1067   2080     1
   1068   2080     1
   1069   2106     1
   1070   2103     1
   1071   2103     1
   1073   1087     1
   1073   1088     1
   1073   1090     1
   1073   1091     1
   1073   1084     1
   1073   1085     1
   1074   1078     1
   1074   1079     1
   1074   1081     1
   1074   1082     1
   1074   1099     1
   1074   1100     1
   1075   1077     1
   1075   1080     1
   1075   1098     1
   1075   1087     1
   1075   1088     1
   1076   1077     1
   1076   1080     1
   1076   1098     1
   1076   1087     1
   1076   1088     1
   1077   1081     1
   1077   1082     1
   1077   1096     1
   1077   1097     1
   1078   1080     1
   1078   1095     1
   1078   1090     1
   1078   1091     1
   1079   1080     1
   1079   1095     1
   1079   1090     1
   1079   1091     1
   1080   1093     1
   1080   1094     1
   1081   1092     1
   1081   1084     1
   1081   1085     1
   1082   1092     1
   1082   1084     1
   1082   1085     1
   1084   1101     1
   1084   1093     1
   1084   1094     1
   1085   1101     1
   1085   1093     1
   1085   1094     1
   1087   2153     1
   1087   1099     1
   1087   1100     1
   1088   2153     1
   1088   1099     1
   1088   1100     1
   1090   2130     1
   1090   1096     1
   1090   1097     1
   1091   2130     1
   1091   1096     1
   1091   1097     1
   1095   2129     1
   1096   2126     1
   1097   2126     1
   1098   2152     1
   1099   2149     1
   1100   2149     1
   1102   1116     1
   1102   1117     1
   1102   1119     1
   1102   1120     1
   1102   1113     1
   1102   1114     1
   1103   1107     1
   1103   1108     1
   1103   1110     1
   1103   1111     1
   1103   1128     1
   1103   1129     1
   1104   1106     1
   1104   1109     1
   1104   1127     1
   1104   1116     1
   1104   1117     1
   1105   1106     1
   1105   1109     1
   1105   1127     1
   1105   1116     1
   1105   1117     1
   1106   1110     1
   1106   1111     1
   1106   1125     1
   1106   1126     1
   1107   1109     1
   1107   1124     1
   1107   1119     1
   1107   1120     1
   1108   1109     1
   1108   1124     1
   1108   1119     1
   1108   1120     1
   1109   1122     1
   1109   1123     1
   1110   1121     1
   1110   1113     1
   1110   1114     1
   1111   1121     1
   1111   1113     1
   1111   1114     1
   1113   1130     1
   1113   1122     1
   1113   1123     1
   1114   1130     1
   1114   1122     1
   1114   1123     1
   1116   2199     1
   1116   1128     1
   1116   1129     1
   1117   2199     1
   1117   1128     1
   1117   1129     1
   1119   2176     1
   1119   1125     1
   1119   1126     1
   1120   2176     1
   1120   1125     1
   1120   1126     1
   1124   2175     1
   1125   2172     1
   1126   2172     1
   1127   2198     1
   1128   2195     1
   1129   2195     1
   1131   1145     1
   1131   1146     1
   1131   1148     1
   1131   1149     1
   1131   1142     1
   1131   1143     1
   1132   1136     1
   1132   1137     1
   1132   1139     1
   1132   1140     1
   1132   1157     1
   1132   1158     1
   1133   1135     1
   1133   1138     1
   1133   1156     1
   1133   1145     1
   1133   1146     1
   1134   1135     1
   1134   1138     1
   1134   1156     1
   1134   1145     1
   1134   1146     1
   1135   1139     1
   1135   1140     1
   1135   1154     1
   1135   1155     1
   1136   1138     1
   1136   1153     1
   1136   1148     1
   1136   1149     1
   1137   1138     1
   1137   1153     1
   1137   1148     1
   1137   1149     1
   1138   1151     1
   1138   1152     1
   1139   1150     1
   1139   1142     1
   1139   1143     1
   1140   1150     1
   1140   1142     1
   1140   1143     1
   1142   1159     1
   1142   1151     1
   1142   1152     1
   1143   1159     1
   1143   1151     1
   1143   1152     1
   1145   2245     1
   1145   1157     1
   1145   1158     1
   1146   2245     1
   1146   1157     1
   1146   1158     1
   1148   2222     1
   1148   1154     1
   1148   1155     1
   1149   2222     1
   1149   1154     1
   1149   1155     1
   1153   2221     1
   1154   2218     1
   1155   2218     1
   1156   2244     1
   1157   2241     1
   1158   2241     1
   1160   1174     1
   1160   1175     1
   1160   1177     1
   1160   1178     1
   1160   1171     1
   1160   1172     1
   1161   1165     1
   1161   1166     1
   1161   1168     1
   1161   1169     1
   1161   1186     1
   1161   1187     1
   1162   1164     1
   1162   1167     1
   1162   1185     1
   1162   1174     1
   1162   1175     1
   1163   1164     1
   1163   1167     1
   1163   1185     1
   1163   1174     1
   1163   1175     1
   1164   1168     1
   1164   1169     1
   1164   1183     1
   1164   1184     1
   1165   1167     1
   1165   1182     1
   1165   1177     1
   1165   1178     1
   1166   1167     1
   1166   1182     1
   1166   1177     1
   1166   1178     1
   1167   1180     1
   1167   1181     1
   1168   1179     1
   1168   1171     1
   1168   1172     1
   1169   1179     1
   1169   1171     1
   1169   1172     1
   1171   1188     1
   1171   1180     1
   1171   1181     1
   1172   1188     1
   1172   1180     1
   1172   1181     1
   1174   2291     1
   1174   1186     1
   1174   1187     1
   1175   2291     1
   1175   1186     1
   1175   1187     1
   1177   2268     1
   1177   1183     1
   1177   1184     1
   1178   2268     1
   1178   1183     1
   1178   1184     1
   1182   2267     1
   1183   2264     1
   1184   2264     1
   1185   2290     1
   1186   2287     1
   1187   2287     1
   1189   1203     1
   1189   1204     1
   1189   1206     1
   1189   1207     1
   1189   1200     1
   1189   1201     1
   1190   1194     1
   1190   1195     1
   1190   1197     1
   1190   1198     1
   1190   1215     1
   1190   1216     1
   1191   1193     1
   1191   1196     1
   1191   1214     1
   1191   1203     1
   1191   1204     1
   1192   1193     1
   1192   1196     1
   1192   1214     1
   1192   1203     1
   1192   1204     1
   1193   1197     1
   1193   1198     1
   1193   1212     1
   1193   1213     1
   1194   1196     1
   1194   1211     1
   1194   1206     1
   1194   1207     1
   1195   1196     1
   1195   1211     1
   1195   1206     1
   1195   1207     1
   1196   1209     1
   1196   1210     1
   1197   1208     1
   1197   1200     1
   1197   1201     1
   1198   1208     1
   1198   1200     1
   1198   1201     1
   1200   1217     1
   1200   1209     1
   1200   1210     1
   1201   1217     1
   1201   1209     1
   1201   1210     1
   1203   2337     1
   1203   1215     1
   1203   1216     1
   1204   2337     1
   1204   1215     1
   1204   1216     1
   1206   2314     1
   1206   1212     1
   1206   1213     1
   1207   2314     1
   1207   1212     1
   1207   1213     1
   1211   2313     1
   1212   2310     1
   1213   2310     1
   1214   2336     1
   1215   2333     1
   1216   2333     1
   1218   1232     1
   1218   1233     1
   1218   1235     1
   1218   1236     1
   1218   1229     1
   1218   1230     1
   1219   1223     1
   1219   1224     1
   1219   1226     1
   1219   1227     1
   1219   1244     1
   1219   1245     1
   1220   1222     1
   1220   1225     1
   1220   1243     1
   1220   1232     1
   1220   1233     1
   1221   1222     1
   1221   1225     1
   1221   1243     1
   1221   1232     1
   1221   1233     1
   1222   1226     1
   1222   1227     1
   1222   1241     1
   1222   1242     1
   1223   1225     1
   1223   1240     1
   1223   1235     1
   1223   1236     1
   1224   1225     1
   1224   1240     1
   1224   1235     1
   1224   1236     1
   1225   1238     1
   1225   1239     1
   1226   1237     1
   1226   1229     1
   1226   1230     1
   1227   1237     1
   1227   1229     1
   1227   1230     1
   1229   1246     1
   1229   1238     1
   1229   1239     1
   1230   1246     1
   1230   1238     1
   1230   1239     1
   1232   2383     1
   1232   1244     1
   1232   1245     1
   1233   2383     1
   1233   1244     1
   1233   1245     1
   1235   2360     1
   1235   1241     1
   1235   1242     1
   1236   2360     1
   1236   1241     1
   1236   1242     1
   1240   2359     1
   1241   2356     1
   1242   2356     1
   1243   2382     1
   1244   2379     1
   1245   2379     1
   1247   1261     1
   1247   1262     1
   1247   1264     1
   1247   1265     1
   1247   1258     1
   1247   1259     1
   1248   1252     1
   1248   1253     1
   1248   1255     1
   1248   1256     1
   1248   1273     1
   1248   1274     1
   1249   1251     1
   1249   1254     1
   1249   1272     1
   1249   1261     1
   1249   1262     1
   1250   1251     1
   1250   1254     1
   1250   1272     1
   1250   1261     1
   1250   1262     1
   1251   1255     1
   1251   1256     1
   1251   1270     1
   1251   1271     1
   1252   1254     1
   1252   1269     1
   1252   1264     1
   1252   1265     1
   1253   1254     1
   1253   1269     1
   1253   1264     1
   1253   1265     1
   1254   1267     1
   1254   1268     1
   1255   1266     1
   1255   1258     1
   1255   1259     1
   1256   1266     1
   1256   1258     1
   1256   1259     1
   1258   1275     1
   1258   1267     1
   1258   1268     1
   1259   1275     1
   1259   1267     1
   1259   1268     1
   1261   2429     1
   1261   1273     1
   1261   1274     1
   1262   2429     1
   1262   1273     1
   1262   1274     1
   1264   2406     1
   1264   1270     1
   1264   1271     1
   1265   2406     1
   1265   1270     1
   1265   1271     1
   1269   2405     1
   1270   2402     1
   1271   2402     1
   1272   2428     1
   1273   2425     1
   1274   2425     1
   1276   1290     1
   1276   1291     1
   1276   1293     1
   1276   1294     1
   1276   1287     1
   1276   1288     1
   1277   1281     1
   1277   1282     1
   1277   1284     1
   1277   1285     1
   1277   1302     1
   1277   1303     1
   1278   1280     1
   1278   1283     1
   1278   1301     1
   1278   1290     1
   1278   1291     1
   1279   1280     1
   1279   1283     1
   1279   1301     1
   1279   1290     1
   1279   1291     1
   1280   1284     1
   1280   1285     1
   1280   1299     1
   1280   1300     1
   1281   1283     1
   1281   1298     1
   1281   1293     1
   1281   1294     1
   1282   1283     1
   1282   1298     1
   1282   1293     1
   1282   1294     1
   1283   1296     1
   1283   1297     1
   1284   1295     1
   1284   1287     1
   1284   1288     1
   1285   1295     1
   1285   1287     1
   1285   1288     1
   1287   1304     1
   1287   1296     1
   1287   1297     1
   1288   1304     1
   1288   1296     1
   1288   1297     1
   1290   2475     1
   1290   1302     1
   1290   1303     1
   1291   2475     1
   1291   1302     1
   1291   1303     1
   1293   2452     1
   1293   1299     1
   1293   1300     1
   1294   2452     1
   1294   1299     1
   1294   1300     1
   1298   2451     1
   1299   2448     1
   1300   2448     1
   1301   2474     1
   1302   2471     1
   1303   2471     1
   1305   1319     1
   1305   1320     1
   1305   1322     1
   1305   1323     1
   1305   1316     1
   1305   1317     1
   1306   1310     1
   1306   1311     1
   1306   1313     1
   1306   1314     1
   1306   1331     1
   1306   1332     1
   1307   1309     1
   1307   1312     1
   1307   1330     1
   1307   1319     1
   1307   1320     1
   1308   1309     1
   1308   1312     1
   1308   1330     1
   1308   1319     1
   1308   1320     1
   1309   1313     1
   1309   1314     1
   1309   1328     1
   1309   1329     1
   1310   1312     1
   1310   1327     1
   1310   1322     1
   1310   1323     1
   1311   1312     1
   1311   1327     1
   1311   1322     1
   1311   1323     1
   1312   1325     1
   1312   1326     1
   1313   1324     1
   1313   1316     1
   1313   1317     1
   1314   1324     1
   1314   1316     1
   1314   1317     1
   1316   1333     1
   1316   1325     1
   1316   1326     1
   1317   1333     1
   1317   1325     1
   1317   1326     1
   1319   2521     1
   1319   1331     1
   1319   1332     1
   1320   2521     1
   1320   1331     1
   1320   1332     1
   1322   2498     1
   1322   1328     1
   1322   1329     1
   1323   2498     1
   1323   1328     1
   1323   1329     1
   1327   2497     1
   1328   2494     1
   1329   2494     1
   1330   2520     1
   1331   2517     1
   1332   2517     1
   1334   1348     1
   1334   1349     1
   1334   1351     1
   1334   1352     1
   1334   1345     1
   1334   1346     1
   1335   1339     1
   1335   1340     1
   1335   1342     1
   1335   1343     1
   1335   1360     1
   1335   1361     1
   1336   1338     1
   1336   1341     1
   1336   1359     1
   1336   1348     1
   1336   1349     1
   1337   1338     1
   1337   1341     1
   1337   1359     1
   1337   1348     1
   1337   1349     1
   1338   1342     1
   1338   1343     1
   1338   1357     1
   1338   1358     1
   1339   1341     1
   1339   1356     1
   1339   1351     1
   1339   1352     1
   1340   1341     1
   1340   1356     1
   1340   1351     1
   1340   1352     1
   1341   1354     1
   1341   1355     1
   1342   1353     1
   1342   1345     1
   1342   1346     1
   1343   1353     1
   1343   1345     1
   1343   1346     1
   1345   1362     1
   1345   1354     1
   1345   1355     1
   1346   1362     1
   1346   1354     1
   1346   1355     1
   1348   2567     1
   1348   1360     1
   1348   1361     1
   1349   2567     1
   1349   1360     1
   1349   1361     1
   1351   2544     1
   1351   1357     1
   1351   1358     1
   1352   2544     1
   1352   1357     1
   1352   1358     1
   1356   2543     1
   1357   2540     1
   1358   2540     1
   1359   2566     1
   1360   2563     1
   1361   2563     1
   1363   1377     1
   1363   1378     1
   1363   1380     1
   1363   1381     1
   1363   1374     1
   1363   1375     1
   1364   1368     1
   1364   1369     1
   1364   1371     1
   1364   1372     1
   1364   1389     1
   1364   1390     1
   1365   1367     1
   1365   1370     1
   1365   1388     1
   1365   1377     1
   1365   1378     1
   1366   1367     1
   1366   1370     1
   1366   1388     1
   1366   1377     1
   1366   1378     1
   1367   1371     1
   1367   1372     1
   1367   1386     1
   1367   1387     1
   1368   1370     1
   1368   1385     1
   1368   1380     1
   1368   1381     1
   1369   1370     1
   1369   1385     1
   1369   1380     1
   1369   1381     1
   1370   1383     1
   1370   1384     1
   1371   1382     1
   1371   1374     1
   1371   1375     1
   1372   1382     1
   1372   1374     1
   1372   1375     1
   1374   1391     1
   1374   1383     1
   1374   1384     1
   1375   1391     1
   1375   1383     1
   1375   1384     1
   1377   2613     1
   1377   1389     1
   1377   1390     1
   1378   2613     1
   1378   1389     1
   1378   1390     1
   1380   2590     1
   1380   1386     1
   1380   1387     1
   1381   2590     1
   1381   1386     1
   1381   1387     1
   1385   2589     1
   1386   2586     1
   1387   2586     1
   1388   2612     1
   1389   2609     1
   1390   2609     1
   1392   1406     1
   1392   1407     1
   1392   1409     1
   1392   1410     1
   1392   1403     1
   1392   1404     1
   1393   1397     1
   1393   1398     1
   1393   1400     1
   1393   1401     1
   1393   1418     1
   1393   1419     1
   1394   1396     1
   1394   1399     1
   1394   1417     1
   1394   1406     1
   1394   1407     1
   1395   1396     1
   1395   1399     1
   1395   1417     1
   1395   1406     1
   1395   1407     1
   1396   1400     1
   1396   1401     1
   1396   1415     1
   1396   1416     1
   1397   1399     1
   1397   1414     1
   1397   1409     1
   1397   1410     1
   1398   1399     1
   1398   1414     1
   1398   1409     1
   1398   1410     1
   1399   1412     1
   1399   1413     1
   1400   1411     1
   1400   1403     1
   1400   1404     1
   1401   1411     1
   1401   1403     1
   1401   1404     1
   1403   1420     1
   1403   1412     1
   1403   1413     1
   1404   1420     1
   1404   1412     1
   1404   1413     1
   1406   2659     1
   1406   1418     1
   1406   1419     1
   1407   2659     1
   1407   1418     1
   1407   1419     1
   1409   2636     1
   1409   1415     1
   1409   1416     1
   1410   2636     1
   1410   1415     1
   1410   1416     1
   1414   2635     1
   1415   2632     1
   1416   2632     1
   1417   2658     1
   1418   2655     1
   1419   2655     1
   1421   1435     1
   1421   1436     1
   1421   1438     1
   1421   1439     1
   1421   1432     1
   1421   1433     1
   1422   1426     1
   1422   1427     1
   1422   1429     1
   1422   1430     1
   1422   1447     1
   1422   1448     1
   1423   1425     1
   1423   1428     1
   1423   1446     1
   1423   1435     1
   1423   1436     1
   1424   1425     1
   1424   1428     1
   1424   1446     1
   1424   1435     1
   1424   1436     1
   1425   1429     1
   1425   1430     1
   1425   1444     1
   1425   1445     1
   1426   1428     1
   1426   1443     1
   1426   1438     1
   1426   1439     1
   1427   1428     1
   1427   1443     1
   1427   1438     1
   1427   1439     1
   1428   1441     1
   1428   1442     1
   1429   1440     1
   1429   1432     1
   1429   1433     1
   1430   1440     1
   1430   1432     1
   1430   1433     1
   1432   1449     1
   1432   1441     1
   1432   1442     1
   1433   1449     1
   1433   1441     1
   1433   1442     1
   1435   2705     1
   1435   1447     1
   1435   1448     1
   1436   2705     1
   1436   1447     1
   1436   1448     1
   1438   2682     1
   1438   1444     1
   1438   1445     1
   1439   2682     1
   1439   1444     1
   1439   1445     1
   1443   2681     1
   1444   2678     1
   1445   2678     1
   1446   2704     1
   1447   2701     1
   1448   2701     1
   1450   1464     1
   1450   1465     1
   1450   1467     1
   1450   1468     1
   1450   1461     1
   1450   1462     1
   1451   1455     1
   1451   1456     1
   1451   1458     1
   1451   1459     1
   1451   1476     1
   1451   1477     1
   1452   1454     1
   1452   1457     1
   1452   1475     1
   1452   1464     1
   1452   1465     1
   1453   1454     1
   1453   1457     1
   1453   1475     1
   1453   1464     1
   1453   1465     1
   1454   1458     1
   1454   1459     1
   1454   1473     1
   1454   1474     1
   1455   1457     1
   1455   1472     1
   1455   1467     1
   1455   1468     1
   1456   1457     1
   1456   1472     1
   1456   1467     1
   1456   1468     1
   1457   1470     1
   1457   1471     1
   1458   1469     1
   1458   1461     1
   1458   1462     1
   1459   1469     1
   1459   1461     1
   1459   1462     1
   1461   1478     1
   1461   1470     1
   1461   1471     1
   1462   1478     1
   1462   1470     1
   1462   1471     1
   1464   2751     1
   1464   1476     1
   1464   1477     1
   1465   2751     1
   1465   1476     1
   1465   1477     1
   1467   2728     1
   1467   1473     1
   1467   1474     1
   1468   2728     1
   1468   1473     1
   1468   1474     1
   1472   2727     1
   1473   2724     1
   1474   2724     1
   1475   2750     1
   1476   2747     1
   1477   2747     1
   1479   1493     1
   1479   1494     1
   1479   1496     1
   1479   1497     1
   1479   1490     1
   1479   1491     1
   1480   1484     1
   1480   1485     1
   1480   1487     1
   1480   1488     1
   1480   1505     1
   1480   1506     1
   1481   1483     1
   1481   1486     1
   1481   1504     1
   1481   1493     1
   1481   1494     1
   1482   1483     1
   1482   1486     1
   1482   1504     1
   1482   1493     1
   1482   1494     1
   1483   1487     1
   1483   1488     1
   1483   1502     1
   1483   1503     1
   1484   1486     1
   1484   1501     1
   1484   1496     1
   1484   1497     1
   1485   1486     1
   1485   1501     1
   1485   1496     1
   1485   1497     1
   1486   1499     1
   1486   1500     1
   1487   1498     1
   1487   1490     1
   1487   1491     1
   1488   1498     1
   1488   1490     1
   1488   1491     1
   1490   1507     1
   1490   1499     1
   1490   1500     1
   1491   1507     1
   1491   1499     1
   1491   1500     1
   1493   2797     1
   1493   1505     1
   1493   1506     1
   1494   2797     1
   1494   1505     1
   1494   1506     1
   1496   2774     1
   1496   1502     1
   1496   1503     1
   1497   2774     1
   1497   1502     1
   1497   1503     1
   1501   2773     1
   1502   2770     1
   1503   2770     1
   1504   2796     1
   1505   2793     1
   1506   2793     1
   1508   1522     1
   1508   1523     1
   1508   1525     1
   1508   1526     1
   1508   1519     1
   1508   1520     1
   1509   1513     1
   1509   1514     1
   1509   1516     1
   1509   1517     1
   1509   1534     1
   1509   1535     1
   1510   1512     1
   1510   1515     1
   1510   1533     1
   1510   1522     1
   1510   1523     1
   1511   1512     1
   1511   1515     1
   1511   1533     1
   1511   1522     1
   1511   1523     1
   1512   1516     1
   1512   1517     1
   1512   1531     1
   1512   1532     1
   1513   1515     1
   1513   1530     1
   1513   1525     1
   1513   1526     1
   1514   1515     1
   1514   1530     1
   1514   1525     1
   1514   1526     1
   1515   1528     1
   1515   1529     1
   1516   1527     1
   1516   1519     1
   1516   1520     1
   1517   1527     1
   1517   1519     1
   1517   1520     1
   1519   1536     1
   1519   1528     1
   1519   1529     1
   1520   1536     1
   1520   1528     1
   1520   1529     1
   1522   2843     1
   1522   1534     1
   1522   1535     1
   1523   2843     1
   1523   1534     1
   1523   1535     1
   1525   2820     1
   1525   1531     1
   1525   1532     1
   1526   2820     1
   1526   1531     1
   1526   1532     1
   1530   2819     1
   1531   2816     1
   1532   2816     1
   1533   2842     1
   1534   2839     1
   1535   2839     1
   1537   1551     1
   1537   1552     1
   1537   1554     1
   1537   1555     1
   1537   1548     1
   1537   1549     1
   1538   1542     1
   1538   1543     1
   1538   1545     1
   1538   1546     1
   1538   1563     1
   1538   1564     1
   1539   1541     1
   1539   1544     1
   1539   1562     1
   1539   1551     1
   1539   1552     1
   1540   1541     1
   1540   1544     1
   1540   1562     1
   1540   1551     1
   1540   1552     1
   1541   1545     1
   1541   1546     1
   1541   1560     1
   1541   1561     1
   1542   1544     1
   1542   1559     1
   1542   1554     1
   1542   1555     1
   1543   1544     1
   1543   1559     1
   1543   1554     1
   1543   1555     1
   1544   1557     1
   1544   1558     1
   1545   1556     1
   1545   1548     1
   1545   1549     1
   1546   1556     1
   1546   1548     1
   1546   1549     1
   1548   1565     1
   1548   1557     1
   1548   1558     1
   1549   1565     1
   1549   1557     1
   1549   1558     1
   1551   2889     1
   1551   1563     1
   1551   1564     1
   1552   2889     1
   1552   1563     1
   1552   1564     1
   1554   2866     1
   1554   1560     1
   1554   1561     1
   1555   2866     1
   1555   1560     1
   1555   1561     1
   1559   2865     1
   1560   2862     1
   1561   2862     1
   1562   2888     1
   1563   2885     1
   1564   2885     1
   1566   1580     1
   1566   1581     1
   1566   1583     1
   1566   1584     1
   1566   1577     1
   1566   1578     1
   1567   1571     1
   1567   1572     1
   1567   1574     1
   1567   1575     1
   1567   1592     1
   1567   1593     1
   1568   1570     1
   1568   1573     1
   1568   1591     1
   1568   1580     1
   1568   1581     1
   1569   1570     1
   1569   1573     1
   1569   1591     1
   1569   1580     1
   1569   1581     1
   1570   1574     1
   1570   1575     1
   1570   1589     1
   1570   1590     1
   1571   1573     1
   1571   1588     1
   1571   1583     1
   1571   1584     1
   1572   1573     1
   1572   1588     1
   1572   1583     1
   1572   1584     1
   1573   1586     1
   1573   1587     1
   1574   1585     1
   1574   1577     1
   1574   1578     1
   1575   1585     1
   1575   1577     1
   1575   1578     1
   1577   1594     1
   1577   1586     1
   1577   1587     1
   1578   1594     1
   1578   1586     1
   1578   1587     1
   1580   2935     1
   1580   1592     1
   1580   1593     1
   1581   2935     1
   1581   1592     1
   1581   1593     1
   1583   2912     1
   1583   1589     1
   1583   1590     1
   1584   2912     1
   1584   1589     1
   1584   1590     1
   1588   2911     1
   1589   2908     1
   1590   2908     1
   1591   2934     1
   1592   2931     1
   1593   2931     1
   1595   1609     1
   1595   1610     1
   1595   1612     1
   1595   1613     1
   1595   1606     1
   1595   1607     1
   1596   1600     1
   1596   1601     1
   1596   1603     1
   1596   1604     1
   1596   1621     1
   1596   1622     1
   1597   1599     1
   1597   1602     1
   1597   1620     1
   1597   1609     1
   1597   1610     1
   1598   1599     1
   1598   1602     1
   1598   1620     1
   1598   1609     1
   1598   1610     1
   1599   1603     1
   1599   1604     1
   1599   1618     1
   1599   1619     1
   1600   1602     1
   1600   1617     1
   1600   1612     1
   1600   1613     1
   1601   1602     1
   1601   1617     1
   1601   1612     1
   1601   1613     1
   1602   1615     1
   1602   1616     1
   1603   1614     1
   1603   1606     1
   1603   1607     1
   1604   1614     1
   1604   1606     1
   1604   1607     1
   1606   1623     1
   1606   1615     1
   1606   1616     1
   1607   1623     1
   1607   1615     1
   1607   1616     1
   1609   2981     1
   1609   1621     1
   1609   1622     1
   1610   2981     1
   1610   1621     1
   1610   1622     1
   1612   2958     1
   1612   1618     1
   1612   1619     1
   1613   2958     1
   1613   1618     1
   1613   1619     1
   1617   2957     1
   1618   2954     1
   1619   2954     1
   1620   2980     1
   1621   2977     1
   1622   2977     1
   1624   1638     1
   1624   1639     1
   1624   1641     1
   1624   1642     1
   1624   1635     1
   1624   1636     1
   1625   1629     1
   1625   1630     1
   1625   1632     1
   1625   1633     1
   1625   1650     1
   1625   1651     1
   1626   1628     1
   1626   1631     1
   1626   1649     1
   1626   1638     1
   1626   1639     1
   1627   1628     1
   1627   1631     1
   1627   1649     1
   1627   1638     1
   1627   1639     1
   1628   1632     1
   1628   1633     1
   1628   1647     1
   1628   1648     1
   1629   1631     1
   1629   1646     1
   1629   1641     1
   1629   1642     1
   1630   1631     1
   1630   1646     1
   1630   1641     1
   1630   1642     1
   1631   1644     1
   1631   1645     1
   1632   1643     1
   1632   1635     1
   1632   1636     1
   1633   1643     1
   1633   1635     1
   1633   1636     1
   1635   1652     1
   1635   1644     1
   1635   1645     1
   1636   1652     1
   1636   1644     1
   1636   1645     1
   1638   3027     1
   1638   1650     1
   1638   1651     1
   1639   3027     1
   1639   1650     1
   1639   1651     1
   1641   3004     1
   1641   1647     1
   1641   1648     1
   1642   3004     1
   1642   1647     1
   1642   1648     1
   1646   3003     1
   1647   3000     1
   1648   3000     1
   1649   3026     1
   1650   3023     1
   1651   3023     1
   1653   1667     1
   1653   1668     1
   1653   1670     1
   1653   1671     1
   1653   1664     1
   1653   1665     1
   1654   1658     1
   1654   1659     1
   1654   1661     1
   1654   1662     1
   1654   1679     1
   1654   1680     1
   1655   1657     1
   1655   1660     1
   1655   1678     1
   1655   1667     1
   1655   1668     1
   1656   1657     1
   1656   1660     1
   1656   1678     1
   1656   1667     1
   1656   1668     1
   1657   1661     1
   1657   1662     1
   1657   1676     1
   1657   1677     1
   1658   1660     1
   1658   1675     1
   1658   1670     1
   1658   1671     1
   1659   1660     1
   1659   1675     1
   1659   1670     1
   1659   1671     1
   1660   1673     1
   1660   1674     1
   1661   1672     1
   1661   1664     1
   1661   1665     1
   1662   1672     1
   1662   1664     1
   1662   1665     1
   1664   1681     1
   1664   1673     1
   1664   1674     1
   1665   1681     1
   1665   1673     1
   1665   1674     1
   1667   3073     1
   1667   1679     1
   1667   1680     1
   1668   3073     1
   1668   1679     1
   1668   1680     1
   1670   3050     1
   1670   1676     1
   1670   1677     1
   1671   3050     1
   1671   1676     1
   1671   1677     1
   1675   3049     1
   1676   3046     1
   1677   3046     1
   1678   3072     1
   1679   3069     1
   1680   3069     1
   1682   1696     1
   1682   1697     1
   1682   1699     1
   1682   1700     1
   1682   1693     1
   1682   1694     1
   1683   1687     1
   1683   1688     1
   1683   1690     1
   1683   1691     1
   1683   1708     1
   1683   1709     1
   1684   1686     1
   1684   1689     1
   1684   1707     1
   1684   1696     1
   1684   1697     1
   1685   1686     1
   1685   1689     1
   1685   1707     1
   1685   1696     1
   1685   1697     1
   1686   1690     1
   1686   1691     1
   1686   1705     1
   1686   1706     1
   1687   1689     1
   1687   1704     1
   1687   1699     1
   1687   1700     1
   1688   1689     1
   1688   1704     1
   1688   1699     1
   1688   1700     1
   1689   1702     1
   1689   1703     1
   1690   1701     1
   1690   1693     1
   1690   1694     1
   1691   1701     1
   1691   1693     1
   1691   1694     1
   1693   1710     1
   1693   1702     1
   1693   1703     1
   1694   1710     1
   1694   1702     1
   1694   1703     1
   1696   3119     1
   1696   1708     1
   1696   1709     1
   1697   3119     1
   1697   1708     1
   1697   1709     1
   1699   3096     1
   1699   1705     1
   1699   1706     1
   1700   3096     1
   1700   1705     1
   1700   1706     1
   1704   3095     1
   1705   3092     1
   1706   3092     1
   1707   3118     1
   1708   3115     1
   1709   3115     1
   1711   1725     1
   1711   1726     1
   1711   1728     1
   1711   1729     1
   1711   1722     1
   1711   1723     1
   1712   1716     1
   1712   1717     1
   1712   1719     1
   1712   1720     1
   1712   1737     1
   1712   1738     1
   1713   1715     1
   1713   1718     1
   1713   1736     1
   1713   1725     1
   1713   1726     1
   1714   1715     1
   1714   1718     1
   1714   1736     1
   1714   1725     1
   1714   1726     1
   1715   1719     1
   1715   1720     1
   1715   1734     1
   1715   1735     1
   1716   1718     1
   1716   1733     1
   1716   1728     1
   1716   1729     1
   1717   1718     1
   1717   1733     1
   1717   1728     1
   1717   1729     1
   1718   1731     1
   1718   1732     1
   1719   1730     1
   1719   1722     1
   1719   1723     1
   1720   1730     1
   1720   1722     1
   1720   1723     1
   1722   1739     1
   1722   1731     1
   1722   1732     1
   1723   1739     1
   1723   1731     1
   1723   1732     1
   1725   3165     1
   1725   1737     1
   1725   1738     1
   1726   3165     1
   1726   1737     1
   1726   1738     1
   1728   3142     1
   1728   1734     1
   1728   1735     1
   1729   3142     1
   1729   1734     1
   1729   1735     1
   1733   3141     1
   1734   3138     1
   1735   3138     1
   1736   3164     1
   1737   3161     1
   1738   3161     1
   1740   1754     1
   1740   1755     1
   1740   1757     1
   1740   1758     1
   1740   1751     1
   1740   1752     1
   1741   1745     1
   1741   1746     1
   1741   1748     1
   1741   1749     1
   1741   1766     1
   1741   1767     1
   1742   1744     1
   1742   1747     1
   1742   1765     1
   1742   1754     1
   1742   1755     1
   1743   1744     1
   1743   1747     1
   1743   1765     1
   1743   1754     1
   1743   1755     1
   1744   1748     1
   1744   1749     1
   1744   1763     1
   1744   1764     1
   1745   1747     1
   1745   1762     1
   1745   1757     1
   1745   1758     1
   1746   1747     1
   1746   1762     1
   1746   1757     1
   1746   1758     1
   1747   1760     1
   1747   1761     1
   1748   1759     1
   1748   1751     1
   1748   1752     1
   1749   1759     1
   1749   1751     1
   1749   1752     1
   1751   1768     1
   1751   1760     1
   1751   1761     1
   1752   1768     1
   1752   1760     1
   1752   1761     1
   1754   3211     1
   1754   1766     1
   1754   1767     1
   1755   3211     1
   1755   1766     1
   1755   1767     1
   1757   3188     1
   1757   1763     1
   1757   1764     1
   1758   3188     1
   1758   1763     1
   1758   1764     1
   1762   3187     1
   1763   3184     1
   1764   3184     1
   1765   3210     1
   1766   3207     1
   1767   3207     1
   1769   1783     1
   1769   1784     1
   1769   1786     1
   1769   1787     1
   1769   1780     1
   1769   1781     1
   1770   1774     1
   1770   1775     1
   1770   1777     1
   1770   1778     1
   1770   1795     1
   1770   1796     1
   1771   1773     1
   1771   1776     1
   1771   1794     1
   1771   1783     1
   1771   1784     1
   1772   1773     1
   1772   1776     1
   1772   1794     1
   1772   1783     1
   1772   1784     1
   1773   1777     1
   1773   1778     1
   1773   1792     1
   1773   1793     1
   1774   1776     1
   1774   1791     1
   1774   1786     1
   1774   1787     1
   1775   1776     1
   1775   1791     1
   1775   1786     1
   1775   1787     1
   1776   1789     1
   1776   1790     1
   1777   1788     1
   1777   1780     1
   1777   1781     1
   1778   1788     1
   1778   1780     1
   1778   1781     1
   1780   1797     1
   1780   1789     1
   1780   1790     1
   1781   1797     1
   1781   1789     1
   1781   1790     1
   1783   3257     1
   1783   1795     1
   1783   1796     1
   1784   3257     1
   1784   1795     1
   1784   1796     1
   1786   3234     1
   1786   1792     1
   1786   1793     1
   1787   3234     1
   1787   1792     1
   1787   1793     1
   1791   3233     1
   1792   3230     1
   1793   3230     1
   1794   3256     1
   1795   3253     1
   1796   3253     1
   1798   1806     1
   1798   1814     1
   1798   1819     1
   1798   1807     1
   1799   1816     1
   1799   1817     1
   1799   1805     1
   1799   1813     1
   1800   1802     1
   1800   1811     1
   1800   1801     1
   1800   1818     1
   1800   1816     1
   1800   1817     1
   1800   1804     1
   1801   1812     1
   1801   1820     1
   1801   1803     1
   1801   1810     1
   1801   1806     1
   1801   1814     1
   1802   1814     1
   1802   1807     1
   1802   1815     1
   1803   1813     1
   1804   1806     1
   1804   1815     1
   1805   1810     1
   1805   1806     1
   1805   1808     1
   1805   1820     1
   1805   1807     1
   1805   1815     1
   1806   1811     1
   1806   1809     1
   1806   1813     1
   1807   1809     1
   1816   1820     1
   1816   1819     1
   1817   1820     1
   1817   1819     1
   1821   1829     1
   1821   1837     1
   1821   1842     1
   1821   1830     1
   1822   1828     1
   1822   1836     1
   1822   1839     1
   1822   1840     1
   1823   1825     1
   1823   1834     1
   1823   1824     1
   1823   1841     1
   1823   1839     1
   1823   1840     1
   1823   1827     1
   1824   1826     1
   1824   1833     1
   1824   1829     1
   1824   1837     1
   1824   1835     1
   1824   1843     1
   1825   1830     1
   1825   1838     1
   1825   1837     1
   1826   1836     1
   1827   1838     1
   1827   1829     1
   1828   1831     1
   1828   1843     1
   1828   1830     1
   1828   1838     1
   1828   1833     1
   1828   1829     1
   1829   1832     1
   1829   1836     1
   1829   1834     1
   1830   1832     1
   1839   1842     1
   1839   1843     1
   1840   1842     1
   1840   1843     1
   1844   1852     1
   1844   1860     1
   1844   1865     1
   1844   1853     1
   1845   1862     1
   1845   1863     1
   1845   1851     1
   1845   1859     1
   1846   1848     1
   1846   1857     1
   1846   1847     1
   1846   1864     1
   1846   1862     1
   1846   1863     1
   1846   1850     1
   1847   1858     1
   1847   1866     1
   1847   1849     1
   1847   1856     1
   1847   1852     1
   1847   1860     1
   1848   1860     1
   1848   1853     1
   1848   1861     1
   1849   1859     1
   1850   1852     1
   1850   1861     1
   1851   1856     1
   1851   1852     1
   1851   1854     1
   1851   1866     1
   1851   1853     1
   1851   1861     1
   1852   1857     1
   1852   1855     1
   1852   1859     1
   1853   1855     1
   1862   1866     1
   1862   1865     1
   1863   1866     1
   1863   1865     1
   1867   1875     1
   1867   1883     1
   1867   1888     1
   1867   1876     1
   1868   1874     1
   1868   1882     1
   1868   1885     1
   1868   1886     1
   1869   1871     1
   1869   1880     1
   1869   1870     1
   1869   1887     1
   1869   1885     1
   1869   1886     1
   1869   1873     1
   1870   1872     1
   1870   1879     1
   1870   1875     1
   1870   1883     1
   1870   1881     1
   1870   1889     1
   1871   1876     1
   1871   1884     1
   1871   1883     1
   1872   1882     1
   1873   1884     1
   1873   1875     1
   1874   1877     1
   1874   1889     1
   1874   1876     1
   1874   1884     1
   1874   1879     1
   1874   1875     1
   1875   1878     1
   1875   1882     1
   1875   1880     1
   1876   1878     1
   1885   1888     1
   1885   1889     1
   1886   1888     1
   1886   1889     1
   1890   1898     1
   1890   1906     1
   1890   1911     1
   1890   1899     1
   1891   1908     1
   1891   1909     1
   1891   1897     1
   1891   1905     1
   1892   1894     1
   1892   1903     1
   1892   1893     1
   1892   1910     1
   1892   1908     1
   1892   1909     1
   1892   1896     1
   1893   1904     1
   1893   1912     1
   1893   1895     1
   1893   1902     1
   1893   1898     1
   1893   1906     1
   1894   1906     1
   1894   1899     1
   1894   1907     1
   1895   1905     1
   1896   1898     1
   1896   1907     1
   1897   1902     1
   1897   1898     1
   1897   1900     1
   1897   1912     1
   1897   1899     1
   1897   1907     1
   1898   1903     1
   1898   1901     1
   1898   1905     1
   1899   1901     1
   1908   1912     1
   1908   1911     1
   1909   1912     1
   1909   1911     1
   1913   1921     1
   1913   1929     1
   1913   1934     1
   1913   1922     1
   1914   1920     1
   1914   1928     1
   1914   1931     1
   1914   1932     1
   1915   1917     1
   1915   1926     1
   1915   1916     1
   1915   1933     1
   1915   1931     1
   1915   1932     1
   1915   1919     1
   1916   1918     1
   1916   1925     1
   1916   1921     1
   1916   1929     1
   1916   1927     1
   1916   1935     1
   1917   1922     1
   1917   1930     1
   1917   1929     1
   1918   1928     1
   1919   1930     1
   1919   1921     1
   1920   1923     1
   1920   1935     1
   1920   1922     1
   1920   1930     1
   1920   1925     1
   1920   1921     1
   1921   1924     1
   1921   1928     1
   1921   1926     1
   1922   1924     1
   1931   1934     1
   1931   1935     1
   1932   1934     1
   1932   1935     1
   1936   1944     1
   1936   1952     1
   1936   1957     1
   1936   1945     1
   1937   1954     1
   1937   1955     1
   1937   1943     1
   1937   1951     1
   1938   1940     1
   1938   1949     1
   1938   1939     1
   1938   1956     1
   1938   1954     1
   1938   1955     1
   1938   1942     1
   1939   1950     1
   1939   1958     1
   1939   1941     1
   1939   1948     1
   1939   1944     1
   1939   1952     1
   1940   1952     1
   1940   1945     1
   1940   1953     1
   1941   1951     1
   1942   1944     1
   1942   1953     1
   1943   1948     1
   1943   1944     1
   1943   1946     1
   1943   1958     1
   1943   1945     1
   1943   1953     1
   1944   1949     1
   1944   1947     1
   1944   1951     1
   1945   1947     1
   1954   1958     1
   1954   1957     1
   1955   1958     1
   1955   1957     1
   1959   1967     1
   1959   1975     1
   1959   1980     1
   1959   1968     1
   1960   1966     1
   1960   1974     1
   1960   1977     1
   1960   1978     1
   1961   1963     1
   1961   1972     1
   1961   1962     1
   1961   1979     1
   1961   1977     1
   1961   1978     1
   1961   1965     1
   1962   1964     1
   1962   1971     1
   1962   1967     1
   1962   1975     1
   1962   1973     1
   1962   1981     1
   1963   1968     1
   1963   1976     1
   1963   1975     1
   1964   1974     1
   1965   1976     1
   1965   1967     1
   1966   1969     1
   1966   1981     1
   1966   1968     1
   1966   1976     1
   1966   1971     1
   1966   1967     1
   1967   1970     1
   1967   1974     1
   1967   1972     1
   1968   1970     1
   1977   1980     1
   1977   1981     1
   1978   1980     1
   1978   1981     1
   1982   1990     1
   1982   1998     1
   1982   2003     1
   1982   1991     1
   1983   2000     1
   1983   2001     1
   1983   1989     1
   1983   1997     1
   1984   1986     1
   1984   1995     1
   1984   1985     1
   1984   2002     1
   1984   2000     1
   1984   2001     1
   1984   1988     1
   1985   1996     1
   1985   2004     1
   1985   1987     1
   1985   1994     1
   1985   1990     1
   1985   1998     1
   1986   1998     1
   1986   1991     1
   1986   1999     1
   1987   1997     1
   1988   1990     1
   1988   1999     1
   1989   1994     1
   1989   1990     1
   1989   1992     1
   1989   2004     1
   1989   1991     1
   1989   1999     1
   1990   1995     1
   1990   1993     1
   1990   1997     1
   1991   1993     1
   2000   2004     1
   2000   2003     1
   2001   2004     1
   2001   2003     1
   2005   2013     1
   2005   2021     1
   2005   2026     1
   2005   2014     1
   2006   2012     1
   2006   2020     1
   2006   2023     1
   2006   2024     1
   2007   2009     1
   2007   2018     1
   2007   2008     1
   2007   2025     1
   2007   2023     1
   2007   2024     1
   2007   2011     1
   2008   2010     1
   2008   2017     1
   2008   2013     1
   2008   2021     1
   2008   2019     1
   2008   2027     1
   2009   2014     1
   2009   2022     1
   2009   2021     1
   2010   2020     1
   2011   2022     1
   2011   2013     1
   2012   2015     1
   2012   2027     1
   2012   2014     1
   2012   2022     1
   2012   2017     1
   2012   2013     1
   2013   2016     1
   2013   2020     1
   2013   2018     1
   2014   2016     1
   2023   2026     1
   2023   2027     1
   2024   2026     1
   2024   2027     1
   2028   2036     1
   2028   2044     1
   2028   2049     1
   2028   2037     1
   2029   2046     1
   2029   2047     1
   2029   2035     1
   2029   2043     1
   2030   2032     1
   2030   2041     1
   2030   2031     1
   2030   2048     1
   2030   2046     1
   2030   2047     1
   2030   2034     1
   2031   2042     1
   2031   2050     1
   2031   2033     1
   2031   2040     1
   2031   2036     1
   2031   2044     1
   2032   2044     1
   2032   2037     1
   2032   2045     1
   2033   2043     1
   2034   2036     1
   2034   2045     1
   2035   2040     1
   2035   2036     1
   2035   2038     1
   2035   2050     1
   2035   2037     1
   2035   2045     1
   2036   2041     1
   2036   2039     1
   2036   2043     1
   2037   2039     1
   2046   2050     1
   2046   2049     1
   2047   2050     1
   2047   2049     1
   2051   2059     1
   2051   2067     1
   2051   2072     1
   2051   2060     1
   2052   2058     1
   2052   2066     1
   2052   2069     1
   2052   2070     1
   2053   2055     1
   2053   2064     1
   2053   2054     1
   2053   2071     1
   2053   2069     1
   2053   2070     1
   2053   2057     1
   2054   2056     1
   2054   2063     1
   2054   2059     1
   2054   2067     1
   2054   2065     1
   2054   2073     1
   2055   2060     1
   2055   2068     1
   2055   2067     1
   2056   2066     1
   2057   2068     1
   2057   2059     1
   2058   2061     1
   2058   2073     1
   2058   2060     1
   2058   2068     1
   2058   2063     1
   2058   2059     1
   2059   2062     1
   2059   2066     1
   2059   2064     1
   2060   2062     1
   2069   2072     1
   2069   2073     1
   2070   2072     1
   2070   2073     1
   2074   2082     1
   2074   2090     1
   2074   2095     1
   2074   2083     1
   2075   2092     1
   2075   2093     1
   2075   2081     1
   2075   2089     1
   2076   2078     1
   2076   2087     1
   2076   2077     1
   2076   2094     1
   2076   2092     1
   2076   2093     1
   2076   2080     1
   2077   2088     1
   2077   2096     1
   2077   2079     1
   2077   2086     1
   2077   2082     1
   2077   2090     1
   2078   2090     1
   2078   2083     1
   2078   2091     1
   2079   2089     1
   2080   2082     1
   2080   2091     1
   2081   2086     1
   2081   2082     1
   2081   2084     1
   2081   2096     1
   2081   2083     1
   2081   2091     1
   2082   2087     1
   2082   2085     1
   2082   2089     1
   2083   2085     1
   2092   2096     1
   2092   2095     1
   2093   2096     1
   2093   2095     1
   2097   2105     1
   2097   2113     1
   2097   2118     1
   2097   2106     1
   2098   2104     1
   2098   2112     1
   2098   2115     1
   2098   2116     1
   2099   2101     1
   2099   2110     1
   2099   2100     1
   2099   2117     1
   2099   2115     1
   2099   2116     1
   2099   2103     1
   2100   2102     1
   2100   2109     1
   2100   2105     1
   2100   2113     1
   2100   2111     1
   2100   2119     1
   2101   2106     1
   2101   2114     1
   2101   2113     1
   2102   2112     1
   2103   2114     1
   2103   2105     1
   2104   2107     1
   2104   2119     1
   2104   2106     1
   2104   2114     1
   2104   2109     1
   2104   2105     1
   2105   2108     1
   2105   2112     1
   2105   2110     1
   2106   2108     1
   2115   2118     1
   2115   2119     1
   2116   2118     1
   2116   2119     1
   2120   2128     1
   2120   2136     1
   2120   2141     1
   2120   2129     1
   2121   2138     1
   2121   2139     1
   2121   2127     1
   2121   2135     1
   2122   2124     1
   2122   2133     1
   2122   2123     1
   2122   2140     1
   2122   2138     1
   2122   2139     1
   2122   2126     1
   2123   2134     1
   2123   2142     1
   2123   2125     1
   2123   2132     1
   2123   2128     1
   2123   2136     1
   2124   2136     1
   2124   2129     1
   2124   2137     1
   2125   2135     1
   2126   2128     1
   2126   2137     1
   2127   2132     1
   2127   2128     1
   2127   2130     1
   2127   2142     1
   2127   2129     1
   2127   2137     1
   2128   2133     1
   2128   2131     1
   2128   2135     1
   2129   2131     1
   2138   2142     1
   2138   2141     1
   2139   2142     1
   2139   2141     1
   2143   2151     1
   2143   2159     1
   2143   2164     1
   2143   2152     1
   2144   2150     1
   2144   2158     1
   2144   2161     1
   2144   2162     1
   2145   2147     1
   2145   2156     1
   2145   2146     1
   2145   2163     1
   2145   2161     1
   2145   2162     1
   2145   2149     1
   2146   2148     1
   2146   2155     1
   2146   2151     1
   2146   2159     1
   2146   2157     1
   2146   2165     1
   2147   2152     1
   2147   2160     1
   2147   2159     1
   2148   2158     1
   2149   2160     1
   2149   2151     1
   2150   2153     1
   2150   2165     1
   2150   2152     1
   2150   2160     1
   2150   2155     1
   2150   2151     1
   2151   2154     1
   2151   2158     1
   2151   2156     1
   2152   2154     1
   2161   2164     1
   2161   2165     1
   2162   2164     1
   2162   2165     1
   2166   2174     1
   2166   2182     1
   2166   2187     1
   2166   2175     1
   2167   2184     1
   2167   2185     1
   2167   2173     1
   2167   2181     1
   2168   2170     1
   2168   2179     1
   2168   2169     1
   2168   2186     1
   2168   2184     1
   2168   2185     1
   2168   2172     1
   2169   2180     1
   2169   2188     1
   2169   2171     1
   2169   2178     1
   2169   2174     1
   2169   2182     1
   2170   2182     1
   2170   2175     1
   2170   2183     1
   2171   2181     1
   2172   2174     1
   2172   2183     1
   2173   2178     1
   2173   2174     1
   2173   2176     1
   2173   2188     1
   2173   2175     1
   2173   2183     1
   2174   2179     1
   2174   2177     1
   2174   2181     1
   2175   2177     1
   2184   2188     1
   2184   2187     1
   2185   2188     1
   2185   2187     1
   2189   2197     1
   2189   2205     1
   2189   2210     1
   2189   2198     1
   2190   2196     1
   2190   2204     1
   2190   2207     1
   2190   2208     1
   2191   2193     1
   2191   2202     1
   2191   2192     1
   2191   2209     1
   2191   2207     1
   2191   2208     1
   2191   2195     1
   2192   2194     1
   2192   2201     1
   2192   2197     1
   2192   2205     1
   2192   2203     1
   2192   2211     1
   2193   2198     1
   2193   2206     1
   2193   2205     1
   2194   2204     1
   2195   2206     1
   2195   2197     1
   2196   2199     1
   2196   2211     1
   2196   2198     1
   2196   2206     1
   2196   2201     1
   2196   2197     1
   2197   2200     1
   2197   2204     1
   2197   2202     1
   2198   2200     1
   2207   2210     1
   2207   2211     1
   2208   2210     1
   2208   2211     1
   2212   2220     1
   2212   2228     1
   2212   2233     1
   2212   2221     1
   2213   2230     1
   2213   2231     1
   2213   2219     1
   2213   2227     1
   2214   2216     1
   2214   2225     1
   2214   2215     1
   2214   2232     1
   2214   2230     1
   2214   2231     1
   2214   2218     1
   2215   2226     1
   2215   2234     1
   2215   2217     1
   2215   2224     1
   2215   2220     1
   2215   2228     1
   2216   2228     1
   2216   2221     1
   2216   2229     1
   2217   2227     1
   2218   2220     1
   2218   2229     1
   2219   2224     1
   2219   2220     1
   2219   2222     1
   2219   2234     1
   2219   2221     1
   2219   2229     1
   2220   2225     1
   2220   2223     1
   2220   2227     1
   2221   2223     1
   2230   2234     1
   2230   2233     1
   2231   2234     1
   2231   2233     1
   2235   2243     1
   2235   2251     1
   2235   2256     1
   2235   2244     1
   2236   2242     1
   2236   2250     1
   2236   2253     1
   2236   2254     1
   2237   2239     1
   2237   2248     1
   2237   2238     1
   2237   2255     1
   2237   2253     1
   2237   2254     1
   2237   2241     1
   2238   2240     1
   2238   2247     1
   2238   2243     1
   2238   2251     1
   2238   2249     1
   2238   2257     1
   2239   2244     1
   2239   2252     1
   2239   2251     1
   2240   2250     1
   2241   2252     1
   2241   2243     1
   2242   2245     1
   2242   2257     1
   2242   2244     1
   2242   2252     1
   2242   2247     1
   2242   2243     1
   2243   2246     1
   2243   2250     1
   2243   2248     1
   2244   2246     1
   2253   2256     1
   2253   2257     1
   2254   2256     1
   2254   2257     1
   2258   2266     1
   2258   2274     1
   2258   2279     1
   2258   2267     1
   2259   2276     1
   2259   2277     1
   2259   2265     1
   2259   2273     1
   2260   2262     1
   2260   2271     1
   2260   2261     1
   2260   2278     1
   2260   2276     1
   2260   2277     1
   2260   2264     1
   2261   2272     1
   2261   2280     1
   2261   2263     1
   2261   2270     1
   2261   2266     1
   2261   2274     1
   2262   2274     1
   2262   2267     1
   2262   2275     1
   2263   2273     1
   2264   2266     1
   2264   2275     1
   2265   2270     1
   2265   2266     1
   2265   2268     1
   2265   2280     1
   2265   2267     1
   2265   2275     1
   2266   2271     1
   2266   2269     1
   2266   2273     1
   2267   2269     1
   2276   2280     1
   2276   2279     1
   2277   2280     1
   2277   2279     1
   2281   2289     1
   2281   2297     1
   2281   2302     1
   2281   2290     1
   2282   2288     1
   2282   2296     1
   2282   2299     1
   2282   2300     1
   2283   2285     1
   2283   2294     1
   2283   2284     1
   2283   2301     1
   2283   2299     1
   2283   2300     1
   2283   2287     1
   2284   2286     1
   2284   2293     1
   2284   2289     1
   2284   2297     1
   2284   2295     1
   2284   2303     1
   2285   2290     1
   2285   2298     1
   2285   2297     1
   2286   2296     1
   2287   2298     1
   2287   2289     1
   2288   2291     1
   2288   2303     1
   2288   2290     1
   2288   2298     1
   2288   2293     1
   2288   2289     1
   2289   2292     1
   2289   2296     1
   2289   2294     1
   2290   2292     1
   2299   2302     1
   2299   2303     1
   2300   2302     1
   2300   2303     1
   2304   2312     1
   2304   2320     1
   2304   2325     1
   2304   2313     1
   2305   2322     1
   2305   2323     1
   2305   2311     1
   2305   2319     1
   2306   2308     1
   2306   2317     1
   2306   2307     1
   2306   2324     1
   2306   2322     1
   2306   2323     1
   2306   2310     1
   2307   2318     1
   2307   2326     1
   2307   2309     1
   2307   2316     1
   2307   2312     1
   2307   2320     1
   2308   2320     1
   2308   2313     1
   2308   2321     1
   2309   2319     1
   2310   2312     1
   2310   2321     1
   2311   2316     1
   2311   2312     1
   2311   2314     1
   2311   2326     1
   2311   2313     1
   2311   2321     1
   2312   2317     1
   2312   2315     1
   2312   2319     1
   2313   2315     1
   2322   2326     1
   2322   2325     1
   2323   2326     1
   2323   2325     1
   2327   2335     1
   2327   2343     1
   2327   2348     1
   2327   2336     1
   2328   2334     1
   2328   2342     1
   2328   2345     1
   2328   2346     1
   2329   2331     1
   2329   2340     1
   2329   2330     1
   2329   2347     1
   2329   2345     1
   2329   2346     1
   2329   2333     1
   2330   2332     1
   2330   2339     1
   2330   2335     1
   2330   2343     1
   2330   2341     1
   2330   2349     1
   2331   2336     1
   2331   2344     1
   2331   2343     1
   2332   2342     1
   2333   2344     1
   2333   2335     1
   2334   2337     1
   2334   2349     1
   2334   2336     1
   2334   2344     1
   2334   2339     1
   2334   2335     1
   2335   2338     1
   2335   2342     1
   2335   2340     1
   2336   2338     1
   2345   2348     1
   2345   2349     1
   2346   2348     1
   2346   2349     1
   2350   2358     1
   2350   2366     1
   2350   2371     1
   2350   2359     1
   2351   2368     1
   2351   2369     1
   2351   2357     1
   2351   2365     1
   2352   2354     1
   2352   2363     1
   2352   2353     1
   2352   2370     1
   2352   2368     1
   2352   2369     1
   2352   2356     1
   2353   2364     1
   2353   2372     1
   2353   2355     1
   2353   2362     1
   2353   2358     1
   2353   2366     1
   2354   2366     1
   2354   2359     1
   2354   2367     1
   2355   2365     1
   2356   2358     1
   2356   2367     1
   2357   2362     1
   2357   2358     1
   2357   2360     1
   2357   2372     1
   2357   2359     1
   2357   2367     1
   2358   2363     1
   2358   2361     1
   2358   2365     1
   2359   2361     1
   2368   2372     1
   2368   2371     1
   2369   2372     1
   2369   2371     1
   2373   2381     1
   2373   2389     1
   2373   2394     1
   2373   2382     1
   2374   2380     1
   2374   2388     1
   2374   2391     1
   2374   2392     1
   2375   2377     1
   2375   2386     1
   2375   2376     1
   2375   2393     1
   2375   2391     1
   2375   2392     1
   2375   2379     1
   2376   2378     1
   2376   2385     1
   2376   2381     1
   2376   2389     1
   2376   2387     1
   2376   2395     1
   2377   2382     1
   2377   2390     1
   2377   2389     1
   2378   2388     1
   2379   2390     1
   2379   2381     1
   2380   2383     1
   2380   2395     1
   2380   2382     1
   2380   2390     1
   2380   2385     1
   2380   2381     1
   2381   2384     1
   2381   2388     1
   2381   2386     1
   2382   2384     1
   2391   2394     1
   2391   2395     1
   2392   2394     1
   2392   2395     1
   2396   2404     1
   2396   2412     1
   2396   2417     1
   2396   2405     1
   2397   2414     1
   2397   2415     1
   2397   2403     1
   2397   2411     1
   2398   2400     1
   2398   2409     1
   2398   2399     1
   2398   2416     1
   2398   2414     1
   2398   2415     1
   2398   2402     1
   2399   2410     1
   2399   2418     1
   2399   2401     1
   2399   2408     1
   2399   2404     1
   2399   2412     1
   2400   2412     1
   2400   2405     1
   2400   2413     1
   2401   2411     1
   2402   2404     1
   2402   2413     1
   2403   2408     1
   2403   2404     1
   2403   2406     1
   2403   2418     1
   2403   2405     1
   2403   2413     1
   2404   2409     1
   2404   2407     1
   2404   2411     1
   2405   2407     1
   2414   2418     1
   2414   2417     1
   2415   2418     1
   2415   2417     1
   2419   2427     1
   2419   2435     1
   2419   2440     1
   2419   2428     1
   2420   2426     1
   2420   2434     1
   2420   2437     1
   2420   2438     1
   2421   2423     1
   2421   2432     1
   2421   2422     1
   2421   2439     1
   2421   2437     1
   2421   2438     1
   2421   2425     1
   2422   2424     1
   2422   2431     1
   2422   2427     1
   2422   2435     1
   2422   2433     1
   2422   2441     1
   2423   2428     1
   2423   2436     1
   2423   2435     1
   2424   2434     1
   2425   2436     1
   2425   2427     1
   2426   2429     1
   2426   2441     1
   2426   2428     1
   2426   2436     1
   2426   2431     1
   2426   2427     1
   2427   2430     1
   2427   2434     1
   2427   2432     1
   2428   2430     1
   2437   2440     1
   2437   2441     1
   2438   2440     1
   2438   2441     1
   2442   2450     1
   2442   2458     1
   2442   2463     1
   2442   2451     1
   2443   2460     1
   2443   2461     1
   2443   2449     1
   2443   2457     1
   2444   2446     1
   2444   2455     1
   2444   2445     1
   2444   2462     1
   2444   2460     1
   2444   2461     1
   2444   2448     1
   2445   2456     1
   2445   2464     1
   2445   2447     1
   2445   2454     1
   2445   2450     1
   2445   2458     1
   2446   2458     1
   2446   2451     1
   2446   2459     1
   2447   2457     1
   2448   2450     1
   2448   2459     1
   2449   2454     1
   2449   2450     1
   2449   2452     1
   2449   2464     1
   2449   2451     1
   2449   2459     1
   2450   2455     1
   2450   2453     1
   2450   2457     1
   2451   2453     1
   2460   2464     1
   2460   2463     1
   2461   2464     1
   2461   2463     1
   2465   2473     1
   2465   2481     1
   2465   2486     1
   2465   2474     1
   2466   2472     1
   2466   2480     1
   2466   2483     1
   2466   2484     1
   2467   2469     1
   2467   2478     1
   2467   2468     1
   2467   2485     1
   2467   2483     1
   2467   2484     1
   2467   2471     1
   2468   2470     1
   2468   2477     1
   2468   2473     1
   2468   2481     1
   2468   2479     1
   2468   2487     1
   2469   2474     1
   2469   2482     1
   2469   2481     1
   2470   2480     1
   2471   2482     1
   2471   2473     1
   2472   2475     1
   2472   2487     1
   2472   2474     1
   2472   2482     1
   2472   2477     1
   2472   2473     1
   2473   2476     1
   2473   2480     1
   2473   2478     1
   2474   2476     1
   2483   2486     1
   2483   2487     1
   2484   2486     1
   2484   2487     1
   2488   2496     1
   2488   2504     1
   2488   2509     1
   2488   2497     1
   2489   2506     1
   2489   2507     1
   2489   2495     1
   2489   2503     1
   2490   2492     1
   2490   2501     1
   2490   2491     1
   2490   2508     1
   2490   2506     1
   2490   2507     1
   2490   2494     1
   2491   2502     1
   2491   2510     1
   2491   2493     1
   2491   2500     1
   2491   2496     1
   2491   2504     1
   2492   2504     1
   2492   2497     1
   2492   2505     1
   2493   2503     1
   2494   2496     1
   2494   2505     1
   2495   2500     1
   2495   2496     1
   2495   2498     1
   2495   2510     1
   2495   2497     1
   2495   2505     1
   2496   2501     1
   2496   2499     1
   2496   2503     1
   2497   2499     1
   2506   2510     1
   2506   2509     1
   2507   2510     1
   2507   2509     1
   2511   2519     1
   2511   2527     1
   2511   2532     1
   2511   2520     1
   2512   2518     1
   2512   2526     1
   2512   2529     1
   2512   2530     1
   2513   2515     1
   2513   2524     1
   2513   2514     1
   2513   2531     1
   2513   2529     1
   2513   2530     1
   2513   2517     1
   2514   2516     1
   2514   2523     1
   2514   2519     1
   2514   2527     1
   2514   2525     1
   2514   2533     1
   2515   2520     1
   2515   2528     1
   2515   2527     1
   2516   2526     1
   2517   2528     1
   2517   2519     1
   2518   2521     1
   2518   2533     1
   2518   2520     1
   2518   2528     1
   2518   2523     1
   2518   2519     1
   2519   2522     1
   2519   2526     1
   2519   2524     1
   2520   2522     1
   2529   2532     1
   2529   2533     1
   2530   2532     1
   2530   2533     1
   2534   2542     1
   2534   2550     1
   2534   2555     1
   2534   2543     1
   2535   2552     1
   2535   2553     1
   2535   2541     1
   2535   2549     1
   2536   2538     1
   2536   2547     1
   2536   2537     1
   2536   2554     1
   2536   2552     1
   2536   2553     1
   2536   2540     1
   2537   2548     1
   2537   2556     1
   2537   2539     1
   2537   2546     1
   2537   2542     1
   2537   2550     1
   2538   2550     1
   2538   2543     1
   2538   2551     1
   2539   2549     1
   2540   2542     1
   2540   2551     1
   2541   2546     1
   2541   2542     1
   2541   2544     1
   2541   2556     1
   2541   2543     1
   2541   2551     1
   2542   2547     1
   2542   2545     1
   2542   2549     1
   2543   2545     1
   2552   2556     1
   2552   2555     1
   2553   2556     1
   2553   2555     1
   2557   2565     1
   2557   2573     1
   2557   2578     1
   2557   2566     1
   2558   2564     1
   2558   2572     1
   2558   2575     1
   2558   2576     1
   2559   2561     1
   2559   2570     1
   2559   2560     1
   2559   2577     1
   2559   2575     1
   2559   2576     1
   2559   2563     1
   2560   2562     1
   2560   2569     1
   2560   2565     1
   2560   2573     1
   2560   2571     1
   2560   2579     1
   2561   2566     1
   2561   2574     1
   2561   2573     1
   2562   2572     1
   2563   2574     1
   2563   2565     1
   2564   2567     1
   2564   2579     1
   2564   2566     1
   2564   2574     1
   2564   2569     1
   2564   2565     1
   2565   2568     1
   2565   2572     1
   2565   2570     1
   2566   2568     1
   2575   2578     1
   2575   2579     1
   2576   2578     1
   2576   2579     1
   2580   2588     1
   2580   2596     1
   2580   2601     1
   2580   2589     1
   2581   2598     1
   2581   2599     1
   2581   2587     1
   2581   2595     1
   2582   2584     1
   2582   2593     1
   2582   2583     1
   2582   2600     1
   2582   2598     1
   2582   2599     1
   2582   2586     1
   2583   2594     1
   2583   2602     1
   2583   2585     1
   2583   2592     1
   2583   2588     1
   2583   2596     1
   2584   2596     1
   2584   2589     1
   2584   2597     1
   2585   2595     1
   2586   2588     1
   2586   2597     1
   2587   2592     1
   2587   2588     1
   2587   2590     1
   2587   2602     1
   2587   2589     1
   2587   2597     1
   2588   2593     1
   2588   2591     1
   2588   2595     1
   2589   2591     1
   2598   2602     1
   2598   2601     1
   2599   2602     1
   2599   2601     1
   2603   2611     1
   2603   2619     1
   2603   2624     1
   2603   2612     1
   2604   2610     1
   2604   2618     1
   2604   2621     1
   2604   2622     1
   2605   2607     1
   2605   2616     1
   2605   2606     1
   2605   2623     1
   2605   2621     1
   2605   2622     1
   2605   2609     1
   2606   2608     1
   2606   2615     1
   2606   2611     1
   2606   2619     1
   2606   2617     1
   2606   2625     1
   2607   2612     1
   2607   2620     1
   2607   2619     1
   2608   2618     1
   2609   2620     1
   2609   2611     1
   2610   2613     1
   2610   2625     1
   2610   2612     1
   2610   2620     1
   2610   2615     1
   2610   2611     1
   2611   2614     1
   2611   2618     1
   2611   2616     1
   2612   2614     1
   2621   2624     1
   2621   2625     1
   2622   2624     1
   2622   2625     1
   2626   2634     1
   2626   2642     1
   2626   2647     1
   2626   2635     1
   2627   2644     1
   2627   2645     1
   2627   2633     1
   2627   2641     1
   2628   2630     1
   2628   2639     1
   2628   2629     1
   2628   2646     1
   2628   2644     1
   2628   2645     1
   2628   2632     1
   2629   2640     1
   2629   2648     1
   2629   2631     1
   2629   2638     1
   2629   2634     1
   2629   2642     1
   2630   2642     1
   2630   2635     1
   2630   2643     1
   2631   2641     1
   2632   2634     1
   2632   2643     1
   2633   2638     1
   2633   2634     1
   2633   2636     1
   2633   2648     1
   2633   2635     1
   2633   2643     1
   2634   2639     1
   2634   2637     1
   2634   2641     1
   2635   2637     1
   2644   2648     1
   2644   2647     1
   2645   2648     1
   2645   2647     1
   2649   2657     1
   2649   2665     1
   2649   2670     1
   2649   2658     1
   2650   2656     1
   2650   2664     1
   2650   2667     1
   2650   2668     1
   2651   2653     1
   2651   2662     1
   2651   2652     1
   2651   2669     1
   2651   2667     1
   2651   2668     1
   2651   2655     1
   2652   2654     1
   2652   2661     1
   2652   2657     1
   2652   2665     1
   2652   2663     1
   2652   2671     1
   2653   2658     1
   2653   2666     1
   2653   2665     1
   2654   2664     1
   2655   2666     1
   2655   2657     1
   2656   2659     1
   2656   2671     1
   2656   2658     1
   2656   2666     1
   2656   2661     1
   2656   2657     1
   2657   2660     1
   2657   2664     1
   2657   2662     1
   2658   2660     1
   2667   2670     1
   2667   2671     1
   2668   2670     1
   2668   2671     1
   2672   2680     1
   2672   2688     1
   2672   2693     1
   2672   2681     1
   2673   2690     1
   2673   2691     1
   2673   2679     1
   2673   2687     1
   2674   2676     1
   2674   2685     1
   2674   2675     1
   2674   2692     1
   2674   2690     1
   2674   2691     1
   2674   2678     1
   2675   2686     1
   2675   2694     1
   2675   2677     1
   2675   2684     1
   2675   2680     1
   2675   2688     1
   2676   2688     1
   2676   2681     1
   2676   2689     1
   2677   2687     1
   2678   2680     1
   2678   2689     1
   2679   2684     1
   2679   2680     1
   2679   2682     1
   2679   2694     1
   2679   2681     1
   2679   2689     1
   2680   2685     1
   2680   2683     1
   2680   2687     1
   2681   2683     1
   2690   2694     1
   2690   2693     1
   2691   2694     1
   2691   2693     1
   2695   2703     1
   2695   2711     1
   2695   2716     1
   2695   2704     1
   2696   2702     1
   2696   2710     1
   2696   2713     1
   2696   2714     1
   2697   2699     1
   2697   2708     1
   2697   2698     1
   2697   2715     1
   2697   2713     1
   2697   2714     1
   2697   2701     1
   2698   2700     1
   2698   2707     1
   2698   2703     1
   2698   2711     1
   2698   2709     1
   2698   2717     1
   2699   2704     1
   2699   2712     1
   2699   2711     1
   2700   2710     1
   2701   2712     1
   2701   2703     1
   2702   2705     1
   2702   2717     1
   2702   2704     1
   2702   2712     1
   2702   2707     1
   2702   2703     1
   2703   2706     1
   2703   2710     1
   2703   2708     1
   2704   2706     1
   2713   2716     1
   2713   2717     1
   2714   2716     1
   2714   2717     1
   2718   2726     1
   2718   2734     1
   2718   2739     1
   2718   2727     1
   2719   2736     1
   2719   2737     1
   2719   2725     1
   2719   2733     1
   2720   2722     1
   2720   2731     1
   2720   2721     1
   2720   2738     1
   2720   2736     1
   2720   2737     1
   2720   2724     1
   2721   2732     1
   2721   2740     1
   2721   2723     1
   2721   2730     1
   2721   2726     1
   2721   2734     1
   2722   2734     1
   2722   2727     1
   2722   2735     1
   2723   2733     1
   2724   2726     1
   2724   2735     1
   2725   2730     1
   2725   2726     1
   2725   2728     1
   2725   2740     1
   2725   2727     1
   2725   2735     1
   2726   2731     1
   2726   2729     1
   2726   2733     1
   2727   2729     1
   2736   2740     1
   2736   2739     1
   2737   2740     1
   2737   2739     1
   2741   2749     1
   2741   2757     1
   2741   2762     1
   2741   2750     1
   2742   2748     1
   2742   2756     1
   2742   2759     1
   2742   2760     1
   2743   2745     1
   2743   2754     1
   2743   2744     1
   2743   2761     1
   2743   2759     1
   2743   2760     1
   2743   2747     1
   2744   2746     1
   2744   2753     1
   2744   2749     1
   2744   2757     1
   2744   2755     1
   2744   2763     1
   2745   2750     1
   2745   2758     1
   2745   2757     1
   2746   2756     1
   2747   2758     1
   2747   2749     1
   2748   2751     1
   2748   2763     1
   2748   2750     1
   2748   2758     1
   2748   2753     1
   2748   2749     1
   2749   2752     1
   2749   2756     1
   2749   2754     1
   2750   2752     1
   2759   2762     1
   2759   2763     1
   2760   2762     1
   2760   2763     1
   2764   2772     1
   2764   2780     1
   2764   2785     1
   2764   2773     1
   2765   2782     1
   2765   2783     1
   2765   2771     1
   2765   2779     1
   2766   2768     1
   2766   2777     1
   2766   2767     1
   2766   2784     1
   2766   2782     1
   2766   2783     1
   2766   2770     1
   2767   2778     1
   2767   2786     1
   2767   2769     1
   2767   2776     1
   2767   2772     1
   2767   2780     1
   2768   2780     1
   2768   2773     1
   2768   2781     1
   2769   2779     1
   2770   2772     1
   2770   2781     1
   2771   2776     1
   2771   2772     1
   2771   2774     1
   2771   2786     1
   2771   2773     1
   2771   2781     1
   2772   2777     1
   2772   2775     1
   2772   2779     1
   2773   2775     1
   2782   2786     1
   2782   2785     1
   2783   2786     1
   2783   2785     1
   2787   2795     1
   2787   2803     1
   2787   2808     1
   2787   2796     1
   2788   2794     1
   2788   2802     1
   2788   2805     1
   2788   2806     1
   2789   2791     1
   2789   2800     1
   2789   2790     1
   2789   2807     1
   2789   2805     1
   2789   2806     1
   2789   2793     1
   2790   2792     1
   2790   2799     1
   2790   2795     1
   2790   2803     1
   2790   2801     1
   2790   2809     1
   2791   2796     1
   2791   2804     1
   2791   2803     1
   2792   2802     1
   2793   2804     1
   2793   2795     1
   2794   2797     1
   2794   2809     1
   2794   2796     1
   2794   2804     1
   2794   2799     1
   2794   2795     1
   2795   2798     1
   2795   2802     1
   2795   2800     1
   2796   2798     1
   2805   2808     1
   2805   2809     1
   2806   2808     1
   2806   2809     1
   2810   2818     1
   2810   2826     1
   2810   2831     1
   2810   2819     1
   2811   2828     1
   2811   2829     1
   2811   2817     1
   2811   2825     1
   2812   2814     1
   2812   2823     1
   2812   2813     1
   2812   2830     1
   2812   2828     1
   2812   2829     1
   2812   2816     1
   2813   2824     1
   2813   2832     1
   2813   2815     1
   2813   2822     1
   2813   2818     1
   2813   2826     1
   2814   2826     1
   2814   2819     1
   2814   2827     1
   2815   2825     1
   2816   2818     1
   2816   2827     1
   2817   2822     1
   2817   2818     1
   2817   2820     1
   2817   2832     1
   2817   2819     1
   2817   2827     1
   2818   2823     1
   2818   2821     1
   2818   2825     1
   2819   2821     1
   2828   2832     1
   2828   2831     1
   2829   2832     1
   2829   2831     1
   2833   2841     1
   2833   2849     1
   2833   2854     1
   2833   2842     1
   2834   2840     1
   2834   2848     1
   2834   2851     1
   2834   2852     1
   2835   2837     1
   2835   2846     1
   2835   2836     1
   2835   2853     1
   2835   2851     1
   2835   2852     1
   2835   2839     1
   2836   2838     1
   2836   2845     1
   2836   2841     1
   2836   2849     1
   2836   2847     1
   2836   2855     1
   2837   2842     1
   2837   2850     1
   2837   2849     1
   2838   2848     1
   2839   2850     1
   2839   2841     1
   2840   2843     1
   2840   2855     1
   2840   2842     1
   2840   2850     1
   2840   2845     1
   2840   2841     1
   2841   2844     1
   2841   2848     1
   2841   2846     1
   2842   2844     1
   2851   2854     1
   2851   2855     1
   2852   2854     1
   2852   2855     1
   2856   2864     1
   2856   2872     1
   2856   2877     1
   2856   2865     1
   2857   2874     1
   2857   2875     1
   2857   2863     1
   2857   2871     1
   2858   2860     1
   2858   2869     1
   2858   2859     1
   2858   2876     1
   2858   2874     1
   2858   2875     1
   2858   2862     1
   2859   2870     1
   2859   2878     1
   2859   2861     1
   2859   2868     1
   2859   2864     1
   2859   2872     1
   2860   2872     1
   2860   2865     1
   2860   2873     1
   2861   2871     1
   2862   2864     1
   2862   2873     1
   2863   2868     1
   2863   2864     1
   2863   2866     1
   2863   2878     1
   2863   2865     1
   2863   2873     1
   2864   2869     1
   2864   2867     1
   2864   2871     1
   2865   2867     1
   2874   2878     1
   2874   2877     1
   2875   2878     1
   2875   2877     1
   2879   2887     1
   2879   2895     1
   2879   2900     1
   2879   2888     1
   2880   2886     1
   2880   2894     1
   2880   2897     1
   2880   2898     1
   2881   2883     1
   2881   2892     1
   2881   2882     1
   2881   2899     1
   2881   2897     1
   2881   2898     1
   2881   2885     1
   2882   2884     1
   2882   2891     1
   2882   2887     1
   2882   2895     1
   2882   2893     1
   2882   2901     1
   2883   2888     1
   2883   2896     1
   2883   2895     1
   2884   2894     1
   2885   2896     1
   2885   2887     1
   2886   2889     1
   2886   2901     1
   2886   2888     1
   2886   2896     1
   2886   2891     1
   2886   2887     1
   2887   2890     1
   2887   2894     1
   2887   2892     1
   2888   2890     1
   2897   2900     1
   2897   2901     1
   2898   2900     1
   2898   2901     1
   2902   2910     1
   2902   2918     1
   2902   2923     1
   2902   2911     1
   2903   2920     1
   2903   2921     1
   2903   2909     1
   2903   2917     1
   2904   2906     1
   2904   2915     1
   2904   2905     1
   2904   2922     1
   2904   2920     1
   2904   2921     1
   2904   2908     1
   2905   2916     1
   2905   2924     1
   2905   2907     1
   2905   2914     1
   2905   2910     1
   2905   2918     1
   2906   2918     1
   2906   2911     1
   2906   2919     1
   2907   2917     1
   2908   2910     1
   2908   2919     1
   2909   2914     1
   2909   2910     1
   2909   2912     1
   2909   2924     1
   2909   2911     1
   2909   2919     1
   2910   2915     1
   2910   2913     1
   2910   2917     1
   2911   2913     1
   2920   2924     1
   2920   2923     1
   2921   2924     1
   2921   2923     1
   2925   2933     1
   2925   2941     1
   2925   2946     1
   2925   2934     1
   2926   2932     1
   2926   2940     1
   2926   2943     1
   2926   2944     1
   2927   2929     1
   2927   2938     1
   2927   2928     1
   2927   2945     1
   2927   2943     1
   2927   2944     1
   2927   2931     1
   2928   2930     1
   2928   2937     1
   2928   2933     1
   2928   2941     1
   2928   2939     1
   2928   2947     1
   2929   2934     1
   2929   2942     1
   2929   2941     1
   2930   2940     1
   2931   2942     1
   2931   2933     1
   2932   2935     1
   2932   2947     1
   2932   2934     1
   2932   2942     1
   2932   2937     1
   2932   2933     1
   2933   2936     1
   2933   2940     1
   2933   2938     1
   2934   2936     1
   2943   2946     1
   2943   2947     1
   2944   2946     1
   2944   2947     1
   2948   2956     1
   2948   2964     1
   2948   2969     1
   2948   2957     1
   2949   2966     1
   2949   2967     1
   2949   2955     1
   2949   2963     1
   2950   2952     1
   2950   2961     1
   2950   2951     1
   2950   2968     1
   2950   2966     1
   2950   2967     1
   2950   2954     1
   2951   2962     1
   2951   2970     1
   2951   2953     1
   2951   2960     1
   2951   2956     1
   2951   2964     1
   2952   2964     1
   2952   2957     1
   2952   2965     1
   2953   2963     1
   2954   2956     1
   2954   2965     1
   2955   2960     1
   2955   2956     1
   2955   2958     1
   2955   2970     1
   2955   2957     1
   2955   2965     1
   2956   2961     1
   2956   2959     1
   2956   2963     1
   2957   2959     1
   2966   2970     1
   2966   2969     1
   2967   2970     1
   2967   2969     1
   2971   2979     1
   2971   2987     1
   2971   2992     1
   2971   2980     1
   2972   2978     1
   2972   2986     1
   2972   2989     1
   2972   2990     1
   2973   2975     1
   2973   2984     1
   2973   2974     1
   2973   2991     1
   2973   2989     1
   2973   2990     1
   2973   2977     1
   2974   2976     1
   2974   2983     1
   2974   2979     1
   2974   2987     1
   2974   2985     1
   2974   2993     1
   2975   2980     1
   2975   2988     1
   2975   2987     1
   2976   2986     1
   2977   2988     1
   2977   2979     1
   2978   2981     1
   2978   2993     1
   2978   2980     1
   2978   2988     1
   2978   2983     1
   2978   2979     1
   2979   2982     1
   2979   2986     1
   2979   2984     1
   2980   2982     1
   2989   2992     1
   2989   2993     1
   2990   2992     1
   2990   2993     1
   2994   3002     1
   2994   3010     1
   2994   3015     1
   2994   3003     1
   2995   3012     1
   2995   3013     1
   2995   3001     1
   2995   3009     1
   2996   2998     1
   2996   3007     1
   2996   2997     1
   2996   3014     1
   2996   3012     1
   2996   3013     1
   2996   3000     1
   2997   3008     1
   2997   3016     1
   2997   2999     1
   2997   3006     1
   2997   3002     1
   2997   3010     1
   2998   3010     1
   2998   3003     1
   2998   3011     1
   2999   3009     1
   3000   3002     1
   3000   3011     1
   3001   3006     1
   3001   3002     1
   3001   3004     1
   3001   3016     1
   3001   3003     1
   3001   3011     1
   3002   3007     1
   3002   3005     1
   3002   3009     1
   3003   3005     1
   3012   3016     1
   3012   3015     1
   3013   3016     1
   3013   3015     1
   3017   3025     1
   3017   3033     1
   3017   3038     1
   3017   3026     1
   3018   3024     1
   3018   3032     1
   3018   3035     1
   3018   3036     1
   3019   3021     1
   3019   3030     1
   3019   3020     1
   3019   3037     1
   3019   3035     1
   3019   3036     1
   3019   3023     1
   3020   3022     1
   3020   3029     1
   3020   3025     1
   3020   3033     1
   3020   3031     1
   3020   3039     1
   3021   3026     1
   3021   3034     1
   3021   3033     1
   3022   3032     1
   3023   3034     1
   3023   3025     1
   3024   3027     1
   3024   3039     1
   3024   3026     1
   3024   3034     1
   3024   3029     1
   3024   3025     1
   3025   3028     1
   3025   3032     1
   3025   3030     1
   3026   3028     1
   3035   3038     1
   3035   3039     1
   3036   3038     1
   3036   3039     1
   3040   3048     1
   3040   3056     1
   3040   3061     1
   3040   3049     1
   3041   3058     1
   3041   3059     1
   3041   3047     1
   3041   3055     1
   3042   3044     1
   3042   3053     1
   3042   3043     1
   3042   3060     1
   3042   3058     1
   3042   3059     1
   3042   3046     1
   3043   3054     1
   3043   3062     1
   3043   3045     1
   3043   3052     1
   3043   3048     1
   3043   3056     1
   3044   3056     1
   3044   3049     1
   3044   3057     1
   3045   3055     1
   3046   3048     1
   3046   3057     1
   3047   3052     1
   3047   3048     1
   3047   3050     1
   3047   3062     1
   3047   3049     1
   3047   3057     1
   3048   3053     1
   3048   3051     1
   3048   3055     1
   3049   3051     1
   3058   3062     1
   3058   3061     1
   3059   3062     1
   3059   3061     1
   3063   3071     1
   3063   3079     1
   3063   3084     1
   3063   3072     1
   3064   3070     1
   3064   3078     1
   3064   3081     1
   3064   3082     1
   3065   3067     1
   3065   3076     1
   3065   3066     1
   3065   3083     1
   3065   3081     1
   3065   3082     1
   3065   3069     1
   3066   3068     1
   3066   3075     1
   3066   3071     1
   3066   3079     1
   3066   3077     1
   3066   3085     1
   3067   3072     1
   3067   3080     1
   3067   3079     1
   3068   3078     1
   3069   3080     1
   3069   3071     1
   3070   3073     1
   3070   3085     1
   3070   3072     1
   3070   3080     1
   3070   3075     1
   3070   3071     1
   3071   3074     1
   3071   3078     1
   3071   3076     1
   3072   3074     1
   3081   3084     1
   3081   3085     1
   3082   3084     1
   3082   3085     1
   3086   3094     1
   3086   3102     1
   3086   3107     1
   3086   3095     1
   3087   3104     1
   3087   3105     1
   3087   3093     1
   3087   3101     1
   3088   3090     1
   3088   3099     1
   3088   3089     1
   3088   3106     1
   3088   3104     1
   3088   3105     1
   3088   3092     1
   3089   3100     1
   3089   3108     1
   3089   3091     1
   3089   3098     1
   3089   3094     1
   3089   3102     1
   3090   3102     1
   3090   3095     1
   3090   3103     1
   3091   3101     1
   3092   3094     1
   3092   3103     1
   3093   3098     1
   3093   3094     1
   3093   3096     1
   3093   3108     1
   3093   3095     1
   3093   3103     1
   3094   3099     1
   3094   3097     1
   3094   3101     1
   3095   3097     1
   3104   3108     1
   3104   3107     1
   3105   3108     1
   3105   3107     1
   3109   3117     1
   3109   3125     1
   3109   3130     1
   3109   3118     1
   3110   3116     1
   3110   3124     1
   3110   3127     1
   3110   3128     1
   3111   3113     1
   3111   3122     1
   3111   3112     1
   3111   3129     1
   3111   3127     1
   3111   3128     1
   3111   3115     1
   3112   3114     1
   3112   3121     1
   3112   3117     1
   3112   3125     1
   3112   3123     1
   3112   3131     1
   3113   3118     1
   3113   3126     1
   3113   3125     1
   3114   3124     1
   3115   3126     1
   3115   3117     1
   3116   3119     1
   3116   3131     1
   3116   3118     1
   3116   3126     1
   3116   3121     1
   3116   3117     1
   3117   3120     1
   3117   3124     1
   3117   3122     1
   3118   3120     1
   3127   3130     1
   3127   3131     1
   3128   3130     1
   3128   3131     1
   3132   3140     1
   3132   3148     1
   3132   3153     1
   3132   3141     1
   3133   3150     1
   3133   3151     1
   3133   3139     1
   3133   3147     1
   3134   3136     1
   3134   3145     1
   3134   3135     1
   3134   3152     1
   3134   3150     1
   3134   3151     1
   3134   3138     1
   3135   3146     1
   3135   3154     1
   3135   3137     1
   3135   3144     1
   3135   3140     1
   3135   3148     1
   3136   3148     1
   3136   3141     1
   3136   3149     1
   3137   3147     1
   3138   3140     1
   3138   3149     1
   3139   3144     1
   3139   3140     1
   3139   3142     1
   3139   3154     1
   3139   3141     1
   3139   3149     1
   3140   3145     1
   3140   3143     1
   3140   3147     1
   3141   3143     1
   3150   3154     1
   3150   3153     1
   3151   3154     1
   3151   3153     1
   3155   3163     1
   3155   3171     1
   3155   3176     1
   3155   3164     1
   3156   3162     1
   3156   3170     1
   3156   3173     1
   3156   3174     1
   3157   3159     1
   3157   3168     1
   3157   3158     1
   3157   3175     1
   3157   3173     1
   3157   3174     1
   3157   3161     1
   3158   3160     1
   3158   3167     1
   3158   3163     1
   3158   3171     1
   3158   3169     1
   3158   3177     1
   3159   3164     1
   3159   3172     1
   3159   3171     1
   3160   3170     1
   3161   3172     1
   3161   3163     1
   3162   3165     1
   3162   3177     1
   3162   3164     1
   3162   3172     1
   3162   3167     1
   3162   3163     1
   3163   3166     1
   3163   3170     1
   3163   3168     1
   3164   3166     1
   3173   3176     1
   3173   3177     1
   3174   3176     1
   3174   3177     1
   3178   3186     1
   3178   3194     1
   3178   3199     1
   3178   3187     1
   3179   3196     1
   3179   3197     1
   3179   3185     1
   3179   3193     1
   3180   3182     1
   3180   3191     1
   3180   3181     1
   3180   3198     1
   3180   3196     1
   3180   3197     1
   3180   3184     1
   3181   3192     1
   3181   3200     1
   3181   3183     1
   3181   3190     1
   3181   3186     1
   3181   3194     1
   3182   3194     1
   3182   3187     1
   3182   3195     1
   3183   3193     1
   3184   3186     1
   3184   3195     1
   3185   3190     1
   3185   3186     1
   3185   3188     1
   3185   3200     1
   3185   3187     1
   3185   3195     1
   3186   3191     1
   3186   3189     1
   3186   3193     1
   3187   3189     1
   3196   3200     1
   3196   3199     1
   3197   3200     1
   3197   3199     1
   3201   3209     1
   3201   3217     1
   3201   3222     1
   3201   3210     1
   3202   3208     1
   3202   3216     1
   3202   3219     1
   3202   3220     1
   3203   3205     1
   3203   3214     1
   3203   3204     1
   3203   3221     1
   3203   3219     1
   3203   3220     1
   3203   3207     1
   3204   3206     1
   3204   3213     1
   3204   3209     1
   3204   3217     1
   3204   3215     1
   3204   3223     1
   3205   3210     1
   3205   3218     1
   3205   3217     1
   3206   3216     1
   3207   3218     1
   3207   3209     1
   3208   3211     1
   3208   3223     1
   3208   3210     1
   3208   3218     1
   3208   3213     1
   3208   3209     1
   3209   3212     1
   3209   3216     1
   3209   3214     1
   3210   3212     1
   3219   3222     1
   3219   3223     1
   3220   3222     1
   3220   3223     1
   3224   3232     1
   3224   3240     1
   3224   3245     1
   3224   3233     1
   3225   3242     1
   3225   3243     1
   3225   3231     1
   3225   3239     1
   3226   3228     1
   3226   3237     1
   3226   3227     1
   3226   3244     1
   3226   3242     1
   3226   3243     1
   3226   3230     1
   3227   3238     1
   3227   3246     1
   3227   3229     1
   3227   3236     1
   3227   3232     1
   3227   3240     1
   3228   3240     1
   3228   3233     1
   3228   3241     1
   3229   3239     1
   3230   3232     1
   3230   3241     1
   3231   3236     1
   3231   3232     1
   3231   3234     1
   3231   3246     1
   3231   3233     1
   3231   3241     1
   3232   3237     1
   3232   3235     1
   3232   3239     1
   3233   3235     1
   3242   3246     1
   3242   3245     1
   3243   3246     1
   3243   3245     1
   3247   3255     1
   3247   3263     1
   3247   3268     1
   3247   3256     1
   3248   3254     1
   3248   3262     1
   3248   3265     1
   3248   3266     1
   3249   3251     1
   3249   3260     1
   3249   3250     1
   3249   3267     1
   3249   3265     1
   3249   3266     1
   3249   3253     1
   3250   3252     1
   3250   3259     1
   3250   3255     1
   3250   3263     1
   3250   3261     1
   3250   3269     1
   3251   3256     1
   3251   3264     1
   3251   3263     1
   3252   3262     1
   3253   3264     1
   3253   3255     1
   3254   3257     1
   3254   3269     1
   3254   3256     1
   3254   3264     1
   3254   3259     1
   3254   3255     1
   3255   3258     1
   3255   3262     1
   3255   3260     1
   3256   3258     1
   3265   3268     1
   3265   3269     1
   3266   3268     1
   3266   3269     1

[ angles ]
;    ai     aj     ak funct         c0         c1         c2         c3
      1      2      8     1   107.9700462 569.024000
      1      5     11     1   107.9700462 569.024000
      2      1      5     1   112.4800480 524.673600
      2      8     14     1   111.5100476 526.347200
      5     11     17     1   111.5100476 526.347200
      8     14     20     1   111.0400475 552.288000
     11     17     21     1   111.0400475 552.288000
     14     20     28     1   112.3500484 533.878400
     14     20     31     1   112.3500484 533.878400
     17     21     22     1   112.3500484 533.878400
     17     21     25     1   112.3500484 533.878400
     20     28     40     1   111.0400475 552.288000
     20     31     43     1   111.0400475 552.288000
     21     22     34     1   111.0400475 552.288000
     21     25     37     1   111.0400475 552.288000
     22     21     25     1   112.3500484 533.878400
     22     34     55     1   111.5100476 526.347200
     25     37     52     1   111.5100476 526.347200
     28     20     31     1   112.3500484 533.878400
     28     40     49     1   111.5100476 526.347200
     31     43     46     1   111.5100476 526.347200
     34     55    173     1   107.9700462 569.024000
     37     52    144     1   107.9700462 569.024000
     40     49    115     1   107.9700462 569.024000
     43     46     86     1   107.9700462 569.024000
     46     86     77     1   112.4800480 524.673600
     49    115    106     1   112.4800480 524.673600
     52    144    135     1   112.4800480 524.673600
     55    173    164     1   112.4800480 524.673600
     58     59     71     1   111.0400475 552.288000
     58     62     74     1   111.0400475 552.288000
     58     65     68     1   111.0400475 552.288000
     59     58     62     1   112.3500484 533.878400
     59     58     65     1   112.3500484 533.878400
     59     71     83     1   111.5100476 526.347200
     62     58     65     1   112.3500484 533.878400
     62     74     80     1   111.5100476 526.347200
     65     68     77     1   111.5100476 526.347200
     68     77     86     1   107.9700462 569.024000
     71     83    231     1   107.9700462 569.024000
     74     80    202     1   107.9700462 569.024000
     80    202    193     1   112.4800480 524.673600
     83    231    222     1   112.4800480 524.673600
     87     88    100     1   111.0400475 552.288000
     87     91    103     1   111.0400475 552.288000
     87     94     97     1   111.0400475 552.288000
     88     87     91     1   112.3500484 533.878400
     88     87     94     1   112.3500484 533.878400
     88    100    112     1   111.5100476 526.347200
     91     87     94     1   112.3500484 533.878400
     91    103    109     1   111.5100476 526.347200
     94     97    106     1   111.5100476 526.347200
     97    106    115     1   107.9700462 569.024000
    100    112    289     1   107.9700462 569.024000
    103    109    260     1   107.9700462 569.024000
    109    260    251     1   112.4800480 524.673600
    112    289    280     1   112.4800480 524.673600
    116    117    129     1   111.0400475 552.288000
    116    120    132     1   111.0400475 552.288000
    116    123    126     1   111.0400475 552.288000
    117    116    120     1   112.3500484 533.878400
    117    116    123     1   112.3500484 533.878400
    117    129    141     1   111.5100476 526.347200
    120    116    123     1   112.3500484 533.878400
    120    132    138     1   111.5100476 526.347200
    123    126    135     1   111.5100476 526.347200
    126    135    144     1   107.9700462 569.024000
    129    141    347     1   107.9700462 569.024000
    132    138    318     1   107.9700462 569.024000
    138    318    309     1   112.4800480 524.673600
    141    347    338     1   112.4800480 524.673600
    145    146    158     1   111.0400475 552.288000
    145    149    161     1   111.0400475 552.288000
    145    152    155     1   111.0400475 552.288000
    146    145    149     1   112.3500484 533.878400
    146    145    152     1   112.3500484 533.878400
    146    158    170     1   111.5100476 526.347200
    149    145    152     1   112.3500484 533.878400
    149    161    167     1   111.5100476 526.347200
    152    155    164     1   111.5100476 526.347200
    155    164    173     1   107.9700462 569.024000
    158    170    405     1   107.9700462 569.024000
    161    167    376     1   107.9700462 569.024000
    167    376    367     1   112.4800480 524.673600
    170    405    396     1   112.4800480 524.673600
    174    175    187     1   111.0400475 552.288000
    174    178    190     1   111.0400475 552.288000
    174    181    184     1   111.0400475 552.288000
    175    174    178     1   112.3500484 533.878400
    175    174    181     1   112.3500484 533.878400
    175    187    199     1   111.5100476 526.347200
    178    174    181     1   112.3500484 533.878400
    178    190    196     1   111.5100476 526.347200
    181    184    193     1   111.5100476 526.347200
    184    193    202     1   107.9700462 569.024000
    187    199    463     1   107.9700462 569.024000
    190    196    434     1   107.9700462 569.024000
    196    434    425     1   112.4800480 524.673600
    199    463    454     1   112.4800480 524.673600
    203    204    216     1   111.0400475 552.288000
    203    207    219     1   111.0400475 552.288000
    203    210    213     1   111.0400475 552.288000
    204    203    207     1   112.3500484 533.878400
    204    203    210     1   112.3500484 533.878400
    204    216    228     1   111.5100476 526.347200
    207    203    210     1   112.3500484 533.878400
    207    219    225     1   111.5100476 526.347200
    210    213    222     1   111.5100476 526.347200
    213    222    231     1   107.9700462 569.024000
    216    228    521     1   107.9700462 569.024000
    219    225    492     1   107.9700462 569.024000
    225    492    483     1   112.4800480 524.673600
    228    521    512     1   112.4800480 524.673600
    232    233    245     1   111.0400475 552.288000
    232    236    248     1   111.0400475 552.288000
    232    239    242     1   111.0400475 552.288000
    233    232    236     1   112.3500484 533.878400
    233    232    239     1   112.3500484 533.878400
    233    245    257     1   111.5100476 526.347200
    236    232    239     1   112.3500484 533.878400
    236    248    254     1   111.5100476 526.347200
    239    242    251     1   111.5100476 526.347200
    242    251    260     1   107.9700462 569.024000
    245    257    579     1   107.9700462 569.024000
    248    254    550     1   107.9700462 569.024000
    254    550    541     1   112.4800480 524.673600
    257    579    570     1   112.4800480 524.673600
    261    262    274     1   111.0400475 552.288000
    261    265    277     1   111.0400475 552.288000
    261    268    271     1   111.0400475 552.288000
    262    261    265     1   112.3500484 533.878400
    262    261    268     1   112.3500484 533.878400
    262    274    286     1   111.5100476 526.347200
    265    261    268     1   112.3500484 533.878400
    265    277    283     1   111.5100476 526.347200
    268    271    280     1   111.5100476 526.347200
    271    280    289     1   107.9700462 569.024000
    274    286    637     1   107.9700462 569.024000
    277    283    608     1   107.9700462 569.024000
    283    608    599     1   112.4800480 524.673600
    286    637    628     1   112.4800480 524.673600
    290    291    303     1   111.0400475 552.288000
    290    294    306     1   111.0400475 552.288000
    290    297    300     1   111.0400475 552.288000
    291    290    294     1   112.3500484 533.878400
    291    290    297     1   112.3500484 533.878400
    291    303    315     1   111.5100476 526.347200
    294    290    297     1   112.3500484 533.878400
    294    306    312     1   111.5100476 526.347200
    297    300    309     1   111.5100476 526.347200
    300    309    318     1   107.9700462 569.024000
    303    315    695     1   107.9700462 569.024000
    306    312    666     1   107.9700462 569.024000
    312    666    657     1   112.4800480 524.673600
    315    695    686     1   112.4800480 524.673600
    319    320    332     1   111.0400475 552.288000
    319    323    335     1   111.0400475 552.288000
    319    326    329     1   111.0400475 552.288000
    320    319    323     1   112.3500484 533.878400
    320    319    326     1   112.3500484 533.878400
    320    332    344     1   111.5100476 526.347200
    323    319    326     1   112.3500484 533.878400
    323    335    341     1   111.5100476 526.347200
    326    329    338     1   111.5100476 526.347200
    329    338    347     1   107.9700462 569.024000
    332    344    753     1   107.9700462 569.024000
    335    341    724     1   107.9700462 569.024000
    341    724    715     1   112.4800480 524.673600
    344    753    744     1   112.4800480 524.673600
    348    349    361     1   111.0400475 552.288000
    348    352    364     1   111.0400475 552.288000
    348    355    358     1   111.0400475 552.288000
    349    348    352     1   112.3500484 533.878400
    349    348    355     1   112.3500484 533.878400
    349    361    373     1   111.5100476 526.347200
    352    348    355     1   112.3500484 533.878400
    352    364    370     1   111.5100476 526.347200
    355    358    367     1   111.5100476 526.347200
    358    367    376     1   107.9700462 569.024000
    361    373    811     1   107.9700462 569.024000
    364    370    782     1   107.9700462 569.024000
    370    782    773     1   112.4800480 524.673600
    373    811    802     1   112.4800480 524.673600
    377    378    390     1   111.0400475 552.288000
    377    381    393     1   111.0400475 552.288000
    377    384    387     1   111.0400475 552.288000
    378    377    381     1   112.3500484 533.878400
    378    377    384     1   112.3500484 533.878400
    378    390    402     1   111.5100476 526.347200
    381    377    384     1   112.3500484 533.878400
    381    393    399     1   111.5100476 526.347200
    384    387    396     1   111.5100476 526.347200
    387    396    405     1   107.9700462 569.024000
    390    402    869     1   107.9700462 569.024000
    393    399    840     1   107.9700462 569.024000
    399    840    831     1   112.4800480 524.673600
    402    869    860     1   112.4800480 524.673600
    406    407    419     1   111.0400475 552.288000
    406    410    422     1   111.0400475 552.288000
    406    413    416     1   111.0400475 552.288000
    407    406    410     1   112.3500484 533.878400
    407    406    413     1   112.3500484 533.878400
    407    419    431     1   111.5100476 526.347200
    410    406    413     1   112.3500484 533.878400
    410    422    428     1   111.5100476 526.347200
    413    416    425     1   111.5100476 526.347200
    416    425    434     1   107.9700462 569.024000
    419    431    927     1   107.9700462 569.024000
    422    428    898     1   107.9700462 569.024000
    428    898    889     1   112.4800480 524.673600
    431    927    918     1   112.4800480 524.673600
    435    436    448     1   111.0400475 552.288000
    435    439    451     1   111.0400475 552.288000
    435    442    445     1   111.0400475 552.288000
    436    435    439     1   112.3500484 533.878400
    436    435    442     1   112.3500484 533.878400
    436    448    460     1   111.5100476 526.347200
    439    435    442     1   112.3500484 533.878400
    439    451    457     1   111.5100476 526.347200
    442    445    454     1   111.5100476 526.347200
    445    454    463     1   107.9700462 569.024000
    448    460    985     1   107.9700462 569.024000
    451    457    956     1   107.9700462 569.024000
    457    956    947     1   112.4800480 524.673600
    460    985    976     1   112.4800480 524.673600
    464    465    477     1   111.0400475 552.288000
    464    468    480     1   111.0400475 552.288000
    464    471    474     1   111.0400475 552.288000
    465    464    468     1   112.3500484 533.878400
    465    464    471     1   112.3500484 533.878400
    465    477    489     1   111.5100476 526.347200
    468    464    471     1   112.3500484 533.878400
    468    480    486     1   111.5100476 526.347200
    471    474    483     1   111.5100476 526.347200
    474    483    492     1   107.9700462 569.024000
    477    489   1043     1   107.9700462 569.024000
    480    486   1014     1   107.9700462 569.024000
    486   1014   1005     1   112.4800480 524.673600
    489   1043   1034     1   112.4800480 524.673600
    493    494    506     1   111.0400475 552.288000
    493    497    509     1   111.0400475 552.288000
    493    500    503     1   111.0400475 552.288000
    494    493    497     1   112.3500484 533.878400
    494    493    500     1   112.3500484 533.878400
    494    506    518     1   111.5100476 526.347200
    497    493    500     1   112.3500484 533.878400
    497    509    515     1   111.5100476 526.347200
    500    503    512     1   111.5100476 526.347200
    503    512    521     1   107.9700462 569.024000
    506    518   1101     1   107.9700462 569.024000
    509    515   1072     1   107.9700462 569.024000
    515   1072   1063     1   112.4800480 524.673600
    518   1101   1092     1   112.4800480 524.673600
    522    523    535     1   111.0400475 552.288000
    522    526    538     1   111.0400475 552.288000
    522    529    532     1   111.0400475 552.288000
    523    522    526     1   112.3500484 533.878400
    523    522    529     1   112.3500484 533.878400
    523    535    547     1   111.5100476 526.347200
    526    522    529     1   112.3500484 533.878400
    526    538    544     1   111.5100476 526.347200
    529    532    541     1   111.5100476 526.347200
    532    541    550     1   107.9700462 569.024000
    535    547   1159     1   107.9700462 569.024000
    538    544   1130     1   107.9700462 569.024000
    544   1130   1121     1   112.4800480 524.673600
    547   1159   1150     1   112.4800480 524.673600
    551    552    564     1   111.0400475 552.288000
    551    555    567     1   111.0400475 552.288000
    551    558    561     1   111.0400475 552.288000
    552    551    555     1   112.3500484 533.878400
    552    551    558     1   112.3500484 533.878400
    552    564    576     1   111.5100476 526.347200
    555    551    558     1   112.3500484 533.878400
    555    567    573     1   111.5100476 526.347200
    558    561    570     1   111.5100476 526.347200
    561    570    579     1   107.9700462 569.024000
    564    576   1217     1   107.9700462 569.024000
    567    573   1188     1   107.9700462 569.024000
    573   1188   1179     1   112.4800480 524.673600
    576   1217   1208     1   112.4800480 524.673600
    580    581    593     1   111.0400475 552.288000
    580    584    596     1   111.0400475 552.288000
    580    587    590     1   111.0400475 552.288000
    581    580    584     1   112.3500484 533.878400
    581    580    587     1   112.3500484 533.878400
    581    593    605     1   111.5100476 526.347200
    584    580    587     1   112.3500484 533.878400
    584    596    602     1   111.5100476 526.347200
    587    590    599     1   111.5100476 526.347200
    590    599    608     1   107.9700462 569.024000
    593    605   1275     1   107.9700462 569.024000
    596    602   1246     1   107.9700462 569.024000
    602   1246   1237     1   112.4800480 524.673600
    605   1275   1266     1   112.4800480 524.673600
    609    610    622     1   111.0400475 552.288000
    609    613    625     1   111.0400475 552.288000
    609    616    619     1   111.0400475 552.288000
    610    609    613     1   112.3500484 533.878400
    610    609    616     1   112.3500484 533.878400
    610    622    634     1   111.5100476 526.347200
    613    609    616     1   112.3500484 533.878400
    613    625    631     1   111.5100476 526.347200
    616    619    628     1   111.5100476 526.347200
    619    628    637     1   107.9700462 569.024000
    622    634   1333     1   107.9700462 569.024000
    625    631   1304     1   107.9700462 569.024000
    631   1304   1295     1   112.4800480 524.673600
    634   1333   1324     1   112.4800480 524.673600
    638    639    651     1   111.0400475 552.288000
    638    642    654     1   111.0400475 552.288000
    638    645    648     1   111.0400475 552.288000
    639    638    642     1   112.3500484 533.878400
    639    638    645     1   112.3500484 533.878400
    639    651    663     1   111.5100476 526.347200
    642    638    645     1   112.3500484 533.878400
    642    654    660     1   111.5100476 526.347200
    645    648    657     1   111.5100476 526.347200
    648    657    666     1   107.9700462 569.024000
    651    663   1391     1   107.9700462 569.024000
    654    660   1362     1   107.9700462 569.024000
    660   1362   1353     1   112.4800480 524.673600
    663   1391   1382     1   112.4800480 524.673600
    667    668    680     1   111.0400475 552.288000
    667    671    683     1   111.0400475 552.288000
    667    674    677     1   111.0400475 552.288000
    668    667    671     1   112.3500484 533.878400
    668    667    674     1   112.3500484 533.878400
    668    680    692     1   111.5100476 526.347200
    671    667    674     1   112.3500484 533.878400
    671    683    689     1   111.5100476 526.347200
    674    677    686     1   111.5100476 526.347200
    677    686    695     1   107.9700462 569.024000
    680    692   1449     1   107.9700462 569.024000
    683    689   1420     1   107.9700462 569.024000
    689   1420   1411     1   112.4800480 524.673600
    692   1449   1440     1   112.4800480 524.673600
    696    697    709     1   111.0400475 552.288000
    696    700    712     1   111.0400475 552.288000
    696    703    706     1   111.0400475 552.288000
    697    696    700     1   112.3500484 533.878400
    697    696    703     1   112.3500484 533.878400
    697    709    721     1   111.5100476 526.347200
    700    696    703     1   112.3500484 533.878400
    700    712    718     1   111.5100476 526.347200
    703    706    715     1   111.5100476 526.347200
    706    715    724     1   107.9700462 569.024000
    709    721   1507     1   107.9700462 569.024000
    712    718   1478     1   107.9700462 569.024000
    718   1478   1469     1   112.4800480 524.673600
    721   1507   1498     1   112.4800480 524.673600
    725    726    738     1   111.0400475 552.288000
    725    729    741     1   111.0400475 552.288000
    725    732    735     1   111.0400475 552.288000
    726    725    729     1   112.3500484 533.878400
    726    725    732     1   112.3500484 533.878400
    726    738    750     1   111.5100476 526.347200
    729    725    732     1   112.3500484 533.878400
    729    741    747     1   111.5100476 526.347200
    732    735    744     1   111.5100476 526.347200
    735    744    753     1   107.9700462 569.024000
    738    750   1565     1   107.9700462 569.024000
    741    747   1536     1   107.9700462 569.024000
    747   1536   1527     1   112.4800480 524.673600
    750   1565   1556     1   112.4800480 524.673600
    754    755    767     1   111.0400475 552.288000
    754    758    770     1   111.0400475 552.288000
    754    761    764     1   111.0400475 552.288000
    755    754    758     1   112.3500484 533.878400
    755    754    761     1   112.3500484 533.878400
    755    767    779     1   111.5100476 526.347200
    758    754    761     1   112.3500484 533.878400
    758    770    776     1   111.5100476 526.347200
    761    764    773     1   111.5100476 526.347200
    764    773    782     1   107.9700462 569.024000
    767    779   1623     1   107.9700462 569.024000
    770    776   1594     1   107.9700462 569.024000
    776   1594   1585     1   112.4800480 524.673600
    779   1623   1614     1   112.4800480 524.673600
    783    784    796     1   111.0400475 552.288000
    783    787    799     1   111.0400475 552.288000
    783    790    793     1   111.0400475 552.288000
    784    783    787     1   112.3500484 533.878400
    784    783    790     1   112.3500484 533.878400
    784    796    808     1   111.5100476 526.347200
    787    783    790     1   112.3500484 533.878400
    787    799    805     1   111.5100476 526.347200
    790    793    802     1   111.5100476 526.347200
    793    802    811     1   107.9700462 569.024000
    796    808   1681     1   107.9700462 569.024000
    799    805   1652     1   107.9700462 569.024000
    805   1652   1643     1   112.4800480 524.673600
    808   1681   1672     1   112.4800480 524.673600
    812    813    825     1   111.0400475 552.288000
    812    816    828     1   111.0400475 552.288000
    812    819    822     1   111.0400475 552.288000
    813    812    816     1   112.3500484 533.878400
    813    812    819     1   112.3500484 533.878400
    813    825    837     1   111.5100476 526.347200
    816    812    819     1   112.3500484 533.878400
    816    828    834     1   111.5100476 526.347200
    819    822    831     1   111.5100476 526.347200
    822    831    840     1   107.9700462 569.024000
    825    837   1739     1   107.9700462 569.024000
    828    834   1710     1   107.9700462 569.024000
    834   1710   1701     1   112.4800480 524.673600
    837   1739   1730     1   112.4800480 524.673600
    841    842    854     1   111.0400475 552.288000
    841    845    857     1   111.0400475 552.288000
    841    848    851     1   111.0400475 552.288000
    842    841    845     1   112.3500484 533.878400
    842    841    848     1   112.3500484 533.878400
    842    854    866     1   111.5100476 526.347200
    845    841    848     1   112.3500484 533.878400
    845    857    863     1   111.5100476 526.347200
    848    851    860     1   111.5100476 526.347200
    851    860    869     1   107.9700462 569.024000
    854    866   1797     1   107.9700462 569.024000
    857    863   1768     1   107.9700462 569.024000
    863   1768   1759     1   112.4800480 524.673600
    866   1797   1788     1   112.4800480 524.673600
    870    871    883     1   111.0400475 552.288000
    870    874    886     1   111.0400475 552.288000
    870    877    880     1   111.0400475 552.288000
    871    870    874     1   112.3500484 533.878400
    871    870    877     1   112.3500484 533.878400
    871    883    895     1   111.5100476 526.347200
    874    870    877     1   112.3500484 533.878400
    874    886    892     1   111.5100476 526.347200
    877    880    889     1   111.5100476 526.347200
    880    889    898     1   107.9700462 569.024000
    883    895   1831     1   107.9700462 569.024000
    886    892   1808     1   107.9700462 569.024000
    892   1808   1804     1   112.4800480 524.673600
    895   1831   1827     1   112.4800480 524.673600
    899    900    912     1   111.0400475 552.288000
    899    903    915     1   111.0400475 552.288000
    899    906    909     1   111.0400475 552.288000
    900    899    903     1   112.3500484 533.878400
    900    899    906     1   112.3500484 533.878400
    900    912    924     1   111.5100476 526.347200
    903    899    906     1   112.3500484 533.878400
    903    915    921     1   111.5100476 526.347200
    906    909    918     1   111.5100476 526.347200
    909    918    927     1   107.9700462 569.024000
    912    924   1877     1   107.9700462 569.024000
    915    921   1854     1   107.9700462 569.024000
    921   1854   1850     1   112.4800480 524.673600
    924   1877   1873     1   112.4800480 524.673600
    928    929    941     1   111.0400475 552.288000
    928    932    944     1   111.0400475 552.288000
    928    935    938     1   111.0400475 552.288000
    929    928    932     1   112.3500484 533.878400
    929    928    935     1   112.3500484 533.878400
    929    941    953     1   111.5100476 526.347200
    932    928    935     1   112.3500484 533.878400
    932    944    950     1   111.5100476 526.347200
    935    938    947     1   111.5100476 526.347200
    938    947    956     1   107.9700462 569.024000
    941    953   1923     1   107.9700462 569.024000
    944    950   1900     1   107.9700462 569.024000
    950   1900   1896     1   112.4800480 524.673600
    953   1923   1919     1   112.4800480 524.673600
    957    958    970     1   111.0400475 552.288000
    957    961    973     1   111.0400475 552.288000
    957    964    967     1   111.0400475 552.288000
    958    957    961     1   112.3500484 533.878400
    958    957    964     1   112.3500484 533.878400
    958    970    982     1   111.5100476 526.347200
    961    957    964     1   112.3500484 533.878400
    961    973    979     1   111.5100476 526.347200
    964    967    976     1   111.5100476 526.347200
    967    976    985     1   107.9700462 569.024000
    970    982   1969     1   107.9700462 569.024000
    973    979   1946     1   107.9700462 569.024000
    979   1946   1942     1   112.4800480 524.673600
    982   1969   1965     1   112.4800480 524.673600
    986    987    999     1   111.0400475 552.288000
    986    990   1002     1   111.0400475 552.288000
    986    993    996     1   111.0400475 552.288000
    987    986    990     1   112.3500484 533.878400
    987    986    993     1   112.3500484 533.878400
    987    999   1011     1   111.5100476 526.347200
    990    986    993     1   112.3500484 533.878400
    990   1002   1008     1   111.5100476 526.347200
    993    996   1005     1   111.5100476 526.347200
    996   1005   1014     1   107.9700462 569.024000
    999   1011   2015     1   107.9700462 569.024000
   1002   1008   1992     1   107.9700462 569.024000
   1008   1992   1988     1   112.4800480 524.673600
   1011   2015   2011     1   112.4800480 524.673600
   1015   1016   1028     1   111.0400475 552.288000
   1015   1019   1031     1   111.0400475 552.288000
   1015   1022   1025     1   111.0400475 552.288000
   1016   1015   1019     1   112.3500484 533.878400
   1016   1015   1022     1   112.3500484 533.878400
   1016   1028   1040     1   111.5100476 526.347200
   1019   1015   1022     1   112.3500484 533.878400
   1019   1031   1037     1   111.5100476 526.347200
   1022   1025   1034     1   111.5100476 526.347200
   1025   1034   1043     1   107.9700462 569.024000
   1028   1040   2061     1   107.9700462 569.024000
   1031   1037   2038     1   107.9700462 569.024000
   1037   2038   2034     1   112.4800480 524.673600
   1040   2061   2057     1   112.4800480 524.673600
   1044   1045   1057     1   111.0400475 552.288000
   1044   1048   1060     1   111.0400475 552.288000
   1044   1051   1054     1   111.0400475 552.288000
   1045   1044   1048     1   112.3500484 533.878400
   1045   1044   1051     1   112.3500484 533.878400
   1045   1057   1069     1   111.5100476 526.347200
   1048   1044   1051     1   112.3500484 533.878400
   1048   1060   1066     1   111.5100476 526.347200
   1051   1054   1063     1   111.5100476 526.347200
   1054   1063   1072     1   107.9700462 569.024000
   1057   1069   2107     1   107.9700462 569.024000
   1060   1066   2084     1   107.9700462 569.024000
   1066   2084   2080     1   112.4800480 524.673600
   1069   2107   2103     1   112.4800480 524.673600
   1073   1074   1086     1   111.0400475 552.288000
   1073   1077   1089     1   111.0400475 552.288000
   1073   1080   1083     1   111.0400475 552.288000
   1074   1073   1077     1   112.3500484 533.878400
   1074   1073   1080     1   112.3500484 533.878400
   1074   1086   1098     1   111.5100476 526.347200
   1077   1073   1080     1   112.3500484 533.878400
   1077   1089   1095     1   111.5100476 526.347200
   1080   1083   1092     1   111.5100476 526.347200
   1083   1092   1101     1   107.9700462 569.024000
   1086   1098   2153     1   107.9700462 569.024000
   1089   1095   2130     1   107.9700462 569.024000
   1095   2130   2126     1   112.4800480 524.673600
   1098   2153   2149     1   112.4800480 524.673600
   1102   1103   1115     1   111.0400475 552.288000
   1102   1106   1118     1   111.0400475 552.288000
   1102   1109   1112     1   111.0400475 552.288000
   1103   1102   1106     1   112.3500484 533.878400
   1103   1102   1109     1   112.3500484 533.878400
   1103   1115   1127     1   111.5100476 526.347200
   1106   1102   1109     1   112.3500484 533.878400
   1106   1118   1124     1   111.5100476 526.347200
   1109   1112   1121     1   111.5100476 526.347200
   1112   1121   1130     1   107.9700462 569.024000
   1115   1127   2199     1   107.9700462 569.024000
   1118   1124   2176     1   107.9700462 569.024000
   1124   2176   2172     1   112.4800480 524.673600
   1127   2199   2195     1   112.4800480 524.673600
   1131   1132   1144     1   111.0400475 552.288000
   1131   1135   1147     1   111.0400475 552.288000
   1131   1138   1141     1   111.0400475 552.288000
   1132   1131   1135     1   112.3500484 533.878400
   1132   1131   1138     1   112.3500484 533.878400
   1132   1144   1156     1   111.5100476 526.347200
   1135   1131   1138     1   112.3500484 533.878400
   1135   1147   1153     1   111.5100476 526.347200
   1138   1141   1150     1   111.5100476 526.347200
   1141   1150   1159     1   107.9700462 569.024000
   1144   1156   2245     1   107.9700462 569.024000
   1147   1153   2222     1   107.9700462 569.024000
   1153   2222   2218     1   112.4800480 524.673600
   1156   2245   2241     1   112.4800480 524.673600
   1160   1161   1173     1   111.0400475 552.288000
   1160   1164   1176     1   111.0400475 552.288000
   1160   1167   1170     1   111.0400475 552.288000
   1161   1160   1164     1   112.3500484 533.878400
   1161   1160   1167     1   112.3500484 533.878400
   1161   1173   1185     1   111.5100476 526.347200
   1164   1160   1167     1   112.3500484 533.878400
   1164   1176   1182     1   111.5100476 526.347200
   1167   1170   1179     1   111.5100476 526.347200
   1170   1179   1188     1   107.9700462 569.024000
   1173   1185   2291     1   107.9700462 569.024000
   1176   1182   2268     1   107.9700462 569.024000
   1182   2268   2264     1   112.4800480 524.673600
   1185   2291   2287     1   112.4800480 524.673600
   1189   1190   1202     1   111.0400475 552.288000
   1189   1193   1205     1   111.0400475 552.288000
   1189   1196   1199     1   111.0400475 552.288000
   1190   1189   1193     1   112.3500484 533.878400
   1190   1189   1196     1   112.3500484 533.878400
   1190   1202   1214     1   111.5100476 526.347200
   1193   1189   1196     1   112.3500484 533.878400
   1193   1205   1211     1   111.5100476 526.347200
   1196   1199   1208     1   111.5100476 526.347200
   1199   1208   1217     1   107.9700462 569.024000
   1202   1214   2337     1   107.9700462 569.024000
   1205   1211   2314     1   107.9700462 569.024000
   1211   2314   2310     1   112.4800480 524.673600
   1214   2337   2333     1   112.4800480 524.673600
   1218   1219   1231     1   111.0400475 552.288000
   1218   1222   1234     1   111.0400475 552.288000
   1218   1225   1228     1   111.0400475 552.288000
   1219   1218   1222     1   112.3500484 533.878400
   1219   1218   1225     1   112.3500484 533.878400
   1219   1231   1243     1   111.5100476 526.347200
   1222   1218   1225     1   112.3500484 533.878400
   1222   1234   1240     1   111.5100476 526.347200
   1225   1228   1237     1   111.5100476 526.347200
   1228   1237   1246     1   107.9700462 569.024000
   1231   1243   2383     1   107.9700462 569.024000
   1234   1240   2360     1   107.9700462 569.024000
   1240   2360   2356     1   112.4800480 524.673600
   1243   2383   2379     1   112.4800480 524.673600
   1247   1248   1260     1   111.0400475 552.288000
   1247   1251   1263     1   111.0400475 552.288000
   1247   1254   1257     1   111.0400475 552.288000
   1248   1247   1251     1   112.3500484 533.878400
   1248   1247   1254     1   112.3500484 533.878400
   1248   1260   1272     1   111.5100476 526.347200
   1251   1247   1254     1   112.3500484 533.878400
   1251   1263   1269     1   111.5100476 526.347200
   1254   1257   1266     1   111.5100476 526.347200
   1257   1266   1275     1   107.9700462 569.024000
   1260   1272   2429     1   107.9700462 569.024000
   1263   1269   2406     1   107.9700462 569.024000
   1269   2406   2402     1   112.4800480 524.673600
   1272   2429   2425     1   112.4800480 524.673600
   1276   1277   1289     1   111.0400475 552.288000
   1276   1280   1292     1   111.0400475 552.288000
   1276   1283   1286     1   111.0400475 552.288000
   1277   1276   1280     1   112.3500484 533.878400
   1277   1276   1283     1   112.3500484 533.878400
   1277   1289   1301     1   111.5100476 526.347200
   1280   1276   1283     1   112.3500484 533.878400
   1280   1292   1298     1   111.5100476 526.347200
   1283   1286   1295     1   111.5100476 526.347200
   1286   1295   1304     1   107.9700462 569.024000
   1289   1301   2475     1   107.9700462 569.024000
   1292   1298   2452     1   107.9700462 569.024000
   1298   2452   2448     1   112.4800480 524.673600
   1301   2475   2471     1   112.4800480 524.673600
   1305   1306   1318     1   111.0400475 552.288000
   1305   1309   1321     1   111.0400475 552.288000
   1305   1312   1315     1   111.0400475 552.288000
   1306   1305   1309     1   112.3500484 533.878400
   1306   1305   1312     1   112.3500484 533.878400
   1306   1318   1330     1   111.5100476 526.347200
   1309   1305   1312     1   112.3500484 533.878400
   1309   1321   1327     1   111.5100476 526.347200
   1312   1315   1324     1   111.5100476 526.347200
   1315   1324   1333     1   107.9700462 569.024000
   1318   1330   2521     1   107.9700462 569.024000
   1321   1327   2498     1   107.9700462 569.024000
   1327   2498   2494     1   112.4800480 524.673600
   1330   2521   2517     1   112.4800480 524.673600
   1334   1335   1347     1   111.0400475 552.288000
   1334   1338   1350     1   111.0400475 552.288000
   1334   1341   1344     1   111.0400475 552.288000
   1335   1334   1338     1   112.3500484 533.878400
   1335   1334   1341     1   112.3500484 533.878400
   1335   1347   1359     1   111.5100476 526.347200
   1338   1334   1341     1   112.3500484 533.878400
   1338   1350   1356     1   111.5100476 526.347200
   1341   1344   1353     1   111.5100476 526.347200
   1344   1353   1362     1   107.9700462 569.024000
   1347   1359   2567     1   107.9700462 569.024000
   1350   1356   2544     1   107.9700462 569.024000
   1356   2544   2540     1   112.4800480 524.673600
   1359   2567   2563     1   112.4800480 524.673600
   1363   1364   1376     1   111.0400475 552.288000
   1363   1367   1379     1   111.0400475 552.288000
   1363   1370   1373     1   111.0400475 552.288000
   1364   1363   1367     1   112.3500484 533.878400
   1364   1363   1370     1   112.3500484 533.878400
   1364   1376   1388     1   111.5100476 526.347200
   1367   1363   1370     1   112.3500484 533.878400
   1367   1379   1385     1   111.5100476 526.347200
   1370   1373   1382     1   111.5100476 526.347200
   1373   1382   1391     1   107.9700462 569.024000
   1376   1388   2613     1   107.9700462 569.024000
   1379   1385   2590     1   107.9700462 569.024000
   1385   2590   2586     1   112.4800480 524.673600
   1388   2613   2609     1   112.4800480 524.673600
   1392   1393   1405     1   111.0400475 552.288000
   1392   1396   1408     1   111.0400475 552.288000
   1392   1399   1402     1   111.0400475 552.288000
   1393   1392   1396     1   112.3500484 533.878400
   1393   1392   1399     1   112.3500484 533.878400
   1393   1405   1417     1   111.5100476 526.347200
   1396   1392   1399     1   112.3500484 533.878400
   1396   1408   1414     1   111.5100476 526.347200
   1399   1402   1411     1   111.5100476 526.347200
   1402   1411   1420     1   107.9700462 569.024000
   1405   1417   2659     1   107.9700462 569.024000
   1408   1414   2636     1   107.9700462 569.024000
   1414   2636   2632     1   112.4800480 524.673600
   1417   2659   2655     1   112.4800480 524.673600
   1421   1422   1434     1   111.0400475 552.288000
   1421   1425   1437     1   111.0400475 552.288000
   1421   1428   1431     1   111.0400475 552.288000
   1422   1421   1425     1   112.3500484 533.878400
   1422   1421   1428     1   112.3500484 533.878400
   1422   1434   1446     1   111.5100476 526.347200
   1425   1421   1428     1   112.3500484 533.878400
   1425   1437   1443     1   111.5100476 526.347200
   1428   1431   1440     1   111.5100476 526.347200
   1431   1440   1449     1   107.9700462 569.024000
   1434   1446   2705     1   107.9700462 569.024000
   1437   1443   2682     1   107.9700462 569.024000
   1443   2682   2678     1   112.4800480 524.673600
   1446   2705   2701     1   112.4800480 524.673600
   1450   1451   1463     1   111.0400475 552.288000
   1450   1454   1466     1   111.0400475 552.288000
   1450   1457   1460     1   111.0400475 552.288000
   1451   1450   1454     1   112.3500484 533.878400
   1451   1450   1457     1   112.3500484 533.878400
   1451   1463   1475     1   111.5100476 526.347200
   1454   1450   1457     1   112.3500484 533.878400
   1454   1466   1472     1   111.5100476 526.347200
   1457   1460   1469     1   111.5100476 526.347200
   1460   1469   1478     1   107.9700462 569.024000
   1463   1475   2751     1   107.9700462 569.024000
   1466   1472   2728     1   107.9700462 569.024000
   1472   2728   2724     1   112.4800480 524.673600
   1475   2751   2747     1   112.4800480 524.673600
   1479   1480   1492     1   111.0400475 552.288000
   1479   1483   1495     1   111.0400475 552.288000
   1479   1486   1489     1   111.0400475 552.288000
   1480   1479   1483     1   112.3500484 533.878400
   1480   1479   1486     1   112.3500484 533.878400
   1480   1492   1504     1   111.5100476 526.347200
   1483   1479   1486     1   112.3500484 533.878400
   1483   1495   1501     1   111.5100476 526.347200
   1486   1489   1498     1   111.5100476 526.347200
   1489   1498   1507     1   107.9700462 569.024000
   1492   1504   2797     1   107.9700462 569.024000
   1495   1501   2774     1   107.9700462 569.024000
   1501   2774   2770     1   112.4800480 524.673600
   1504   2797   2793     1   112.4800480 524.673600
   1508   1509   1521     1   111.0400475 552.288000
   1508   1512   1524     1   111.0400475 552.288000
   1508   1515   1518     1   111.0400475 552.288000
   1509   1508   1512     1   112.3500484 533.878400
   1509   1508   1515     1   112.3500484 533.878400
   1509   1521   1533     1   111.5100476 526.347200
   1512   1508   1515     1   112.3500484 533.878400
   1512   1524   1530     1   111.5100476 526.347200
   1515   1518   1527     1   111.5100476 526.347200
   1518   1527   1536     1   107.9700462 569.024000
   1521   1533   2843     1   107.9700462 569.024000
   1524   1530   2820     1   107.9700462 569.024000
   1530   2820   2816     1   112.4800480 524.673600
   1533   2843   2839     1   112.4800480 524.673600
   1537   1538   1550     1   111.0400475 552.288000
   1537   1541   1553     1   111.0400475 552.288000
   1537   1544   1547     1   111.0400475 552.288000
   1538   1537   1541     1   112.3500484 533.878400
   1538   1537   1544     1   112.3500484 533.878400
   1538   1550   1562     1   111.5100476 526.347200
   1541   1537   1544     1   112.3500484 533.878400
   1541   1553   1559     1   111.5100476 526.347200
   1544   1547   1556     1   111.5100476 526.347200
   1547   1556   1565     1   107.9700462 569.024000
   1550   1562   2889     1   107.9700462 569.024000
   1553   1559   2866     1   107.9700462 569.024000
   1559   2866   2862     1   112.4800480 524.673600
   1562   2889   2885     1   112.4800480 524.673600
   1566   1567   1579     1   111.0400475 552.288000
   1566   1570   1582     1   111.0400475 552.288000
   1566   1573   1576     1   111.0400475 552.288000
   1567   1566   1570     1   112.3500484 533.878400
   1567   1566   1573     1   112.3500484 533.878400
   1567   1579   1591     1   111.5100476 526.347200
   1570   1566   1573     1   112.3500484 533.878400
   1570   1582   1588     1   111.5100476 526.347200
   1573   1576   1585     1   111.5100476 526.347200
   1576   1585   1594     1   107.9700462 569.024000
   1579   1591   2935     1   107.9700462 569.024000
   1582   1588   2912     1   107.9700462 569.024000
   1588   2912   2908     1   112.4800480 524.673600
   1591   2935   2931     1   112.4800480 524.673600
   1595   1596   1608     1   111.0400475 552.288000
   1595   1599   1611     1   111.0400475 552.288000
   1595   1602   1605     1   111.0400475 552.288000
   1596   1595   1599     1   112.3500484 533.878400
   1596   1595   1602     1   112.3500484 533.878400
   1596   1608   1620     1   111.5100476 526.347200
   1599   1595   1602     1   112.3500484 533.878400
   1599   1611   1617     1   111.5100476 526.347200
   1602   1605   1614     1   111.5100476 526.347200
   1605   1614   1623     1   107.9700462 569.024000
   1608   1620   2981     1   107.9700462 569.024000
   1611   1617   2958     1   107.9700462 569.024000
   1617   2958   2954     1   112.4800480 524.673600
   1620   2981   2977     1   112.4800480 524.673600
   1624   1625   1637     1   111.0400475 552.288000
   1624   1628   1640     1   111.0400475 552.288000
   1624   1631   1634     1   111.0400475 552.288000
   1625   1624   1628     1   112.3500484 533.878400
   1625   1624   1631     1   112.3500484 533.878400
   1625   1637   1649     1   111.5100476 526.347200
   1628   1624   1631     1   112.3500484 533.878400
   1628   1640   1646     1   111.5100476 526.347200
   1631   1634   1643     1   111.5100476 526.347200
   1634   1643   1652     1   107.9700462 569.024000
   1637   1649   3027     1   107.9700462 569.024000
   1640   1646   3004     1   107.9700462 569.024000
   1646   3004   3000     1   112.4800480 524.673600
   1649   3027   3023     1   112.4800480 524.673600
   1653   1654   1666     1   111.0400475 552.288000
   1653   1657   1669     1   111.0400475 552.288000
   1653   1660   1663     1   111.0400475 552.288000
   1654   1653   1657     1   112.3500484 533.878400
   1654   1653   1660     1   112.3500484 533.878400
   1654   1666   1678     1   111.5100476 526.347200
   1657   1653   1660     1   112.3500484 533.878400
   1657   1669   1675     1   111.5100476 526.347200
   1660   1663   1672     1   111.5100476 526.347200
   1663   1672   1681     1   107.9700462 569.024000
   1666   1678   3073     1   107.9700462 569.024000
   1669   1675   3050     1   107.9700462 569.024000
   1675   3050   3046     1   112.4800480 524.673600
   1678   3073   3069     1   112.4800480 524.673600
   1682   1683   1695     1   111.0400475 552.288000
   1682   1686   1698     1   111.0400475 552.288000
   1682   1689   1692     1   111.0400475 552.288000
   1683   1682   1686     1   112.3500484 533.878400
   1683   1682   1689     1   112.3500484 533.878400
   1683   1695   1707     1   111.5100476 526.347200
   1686   1682   1689     1   112.3500484 533.878400
   1686   1698   1704     1   111.5100476 526.347200
   1689   1692   1701     1   111.5100476 526.347200
   1692   1701   1710     1   107.9700462 569.024000
   1695   1707   3119     1   107.9700462 569.024000
   1698   1704   3096     1   107.9700462 569.024000
   1704   3096   3092     1   112.4800480 524.673600
   1707   3119   3115     1   112.4800480 524.673600
   1711   1712   1724     1   111.0400475 552.288000
   1711   1715   1727     1   111.0400475 552.288000
   1711   1718   1721     1   111.0400475 552.288000
   1712   1711   1715     1   112.3500484 533.878400
   1712   1711   1718     1   112.3500484 533.878400
   1712   1724   1736     1   111.5100476 526.347200
   1715   1711   1718     1   112.3500484 533.878400
   1715   1727   1733     1   111.5100476 526.347200
   1718   1721   1730     1   111.5100476 526.347200
   1721   1730   1739     1   107.9700462 569.024000
   1724   1736   3165     1   107.9700462 569.024000
   1727   1733   3142     1   107.9700462 569.024000
   1733   3142   3138     1   112.4800480 524.673600
   1736   3165   3161     1   112.4800480 524.673600
   1740   1741   1753     1   111.0400475 552.288000
   1740   1744   1756     1   111.0400475 552.288000
   1740   1747   1750     1   111.0400475 552.288000
   1741   1740   1744     1   112.3500484 533.878400
   1741   1740   1747     1   112.3500484 533.878400
   1741   1753   1765     1   111.5100476 526.347200
   1744   1740   1747     1   112.3500484 533.878400
   1744   1756   1762     1   111.5100476 526.347200
   1747   1750   1759     1   111.5100476 526.347200
   1750   1759   1768     1   107.9700462 569.024000
   1753   1765   3211     1   107.9700462 569.024000
   1756   1762   3188     1   107.9700462 569.024000
   1762   3188   3184     1   112.4800480 524.673600
   1765   3211   3207     1   112.4800480 524.673600
   1769   1770   1782     1   111.0400475 552.288000
   1769   1773   1785     1   111.0400475 552.288000
   1769   1776   1779     1   111.0400475 552.288000
   1770   1769   1773     1   112.3500484 533.878400
   1770   1769   1776     1   112.3500484 533.878400
   1770   1782   1794     1   111.5100476 526.347200
   1773   1769   1776     1   112.3500484 533.878400
   1773   1785   1791     1   111.5100476 526.347200
   1776   1779   1788     1   111.5100476 526.347200
   1779   1788   1797     1   107.9700462 569.024000
   1782   1794   3257     1   107.9700462 569.024000
   1785   1791   3234     1   107.9700462 569.024000
   1791   3234   3230     1   112.4800480 524.673600
   1794   3257   3253     1   112.4800480 524.673600
   1798   1799   1802     1   111.5100476 526.347200
   1798   1799   1811     1   110.1900474 564.840000
   1798   1812   1818     1   110.1900474 564.840000
   1798   1820   1804     1   112.4800480 524.673600
   1799   1798   1812     1   111.5100476 526.347200
   1799   1798   1820     1   107.9700462 569.024000
   1799   1802   1803     1   111.5100476 526.347200
   1799   1802   1810     1   110.1900474 564.840000
   1802   1799   1811     1   110.1900474 564.840000
   1802   1803   1804     1   111.5100476 526.347200
   1802   1803   1809     1   110.1900474 564.840000
   1803   1802   1810     1   110.1900474 564.840000
   1803   1804   1808     1   107.9700462 569.024000
   1803   1804   1820     1   107.9700462 569.024000
   1804   1803   1809     1   110.1900474 564.840000
   1808   1804   1820     1   108.2900466 608.353600
   1812   1798   1820     1   107.9700462 569.024000
   1821   1822   1825     1   111.5100476 526.347200
   1821   1822   1834     1   110.1900474 564.840000
   1821   1835   1841     1   110.1900474 564.840000
   1821   1843   1827     1   112.4800480 524.673600
   1822   1825   1826     1   111.5100476 526.347200
   1822   1825   1833     1   110.1900474 564.840000
   1822   1821   1835     1   111.5100476 526.347200
   1822   1821   1843     1   107.9700462 569.024000
   1825   1826   1827     1   111.5100476 526.347200
   1825   1826   1832     1   110.1900474 564.840000
   1825   1822   1834     1   110.1900474 564.840000
   1826   1827   1831     1   107.9700462 569.024000
   1826   1827   1843     1   107.9700462 569.024000
   1826   1825   1833     1   110.1900474 564.840000
   1827   1826   1832     1   110.1900474 564.840000
   1831   1827   1843     1   108.2900466 608.353600
   1835   1821   1843     1   107.9700462 569.024000
   1844   1845   1848     1   111.5100476 526.347200
   1844   1845   1857     1   110.1900474 564.840000
   1844   1858   1864     1   110.1900474 564.840000
   1844   1866   1850     1   112.4800480 524.673600
   1845   1844   1858     1   111.5100476 526.347200
   1845   1844   1866     1   107.9700462 569.024000
   1845   1848   1849     1   111.5100476 526.347200
   1845   1848   1856     1   110.1900474 564.840000
   1848   1845   1857     1   110.1900474 564.840000
   1848   1849   1850     1   111.5100476 526.347200
   1848   1849   1855     1   110.1900474 564.840000
   1849   1848   1856     1   110.1900474 564.840000
   1849   1850   1854     1   107.9700462 569.024000
   1849   1850   1866     1   107.9700462 569.024000
   1850   1849   1855     1   110.1900474 564.840000
   1854   1850   1866     1   108.2900466 608.353600
   1858   1844   1866     1   107.9700462 569.024000
   1867   1868   1871     1   111.5100476 526.347200
   1867   1868   1880     1   110.1900474 564.840000
   1867   1881   1887     1   110.1900474 564.840000
   1867   1889   1873     1   112.4800480 524.673600
   1868   1871   1872     1   111.5100476 526.347200
   1868   1871   1879     1   110.1900474 564.840000
   1868   1867   1881     1   111.5100476 526.347200
   1868   1867   1889     1   107.9700462 569.024000
   1871   1872   1873     1   111.5100476 526.347200
   1871   1872   1878     1   110.1900474 564.840000
   1871   1868   1880     1   110.1900474 564.840000
   1872   1873   1877     1   107.9700462 569.024000
   1872   1873   1889     1   107.9700462 569.024000
   1872   1871   1879     1   110.1900474 564.840000
   1873   1872   1878     1   110.1900474 564.840000
   1877   1873   1889     1   108.2900466 608.353600
   1881   1867   1889     1   107.9700462 569.024000
   1890   1891   1894     1   111.5100476 526.347200
   1890   1891   1903     1   110.1900474 564.840000
   1890   1904   1910     1   110.1900474 564.840000
   1890   1912   1896     1   112.4800480 524.673600
   1891   1890   1904     1   111.5100476 526.347200
   1891   1890   1912     1   107.9700462 569.024000
   1891   1894   1895     1   111.5100476 526.347200
   1891   1894   1902     1   110.1900474 564.840000
   1894   1891   1903     1   110.1900474 564.840000
   1894   1895   1896     1   111.5100476 526.347200
   1894   1895   1901     1   110.1900474 564.840000
   1895   1894   1902     1   110.1900474 564.840000
   1895   1896   1900     1   107.9700462 569.024000
   1895   1896   1912     1   107.9700462 569.024000
   1896   1895   1901     1   110.1900474 564.840000
   1900   1896   1912     1   108.2900466 608.353600
   1904   1890   1912     1   107.9700462 569.024000
   1913   1914   1917     1   111.5100476 526.347200
   1913   1914   1926     1   110.1900474 564.840000
   1913   1927   1933     1   110.1900474 564.840000
   1913   1935   1919     1   112.4800480 524.673600
   1914   1917   1918     1   111.5100476 526.347200
   1914   1917   1925     1   110.1900474 564.840000
   1914   1913   1927     1   111.5100476 526.347200
   1914   1913   1935     1   107.9700462 569.024000
   1917   1918   1919     1   111.5100476 526.347200
   1917   1918   1924     1   110.1900474 564.840000
   1917   1914   1926     1   110.1900474 564.840000
   1918   1919   1923     1   107.9700462 569.024000
   1918   1919   1935     1   107.9700462 569.024000
   1918   1917   1925     1   110.1900474 564.840000
   1919   1918   1924     1   110.1900474 564.840000
   1923   1919   1935     1   108.2900466 608.353600
   1927   1913   1935     1   107.9700462 569.024000
   1936   1937   1940     1   111.5100476 526.347200
   1936   1937   1949     1   110.1900474 564.840000
   1936   1950   1956     1   110.1900474 564.840000
   1936   1958   1942     1   112.4800480 524.673600
   1937   1936   1950     1   111.5100476 526.347200
   1937   1936   1958     1   107.9700462 569.024000
   1937   1940   1941     1   111.5100476 526.347200
   1937   1940   1948     1   110.1900474 564.840000
   1940   1937   1949     1   110.1900474 564.840000
   1940   1941   1942     1   111.5100476 526.347200
   1940   1941   1947     1   110.1900474 564.840000
   1941   1940   1948     1   110.1900474 564.840000
   1941   1942   1946     1   107.9700462 569.024000
   1941   1942   1958     1   107.9700462 569.024000
   1942   1941   1947     1   110.1900474 564.840000
   1946   1942   1958     1   108.2900466 608.353600
   1950   1936   1958     1   107.9700462 569.024000
   1959   1960   1963     1   111.5100476 526.347200
   1959   1960   1972     1   110.1900474 564.840000
   1959   1973   1979     1   110.1900474 564.840000
   1959   1981   1965     1   112.4800480 524.673600
   1960   1963   1964     1   111.5100476 526.347200
   1960   1963   1971     1   110.1900474 564.840000
   1960   1959   1973     1   111.5100476 526.347200
   1960   1959   1981     1   107.9700462 569.024000
   1963   1964   1965     1   111.5100476 526.347200
   1963   1964   1970     1   110.1900474 564.840000
   1963   1960   1972     1   110.1900474 564.840000
   1964   1965   1969     1   107.9700462 569.024000
   1964   1965   1981     1   107.9700462 569.024000
   1964   1963   1971     1   110.1900474 564.840000
   1965   1964   1970     1   110.1900474 564.840000
   1969   1965   1981     1   108.2900466 608.353600
   1973   1959   1981     1   107.9700462 569.024000
   1982   1983   1986     1   111.5100476 526.347200
   1982   1983   1995     1   110.1900474 564.840000
   1982   1996   2002     1   110.1900474 564.840000
   1982   2004   1988     1   112.4800480 524.673600
   1983   1982   1996     1   111.5100476 526.347200
   1983   1982   2004     1   107.9700462 569.024000
   1983   1986   1987     1   111.5100476 526.347200
   1983   1986   1994     1   110.1900474 564.840000
   1986   1983   1995     1   110.1900474 564.840000
   1986   1987   1988     1   111.5100476 526.347200
   1986   1987   1993     1   110.1900474 564.840000
   1987   1986   1994     1   110.1900474 564.840000
   1987   1988   1992     1   107.9700462 569.024000
   1987   1988   2004     1   107.9700462 569.024000
   1988   1987   1993     1   110.1900474 564.840000
   1992   1988   2004     1   108.2900466 608.353600
   1996   1982   2004     1   107.9700462 569.024000
   2005   2006   2009     1   111.5100476 526.347200
   2005   2006   2018     1   110.1900474 564.840000
   2005   2019   2025     1   110.1900474 564.840000
   2005   2027   2011     1   112.4800480 524.673600
   2006   2009   2010     1   111.5100476 526.347200
   2006   2009   2017     1   110.1900474 564.840000
   2006   2005   2019     1   111.5100476 526.347200
   2006   2005   2027     1   107.9700462 569.024000
   2009   2010   2011     1   111.5100476 526.347200
   2009   2010   2016     1   110.1900474 564.840000
   2009   2006   2018     1   110.1900474 564.840000
   2010   2011   2015     1   107.9700462 569.024000
   2010   2011   2027     1   107.9700462 569.024000
   2010   2009   2017     1   110.1900474 564.840000
   2011   2010   2016     1   110.1900474 564.840000
   2015   2011   2027     1   108.2900466 608.353600
   2019   2005   2027     1   107.9700462 569.024000
   2028   2029   2032     1   111.5100476 526.347200
   2028   2029   2041     1   110.1900474 564.840000
   2028   2042   2048     1   110.1900474 564.840000
   2028   2050   2034     1   112.4800480 524.673600
   2029   2028   2042     1   111.5100476 526.347200
   2029   2028   2050     1   107.9700462 569.024000
   2029   2032   2033     1   111.5100476 526.347200
   2029   2032   2040     1   110.1900474 564.840000
   2032   2029   2041     1   110.1900474 564.840000
   2032   2033   2034     1   111.5100476 526.347200
   2032   2033   2039     1   110.1900474 564.840000
   2033   2032   2040     1   110.1900474 564.840000
   2033   2034   2038     1   107.9700462 569.024000
   2033   2034   2050     1   107.9700462 569.024000
   2034   2033   2039     1   110.1900474 564.840000
   2038   2034   2050     1   108.2900466 608.353600
   2042   2028   2050     1   107.9700462 569.024000
   2051   2052   2055     1   111.5100476 526.347200
   2051   2052   2064     1   110.1900474 564.840000
   2051   2065   2071     1   110.1900474 564.840000
   2051   2073   2057     1   112.4800480 524.673600
   2052   2055   2056     1   111.5100476 526.347200
   2052   2055   2063     1   110.1900474 564.840000
   2052   2051   2065     1   111.5100476 526.347200
   2052   2051   2073     1   107.9700462 569.024000
   2055   2056   2057     1   111.5100476 526.347200
   2055   2056   2062     1   110.1900474 564.840000
   2055   2052   2064     1   110.1900474 564.840000
   2056   2057   2061     1   107.9700462 569.024000
   2056   2057   2073     1   107.9700462 569.024000
   2056   2055   2063     1   110.1900474 564.840000
   2057   2056   2062     1   110.1900474 564.840000
   2061   2057   2073     1   108.2900466 608.353600
   2065   2051   2073     1   107.9700462 569.024000
   2074   2075   2078     1   111.5100476 526.347200
   2074   2075   2087     1   110.1900474 564.840000
   2074   2088   2094     1   110.1900474 564.840000
   2074   2096   2080     1   112.4800480 524.673600
   2075   2074   2088     1   111.5100476 526.347200
   2075   2074   2096     1   107.9700462 569.024000
   2075   2078   2079     1   111.5100476 526.347200
   2075   2078   2086     1   110.1900474 564.840000
   2078   2075   2087     1   110.1900474 564.840000
   2078   2079   2080     1   111.5100476 526.347200
   2078   2079   2085     1   110.1900474 564.840000
   2079   2078   2086     1   110.1900474 564.840000
   2079   2080   2084     1   107.9700462 569.024000
   2079   2080   2096     1   107.9700462 569.024000
   2080   2079   2085     1   110.1900474 564.840000
   2084   2080   2096     1   108.2900466 608.353600
   2088   2074   2096     1   107.9700462 569.024000
   2097   2098   2101     1   111.5100476 526.347200
   2097   2098   2110     1   110.1900474 564.840000
   2097   2111   2117     1   110.1900474 564.840000
   2097   2119   2103     1   112.4800480 524.673600
   2098   2101   2102     1   111.5100476 526.347200
   2098   2101   2109     1   110.1900474 564.840000
   2098   2097   2111     1   111.5100476 526.347200
   2098   2097   2119     1   107.9700462 569.024000
   2101   2102   2103     1   111.5100476 526.347200
   2101   2102   2108     1   110.1900474 564.840000
   2101   2098   2110     1   110.1900474 564.840000
   2102   2103   2107     1   107.9700462 569.024000
   2102   2103   2119     1   107.9700462 569.024000
   2102   2101   2109     1   110.1900474 564.840000
   2103   2102   2108     1   110.1900474 564.840000
   2107   2103   2119     1   108.2900466 608.353600
   2111   2097   2119     1   107.9700462 569.024000
   2120   2121   2124     1   111.5100476 526.347200
   2120   2121   2133     1   110.1900474 564.840000
   2120   2134   2140     1   110.1900474 564.840000
   2120   2142   2126     1   112.4800480 524.673600
   2121   2120   2134     1   111.5100476 526.347200
   2121   2120   2142     1   107.9700462 569.024000
   2121   2124   2125     1   111.5100476 526.347200
   2121   2124   2132     1   110.1900474 564.840000
   2124   2121   2133     1   110.1900474 564.840000
   2124   2125   2126     1   111.5100476 526.347200
   2124   2125   2131     1   110.1900474 564.840000
   2125   2124   2132     1   110.1900474 564.840000
   2125   2126   2130     1   107.9700462 569.024000
   2125   2126   2142     1   107.9700462 569.024000
   2126   2125   2131     1   110.1900474 564.840000
   2130   2126   2142     1   108.2900466 608.353600
   2134   2120   2142     1   107.9700462 569.024000
   2143   2144   2147     1   111.5100476 526.347200
   2143   2144   2156     1   110.1900474 564.840000
   2143   2157   2163     1   110.1900474 564.840000
   2143   2165   2149     1   112.4800480 524.673600
   2144   2147   2148     1   111.5100476 526.347200
   2144   2147   2155     1   110.1900474 564.840000
   2144   2143   2157     1   111.5100476 526.347200
   2144   2143   2165     1   107.9700462 569.024000
   2147   2148   2149     1   111.5100476 526.347200
   2147   2148   2154     1   110.1900474 564.840000
   2147   2144   2156     1   110.1900474 564.840000
   2148   2149   2153     1   107.9700462 569.024000
   2148   2149   2165     1   107.9700462 569.024000
   2148   2147   2155     1   110.1900474 564.840000
   2149   2148   2154     1   110.1900474 564.840000
   2153   2149   2165     1   108.2900466 608.353600
   2157   2143   2165     1   107.9700462 569.024000
   2166   2167   2170     1   111.5100476 526.347200
   2166   2167   2179     1   110.1900474 564.840000
   2166   2180   2186     1   110.1900474 564.840000
   2166   2188   2172     1   112.4800480 524.673600
   2167   2166   2180     1   111.5100476 526.347200
   2167   2166   2188     1   107.9700462 569.024000
   2167   2170   2171     1   111.5100476 526.347200
   2167   2170   2178     1   110.1900474 564.840000
   2170   2167   2179     1   110.1900474 564.840000
   2170   2171   2172     1   111.5100476 526.347200
   2170   2171   2177     1   110.1900474 564.840000
   2171   2170   2178     1   110.1900474 564.840000
   2171   2172   2176     1   107.9700462 569.024000
   2171   2172   2188     1   107.9700462 569.024000
   2172   2171   2177     1   110.1900474 564.840000
   2176   2172   2188     1   108.2900466 608.353600
   2180   2166   2188     1   107.9700462 569.024000
   2189   2190   2193     1   111.5100476 526.347200
   2189   2190   2202     1   110.1900474 564.840000
   2189   2203   2209     1   110.1900474 564.840000
   2189   2211   2195     1   112.4800480 524.673600
   2190   2193   2194     1   111.5100476 526.347200
   2190   2193   2201     1   110.1900474 564.840000
   2190   2189   2203     1   111.5100476 526.347200
   2190   2189   2211     1   107.9700462 569.024000
   2193   2194   2195     1   111.5100476 526.347200
   2193   2194   2200     1   110.1900474 564.840000
   2193   2190   2202     1   110.1900474 564.840000
   2194   2195   2199     1   107.9700462 569.024000
   2194   2195   2211     1   107.9700462 569.024000
   2194   2193   2201     1   110.1900474 564.840000
   2195   2194   2200     1   110.1900474 564.840000
   2199   2195   2211     1   108.2900466 608.353600
   2203   2189   2211     1   107.9700462 569.024000
   2212   2213   2216     1   111.5100476 526.347200
   2212   2213   2225     1   110.1900474 564.840000
   2212   2226   2232     1   110.1900474 564.840000
   2212   2234   2218     1   112.4800480 524.673600
   2213   2212   2226     1   111.5100476 526.347200
   2213   2212   2234     1   107.9700462 569.024000
   2213   2216   2217     1   111.5100476 526.347200
   2213   2216   2224     1   110.1900474 564.840000
   2216   2213   2225     1   110.1900474 564.840000
   2216   2217   2218     1   111.5100476 526.347200
   2216   2217   2223     1   110.1900474 564.840000
   2217   2216   2224     1   110.1900474 564.840000
   2217   2218   2222     1   107.9700462 569.024000
   2217   2218   2234     1   107.9700462 569.024000
   2218   2217   2223     1   110.1900474 564.840000
   2222   2218   2234     1   108.2900466 608.353600
   2226   2212   2234     1   107.9700462 569.024000
   2235   2236   2239     1   111.5100476 526.347200
   2235   2236   2248     1   110.1900474 564.840000
   2235   2249   2255     1   110.1900474 564.840000
   2235   2257   2241     1   112.4800480 524.673600
   2236   2239   2240     1   111.5100476 526.347200
   2236   2239   2247     1   110.1900474 564.840000
   2236   2235   2249     1   111.5100476 526.347200
   2236   2235   2257     1   107.9700462 569.024000
   2239   2240   2241     1   111.5100476 526.347200
   2239   2240   2246     1   110.1900474 564.840000
   2239   2236   2248     1   110.1900474 564.840000
   2240   2241   2245     1   107.9700462 569.024000
   2240   2241   2257     1   107.9700462 569.024000
   2240   2239   2247     1   110.1900474 564.840000
   2241   2240   2246     1   110.1900474 564.840000
   2245   2241   2257     1   108.2900466 608.353600
   2249   2235   2257     1   107.9700462 569.024000
   2258   2259   2262     1   111.5100476 526.347200
   2258   2259   2271     1   110.1900474 564.840000
   2258   2272   2278     1   110.1900474 564.840000
   2258   2280   2264     1   112.4800480 524.673600
   2259   2258   2272     1   111.5100476 526.347200
   2259   2258   2280     1   107.9700462 569.024000
   2259   2262   2263     1   111.5100476 526.347200
   2259   2262   2270     1   110.1900474 564.840000
   2262   2259   2271     1   110.1900474 564.840000
   2262   2263   2264     1   111.5100476 526.347200
   2262   2263   2269     1   110.1900474 564.840000
   2263   2262   2270     1   110.1900474 564.840000
   2263   2264   2268     1   107.9700462 569.024000
   2263   2264   2280     1   107.9700462 569.024000
   2264   2263   2269     1   110.1900474 564.840000
   2268   2264   2280     1   108.2900466 608.353600
   2272   2258   2280     1   107.9700462 569.024000
   2281   2282   2285     1   111.5100476 526.347200
   2281   2282   2294     1   110.1900474 564.840000
   2281   2295   2301     1   110.1900474 564.840000
   2281   2303   2287     1   112.4800480 524.673600
   2282   2285   2286     1   111.5100476 526.347200
   2282   2285   2293     1   110.1900474 564.840000
   2282   2281   2295     1   111.5100476 526.347200
   2282   2281   2303     1   107.9700462 569.024000
   2285   2286   2287     1   111.5100476 526.347200
   2285   2286   2292     1   110.1900474 564.840000
   2285   2282   2294     1   110.1900474 564.840000
   2286   2287   2291     1   107.9700462 569.024000
   2286   2287   2303     1   107.9700462 569.024000
   2286   2285   2293     1   110.1900474 564.840000
   2287   2286   2292     1   110.1900474 564.840000
   2291   2287   2303     1   108.2900466 608.353600
   2295   2281   2303     1   107.9700462 569.024000
   2304   2305   2308     1   111.5100476 526.347200
   2304   2305   2317     1   110.1900474 564.840000
   2304   2318   2324     1   110.1900474 564.840000
   2304   2326   2310     1   112.4800480 524.673600
   2305   2304   2318     1   111.5100476 526.347200
   2305   2304   2326     1   107.9700462 569.024000
   2305   2308   2309     1   111.5100476 526.347200
   2305   2308   2316     1   110.1900474 564.840000
   2308   2305   2317     1   110.1900474 564.840000
   2308   2309   2310     1   111.5100476 526.347200
   2308   2309   2315     1   110.1900474 564.840000
   2309   2308   2316     1   110.1900474 564.840000
   2309   2310   2314     1   107.9700462 569.024000
   2309   2310   2326     1   107.9700462 569.024000
   2310   2309   2315     1   110.1900474 564.840000
   2314   2310   2326     1   108.2900466 608.353600
   2318   2304   2326     1   107.9700462 569.024000
   2327   2328   2331     1   111.5100476 526.347200
   2327   2328   2340     1   110.1900474 564.840000
   2327   2341   2347     1   110.1900474 564.840000
   2327   2349   2333     1   112.4800480 524.673600
   2328   2331   2332     1   111.5100476 526.347200
   2328   2331   2339     1   110.1900474 564.840000
   2328   2327   2341     1   111.5100476 526.347200
   2328   2327   2349     1   107.9700462 569.024000
   2331   2332   2333     1   111.5100476 526.347200
   2331   2332   2338     1   110.1900474 564.840000
   2331   2328   2340     1   110.1900474 564.840000
   2332   2333   2337     1   107.9700462 569.024000
   2332   2333   2349     1   107.9700462 569.024000
   2332   2331   2339     1   110.1900474 564.840000
   2333   2332   2338     1   110.1900474 564.840000
   2337   2333   2349     1   108.2900466 608.353600
   2341   2327   2349     1   107.9700462 569.024000
   2350   2351   2354     1   111.5100476 526.347200
   2350   2351   2363     1   110.1900474 564.840000
   2350   2364   2370     1   110.1900474 564.840000
   2350   2372   2356     1   112.4800480 524.673600
   2351   2350   2364     1   111.5100476 526.347200
   2351   2350   2372     1   107.9700462 569.024000
   2351   2354   2355     1   111.5100476 526.347200
   2351   2354   2362     1   110.1900474 564.840000
   2354   2351   2363     1   110.1900474 564.840000
   2354   2355   2356     1   111.5100476 526.347200
   2354   2355   2361     1   110.1900474 564.840000
   2355   2354   2362     1   110.1900474 564.840000
   2355   2356   2360     1   107.9700462 569.024000
   2355   2356   2372     1   107.9700462 569.024000
   2356   2355   2361     1   110.1900474 564.840000
   2360   2356   2372     1   108.2900466 608.353600
   2364   2350   2372     1   107.9700462 569.024000
   2373   2374   2377     1   111.5100476 526.347200
   2373   2374   2386     1   110.1900474 564.840000
   2373   2387   2393     1   110.1900474 564.840000
   2373   2395   2379     1   112.4800480 524.673600
   2374   2377   2378     1   111.5100476 526.347200
   2374   2377   2385     1   110.1900474 564.840000
   2374   2373   2387     1   111.5100476 526.347200
   2374   2373   2395     1   107.9700462 569.024000
   2377   2378   2379     1   111.5100476 526.347200
   2377   2378   2384     1   110.1900474 564.840000
   2377   2374   2386     1   110.1900474 564.840000
   2378   2379   2383     1   107.9700462 569.024000
   2378   2379   2395     1   107.9700462 569.024000
   2378   2377   2385     1   110.1900474 564.840000
   2379   2378   2384     1   110.1900474 564.840000
   2383   2379   2395     1   108.2900466 608.353600
   2387   2373   2395     1   107.9700462 569.024000
   2396   2397   2400     1   111.5100476 526.347200
   2396   2397   2409     1   110.1900474 564.840000
   2396   2410   2416     1   110.1900474 564.840000
   2396   2418   2402     1   112.4800480 524.673600
   2397   2396   2410     1   111.5100476 526.347200
   2397   2396   2418     1   107.9700462 569.024000
   2397   2400   2401     1   111.5100476 526.347200
   2397   2400   2408     1   110.1900474 564.840000
   2400   2397   2409     1   110.1900474 564.840000
   2400   2401   2402     1   111.5100476 526.347200
   2400   2401   2407     1   110.1900474 564.840000
   2401   2400   2408     1   110.1900474 564.840000
   2401   2402   2406     1   107.9700462 569.024000
   2401   2402   2418     1   107.9700462 569.024000
   2402   2401   2407     1   110.1900474 564.840000
   2406   2402   2418     1   108.2900466 608.353600
   2410   2396   2418     1   107.9700462 569.024000
   2419   2420   2423     1   111.5100476 526.347200
   2419   2420   2432     1   110.1900474 564.840000
   2419   2433   2439     1   110.1900474 564.840000
   2419   2441   2425     1   112.4800480 524.673600
   2420   2423   2424     1   111.5100476 526.347200
   2420   2423   2431     1   110.1900474 564.840000
   2420   2419   2433     1   111.5100476 526.347200
   2420   2419   2441     1   107.9700462 569.024000
   2423   2424   2425     1   111.5100476 526.347200
   2423   2424   2430     1   110.1900474 564.840000
   2423   2420   2432     1   110.1900474 564.840000
   2424   2425   2429     1   107.9700462 569.024000
   2424   2425   2441     1   107.9700462 569.024000
   2424   2423   2431     1   110.1900474 564.840000
   2425   2424   2430     1   110.1900474 564.840000
   2429   2425   2441     1   108.2900466 608.353600
   2433   2419   2441     1   107.9700462 569.024000
   2442   2443   2446     1   111.5100476 526.347200
   2442   2443   2455     1   110.1900474 564.840000
   2442   2456   2462     1   110.1900474 564.840000
   2442   2464   2448     1   112.4800480 524.673600
   2443   2442   2456     1   111.5100476 526.347200
   2443   2442   2464     1   107.9700462 569.024000
   2443   2446   2447     1   111.5100476 526.347200
   2443   2446   2454     1   110.1900474 564.840000
   2446   2443   2455     1   110.1900474 564.840000
   2446   2447   2448     1   111.5100476 526.347200
   2446   2447   2453     1   110.1900474 564.840000
   2447   2446   2454     1   110.1900474 564.840000
   2447   2448   2452     1   107.9700462 569.024000
   2447   2448   2464     1   107.9700462 569.024000
   2448   2447   2453     1   110.1900474 564.840000
   2452   2448   2464     1   108.2900466 608.353600
   2456   2442   2464     1   107.9700462 569.024000
   2465   2466   2469     1   111.5100476 526.347200
   2465   2466   2478     1   110.1900474 564.840000
   2465   2479   2485     1   110.1900474 564.840000
   2465   2487   2471     1   112.4800480 524.673600
   2466   2469   2470     1   111.5100476 526.347200
   2466   2469   2477     1   110.1900474 564.840000
   2466   2465   2479     1   111.5100476 526.347200
   2466   2465   2487     1   107.9700462 569.024000
   2469   2470   2471     1   111.5100476 526.347200
   2469   2470   2476     1   110.1900474 564.840000
   2469   2466   2478     1   110.1900474 564.840000
   2470   2471   2475     1   107.9700462 569.024000
   2470   2471   2487     1   107.9700462 569.024000
   2470   2469   2477     1   110.1900474 564.840000
   2471   2470   2476     1   110.1900474 564.840000
   2475   2471   2487     1   108.2900466 608.353600
   2479   2465   2487     1   107.9700462 569.024000
   2488   2489   2492     1   111.5100476 526.347200
   2488   2489   2501     1   110.1900474 564.840000
   2488   2502   2508     1   110.1900474 564.840000
   2488   2510   2494     1   112.4800480 524.673600
   2489   2488   2502     1   111.5100476 526.347200
   2489   2488   2510     1   107.9700462 569.024000
   2489   2492   2493     1   111.5100476 526.347200
   2489   2492   2500     1   110.1900474 564.840000
   2492   2489   2501     1   110.1900474 564.840000
   2492   2493   2494     1   111.5100476 526.347200
   2492   2493   2499     1   110.1900474 564.840000
   2493   2492   2500     1   110.1900474 564.840000
   2493   2494   2498     1   107.9700462 569.024000
   2493   2494   2510     1   107.9700462 569.024000
   2494   2493   2499     1   110.1900474 564.840000
   2498   2494   2510     1   108.2900466 608.353600
   2502   2488   2510     1   107.9700462 569.024000
   2511   2512   2515     1   111.5100476 526.347200
   2511   2512   2524     1   110.1900474 564.840000
   2511   2525   2531     1   110.1900474 564.840000
   2511   2533   2517     1   112.4800480 524.673600
   2512   2515   2516     1   111.5100476 526.347200
   2512   2515   2523     1   110.1900474 564.840000
   2512   2511   2525     1   111.5100476 526.347200
   2512   2511   2533     1   107.9700462 569.024000
   2515   2516   2517     1   111.5100476 526.347200
   2515   2516   2522     1   110.1900474 564.840000
   2515   2512   2524     1   110.1900474 564.840000
   2516   2517   2521     1   107.9700462 569.024000
   2516   2517   2533     1   107.9700462 569.024000
   2516   2515   2523     1   110.1900474 564.840000
   2517   2516   2522     1   110.1900474 564.840000
   2521   2517   2533     1   108.2900466 608.353600
   2525   2511   2533     1   107.9700462 569.024000
   2534   2535   2538     1   111.5100476 526.347200
   2534   2535   2547     1   110.1900474 564.840000
   2534   2548   2554     1   110.1900474 564.840000
   2534   2556   2540     1   112.4800480 524.673600
   2535   2534   2548     1   111.5100476 526.347200
   2535   2534   2556     1   107.9700462 569.024000
   2535   2538   2539     1   111.5100476 526.347200
   2535   2538   2546     1   110.1900474 564.840000
   2538   2535   2547     1   110.1900474 564.840000
   2538   2539   2540     1   111.5100476 526.347200
   2538   2539   2545     1   110.1900474 564.840000
   2539   2538   2546     1   110.1900474 564.840000
   2539   2540   2544     1   107.9700462 569.024000
   2539   2540   2556     1   107.9700462 569.024000
   2540   2539   2545     1   110.1900474 564.840000
   2544   2540   2556     1   108.2900466 608.353600
   2548   2534   2556     1   107.9700462 569.024000
   2557   2558   2561     1   111.5100476 526.347200
   2557   2558   2570     1   110.1900474 564.840000
   2557   2571   2577     1   110.1900474 564.840000
   2557   2579   2563     1   112.4800480 524.673600
   2558   2561   2562     1   111.5100476 526.347200
   2558   2561   2569     1   110.1900474 564.840000
   2558   2557   2571     1   111.5100476 526.347200
   2558   2557   2579     1   107.9700462 569.024000
   2561   2562   2563     1   111.5100476 526.347200
   2561   2562   2568     1   110.1900474 564.840000
   2561   2558   2570     1   110.1900474 564.840000
   2562   2563   2567     1   107.9700462 569.024000
   2562   2563   2579     1   107.9700462 569.024000
   2562   2561   2569     1   110.1900474 564.840000
   2563   2562   2568     1   110.1900474 564.840000
   2567   2563   2579     1   108.2900466 608.353600
   2571   2557   2579     1   107.9700462 569.024000
   2580   2581   2584     1   111.5100476 526.347200
   2580   2581   2593     1   110.1900474 564.840000
   2580   2594   2600     1   110.1900474 564.840000
   2580   2602   2586     1   112.4800480 524.673600
   2581   2580   2594     1   111.5100476 526.347200
   2581   2580   2602     1   107.9700462 569.024000
   2581   2584   2585     1   111.5100476 526.347200
   2581   2584   2592     1   110.1900474 564.840000
   2584   2581   2593     1   110.1900474 564.840000
   2584   2585   2586     1   111.5100476 526.347200
   2584   2585   2591     1   110.1900474 564.840000
   2585   2584   2592     1   110.1900474 564.840000
   2585   2586   2590     1   107.9700462 569.024000
   2585   2586   2602     1   107.9700462 569.024000
   2586   2585   2591     1   110.1900474 564.840000
   2590   2586   2602     1   108.2900466 608.353600
   2594   2580   2602     1   107.9700462 569.024000
   2603   2604   2607     1   111.5100476 526.347200
   2603   2604   2616     1   110.1900474 564.840000
   2603   2617   2623     1   110.1900474 564.840000
   2603   2625   2609     1   112.4800480 524.673600
   2604   2607   2608     1   111.5100476 526.347200
   2604   2607   2615     1   110.1900474 564.840000
   2604   2603   2617     1   111.5100476 526.347200
   2604   2603   2625     1   107.9700462 569.024000
   2607   2608   2609     1   111.5100476 526.347200
   2607   2608   2614     1   110.1900474 564.840000
   2607   2604   2616     1   110.1900474 564.840000
   2608   2609   2613     1   107.9700462 569.024000
   2608   2609   2625     1   107.9700462 569.024000
   2608   2607   2615     1   110.1900474 564.840000
   2609   2608   2614     1   110.1900474 564.840000
   2613   2609   2625     1   108.2900466 608.353600
   2617   2603   2625     1   107.9700462 569.024000
   2626   2627   2630     1   111.5100476 526.347200
   2626   2627   2639     1   110.1900474 564.840000
   2626   2640   2646     1   110.1900474 564.840000
   2626   2648   2632     1   112.4800480 524.673600
   2627   2626   2640     1   111.5100476 526.347200
   2627   2626   2648     1   107.9700462 569.024000
   2627   2630   2631     1   111.5100476 526.347200
   2627   2630   2638     1   110.1900474 564.840000
   2630   2627   2639     1   110.1900474 564.840000
   2630   2631   2632     1   111.5100476 526.347200
   2630   2631   2637     1   110.1900474 564.840000
   2631   2630   2638     1   110.1900474 564.840000
   2631   2632   2636     1   107.9700462 569.024000
   2631   2632   2648     1   107.9700462 569.024000
   2632   2631   2637     1   110.1900474 564.840000
   2636   2632   2648     1   108.2900466 608.353600
   2640   2626   2648     1   107.9700462 569.024000
   2649   2650   2653     1   111.5100476 526.347200
   2649   2650   2662     1   110.1900474 564.840000
   2649   2663   2669     1   110.1900474 564.840000
   2649   2671   2655     1   112.4800480 524.673600
   2650   2653   2654     1   111.5100476 526.347200
   2650   2653   2661     1   110.1900474 564.840000
   2650   2649   2663     1   111.5100476 526.347200
   2650   2649   2671     1   107.9700462 569.024000
   2653   2654   2655     1   111.5100476 526.347200
   2653   2654   2660     1   110.1900474 564.840000
   2653   2650   2662     1   110.1900474 564.840000
   2654   2655   2659     1   107.9700462 569.024000
   2654   2655   2671     1   107.9700462 569.024000
   2654   2653   2661     1   110.1900474 564.840000
   2655   2654   2660     1   110.1900474 564.840000
   2659   2655   2671     1   108.2900466 608.353600
   2663   2649   2671     1   107.9700462 569.024000
   2672   2673   2676     1   111.5100476 526.347200
   2672   2673   2685     1   110.1900474 564.840000
   2672   2686   2692     1   110.1900474 564.840000
   2672   2694   2678     1   112.4800480 524.673600
   2673   2672   2686     1   111.5100476 526.347200
   2673   2672   2694     1   107.9700462 569.024000
   2673   2676   2677     1   111.5100476 526.347200
   2673   2676   2684     1   110.1900474 564.840000
   2676   2673   2685     1   110.1900474 564.840000
   2676   2677   2678     1   111.5100476 526.347200
   2676   2677   2683     1   110.1900474 564.840000
   2677   2676   2684     1   110.1900474 564.840000
   2677   2678   2682     1   107.9700462 569.024000
   2677   2678   2694     1   107.9700462 569.024000
   2678   2677   2683     1   110.1900474 564.840000
   2682   2678   2694     1   108.2900466 608.353600
   2686   2672   2694     1   107.9700462 569.024000
   2695   2696   2699     1   111.5100476 526.347200
   2695   2696   2708     1   110.1900474 564.840000
   2695   2709   2715     1   110.1900474 564.840000
   2695   2717   2701     1   112.4800480 524.673600
   2696   2699   2700     1   111.5100476 526.347200
   2696   2699   2707     1   110.1900474 564.840000
   2696   2695   2709     1   111.5100476 526.347200
   2696   2695   2717     1   107.9700462 569.024000
   2699   2700   2701     1   111.5100476 526.347200
   2699   2700   2706     1   110.1900474 564.840000
   2699   2696   2708     1   110.1900474 564.840000
   2700   2701   2705     1   107.9700462 569.024000
   2700   2701   2717     1   107.9700462 569.024000
   2700   2699   2707     1   110.1900474 564.840000
   2701   2700   2706     1   110.1900474 564.840000
   2705   2701   2717     1   108.2900466 608.353600
   2709   2695   2717     1   107.9700462 569.024000
   2718   2719   2722     1   111.5100476 526.347200
   2718   2719   2731     1   110.1900474 564.840000
   2718   2732   2738     1   110.1900474 564.840000
   2718   2740   2724     1   112.4800480 524.673600
   2719   2718   2732     1   111.5100476 526.347200
   2719   2718   2740     1   107.9700462 569.024000
   2719   2722   2723     1   111.5100476 526.347200
   2719   2722   2730     1   110.1900474 564.840000
   2722   2719   2731     1   110.1900474 564.840000
   2722   2723   2724     1   111.5100476 526.347200
   2722   2723   2729     1   110.1900474 564.840000
   2723   2722   2730     1   110.1900474 564.840000
   2723   2724   2728     1   107.9700462 569.024000
   2723   2724   2740     1   107.9700462 569.024000
   2724   2723   2729     1   110.1900474 564.840000
   2728   2724   2740     1   108.2900466 608.353600
   2732   2718   2740     1   107.9700462 569.024000
   2741   2742   2745     1   111.5100476 526.347200
   2741   2742   2754     1   110.1900474 564.840000
   2741   2755   2761     1   110.1900474 564.840000
   2741   2763   2747     1   112.4800480 524.673600
   2742   2745   2746     1   111.5100476 526.347200
   2742   2745   2753     1   110.1900474 564.840000
   2742   2741   2755     1   111.5100476 526.347200
   2742   2741   2763     1   107.9700462 569.024000
   2745   2746   2747     1   111.5100476 526.347200
   2745   2746   2752     1   110.1900474 564.840000
   2745   2742   2754     1   110.1900474 564.840000
   2746   2747   2751     1   107.9700462 569.024000
   2746   2747   2763     1   107.9700462 569.024000
   2746   2745   2753     1   110.1900474 564.840000
   2747   2746   2752     1   110.1900474 564.840000
   2751   2747   2763     1   108.2900466 608.353600
   2755   2741   2763     1   107.9700462 569.024000
   2764   2765   2768     1   111.5100476 526.347200
   2764   2765   2777     1   110.1900474 564.840000
   2764   2778   2784     1   110.1900474 564.840000
   2764   2786   2770     1   112.4800480 524.673600
   2765   2764   2778     1   111.5100476 526.347200
   2765   2764   2786     1   107.9700462 569.024000
   2765   2768   2769     1   111.5100476 526.347200
   2765   2768   2776     1   110.1900474 564.840000
   2768   2765   2777     1   110.1900474 564.840000
   2768   2769   2770     1   111.5100476 526.347200
   2768   2769   2775     1   110.1900474 564.840000
   2769   2768   2776     1   110.1900474 564.840000
   2769   2770   2774     1   107.9700462 569.024000
   2769   2770   2786     1   107.9700462 569.024000
   2770   2769   2775     1   110.1900474 564.840000
   2774   2770   2786     1   108.2900466 608.353600
   2778   2764   2786     1   107.9700462 569.024000
   2787   2788   2791     1   111.5100476 526.347200
   2787   2788   2800     1   110.1900474 564.840000
   2787   2801   2807     1   110.1900474 564.840000
   2787   2809   2793     1   112.4800480 524.673600
   2788   2791   2792     1   111.5100476 526.347200
   2788   2791   2799     1   110.1900474 564.840000
   2788   2787   2801     1   111.5100476 526.347200
   2788   2787   2809     1   107.9700462 569.024000
   2791   2792   2793     1   111.5100476 526.347200
   2791   2792   2798     1   110.1900474 564.840000
   2791   2788   2800     1   110.1900474 564.840000
   2792   2793   2797     1   107.9700462 569.024000
   2792   2793   2809     1   107.9700462 569.024000
   2792   2791   2799     1   110.1900474 564.840000
   2793   2792   2798     1   110.1900474 564.840000
   2797   2793   2809     1   108.2900466 608.353600
   2801   2787   2809     1   107.9700462 569.024000
   2810   2811   2814     1   111.5100476 526.347200
   2810   2811   2823     1   110.1900474 564.840000
   2810   2824   2830     1   110.1900474 564.840000
   2810   2832   2816     1   112.4800480 524.673600
   2811   2810   2824     1   111.5100476 526.347200
   2811   2810   2832     1   107.9700462 569.024000
   2811   2814   2815     1   111.5100476 526.347200
   2811   2814   2822     1   110.1900474 564.840000
   2814   2811   2823     1   110.1900474 564.840000
   2814   2815   2816     1   111.5100476 526.347200
   2814   2815   2821     1   110.1900474 564.840000
   2815   2814   2822     1   110.1900474 564.840000
   2815   2816   2820     1   107.9700462 569.024000
   2815   2816   2832     1   107.9700462 569.024000
   2816   2815   2821     1   110.1900474 564.840000
   2820   2816   2832     1   108.2900466 608.353600
   2824   2810   2832     1   107.9700462 569.024000
   2833   2834   2837     1   111.5100476 526.347200
   2833   2834   2846     1   110.1900474 564.840000
   2833   2847   2853     1   110.1900474 564.840000
   2833   2855   2839     1   112.4800480 524.673600
   2834   2837   2838     1   111.5100476 526.347200
   2834   2837   2845     1   110.1900474 564.840000
   2834   2833   2847     1   111.5100476 526.347200
   2834   2833   2855     1   107.9700462 569.024000
   2837   2838   2839     1   111.5100476 526.347200
   2837   2838   2844     1   110.1900474 564.840000
   2837   2834   2846     1   110.1900474 564.840000
   2838   2839   2843     1   107.9700462 569.024000
   2838   2839   2855     1   107.9700462 569.024000
   2838   2837   2845     1   110.1900474 564.840000
   2839   2838   2844     1   110.1900474 564.840000
   2843   2839   2855     1   108.2900466 608.353600
   2847   2833   2855     1   107.9700462 569.024000
   2856   2857   2860     1   111.5100476 526.347200
   2856   2857   2869     1   110.1900474 564.840000
   2856   2870   2876     1   110.1900474 564.840000
   2856   2878   2862     1   112.4800480 524.673600
   2857   2856   2870     1   111.5100476 526.347200
   2857   2856   2878     1   107.9700462 569.024000
   2857   2860   2861     1   111.5100476 526.347200
   2857   2860   2868     1   110.1900474 564.840000
   2860   2857   2869     1   110.1900474 564.840000
   2860   2861   2862     1   111.5100476 526.347200
   2860   2861   2867     1   110.1900474 564.840000
   2861   2860   2868     1   110.1900474 564.840000
   2861   2862   2866     1   107.9700462 569.024000
   2861   2862   2878     1   107.9700462 569.024000
   2862   2861   2867     1   110.1900474 564.840000
   2866   2862   2878     1   108.2900466 608.353600
   2870   2856   2878     1   107.9700462 569.024000
   2879   2880   2883     1   111.5100476 526.347200
   2879   2880   2892     1   110.1900474 564.840000
   2879   2893   2899     1   110.1900474 564.840000
   2879   2901   2885     1   112.4800480 524.673600
   2880   2883   2884     1   111.5100476 526.347200
   2880   2883   2891     1   110.1900474 564.840000
   2880   2879   2893     1   111.5100476 526.347200
   2880   2879   2901     1   107.9700462 569.024000
   2883   2884   2885     1   111.5100476 526.347200
   2883   2884   2890     1   110.1900474 564.840000
   2883   2880   2892     1   110.1900474 564.840000
   2884   2885   2889     1   107.9700462 569.024000
   2884   2885   2901     1   107.9700462 569.024000
   2884   2883   2891     1   110.1900474 564.840000
   2885   2884   2890     1   110.1900474 564.840000
   2889   2885   2901     1   108.2900466 608.353600
   2893   2879   2901     1   107.9700462 569.024000
   2902   2903   2906     1   111.5100476 526.347200
   2902   2903   2915     1   110.1900474 564.840000
   2902   2916   2922     1   110.1900474 564.840000
   2902   2924   2908     1   112.4800480 524.673600
   2903   2902   2916     1   111.5100476 526.347200
   2903   2902   2924     1   107.9700462 569.024000
   2903   2906   2907     1   111.5100476 526.347200
   2903   2906   2914     1   110.1900474 564.840000
   2906   2903   2915     1   110.1900474 564.840000
   2906   2907   2908     1   111.5100476 526.347200
   2906   2907   2913     1   110.1900474 564.840000
   2907   2906   2914     1   110.1900474 564.840000
   2907   2908   2912     1   107.9700462 569.024000
   2907   2908   2924     1   107.9700462 569.024000
   2908   2907   2913     1   110.1900474 564.840000
   2912   2908   2924     1   108.2900466 608.353600
   2916   2902   2924     1   107.9700462 569.024000
   2925   2926   2929     1   111.5100476 526.347200
   2925   2926   2938     1   110.1900474 564.840000
   2925   2939   2945     1   110.1900474 564.840000
   2925   2947   2931     1   112.4800480 524.673600
   2926   2929   2930     1   111.5100476 526.347200
   2926   2929   2937     1   110.1900474 564.840000
   2926   2925   2939     1   111.5100476 526.347200
   2926   2925   2947     1   107.9700462 569.024000
   2929   2930   2931     1   111.5100476 526.347200
   2929   2930   2936     1   110.1900474 564.840000
   2929   2926   2938     1   110.1900474 564.840000
   2930   2931   2935     1   107.9700462 569.024000
   2930   2931   2947     1   107.9700462 569.024000
   2930   2929   2937     1   110.1900474 564.840000
   2931   2930   2936     1   110.1900474 564.840000
   2935   2931   2947     1   108.2900466 608.353600
   2939   2925   2947     1   107.9700462 569.024000
   2948   2949   2952     1   111.5100476 526.347200
   2948   2949   2961     1   110.1900474 564.840000
   2948   2962   2968     1   110.1900474 564.840000
   2948   2970   2954     1   112.4800480 524.673600
   2949   2948   2962     1   111.5100476 526.347200
   2949   2948   2970     1   107.9700462 569.024000
   2949   2952   2953     1   111.5100476 526.347200
   2949   2952   2960     1   110.1900474 564.840000
   2952   2949   2961     1   110.1900474 564.840000
   2952   2953   2954     1   111.5100476 526.347200
   2952   2953   2959     1   110.1900474 564.840000
   2953   2952   2960     1   110.1900474 564.840000
   2953   2954   2958     1   107.9700462 569.024000
   2953   2954   2970     1   107.9700462 569.024000
   2954   2953   2959     1   110.1900474 564.840000
   2958   2954   2970     1   108.2900466 608.353600
   2962   2948   2970     1   107.9700462 569.024000
   2971   2972   2975     1   111.5100476 526.347200
   2971   2972   2984     1   110.1900474 564.840000
   2971   2985   2991     1   110.1900474 564.840000
   2971   2993   2977     1   112.4800480 524.673600
   2972   2975   2976     1   111.5100476 526.347200
   2972   2975   2983     1   110.1900474 564.840000
   2972   2971   2985     1   111.5100476 526.347200
   2972   2971   2993     1   107.9700462 569.024000
   2975   2976   2977     1   111.5100476 526.347200
   2975   2976   2982     1   110.1900474 564.840000
   2975   2972   2984     1   110.1900474 564.840000
   2976   2977   2981     1   107.9700462 569.024000
   2976   2977   2993     1   107.9700462 569.024000
   2976   2975   2983     1   110.1900474 564.840000
   2977   2976   2982     1   110.1900474 564.840000
   2981   2977   2993     1   108.2900466 608.353600
   2985   2971   2993     1   107.9700462 569.024000
   2994   2995   2998     1   111.5100476 526.347200
   2994   2995   3007     1   110.1900474 564.840000
   2994   3008   3014     1   110.1900474 564.840000
   2994   3016   3000     1   112.4800480 524.673600
   2995   2994   3008     1   111.5100476 526.347200
   2995   2994   3016     1   107.9700462 569.024000
   2995   2998   2999     1   111.5100476 526.347200
   2995   2998   3006     1   110.1900474 564.840000
   2998   2995   3007     1   110.1900474 564.840000
   2998   2999   3000     1   111.5100476 526.347200
   2998   2999   3005     1   110.1900474 564.840000
   2999   2998   3006     1   110.1900474 564.840000
   2999   3000   3004     1   107.9700462 569.024000
   2999   3000   3016     1   107.9700462 569.024000
   3000   2999   3005     1   110.1900474 564.840000
   3004   3000   3016     1   108.2900466 608.353600
   3008   2994   3016     1   107.9700462 569.024000
   3017   3018   3021     1   111.5100476 526.347200
   3017   3018   3030     1   110.1900474 564.840000
   3017   3031   3037     1   110.1900474 564.840000
   3017   3039   3023     1   112.4800480 524.673600
   3018   3021   3022     1   111.5100476 526.347200
   3018   3021   3029     1   110.1900474 564.840000
   3018   3017   3031     1   111.5100476 526.347200
   3018   3017   3039     1   107.9700462 569.024000
   3021   3022   3023     1   111.5100476 526.347200
   3021   3022   3028     1   110.1900474 564.840000
   3021   3018   3030     1   110.1900474 564.840000
   3022   3023   3027     1   107.9700462 569.024000
   3022   3023   3039     1   107.9700462 569.024000
   3022   3021   3029     1   110.1900474 564.840000
   3023   3022   3028     1   110.1900474 564.840000
   3027   3023   3039     1   108.2900466 608.353600
   3031   3017   3039     1   107.9700462 569.024000
   3040   3041   3044     1   111.5100476 526.347200
   3040   3041   3053     1   110.1900474 564.840000
   3040   3054   3060     1   110.1900474 564.840000
   3040   3062   3046     1   112.4800480 524.673600
   3041   3040   3054     1   111.5100476 526.347200
   3041   3040   3062     1   107.9700462 569.024000
   3041   3044   3045     1   111.5100476 526.347200
   3041   3044   3052     1   110.1900474 564.840000
   3044   3041   3053     1   110.1900474 564.840000
   3044   3045   3046     1   111.5100476 526.347200
   3044   3045   3051     1   110.1900474 564.840000
   3045   3044   3052     1   110.1900474 564.840000
   3045   3046   3050     1   107.9700462 569.024000
   3045   3046   3062     1   107.9700462 569.024000
   3046   3045   3051     1   110.1900474 564.840000
   3050   3046   3062     1   108.2900466 608.353600
   3054   3040   3062     1   107.9700462 569.024000
   3063   3064   3067     1   111.5100476 526.347200
   3063   3064   3076     1   110.1900474 564.840000
   3063   3077   3083     1   110.1900474 564.840000
   3063   3085   3069     1   112.4800480 524.673600
   3064   3067   3068     1   111.5100476 526.347200
   3064   3067   3075     1   110.1900474 564.840000
   3064   3063   3077     1   111.5100476 526.347200
   3064   3063   3085     1   107.9700462 569.024000
   3067   3068   3069     1   111.5100476 526.347200
   3067   3068   3074     1   110.1900474 564.840000
   3067   3064   3076     1   110.1900474 564.840000
   3068   3069   3073     1   107.9700462 569.024000
   3068   3069   3085     1   107.9700462 569.024000
   3068   3067   3075     1   110.1900474 564.840000
   3069   3068   3074     1   110.1900474 564.840000
   3073   3069   3085     1   108.2900466 608.353600
   3077   3063   3085     1   107.9700462 569.024000
   3086   3087   3090     1   111.5100476 526.347200
   3086   3087   3099     1   110.1900474 564.840000
   3086   3100   3106     1   110.1900474 564.840000
   3086   3108   3092     1   112.4800480 524.673600
   3087   3086   3100     1   111.5100476 526.347200
   3087   3086   3108     1   107.9700462 569.024000
   3087   3090   3091     1   111.5100476 526.347200
   3087   3090   3098     1   110.1900474 564.840000
   3090   3087   3099     1   110.1900474 564.840000
   3090   3091   3092     1   111.5100476 526.347200
   3090   3091   3097     1   110.1900474 564.840000
   3091   3090   3098     1   110.1900474 564.840000
   3091   3092   3096     1   107.9700462 569.024000
   3091   3092   3108     1   107.9700462 569.024000
   3092   3091   3097     1   110.1900474 564.840000
   3096   3092   3108     1   108.2900466 608.353600
   3100   3086   3108     1   107.9700462 569.024000
   3109   3110   3113     1   111.5100476 526.347200
   3109   3110   3122     1   110.1900474 564.840000
   3109   3123   3129     1   110.1900474 564.840000
   3109   3131   3115     1   112.4800480 524.673600
   3110   3113   3114     1   111.5100476 526.347200
   3110   3113   3121     1   110.1900474 564.840000
   3110   3109   3123     1   111.5100476 526.347200
   3110   3109   3131     1   107.9700462 569.024000
   3113   3114   3115     1   111.5100476 526.347200
   3113   3114   3120     1   110.1900474 564.840000
   3113   3110   3122     1   110.1900474 564.840000
   3114   3115   3119     1   107.9700462 569.024000
   3114   3115   3131     1   107.9700462 569.024000
   3114   3113   3121     1   110.1900474 564.840000
   3115   3114   3120     1   110.1900474 564.840000
   3119   3115   3131     1   108.2900466 608.353600
   3123   3109   3131     1   107.9700462 569.024000
   3132   3133   3136     1   111.5100476 526.347200
   3132   3133   3145     1   110.1900474 564.840000
   3132   3146   3152     1   110.1900474 564.840000
   3132   3154   3138     1   112.4800480 524.673600
   3133   3132   3146     1   111.5100476 526.347200
   3133   3132   3154     1   107.9700462 569.024000
   3133   3136   3137     1   111.5100476 526.347200
   3133   3136   3144     1   110.1900474 564.840000
   3136   3133   3145     1   110.1900474 564.840000
   3136   3137   3138     1   111.5100476 526.347200
   3136   3137   3143     1   110.1900474 564.840000
   3137   3136   3144     1   110.1900474 564.840000
   3137   3138   3142     1   107.9700462 569.024000
   3137   3138   3154     1   107.9700462 569.024000
   3138   3137   3143     1   110.1900474 564.840000
   3142   3138   3154     1   108.2900466 608.353600
   3146   3132   3154     1   107.9700462 569.024000
   3155   3156   3159     1   111.5100476 526.347200
   3155   3156   3168     1   110.1900474 564.840000
   3155   3169   3175     1   110.1900474 564.840000
   3155   3177   3161     1   112.4800480 524.673600
   3156   3159   3160     1   111.5100476 526.347200
   3156   3159   3167     1   110.1900474 564.840000
   3156   3155   3169     1   111.5100476 526.347200
   3156   3155   3177     1   107.9700462 569.024000
   3159   3160   3161     1   111.5100476 526.347200
   3159   3160   3166     1   110.1900474 564.840000
   3159   3156   3168     1   110.1900474 564.840000
   3160   3161   3165     1   107.9700462 569.024000
   3160   3161   3177     1   107.9700462 569.024000
   3160   3159   3167     1   110.1900474 564.840000
   3161   3160   3166     1   110.1900474 564.840000
   3165   3161   3177     1   108.2900466 608.353600
   3169   3155   3177     1   107.9700462 569.024000
   3178   3179   3182     1   111.5100476 526.347200
   3178   3179   3191     1   110.1900474 564.840000
   3178   3192   3198     1   110.1900474 564.840000
   3178   3200   3184     1   112.4800480 524.673600
   3179   3178   3192     1   111.5100476 526.347200
   3179   3178   3200     1   107.9700462 569.024000
   3179   3182   3183     1   111.5100476 526.347200
   3179   3182   3190     1   110.1900474 564.840000
   3182   3179   3191     1   110.1900474 564.840000
   3182   3183   3184     1   111.5100476 526.347200
   3182   3183   3189     1   110.1900474 564.840000
   3183   3182   3190     1   110.1900474 564.840000
   3183   3184   3188     1   107.9700462 569.024000
   3183   3184   3200     1   107.9700462 569.024000
   3184   3183   3189     1   110.1900474 564.840000
   3188   3184   3200     1   108.2900466 608.353600
   3192   3178   3200     1   107.9700462 569.024000
   3201   3202   3205     1   111.5100476 526.347200
   3201   3202   3214     1   110.1900474 564.840000
   3201   3215   3221     1   110.1900474 564.840000
   3201   3223   3207     1   112.4800480 524.673600
   3202   3205   3206     1   111.5100476 526.347200
   3202   3205   3213     1   110.1900474 564.840000
   3202   3201   3215     1   111.5100476 526.347200
   3202   3201   3223     1   107.9700462 569.024000
   3205   3206   3207     1   111.5100476 526.347200
   3205   3206   3212     1   110.1900474 564.840000
   3205   3202   3214     1   110.1900474 564.840000
   3206   3207   3211     1   107.9700462 569.024000
   3206   3207   3223     1   107.9700462 569.024000
   3206   3205   3213     1   110.1900474 564.840000
   3207   3206   3212     1   110.1900474 564.840000
   3211   3207   3223     1   108.2900466 608.353600
   3215   3201   3223     1   107.9700462 569.024000
   3224   3225   3228     1   111.5100476 526.347200
   3224   3225   3237     1   110.1900474 564.840000
   3224   3238   3244     1   110.1900474 564.840000
   3224   3246   3230     1   112.4800480 524.673600
   3225   3224   3238     1   111.5100476 526.347200
   3225   3224   3246     1   107.9700462 569.024000
   3225   3228   3229     1   111.5100476 526.347200
   3225   3228   3236     1   110.1900474 564.840000
   3228   3225   3237     1   110.1900474 564.840000
   3228   3229   3230     1   111.5100476 526.347200
   3228   3229   3235     1   110.1900474 564.840000
   3229   3228   3236     1   110.1900474 564.840000
   3229   3230   3234     1   107.9700462 569.024000
   3229   3230   3246     1   107.9700462 569.024000
   3230   3229   3235     1   110.1900474 564.840000
   3234   3230   3246     1   108.2900466 608.353600
   3238   3224   3246     1   107.9700462 569.024000
   3247   3248   3251     1   111.5100476 526.347200
   3247   3248   3260     1   110.1900474 564.840000
   3247   3261   3267     1   110.1900474 564.840000
   3247   3269   3253     1   112.4800480 524.673600
   3248   3251   3252     1   111.5100476 526.347200
   3248   3251   3259     1   110.1900474 564.840000
   3248   3247   3261     1   111.5100476 526.347200
   3248   3247   3269     1   107.9700462 569.024000
   3251   3252   3253     1   111.5100476 526.347200
   3251   3252   3258     1   110.1900474 564.840000
   3251   3248   3260     1   110.1900474 564.840000
   3252   3253   3257     1   107.9700462 569.024000
   3252   3253   3269     1   107.9700462 569.024000
   3252   3251   3259     1   110.1900474 564.840000
   3253   3252   3258     1   110.1900474 564.840000
   3257   3253   3269     1   108.2900466 608.353600
   3261   3247   3269     1   107.9700462 569.024000
      1      2      3     1   109.7800468 425.094400
      1      2      4     1   109.7800468 425.094400
      1      5      6     1   109.7800468 425.094400
      1      5      7     1   109.7800468 425.094400
      2      8      9     1   109.8000471 387.438400
      2      8     10     1   109.8000471 387.438400
      3      2      8     1   109.5600471 388.275200
      3      2      4     1   108.4600466 328.025600
      4      2      8     1   109.5600471 388.275200
      5     11     12     1   109.8000471 387.438400
      5     11     13     1   109.8000471 387.438400
      6      5     11     1   109.5600471 388.275200
      6      5      7     1   108.4600466 328.025600
      7      5     11     1   109.5600471 388.275200
      8     14     15     1   109.5600471 388.275200
      8     14     16     1   109.5600471 388.275200
      9      8     14     1   109.8000471 387.438400
      9      8     10     1   107.5800459 329.699200
     10      8     14     1   109.8000471 387.438400
     11     17     18     1   109.5600471 388.275200
     11     17     19     1   109.5600471 388.275200
     12     11     17     1   109.8000471 387.438400
     12     11     13     1   107.5800459 329.699200
     13     11     17     1   109.8000471 387.438400
     15     14     20     1   109.8800469 414.216000
     15     14     16     1   108.4600466 328.025600
     16     14     20     1   109.8800469 414.216000
     18     17     21     1   109.8800469 414.216000
     18     17     19     1   108.4600466 328.025600
     19     17     21     1   109.8800469 414.216000
     20     28     29     1   109.8800469 414.216000
     20     28     30     1   109.8800469 414.216000
     20     31     32     1   109.8800469 414.216000
     20     31     33     1   109.8800469 414.216000
     21     22     23     1   109.8800469 414.216000
     21     22     24     1   109.8800469 414.216000
     21     25     26     1   109.8800469 414.216000
     21     25     27     1   109.8800469 414.216000
     22     34     35     1   109.8000471 387.438400
     22     34     36     1   109.8000471 387.438400
     23     22     34     1   109.5600471 388.275200
     23     22     24     1   108.4600466 328.025600
     24     22     34     1   109.5600471 388.275200
     25     37     38     1   109.8000471 387.438400
     25     37     39     1   109.8000471 387.438400
     26     25     37     1   109.5600471 388.275200
     26     25     27     1   108.4600466 328.025600
     27     25     37     1   109.5600471 388.275200
     28     40     41     1   109.8000471 387.438400
     28     40     42     1   109.8000471 387.438400
     29     28     40     1   109.5600471 388.275200
     29     28     30     1   108.4600466 328.025600
     30     28     40     1   109.5600471 388.275200
     31     43     44     1   109.8000471 387.438400
     31     43     45     1   109.8000471 387.438400
     32     31     43     1   109.5600471 388.275200
     32     31     33     1   108.4600466 328.025600
     33     31     43     1   109.5600471 388.275200
     34     55     56     1   109.5600471 388.275200
     34     55     57     1   109.5600471 388.275200
     35     34     55     1   109.8000471 387.438400
     35     34     36     1   107.5800459 329.699200
     36     34     55     1   109.8000471 387.438400
     37     52     53     1   109.5600471 388.275200
     37     52     54     1   109.5600471 388.275200
     38     37     52     1   109.8000471 387.438400
     38     37     39     1   107.5800459 329.699200
     39     37     52     1   109.8000471 387.438400
     40     49     50     1   109.5600471 388.275200
     40     49     51     1   109.5600471 388.275200
     41     40     49     1   109.8000471 387.438400
     41     40     42     1   107.5800459 329.699200
     42     40     49     1   109.8000471 387.438400
     43     46     47     1   109.5600471 388.275200
     43     46     48     1   109.5600471 388.275200
     44     43     46     1   109.8000471 387.438400
     44     43     45     1   107.5800459 329.699200
     45     43     46     1   109.8000471 387.438400
     47     46     86     1   109.7800468 425.094400
     47     46     48     1   108.4600466 328.025600
     48     46     86     1   109.7800468 425.094400
     50     49    115     1   109.7800468 425.094400
     50     49     51     1   108.4600466 328.025600
     51     49    115     1   109.7800468 425.094400
     53     52    144     1   109.7800468 425.094400
     53     52     54     1   108.4600466 328.025600
     54     52    144     1   109.7800468 425.094400
     56     55    173     1   109.7800468 425.094400
     56     55     57     1   108.4600466 328.025600
     57     55    173     1   109.7800468 425.094400
     58     59     60     1   109.8800469 414.216000
     58     59     61     1   109.8800469 414.216000
     58     62     63     1   109.8800469 414.216000
     58     62     64     1   109.8800469 414.216000
     58     65     66     1   109.8800469 414.216000
     58     65     67     1   109.8800469 414.216000
     59     71     72     1   109.8000471 387.438400
     59     71     73     1   109.8000471 387.438400
     60     59     71     1   109.5600471 388.275200
     60     59     61     1   108.4600466 328.025600
     61     59     71     1   109.5600471 388.275200
     62     74     75     1   109.8000471 387.438400
     62     74     76     1   109.8000471 387.438400
     63     62     74     1   109.5600471 388.275200
     63     62     64     1   108.4600466 328.025600
     64     62     74     1   109.5600471 388.275200
     65     68     69     1   109.8000471 387.438400
     65     68     70     1   109.8000471 387.438400
     66     65     68     1   109.5600471 388.275200
     66     65     67     1   108.4600466 328.025600
     67     65     68     1   109.5600471 388.275200
     68     77     78     1   109.5600471 388.275200
     68     77     79     1   109.5600471 388.275200
     69     68     77     1   109.8000471 387.438400
     69     68     70     1   107.5800459 329.699200
     70     68     77     1   109.8000471 387.438400
     71     83     84     1   109.5600471 388.275200
     71     83     85     1   109.5600471 388.275200
     72     71     83     1   109.8000471 387.438400
     72     71     73     1   107.5800459 329.699200
     73     71     83     1   109.8000471 387.438400
     74     80     81     1   109.5600471 388.275200
     74     80     82     1   109.5600471 388.275200
     75     74     80     1   109.8000471 387.438400
     75     74     76     1   107.5800459 329.699200
     76     74     80     1   109.8000471 387.438400
     78     77     86     1   109.7800468 425.094400
     78     77     79     1   108.4600466 328.025600
     79     77     86     1   109.7800468 425.094400
     81     80    202     1   109.7800468 425.094400
     81     80     82     1   108.4600466 328.025600
     82     80    202     1   109.7800468 425.094400
     84     83    231     1   109.7800468 425.094400
     84     83     85     1   108.4600466 328.025600
     85     83    231     1   109.7800468 425.094400
     87     88     89     1   109.8800469 414.216000
     87     88     90     1   109.8800469 414.216000
     87     91     92     1   109.8800469 414.216000
     87     91     93     1   109.8800469 414.216000
     87     94     95     1   109.8800469 414.216000
     87     94     96     1   109.8800469 414.216000
     88    100    101     1   109.8000471 387.438400
     88    100    102     1   109.8000471 387.438400
     89     88    100     1   109.5600471 388.275200
     89     88     90     1   108.4600466 328.025600
     90     88    100     1   109.5600471 388.275200
     91    103    104     1   109.8000471 387.438400
     91    103    105     1   109.8000471 387.438400
     92     91    103     1   109.5600471 388.275200
     92     91     93     1   108.4600466 328.025600
     93     91    103     1   109.5600471 388.275200
     94     97     98     1   109.8000471 387.438400
     94     97     99     1   109.8000471 387.438400
     95     94     97     1   109.5600471 388.275200
     95     94     96     1   108.4600466 328.025600
     96     94     97     1   109.5600471 388.275200
     97    106    107     1   109.5600471 388.275200
     97    106    108     1   109.5600471 388.275200
     98     97    106     1   109.8000471 387.438400
     98     97     99     1   107.5800459 329.699200
     99     97    106     1   109.8000471 387.438400
    100    112    113     1   109.5600471 388.275200
    100    112    114     1   109.5600471 388.275200
    101    100    112     1   109.8000471 387.438400
    101    100    102     1   107.5800459 329.699200
    102    100    112     1   109.8000471 387.438400
    103    109    110     1   109.5600471 388.275200
    103    109    111     1   109.5600471 388.275200
    104    103    109     1   109.8000471 387.438400
    104    103    105     1   107.5800459 329.699200
    105    103    109     1   109.8000471 387.438400
    107    106    115     1   109.7800468 425.094400
    107    106    108     1   108.4600466 328.025600
    108    106    115     1   109.7800468 425.094400
    110    109    260     1   109.7800468 425.094400
    110    109    111     1   108.4600466 328.025600
    111    109    260     1   109.7800468 425.094400
    113    112    289     1   109.7800468 425.094400
    113    112    114     1   108.4600466 328.025600
    114    112    289     1   109.7800468 425.094400
    116    117    118     1   109.8800469 414.216000
    116    117    119     1   109.8800469 414.216000
    116    120    121     1   109.8800469 414.216000
    116    120    122     1   109.8800469 414.216000
    116    123    124     1   109.8800469 414.216000
    116    123    125     1   109.8800469 414.216000
    117    129    130     1   109.8000471 387.438400
    117    129    131     1   109.8000471 387.438400
    118    117    129     1   109.5600471 388.275200
    118    117    119     1   108.4600466 328.025600
    119    117    129     1   109.5600471 388.275200
    120    132    133     1   109.8000471 387.438400
    120    132    134     1   109.8000471 387.438400
    121    120    132     1   109.5600471 388.275200
    121    120    122     1   108.4600466 328.025600
    122    120    132     1   109.5600471 388.275200
    123    126    127     1   109.8000471 387.438400
    123    126    128     1   109.8000471 387.438400
    124    123    126     1   109.5600471 388.275200
    124    123    125     1   108.4600466 328.025600
    125    123    126     1   109.5600471 388.275200
    126    135    136     1   109.5600471 388.275200
    126    135    137     1   109.5600471 388.275200
    127    126    135     1   109.8000471 387.438400
    127    126    128     1   107.5800459 329.699200
    128    126    135     1   109.8000471 387.438400
    129    141    142     1   109.5600471 388.275200
    129    141    143     1   109.5600471 388.275200
    130    129    141     1   109.8000471 387.438400
    130    129    131     1   107.5800459 329.699200
    131    129    141     1   109.8000471 387.438400
    132    138    139     1   109.5600471 388.275200
    132    138    140     1   109.5600471 388.275200
    133    132    138     1   109.8000471 387.438400
    133    132    134     1   107.5800459 329.699200
    134    132    138     1   109.8000471 387.438400
    136    135    144     1   109.7800468 425.094400
    136    135    137     1   108.4600466 328.025600
    137    135    144     1   109.7800468 425.094400
    139    138    318     1   109.7800468 425.094400
    139    138    140     1   108.4600466 328.025600
    140    138    318     1   109.7800468 425.094400
    142    141    347     1   109.7800468 425.094400
    142    141    143     1   108.4600466 328.025600
    143    141    347     1   109.7800468 425.094400
    145    146    147     1   109.8800469 414.216000
    145    146    148     1   109.8800469 414.216000
    145    149    150     1   109.8800469 414.216000
    145    149    151     1   109.8800469 414.216000
    145    152    153     1   109.8800469 414.216000
    145    152    154     1   109.8800469 414.216000
    146    158    159     1   109.8000471 387.438400
    146    158    160     1   109.8000471 387.438400
    147    146    158     1   109.5600471 388.275200
    147    146    148     1   108.4600466 328.025600
    148    146    158     1   109.5600471 388.275200
    149    161    162     1   109.8000471 387.438400
    149    161    163     1   109.8000471 387.438400
    150    149    161     1   109.5600471 388.275200
    150    149    151     1   108.4600466 328.025600
    151    149    161     1   109.5600471 388.275200
    152    155    156     1   109.8000471 387.438400
    152    155    157     1   109.8000471 387.438400
    153    152    155     1   109.5600471 388.275200
    153    152    154     1   108.4600466 328.025600
    154    152    155     1   109.5600471 388.275200
    155    164    165     1   109.5600471 388.275200
    155    164    166     1   109.5600471 388.275200
    156    155    164     1   109.8000471 387.438400
    156    155    157     1   107.5800459 329.699200
    157    155    164     1   109.8000471 387.438400
    158    170    171     1   109.5600471 388.275200
    158    170    172     1   109.5600471 388.275200
    159    158    170     1   109.8000471 387.438400
    159    158    160     1   107.5800459 329.699200
    160    158    170     1   109.8000471 387.438400
    161    167    168     1   109.5600471 388.275200
    161    167    169     1   109.5600471 388.275200
    162    161    167     1   109.8000471 387.438400
    162    161    163     1   107.5800459 329.699200
    163    161    167     1   109.8000471 387.438400
    165    164    173     1   109.7800468 425.094400
    165    164    166     1   108.4600466 328.025600
    166    164    173     1   109.7800468 425.094400
    168    167    376     1   109.7800468 425.094400
    168    167    169     1   108.4600466 328.025600
    169    167    376     1   109.7800468 425.094400
    171    170    405     1   109.7800468 425.094400
    171    170    172     1   108.4600466 328.025600
    172    170    405     1   109.7800468 425.094400
    174    175    176     1   109.8800469 414.216000
    174    175    177     1   109.8800469 414.216000
    174    178    179     1   109.8800469 414.216000
    174    178    180     1   109.8800469 414.216000
    174    181    182     1   109.8800469 414.216000
    174    181    183     1   109.8800469 414.216000
    175    187    188     1   109.8000471 387.438400
    175    187    189     1   109.8000471 387.438400
    176    175    187     1   109.5600471 388.275200
    176    175    177     1   108.4600466 328.025600
    177    175    187     1   109.5600471 388.275200
    178    190    191     1   109.8000471 387.438400
    178    190    192     1   109.8000471 387.438400
    179    178    190     1   109.5600471 388.275200
    179    178    180     1   108.4600466 328.025600
    180    178    190     1   109.5600471 388.275200
    181    184    185     1   109.8000471 387.438400
    181    184    186     1   109.8000471 387.438400
    182    181    184     1   109.5600471 388.275200
    182    181    183     1   108.4600466 328.025600
    183    181    184     1   109.5600471 388.275200
    184    193    194     1   109.5600471 388.275200
    184    193    195     1   109.5600471 388.275200
    185    184    193     1   109.8000471 387.438400
    185    184    186     1   107.5800459 329.699200
    186    184    193     1   109.8000471 387.438400
    187    199    200     1   109.5600471 388.275200
    187    199    201     1   109.5600471 388.275200
    188    187    199     1   109.8000471 387.438400
    188    187    189     1   107.5800459 329.699200
    189    187    199     1   109.8000471 387.438400
    190    196    197     1   109.5600471 388.275200
    190    196    198     1   109.5600471 388.275200
    191    190    196     1   109.8000471 387.438400
    191    190    192     1   107.5800459 329.699200
    192    190    196     1   109.8000471 387.438400
    194    193    202     1   109.7800468 425.094400
    194    193    195     1   108.4600466 328.025600
    195    193    202     1   109.7800468 425.094400
    197    196    434     1   109.7800468 425.094400
    197    196    198     1   108.4600466 328.025600
    198    196    434     1   109.7800468 425.094400
    200    199    463     1   109.7800468 425.094400
    200    199    201     1   108.4600466 328.025600
    201    199    463     1   109.7800468 425.094400
    203    204    205     1   109.8800469 414.216000
    203    204    206     1   109.8800469 414.216000
    203    207    208     1   109.8800469 414.216000
    203    207    209     1   109.8800469 414.216000
    203    210    211     1   109.8800469 414.216000
    203    210    212     1   109.8800469 414.216000
    204    216    217     1   109.8000471 387.438400
    204    216    218     1   109.8000471 387.438400
    205    204    216     1   109.5600471 388.275200
    205    204    206     1   108.4600466 328.025600
    206    204    216     1   109.5600471 388.275200
    207    219    220     1   109.8000471 387.438400
    207    219    221     1   109.8000471 387.438400
    208    207    219     1   109.5600471 388.275200
    208    207    209     1   108.4600466 328.025600
    209    207    219     1   109.5600471 388.275200
    210    213    214     1   109.8000471 387.438400
    210    213    215     1   109.8000471 387.438400
    211    210    213     1   109.5600471 388.275200
    211    210    212     1   108.4600466 328.025600
    212    210    213     1   109.5600471 388.275200
    213    222    223     1   109.5600471 388.275200
    213    222    224     1   109.5600471 388.275200
    214    213    222     1   109.8000471 387.438400
    214    213    215     1   107.5800459 329.699200
    215    213    222     1   109.8000471 387.438400
    216    228    229     1   109.5600471 388.275200
    216    228    230     1   109.5600471 388.275200
    217    216    228     1   109.8000471 387.438400
    217    216    218     1   107.5800459 329.699200
    218    216    228     1   109.8000471 387.438400
    219    225    226     1   109.5600471 388.275200
    219    225    227     1   109.5600471 388.275200
    220    219    225     1   109.8000471 387.438400
    220    219    221     1   107.5800459 329.699200
    221    219    225     1   109.8000471 387.438400
    223    222    231     1   109.7800468 425.094400
    223    222    224     1   108.4600466 328.025600
    224    222    231     1   109.7800468 425.094400
    226    225    492     1   109.7800468 425.094400
    226    225    227     1   108.4600466 328.025600
    227    225    492     1   109.7800468 425.094400
    229    228    521     1   109.7800468 425.094400
    229    228    230     1   108.4600466 328.025600
    230    228    521     1   109.7800468 425.094400
    232    233    234     1   109.8800469 414.216000
    232    233    235     1   109.8800469 414.216000
    232    236    237     1   109.8800469 414.216000
    232    236    238     1   109.8800469 414.216000
    232    239    240     1   109.8800469 414.216000
    232    239    241     1   109.8800469 414.216000
    233    245    246     1   109.8000471 387.438400
    233    245    247     1   109.8000471 387.438400
    234    233    245     1   109.5600471 388.275200
    234    233    235     1   108.4600466 328.025600
    235    233    245     1   109.5600471 388.275200
    236    248    249     1   109.8000471 387.438400
    236    248    250     1   109.8000471 387.438400
    237    236    248     1   109.5600471 388.275200
    237    236    238     1   108.4600466 328.025600
    238    236    248     1   109.5600471 388.275200
    239    242    243     1   109.8000471 387.438400
    239    242    244     1   109.8000471 387.438400
    240    239    242     1   109.5600471 388.275200
    240    239    241     1   108.4600466 328.025600
    241    239    242     1   109.5600471 388.275200
    242    251    252     1   109.5600471 388.275200
    242    251    253     1   109.5600471 388.275200
    243    242    251     1   109.8000471 387.438400
    243    242    244     1   107.5800459 329.699200
    244    242    251     1   109.8000471 387.438400
    245    257    258     1   109.5600471 388.275200
    245    257    259     1   109.5600471 388.275200
    246    245    257     1   109.8000471 387.438400
    246    245    247     1   107.5800459 329.699200
    247    245    257     1   109.8000471 387.438400
    248    254    255     1   109.5600471 388.275200
    248    254    256     1   109.5600471 388.275200
    249    248    254     1   109.8000471 387.438400
    249    248    250     1   107.5800459 329.699200
    250    248    254     1   109.8000471 387.438400
    252    251    260     1   109.7800468 425.094400
    252    251    253     1   108.4600466 328.025600
    253    251    260     1   109.7800468 425.094400
    255    254    550     1   109.7800468 425.094400
    255    254    256     1   108.4600466 328.025600
    256    254    550     1   109.7800468 425.094400
    258    257    579     1   109.7800468 425.094400
    258    257    259     1   108.4600466 328.025600
    259    257    579     1   109.7800468 425.094400
    261    262    263     1   109.8800469 414.216000
    261    262    264     1   109.8800469 414.216000
    261    265    266     1   109.8800469 414.216000
    261    265    267     1   109.8800469 414.216000
    261    268    269     1   109.8800469 414.216000
    261    268    270     1   109.8800469 414.216000
    262    274    275     1   109.8000471 387.438400
    262    274    276     1   109.8000471 387.438400
    263    262    274     1   109.5600471 388.275200
    263    262    264     1   108.4600466 328.025600
    264    262    274     1   109.5600471 388.275200
    265    277    278     1   109.8000471 387.438400
    265    277    279     1   109.8000471 387.438400
    266    265    277     1   109.5600471 388.275200
    266    265    267     1   108.4600466 328.025600
    267    265    277     1   109.5600471 388.275200
    268    271    272     1   109.8000471 387.438400
    268    271    273     1   109.8000471 387.438400
    269    268    271     1   109.5600471 388.275200
    269    268    270     1   108.4600466 328.025600
    270    268    271     1   109.5600471 388.275200
    271    280    281     1   109.5600471 388.275200
    271    280    282     1   109.5600471 388.275200
    272    271    280     1   109.8000471 387.438400
    272    271    273     1   107.5800459 329.699200
    273    271    280     1   109.8000471 387.438400
    274    286    287     1   109.5600471 388.275200
    274    286    288     1   109.5600471 388.275200
    275    274    286     1   109.8000471 387.438400
    275    274    276     1   107.5800459 329.699200
    276    274    286     1   109.8000471 387.438400
    277    283    284     1   109.5600471 388.275200
    277    283    285     1   109.5600471 388.275200
    278    277    283     1   109.8000471 387.438400
    278    277    279     1   107.5800459 329.699200
    279    277    283     1   109.8000471 387.438400
    281    280    289     1   109.7800468 425.094400
    281    280    282     1   108.4600466 328.025600
    282    280    289     1   109.7800468 425.094400
    284    283    608     1   109.7800468 425.094400
    284    283    285     1   108.4600466 328.025600
    285    283    608     1   109.7800468 425.094400
    287    286    637     1   109.7800468 425.094400
    287    286    288     1   108.4600466 328.025600
    288    286    637     1   109.7800468 425.094400
    290    291    292     1   109.8800469 414.216000
    290    291    293     1   109.8800469 414.216000
    290    294    295     1   109.8800469 414.216000
    290    294    296     1   109.8800469 414.216000
    290    297    298     1   109.8800469 414.216000
    290    297    299     1   109.8800469 414.216000
    291    303    304     1   109.8000471 387.438400
    291    303    305     1   109.8000471 387.438400
    292    291    303     1   109.5600471 388.275200
    292    291    293     1   108.4600466 328.025600
    293    291    303     1   109.5600471 388.275200
    294    306    307     1   109.8000471 387.438400
    294    306    308     1   109.8000471 387.438400
    295    294    306     1   109.5600471 388.275200
    295    294    296     1   108.4600466 328.025600
    296    294    306     1   109.5600471 388.275200
    297    300    301     1   109.8000471 387.438400
    297    300    302     1   109.8000471 387.438400
    298    297    300     1   109.5600471 388.275200
    298    297    299     1   108.4600466 328.025600
    299    297    300     1   109.5600471 388.275200
    300    309    310     1   109.5600471 388.275200
    300    309    311     1   109.5600471 388.275200
    301    300    309     1   109.8000471 387.438400
    301    300    302     1   107.5800459 329.699200
    302    300    309     1   109.8000471 387.438400
    303    315    316     1   109.5600471 388.275200
    303    315    317     1   109.5600471 388.275200
    304    303    315     1   109.8000471 387.438400
    304    303    305     1   107.5800459 329.699200
    305    303    315     1   109.8000471 387.438400
    306    312    313     1   109.5600471 388.275200
    306    312    314     1   109.5600471 388.275200
    307    306    312     1   109.8000471 387.438400
    307    306    308     1   107.5800459 329.699200
    308    306    312     1   109.8000471 387.438400
    310    309    318     1   109.7800468 425.094400
    310    309    311     1   108.4600466 328.025600
    311    309    318     1   109.7800468 425.094400
    313    312    666     1   109.7800468 425.094400
    313    312    314     1   108.4600466 328.025600
    314    312    666     1   109.7800468 425.094400
    316    315    695     1   109.7800468 425.094400
    316    315    317     1   108.4600466 328.025600
    317    315    695     1   109.7800468 425.094400
    319    320    321     1   109.8800469 414.216000
    319    320    322     1   109.8800469 414.216000
    319    323    324     1   109.8800469 414.216000
    319    323    325     1   109.8800469 414.216000
    319    326    327     1   109.8800469 414.216000
    319    326    328     1   109.8800469 414.216000
    320    332    333     1   109.8000471 387.438400
    320    332    334     1   109.8000471 387.438400
    321    320    332     1   109.5600471 388.275200
    321    320    322     1   108.4600466 328.025600
    322    320    332     1   109.5600471 388.275200
    323    335    336     1   109.8000471 387.438400
    323    335    337     1   109.8000471 387.438400
    324    323    335     1   109.5600471 388.275200
    324    323    325     1   108.4600466 328.025600
    325    323    335     1   109.5600471 388.275200
    326    329    330     1   109.8000471 387.438400
    326    329    331     1   109.8000471 387.438400
    327    326    329     1   109.5600471 388.275200
    327    326    328     1   108.4600466 328.025600
    328    326    329     1   109.5600471 388.275200
    329    338    339     1   109.5600471 388.275200
    329    338    340     1   109.5600471 388.275200
    330    329    338     1   109.8000471 387.438400
    330    329    331     1   107.5800459 329.699200
    331    329    338     1   109.8000471 387.438400
    332    344    345     1   109.5600471 388.275200
    332    344    346     1   109.5600471 388.275200
    333    332    344     1   109.8000471 387.438400
    333    332    334     1   107.5800459 329.699200
    334    332    344     1   109.8000471 387.438400
    335    341    342     1   109.5600471 388.275200
    335    341    343     1   109.5600471 388.275200
    336    335    341     1   109.8000471 387.438400
    336    335    337     1   107.5800459 329.699200
    337    335    341     1   109.8000471 387.438400
    339    338    347     1   109.7800468 425.094400
    339    338    340     1   108.4600466 328.025600
    340    338    347     1   109.7800468 425.094400
    342    341    724     1   109.7800468 425.094400
    342    341    343     1   108.4600466 328.025600
    343    341    724     1   109.7800468 425.094400
    345    344    753     1   109.7800468 425.094400
    345    344    346     1   108.4600466 328.025600
    346    344    753     1   109.7800468 425.094400
    348    349    350     1   109.8800469 414.216000
    348    349    351     1   109.8800469 414.216000
    348    352    353     1   109.8800469 414.216000
    348    352    354     1   109.8800469 414.216000
    348    355    356     1   109.8800469 414.216000
    348    355    357     1   109.8800469 414.216000
    349    361    362     1   109.8000471 387.438400
    349    361    363     1   109.8000471 387.438400
    350    349    361     1   109.5600471 388.275200
    350    349    351     1   108.4600466 328.025600
    351    349    361     1   109.5600471 388.275200
    352    364    365     1   109.8000471 387.438400
    352    364    366     1   109.8000471 387.438400
    353    352    364     1   109.5600471 388.275200
    353    352    354     1   108.4600466 328.025600
    354    352    364     1   109.5600471 388.275200
    355    358    359     1   109.8000471 387.438400
    355    358    360     1   109.8000471 387.438400
    356    355    358     1   109.5600471 388.275200
    356    355    357     1   108.4600466 328.025600
    357    355    358     1   109.5600471 388.275200
    358    367    368     1   109.5600471 388.275200
    358    367    369     1   109.5600471 388.275200
    359    358    367     1   109.8000471 387.438400
    359    358    360     1   107.5800459 329.699200
    360    358    367     1   109.8000471 387.438400
    361    373    374     1   109.5600471 388.275200
    361    373    375     1   109.5600471 388.275200
    362    361    373     1   109.8000471 387.438400
    362    361    363     1   107.5800459 329.699200
    363    361    373     1   109.8000471 387.438400
    364    370    371     1   109.5600471 388.275200
    364    370    372     1   109.5600471 388.275200
    365    364    370     1   109.8000471 387.438400
    365    364    366     1   107.5800459 329.699200
    366    364    370     1   109.8000471 387.438400
    368    367    376     1   109.7800468 425.094400
    368    367    369     1   108.4600466 328.025600
    369    367    376     1   109.7800468 425.094400
    371    370    782     1   109.7800468 425.094400
    371    370    372     1   108.4600466 328.025600
    372    370    782     1   109.7800468 425.094400
    374    373    811     1   109.7800468 425.094400
    374    373    375     1   108.4600466 328.025600
    375    373    811     1   109.7800468 425.094400
    377    378    379     1   109.8800469 414.216000
    377    378    380     1   109.8800469 414.216000
    377    381    382     1   109.8800469 414.216000
    377    381    383     1   109.8800469 414.216000
    377    384    385     1   109.8800469 414.216000
    377    384    386     1   109.8800469 414.216000
    378    390    391     1   109.8000471 387.438400
    378    390    392     1   109.8000471 387.438400
    379    378    390     1   109.5600471 388.275200
    379    378    380     1   108.4600466 328.025600
    380    378    390     1   109.5600471 388.275200
    381    393    394     1   109.8000471 387.438400
    381    393    395     1   109.8000471 387.438400
    382    381    393     1   109.5600471 388.275200
    382    381    383     1   108.4600466 328.025600
    383    381    393     1   109.5600471 388.275200
    384    387    388     1   109.8000471 387.438400
    384    387    389     1   109.8000471 387.438400
    385    384    387     1   109.5600471 388.275200
    385    384    386     1   108.4600466 328.025600
    386    384    387     1   109.5600471 388.275200
    387    396    397     1   109.5600471 388.275200
    387    396    398     1   109.5600471 388.275200
    388    387    396     1   109.8000471 387.438400
    388    387    389     1   107.5800459 329.699200
    389    387    396     1   109.8000471 387.438400
    390    402    403     1   109.5600471 388.275200
    390    402    404     1   109.5600471 388.275200
    391    390    402     1   109.8000471 387.438400
    391    390    392     1   107.5800459 329.699200
    392    390    402     1   109.8000471 387.438400
    393    399    400     1   109.5600471 388.275200
    393    399    401     1   109.5600471 388.275200
    394    393    399     1   109.8000471 387.438400
    394    393    395     1   107.5800459 329.699200
    395    393    399     1   109.8000471 387.438400
    397    396    405     1   109.7800468 425.094400
    397    396    398     1   108.4600466 328.025600
    398    396    405     1   109.7800468 425.094400
    400    399    840     1   109.7800468 425.094400
    400    399    401     1   108.4600466 328.025600
    401    399    840     1   109.7800468 425.094400
    403    402    869     1   109.7800468 425.094400
    403    402    404     1   108.4600466 328.025600
    404    402    869     1   109.7800468 425.094400
    406    407    408     1   109.8800469 414.216000
    406    407    409     1   109.8800469 414.216000
    406    410    411     1   109.8800469 414.216000
    406    410    412     1   109.8800469 414.216000
    406    413    414     1   109.8800469 414.216000
    406    413    415     1   109.8800469 414.216000
    407    419    420     1   109.8000471 387.438400
    407    419    421     1   109.8000471 387.438400
    408    407    419     1   109.5600471 388.275200
    408    407    409     1   108.4600466 328.025600
    409    407    419     1   109.5600471 388.275200
    410    422    423     1   109.8000471 387.438400
    410    422    424     1   109.8000471 387.438400
    411    410    422     1   109.5600471 388.275200
    411    410    412     1   108.4600466 328.025600
    412    410    422     1   109.5600471 388.275200
    413    416    417     1   109.8000471 387.438400
    413    416    418     1   109.8000471 387.438400
    414    413    416     1   109.5600471 388.275200
    414    413    415     1   108.4600466 328.025600
    415    413    416     1   109.5600471 388.275200
    416    425    426     1   109.5600471 388.275200
    416    425    427     1   109.5600471 388.275200
    417    416    425     1   109.8000471 387.438400
    417    416    418     1   107.5800459 329.699200
    418    416    425     1   109.8000471 387.438400
    419    431    432     1   109.5600471 388.275200
    419    431    433     1   109.5600471 388.275200
    420    419    431     1   109.8000471 387.438400
    420    419    421     1   107.5800459 329.699200
    421    419    431     1   109.8000471 387.438400
    422    428    429     1   109.5600471 388.275200
    422    428    430     1   109.5600471 388.275200
    423    422    428     1   109.8000471 387.438400
    423    422    424     1   107.5800459 329.699200
    424    422    428     1   109.8000471 387.438400
    426    425    434     1   109.7800468 425.094400
    426    425    427     1   108.4600466 328.025600
    427    425    434     1   109.7800468 425.094400
    429    428    898     1   109.7800468 425.094400
    429    428    430     1   108.4600466 328.025600
    430    428    898     1   109.7800468 425.094400
    432    431    927     1   109.7800468 425.094400
    432    431    433     1   108.4600466 328.025600
    433    431    927     1   109.7800468 425.094400
    435    436    437     1   109.8800469 414.216000
    435    436    438     1   109.8800469 414.216000
    435    439    440     1   109.8800469 414.216000
    435    439    441     1   109.8800469 414.216000
    435    442    443     1   109.8800469 414.216000
    435    442    444     1   109.8800469 414.216000
    436    448    449     1   109.8000471 387.438400
    436    448    450     1   109.8000471 387.438400
    437    436    448     1   109.5600471 388.275200
    437    436    438     1   108.4600466 328.025600
    438    436    448     1   109.5600471 388.275200
    439    451    452     1   109.8000471 387.438400
    439    451    453     1   109.8000471 387.438400
    440    439    451     1   109.5600471 388.275200
    440    439    441     1   108.4600466 328.025600
    441    439    451     1   109.5600471 388.275200
    442    445    446     1   109.8000471 387.438400
    442    445    447     1   109.8000471 387.438400
    443    442    445     1   109.5600471 388.275200
    443    442    444     1   108.4600466 328.025600
    444    442    445     1   109.5600471 388.275200
    445    454    455     1   109.5600471 388.275200
    445    454    456     1   109.5600471 388.275200
    446    445    454     1   109.8000471 387.438400
    446    445    447     1   107.5800459 329.699200
    447    445    454     1   109.8000471 387.438400
    448    460    461     1   109.5600471 388.275200
    448    460    462     1   109.5600471 388.275200
    449    448    460     1   109.8000471 387.438400
    449    448    450     1   107.5800459 329.699200
    450    448    460     1   109.8000471 387.438400
    451    457    458     1   109.5600471 388.275200
    451    457    459     1   109.5600471 388.275200
    452    451    457     1   109.8000471 387.438400
    452    451    453     1   107.5800459 329.699200
    453    451    457     1   109.8000471 387.438400
    455    454    463     1   109.7800468 425.094400
    455    454    456     1   108.4600466 328.025600
    456    454    463     1   109.7800468 425.094400
    458    457    956     1   109.7800468 425.094400
    458    457    459     1   108.4600466 328.025600
    459    457    956     1   109.7800468 425.094400
    461    460    985     1   109.7800468 425.094400
    461    460    462     1   108.4600466 328.025600
    462    460    985     1   109.7800468 425.094400
    464    465    466     1   109.8800469 414.216000
    464    465    467     1   109.8800469 414.216000
    464    468    469     1   109.8800469 414.216000
    464    468    470     1   109.8800469 414.216000
    464    471    472     1   109.8800469 414.216000
    464    471    473     1   109.8800469 414.216000
    465    477    478     1   109.8000471 387.438400
    465    477    479     1   109.8000471 387.438400
    466    465    477     1   109.5600471 388.275200
    466    465    467     1   108.4600466 328.025600
    467    465    477     1   109.5600471 388.275200
    468    480    481     1   109.8000471 387.438400
    468    480    482     1   109.8000471 387.438400
    469    468    480     1   109.5600471 388.275200
    469    468    470     1   108.4600466 328.025600
    470    468    480     1   109.5600471 388.275200
    471    474    475     1   109.8000471 387.438400
    471    474    476     1   109.8000471 387.438400
    472    471    474     1   109.5600471 388.275200
    472    471    473     1   108.4600466 328.025600
    473    471    474     1   109.5600471 388.275200
    474    483    484     1   109.5600471 388.275200
    474    483    485     1   109.5600471 388.275200
    475    474    483     1   109.8000471 387.438400
    475    474    476     1   107.5800459 329.699200
    476    474    483     1   109.8000471 387.438400
    477    489    490     1   109.5600471 388.275200
    477    489    491     1   109.5600471 388.275200
    478    477    489     1   109.8000471 387.438400
    478    477    479     1   107.5800459 329.699200
    479    477    489     1   109.8000471 387.438400
    480    486    487     1   109.5600471 388.275200
    480    486    488     1   109.5600471 388.275200
    481    480    486     1   109.8000471 387.438400
    481    480    482     1   107.5800459 329.699200
    482    480    486     1   109.8000471 387.438400
    484    483    492     1   109.7800468 425.094400
    484    483    485     1   108.4600466 328.025600
    485    483    492     1   109.7800468 425.094400
    487    486   1014     1   109.7800468 425.094400
    487    486    488     1   108.4600466 328.025600
    488    486   1014     1   109.7800468 425.094400
    490    489   1043     1   109.7800468 425.094400
    490    489    491     1   108.4600466 328.025600
    491    489   1043     1   109.7800468 425.094400
    493    494    495     1   109.8800469 414.216000
    493    494    496     1   109.8800469 414.216000
    493    497    498     1   109.8800469 414.216000
    493    497    499     1   109.8800469 414.216000
    493    500    501     1   109.8800469 414.216000
    493    500    502     1   109.8800469 414.216000
    494    506    507     1   109.8000471 387.438400
    494    506    508     1   109.8000471 387.438400
    495    494    506     1   109.5600471 388.275200
    495    494    496     1   108.4600466 328.025600
    496    494    506     1   109.5600471 388.275200
    497    509    510     1   109.8000471 387.438400
    497    509    511     1   109.8000471 387.438400
    498    497    509     1   109.5600471 388.275200
    498    497    499     1   108.4600466 328.025600
    499    497    509     1   109.5600471 388.275200
    500    503    504     1   109.8000471 387.438400
    500    503    505     1   109.8000471 387.438400
    501    500    503     1   109.5600471 388.275200
    501    500    502     1   108.4600466 328.025600
    502    500    503     1   109.5600471 388.275200
    503    512    513     1   109.5600471 388.275200
    503    512    514     1   109.5600471 388.275200
    504    503    512     1   109.8000471 387.438400
    504    503    505     1   107.5800459 329.699200
    505    503    512     1   109.8000471 387.438400
    506    518    519     1   109.5600471 388.275200
    506    518    520     1   109.5600471 388.275200
    507    506    518     1   109.8000471 387.438400
    507    506    508     1   107.5800459 329.699200
    508    506    518     1   109.8000471 387.438400
    509    515    516     1   109.5600471 388.275200
    509    515    517     1   109.5600471 388.275200
    510    509    515     1   109.8000471 387.438400
    510    509    511     1   107.5800459 329.699200
    511    509    515     1   109.8000471 387.438400
    513    512    521     1   109.7800468 425.094400
    513    512    514     1   108.4600466 328.025600
    514    512    521     1   109.7800468 425.094400
    516    515   1072     1   109.7800468 425.094400
    516    515    517     1   108.4600466 328.025600
    517    515   1072     1   109.7800468 425.094400
    519    518   1101     1   109.7800468 425.094400
    519    518    520     1   108.4600466 328.025600
    520    518   1101     1   109.7800468 425.094400
    522    523    524     1   109.8800469 414.216000
    522    523    525     1   109.8800469 414.216000
    522    526    527     1   109.8800469 414.216000
    522    526    528     1   109.8800469 414.216000
    522    529    530     1   109.8800469 414.216000
    522    529    531     1   109.8800469 414.216000
    523    535    536     1   109.8000471 387.438400
    523    535    537     1   109.8000471 387.438400
    524    523    535     1   109.5600471 388.275200
    524    523    525     1   108.4600466 328.025600
    525    523    535     1   109.5600471 388.275200
    526    538    539     1   109.8000471 387.438400
    526    538    540     1   109.8000471 387.438400
    527    526    538     1   109.5600471 388.275200
    527    526    528     1   108.4600466 328.025600
    528    526    538     1   109.5600471 388.275200
    529    532    533     1   109.8000471 387.438400
    529    532    534     1   109.8000471 387.438400
    530    529    532     1   109.5600471 388.275200
    530    529    531     1   108.4600466 328.025600
    531    529    532     1   109.5600471 388.275200
    532    541    542     1   109.5600471 388.275200
    532    541    543     1   109.5600471 388.275200
    533    532    541     1   109.8000471 387.438400
    533    532    534     1   107.5800459 329.699200
    534    532    541     1   109.8000471 387.438400
    535    547    548     1   109.5600471 388.275200
    535    547    549     1   109.5600471 388.275200
    536    535    547     1   109.8000471 387.438400
    536    535    537     1   107.5800459 329.699200
    537    535    547     1   109.8000471 387.438400
    538    544    545     1   109.5600471 388.275200
    538    544    546     1   109.5600471 388.275200
    539    538    544     1   109.8000471 387.438400
    539    538    540     1   107.5800459 329.699200
    540    538    544     1   109.8000471 387.438400
    542    541    550     1   109.7800468 425.094400
    542    541    543     1   108.4600466 328.025600
    543    541    550     1   109.7800468 425.094400
    545    544   1130     1   109.7800468 425.094400
    545    544    546     1   108.4600466 328.025600
    546    544   1130     1   109.7800468 425.094400
    548    547   1159     1   109.7800468 425.094400
    548    547    549     1   108.4600466 328.025600
    549    547   1159     1   109.7800468 425.094400
    551    552    553     1   109.8800469 414.216000
    551    552    554     1   109.8800469 414.216000
    551    555    556     1   109.8800469 414.216000
    551    555    557     1   109.8800469 414.216000
    551    558    559     1   109.8800469 414.216000
    551    558    560     1   109.8800469 414.216000
    552    564    565     1   109.8000471 387.438400
    552    564    566     1   109.8000471 387.438400
    553    552    564     1   109.5600471 388.275200
    553    552    554     1   108.4600466 328.025600
    554    552    564     1   109.5600471 388.275200
    555    567    568     1   109.8000471 387.438400
    555    567    569     1   109.8000471 387.438400
    556    555    567     1   109.5600471 388.275200
    556    555    557     1   108.4600466 328.025600
    557    555    567     1   109.5600471 388.275200
    558    561    562     1   109.8000471 387.438400
    558    561    563     1   109.8000471 387.438400
    559    558    561     1   109.5600471 388.275200
    559    558    560     1   108.4600466 328.025600
    560    558    561     1   109.5600471 388.275200
    561    570    571     1   109.5600471 388.275200
    561    570    572     1   109.5600471 388.275200
    562    561    570     1   109.8000471 387.438400
    562    561    563     1   107.5800459 329.699200
    563    561    570     1   109.8000471 387.438400
    564    576    577     1   109.5600471 388.275200
    564    576    578     1   109.5600471 388.275200
    565    564    576     1   109.8000471 387.438400
    565    564    566     1   107.5800459 329.699200
    566    564    576     1   109.8000471 387.438400
    567    573    574     1   109.5600471 388.275200
    567    573    575     1   109.5600471 388.275200
    568    567    573     1   109.8000471 387.438400
    568    567    569     1   107.5800459 329.699200
    569    567    573     1   109.8000471 387.438400
    571    570    579     1   109.7800468 425.094400
    571    570    572     1   108.4600466 328.025600
    572    570    579     1   109.7800468 425.094400
    574    573   1188     1   109.7800468 425.094400
    574    573    575     1   108.4600466 328.025600
    575    573   1188     1   109.7800468 425.094400
    577    576   1217     1   109.7800468 425.094400
    577    576    578     1   108.4600466 328.025600
    578    576   1217     1   109.7800468 425.094400
    580    581    582     1   109.8800469 414.216000
    580    581    583     1   109.8800469 414.216000
    580    584    585     1   109.8800469 414.216000
    580    584    586     1   109.8800469 414.216000
    580    587    588     1   109.8800469 414.216000
    580    587    589     1   109.8800469 414.216000
    581    593    594     1   109.8000471 387.438400
    581    593    595     1   109.8000471 387.438400
    582    581    593     1   109.5600471 388.275200
    582    581    583     1   108.4600466 328.025600
    583    581    593     1   109.5600471 388.275200
    584    596    597     1   109.8000471 387.438400
    584    596    598     1   109.8000471 387.438400
    585    584    596     1   109.5600471 388.275200
    585    584    586     1   108.4600466 328.025600
    586    584    596     1   109.5600471 388.275200
    587    590    591     1   109.8000471 387.438400
    587    590    592     1   109.8000471 387.438400
    588    587    590     1   109.5600471 388.275200
    588    587    589     1   108.4600466 328.025600
    589    587    590     1   109.5600471 388.275200
    590    599    600     1   109.5600471 388.275200
    590    599    601     1   109.5600471 388.275200
    591    590    599     1   109.8000471 387.438400
    591    590    592     1   107.5800459 329.699200
    592    590    599     1   109.8000471 387.438400
    593    605    606     1   109.5600471 388.275200
    593    605    607     1   109.5600471 388.275200
    594    593    605     1   109.8000471 387.438400
    594    593    595     1   107.5800459 329.699200
    595    593    605     1   109.8000471 387.438400
    596    602    603     1   109.5600471 388.275200
    596    602    604     1   109.5600471 388.275200
    597    596    602     1   109.8000471 387.438400
    597    596    598     1   107.5800459 329.699200
    598    596    602     1   109.8000471 387.438400
    600    599    608     1   109.7800468 425.094400
    600    599    601     1   108.4600466 328.025600
    601    599    608     1   109.7800468 425.094400
    603    602   1246     1   109.7800468 425.094400
    603    602    604     1   108.4600466 328.025600
    604    602   1246     1   109.7800468 425.094400
    606    605   1275     1   109.7800468 425.094400
    606    605    607     1   108.4600466 328.025600
    607    605   1275     1   109.7800468 425.094400
    609    610    611     1   109.8800469 414.216000
    609    610    612     1   109.8800469 414.216000
    609    613    614     1   109.8800469 414.216000
    609    613    615     1   109.8800469 414.216000
    609    616    617     1   109.8800469 414.216000
    609    616    618     1   109.8800469 414.216000
    610    622    623     1   109.8000471 387.438400
    610    622    624     1   109.8000471 387.438400
    611    610    622     1   109.5600471 388.275200
    611    610    612     1   108.4600466 328.025600
    612    610    622     1   109.5600471 388.275200
    613    625    626     1   109.8000471 387.438400
    613    625    627     1   109.8000471 387.438400
    614    613    625     1   109.5600471 388.275200
    614    613    615     1   108.4600466 328.025600
    615    613    625     1   109.5600471 388.275200
    616    619    620     1   109.8000471 387.438400
    616    619    621     1   109.8000471 387.438400
    617    616    619     1   109.5600471 388.275200
    617    616    618     1   108.4600466 328.025600
    618    616    619     1   109.5600471 388.275200
    619    628    629     1   109.5600471 388.275200
    619    628    630     1   109.5600471 388.275200
    620    619    628     1   109.8000471 387.438400
    620    619    621     1   107.5800459 329.699200
    621    619    628     1   109.8000471 387.438400
    622    634    635     1   109.5600471 388.275200
    622    634    636     1   109.5600471 388.275200
    623    622    634     1   109.8000471 387.438400
    623    622    624     1   107.5800459 329.699200
    624    622    634     1   109.8000471 387.438400
    625    631    632     1   109.5600471 388.275200
    625    631    633     1   109.5600471 388.275200
    626    625    631     1   109.8000471 387.438400
    626    625    627     1   107.5800459 329.699200
    627    625    631     1   109.8000471 387.438400
    629    628    637     1   109.7800468 425.094400
    629    628    630     1   108.4600466 328.025600
    630    628    637     1   109.7800468 425.094400
    632    631   1304     1   109.7800468 425.094400
    632    631    633     1   108.4600466 328.025600
    633    631   1304     1   109.7800468 425.094400
    635    634   1333     1   109.7800468 425.094400
    635    634    636     1   108.4600466 328.025600
    636    634   1333     1   109.7800468 425.094400
    638    639    640     1   109.8800469 414.216000
    638    639    641     1   109.8800469 414.216000
    638    642    643     1   109.8800469 414.216000
    638    642    644     1   109.8800469 414.216000
    638    645    646     1   109.8800469 414.216000
    638    645    647     1   109.8800469 414.216000
    639    651    652     1   109.8000471 387.438400
    639    651    653     1   109.8000471 387.438400
    640    639    651     1   109.5600471 388.275200
    640    639    641     1   108.4600466 328.025600
    641    639    651     1   109.5600471 388.275200
    642    654    655     1   109.8000471 387.438400
    642    654    656     1   109.8000471 387.438400
    643    642    654     1   109.5600471 388.275200
    643    642    644     1   108.4600466 328.025600
    644    642    654     1   109.5600471 388.275200
    645    648    649     1   109.8000471 387.438400
    645    648    650     1   109.8000471 387.438400
    646    645    648     1   109.5600471 388.275200
    646    645    647     1   108.4600466 328.025600
    647    645    648     1   109.5600471 388.275200
    648    657    658     1   109.5600471 388.275200
    648    657    659     1   109.5600471 388.275200
    649    648    657     1   109.8000471 387.438400
    649    648    650     1   107.5800459 329.699200
    650    648    657     1   109.8000471 387.438400
    651    663    664     1   109.5600471 388.275200
    651    663    665     1   109.5600471 388.275200
    652    651    663     1   109.8000471 387.438400
    652    651    653     1   107.5800459 329.699200
    653    651    663     1   109.8000471 387.438400
    654    660    661     1   109.5600471 388.275200
    654    660    662     1   109.5600471 388.275200
    655    654    660     1   109.8000471 387.438400
    655    654    656     1   107.5800459 329.699200
    656    654    660     1   109.8000471 387.438400
    658    657    666     1   109.7800468 425.094400
    658    657    659     1   108.4600466 328.025600
    659    657    666     1   109.7800468 425.094400
    661    660   1362     1   109.7800468 425.094400
    661    660    662     1   108.4600466 328.025600
    662    660   1362     1   109.7800468 425.094400
    664    663   1391     1   109.7800468 425.094400
    664    663    665     1   108.4600466 328.025600
    665    663   1391     1   109.7800468 425.094400
    667    668    669     1   109.8800469 414.216000
    667    668    670     1   109.8800469 414.216000
    667    671    672     1   109.8800469 414.216000
    667    671    673     1   109.8800469 414.216000
    667    674    675     1   109.8800469 414.216000
    667    674    676     1   109.8800469 414.216000
    668    680    681     1   109.8000471 387.438400
    668    680    682     1   109.8000471 387.438400
    669    668    680     1   109.5600471 388.275200
    669    668    670     1   108.4600466 328.025600
    670    668    680     1   109.5600471 388.275200
    671    683    684     1   109.8000471 387.438400
    671    683    685     1   109.8000471 387.438400
    672    671    683     1   109.5600471 388.275200
    672    671    673     1   108.4600466 328.025600
    673    671    683     1   109.5600471 388.275200
    674    677    678     1   109.8000471 387.438400
    674    677    679     1   109.8000471 387.438400
    675    674    677     1   109.5600471 388.275200
    675    674    676     1   108.4600466 328.025600
    676    674    677     1   109.5600471 388.275200
    677    686    687     1   109.5600471 388.275200
    677    686    688     1   109.5600471 388.275200
    678    677    686     1   109.8000471 387.438400
    678    677    679     1   107.5800459 329.699200
    679    677    686     1   109.8000471 387.438400
    680    692    693     1   109.5600471 388.275200
    680    692    694     1   109.5600471 388.275200
    681    680    692     1   109.8000471 387.438400
    681    680    682     1   107.5800459 329.699200
    682    680    692     1   109.8000471 387.438400
    683    689    690     1   109.5600471 388.275200
    683    689    691     1   109.5600471 388.275200
    684    683    689     1   109.8000471 387.438400
    684    683    685     1   107.5800459 329.699200
    685    683    689     1   109.8000471 387.438400
    687    686    695     1   109.7800468 425.094400
    687    686    688     1   108.4600466 328.025600
    688    686    695     1   109.7800468 425.094400
    690    689   1420     1   109.7800468 425.094400
    690    689    691     1   108.4600466 328.025600
    691    689   1420     1   109.7800468 425.094400
    693    692   1449     1   109.7800468 425.094400
    693    692    694     1   108.4600466 328.025600
    694    692   1449     1   109.7800468 425.094400
    696    697    698     1   109.8800469 414.216000
    696    697    699     1   109.8800469 414.216000
    696    700    701     1   109.8800469 414.216000
    696    700    702     1   109.8800469 414.216000
    696    703    704     1   109.8800469 414.216000
    696    703    705     1   109.8800469 414.216000
    697    709    710     1   109.8000471 387.438400
    697    709    711     1   109.8000471 387.438400
    698    697    709     1   109.5600471 388.275200
    698    697    699     1   108.4600466 328.025600
    699    697    709     1   109.5600471 388.275200
    700    712    713     1   109.8000471 387.438400
    700    712    714     1   109.8000471 387.438400
    701    700    712     1   109.5600471 388.275200
    701    700    702     1   108.4600466 328.025600
    702    700    712     1   109.5600471 388.275200
    703    706    707     1   109.8000471 387.438400
    703    706    708     1   109.8000471 387.438400
    704    703    706     1   109.5600471 388.275200
    704    703    705     1   108.4600466 328.025600
    705    703    706     1   109.5600471 388.275200
    706    715    716     1   109.5600471 388.275200
    706    715    717     1   109.5600471 388.275200
    707    706    715     1   109.8000471 387.438400
    707    706    708     1   107.5800459 329.699200
    708    706    715     1   109.8000471 387.438400
    709    721    722     1   109.5600471 388.275200
    709    721    723     1   109.5600471 388.275200
    710    709    721     1   109.8000471 387.438400
    710    709    711     1   107.5800459 329.699200
    711    709    721     1   109.8000471 387.438400
    712    718    719     1   109.5600471 388.275200
    712    718    720     1   109.5600471 388.275200
    713    712    718     1   109.8000471 387.438400
    713    712    714     1   107.5800459 329.699200
    714    712    718     1   109.8000471 387.438400
    716    715    724     1   109.7800468 425.094400
    716    715    717     1   108.4600466 328.025600
    717    715    724     1   109.7800468 425.094400
    719    718   1478     1   109.7800468 425.094400
    719    718    720     1   108.4600466 328.025600
    720    718   1478     1   109.7800468 425.094400
    722    721   1507     1   109.7800468 425.094400
    722    721    723     1   108.4600466 328.025600
    723    721   1507     1   109.7800468 425.094400
    725    726    727     1   109.8800469 414.216000
    725    726    728     1   109.8800469 414.216000
    725    729    730     1   109.8800469 414.216000
    725    729    731     1   109.8800469 414.216000
    725    732    733     1   109.8800469 414.216000
    725    732    734     1   109.8800469 414.216000
    726    738    739     1   109.8000471 387.438400
    726    738    740     1   109.8000471 387.438400
    727    726    738     1   109.5600471 388.275200
    727    726    728     1   108.4600466 328.025600
    728    726    738     1   109.5600471 388.275200
    729    741    742     1   109.8000471 387.438400
    729    741    743     1   109.8000471 387.438400
    730    729    741     1   109.5600471 388.275200
    730    729    731     1   108.4600466 328.025600
    731    729    741     1   109.5600471 388.275200
    732    735    736     1   109.8000471 387.438400
    732    735    737     1   109.8000471 387.438400
    733    732    735     1   109.5600471 388.275200
    733    732    734     1   108.4600466 328.025600
    734    732    735     1   109.5600471 388.275200
    735    744    745     1   109.5600471 388.275200
    735    744    746     1   109.5600471 388.275200
    736    735    744     1   109.8000471 387.438400
    736    735    737     1   107.5800459 329.699200
    737    735    744     1   109.8000471 387.438400
    738    750    751     1   109.5600471 388.275200
    738    750    752     1   109.5600471 388.275200
    739    738    750     1   109.8000471 387.438400
    739    738    740     1   107.5800459 329.699200
    740    738    750     1   109.8000471 387.438400
    741    747    748     1   109.5600471 388.275200
    741    747    749     1   109.5600471 388.275200
    742    741    747     1   109.8000471 387.438400
    742    741    743     1   107.5800459 329.699200
    743    741    747     1   109.8000471 387.438400
    745    744    753     1   109.7800468 425.094400
    745    744    746     1   108.4600466 328.025600
    746    744    753     1   109.7800468 425.094400
    748    747   1536     1   109.7800468 425.094400
    748    747    749     1   108.4600466 328.025600
    749    747   1536     1   109.7800468 425.094400
    751    750   1565     1   109.7800468 425.094400
    751    750    752     1   108.4600466 328.025600
    752    750   1565     1   109.7800468 425.094400
    754    755    756     1   109.8800469 414.216000
    754    755    757     1   109.8800469 414.216000
    754    758    759     1   109.8800469 414.216000
    754    758    760     1   109.8800469 414.216000
    754    761    762     1   109.8800469 414.216000
    754    761    763     1   109.8800469 414.216000
    755    767    768     1   109.8000471 387.438400
    755    767    769     1   109.8000471 387.438400
    756    755    767     1   109.5600471 388.275200
    756    755    757     1   108.4600466 328.025600
    757    755    767     1   109.5600471 388.275200
    758    770    771     1   109.8000471 387.438400
    758    770    772     1   109.8000471 387.438400
    759    758    770     1   109.5600471 388.275200
    759    758    760     1   108.4600466 328.025600
    760    758    770     1   109.5600471 388.275200
    761    764    765     1   109.8000471 387.438400
    761    764    766     1   109.8000471 387.438400
    762    761    764     1   109.5600471 388.275200
    762    761    763     1   108.4600466 328.025600
    763    761    764     1   109.5600471 388.275200
    764    773    774     1   109.5600471 388.275200
    764    773    775     1   109.5600471 388.275200
    765    764    773     1   109.8000471 387.438400
    765    764    766     1   107.5800459 329.699200
    766    764    773     1   109.8000471 387.438400
    767    779    780     1   109.5600471 388.275200
    767    779    781     1   109.5600471 388.275200
    768    767    779     1   109.8000471 387.438400
    768    767    769     1   107.5800459 329.699200
    769    767    779     1   109.8000471 387.438400
    770    776    777     1   109.5600471 388.275200
    770    776    778     1   109.5600471 388.275200
    771    770    776     1   109.8000471 387.438400
    771    770    772     1   107.5800459 329.699200
    772    770    776     1   109.8000471 387.438400
    774    773    782     1   109.7800468 425.094400
    774    773    775     1   108.4600466 328.025600
    775    773    782     1   109.7800468 425.094400
    777    776   1594     1   109.7800468 425.094400
    777    776    778     1   108.4600466 328.025600
    778    776   1594     1   109.7800468 425.094400
    780    779   1623     1   109.7800468 425.094400
    780    779    781     1   108.4600466 328.025600
    781    779   1623     1   109.7800468 425.094400
    783    784    785     1   109.8800469 414.216000
    783    784    786     1   109.8800469 414.216000
    783    787    788     1   109.8800469 414.216000
    783    787    789     1   109.8800469 414.216000
    783    790    791     1   109.8800469 414.216000
    783    790    792     1   109.8800469 414.216000
    784    796    797     1   109.8000471 387.438400
    784    796    798     1   109.8000471 387.438400
    785    784    796     1   109.5600471 388.275200
    785    784    786     1   108.4600466 328.025600
    786    784    796     1   109.5600471 388.275200
    787    799    800     1   109.8000471 387.438400
    787    799    801     1   109.8000471 387.438400
    788    787    799     1   109.5600471 388.275200
    788    787    789     1   108.4600466 328.025600
    789    787    799     1   109.5600471 388.275200
    790    793    794     1   109.8000471 387.438400
    790    793    795     1   109.8000471 387.438400
    791    790    793     1   109.5600471 388.275200
    791    790    792     1   108.4600466 328.025600
    792    790    793     1   109.5600471 388.275200
    793    802    803     1   109.5600471 388.275200
    793    802    804     1   109.5600471 388.275200
    794    793    802     1   109.8000471 387.438400
    794    793    795     1   107.5800459 329.699200
    795    793    802     1   109.8000471 387.438400
    796    808    809     1   109.5600471 388.275200
    796    808    810     1   109.5600471 388.275200
    797    796    808     1   109.8000471 387.438400
    797    796    798     1   107.5800459 329.699200
    798    796    808     1   109.8000471 387.438400
    799    805    806     1   109.5600471 388.275200
    799    805    807     1   109.5600471 388.275200
    800    799    805     1   109.8000471 387.438400
    800    799    801     1   107.5800459 329.699200
    801    799    805     1   109.8000471 387.438400
    803    802    811     1   109.7800468 425.094400
    803    802    804     1   108.4600466 328.025600
    804    802    811     1   109.7800468 425.094400
    806    805   1652     1   109.7800468 425.094400
    806    805    807     1   108.4600466 328.025600
    807    805   1652     1   109.7800468 425.094400
    809    808   1681     1   109.7800468 425.094400
    809    808    810     1   108.4600466 328.025600
    810    808   1681     1   109.7800468 425.094400
    812    813    814     1   109.8800469 414.216000
    812    813    815     1   109.8800469 414.216000
    812    816    817     1   109.8800469 414.216000
    812    816    818     1   109.8800469 414.216000
    812    819    820     1   109.8800469 414.216000
    812    819    821     1   109.8800469 414.216000
    813    825    826     1   109.8000471 387.438400
    813    825    827     1   109.8000471 387.438400
    814    813    825     1   109.5600471 388.275200
    814    813    815     1   108.4600466 328.025600
    815    813    825     1   109.5600471 388.275200
    816    828    829     1   109.8000471 387.438400
    816    828    830     1   109.8000471 387.438400
    817    816    828     1   109.5600471 388.275200
    817    816    818     1   108.4600466 328.025600
    818    816    828     1   109.5600471 388.275200
    819    822    823     1   109.8000471 387.438400
    819    822    824     1   109.8000471 387.438400
    820    819    822     1   109.5600471 388.275200
    820    819    821     1   108.4600466 328.025600
    821    819    822     1   109.5600471 388.275200
    822    831    832     1   109.5600471 388.275200
    822    831    833     1   109.5600471 388.275200
    823    822    831     1   109.8000471 387.438400
    823    822    824     1   107.5800459 329.699200
    824    822    831     1   109.8000471 387.438400
    825    837    838     1   109.5600471 388.275200
    825    837    839     1   109.5600471 388.275200
    826    825    837     1   109.8000471 387.438400
    826    825    827     1   107.5800459 329.699200
    827    825    837     1   109.8000471 387.438400
    828    834    835     1   109.5600471 388.275200
    828    834    836     1   109.5600471 388.275200
    829    828    834     1   109.8000471 387.438400
    829    828    830     1   107.5800459 329.699200
    830    828    834     1   109.8000471 387.438400
    832    831    840     1   109.7800468 425.094400
    832    831    833     1   108.4600466 328.025600
    833    831    840     1   109.7800468 425.094400
    835    834   1710     1   109.7800468 425.094400
    835    834    836     1   108.4600466 328.025600
    836    834   1710     1   109.7800468 425.094400
    838    837   1739     1   109.7800468 425.094400
    838    837    839     1   108.4600466 328.025600
    839    837   1739     1   109.7800468 425.094400
    841    842    843     1   109.8800469 414.216000
    841    842    844     1   109.8800469 414.216000
    841    845    846     1   109.8800469 414.216000
    841    845    847     1   109.8800469 414.216000
    841    848    849     1   109.8800469 414.216000
    841    848    850     1   109.8800469 414.216000
    842    854    855     1   109.8000471 387.438400
    842    854    856     1   109.8000471 387.438400
    843    842    854     1   109.5600471 388.275200
    843    842    844     1   108.4600466 328.025600
    844    842    854     1   109.5600471 388.275200
    845    857    858     1   109.8000471 387.438400
    845    857    859     1   109.8000471 387.438400
    846    845    857     1   109.5600471 388.275200
    846    845    847     1   108.4600466 328.025600
    847    845    857     1   109.5600471 388.275200
    848    851    852     1   109.8000471 387.438400
    848    851    853     1   109.8000471 387.438400
    849    848    851     1   109.5600471 388.275200
    849    848    850     1   108.4600466 328.025600
    850    848    851     1   109.5600471 388.275200
    851    860    861     1   109.5600471 388.275200
    851    860    862     1   109.5600471 388.275200
    852    851    860     1   109.8000471 387.438400
    852    851    853     1   107.5800459 329.699200
    853    851    860     1   109.8000471 387.438400
    854    866    867     1   109.5600471 388.275200
    854    866    868     1   109.5600471 388.275200
    855    854    866     1   109.8000471 387.438400
    855    854    856     1   107.5800459 329.699200
    856    854    866     1   109.8000471 387.438400
    857    863    864     1   109.5600471 388.275200
    857    863    865     1   109.5600471 388.275200
    858    857    863     1   109.8000471 387.438400
    858    857    859     1   107.5800459 329.699200
    859    857    863     1   109.8000471 387.438400
    861    860    869     1   109.7800468 425.094400
    861    860    862     1   108.4600466 328.025600
    862    860    869     1   109.7800468 425.094400
    864    863   1768     1   109.7800468 425.094400
    864    863    865     1   108.4600466 328.025600
    865    863   1768     1   109.7800468 425.094400
    867    866   1797     1   109.7800468 425.094400
    867    866    868     1   108.4600466 328.025600
    868    866   1797     1   109.7800468 425.094400
    870    871    872     1   109.8800469 414.216000
    870    871    873     1   109.8800469 414.216000
    870    874    875     1   109.8800469 414.216000
    870    874    876     1   109.8800469 414.216000
    870    877    878     1   109.8800469 414.216000
    870    877    879     1   109.8800469 414.216000
    871    883    884     1   109.8000471 387.438400
    871    883    885     1   109.8000471 387.438400
    872    871    883     1   109.5600471 388.275200
    872    871    873     1   108.4600466 328.025600
    873    871    883     1   109.5600471 388.275200
    874    886    887     1   109.8000471 387.438400
    874    886    888     1   109.8000471 387.438400
    875    874    886     1   109.5600471 388.275200
    875    874    876     1   108.4600466 328.025600
    876    874    886     1   109.5600471 388.275200
    877    880    881     1   109.8000471 387.438400
    877    880    882     1   109.8000471 387.438400
    878    877    880     1   109.5600471 388.275200
    878    877    879     1   108.4600466 328.025600
    879    877    880     1   109.5600471 388.275200
    880    889    890     1   109.5600471 388.275200
    880    889    891     1   109.5600471 388.275200
    881    880    889     1   109.8000471 387.438400
    881    880    882     1   107.5800459 329.699200
    882    880    889     1   109.8000471 387.438400
    883    895    896     1   109.5600471 388.275200
    883    895    897     1   109.5600471 388.275200
    884    883    895     1   109.8000471 387.438400
    884    883    885     1   107.5800459 329.699200
    885    883    895     1   109.8000471 387.438400
    886    892    893     1   109.5600471 388.275200
    886    892    894     1   109.5600471 388.275200
    887    886    892     1   109.8000471 387.438400
    887    886    888     1   107.5800459 329.699200
    888    886    892     1   109.8000471 387.438400
    890    889    898     1   109.7800468 425.094400
    890    889    891     1   108.4600466 328.025600
    891    889    898     1   109.7800468 425.094400
    893    892   1808     1   109.7800468 425.094400
    893    892    894     1   108.4600466 328.025600
    894    892   1808     1   109.7800468 425.094400
    896    895   1831     1   109.7800468 425.094400
    896    895    897     1   108.4600466 328.025600
    897    895   1831     1   109.7800468 425.094400
    899    900    901     1   109.8800469 414.216000
    899    900    902     1   109.8800469 414.216000
    899    903    904     1   109.8800469 414.216000
    899    903    905     1   109.8800469 414.216000
    899    906    907     1   109.8800469 414.216000
    899    906    908     1   109.8800469 414.216000
    900    912    913     1   109.8000471 387.438400
    900    912    914     1   109.8000471 387.438400
    901    900    912     1   109.5600471 388.275200
    901    900    902     1   108.4600466 328.025600
    902    900    912     1   109.5600471 388.275200
    903    915    916     1   109.8000471 387.438400
    903    915    917     1   109.8000471 387.438400
    904    903    915     1   109.5600471 388.275200
    904    903    905     1   108.4600466 328.025600
    905    903    915     1   109.5600471 388.275200
    906    909    910     1   109.8000471 387.438400
    906    909    911     1   109.8000471 387.438400
    907    906    909     1   109.5600471 388.275200
    907    906    908     1   108.4600466 328.025600
    908    906    909     1   109.5600471 388.275200
    909    918    919     1   109.5600471 388.275200
    909    918    920     1   109.5600471 388.275200
    910    909    918     1   109.8000471 387.438400
    910    909    911     1   107.5800459 329.699200
    911    909    918     1   109.8000471 387.438400
    912    924    925     1   109.5600471 388.275200
    912    924    926     1   109.5600471 388.275200
    913    912    924     1   109.8000471 387.438400
    913    912    914     1   107.5800459 329.699200
    914    912    924     1   109.8000471 387.438400
    915    921    922     1   109.5600471 388.275200
    915    921    923     1   109.5600471 388.275200
    916    915    921     1   109.8000471 387.438400
    916    915    917     1   107.5800459 329.699200
    917    915    921     1   109.8000471 387.438400
    919    918    927     1   109.7800468 425.094400
    919    918    920     1   108.4600466 328.025600
    920    918    927     1   109.7800468 425.094400
    922    921   1854     1   109.7800468 425.094400
    922    921    923     1   108.4600466 328.025600
    923    921   1854     1   109.7800468 425.094400
    925    924   1877     1   109.7800468 425.094400
    925    924    926     1   108.4600466 328.025600
    926    924   1877     1   109.7800468 425.094400
    928    929    930     1   109.8800469 414.216000
    928    929    931     1   109.8800469 414.216000
    928    932    933     1   109.8800469 414.216000
    928    932    934     1   109.8800469 414.216000
    928    935    936     1   109.8800469 414.216000
    928    935    937     1   109.8800469 414.216000
    929    941    942     1   109.8000471 387.438400
    929    941    943     1   109.8000471 387.438400
    930    929    941     1   109.5600471 388.275200
    930    929    931     1   108.4600466 328.025600
    931    929    941     1   109.5600471 388.275200
    932    944    945     1   109.8000471 387.438400
    932    944    946     1   109.8000471 387.438400
    933    932    944     1   109.5600471 388.275200
    933    932    934     1   108.4600466 328.025600
    934    932    944     1   109.5600471 388.275200
    935    938    939     1   109.8000471 387.438400
    935    938    940     1   109.8000471 387.438400
    936    935    938     1   109.5600471 388.275200
    936    935    937     1   108.4600466 328.025600
    937    935    938     1   109.5600471 388.275200
    938    947    948     1   109.5600471 388.275200
    938    947    949     1   109.5600471 388.275200
    939    938    947     1   109.8000471 387.438400
    939    938    940     1   107.5800459 329.699200
    940    938    947     1   109.8000471 387.438400
    941    953    954     1   109.5600471 388.275200
    941    953    955     1   109.5600471 388.275200
    942    941    953     1   109.8000471 387.438400
    942    941    943     1   107.5800459 329.699200
    943    941    953     1   109.8000471 387.438400
    944    950    951     1   109.5600471 388.275200
    944    950    952     1   109.5600471 388.275200
    945    944    950     1   109.8000471 387.438400
    945    944    946     1   107.5800459 329.699200
    946    944    950     1   109.8000471 387.438400
    948    947    956     1   109.7800468 425.094400
    948    947    949     1   108.4600466 328.025600
    949    947    956     1   109.7800468 425.094400
    951    950   1900     1   109.7800468 425.094400
    951    950    952     1   108.4600466 328.025600
    952    950   1900     1   109.7800468 425.094400
    954    953   1923     1   109.7800468 425.094400
    954    953    955     1   108.4600466 328.025600
    955    953   1923     1   109.7800468 425.094400
    957    958    959     1   109.8800469 414.216000
    957    958    960     1   109.8800469 414.216000
    957    961    962     1   109.8800469 414.216000
    957    961    963     1   109.8800469 414.216000
    957    964    965     1   109.8800469 414.216000
    957    964    966     1   109.8800469 414.216000
    958    970    971     1   109.8000471 387.438400
    958    970    972     1   109.8000471 387.438400
    959    958    970     1   109.5600471 388.275200
    959    958    960     1   108.4600466 328.025600
    960    958    970     1   109.5600471 388.275200
    961    973    974     1   109.8000471 387.438400
    961    973    975     1   109.8000471 387.438400
    962    961    973     1   109.5600471 388.275200
    962    961    963     1   108.4600466 328.025600
    963    961    973     1   109.5600471 388.275200
    964    967    968     1   109.8000471 387.438400
    964    967    969     1   109.8000471 387.438400
    965    964    967     1   109.5600471 388.275200
    965    964    966     1   108.4600466 328.025600
    966    964    967     1   109.5600471 388.275200
    967    976    977     1   109.5600471 388.275200
    967    976    978     1   109.5600471 388.275200
    968    967    976     1   109.8000471 387.438400
    968    967    969     1   107.5800459 329.699200
    969    967    976     1   109.8000471 387.438400
    970    982    983     1   109.5600471 388.275200
    970    982    984     1   109.5600471 388.275200
    971    970    982     1   109.8000471 387.438400
    971    970    972     1   107.5800459 329.699200
    972    970    982     1   109.8000471 387.438400
    973    979    980     1   109.5600471 388.275200
    973    979    981     1   109.5600471 388.275200
    974    973    979     1   109.8000471 387.438400
    974    973    975     1   107.5800459 329.699200
    975    973    979     1   109.8000471 387.438400
    977    976    985     1   109.7800468 425.094400
    977    976    978     1   108.4600466 328.025600
    978    976    985     1   109.7800468 425.094400
    980    979   1946     1   109.7800468 425.094400
    980    979    981     1   108.4600466 328.025600
    981    979   1946     1   109.7800468 425.094400
    983    982   1969     1   109.7800468 425.094400
    983    982    984     1   108.4600466 328.025600
    984    982   1969     1   109.7800468 425.094400
    986    987    988     1   109.8800469 414.216000
    986    987    989     1   109.8800469 414.216000
    986    990    991     1   109.8800469 414.216000
    986    990    992     1   109.8800469 414.216000
    986    993    994     1   109.8800469 414.216000
    986    993    995     1   109.8800469 414.216000
    987    999   1000     1   109.8000471 387.438400
    987    999   1001     1   109.8000471 387.438400
    988    987    999     1   109.5600471 388.275200
    988    987    989     1   108.4600466 328.025600
    989    987    999     1   109.5600471 388.275200
    990   1002   1003     1   109.8000471 387.438400
    990   1002   1004     1   109.8000471 387.438400
    991    990   1002     1   109.5600471 388.275200
    991    990    992     1   108.4600466 328.025600
    992    990   1002     1   109.5600471 388.275200
    993    996    997     1   109.8000471 387.438400
    993    996    998     1   109.8000471 387.438400
    994    993    996     1   109.5600471 388.275200
    994    993    995     1   108.4600466 328.025600
    995    993    996     1   109.5600471 388.275200
    996   1005   1006     1   109.5600471 388.275200
    996   1005   1007     1   109.5600471 388.275200
    997    996   1005     1   109.8000471 387.438400
    997    996    998     1   107.5800459 329.699200
    998    996   1005     1   109.8000471 387.438400
    999   1011   1012     1   109.5600471 388.275200
    999   1011   1013     1   109.5600471 388.275200
   1000    999   1011     1   109.8000471 387.438400
   1000    999   1001     1   107.5800459 329.699200
   1001    999   1011     1   109.8000471 387.438400
   1002   1008   1009     1   109.5600471 388.275200
   1002   1008   1010     1   109.5600471 388.275200
   1003   1002   1008     1   109.8000471 387.438400
   1003   1002   1004     1   107.5800459 329.699200
   1004   1002   1008     1   109.8000471 387.438400
   1006   1005   1014     1   109.7800468 425.094400
   1006   1005   1007     1   108.4600466 328.025600
   1007   1005   1014     1   109.7800468 425.094400
   1009   1008   1992     1   109.7800468 425.094400
   1009   1008   1010     1   108.4600466 328.025600
   1010   1008   1992     1   109.7800468 425.094400
   1012   1011   2015     1   109.7800468 425.094400
   1012   1011   1013     1   108.4600466 328.025600
   1013   1011   2015     1   109.7800468 425.094400
   1015   1016   1017     1   109.8800469 414.216000
   1015   1016   1018     1   109.8800469 414.216000
   1015   1019   1020     1   109.8800469 414.216000
   1015   1019   1021     1   109.8800469 414.216000
   1015   1022   1023     1   109.8800469 414.216000
   1015   1022   1024     1   109.8800469 414.216000
   1016   1028   1029     1   109.8000471 387.438400
   1016   1028   1030     1   109.8000471 387.438400
   1017   1016   1028     1   109.5600471 388.275200
   1017   1016   1018     1   108.4600466 328.025600
   1018   1016   1028     1   109.5600471 388.275200
   1019   1031   1032     1   109.8000471 387.438400
   1019   1031   1033     1   109.8000471 387.438400
   1020   1019   1031     1   109.5600471 388.275200
   1020   1019   1021     1   108.4600466 328.025600
   1021   1019   1031     1   109.5600471 388.275200
   1022   1025   1026     1   109.8000471 387.438400
   1022   1025   1027     1   109.8000471 387.438400
   1023   1022   1025     1   109.5600471 388.275200
   1023   1022   1024     1   108.4600466 328.025600
   1024   1022   1025     1   109.5600471 388.275200
   1025   1034   1035     1   109.5600471 388.275200
   1025   1034   1036     1   109.5600471 388.275200
   1026   1025   1034     1   109.8000471 387.438400
   1026   1025   1027     1   107.5800459 329.699200
   1027   1025   1034     1   109.8000471 387.438400
   1028   1040   1041     1   109.5600471 388.275200
   1028   1040   1042     1   109.5600471 388.275200
   1029   1028   1040     1   109.8000471 387.438400
   1029   1028   1030     1   107.5800459 329.699200
   1030   1028   1040     1   109.8000471 387.438400
   1031   1037   1038     1   109.5600471 388.275200
   1031   1037   1039     1   109.5600471 388.275200
   1032   1031   1037     1   109.8000471 387.438400
   1032   1031   1033     1   107.5800459 329.699200
   1033   1031   1037     1   109.8000471 387.438400
   1035   1034   1043     1   109.7800468 425.094400
   1035   1034   1036     1   108.4600466 328.025600
   1036   1034   1043     1   109.7800468 425.094400
   1038   1037   2038     1   109.7800468 425.094400
   1038   1037   1039     1   108.4600466 328.025600
   1039   1037   2038     1   109.7800468 425.094400
   1041   1040   2061     1   109.7800468 425.094400
   1041   1040   1042     1   108.4600466 328.025600
   1042   1040   2061     1   109.7800468 425.094400
   1044   1045   1046     1   109.8800469 414.216000
   1044   1045   1047     1   109.8800469 414.216000
   1044   1048   1049     1   109.8800469 414.216000
   1044   1048   1050     1   109.8800469 414.216000
   1044   1051   1052     1   109.8800469 414.216000
   1044   1051   1053     1   109.8800469 414.216000
   1045   1057   1058     1   109.8000471 387.438400
   1045   1057   1059     1   109.8000471 387.438400
   1046   1045   1057     1   109.5600471 388.275200
   1046   1045   1047     1   108.4600466 328.025600
   1047   1045   1057     1   109.5600471 388.275200
   1048   1060   1061     1   109.8000471 387.438400
   1048   1060   1062     1   109.8000471 387.438400
   1049   1048   1060     1   109.5600471 388.275200
   1049   1048   1050     1   108.4600466 328.025600
   1050   1048   1060     1   109.5600471 388.275200
   1051   1054   1055     1   109.8000471 387.438400
   1051   1054   1056     1   109.8000471 387.438400
   1052   1051   1054     1   109.5600471 388.275200
   1052   1051   1053     1   108.4600466 328.025600
   1053   1051   1054     1   109.5600471 388.275200
   1054   1063   1064     1   109.5600471 388.275200
   1054   1063   1065     1   109.5600471 388.275200
   1055   1054   1063     1   109.8000471 387.438400
   1055   1054   1056     1   107.5800459 329.699200
   1056   1054   1063     1   109.8000471 387.438400
   1057   1069   1070     1   109.5600471 388.275200
   1057   1069   1071     1   109.5600471 388.275200
   1058   1057   1069     1   109.8000471 387.438400
   1058   1057   1059     1   107.5800459 329.699200
   1059   1057   1069     1   109.8000471 387.438400
   1060   1066   1067     1   109.5600471 388.275200
   1060   1066   1068     1   109.5600471 388.275200
   1061   1060   1066     1   109.8000471 387.438400
   1061   1060   1062     1   107.5800459 329.699200
   1062   1060   1066     1   109.8000471 387.438400
   1064   1063   1072     1   109.7800468 425.094400
   1064   1063   1065     1   108.4600466 328.025600
   1065   1063   1072     1   109.7800468 425.094400
   1067   1066   2084     1   109.7800468 425.094400
   1067   1066   1068     1   108.4600466 328.025600
   1068   1066   2084     1   109.7800468 425.094400
   1070   1069   2107     1   109.7800468 425.094400
   1070   1069   1071     1   108.4600466 328.025600
   1071   1069   2107     1   109.7800468 425.094400
   1073   1074   1075     1   109.8800469 414.216000
   1073   1074   1076     1   109.8800469 414.216000
   1073   1077   1078     1   109.8800469 414.216000
   1073   1077   1079     1   109.8800469 414.216000
   1073   1080   1081     1   109.8800469 414.216000
   1073   1080   1082     1   109.8800469 414.216000
   1074   1086   1087     1   109.8000471 387.438400
   1074   1086   1088     1   109.8000471 387.438400
   1075   1074   1086     1   109.5600471 388.275200
   1075   1074   1076     1   108.4600466 328.025600
   1076   1074   1086     1   109.5600471 388.275200
   1077   1089   1090     1   109.8000471 387.438400
   1077   1089   1091     1   109.8000471 387.438400
   1078   1077   1089     1   109.5600471 388.275200
   1078   1077   1079     1   108.4600466 328.025600
   1079   1077   1089     1   109.5600471 388.275200
   1080   1083   1084     1   109.8000471 387.438400
   1080   1083   1085     1   109.8000471 387.438400
   1081   1080   1083     1   109.5600471 388.275200
   1081   1080   1082     1   108.4600466 328.025600
   1082   1080   1083     1   109.5600471 388.275200
   1083   1092   1093     1   109.5600471 388.275200
   1083   1092   1094     1   109.5600471 388.275200
   1084   1083   1092     1   109.8000471 387.438400
   1084   1083   1085     1   107.5800459 329.699200
   1085   1083   1092     1   109.8000471 387.438400
   1086   1098   1099     1   109.5600471 388.275200
   1086   1098   1100     1   109.5600471 388.275200
   1087   1086   1098     1   109.8000471 387.438400
   1087   1086   1088     1   107.5800459 329.699200
   1088   1086   1098     1   109.8000471 387.438400
   1089   1095   1096     1   109.5600471 388.275200
   1089   1095   1097     1   109.5600471 388.275200
   1090   1089   1095     1   109.8000471 387.438400
   1090   1089   1091     1   107.5800459 329.699200
   1091   1089   1095     1   109.8000471 387.438400
   1093   1092   1101     1   109.7800468 425.094400
   1093   1092   1094     1   108.4600466 328.025600
   1094   1092   1101     1   109.7800468 425.094400
   1096   1095   2130     1   109.7800468 425.094400
   1096   1095   1097     1   108.4600466 328.025600
   1097   1095   2130     1   109.7800468 425.094400
   1099   1098   2153     1   109.7800468 425.094400
   1099   1098   1100     1   108.4600466 328.025600
   1100   1098   2153     1   109.7800468 425.094400
   1102   1103   1104     1   109.8800469 414.216000
   1102   1103   1105     1   109.8800469 414.216000
   1102   1106   1107     1   109.8800469 414.216000
   1102   1106   1108     1   109.8800469 414.216000
   1102   1109   1110     1   109.8800469 414.216000
   1102   1109   1111     1   109.8800469 414.216000
   1103   1115   1116     1   109.8000471 387.438400
   1103   1115   1117     1   109.8000471 387.438400
   1104   1103   1115     1   109.5600471 388.275200
   1104   1103   1105     1   108.4600466 328.025600
   1105   1103   1115     1   109.5600471 388.275200
   1106   1118   1119     1   109.8000471 387.438400
   1106   1118   1120     1   109.8000471 387.438400
   1107   1106   1118     1   109.5600471 388.275200
   1107   1106   1108     1   108.4600466 328.025600
   1108   1106   1118     1   109.5600471 388.275200
   1109   1112   1113     1   109.8000471 387.438400
   1109   1112   1114     1   109.8000471 387.438400
   1110   1109   1112     1   109.5600471 388.275200
   1110   1109   1111     1   108.4600466 328.025600
   1111   1109   1112     1   109.5600471 388.275200
   1112   1121   1122     1   109.5600471 388.275200
   1112   1121   1123     1   109.5600471 388.275200
   1113   1112   1121     1   109.8000471 387.438400
   1113   1112   1114     1   107.5800459 329.699200
   1114   1112   1121     1   109.8000471 387.438400
   1115   1127   1128     1   109.5600471 388.275200
   1115   1127   1129     1   109.5600471 388.275200
   1116   1115   1127     1   109.8000471 387.438400
   1116   1115   1117     1   107.5800459 329.699200
   1117   1115   1127     1   109.8000471 387.438400
   1118   1124   1125     1   109.5600471 388.275200
   1118   1124   1126     1   109.5600471 388.275200
   1119   1118   1124     1   109.8000471 387.438400
   1119   1118   1120     1   107.5800459 329.699200
   1120   1118   1124     1   109.8000471 387.438400
   1122   1121   1130     1   109.7800468 425.094400
   1122   1121   1123     1   108.4600466 328.025600
   1123   1121   1130     1   109.7800468 425.094400
   1125   1124   2176     1   109.7800468 425.094400
   1125   1124   1126     1   108.4600466 328.025600
   1126   1124   2176     1   109.7800468 425.094400
   1128   1127   2199     1   109.7800468 425.094400
   1128   1127   1129     1   108.4600466 328.025600
   1129   1127   2199     1   109.7800468 425.094400
   1131   1132   1133     1   109.8800469 414.216000
   1131   1132   1134     1   109.8800469 414.216000
   1131   1135   1136     1   109.8800469 414.216000
   1131   1135   1137     1   109.8800469 414.216000
   1131   1138   1139     1   109.8800469 414.216000
   1131   1138   1140     1   109.8800469 414.216000
   1132   1144   1145     1   109.8000471 387.438400
   1132   1144   1146     1   109.8000471 387.438400
   1133   1132   1144     1   109.5600471 388.275200
   1133   1132   1134     1   108.4600466 328.025600
   1134   1132   1144     1   109.5600471 388.275200
   1135   1147   1148     1   109.8000471 387.438400
   1135   1147   1149     1   109.8000471 387.438400
   1136   1135   1147     1   109.5600471 388.275200
   1136   1135   1137     1   108.4600466 328.025600
   1137   1135   1147     1   109.5600471 388.275200
   1138   1141   1142     1   109.8000471 387.438400
   1138   1141   1143     1   109.8000471 387.438400
   1139   1138   1141     1   109.5600471 388.275200
   1139   1138   1140     1   108.4600466 328.025600
   1140   1138   1141     1   109.5600471 388.275200
   1141   1150   1151     1   109.5600471 388.275200
   1141   1150   1152     1   109.5600471 388.275200
   1142   1141   1150     1   109.8000471 387.438400
   1142   1141   1143     1   107.5800459 329.699200
   1143   1141   1150     1   109.8000471 387.438400
   1144   1156   1157     1   109.5600471 388.275200
   1144   1156   1158     1   109.5600471 388.275200
   1145   1144   1156     1   109.8000471 387.438400
   1145   1144   1146     1   107.5800459 329.699200
   1146   1144   1156     1   109.8000471 387.438400
   1147   1153   1154     1   109.5600471 388.275200
   1147   1153   1155     1   109.5600471 388.275200
   1148   1147   1153     1   109.8000471 387.438400
   1148   1147   1149     1   107.5800459 329.699200
   1149   1147   1153     1   109.8000471 387.438400
   1151   1150   1159     1   109.7800468 425.094400
   1151   1150   1152     1   108.4600466 328.025600
   1152   1150   1159     1   109.7800468 425.094400
   1154   1153   2222     1   109.7800468 425.094400
   1154   1153   1155     1   108.4600466 328.025600
   1155   1153   2222     1   109.7800468 425.094400
   1157   1156   2245     1   109.7800468 425.094400
   1157   1156   1158     1   108.4600466 328.025600
   1158   1156   2245     1   109.7800468 425.094400
   1160   1161   1162     1   109.8800469 414.216000
   1160   1161   1163     1   109.8800469 414.216000
   1160   1164   1165     1   109.8800469 414.216000
   1160   1164   1166     1   109.8800469 414.216000
   1160   1167   1168     1   109.8800469 414.216000
   1160   1167   1169     1   109.8800469 414.216000
   1161   1173   1174     1   109.8000471 387.438400
   1161   1173   1175     1   109.8000471 387.438400
   1162   1161   1173     1   109.5600471 388.275200
   1162   1161   1163     1   108.4600466 328.025600
   1163   1161   1173     1   109.5600471 388.275200
   1164   1176   1177     1   109.8000471 387.438400
   1164   1176   1178     1   109.8000471 387.438400
   1165   1164   1176     1   109.5600471 388.275200
   1165   1164   1166     1   108.4600466 328.025600
   1166   1164   1176     1   109.5600471 388.275200
   1167   1170   1171     1   109.8000471 387.438400
   1167   1170   1172     1   109.8000471 387.438400
   1168   1167   1170     1   109.5600471 388.275200
   1168   1167   1169     1   108.4600466 328.025600
   1169   1167   1170     1   109.5600471 388.275200
   1170   1179   1180     1   109.5600471 388.275200
   1170   1179   1181     1   109.5600471 388.275200
   1171   1170   1179     1   109.8000471 387.438400
   1171   1170   1172     1   107.5800459 329.699200
   1172   1170   1179     1   109.8000471 387.438400
   1173   1185   1186     1   109.5600471 388.275200
   1173   1185   1187     1   109.5600471 388.275200
   1174   1173   1185     1   109.8000471 387.438400
   1174   1173   1175     1   107.5800459 329.699200
   1175   1173   1185     1   109.8000471 387.438400
   1176   1182   1183     1   109.5600471 388.275200
   1176   1182   1184     1   109.5600471 388.275200
   1177   1176   1182     1   109.8000471 387.438400
   1177   1176   1178     1   107.5800459 329.699200
   1178   1176   1182     1   109.8000471 387.438400
   1180   1179   1188     1   109.7800468 425.094400
   1180   1179   1181     1   108.4600466 328.025600
   1181   1179   1188     1   109.7800468 425.094400
   1183   1182   2268     1   109.7800468 425.094400
   1183   1182   1184     1   108.4600466 328.025600
   1184   1182   2268     1   109.7800468 425.094400
   1186   1185   2291     1   109.7800468 425.094400
   1186   1185   1187     1   108.4600466 328.025600
   1187   1185   2291     1   109.7800468 425.094400
   1189   1190   1191     1   109.8800469 414.216000
   1189   1190   1192     1   109.8800469 414.216000
   1189   1193   1194     1   109.8800469 414.216000
   1189   1193   1195     1   109.8800469 414.216000
   1189   1196   1197     1   109.8800469 414.216000
   1189   1196   1198     1   109.8800469 414.216000
   1190   1202   1203     1   109.8000471 387.438400
   1190   1202   1204     1   109.8000471 387.438400
   1191   1190   1202     1   109.5600471 388.275200
   1191   1190   1192     1   108.4600466 328.025600
   1192   1190   1202     1   109.5600471 388.275200
   1193   1205   1206     1   109.8000471 387.438400
   1193   1205   1207     1   109.8000471 387.438400
   1194   1193   1205     1   109.5600471 388.275200
   1194   1193   1195     1   108.4600466 328.025600
   1195   1193   1205     1   109.5600471 388.275200
   1196   1199   1200     1   109.8000471 387.438400
   1196   1199   1201     1   109.8000471 387.438400
   1197   1196   1199     1   109.5600471 388.275200
   1197   1196   1198     1   108.4600466 328.025600
   1198   1196   1199     1   109.5600471 388.275200
   1199   1208   1209     1   109.5600471 388.275200
   1199   1208   1210     1   109.5600471 388.275200
   1200   1199   1208     1   109.8000471 387.438400
   1200   1199   1201     1   107.5800459 329.699200
   1201   1199   1208     1   109.8000471 387.438400
   1202   1214   1215     1   109.5600471 388.275200
   1202   1214   1216     1   109.5600471 388.275200
   1203   1202   1214     1   109.8000471 387.438400
   1203   1202   1204     1   107.5800459 329.699200
   1204   1202   1214     1   109.8000471 387.438400
   1205   1211   1212     1   109.5600471 388.275200
   1205   1211   1213     1   109.5600471 388.275200
   1206   1205   1211     1   109.8000471 387.438400
   1206   1205   1207     1   107.5800459 329.699200
   1207   1205   1211     1   109.8000471 387.438400
   1209   1208   1217     1   109.7800468 425.094400
   1209   1208   1210     1   108.4600466 328.025600
   1210   1208   1217     1   109.7800468 425.094400
   1212   1211   2314     1   109.7800468 425.094400
   1212   1211   1213     1   108.4600466 328.025600
   1213   1211   2314     1   109.7800468 425.094400
   1215   1214   2337     1   109.7800468 425.094400
   1215   1214   1216     1   108.4600466 328.025600
   1216   1214   2337     1   109.7800468 425.094400
   1218   1219   1220     1   109.8800469 414.216000
   1218   1219   1221     1   109.8800469 414.216000
   1218   1222   1223     1   109.8800469 414.216000
   1218   1222   1224     1   109.8800469 414.216000
   1218   1225   1226     1   109.8800469 414.216000
   1218   1225   1227     1   109.8800469 414.216000
   1219   1231   1232     1   109.8000471 387.438400
   1219   1231   1233     1   109.8000471 387.438400
   1220   1219   1231     1   109.5600471 388.275200
   1220   1219   1221     1   108.4600466 328.025600
   1221   1219   1231     1   109.5600471 388.275200
   1222   1234   1235     1   109.8000471 387.438400
   1222   1234   1236     1   109.8000471 387.438400
   1223   1222   1234     1   109.5600471 388.275200
   1223   1222   1224     1   108.4600466 328.025600
   1224   1222   1234     1   109.5600471 388.275200
   1225   1228   1229     1   109.8000471 387.438400
   1225   1228   1230     1   109.8000471 387.438400
   1226   1225   1228     1   109.5600471 388.275200
   1226   1225   1227     1   108.4600466 328.025600
   1227   1225   1228     1   109.5600471 388.275200
   1228   1237   1238     1   109.5600471 388.275200
   1228   1237   1239     1   109.5600471 388.275200
   1229   1228   1237     1   109.8000471 387.438400
   1229   1228   1230     1   107.5800459 329.699200
   1230   1228   1237     1   109.8000471 387.438400
   1231   1243   1244     1   109.5600471 388.275200
   1231   1243   1245     1   109.5600471 388.275200
   1232   1231   1243     1   109.8000471 387.438400
   1232   1231   1233     1   107.5800459 329.699200
   1233   1231   1243     1   109.8000471 387.438400
   1234   1240   1241     1   109.5600471 388.275200
   1234   1240   1242     1   109.5600471 388.275200
   1235   1234   1240     1   109.8000471 387.438400
   1235   1234   1236     1   107.5800459 329.699200
   1236   1234   1240     1   109.8000471 387.438400
   1238   1237   1246     1   109.7800468 425.094400
   1238   1237   1239     1   108.4600466 328.025600
   1239   1237   1246     1   109.7800468 425.094400
   1241   1240   2360     1   109.7800468 425.094400
   1241   1240   1242     1   108.4600466 328.025600
   1242   1240   2360     1   109.7800468 425.094400
   1244   1243   2383     1   109.7800468 425.094400
   1244   1243   1245     1   108.4600466 328.025600
   1245   1243   2383     1   109.7800468 425.094400
   1247   1248   1249     1   109.8800469 414.216000
   1247   1248   1250     1   109.8800469 414.216000
   1247   1251   1252     1   109.8800469 414.216000
   1247   1251   1253     1   109.8800469 414.216000
   1247   1254   1255     1   109.8800469 414.216000
   1247   1254   1256     1   109.8800469 414.216000
   1248   1260   1261     1   109.8000471 387.438400
   1248   1260   1262     1   109.8000471 387.438400
   1249   1248   1260     1   109.5600471 388.275200
   1249   1248   1250     1   108.4600466 328.025600
   1250   1248   1260     1   109.5600471 388.275200
   1251   1263   1264     1   109.8000471 387.438400
   1251   1263   1265     1   109.8000471 387.438400
   1252   1251   1263     1   109.5600471 388.275200
   1252   1251   1253     1   108.4600466 328.025600
   1253   1251   1263     1   109.5600471 388.275200
   1254   1257   1258     1   109.8000471 387.438400
   1254   1257   1259     1   109.8000471 387.438400
   1255   1254   1257     1   109.5600471 388.275200
   1255   1254   1256     1   108.4600466 328.025600
   1256   1254   1257     1   109.5600471 388.275200
   1257   1266   1267     1   109.5600471 388.275200
   1257   1266   1268     1   109.5600471 388.275200
   1258   1257   1266     1   109.8000471 387.438400
   1258   1257   1259     1   107.5800459 329.699200
   1259   1257   1266     1   109.8000471 387.438400
   1260   1272   1273     1   109.5600471 388.275200
   1260   1272   1274     1   109.5600471 388.275200
   1261   1260   1272     1   109.8000471 387.438400
   1261   1260   1262     1   107.5800459 329.699200
   1262   1260   1272     1   109.8000471 387.438400
   1263   1269   1270     1   109.5600471 388.275200
   1263   1269   1271     1   109.5600471 388.275200
   1264   1263   1269     1   109.8000471 387.438400
   1264   1263   1265     1   107.5800459 329.699200
   1265   1263   1269     1   109.8000471 387.438400
   1267   1266   1275     1   109.7800468 425.094400
   1267   1266   1268     1   108.4600466 328.025600
   1268   1266   1275     1   109.7800468 425.094400
   1270   1269   2406     1   109.7800468 425.094400
   1270   1269   1271     1   108.4600466 328.025600
   1271   1269   2406     1   109.7800468 425.094400
   1273   1272   2429     1   109.7800468 425.094400
   1273   1272   1274     1   108.4600466 328.025600
   1274   1272   2429     1   109.7800468 425.094400
   1276   1277   1278     1   109.8800469 414.216000
   1276   1277   1279     1   109.8800469 414.216000
   1276   1280   1281     1   109.8800469 414.216000
   1276   1280   1282     1   109.8800469 414.216000
   1276   1283   1284     1   109.8800469 414.216000
   1276   1283   1285     1   109.8800469 414.216000
   1277   1289   1290     1   109.8000471 387.438400
   1277   1289   1291     1   109.8000471 387.438400
   1278   1277   1289     1   109.5600471 388.275200
   1278   1277   1279     1   108.4600466 328.025600
   1279   1277   1289     1   109.5600471 388.275200
   1280   1292   1293     1   109.8000471 387.438400
   1280   1292   1294     1   109.8000471 387.438400
   1281   1280   1292     1   109.5600471 388.275200
   1281   1280   1282     1   108.4600466 328.025600
   1282   1280   1292     1   109.5600471 388.275200
   1283   1286   1287     1   109.8000471 387.438400
   1283   1286   1288     1   109.8000471 387.438400
   1284   1283   1286     1   109.5600471 388.275200
   1284   1283   1285     1   108.4600466 328.025600
   1285   1283   1286     1   109.5600471 388.275200
   1286   1295   1296     1   109.5600471 388.275200
   1286   1295   1297     1   109.5600471 388.275200
   1287   1286   1295     1   109.8000471 387.438400
   1287   1286   1288     1   107.5800459 329.699200
   1288   1286   1295     1   109.8000471 387.438400
   1289   1301   1302     1   109.5600471 388.275200
   1289   1301   1303     1   109.5600471 388.275200
   1290   1289   1301     1   109.8000471 387.438400
   1290   1289   1291     1   107.5800459 329.699200
   1291   1289   1301     1   109.8000471 387.438400
   1292   1298   1299     1   109.5600471 388.275200
   1292   1298   1300     1   109.5600471 388.275200
   1293   1292   1298     1   109.8000471 387.438400
   1293   1292   1294     1   107.5800459 329.699200
   1294   1292   1298     1   109.8000471 387.438400
   1296   1295   1304     1   109.7800468 425.094400
   1296   1295   1297     1   108.4600466 328.025600
   1297   1295   1304     1   109.7800468 425.094400
   1299   1298   2452     1   109.7800468 425.094400
   1299   1298   1300     1   108.4600466 328.025600
   1300   1298   2452     1   109.7800468 425.094400
   1302   1301   2475     1   109.7800468 425.094400
   1302   1301   1303     1   108.4600466 328.025600
   1303   1301   2475     1   109.7800468 425.094400
   1305   1306   1307     1   109.8800469 414.216000
   1305   1306   1308     1   109.8800469 414.216000
   1305   1309   1310     1   109.8800469 414.216000
   1305   1309   1311     1   109.8800469 414.216000
   1305   1312   1313     1   109.8800469 414.216000
   1305   1312   1314     1   109.8800469 414.216000
   1306   1318   1319     1   109.8000471 387.438400
   1306   1318   1320     1   109.8000471 387.438400
   1307   1306   1318     1   109.5600471 388.275200
   1307   1306   1308     1   108.4600466 328.025600
   1308   1306   1318     1   109.5600471 388.275200
   1309   1321   1322     1   109.8000471 387.438400
   1309   1321   1323     1   109.8000471 387.438400
   1310   1309   1321     1   109.5600471 388.275200
   1310   1309   1311     1   108.4600466 328.025600
   1311   1309   1321     1   109.5600471 388.275200
   1312   1315   1316     1   109.8000471 387.438400
   1312   1315   1317     1   109.8000471 387.438400
   1313   1312   1315     1   109.5600471 388.275200
   1313   1312   1314     1   108.4600466 328.025600
   1314   1312   1315     1   109.5600471 388.275200
   1315   1324   1325     1   109.5600471 388.275200
   1315   1324   1326     1   109.5600471 388.275200
   1316   1315   1324     1   109.8000471 387.438400
   1316   1315   1317     1   107.5800459 329.699200
   1317   1315   1324     1   109.8000471 387.438400
   1318   1330   1331     1   109.5600471 388.275200
   1318   1330   1332     1   109.5600471 388.275200
   1319   1318   1330     1   109.8000471 387.438400
   1319   1318   1320     1   107.5800459 329.699200
   1320   1318   1330     1   109.8000471 387.438400
   1321   1327   1328     1   109.5600471 388.275200
   1321   1327   1329     1   109.5600471 388.275200
   1322   1321   1327     1   109.8000471 387.438400
   1322   1321   1323     1   107.5800459 329.699200
   1323   1321   1327     1   109.8000471 387.438400
   1325   1324   1333     1   109.7800468 425.094400
   1325   1324   1326     1   108.4600466 328.025600
   1326   1324   1333     1   109.7800468 425.094400
   1328   1327   2498     1   109.7800468 425.094400
   1328   1327   1329     1   108.4600466 328.025600
   1329   1327   2498     1   109.7800468 425.094400
   1331   1330   2521     1   109.7800468 425.094400
   1331   1330   1332     1   108.4600466 328.025600
   1332   1330   2521     1   109.7800468 425.094400
   1334   1335   1336     1   109.8800469 414.216000
   1334   1335   1337     1   109.8800469 414.216000
   1334   1338   1339     1   109.8800469 414.216000
   1334   1338   1340     1   109.8800469 414.216000
   1334   1341   1342     1   109.8800469 414.216000
   1334   1341   1343     1   109.8800469 414.216000
   1335   1347   1348     1   109.8000471 387.438400
   1335   1347   1349     1   109.8000471 387.438400
   1336   1335   1347     1   109.5600471 388.275200
   1336   1335   1337     1   108.4600466 328.025600
   1337   1335   1347     1   109.5600471 388.275200
   1338   1350   1351     1   109.8000471 387.438400
   1338   1350   1352     1   109.8000471 387.438400
   1339   1338   1350     1   109.5600471 388.275200
   1339   1338   1340     1   108.4600466 328.025600
   1340   1338   1350     1   109.5600471 388.275200
   1341   1344   1345     1   109.8000471 387.438400
   1341   1344   1346     1   109.8000471 387.438400
   1342   1341   1344     1   109.5600471 388.275200
   1342   1341   1343     1   108.4600466 328.025600
   1343   1341   1344     1   109.5600471 388.275200
   1344   1353   1354     1   109.5600471 388.275200
   1344   1353   1355     1   109.5600471 388.275200
   1345   1344   1353     1   109.8000471 387.438400
   1345   1344   1346     1   107.5800459 329.699200
   1346   1344   1353     1   109.8000471 387.438400
   1347   1359   1360     1   109.5600471 388.275200
   1347   1359   1361     1   109.5600471 388.275200
   1348   1347   1359     1   109.8000471 387.438400
   1348   1347   1349     1   107.5800459 329.699200
   1349   1347   1359     1   109.8000471 387.438400
   1350   1356   1357     1   109.5600471 388.275200
   1350   1356   1358     1   109.5600471 388.275200
   1351   1350   1356     1   109.8000471 387.438400
   1351   1350   1352     1   107.5800459 329.699200
   1352   1350   1356     1   109.8000471 387.438400
   1354   1353   1362     1   109.7800468 425.094400
   1354   1353   1355     1   108.4600466 328.025600
   1355   1353   1362     1   109.7800468 425.094400
   1357   1356   2544     1   109.7800468 425.094400
   1357   1356   1358     1   108.4600466 328.025600
   1358   1356   2544     1   109.7800468 425.094400
   1360   1359   2567     1   109.7800468 425.094400
   1360   1359   1361     1   108.4600466 328.025600
   1361   1359   2567     1   109.7800468 425.094400
   1363   1364   1365     1   109.8800469 414.216000
   1363   1364   1366     1   109.8800469 414.216000
   1363   1367   1368     1   109.8800469 414.216000
   1363   1367   1369     1   109.8800469 414.216000
   1363   1370   1371     1   109.8800469 414.216000
   1363   1370   1372     1   109.8800469 414.216000
   1364   1376   1377     1   109.8000471 387.438400
   1364   1376   1378     1   109.8000471 387.438400
   1365   1364   1376     1   109.5600471 388.275200
   1365   1364   1366     1   108.4600466 328.025600
   1366   1364   1376     1   109.5600471 388.275200
   1367   1379   1380     1   109.8000471 387.438400
   1367   1379   1381     1   109.8000471 387.438400
   1368   1367   1379     1   109.5600471 388.275200
   1368   1367   1369     1   108.4600466 328.025600
   1369   1367   1379     1   109.5600471 388.275200
   1370   1373   1374     1   109.8000471 387.438400
   1370   1373   1375     1   109.8000471 387.438400
   1371   1370   1373     1   109.5600471 388.275200
   1371   1370   1372     1   108.4600466 328.025600
   1372   1370   1373     1   109.5600471 388.275200
   1373   1382   1383     1   109.5600471 388.275200
   1373   1382   1384     1   109.5600471 388.275200
   1374   1373   1382     1   109.8000471 387.438400
   1374   1373   1375     1   107.5800459 329.699200
   1375   1373   1382     1   109.8000471 387.438400
   1376   1388   1389     1   109.5600471 388.275200
   1376   1388   1390     1   109.5600471 388.275200
   1377   1376   1388     1   109.8000471 387.438400
   1377   1376   1378     1   107.5800459 329.699200
   1378   1376   1388     1   109.8000471 387.438400
   1379   1385   1386     1   109.5600471 388.275200
   1379   1385   1387     1   109.5600471 388.275200
   1380   1379   1385     1   109.8000471 387.438400
   1380   1379   1381     1   107.5800459 329.699200
   1381   1379   1385     1   109.8000471 387.438400
   1383   1382   1391     1   109.7800468 425.094400
   1383   1382   1384     1   108.4600466 328.025600
   1384   1382   1391     1   109.7800468 425.094400
   1386   1385   2590     1   109.7800468 425.094400
   1386   1385   1387     1   108.4600466 328.025600
   1387   1385   2590     1   109.7800468 425.094400
   1389   1388   2613     1   109.7800468 425.094400
   1389   1388   1390     1   108.4600466 328.025600
   1390   1388   2613     1   109.7800468 425.094400
   1392   1393   1394     1   109.8800469 414.216000
   1392   1393   1395     1   109.8800469 414.216000
   1392   1396   1397     1   109.8800469 414.216000
   1392   1396   1398     1   109.8800469 414.216000
   1392   1399   1400     1   109.8800469 414.216000
   1392   1399   1401     1   109.8800469 414.216000
   1393   1405   1406     1   109.8000471 387.438400
   1393   1405   1407     1   109.8000471 387.438400
   1394   1393   1405     1   109.5600471 388.275200
   1394   1393   1395     1   108.4600466 328.025600
   1395   1393   1405     1   109.5600471 388.275200
   1396   1408   1409     1   109.8000471 387.438400
   1396   1408   1410     1   109.8000471 387.438400
   1397   1396   1408     1   109.5600471 388.275200
   1397   1396   1398     1   108.4600466 328.025600
   1398   1396   1408     1   109.5600471 388.275200
   1399   1402   1403     1   109.8000471 387.438400
   1399   1402   1404     1   109.8000471 387.438400
   1400   1399   1402     1   109.5600471 388.275200
   1400   1399   1401     1   108.4600466 328.025600
   1401   1399   1402     1   109.5600471 388.275200
   1402   1411   1412     1   109.5600471 388.275200
   1402   1411   1413     1   109.5600471 388.275200
   1403   1402   1411     1   109.8000471 387.438400
   1403   1402   1404     1   107.5800459 329.699200
   1404   1402   1411     1   109.8000471 387.438400
   1405   1417   1418     1   109.5600471 388.275200
   1405   1417   1419     1   109.5600471 388.275200
   1406   1405   1417     1   109.8000471 387.438400
   1406   1405   1407     1   107.5800459 329.699200
   1407   1405   1417     1   109.8000471 387.438400
   1408   1414   1415     1   109.5600471 388.275200
   1408   1414   1416     1   109.5600471 388.275200
   1409   1408   1414     1   109.8000471 387.438400
   1409   1408   1410     1   107.5800459 329.699200
   1410   1408   1414     1   109.8000471 387.438400
   1412   1411   1420     1   109.7800468 425.094400
   1412   1411   1413     1   108.4600466 328.025600
   1413   1411   1420     1   109.7800468 425.094400
   1415   1414   2636     1   109.7800468 425.094400
   1415   1414   1416     1   108.4600466 328.025600
   1416   1414   2636     1   109.7800468 425.094400
   1418   1417   2659     1   109.7800468 425.094400
   1418   1417   1419     1   108.4600466 328.025600
   1419   1417   2659     1   109.7800468 425.094400
   1421   1422   1423     1   109.8800469 414.216000
   1421   1422   1424     1   109.8800469 414.216000
   1421   1425   1426     1   109.8800469 414.216000
   1421   1425   1427     1   109.8800469 414.216000
   1421   1428   1429     1   109.8800469 414.216000
   1421   1428   1430     1   109.8800469 414.216000
   1422   1434   1435     1   109.8000471 387.438400
   1422   1434   1436     1   109.8000471 387.438400
   1423   1422   1434     1   109.5600471 388.275200
   1423   1422   1424     1   108.4600466 328.025600
   1424   1422   1434     1   109.5600471 388.275200
   1425   1437   1438     1   109.8000471 387.438400
   1425   1437   1439     1   109.8000471 387.438400
   1426   1425   1437     1   109.5600471 388.275200
   1426   1425   1427     1   108.4600466 328.025600
   1427   1425   1437     1   109.5600471 388.275200
   1428   1431   1432     1   109.8000471 387.438400
   1428   1431   1433     1   109.8000471 387.438400
   1429   1428   1431     1   109.5600471 388.275200
   1429   1428   1430     1   108.4600466 328.025600
   1430   1428   1431     1   109.5600471 388.275200
   1431   1440   1441     1   109.5600471 388.275200
   1431   1440   1442     1   109.5600471 388.275200
   1432   1431   1440     1   109.8000471 387.438400
   1432   1431   1433     1   107.5800459 329.699200
   1433   1431   1440     1   109.8000471 387.438400
   1434   1446   1447     1   109.5600471 388.275200
   1434   1446   1448     1   109.5600471 388.275200
   1435   1434   1446     1   109.8000471 387.438400
   1435   1434   1436     1   107.5800459 329.699200
   1436   1434   1446     1   109.8000471 387.438400
   1437   1443   1444     1   109.5600471 388.275200
   1437   1443   1445     1   109.5600471 388.275200
   1438   1437   1443     1   109.8000471 387.438400
   1438   1437   1439     1   107.5800459 329.699200
   1439   1437   1443     1   109.8000471 387.438400
   1441   1440   1449     1   109.7800468 425.094400
   1441   1440   1442     1   108.4600466 328.025600
   1442   1440   1449     1   109.7800468 425.094400
   1444   1443   2682     1   109.7800468 425.094400
   1444   1443   1445     1   108.4600466 328.025600
   1445   1443   2682     1   109.7800468 425.094400
   1447   1446   2705     1   109.7800468 425.094400
   1447   1446   1448     1   108.4600466 328.025600
   1448   1446   2705     1   109.7800468 425.094400
   1450   1451   1452     1   109.8800469 414.216000
   1450   1451   1453     1   109.8800469 414.216000
   1450   1454   1455     1   109.8800469 414.216000
   1450   1454   1456     1   109.8800469 414.216000
   1450   1457   1458     1   109.8800469 414.216000
   1450   1457   1459     1   109.8800469 414.216000
   1451   1463   1464     1   109.8000471 387.438400
   1451   1463   1465     1   109.8000471 387.438400
   1452   1451   1463     1   109.5600471 388.275200
   1452   1451   1453     1   108.4600466 328.025600
   1453   1451   1463     1   109.5600471 388.275200
   1454   1466   1467     1   109.8000471 387.438400
   1454   1466   1468     1   109.8000471 387.438400
   1455   1454   1466     1   109.5600471 388.275200
   1455   1454   1456     1   108.4600466 328.025600
   1456   1454   1466     1   109.5600471 388.275200
   1457   1460   1461     1   109.8000471 387.438400
   1457   1460   1462     1   109.8000471 387.438400
   1458   1457   1460     1   109.5600471 388.275200
   1458   1457   1459     1   108.4600466 328.025600
   1459   1457   1460     1   109.5600471 388.275200
   1460   1469   1470     1   109.5600471 388.275200
   1460   1469   1471     1   109.5600471 388.275200
   1461   1460   1469     1   109.8000471 387.438400
   1461   1460   1462     1   107.5800459 329.699200
   1462   1460   1469     1   109.8000471 387.438400
   1463   1475   1476     1   109.5600471 388.275200
   1463   1475   1477     1   109.5600471 388.275200
   1464   1463   1475     1   109.8000471 387.438400
   1464   1463   1465     1   107.5800459 329.699200
   1465   1463   1475     1   109.8000471 387.438400
   1466   1472   1473     1   109.5600471 388.275200
   1466   1472   1474     1   109.5600471 388.275200
   1467   1466   1472     1   109.8000471 387.438400
   1467   1466   1468     1   107.5800459 329.699200
   1468   1466   1472     1   109.8000471 387.438400
   1470   1469   1478     1   109.7800468 425.094400
   1470   1469   1471     1   108.4600466 328.025600
   1471   1469   1478     1   109.7800468 425.094400
   1473   1472   2728     1   109.7800468 425.094400
   1473   1472   1474     1   108.4600466 328.025600
   1474   1472   2728     1   109.7800468 425.094400
   1476   1475   2751     1   109.7800468 425.094400
   1476   1475   1477     1   108.4600466 328.025600
   1477   1475   2751     1   109.7800468 425.094400
   1479   1480   1481     1   109.8800469 414.216000
   1479   1480   1482     1   109.8800469 414.216000
   1479   1483   1484     1   109.8800469 414.216000
   1479   1483   1485     1   109.8800469 414.216000
   1479   1486   1487     1   109.8800469 414.216000
   1479   1486   1488     1   109.8800469 414.216000
   1480   1492   1493     1   109.8000471 387.438400
   1480   1492   1494     1   109.8000471 387.438400
   1481   1480   1492     1   109.5600471 388.275200
   1481   1480   1482     1   108.4600466 328.025600
   1482   1480   1492     1   109.5600471 388.275200
   1483   1495   1496     1   109.8000471 387.438400
   1483   1495   1497     1   109.8000471 387.438400
   1484   1483   1495     1   109.5600471 388.275200
   1484   1483   1485     1   108.4600466 328.025600
   1485   1483   1495     1   109.5600471 388.275200
   1486   1489   1490     1   109.8000471 387.438400
   1486   1489   1491     1   109.8000471 387.438400
   1487   1486   1489     1   109.5600471 388.275200
   1487   1486   1488     1   108.4600466 328.025600
   1488   1486   1489     1   109.5600471 388.275200
   1489   1498   1499     1   109.5600471 388.275200
   1489   1498   1500     1   109.5600471 388.275200
   1490   1489   1498     1   109.8000471 387.438400
   1490   1489   1491     1   107.5800459 329.699200
   1491   1489   1498     1   109.8000471 387.438400
   1492   1504   1505     1   109.5600471 388.275200
   1492   1504   1506     1   109.5600471 388.275200
   1493   1492   1504     1   109.8000471 387.438400
   1493   1492   1494     1   107.5800459 329.699200
   1494   1492   1504     1   109.8000471 387.438400
   1495   1501   1502     1   109.5600471 388.275200
   1495   1501   1503     1   109.5600471 388.275200
   1496   1495   1501     1   109.8000471 387.438400
   1496   1495   1497     1   107.5800459 329.699200
   1497   1495   1501     1   109.8000471 387.438400
   1499   1498   1507     1   109.7800468 425.094400
   1499   1498   1500     1   108.4600466 328.025600
   1500   1498   1507     1   109.7800468 425.094400
   1502   1501   2774     1   109.7800468 425.094400
   1502   1501   1503     1   108.4600466 328.025600
   1503   1501   2774     1   109.7800468 425.094400
   1505   1504   2797     1   109.7800468 425.094400
   1505   1504   1506     1   108.4600466 328.025600
   1506   1504   2797     1   109.7800468 425.094400
   1508   1509   1510     1   109.8800469 414.216000
   1508   1509   1511     1   109.8800469 414.216000
   1508   1512   1513     1   109.8800469 414.216000
   1508   1512   1514     1   109.8800469 414.216000
   1508   1515   1516     1   109.8800469 414.216000
   1508   1515   1517     1   109.8800469 414.216000
   1509   1521   1522     1   109.8000471 387.438400
   1509   1521   1523     1   109.8000471 387.438400
   1510   1509   1521     1   109.5600471 388.275200
   1510   1509   1511     1   108.4600466 328.025600
   1511   1509   1521     1   109.5600471 388.275200
   1512   1524   1525     1   109.8000471 387.438400
   1512   1524   1526     1   109.8000471 387.438400
   1513   1512   1524     1   109.5600471 388.275200
   1513   1512   1514     1   108.4600466 328.025600
   1514   1512   1524     1   109.5600471 388.275200
   1515   1518   1519     1   109.8000471 387.438400
   1515   1518   1520     1   109.8000471 387.438400
   1516   1515   1518     1   109.5600471 388.275200
   1516   1515   1517     1   108.4600466 328.025600
   1517   1515   1518     1   109.5600471 388.275200
   1518   1527   1528     1   109.5600471 388.275200
   1518   1527   1529     1   109.5600471 388.275200
   1519   1518   1527     1   109.8000471 387.438400
   1519   1518   1520     1   107.5800459 329.699200
   1520   1518   1527     1   109.8000471 387.438400
   1521   1533   1534     1   109.5600471 388.275200
   1521   1533   1535     1   109.5600471 388.275200
   1522   1521   1533     1   109.8000471 387.438400
   1522   1521   1523     1   107.5800459 329.699200
   1523   1521   1533     1   109.8000471 387.438400
   1524   1530   1531     1   109.5600471 388.275200
   1524   1530   1532     1   109.5600471 388.275200
   1525   1524   1530     1   109.8000471 387.438400
   1525   1524   1526     1   107.5800459 329.699200
   1526   1524   1530     1   109.8000471 387.438400
   1528   1527   1536     1   109.7800468 425.094400
   1528   1527   1529     1   108.4600466 328.025600
   1529   1527   1536     1   109.7800468 425.094400
   1531   1530   2820     1   109.7800468 425.094400
   1531   1530   1532     1   108.4600466 328.025600
   1532   1530   2820     1   109.7800468 425.094400
   1534   1533   2843     1   109.7800468 425.094400
   1534   1533   1535     1   108.4600466 328.025600
   1535   1533   2843     1   109.7800468 425.094400
   1537   1538   1539     1   109.8800469 414.216000
   1537   1538   1540     1   109.8800469 414.216000
   1537   1541   1542     1   109.8800469 414.216000
   1537   1541   1543     1   109.8800469 414.216000
   1537   1544   1545     1   109.8800469 414.216000
   1537   1544   1546     1   109.8800469 414.216000
   1538   1550   1551     1   109.8000471 387.438400
   1538   1550   1552     1   109.8000471 387.438400
   1539   1538   1550     1   109.5600471 388.275200
   1539   1538   1540     1   108.4600466 328.025600
   1540   1538   1550     1   109.5600471 388.275200
   1541   1553   1554     1   109.8000471 387.438400
   1541   1553   1555     1   109.8000471 387.438400
   1542   1541   1553     1   109.5600471 388.275200
   1542   1541   1543     1   108.4600466 328.025600
   1543   1541   1553     1   109.5600471 388.275200
   1544   1547   1548     1   109.8000471 387.438400
   1544   1547   1549     1   109.8000471 387.438400
   1545   1544   1547     1   109.5600471 388.275200
   1545   1544   1546     1   108.4600466 328.025600
   1546   1544   1547     1   109.5600471 388.275200
   1547   1556   1557     1   109.5600471 388.275200
   1547   1556   1558     1   109.5600471 388.275200
   1548   1547   1556     1   109.8000471 387.438400
   1548   1547   1549     1   107.5800459 329.699200
   1549   1547   1556     1   109.8000471 387.438400
   1550   1562   1563     1   109.5600471 388.275200
   1550   1562   1564     1   109.5600471 388.275200
   1551   1550   1562     1   109.8000471 387.438400
   1551   1550   1552     1   107.5800459 329.699200
   1552   1550   1562     1   109.8000471 387.438400
   1553   1559   1560     1   109.5600471 388.275200
   1553   1559   1561     1   109.5600471 388.275200
   1554   1553   1559     1   109.8000471 387.438400
   1554   1553   1555     1   107.5800459 329.699200
   1555   1553   1559     1   109.8000471 387.438400
   1557   1556   1565     1   109.7800468 425.094400
   1557   1556   1558     1   108.4600466 328.025600
   1558   1556   1565     1   109.7800468 425.094400
   1560   1559   2866     1   109.7800468 425.094400
   1560   1559   1561     1   108.4600466 328.025600
   1561   1559   2866     1   109.7800468 425.094400
   1563   1562   2889     1   109.7800468 425.094400
   1563   1562   1564     1   108.4600466 328.025600
   1564   1562   2889     1   109.7800468 425.094400
   1566   1567   1568     1   109.8800469 414.216000
   1566   1567   1569     1   109.8800469 414.216000
   1566   1570   1571     1   109.8800469 414.216000
   1566   1570   1572     1   109.8800469 414.216000
   1566   1573   1574     1   109.8800469 414.216000
   1566   1573   1575     1   109.8800469 414.216000
   1567   1579   1580     1   109.8000471 387.438400
   1567   1579   1581     1   109.8000471 387.438400
   1568   1567   1579     1   109.5600471 388.275200
   1568   1567   1569     1   108.4600466 328.025600
   1569   1567   1579     1   109.5600471 388.275200
   1570   1582   1583     1   109.8000471 387.438400
   1570   1582   1584     1   109.8000471 387.438400
   1571   1570   1582     1   109.5600471 388.275200
   1571   1570   1572     1   108.4600466 328.025600
   1572   1570   1582     1   109.5600471 388.275200
   1573   1576   1577     1   109.8000471 387.438400
   1573   1576   1578     1   109.8000471 387.438400
   1574   1573   1576     1   109.5600471 388.275200
   1574   1573   1575     1   108.4600466 328.025600
   1575   1573   1576     1   109.5600471 388.275200
   1576   1585   1586     1   109.5600471 388.275200
   1576   1585   1587     1   109.5600471 388.275200
   1577   1576   1585     1   109.8000471 387.438400
   1577   1576   1578     1   107.5800459 329.699200
   1578   1576   1585     1   109.8000471 387.438400
   1579   1591   1592     1   109.5600471 388.275200
   1579   1591   1593     1   109.5600471 388.275200
   1580   1579   1591     1   109.8000471 387.438400
   1580   1579   1581     1   107.5800459 329.699200
   1581   1579   1591     1   109.8000471 387.438400
   1582   1588   1589     1   109.5600471 388.275200
   1582   1588   1590     1   109.5600471 388.275200
   1583   1582   1588     1   109.8000471 387.438400
   1583   1582   1584     1   107.5800459 329.699200
   1584   1582   1588     1   109.8000471 387.438400
   1586   1585   1594     1   109.7800468 425.094400
   1586   1585   1587     1   108.4600466 328.025600
   1587   1585   1594     1   109.7800468 425.094400
   1589   1588   2912     1   109.7800468 425.094400
   1589   1588   1590     1   108.4600466 328.025600
   1590   1588   2912     1   109.7800468 425.094400
   1592   1591   2935     1   109.7800468 425.094400
   1592   1591   1593     1   108.4600466 328.025600
   1593   1591   2935     1   109.7800468 425.094400
   1595   1596   1597     1   109.8800469 414.216000
   1595   1596   1598     1   109.8800469 414.216000
   1595   1599   1600     1   109.8800469 414.216000
   1595   1599   1601     1   109.8800469 414.216000
   1595   1602   1603     1   109.8800469 414.216000
   1595   1602   1604     1   109.8800469 414.216000
   1596   1608   1609     1   109.8000471 387.438400
   1596   1608   1610     1   109.8000471 387.438400
   1597   1596   1608     1   109.5600471 388.275200
   1597   1596   1598     1   108.4600466 328.025600
   1598   1596   1608     1   109.5600471 388.275200
   1599   1611   1612     1   109.8000471 387.438400
   1599   1611   1613     1   109.8000471 387.438400
   1600   1599   1611     1   109.5600471 388.275200
   1600   1599   1601     1   108.4600466 328.025600
   1601   1599   1611     1   109.5600471 388.275200
   1602   1605   1606     1   109.8000471 387.438400
   1602   1605   1607     1   109.8000471 387.438400
   1603   1602   1605     1   109.5600471 388.275200
   1603   1602   1604     1   108.4600466 328.025600
   1604   1602   1605     1   109.5600471 388.275200
   1605   1614   1615     1   109.5600471 388.275200
   1605   1614   1616     1   109.5600471 388.275200
   1606   1605   1614     1   109.8000471 387.438400
   1606   1605   1607     1   107.5800459 329.699200
   1607   1605   1614     1   109.8000471 387.438400
   1608   1620   1621     1   109.5600471 388.275200
   1608   1620   1622     1   109.5600471 388.275200
   1609   1608   1620     1   109.8000471 387.438400
   1609   1608   1610     1   107.5800459 329.699200
   1610   1608   1620     1   109.8000471 387.438400
   1611   1617   1618     1   109.5600471 388.275200
   1611   1617   1619     1   109.5600471 388.275200
   1612   1611   1617     1   109.8000471 387.438400
   1612   1611   1613     1   107.5800459 329.699200
   1613   1611   1617     1   109.8000471 387.438400
   1615   1614   1623     1   109.7800468 425.094400
   1615   1614   1616     1   108.4600466 328.025600
   1616   1614   1623     1   109.7800468 425.094400
   1618   1617   2958     1   109.7800468 425.094400
   1618   1617   1619     1   108.4600466 328.025600
   1619   1617   2958     1   109.7800468 425.094400
   1621   1620   2981     1   109.7800468 425.094400
   1621   1620   1622     1   108.4600466 328.025600
   1622   1620   2981     1   109.7800468 425.094400
   1624   1625   1626     1   109.8800469 414.216000
   1624   1625   1627     1   109.8800469 414.216000
   1624   1628   1629     1   109.8800469 414.216000
   1624   1628   1630     1   109.8800469 414.216000
   1624   1631   1632     1   109.8800469 414.216000
   1624   1631   1633     1   109.8800469 414.216000
   1625   1637   1638     1   109.8000471 387.438400
   1625   1637   1639     1   109.8000471 387.438400
   1626   1625   1637     1   109.5600471 388.275200
   1626   1625   1627     1   108.4600466 328.025600
   1627   1625   1637     1   109.5600471 388.275200
   1628   1640   1641     1   109.8000471 387.438400
   1628   1640   1642     1   109.8000471 387.438400
   1629   1628   1640     1   109.5600471 388.275200
   1629   1628   1630     1   108.4600466 328.025600
   1630   1628   1640     1   109.5600471 388.275200
   1631   1634   1635     1   109.8000471 387.438400
   1631   1634   1636     1   109.8000471 387.438400
   1632   1631   1634     1   109.5600471 388.275200
   1632   1631   1633     1   108.4600466 328.025600
   1633   1631   1634     1   109.5600471 388.275200
   1634   1643   1644     1   109.5600471 388.275200
   1634   1643   1645     1   109.5600471 388.275200
   1635   1634   1643     1   109.8000471 387.438400
   1635   1634   1636     1   107.5800459 329.699200
   1636   1634   1643     1   109.8000471 387.438400
   1637   1649   1650     1   109.5600471 388.275200
   1637   1649   1651     1   109.5600471 388.275200
   1638   1637   1649     1   109.8000471 387.438400
   1638   1637   1639     1   107.5800459 329.699200
   1639   1637   1649     1   109.8000471 387.438400
   1640   1646   1647     1   109.5600471 388.275200
   1640   1646   1648     1   109.5600471 388.275200
   1641   1640   1646     1   109.8000471 387.438400
   1641   1640   1642     1   107.5800459 329.699200
   1642   1640   1646     1   109.8000471 387.438400
   1644   1643   1652     1   109.7800468 425.094400
   1644   1643   1645     1   108.4600466 328.025600
   1645   1643   1652     1   109.7800468 425.094400
   1647   1646   3004     1   109.7800468 425.094400
   1647   1646   1648     1   108.4600466 328.025600
   1648   1646   3004     1   109.7800468 425.094400
   1650   1649   3027     1   109.7800468 425.094400
   1650   1649   1651     1   108.4600466 328.025600
   1651   1649   3027     1   109.7800468 425.094400
   1653   1654   1655     1   109.8800469 414.216000
   1653   1654   1656     1   109.8800469 414.216000
   1653   1657   1658     1   109.8800469 414.216000
   1653   1657   1659     1   109.8800469 414.216000
   1653   1660   1661     1   109.8800469 414.216000
   1653   1660   1662     1   109.8800469 414.216000
   1654   1666   1667     1   109.8000471 387.438400
   1654   1666   1668     1   109.8000471 387.438400
   1655   1654   1666     1   109.5600471 388.275200
   1655   1654   1656     1   108.4600466 328.025600
   1656   1654   1666     1   109.5600471 388.275200
   1657   1669   1670     1   109.8000471 387.438400
   1657   1669   1671     1   109.8000471 387.438400
   1658   1657   1669     1   109.5600471 388.275200
   1658   1657   1659     1   108.4600466 328.025600
   1659   1657   1669     1   109.5600471 388.275200
   1660   1663   1664     1   109.8000471 387.438400
   1660   1663   1665     1   109.8000471 387.438400
   1661   1660   1663     1   109.5600471 388.275200
   1661   1660   1662     1   108.4600466 328.025600
   1662   1660   1663     1   109.5600471 388.275200
   1663   1672   1673     1   109.5600471 388.275200
   1663   1672   1674     1   109.5600471 388.275200
   1664   1663   1672     1   109.8000471 387.438400
   1664   1663   1665     1   107.5800459 329.699200
   1665   1663   1672     1   109.8000471 387.438400
   1666   1678   1679     1   109.5600471 388.275200
   1666   1678   1680     1   109.5600471 388.275200
   1667   1666   1678     1   109.8000471 387.438400
   1667   1666   1668     1   107.5800459 329.699200
   1668   1666   1678     1   109.8000471 387.438400
   1669   1675   1676     1   109.5600471 388.275200
   1669   1675   1677     1   109.5600471 388.275200
   1670   1669   1675     1   109.8000471 387.438400
   1670   1669   1671     1   107.5800459 329.699200
   1671   1669   1675     1   109.8000471 387.438400
   1673   1672   1681     1   109.7800468 425.094400
   1673   1672   1674     1   108.4600466 328.025600
   1674   1672   1681     1   109.7800468 425.094400
   1676   1675   3050     1   109.7800468 425.094400
   1676   1675   1677     1   108.4600466 328.025600
   1677   1675   3050     1   109.7800468 425.094400
   1679   1678   3073     1   109.7800468 425.094400
   1679   1678   1680     1   108.4600466 328.025600
   1680   1678   3073     1   109.7800468 425.094400
   1682   1683   1684     1   109.8800469 414.216000
   1682   1683   1685     1   109.8800469 414.216000
   1682   1686   1687     1   109.8800469 414.216000
   1682   1686   1688     1   109.8800469 414.216000
   1682   1689   1690     1   109.8800469 414.216000
   1682   1689   1691     1   109.8800469 414.216000
   1683   1695   1696     1   109.8000471 387.438400
   1683   1695   1697     1   109.8000471 387.438400
   1684   1683   1695     1   109.5600471 388.275200
   1684   1683   1685     1   108.4600466 328.025600
   1685   1683   1695     1   109.5600471 388.275200
   1686   1698   1699     1   109.8000471 387.438400
   1686   1698   1700     1   109.8000471 387.438400
   1687   1686   1698     1   109.5600471 388.275200
   1687   1686   1688     1   108.4600466 328.025600
   1688   1686   1698     1   109.5600471 388.275200
   1689   1692   1693     1   109.8000471 387.438400
   1689   1692   1694     1   109.8000471 387.438400
   1690   1689   1692     1   109.5600471 388.275200
   1690   1689   1691     1   108.4600466 328.025600
   1691   1689   1692     1   109.5600471 388.275200
   1692   1701   1702     1   109.5600471 388.275200
   1692   1701   1703     1   109.5600471 388.275200
   1693   1692   1701     1   109.8000471 387.438400
   1693   1692   1694     1   107.5800459 329.699200
   1694   1692   1701     1   109.8000471 387.438400
   1695   1707   1708     1   109.5600471 388.275200
   1695   1707   1709     1   109.5600471 388.275200
   1696   1695   1707     1   109.8000471 387.438400
   1696   1695   1697     1   107.5800459 329.699200
   1697   1695   1707     1   109.8000471 387.438400
   1698   1704   1705     1   109.5600471 388.275200
   1698   1704   1706     1   109.5600471 388.275200
   1699   1698   1704     1   109.8000471 387.438400
   1699   1698   1700     1   107.5800459 329.699200
   1700   1698   1704     1   109.8000471 387.438400
   1702   1701   1710     1   109.7800468 425.094400
   1702   1701   1703     1   108.4600466 328.025600
   1703   1701   1710     1   109.7800468 425.094400
   1705   1704   3096     1   109.7800468 425.094400
   1705   1704   1706     1   108.4600466 328.025600
   1706   1704   3096     1   109.7800468 425.094400
   1708   1707   3119     1   109.7800468 425.094400
   1708   1707   1709     1   108.4600466 328.025600
   1709   1707   3119     1   109.7800468 425.094400
   1711   1712   1713     1   109.8800469 414.216000
   1711   1712   1714     1   109.8800469 414.216000
   1711   1715   1716     1   109.8800469 414.216000
   1711   1715   1717     1   109.8800469 414.216000
   1711   1718   1719     1   109.8800469 414.216000
   1711   1718   1720     1   109.8800469 414.216000
   1712   1724   1725     1   109.8000471 387.438400
   1712   1724   1726     1   109.8000471 387.438400
   1713   1712   1724     1   109.5600471 388.275200
   1713   1712   1714     1   108.4600466 328.025600
   1714   1712   1724     1   109.5600471 388.275200
   1715   1727   1728     1   109.8000471 387.438400
   1715   1727   1729     1   109.8000471 387.438400
   1716   1715   1727     1   109.5600471 388.275200
   1716   1715   1717     1   108.4600466 328.025600
   1717   1715   1727     1   109.5600471 388.275200
   1718   1721   1722     1   109.8000471 387.438400
   1718   1721   1723     1   109.8000471 387.438400
   1719   1718   1721     1   109.5600471 388.275200
   1719   1718   1720     1   108.4600466 328.025600
   1720   1718   1721     1   109.5600471 388.275200
   1721   1730   1731     1   109.5600471 388.275200
   1721   1730   1732     1   109.5600471 388.275200
   1722   1721   1730     1   109.8000471 387.438400
   1722   1721   1723     1   107.5800459 329.699200
   1723   1721   1730     1   109.8000471 387.438400
   1724   1736   1737     1   109.5600471 388.275200
   1724   1736   1738     1   109.5600471 388.275200
   1725   1724   1736     1   109.8000471 387.438400
   1725   1724   1726     1   107.5800459 329.699200
   1726   1724   1736     1   109.8000471 387.438400
   1727   1733   1734     1   109.5600471 388.275200
   1727   1733   1735     1   109.5600471 388.275200
   1728   1727   1733     1   109.8000471 387.438400
   1728   1727   1729     1   107.5800459 329.699200
   1729   1727   1733     1   109.8000471 387.438400
   1731   1730   1739     1   109.7800468 425.094400
   1731   1730   1732     1   108.4600466 328.025600
   1732   1730   1739     1   109.7800468 425.094400
   1734   1733   3142     1   109.7800468 425.094400
   1734   1733   1735     1   108.4600466 328.025600
   1735   1733   3142     1   109.7800468 425.094400
   1737   1736   3165     1   109.7800468 425.094400
   1737   1736   1738     1   108.4600466 328.025600
   1738   1736   3165     1   109.7800468 425.094400
   1740   1741   1742     1   109.8800469 414.216000
   1740   1741   1743     1   109.8800469 414.216000
   1740   1744   1745     1   109.8800469 414.216000
   1740   1744   1746     1   109.8800469 414.216000
   1740   1747   1748     1   109.8800469 414.216000
   1740   1747   1749     1   109.8800469 414.216000
   1741   1753   1754     1   109.8000471 387.438400
   1741   1753   1755     1   109.8000471 387.438400
   1742   1741   1753     1   109.5600471 388.275200
   1742   1741   1743     1   108.4600466 328.025600
   1743   1741   1753     1   109.5600471 388.275200
   1744   1756   1757     1   109.8000471 387.438400
   1744   1756   1758     1   109.8000471 387.438400
   1745   1744   1756     1   109.5600471 388.275200
   1745   1744   1746     1   108.4600466 328.025600
   1746   1744   1756     1   109.5600471 388.275200
   1747   1750   1751     1   109.8000471 387.438400
   1747   1750   1752     1   109.8000471 387.438400
   1748   1747   1750     1   109.5600471 388.275200
   1748   1747   1749     1   108.4600466 328.025600
   1749   1747   1750     1   109.5600471 388.275200
   1750   1759   1760     1   109.5600471 388.275200
   1750   1759   1761     1   109.5600471 388.275200
   1751   1750   1759     1   109.8000471 387.438400
   1751   1750   1752     1   107.5800459 329.699200
   1752   1750   1759     1   109.8000471 387.438400
   1753   1765   1766     1   109.5600471 388.275200
   1753   1765   1767     1   109.5600471 388.275200
   1754   1753   1765     1   109.8000471 387.438400
   1754   1753   1755     1   107.5800459 329.699200
   1755   1753   1765     1   109.8000471 387.438400
   1756   1762   1763     1   109.5600471 388.275200
   1756   1762   1764     1   109.5600471 388.275200
   1757   1756   1762     1   109.8000471 387.438400
   1757   1756   1758     1   107.5800459 329.699200
   1758   1756   1762     1   109.8000471 387.438400
   1760   1759   1768     1   109.7800468 425.094400
   1760   1759   1761     1   108.4600466 328.025600
   1761   1759   1768     1   109.7800468 425.094400
   1763   1762   3188     1   109.7800468 425.094400
   1763   1762   1764     1   108.4600466 328.025600
   1764   1762   3188     1   109.7800468 425.094400
   1766   1765   3211     1   109.7800468 425.094400
   1766   1765   1767     1   108.4600466 328.025600
   1767   1765   3211     1   109.7800468 425.094400
   1769   1770   1771     1   109.8800469 414.216000
   1769   1770   1772     1   109.8800469 414.216000
   1769   1773   1774     1   109.8800469 414.216000
   1769   1773   1775     1   109.8800469 414.216000
   1769   1776   1777     1   109.8800469 414.216000
   1769   1776   1778     1   109.8800469 414.216000
   1770   1782   1783     1   109.8000471 387.438400
   1770   1782   1784     1   109.8000471 387.438400
   1771   1770   1782     1   109.5600471 388.275200
   1771   1770   1772     1   108.4600466 328.025600
   1772   1770   1782     1   109.5600471 388.275200
   1773   1785   1786     1   109.8000471 387.438400
   1773   1785   1787     1   109.8000471 387.438400
   1774   1773   1785     1   109.5600471 388.275200
   1774   1773   1775     1   108.4600466 328.025600
   1775   1773   1785     1   109.5600471 388.275200
   1776   1779   1780     1   109.8000471 387.438400
   1776   1779   1781     1   109.8000471 387.438400
   1777   1776   1779     1   109.5600471 388.275200
   1777   1776   1778     1   108.4600466 328.025600
   1778   1776   1779     1   109.5600471 388.275200
   1779   1788   1789     1   109.5600471 388.275200
   1779   1788   1790     1   109.5600471 388.275200
   1780   1779   1788     1   109.8000471 387.438400
   1780   1779   1781     1   107.5800459 329.699200
   1781   1779   1788     1   109.8000471 387.438400
   1782   1794   1795     1   109.5600471 388.275200
   1782   1794   1796     1   109.5600471 388.275200
   1783   1782   1794     1   109.8000471 387.438400
   1783   1782   1784     1   107.5800459 329.699200
   1784   1782   1794     1   109.8000471 387.438400
   1785   1791   1792     1   109.5600471 388.275200
   1785   1791   1793     1   109.5600471 388.275200
   1786   1785   1791     1   109.8000471 387.438400
   1786   1785   1787     1   107.5800459 329.699200
   1787   1785   1791     1   109.8000471 387.438400
   1789   1788   1797     1   109.7800468 425.094400
   1789   1788   1790     1   108.4600466 328.025600
   1790   1788   1797     1   109.7800468 425.094400
   1792   1791   3234     1   109.7800468 425.094400
   1792   1791   1793     1   108.4600466 328.025600
   1793   1791   3234     1   109.7800468 425.094400
   1795   1794   3257     1   109.7800468 425.094400
   1795   1794   1796     1   108.4600466 328.025600
   1796   1794   3257     1   109.7800468 425.094400
   1798   1799   1801     1   109.5600471 388.275200
   1798   1812   1816     1   109.5600471 388.275200
   1798   1812   1817     1   109.5600471 388.275200
   1799   1798   1800     1   109.5600471 388.275200
   1799   1802   1806     1   109.5600471 388.275200
   1799   1811   1814     1   107.2600461 396.643200
   1800   1798   1812     1   109.5600471 388.275200
   1800   1798   1820     1   109.7800468 425.094400
   1801   1799   1802     1   109.5600471 388.275200
   1801   1799   1811     1   110.2600474 425.931200
   1802   1803   1805     1   109.5600471 388.275200
   1802   1810   1813     1   107.2600461 396.643200
   1803   1802   1806     1   109.5600471 388.275200
   1803   1804   1807     1   110.2200475 386.601600
   1803   1809   1815     1   107.2600461 396.643200
   1804   1803   1805     1   109.5600471 388.275200
   1805   1803   1809     1   110.2600474 425.931200
   1806   1802   1810     1   110.2600474 425.931200
   1807   1804   1808     1   109.5800467 425.931200
   1807   1804   1820     1   109.5800467 425.931200
   1812   1818   1819     1   107.2600461 396.643200
   1816   1812   1818     1   110.2600474 425.931200
   1816   1812   1817     1   108.4600466 328.025600
   1817   1812   1818     1   110.2600474 425.931200
   1821   1822   1824     1   109.5600471 388.275200
   1821   1835   1839     1   109.5600471 388.275200
   1821   1835   1840     1   109.5600471 388.275200
   1822   1825   1829     1   109.5600471 388.275200
   1822   1834   1837     1   107.2600461 396.643200
   1822   1821   1823     1   109.5600471 388.275200
   1823   1821   1835     1   109.5600471 388.275200
   1823   1821   1843     1   109.7800468 425.094400
   1824   1822   1825     1   109.5600471 388.275200
   1824   1822   1834     1   110.2600474 425.931200
   1825   1826   1828     1   109.5600471 388.275200
   1825   1833   1836     1   107.2600461 396.643200
   1826   1827   1830     1   110.2200475 386.601600
   1826   1832   1838     1   107.2600461 396.643200
   1826   1825   1829     1   109.5600471 388.275200
   1827   1826   1828     1   109.5600471 388.275200
   1828   1826   1832     1   110.2600474 425.931200
   1829   1825   1833     1   110.2600474 425.931200
   1830   1827   1831     1   109.5800467 425.931200
   1830   1827   1843     1   109.5800467 425.931200
   1835   1841   1842     1   107.2600461 396.643200
   1839   1835   1841     1   110.2600474 425.931200
   1839   1835   1840     1   108.4600466 328.025600
   1840   1835   1841     1   110.2600474 425.931200
   1844   1845   1847     1   109.5600471 388.275200
   1844   1858   1862     1   109.5600471 388.275200
   1844   1858   1863     1   109.5600471 388.275200
   1845   1844   1846     1   109.5600471 388.275200
   1845   1848   1852     1   109.5600471 388.275200
   1845   1857   1860     1   107.2600461 396.643200
   1846   1844   1858     1   109.5600471 388.275200
   1846   1844   1866     1   109.7800468 425.094400
   1847   1845   1848     1   109.5600471 388.275200
   1847   1845   1857     1   110.2600474 425.931200
   1848   1849   1851     1   109.5600471 388.275200
   1848   1856   1859     1   107.2600461 396.643200
   1849   1848   1852     1   109.5600471 388.275200
   1849   1850   1853     1   110.2200475 386.601600
   1849   1855   1861     1   107.2600461 396.643200
   1850   1849   1851     1   109.5600471 388.275200
   1851   1849   1855     1   110.2600474 425.931200
   1852   1848   1856     1   110.2600474 425.931200
   1853   1850   1854     1   109.5800467 425.931200
   1853   1850   1866     1   109.5800467 425.931200
   1858   1864   1865     1   107.2600461 396.643200
   1862   1858   1864     1   110.2600474 425.931200
   1862   1858   1863     1   108.4600466 328.025600
   1863   1858   1864     1   110.2600474 425.931200
   1867   1868   1870     1   109.5600471 388.275200
   1867   1881   1885     1   109.5600471 388.275200
   1867   1881   1886     1   109.5600471 388.275200
   1868   1871   1875     1   109.5600471 388.275200
   1868   1880   1883     1   107.2600461 396.643200
   1868   1867   1869     1   109.5600471 388.275200
   1869   1867   1881     1   109.5600471 388.275200
   1869   1867   1889     1   109.7800468 425.094400
   1870   1868   1871     1   109.5600471 388.275200
   1870   1868   1880     1   110.2600474 425.931200
   1871   1872   1874     1   109.5600471 388.275200
   1871   1879   1882     1   107.2600461 396.643200
   1872   1873   1876     1   110.2200475 386.601600
   1872   1878   1884     1   107.2600461 396.643200
   1872   1871   1875     1   109.5600471 388.275200
   1873   1872   1874     1   109.5600471 388.275200
   1874   1872   1878     1   110.2600474 425.931200
   1875   1871   1879     1   110.2600474 425.931200
   1876   1873   1877     1   109.5800467 425.931200
   1876   1873   1889     1   109.5800467 425.931200
   1881   1887   1888     1   107.2600461 396.643200
   1885   1881   1887     1   110.2600474 425.931200
   1885   1881   1886     1   108.4600466 328.025600
   1886   1881   1887     1   110.2600474 425.931200
   1890   1891   1893     1   109.5600471 388.275200
   1890   1904   1908     1   109.5600471 388.275200
   1890   1904   1909     1   109.5600471 388.275200
   1891   1890   1892     1   109.5600471 388.275200
   1891   1894   1898     1   109.5600471 388.275200
   1891   1903   1906     1   107.2600461 396.643200
   1892   1890   1904     1   109.5600471 388.275200
   1892   1890   1912     1   109.7800468 425.094400
   1893   1891   1894     1   109.5600471 388.275200
   1893   1891   1903     1   110.2600474 425.931200
   1894   1895   1897     1   109.5600471 388.275200
   1894   1902   1905     1   107.2600461 396.643200
   1895   1894   1898     1   109.5600471 388.275200
   1895   1896   1899     1   110.2200475 386.601600
   1895   1901   1907     1   107.2600461 396.643200
   1896   1895   1897     1   109.5600471 388.275200
   1897   1895   1901     1   110.2600474 425.931200
   1898   1894   1902     1   110.2600474 425.931200
   1899   1896   1900     1   109.5800467 425.931200
   1899   1896   1912     1   109.5800467 425.931200
   1904   1910   1911     1   107.2600461 396.643200
   1908   1904   1910     1   110.2600474 425.931200
   1908   1904   1909     1   108.4600466 328.025600
   1909   1904   1910     1   110.2600474 425.931200
   1913   1914   1916     1   109.5600471 388.275200
   1913   1927   1931     1   109.5600471 388.275200
   1913   1927   1932     1   109.5600471 388.275200
   1914   1917   1921     1   109.5600471 388.275200
   1914   1926   1929     1   107.2600461 396.643200
   1914   1913   1915     1   109.5600471 388.275200
   1915   1913   1927     1   109.5600471 388.275200
   1915   1913   1935     1   109.7800468 425.094400
   1916   1914   1917     1   109.5600471 388.275200
   1916   1914   1926     1   110.2600474 425.931200
   1917   1918   1920     1   109.5600471 388.275200
   1917   1925   1928     1   107.2600461 396.643200
   1918   1919   1922     1   110.2200475 386.601600
   1918   1924   1930     1   107.2600461 396.643200
   1918   1917   1921     1   109.5600471 388.275200
   1919   1918   1920     1   109.5600471 388.275200
   1920   1918   1924     1   110.2600474 425.931200
   1921   1917   1925     1   110.2600474 425.931200
   1922   1919   1923     1   109.5800467 425.931200
   1922   1919   1935     1   109.5800467 425.931200
   1927   1933   1934     1   107.2600461 396.643200
   1931   1927   1933     1   110.2600474 425.931200
   1931   1927   1932     1   108.4600466 328.025600
   1932   1927   1933     1   110.2600474 425.931200
   1936   1937   1939     1   109.5600471 388.275200
   1936   1950   1954     1   109.5600471 388.275200
   1936   1950   1955     1   109.5600471 388.275200
   1937   1936   1938     1   109.5600471 388.275200
   1937   1940   1944     1   109.5600471 388.275200
   1937   1949   1952     1   107.2600461 396.643200
   1938   1936   1950     1   109.5600471 388.275200
   1938   1936   1958     1   109.7800468 425.094400
   1939   1937   1940     1   109.5600471 388.275200
   1939   1937   1949     1   110.2600474 425.931200
   1940   1941   1943     1   109.5600471 388.275200
   1940   1948   1951     1   107.2600461 396.643200
   1941   1940   1944     1   109.5600471 388.275200
   1941   1942   1945     1   110.2200475 386.601600
   1941   1947   1953     1   107.2600461 396.643200
   1942   1941   1943     1   109.5600471 388.275200
   1943   1941   1947     1   110.2600474 425.931200
   1944   1940   1948     1   110.2600474 425.931200
   1945   1942   1946     1   109.5800467 425.931200
   1945   1942   1958     1   109.5800467 425.931200
   1950   1956   1957     1   107.2600461 396.643200
   1954   1950   1956     1   110.2600474 425.931200
   1954   1950   1955     1   108.4600466 328.025600
   1955   1950   1956     1   110.2600474 425.931200
   1959   1960   1962     1   109.5600471 388.275200
   1959   1973   1977     1   109.5600471 388.275200
   1959   1973   1978     1   109.5600471 388.275200
   1960   1963   1967     1   109.5600471 388.275200
   1960   1972   1975     1   107.2600461 396.643200
   1960   1959   1961     1   109.5600471 388.275200
   1961   1959   1973     1   109.5600471 388.275200
   1961   1959   1981     1   109.7800468 425.094400
   1962   1960   1963     1   109.5600471 388.275200
   1962   1960   1972     1   110.2600474 425.931200
   1963   1964   1966     1   109.5600471 388.275200
   1963   1971   1974     1   107.2600461 396.643200
   1964   1965   1968     1   110.2200475 386.601600
   1964   1970   1976     1   107.2600461 396.643200
   1964   1963   1967     1   109.5600471 388.275200
   1965   1964   1966     1   109.5600471 388.275200
   1966   1964   1970     1   110.2600474 425.931200
   1967   1963   1971     1   110.2600474 425.931200
   1968   1965   1969     1   109.5800467 425.931200
   1968   1965   1981     1   109.5800467 425.931200
   1973   1979   1980     1   107.2600461 396.643200
   1977   1973   1979     1   110.2600474 425.931200
   1977   1973   1978     1   108.4600466 328.025600
   1978   1973   1979     1   110.2600474 425.931200
   1982   1983   1985     1   109.5600471 388.275200
   1982   1996   2000     1   109.5600471 388.275200
   1982   1996   2001     1   109.5600471 388.275200
   1983   1982   1984     1   109.5600471 388.275200
   1983   1986   1990     1   109.5600471 388.275200
   1983   1995   1998     1   107.2600461 396.643200
   1984   1982   1996     1   109.5600471 388.275200
   1984   1982   2004     1   109.7800468 425.094400
   1985   1983   1986     1   109.5600471 388.275200
   1985   1983   1995     1   110.2600474 425.931200
   1986   1987   1989     1   109.5600471 388.275200
   1986   1994   1997     1   107.2600461 396.643200
   1987   1986   1990     1   109.5600471 388.275200
   1987   1988   1991     1   110.2200475 386.601600
   1987   1993   1999     1   107.2600461 396.643200
   1988   1987   1989     1   109.5600471 388.275200
   1989   1987   1993     1   110.2600474 425.931200
   1990   1986   1994     1   110.2600474 425.931200
   1991   1988   1992     1   109.5800467 425.931200
   1991   1988   2004     1   109.5800467 425.931200
   1996   2002   2003     1   107.2600461 396.643200
   2000   1996   2002     1   110.2600474 425.931200
   2000   1996   2001     1   108.4600466 328.025600
   2001   1996   2002     1   110.2600474 425.931200
   2005   2006   2008     1   109.5600471 388.275200
   2005   2019   2023     1   109.5600471 388.275200
   2005   2019   2024     1   109.5600471 388.275200
   2006   2009   2013     1   109.5600471 388.275200
   2006   2018   2021     1   107.2600461 396.643200
   2006   2005   2007     1   109.5600471 388.275200
   2007   2005   2019     1   109.5600471 388.275200
   2007   2005   2027     1   109.7800468 425.094400
   2008   2006   2009     1   109.5600471 388.275200
   2008   2006   2018     1   110.2600474 425.931200
   2009   2010   2012     1   109.5600471 388.275200
   2009   2017   2020     1   107.2600461 396.643200
   2010   2011   2014     1   110.2200475 386.601600
   2010   2016   2022     1   107.2600461 396.643200
   2010   2009   2013     1   109.5600471 388.275200
   2011   2010   2012     1   109.5600471 388.275200
   2012   2010   2016     1   110.2600474 425.931200
   2013   2009   2017     1   110.2600474 425.931200
   2014   2011   2015     1   109.5800467 425.931200
   2014   2011   2027     1   109.5800467 425.931200
   2019   2025   2026     1   107.2600461 396.643200
   2023   2019   2025     1   110.2600474 425.931200
   2023   2019   2024     1   108.4600466 328.025600
   2024   2019   2025     1   110.2600474 425.931200
   2028   2029   2031     1   109.5600471 388.275200
   2028   2042   2046     1   109.5600471 388.275200
   2028   2042   2047     1   109.5600471 388.275200
   2029   2028   2030     1   109.5600471 388.275200
   2029   2032   2036     1   109.5600471 388.275200
   2029   2041   2044     1   107.2600461 396.643200
   2030   2028   2042     1   109.5600471 388.275200
   2030   2028   2050     1   109.7800468 425.094400
   2031   2029   2032     1   109.5600471 388.275200
   2031   2029   2041     1   110.2600474 425.931200
   2032   2033   2035     1   109.5600471 388.275200
   2032   2040   2043     1   107.2600461 396.643200
   2033   2032   2036     1   109.5600471 388.275200
   2033   2034   2037     1   110.2200475 386.601600
   2033   2039   2045     1   107.2600461 396.643200
   2034   2033   2035     1   109.5600471 388.275200
   2035   2033   2039     1   110.2600474 425.931200
   2036   2032   2040     1   110.2600474 425.931200
   2037   2034   2038     1   109.5800467 425.931200
   2037   2034   2050     1   109.5800467 425.931200
   2042   2048   2049     1   107.2600461 396.643200
   2046   2042   2048     1   110.2600474 425.931200
   2046   2042   2047     1   108.4600466 328.025600
   2047   2042   2048     1   110.2600474 425.931200
   2051   2052   2054     1   109.5600471 388.275200
   2051   2065   2069     1   109.5600471 388.275200
   2051   2065   2070     1   109.5600471 388.275200
   2052   2055   2059     1   109.5600471 388.275200
   2052   2064   2067     1   107.2600461 396.643200
   2052   2051   2053     1   109.5600471 388.275200
   2053   2051   2065     1   109.5600471 388.275200
   2053   2051   2073     1   109.7800468 425.094400
   2054   2052   2055     1   109.5600471 388.275200
   2054   2052   2064     1   110.2600474 425.931200
   2055   2056   2058     1   109.5600471 388.275200
   2055   2063   2066     1   107.2600461 396.643200
   2056   2057   2060     1   110.2200475 386.601600
   2056   2062   2068     1   107.2600461 396.643200
   2056   2055   2059     1   109.5600471 388.275200
   2057   2056   2058     1   109.5600471 388.275200
   2058   2056   2062     1   110.2600474 425.931200
   2059   2055   2063     1   110.2600474 425.931200
   2060   2057   2061     1   109.5800467 425.931200
   2060   2057   2073     1   109.5800467 425.931200
   2065   2071   2072     1   107.2600461 396.643200
   2069   2065   2071     1   110.2600474 425.931200
   2069   2065   2070     1   108.4600466 328.025600
   2070   2065   2071     1   110.2600474 425.931200
   2074   2075   2077     1   109.5600471 388.275200
   2074   2088   2092     1   109.5600471 388.275200
   2074   2088   2093     1   109.5600471 388.275200
   2075   2074   2076     1   109.5600471 388.275200
   2075   2078   2082     1   109.5600471 388.275200
   2075   2087   2090     1   107.2600461 396.643200
   2076   2074   2088     1   109.5600471 388.275200
   2076   2074   2096     1   109.7800468 425.094400
   2077   2075   2078     1   109.5600471 388.275200
   2077   2075   2087     1   110.2600474 425.931200
   2078   2079   2081     1   109.5600471 388.275200
   2078   2086   2089     1   107.2600461 396.643200
   2079   2078   2082     1   109.5600471 388.275200
   2079   2080   2083     1   110.2200475 386.601600
   2079   2085   2091     1   107.2600461 396.643200
   2080   2079   2081     1   109.5600471 388.275200
   2081   2079   2085     1   110.2600474 425.931200
   2082   2078   2086     1   110.2600474 425.931200
   2083   2080   2084     1   109.5800467 425.931200
   2083   2080   2096     1   109.5800467 425.931200
   2088   2094   2095     1   107.2600461 396.643200
   2092   2088   2094     1   110.2600474 425.931200
   2092   2088   2093     1   108.4600466 328.025600
   2093   2088   2094     1   110.2600474 425.931200
   2097   2098   2100     1   109.5600471 388.275200
   2097   2111   2115     1   109.5600471 388.275200
   2097   2111   2116     1   109.5600471 388.275200
   2098   2101   2105     1   109.5600471 388.275200
   2098   2110   2113     1   107.2600461 396.643200
   2098   2097   2099     1   109.5600471 388.275200
   2099   2097   2111     1   109.5600471 388.275200
   2099   2097   2119     1   109.7800468 425.094400
   2100   2098   2101     1   109.5600471 388.275200
   2100   2098   2110     1   110.2600474 425.931200
   2101   2102   2104     1   109.5600471 388.275200
   2101   2109   2112     1   107.2600461 396.643200
   2102   2103   2106     1   110.2200475 386.601600
   2102   2108   2114     1   107.2600461 396.643200
   2102   2101   2105     1   109.5600471 388.275200
   2103   2102   2104     1   109.5600471 388.275200
   2104   2102   2108     1   110.2600474 425.931200
   2105   2101   2109     1   110.2600474 425.931200
   2106   2103   2107     1   109.5800467 425.931200
   2106   2103   2119     1   109.5800467 425.931200
   2111   2117   2118     1   107.2600461 396.643200
   2115   2111   2117     1   110.2600474 425.931200
   2115   2111   2116     1   108.4600466 328.025600
   2116   2111   2117     1   110.2600474 425.931200
   2120   2121   2123     1   109.5600471 388.275200
   2120   2134   2138     1   109.5600471 388.275200
   2120   2134   2139     1   109.5600471 388.275200
   2121   2120   2122     1   109.5600471 388.275200
   2121   2124   2128     1   109.5600471 388.275200
   2121   2133   2136     1   107.2600461 396.643200
   2122   2120   2134     1   109.5600471 388.275200
   2122   2120   2142     1   109.7800468 425.094400
   2123   2121   2124     1   109.5600471 388.275200
   2123   2121   2133     1   110.2600474 425.931200
   2124   2125   2127     1   109.5600471 388.275200
   2124   2132   2135     1   107.2600461 396.643200
   2125   2124   2128     1   109.5600471 388.275200
   2125   2126   2129     1   110.2200475 386.601600
   2125   2131   2137     1   107.2600461 396.643200
   2126   2125   2127     1   109.5600471 388.275200
   2127   2125   2131     1   110.2600474 425.931200
   2128   2124   2132     1   110.2600474 425.931200
   2129   2126   2130     1   109.5800467 425.931200
   2129   2126   2142     1   109.5800467 425.931200
   2134   2140   2141     1   107.2600461 396.643200
   2138   2134   2140     1   110.2600474 425.931200
   2138   2134   2139     1   108.4600466 328.025600
   2139   2134   2140     1   110.2600474 425.931200
   2143   2144   2146     1   109.5600471 388.275200
   2143   2157   2161     1   109.5600471 388.275200
   2143   2157   2162     1   109.5600471 388.275200
   2144   2147   2151     1   109.5600471 388.275200
   2144   2156   2159     1   107.2600461 396.643200
   2144   2143   2145     1   109.5600471 388.275200
   2145   2143   2157     1   109.5600471 388.275200
   2145   2143   2165     1   109.7800468 425.094400
   2146   2144   2147     1   109.5600471 388.275200
   2146   2144   2156     1   110.2600474 425.931200
   2147   2148   2150     1   109.5600471 388.275200
   2147   2155   2158     1   107.2600461 396.643200
   2148   2149   2152     1   110.2200475 386.601600
   2148   2154   2160     1   107.2600461 396.643200
   2148   2147   2151     1   109.5600471 388.275200
   2149   2148   2150     1   109.5600471 388.275200
   2150   2148   2154     1   110.2600474 425.931200
   2151   2147   2155     1   110.2600474 425.931200
   2152   2149   2153     1   109.5800467 425.931200
   2152   2149   2165     1   109.5800467 425.931200
   2157   2163   2164     1   107.2600461 396.643200
   2161   2157   2163     1   110.2600474 425.931200
   2161   2157   2162     1   108.4600466 328.025600
   2162   2157   2163     1   110.2600474 425.931200
   2166   2167   2169     1   109.5600471 388.275200
   2166   2180   2184     1   109.5600471 388.275200
   2166   2180   2185     1   109.5600471 388.275200
   2167   2166   2168     1   109.5600471 388.275200
   2167   2170   2174     1   109.5600471 388.275200
   2167   2179   2182     1   107.2600461 396.643200
   2168   2166   2180     1   109.5600471 388.275200
   2168   2166   2188     1   109.7800468 425.094400
   2169   2167   2170     1   109.5600471 388.275200
   2169   2167   2179     1   110.2600474 425.931200
   2170   2171   2173     1   109.5600471 388.275200
   2170   2178   2181     1   107.2600461 396.643200
   2171   2170   2174     1   109.5600471 388.275200
   2171   2172   2175     1   110.2200475 386.601600
   2171   2177   2183     1   107.2600461 396.643200
   2172   2171   2173     1   109.5600471 388.275200
   2173   2171   2177     1   110.2600474 425.931200
   2174   2170   2178     1   110.2600474 425.931200
   2175   2172   2176     1   109.5800467 425.931200
   2175   2172   2188     1   109.5800467 425.931200
   2180   2186   2187     1   107.2600461 396.643200
   2184   2180   2186     1   110.2600474 425.931200
   2184   2180   2185     1   108.4600466 328.025600
   2185   2180   2186     1   110.2600474 425.931200
   2189   2190   2192     1   109.5600471 388.275200
   2189   2203   2207     1   109.5600471 388.275200
   2189   2203   2208     1   109.5600471 388.275200
   2190   2193   2197     1   109.5600471 388.275200
   2190   2202   2205     1   107.2600461 396.643200
   2190   2189   2191     1   109.5600471 388.275200
   2191   2189   2203     1   109.5600471 388.275200
   2191   2189   2211     1   109.7800468 425.094400
   2192   2190   2193     1   109.5600471 388.275200
   2192   2190   2202     1   110.2600474 425.931200
   2193   2194   2196     1   109.5600471 388.275200
   2193   2201   2204     1   107.2600461 396.643200
   2194   2195   2198     1   110.2200475 386.601600
   2194   2200   2206     1   107.2600461 396.643200
   2194   2193   2197     1   109.5600471 388.275200
   2195   2194   2196     1   109.5600471 388.275200
   2196   2194   2200     1   110.2600474 425.931200
   2197   2193   2201     1   110.2600474 425.931200
   2198   2195   2199     1   109.5800467 425.931200
   2198   2195   2211     1   109.5800467 425.931200
   2203   2209   2210     1   107.2600461 396.643200
   2207   2203   2209     1   110.2600474 425.931200
   2207   2203   2208     1   108.4600466 328.025600
   2208   2203   2209     1   110.2600474 425.931200
   2212   2213   2215     1   109.5600471 388.275200
   2212   2226   2230     1   109.5600471 388.275200
   2212   2226   2231     1   109.5600471 388.275200
   2213   2212   2214     1   109.5600471 388.275200
   2213   2216   2220     1   109.5600471 388.275200
   2213   2225   2228     1   107.2600461 396.643200
   2214   2212   2226     1   109.5600471 388.275200
   2214   2212   2234     1   109.7800468 425.094400
   2215   2213   2216     1   109.5600471 388.275200
   2215   2213   2225     1   110.2600474 425.931200
   2216   2217   2219     1   109.5600471 388.275200
   2216   2224   2227     1   107.2600461 396.643200
   2217   2216   2220     1   109.5600471 388.275200
   2217   2218   2221     1   110.2200475 386.601600
   2217   2223   2229     1   107.2600461 396.643200
   2218   2217   2219     1   109.5600471 388.275200
   2219   2217   2223     1   110.2600474 425.931200
   2220   2216   2224     1   110.2600474 425.931200
   2221   2218   2222     1   109.5800467 425.931200
   2221   2218   2234     1   109.5800467 425.931200
   2226   2232   2233     1   107.2600461 396.643200
   2230   2226   2232     1   110.2600474 425.931200
   2230   2226   2231     1   108.4600466 328.025600
   2231   2226   2232     1   110.2600474 425.931200
   2235   2236   2238     1   109.5600471 388.275200
   2235   2249   2253     1   109.5600471 388.275200
   2235   2249   2254     1   109.5600471 388.275200
   2236   2239   2243     1   109.5600471 388.275200
   2236   2248   2251     1   107.2600461 396.643200
   2236   2235   2237     1   109.5600471 388.275200
   2237   2235   2249     1   109.5600471 388.275200
   2237   2235   2257     1   109.7800468 425.094400
   2238   2236   2239     1   109.5600471 388.275200
   2238   2236   2248     1   110.2600474 425.931200
   2239   2240   2242     1   109.5600471 388.275200
   2239   2247   2250     1   107.2600461 396.643200
   2240   2241   2244     1   110.2200475 386.601600
   2240   2246   2252     1   107.2600461 396.643200
   2240   2239   2243     1   109.5600471 388.275200
   2241   2240   2242     1   109.5600471 388.275200
   2242   2240   2246     1   110.2600474 425.931200
   2243   2239   2247     1   110.2600474 425.931200
   2244   2241   2245     1   109.5800467 425.931200
   2244   2241   2257     1   109.5800467 425.931200
   2249   2255   2256     1   107.2600461 396.643200
   2253   2249   2255     1   110.2600474 425.931200
   2253   2249   2254     1   108.4600466 328.025600
   2254   2249   2255     1   110.2600474 425.931200
   2258   2259   2261     1   109.5600471 388.275200
   2258   2272   2276     1   109.5600471 388.275200
   2258   2272   2277     1   109.5600471 388.275200
   2259   2258   2260     1   109.5600471 388.275200
   2259   2262   2266     1   109.5600471 388.275200
   2259   2271   2274     1   107.2600461 396.643200
   2260   2258   2272     1   109.5600471 388.275200
   2260   2258   2280     1   109.7800468 425.094400
   2261   2259   2262     1   109.5600471 388.275200
   2261   2259   2271     1   110.2600474 425.931200
   2262   2263   2265     1   109.5600471 388.275200
   2262   2270   2273     1   107.2600461 396.643200
   2263   2262   2266     1   109.5600471 388.275200
   2263   2264   2267     1   110.2200475 386.601600
   2263   2269   2275     1   107.2600461 396.643200
   2264   2263   2265     1   109.5600471 388.275200
   2265   2263   2269     1   110.2600474 425.931200
   2266   2262   2270     1   110.2600474 425.931200
   2267   2264   2268     1   109.5800467 425.931200
   2267   2264   2280     1   109.5800467 425.931200
   2272   2278   2279     1   107.2600461 396.643200
   2276   2272   2278     1   110.2600474 425.931200
   2276   2272   2277     1   108.4600466 328.025600
   2277   2272   2278     1   110.2600474 425.931200
   2281   2282   2284     1   109.5600471 388.275200
   2281   2295   2299     1   109.5600471 388.275200
   2281   2295   2300     1   109.5600471 388.275200
   2282   2285   2289     1   109.5600471 388.275200
   2282   2294   2297     1   107.2600461 396.643200
   2282   2281   2283     1   109.5600471 388.275200
   2283   2281   2295     1   109.5600471 388.275200
   2283   2281   2303     1   109.7800468 425.094400
   2284   2282   2285     1   109.5600471 388.275200
   2284   2282   2294     1   110.2600474 425.931200
   2285   2286   2288     1   109.5600471 388.275200
   2285   2293   2296     1   107.2600461 396.643200
   2286   2287   2290     1   110.2200475 386.601600
   2286   2292   2298     1   107.2600461 396.643200
   2286   2285   2289     1   109.5600471 388.275200
   2287   2286   2288     1   109.5600471 388.275200
   2288   2286   2292     1   110.2600474 425.931200
   2289   2285   2293     1   110.2600474 425.931200
   2290   2287   2291     1   109.5800467 425.931200
   2290   2287   2303     1   109.5800467 425.931200
   2295   2301   2302     1   107.2600461 396.643200
   2299   2295   2301     1   110.2600474 425.931200
   2299   2295   2300     1   108.4600466 328.025600
   2300   2295   2301     1   110.2600474 425.931200
   2304   2305   2307     1   109.5600471 388.275200
   2304   2318   2322     1   109.5600471 388.275200
   2304   2318   2323     1   109.5600471 388.275200
   2305   2304   2306     1   109.5600471 388.275200
   2305   2308   2312     1   109.5600471 388.275200
   2305   2317   2320     1   107.2600461 396.643200
   2306   2304   2318     1   109.5600471 388.275200
   2306   2304   2326     1   109.7800468 425.094400
   2307   2305   2308     1   109.5600471 388.275200
   2307   2305   2317     1   110.2600474 425.931200
   2308   2309   2311     1   109.5600471 388.275200
   2308   2316   2319     1   107.2600461 396.643200
   2309   2308   2312     1   109.5600471 388.275200
   2309   2310   2313     1   110.2200475 386.601600
   2309   2315   2321     1   107.2600461 396.643200
   2310   2309   2311     1   109.5600471 388.275200
   2311   2309   2315     1   110.2600474 425.931200
   2312   2308   2316     1   110.2600474 425.931200
   2313   2310   2314     1   109.5800467 425.931200
   2313   2310   2326     1   109.5800467 425.931200
   2318   2324   2325     1   107.2600461 396.643200
   2322   2318   2324     1   110.2600474 425.931200
   2322   2318   2323     1   108.4600466 328.025600
   2323   2318   2324     1   110.2600474 425.931200
   2327   2328   2330     1   109.5600471 388.275200
   2327   2341   2345     1   109.5600471 388.275200
   2327   2341   2346     1   109.5600471 388.275200
   2328   2331   2335     1   109.5600471 388.275200
   2328   2340   2343     1   107.2600461 396.643200
   2328   2327   2329     1   109.5600471 388.275200
   2329   2327   2341     1   109.5600471 388.275200
   2329   2327   2349     1   109.7800468 425.094400
   2330   2328   2331     1   109.5600471 388.275200
   2330   2328   2340     1   110.2600474 425.931200
   2331   2332   2334     1   109.5600471 388.275200
   2331   2339   2342     1   107.2600461 396.643200
   2332   2333   2336     1   110.2200475 386.601600
   2332   2338   2344     1   107.2600461 396.643200
   2332   2331   2335     1   109.5600471 388.275200
   2333   2332   2334     1   109.5600471 388.275200
   2334   2332   2338     1   110.2600474 425.931200
   2335   2331   2339     1   110.2600474 425.931200
   2336   2333   2337     1   109.5800467 425.931200
   2336   2333   2349     1   109.5800467 425.931200
   2341   2347   2348     1   107.2600461 396.643200
   2345   2341   2347     1   110.2600474 425.931200
   2345   2341   2346     1   108.4600466 328.025600
   2346   2341   2347     1   110.2600474 425.931200
   2350   2351   2353     1   109.5600471 388.275200
   2350   2364   2368     1   109.5600471 388.275200
   2350   2364   2369     1   109.5600471 388.275200
   2351   2350   2352     1   109.5600471 388.275200
   2351   2354   2358     1   109.5600471 388.275200
   2351   2363   2366     1   107.2600461 396.643200
   2352   2350   2364     1   109.5600471 388.275200
   2352   2350   2372     1   109.7800468 425.094400
   2353   2351   2354     1   109.5600471 388.275200
   2353   2351   2363     1   110.2600474 425.931200
   2354   2355   2357     1   109.5600471 388.275200
   2354   2362   2365     1   107.2600461 396.643200
   2355   2354   2358     1   109.5600471 388.275200
   2355   2356   2359     1   110.2200475 386.601600
   2355   2361   2367     1   107.2600461 396.643200
   2356   2355   2357     1   109.5600471 388.275200
   2357   2355   2361     1   110.2600474 425.931200
   2358   2354   2362     1   110.2600474 425.931200
   2359   2356   2360     1   109.5800467 425.931200
   2359   2356   2372     1   109.5800467 425.931200
   2364   2370   2371     1   107.2600461 396.643200
   2368   2364   2370     1   110.2600474 425.931200
   2368   2364   2369     1   108.4600466 328.025600
   2369   2364   2370     1   110.2600474 425.931200
   2373   2374   2376     1   109.5600471 388.275200
   2373   2387   2391     1   109.5600471 388.275200
   2373   2387   2392     1   109.5600471 388.275200
   2374   2377   2381     1   109.5600471 388.275200
   2374   2386   2389     1   107.2600461 396.643200
   2374   2373   2375     1   109.5600471 388.275200
   2375   2373   2387     1   109.5600471 388.275200
   2375   2373   2395     1   109.7800468 425.094400
   2376   2374   2377     1   109.5600471 388.275200
   2376   2374   2386     1   110.2600474 425.931200
   2377   2378   2380     1   109.5600471 388.275200
   2377   2385   2388     1   107.2600461 396.643200
   2378   2379   2382     1   110.2200475 386.601600
   2378   2384   2390     1   107.2600461 396.643200
   2378   2377   2381     1   109.5600471 388.275200
   2379   2378   2380     1   109.5600471 388.275200
   2380   2378   2384     1   110.2600474 425.931200
   2381   2377   2385     1   110.2600474 425.931200
   2382   2379   2383     1   109.5800467 425.931200
   2382   2379   2395     1   109.5800467 425.931200
   2387   2393   2394     1   107.2600461 396.643200
   2391   2387   2393     1   110.2600474 425.931200
   2391   2387   2392     1   108.4600466 328.025600
   2392   2387   2393     1   110.2600474 425.931200
   2396   2397   2399     1   109.5600471 388.275200
   2396   2410   2414     1   109.5600471 388.275200
   2396   2410   2415     1   109.5600471 388.275200
   2397   2396   2398     1   109.5600471 388.275200
   2397   2400   2404     1   109.5600471 388.275200
   2397   2409   2412     1   107.2600461 396.643200
   2398   2396   2410     1   109.5600471 388.275200
   2398   2396   2418     1   109.7800468 425.094400
   2399   2397   2400     1   109.5600471 388.275200
   2399   2397   2409     1   110.2600474 425.931200
   2400   2401   2403     1   109.5600471 388.275200
   2400   2408   2411     1   107.2600461 396.643200
   2401   2400   2404     1   109.5600471 388.275200
   2401   2402   2405     1   110.2200475 386.601600
   2401   2407   2413     1   107.2600461 396.643200
   2402   2401   2403     1   109.5600471 388.275200
   2403   2401   2407     1   110.2600474 425.931200
   2404   2400   2408     1   110.2600474 425.931200
   2405   2402   2406     1   109.5800467 425.931200
   2405   2402   2418     1   109.5800467 425.931200
   2410   2416   2417     1   107.2600461 396.643200
   2414   2410   2416     1   110.2600474 425.931200
   2414   2410   2415     1   108.4600466 328.025600
   2415   2410   2416     1   110.2600474 425.931200
   2419   2420   2422     1   109.5600471 388.275200
   2419   2433   2437     1   109.5600471 388.275200
   2419   2433   2438     1   109.5600471 388.275200
   2420   2423   2427     1   109.5600471 388.275200
   2420   2432   2435     1   107.2600461 396.643200
   2420   2419   2421     1   109.5600471 388.275200
   2421   2419   2433     1   109.5600471 388.275200
   2421   2419   2441     1   109.7800468 425.094400
   2422   2420   2423     1   109.5600471 388.275200
   2422   2420   2432     1   110.2600474 425.931200
   2423   2424   2426     1   109.5600471 388.275200
   2423   2431   2434     1   107.2600461 396.643200
   2424   2425   2428     1   110.2200475 386.601600
   2424   2430   2436     1   107.2600461 396.643200
   2424   2423   2427     1   109.5600471 388.275200
   2425   2424   2426     1   109.5600471 388.275200
   2426   2424   2430     1   110.2600474 425.931200
   2427   2423   2431     1   110.2600474 425.931200
   2428   2425   2429     1   109.5800467 425.931200
   2428   2425   2441     1   109.5800467 425.931200
   2433   2439   2440     1   107.2600461 396.643200
   2437   2433   2439     1   110.2600474 425.931200
   2437   2433   2438     1   108.4600466 328.025600
   2438   2433   2439     1   110.2600474 425.931200
   2442   2443   2445     1   109.5600471 388.275200
   2442   2456   2460     1   109.5600471 388.275200
   2442   2456   2461     1   109.5600471 388.275200
   2443   2442   2444     1   109.5600471 388.275200
   2443   2446   2450     1   109.5600471 388.275200
   2443   2455   2458     1   107.2600461 396.643200
   2444   2442   2456     1   109.5600471 388.275200
   2444   2442   2464     1   109.7800468 425.094400
   2445   2443   2446     1   109.5600471 388.275200
   2445   2443   2455     1   110.2600474 425.931200
   2446   2447   2449     1   109.5600471 388.275200
   2446   2454   2457     1   107.2600461 396.643200
   2447   2446   2450     1   109.5600471 388.275200
   2447   2448   2451     1   110.2200475 386.601600
   2447   2453   2459     1   107.2600461 396.643200
   2448   2447   2449     1   109.5600471 388.275200
   2449   2447   2453     1   110.2600474 425.931200
   2450   2446   2454     1   110.2600474 425.931200
   2451   2448   2452     1   109.5800467 425.931200
   2451   2448   2464     1   109.5800467 425.931200
   2456   2462   2463     1   107.2600461 396.643200
   2460   2456   2462     1   110.2600474 425.931200
   2460   2456   2461     1   108.4600466 328.025600
   2461   2456   2462     1   110.2600474 425.931200
   2465   2466   2468     1   109.5600471 388.275200
   2465   2479   2483     1   109.5600471 388.275200
   2465   2479   2484     1   109.5600471 388.275200
   2466   2469   2473     1   109.5600471 388.275200
   2466   2478   2481     1   107.2600461 396.643200
   2466   2465   2467     1   109.5600471 388.275200
   2467   2465   2479     1   109.5600471 388.275200
   2467   2465   2487     1   109.7800468 425.094400
   2468   2466   2469     1   109.5600471 388.275200
   2468   2466   2478     1   110.2600474 425.931200
   2469   2470   2472     1   109.5600471 388.275200
   2469   2477   2480     1   107.2600461 396.643200
   2470   2471   2474     1   110.2200475 386.601600
   2470   2476   2482     1   107.2600461 396.643200
   2470   2469   2473     1   109.5600471 388.275200
   2471   2470   2472     1   109.5600471 388.275200
   2472   2470   2476     1   110.2600474 425.931200
   2473   2469   2477     1   110.2600474 425.931200
   2474   2471   2475     1   109.5800467 425.931200
   2474   2471   2487     1   109.5800467 425.931200
   2479   2485   2486     1   107.2600461 396.643200
   2483   2479   2485     1   110.2600474 425.931200
   2483   2479   2484     1   108.4600466 328.025600
   2484   2479   2485     1   110.2600474 425.931200
   2488   2489   2491     1   109.5600471 388.275200
   2488   2502   2506     1   109.5600471 388.275200
   2488   2502   2507     1   109.5600471 388.275200
   2489   2488   2490     1   109.5600471 388.275200
   2489   2492   2496     1   109.5600471 388.275200
   2489   2501   2504     1   107.2600461 396.643200
   2490   2488   2502     1   109.5600471 388.275200
   2490   2488   2510     1   109.7800468 425.094400
   2491   2489   2492     1   109.5600471 388.275200
   2491   2489   2501     1   110.2600474 425.931200
   2492   2493   2495     1   109.5600471 388.275200
   2492   2500   2503     1   107.2600461 396.643200
   2493   2492   2496     1   109.5600471 388.275200
   2493   2494   2497     1   110.2200475 386.601600
   2493   2499   2505     1   107.2600461 396.643200
   2494   2493   2495     1   109.5600471 388.275200
   2495   2493   2499     1   110.2600474 425.931200
   2496   2492   2500     1   110.2600474 425.931200
   2497   2494   2498     1   109.5800467 425.931200
   2497   2494   2510     1   109.5800467 425.931200
   2502   2508   2509     1   107.2600461 396.643200
   2506   2502   2508     1   110.2600474 425.931200
   2506   2502   2507     1   108.4600466 328.025600
   2507   2502   2508     1   110.2600474 425.931200
   2511   2512   2514     1   109.5600471 388.275200
   2511   2525   2529     1   109.5600471 388.275200
   2511   2525   2530     1   109.5600471 388.275200
   2512   2515   2519     1   109.5600471 388.275200
   2512   2524   2527     1   107.2600461 396.643200
   2512   2511   2513     1   109.5600471 388.275200
   2513   2511   2525     1   109.5600471 388.275200
   2513   2511   2533     1   109.7800468 425.094400
   2514   2512   2515     1   109.5600471 388.275200
   2514   2512   2524     1   110.2600474 425.931200
   2515   2516   2518     1   109.5600471 388.275200
   2515   2523   2526     1   107.2600461 396.643200
   2516   2517   2520     1   110.2200475 386.601600
   2516   2522   2528     1   107.2600461 396.643200
   2516   2515   2519     1   109.5600471 388.275200
   2517   2516   2518     1   109.5600471 388.275200
   2518   2516   2522     1   110.2600474 425.931200
   2519   2515   2523     1   110.2600474 425.931200
   2520   2517   2521     1   109.5800467 425.931200
   2520   2517   2533     1   109.5800467 425.931200
   2525   2531   2532     1   107.2600461 396.643200
   2529   2525   2531     1   110.2600474 425.931200
   2529   2525   2530     1   108.4600466 328.025600
   2530   2525   2531     1   110.2600474 425.931200
   2534   2535   2537     1   109.5600471 388.275200
   2534   2548   2552     1   109.5600471 388.275200
   2534   2548   2553     1   109.5600471 388.275200
   2535   2534   2536     1   109.5600471 388.275200
   2535   2538   2542     1   109.5600471 388.275200
   2535   2547   2550     1   107.2600461 396.643200
   2536   2534   2548     1   109.5600471 388.275200
   2536   2534   2556     1   109.7800468 425.094400
   2537   2535   2538     1   109.5600471 388.275200
   2537   2535   2547     1   110.2600474 425.931200
   2538   2539   2541     1   109.5600471 388.275200
   2538   2546   2549     1   107.2600461 396.643200
   2539   2538   2542     1   109.5600471 388.275200
   2539   2540   2543     1   110.2200475 386.601600
   2539   2545   2551     1   107.2600461 396.643200
   2540   2539   2541     1   109.5600471 388.275200
   2541   2539   2545     1   110.2600474 425.931200
   2542   2538   2546     1   110.2600474 425.931200
   2543   2540   2544     1   109.5800467 425.931200
   2543   2540   2556     1   109.5800467 425.931200
   2548   2554   2555     1   107.2600461 396.643200
   2552   2548   2554     1   110.2600474 425.931200
   2552   2548   2553     1   108.4600466 328.025600
   2553   2548   2554     1   110.2600474 425.931200
   2557   2558   2560     1   109.5600471 388.275200
   2557   2571   2575     1   109.5600471 388.275200
   2557   2571   2576     1   109.5600471 388.275200
   2558   2561   2565     1   109.5600471 388.275200
   2558   2570   2573     1   107.2600461 396.643200
   2558   2557   2559     1   109.5600471 388.275200
   2559   2557   2571     1   109.5600471 388.275200
   2559   2557   2579     1   109.7800468 425.094400
   2560   2558   2561     1   109.5600471 388.275200
   2560   2558   2570     1   110.2600474 425.931200
   2561   2562   2564     1   109.5600471 388.275200
   2561   2569   2572     1   107.2600461 396.643200
   2562   2563   2566     1   110.2200475 386.601600
   2562   2568   2574     1   107.2600461 396.643200
   2562   2561   2565     1   109.5600471 388.275200
   2563   2562   2564     1   109.5600471 388.275200
   2564   2562   2568     1   110.2600474 425.931200
   2565   2561   2569     1   110.2600474 425.931200
   2566   2563   2567     1   109.5800467 425.931200
   2566   2563   2579     1   109.5800467 425.931200
   2571   2577   2578     1   107.2600461 396.643200
   2575   2571   2577     1   110.2600474 425.931200
   2575   2571   2576     1   108.4600466 328.025600
   2576   2571   2577     1   110.2600474 425.931200
   2580   2581   2583     1   109.5600471 388.275200
   2580   2594   2598     1   109.5600471 388.275200
   2580   2594   2599     1   109.5600471 388.275200
   2581   2580   2582     1   109.5600471 388.275200
   2581   2584   2588     1   109.5600471 388.275200
   2581   2593   2596     1   107.2600461 396.643200
   2582   2580   2594     1   109.5600471 388.275200
   2582   2580   2602     1   109.7800468 425.094400
   2583   2581   2584     1   109.5600471 388.275200
   2583   2581   2593     1   110.2600474 425.931200
   2584   2585   2587     1   109.5600471 388.275200
   2584   2592   2595     1   107.2600461 396.643200
   2585   2584   2588     1   109.5600471 388.275200
   2585   2586   2589     1   110.2200475 386.601600
   2585   2591   2597     1   107.2600461 396.643200
   2586   2585   2587     1   109.5600471 388.275200
   2587   2585   2591     1   110.2600474 425.931200
   2588   2584   2592     1   110.2600474 425.931200
   2589   2586   2590     1   109.5800467 425.931200
   2589   2586   2602     1   109.5800467 425.931200
   2594   2600   2601     1   107.2600461 396.643200
   2598   2594   2600     1   110.2600474 425.931200
   2598   2594   2599     1   108.4600466 328.025600
   2599   2594   2600     1   110.2600474 425.931200
   2603   2604   2606     1   109.5600471 388.275200
   2603   2617   2621     1   109.5600471 388.275200
   2603   2617   2622     1   109.5600471 388.275200
   2604   2607   2611     1   109.5600471 388.275200
   2604   2616   2619     1   107.2600461 396.643200
   2604   2603   2605     1   109.5600471 388.275200
   2605   2603   2617     1   109.5600471 388.275200
   2605   2603   2625     1   109.7800468 425.094400
   2606   2604   2607     1   109.5600471 388.275200
   2606   2604   2616     1   110.2600474 425.931200
   2607   2608   2610     1   109.5600471 388.275200
   2607   2615   2618     1   107.2600461 396.643200
   2608   2609   2612     1   110.2200475 386.601600
   2608   2614   2620     1   107.2600461 396.643200
   2608   2607   2611     1   109.5600471 388.275200
   2609   2608   2610     1   109.5600471 388.275200
   2610   2608   2614     1   110.2600474 425.931200
   2611   2607   2615     1   110.2600474 425.931200
   2612   2609   2613     1   109.5800467 425.931200
   2612   2609   2625     1   109.5800467 425.931200
   2617   2623   2624     1   107.2600461 396.643200
   2621   2617   2623     1   110.2600474 425.931200
   2621   2617   2622     1   108.4600466 328.025600
   2622   2617   2623     1   110.2600474 425.931200
   2626   2627   2629     1   109.5600471 388.275200
   2626   2640   2644     1   109.5600471 388.275200
   2626   2640   2645     1   109.5600471 388.275200
   2627   2626   2628     1   109.5600471 388.275200
   2627   2630   2634     1   109.5600471 388.275200
   2627   2639   2642     1   107.2600461 396.643200
   2628   2626   2640     1   109.5600471 388.275200
   2628   2626   2648     1   109.7800468 425.094400
   2629   2627   2630     1   109.5600471 388.275200
   2629   2627   2639     1   110.2600474 425.931200
   2630   2631   2633     1   109.5600471 388.275200
   2630   2638   2641     1   107.2600461 396.643200
   2631   2630   2634     1   109.5600471 388.275200
   2631   2632   2635     1   110.2200475 386.601600
   2631   2637   2643     1   107.2600461 396.643200
   2632   2631   2633     1   109.5600471 388.275200
   2633   2631   2637     1   110.2600474 425.931200
   2634   2630   2638     1   110.2600474 425.931200
   2635   2632   2636     1   109.5800467 425.931200
   2635   2632   2648     1   109.5800467 425.931200
   2640   2646   2647     1   107.2600461 396.643200
   2644   2640   2646     1   110.2600474 425.931200
   2644   2640   2645     1   108.4600466 328.025600
   2645   2640   2646     1   110.2600474 425.931200
   2649   2650   2652     1   109.5600471 388.275200
   2649   2663   2667     1   109.5600471 388.275200
   2649   2663   2668     1   109.5600471 388.275200
   2650   2653   2657     1   109.5600471 388.275200
   2650   2662   2665     1   107.2600461 396.643200
   2650   2649   2651     1   109.5600471 388.275200
   2651   2649   2663     1   109.5600471 388.275200
   2651   2649   2671     1   109.7800468 425.094400
   2652   2650   2653     1   109.5600471 388.275200
   2652   2650   2662     1   110.2600474 425.931200
   2653   2654   2656     1   109.5600471 388.275200
   2653   2661   2664     1   107.2600461 396.643200
   2654   2655   2658     1   110.2200475 386.601600
   2654   2660   2666     1   107.2600461 396.643200
   2654   2653   2657     1   109.5600471 388.275200
   2655   2654   2656     1   109.5600471 388.275200
   2656   2654   2660     1   110.2600474 425.931200
   2657   2653   2661     1   110.2600474 425.931200
   2658   2655   2659     1   109.5800467 425.931200
   2658   2655   2671     1   109.5800467 425.931200
   2663   2669   2670     1   107.2600461 396.643200
   2667   2663   2669     1   110.2600474 425.931200
   2667   2663   2668     1   108.4600466 328.025600
   2668   2663   2669     1   110.2600474 425.931200
   2672   2673   2675     1   109.5600471 388.275200
   2672   2686   2690     1   109.5600471 388.275200
   2672   2686   2691     1   109.5600471 388.275200
   2673   2672   2674     1   109.5600471 388.275200
   2673   2676   2680     1   109.5600471 388.275200
   2673   2685   2688     1   107.2600461 396.643200
   2674   2672   2686     1   109.5600471 388.275200
   2674   2672   2694     1   109.7800468 425.094400
   2675   2673   2676     1   109.5600471 388.275200
   2675   2673   2685     1   110.2600474 425.931200
   2676   2677   2679     1   109.5600471 388.275200
   2676   2684   2687     1   107.2600461 396.643200
   2677   2676   2680     1   109.5600471 388.275200
   2677   2678   2681     1   110.2200475 386.601600
   2677   2683   2689     1   107.2600461 396.643200
   2678   2677   2679     1   109.5600471 388.275200
   2679   2677   2683     1   110.2600474 425.931200
   2680   2676   2684     1   110.2600474 425.931200
   2681   2678   2682     1   109.5800467 425.931200
   2681   2678   2694     1   109.5800467 425.931200
   2686   2692   2693     1   107.2600461 396.643200
   2690   2686   2692     1   110.2600474 425.931200
   2690   2686   2691     1   108.4600466 328.025600
   2691   2686   2692     1   110.2600474 425.931200
   2695   2696   2698     1   109.5600471 388.275200
   2695   2709   2713     1   109.5600471 388.275200
   2695   2709   2714     1   109.5600471 388.275200
   2696   2699   2703     1   109.5600471 388.275200
   2696   2708   2711     1   107.2600461 396.643200
   2696   2695   2697     1   109.5600471 388.275200
   2697   2695   2709     1   109.5600471 388.275200
   2697   2695   2717     1   109.7800468 425.094400
   2698   2696   2699     1   109.5600471 388.275200
   2698   2696   2708     1   110.2600474 425.931200
   2699   2700   2702     1   109.5600471 388.275200
   2699   2707   2710     1   107.2600461 396.643200
   2700   2701   2704     1   110.2200475 386.601600
   2700   2706   2712     1   107.2600461 396.643200
   2700   2699   2703     1   109.5600471 388.275200
   2701   2700   2702     1   109.5600471 388.275200
   2702   2700   2706     1   110.2600474 425.931200
   2703   2699   2707     1   110.2600474 425.931200
   2704   2701   2705     1   109.5800467 425.931200
   2704   2701   2717     1   109.5800467 425.931200
   2709   2715   2716     1   107.2600461 396.643200
   2713   2709   2715     1   110.2600474 425.931200
   2713   2709   2714     1   108.4600466 328.025600
   2714   2709   2715     1   110.2600474 425.931200
   2718   2719   2721     1   109.5600471 388.275200
   2718   2732   2736     1   109.5600471 388.275200
   2718   2732   2737     1   109.5600471 388.275200
   2719   2718   2720     1   109.5600471 388.275200
   2719   2722   2726     1   109.5600471 388.275200
   2719   2731   2734     1   107.2600461 396.643200
   2720   2718   2732     1   109.5600471 388.275200
   2720   2718   2740     1   109.7800468 425.094400
   2721   2719   2722     1   109.5600471 388.275200
   2721   2719   2731     1   110.2600474 425.931200
   2722   2723   2725     1   109.5600471 388.275200
   2722   2730   2733     1   107.2600461 396.643200
   2723   2722   2726     1   109.5600471 388.275200
   2723   2724   2727     1   110.2200475 386.601600
   2723   2729   2735     1   107.2600461 396.643200
   2724   2723   2725     1   109.5600471 388.275200
   2725   2723   2729     1   110.2600474 425.931200
   2726   2722   2730     1   110.2600474 425.931200
   2727   2724   2728     1   109.5800467 425.931200
   2727   2724   2740     1   109.5800467 425.931200
   2732   2738   2739     1   107.2600461 396.643200
   2736   2732   2738     1   110.2600474 425.931200
   2736   2732   2737     1   108.4600466 328.025600
   2737   2732   2738     1   110.2600474 425.931200
   2741   2742   2744     1   109.5600471 388.275200
   2741   2755   2759     1   109.5600471 388.275200
   2741   2755   2760     1   109.5600471 388.275200
   2742   2745   2749     1   109.5600471 388.275200
   2742   2754   2757     1   107.2600461 396.643200
   2742   2741   2743     1   109.5600471 388.275200
   2743   2741   2755     1   109.5600471 388.275200
   2743   2741   2763     1   109.7800468 425.094400
   2744   2742   2745     1   109.5600471 388.275200
   2744   2742   2754     1   110.2600474 425.931200
   2745   2746   2748     1   109.5600471 388.275200
   2745   2753   2756     1   107.2600461 396.643200
   2746   2747   2750     1   110.2200475 386.601600
   2746   2752   2758     1   107.2600461 396.643200
   2746   2745   2749     1   109.5600471 388.275200
   2747   2746   2748     1   109.5600471 388.275200
   2748   2746   2752     1   110.2600474 425.931200
   2749   2745   2753     1   110.2600474 425.931200
   2750   2747   2751     1   109.5800467 425.931200
   2750   2747   2763     1   109.5800467 425.931200
   2755   2761   2762     1   107.2600461 396.643200
   2759   2755   2761     1   110.2600474 425.931200
   2759   2755   2760     1   108.4600466 328.025600
   2760   2755   2761     1   110.2600474 425.931200
   2764   2765   2767     1   109.5600471 388.275200
   2764   2778   2782     1   109.5600471 388.275200
   2764   2778   2783     1   109.5600471 388.275200
   2765   2764   2766     1   109.5600471 388.275200
   2765   2768   2772     1   109.5600471 388.275200
   2765   2777   2780     1   107.2600461 396.643200
   2766   2764   2778     1   109.5600471 388.275200
   2766   2764   2786     1   109.7800468 425.094400
   2767   2765   2768     1   109.5600471 388.275200
   2767   2765   2777     1   110.2600474 425.931200
   2768   2769   2771     1   109.5600471 388.275200
   2768   2776   2779     1   107.2600461 396.643200
   2769   2768   2772     1   109.5600471 388.275200
   2769   2770   2773     1   110.2200475 386.601600
   2769   2775   2781     1   107.2600461 396.643200
   2770   2769   2771     1   109.5600471 388.275200
   2771   2769   2775     1   110.2600474 425.931200
   2772   2768   2776     1   110.2600474 425.931200
   2773   2770   2774     1   109.5800467 425.931200
   2773   2770   2786     1   109.5800467 425.931200
   2778   2784   2785     1   107.2600461 396.643200
   2782   2778   2784     1   110.2600474 425.931200
   2782   2778   2783     1   108.4600466 328.025600
   2783   2778   2784     1   110.2600474 425.931200
   2787   2788   2790     1   109.5600471 388.275200
   2787   2801   2805     1   109.5600471 388.275200
   2787   2801   2806     1   109.5600471 388.275200
   2788   2791   2795     1   109.5600471 388.275200
   2788   2800   2803     1   107.2600461 396.643200
   2788   2787   2789     1   109.5600471 388.275200
   2789   2787   2801     1   109.5600471 388.275200
   2789   2787   2809     1   109.7800468 425.094400
   2790   2788   2791     1   109.5600471 388.275200
   2790   2788   2800     1   110.2600474 425.931200
   2791   2792   2794     1   109.5600471 388.275200
   2791   2799   2802     1   107.2600461 396.643200
   2792   2793   2796     1   110.2200475 386.601600
   2792   2798   2804     1   107.2600461 396.643200
   2792   2791   2795     1   109.5600471 388.275200
   2793   2792   2794     1   109.5600471 388.275200
   2794   2792   2798     1   110.2600474 425.931200
   2795   2791   2799     1   110.2600474 425.931200
   2796   2793   2797     1   109.5800467 425.931200
   2796   2793   2809     1   109.5800467 425.931200
   2801   2807   2808     1   107.2600461 396.643200
   2805   2801   2807     1   110.2600474 425.931200
   2805   2801   2806     1   108.4600466 328.025600
   2806   2801   2807     1   110.2600474 425.931200
   2810   2811   2813     1   109.5600471 388.275200
   2810   2824   2828     1   109.5600471 388.275200
   2810   2824   2829     1   109.5600471 388.275200
   2811   2810   2812     1   109.5600471 388.275200
   2811   2814   2818     1   109.5600471 388.275200
   2811   2823   2826     1   107.2600461 396.643200
   2812   2810   2824     1   109.5600471 388.275200
   2812   2810   2832     1   109.7800468 425.094400
   2813   2811   2814     1   109.5600471 388.275200
   2813   2811   2823     1   110.2600474 425.931200
   2814   2815   2817     1   109.5600471 388.275200
   2814   2822   2825     1   107.2600461 396.643200
   2815   2814   2818     1   109.5600471 388.275200
   2815   2816   2819     1   110.2200475 386.601600
   2815   2821   2827     1   107.2600461 396.643200
   2816   2815   2817     1   109.5600471 388.275200
   2817   2815   2821     1   110.2600474 425.931200
   2818   2814   2822     1   110.2600474 425.931200
   2819   2816   2820     1   109.5800467 425.931200
   2819   2816   2832     1   109.5800467 425.931200
   2824   2830   2831     1   107.2600461 396.643200
   2828   2824   2830     1   110.2600474 425.931200
   2828   2824   2829     1   108.4600466 328.025600
   2829   2824   2830     1   110.2600474 425.931200
   2833   2834   2836     1   109.5600471 388.275200
   2833   2847   2851     1   109.5600471 388.275200
   2833   2847   2852     1   109.5600471 388.275200
   2834   2837   2841     1   109.5600471 388.275200
   2834   2846   2849     1   107.2600461 396.643200
   2834   2833   2835     1   109.5600471 388.275200
   2835   2833   2847     1   109.5600471 388.275200
   2835   2833   2855     1   109.7800468 425.094400
   2836   2834   2837     1   109.5600471 388.275200
   2836   2834   2846     1   110.2600474 425.931200
   2837   2838   2840     1   109.5600471 388.275200
   2837   2845   2848     1   107.2600461 396.643200
   2838   2839   2842     1   110.2200475 386.601600
   2838   2844   2850     1   107.2600461 396.643200
   2838   2837   2841     1   109.5600471 388.275200
   2839   2838   2840     1   109.5600471 388.275200
   2840   2838   2844     1   110.2600474 425.931200
   2841   2837   2845     1   110.2600474 425.931200
   2842   2839   2843     1   109.5800467 425.931200
   2842   2839   2855     1   109.5800467 425.931200
   2847   2853   2854     1   107.2600461 396.643200
   2851   2847   2853     1   110.2600474 425.931200
   2851   2847   2852     1   108.4600466 328.025600
   2852   2847   2853     1   110.2600474 425.931200
   2856   2857   2859     1   109.5600471 388.275200
   2856   2870   2874     1   109.5600471 388.275200
   2856   2870   2875     1   109.5600471 388.275200
   2857   2856   2858     1   109.5600471 388.275200
   2857   2860   2864     1   109.5600471 388.275200
   2857   2869   2872     1   107.2600461 396.643200
   2858   2856   2870     1   109.5600471 388.275200
   2858   2856   2878     1   109.7800468 425.094400
   2859   2857   2860     1   109.5600471 388.275200
   2859   2857   2869     1   110.2600474 425.931200
   2860   2861   2863     1   109.5600471 388.275200
   2860   2868   2871     1   107.2600461 396.643200
   2861   2860   2864     1   109.5600471 388.275200
   2861   2862   2865     1   110.2200475 386.601600
   2861   2867   2873     1   107.2600461 396.643200
   2862   2861   2863     1   109.5600471 388.275200
   2863   2861   2867     1   110.2600474 425.931200
   2864   2860   2868     1   110.2600474 425.931200
   2865   2862   2866     1   109.5800467 425.931200
   2865   2862   2878     1   109.5800467 425.931200
   2870   2876   2877     1   107.2600461 396.643200
   2874   2870   2876     1   110.2600474 425.931200
   2874   2870   2875     1   108.4600466 328.025600
   2875   2870   2876     1   110.2600474 425.931200
   2879   2880   2882     1   109.5600471 388.275200
   2879   2893   2897     1   109.5600471 388.275200
   2879   2893   2898     1   109.5600471 388.275200
   2880   2883   2887     1   109.5600471 388.275200
   2880   2892   2895     1   107.2600461 396.643200
   2880   2879   2881     1   109.5600471 388.275200
   2881   2879   2893     1   109.5600471 388.275200
   2881   2879   2901     1   109.7800468 425.094400
   2882   2880   2883     1   109.5600471 388.275200
   2882   2880   2892     1   110.2600474 425.931200
   2883   2884   2886     1   109.5600471 388.275200
   2883   2891   2894     1   107.2600461 396.643200
   2884   2885   2888     1   110.2200475 386.601600
   2884   2890   2896     1   107.2600461 396.643200
   2884   2883   2887     1   109.5600471 388.275200
   2885   2884   2886     1   109.5600471 388.275200
   2886   2884   2890     1   110.2600474 425.931200
   2887   2883   2891     1   110.2600474 425.931200
   2888   2885   2889     1   109.5800467 425.931200
   2888   2885   2901     1   109.5800467 425.931200
   2893   2899   2900     1   107.2600461 396.643200
   2897   2893   2899     1   110.2600474 425.931200
   2897   2893   2898     1   108.4600466 328.025600
   2898   2893   2899     1   110.2600474 425.931200
   2902   2903   2905     1   109.5600471 388.275200
   2902   2916   2920     1   109.5600471 388.275200
   2902   2916   2921     1   109.5600471 388.275200
   2903   2902   2904     1   109.5600471 388.275200
   2903   2906   2910     1   109.5600471 388.275200
   2903   2915   2918     1   107.2600461 396.643200
   2904   2902   2916     1   109.5600471 388.275200
   2904   2902   2924     1   109.7800468 425.094400
   2905   2903   2906     1   109.5600471 388.275200
   2905   2903   2915     1   110.2600474 425.931200
   2906   2907   2909     1   109.5600471 388.275200
   2906   2914   2917     1   107.2600461 396.643200
   2907   2906   2910     1   109.5600471 388.275200
   2907   2908   2911     1   110.2200475 386.601600
   2907   2913   2919     1   107.2600461 396.643200
   2908   2907   2909     1   109.5600471 388.275200
   2909   2907   2913     1   110.2600474 425.931200
   2910   2906   2914     1   110.2600474 425.931200
   2911   2908   2912     1   109.5800467 425.931200
   2911   2908   2924     1   109.5800467 425.931200
   2916   2922   2923     1   107.2600461 396.643200
   2920   2916   2922     1   110.2600474 425.931200
   2920   2916   2921     1   108.4600466 328.025600
   2921   2916   2922     1   110.2600474 425.931200
   2925   2926   2928     1   109.5600471 388.275200
   2925   2939   2943     1   109.5600471 388.275200
   2925   2939   2944     1   109.5600471 388.275200
   2926   2929   2933     1   109.5600471 388.275200
   2926   2938   2941     1   107.2600461 396.643200
   2926   2925   2927     1   109.5600471 388.275200
   2927   2925   2939     1   109.5600471 388.275200
   2927   2925   2947     1   109.7800468 425.094400
   2928   2926   2929     1   109.5600471 388.275200
   2928   2926   2938     1   110.2600474 425.931200
   2929   2930   2932     1   109.5600471 388.275200
   2929   2937   2940     1   107.2600461 396.643200
   2930   2931   2934     1   110.2200475 386.601600
   2930   2936   2942     1   107.2600461 396.643200
   2930   2929   2933     1   109.5600471 388.275200
   2931   2930   2932     1   109.5600471 388.275200
   2932   2930   2936     1   110.2600474 425.931200
   2933   2929   2937     1   110.2600474 425.931200
   2934   2931   2935     1   109.5800467 425.931200
   2934   2931   2947     1   109.5800467 425.931200
   2939   2945   2946     1   107.2600461 396.643200
   2943   2939   2945     1   110.2600474 425.931200
   2943   2939   2944     1   108.4600466 328.025600
   2944   2939   2945     1   110.2600474 425.931200
   2948   2949   2951     1   109.5600471 388.275200
   2948   2962   2966     1   109.5600471 388.275200
   2948   2962   2967     1   109.5600471 388.275200
   2949   2948   2950     1   109.5600471 388.275200
   2949   2952   2956     1   109.5600471 388.275200
   2949   2961   2964     1   107.2600461 396.643200
   2950   2948   2962     1   109.5600471 388.275200
   2950   2948   2970     1   109.7800468 425.094400
   2951   2949   2952     1   109.5600471 388.275200
   2951   2949   2961     1   110.2600474 425.931200
   2952   2953   2955     1   109.5600471 388.275200
   2952   2960   2963     1   107.2600461 396.643200
   2953   2952   2956     1   109.5600471 388.275200
   2953   2954   2957     1   110.2200475 386.601600
   2953   2959   2965     1   107.2600461 396.643200
   2954   2953   2955     1   109.5600471 388.275200
   2955   2953   2959     1   110.2600474 425.931200
   2956   2952   2960     1   110.2600474 425.931200
   2957   2954   2958     1   109.5800467 425.931200
   2957   2954   2970     1   109.5800467 425.931200
   2962   2968   2969     1   107.2600461 396.643200
   2966   2962   2968     1   110.2600474 425.931200
   2966   2962   2967     1   108.4600466 328.025600
   2967   2962   2968     1   110.2600474 425.931200
   2971   2972   2974     1   109.5600471 388.275200
   2971   2985   2989     1   109.5600471 388.275200
   2971   2985   2990     1   109.5600471 388.275200
   2972   2975   2979     1   109.5600471 388.275200
   2972   2984   2987     1   107.2600461 396.643200
   2972   2971   2973     1   109.5600471 388.275200
   2973   2971   2985     1   109.5600471 388.275200
   2973   2971   2993     1   109.7800468 425.094400
   2974   2972   2975     1   109.5600471 388.275200
   2974   2972   2984     1   110.2600474 425.931200
   2975   2976   2978     1   109.5600471 388.275200
   2975   2983   2986     1   107.2600461 396.643200
   2976   2977   2980     1   110.2200475 386.601600
   2976   2982   2988     1   107.2600461 396.643200
   2976   2975   2979     1   109.5600471 388.275200
   2977   2976   2978     1   109.5600471 388.275200
   2978   2976   2982     1   110.2600474 425.931200
   2979   2975   2983     1   110.2600474 425.931200
   2980   2977   2981     1   109.5800467 425.931200
   2980   2977   2993     1   109.5800467 425.931200
   2985   2991   2992     1   107.2600461 396.643200
   2989   2985   2991     1   110.2600474 425.931200
   2989   2985   2990     1   108.4600466 328.025600
   2990   2985   2991     1   110.2600474 425.931200
   2994   2995   2997     1   109.5600471 388.275200
   2994   3008   3012     1   109.5600471 388.275200
   2994   3008   3013     1   109.5600471 388.275200
   2995   2994   2996     1   109.5600471 388.275200
   2995   2998   3002     1   109.5600471 388.275200
   2995   3007   3010     1   107.2600461 396.643200
   2996   2994   3008     1   109.5600471 388.275200
   2996   2994   3016     1   109.7800468 425.094400
   2997   2995   2998     1   109.5600471 388.275200
   2997   2995   3007     1   110.2600474 425.931200
   2998   2999   3001     1   109.5600471 388.275200
   2998   3006   3009     1   107.2600461 396.643200
   2999   2998   3002     1   109.5600471 388.275200
   2999   3000   3003     1   110.2200475 386.601600
   2999   3005   3011     1   107.2600461 396.643200
   3000   2999   3001     1   109.5600471 388.275200
   3001   2999   3005     1   110.2600474 425.931200
   3002   2998   3006     1   110.2600474 425.931200
   3003   3000   3004     1   109.5800467 425.931200
   3003   3000   3016     1   109.5800467 425.931200
   3008   3014   3015     1   107.2600461 396.643200
   3012   3008   3014     1   110.2600474 425.931200
   3012   3008   3013     1   108.4600466 328.025600
   3013   3008   3014     1   110.2600474 425.931200
   3017   3018   3020     1   109.5600471 388.275200
   3017   3031   3035     1   109.5600471 388.275200
   3017   3031   3036     1   109.5600471 388.275200
   3018   3021   3025     1   109.5600471 388.275200
   3018   3030   3033     1   107.2600461 396.643200
   3018   3017   3019     1   109.5600471 388.275200
   3019   3017   3031     1   109.5600471 388.275200
   3019   3017   3039     1   109.7800468 425.094400
   3020   3018   3021     1   109.5600471 388.275200
   3020   3018   3030     1   110.2600474 425.931200
   3021   3022   3024     1   109.5600471 388.275200
   3021   3029   3032     1   107.2600461 396.643200
   3022   3023   3026     1   110.2200475 386.601600
   3022   3028   3034     1   107.2600461 396.643200
   3022   3021   3025     1   109.5600471 388.275200
   3023   3022   3024     1   109.5600471 388.275200
   3024   3022   3028     1   110.2600474 425.931200
   3025   3021   3029     1   110.2600474 425.931200
   3026   3023   3027     1   109.5800467 425.931200
   3026   3023   3039     1   109.5800467 425.931200
   3031   3037   3038     1   107.2600461 396.643200
   3035   3031   3037     1   110.2600474 425.931200
   3035   3031   3036     1   108.4600466 328.025600
   3036   3031   3037     1   110.2600474 425.931200
   3040   3041   3043     1   109.5600471 388.275200
   3040   3054   3058     1   109.5600471 388.275200
   3040   3054   3059     1   109.5600471 388.275200
   3041   3040   3042     1   109.5600471 388.275200
   3041   3044   3048     1   109.5600471 388.275200
   3041   3053   3056     1   107.2600461 396.643200
   3042   3040   3054     1   109.5600471 388.275200
   3042   3040   3062     1   109.7800468 425.094400
   3043   3041   3044     1   109.5600471 388.275200
   3043   3041   3053     1   110.2600474 425.931200
   3044   3045   3047     1   109.5600471 388.275200
   3044   3052   3055     1   107.2600461 396.643200
   3045   3044   3048     1   109.5600471 388.275200
   3045   3046   3049     1   110.2200475 386.601600
   3045   3051   3057     1   107.2600461 396.643200
   3046   3045   3047     1   109.5600471 388.275200
   3047   3045   3051     1   110.2600474 425.931200
   3048   3044   3052     1   110.2600474 425.931200
   3049   3046   3050     1   109.5800467 425.931200
   3049   3046   3062     1   109.5800467 425.931200
   3054   3060   3061     1   107.2600461 396.643200
   3058   3054   3060     1   110.2600474 425.931200
   3058   3054   3059     1   108.4600466 328.025600
   3059   3054   3060     1   110.2600474 425.931200
   3063   3064   3066     1   109.5600471 388.275200
   3063   3077   3081     1   109.5600471 388.275200
   3063   3077   3082     1   109.5600471 388.275200
   3064   3067   3071     1   109.5600471 388.275200
   3064   3076   3079     1   107.2600461 396.643200
   3064   3063   3065     1   109.5600471 388.275200
   3065   3063   3077     1   109.5600471 388.275200
   3065   3063   3085     1   109.7800468 425.094400
   3066   3064   3067     1   109.5600471 388.275200
   3066   3064   3076     1   110.2600474 425.931200
   3067   3068   3070     1   109.5600471 388.275200
   3067   3075   3078     1   107.2600461 396.643200
   3068   3069   3072     1   110.2200475 386.601600
   3068   3074   3080     1   107.2600461 396.643200
   3068   3067   3071     1   109.5600471 388.275200
   3069   3068   3070     1   109.5600471 388.275200
   3070   3068   3074     1   110.2600474 425.931200
   3071   3067   3075     1   110.2600474 425.931200
   3072   3069   3073     1   109.5800467 425.931200
   3072   3069   3085     1   109.5800467 425.931200
   3077   3083   3084     1   107.2600461 396.643200
   3081   3077   3083     1   110.2600474 425.931200
   3081   3077   3082     1   108.4600466 328.025600
   3082   3077   3083     1   110.2600474 425.931200
   3086   3087   3089     1   109.5600471 388.275200
   3086   3100   3104     1   109.5600471 388.275200
   3086   3100   3105     1   109.5600471 388.275200
   3087   3086   3088     1   109.5600471 388.275200
   3087   3090   3094     1   109.5600471 388.275200
   3087   3099   3102     1   107.2600461 396.643200
   3088   3086   3100     1   109.5600471 388.275200
   3088   3086   3108     1   109.7800468 425.094400
   3089   3087   3090     1   109.5600471 388.275200
   3089   3087   3099     1   110.2600474 425.931200
   3090   3091   3093     1   109.5600471 388.275200
   3090   3098   3101     1   107.2600461 396.643200
   3091   3090   3094     1   109.5600471 388.275200
   3091   3092   3095     1   110.2200475 386.601600
   3091   3097   3103     1   107.2600461 396.643200
   3092   3091   3093     1   109.5600471 388.275200
   3093   3091   3097     1   110.2600474 425.931200
   3094   3090   3098     1   110.2600474 425.931200
   3095   3092   3096     1   109.5800467 425.931200
   3095   3092   3108     1   109.5800467 425.931200
   3100   3106   3107     1   107.2600461 396.643200
   3104   3100   3106     1   110.2600474 425.931200
   3104   3100   3105     1   108.4600466 328.025600
   3105   3100   3106     1   110.2600474 425.931200
   3109   3110   3112     1   109.5600471 388.275200
   3109   3123   3127     1   109.5600471 388.275200
   3109   3123   3128     1   109.5600471 388.275200
   3110   3113   3117     1   109.5600471 388.275200
   3110   3122   3125     1   107.2600461 396.643200
   3110   3109   3111     1   109.5600471 388.275200
   3111   3109   3123     1   109.5600471 388.275200
   3111   3109   3131     1   109.7800468 425.094400
   3112   3110   3113     1   109.5600471 388.275200
   3112   3110   3122     1   110.2600474 425.931200
   3113   3114   3116     1   109.5600471 388.275200
   3113   3121   3124     1   107.2600461 396.643200
   3114   3115   3118     1   110.2200475 386.601600
   3114   3120   3126     1   107.2600461 396.643200
   3114   3113   3117     1   109.5600471 388.275200
   3115   3114   3116     1   109.5600471 388.275200
   3116   3114   3120     1   110.2600474 425.931200
   3117   3113   3121     1   110.2600474 425.931200
   3118   3115   3119     1   109.5800467 425.931200
   3118   3115   3131     1   109.5800467 425.931200
   3123   3129   3130     1   107.2600461 396.643200
   3127   3123   3129     1   110.2600474 425.931200
   3127   3123   3128     1   108.4600466 328.025600
   3128   3123   3129     1   110.2600474 425.931200
   3132   3133   3135     1   109.5600471 388.275200
   3132   3146   3150     1   109.5600471 388.275200
   3132   3146   3151     1   109.5600471 388.275200
   3133   3132   3134     1   109.5600471 388.275200
   3133   3136   3140     1   109.5600471 388.275200
   3133   3145   3148     1   107.2600461 396.643200
   3134   3132   3146     1   109.5600471 388.275200
   3134   3132   3154     1   109.7800468 425.094400
   3135   3133   3136     1   109.5600471 388.275200
   3135   3133   3145     1   110.2600474 425.931200
   3136   3137   3139     1   109.5600471 388.275200
   3136   3144   3147     1   107.2600461 396.643200
   3137   3136   3140     1   109.5600471 388.275200
   3137   3138   3141     1   110.2200475 386.601600
   3137   3143   3149     1   107.2600461 396.643200
   3138   3137   3139     1   109.5600471 388.275200
   3139   3137   3143     1   110.2600474 425.931200
   3140   3136   3144     1   110.2600474 425.931200
   3141   3138   3142     1   109.5800467 425.931200
   3141   3138   3154     1   109.5800467 425.931200
   3146   3152   3153     1   107.2600461 396.643200
   3150   3146   3152     1   110.2600474 425.931200
   3150   3146   3151     1   108.4600466 328.025600
   3151   3146   3152     1   110.2600474 425.931200
   3155   3156   3158     1   109.5600471 388.275200
   3155   3169   3173     1   109.5600471 388.275200
   3155   3169   3174     1   109.5600471 388.275200
   3156   3159   3163     1   109.5600471 388.275200
   3156   3168   3171     1   107.2600461 396.643200
   3156   3155   3157     1   109.5600471 388.275200
   3157   3155   3169     1   109.5600471 388.275200
   3157   3155   3177     1   109.7800468 425.094400
   3158   3156   3159     1   109.5600471 388.275200
   3158   3156   3168     1   110.2600474 425.931200
   3159   3160   3162     1   109.5600471 388.275200
   3159   3167   3170     1   107.2600461 396.643200
   3160   3161   3164     1   110.2200475 386.601600
   3160   3166   3172     1   107.2600461 396.643200
   3160   3159   3163     1   109.5600471 388.275200
   3161   3160   3162     1   109.5600471 388.275200
   3162   3160   3166     1   110.2600474 425.931200
   3163   3159   3167     1   110.2600474 425.931200
   3164   3161   3165     1   109.5800467 425.931200
   3164   3161   3177     1   109.5800467 425.931200
   3169   3175   3176     1   107.2600461 396.643200
   3173   3169   3175     1   110.2600474 425.931200
   3173   3169   3174     1   108.4600466 328.025600
   3174   3169   3175     1   110.2600474 425.931200
   3178   3179   3181     1   109.5600471 388.275200
   3178   3192   3196     1   109.5600471 388.275200
   3178   3192   3197     1   109.5600471 388.275200
   3179   3178   3180     1   109.5600471 388.275200
   3179   3182   3186     1   109.5600471 388.275200
   3179   3191   3194     1   107.2600461 396.643200
   3180   3178   3192     1   109.5600471 388.275200
   3180   3178   3200     1   109.7800468 425.094400
   3181   3179   3182     1   109.5600471 388.275200
   3181   3179   3191     1   110.2600474 425.931200
   3182   3183   3185     1   109.5600471 388.275200
   3182   3190   3193     1   107.2600461 396.643200
   3183   3182   3186     1   109.5600471 388.275200
   3183   3184   3187     1   110.2200475 386.601600
   3183   3189   3195     1   107.2600461 396.643200
   3184   3183   3185     1   109.5600471 388.275200
   3185   3183   3189     1   110.2600474 425.931200
   3186   3182   3190     1   110.2600474 425.931200
   3187   3184   3188     1   109.5800467 425.931200
   3187   3184   3200     1   109.5800467 425.931200
   3192   3198   3199     1   107.2600461 396.643200
   3196   3192   3198     1   110.2600474 425.931200
   3196   3192   3197     1   108.4600466 328.025600
   3197   3192   3198     1   110.2600474 425.931200
   3201   3202   3204     1   109.5600471 388.275200
   3201   3215   3219     1   109.5600471 388.275200
   3201   3215   3220     1   109.5600471 388.275200
   3202   3205   3209     1   109.5600471 388.275200
   3202   3214   3217     1   107.2600461 396.643200
   3202   3201   3203     1   109.5600471 388.275200
   3203   3201   3215     1   109.5600471 388.275200
   3203   3201   3223     1   109.7800468 425.094400
   3204   3202   3205     1   109.5600471 388.275200
   3204   3202   3214     1   110.2600474 425.931200
   3205   3206   3208     1   109.5600471 388.275200
   3205   3213   3216     1   107.2600461 396.643200
   3206   3207   3210     1   110.2200475 386.601600
   3206   3212   3218     1   107.2600461 396.643200
   3206   3205   3209     1   109.5600471 388.275200
   3207   3206   3208     1   109.5600471 388.275200
   3208   3206   3212     1   110.2600474 425.931200
   3209   3205   3213     1   110.2600474 425.931200
   3210   3207   3211     1   109.5800467 425.931200
   3210   3207   3223     1   109.5800467 425.931200
   3215   3221   3222     1   107.2600461 396.643200
   3219   3215   3221     1   110.2600474 425.931200
   3219   3215   3220     1   108.4600466 328.025600
   3220   3215   3221     1   110.2600474 425.931200
   3224   3225   3227     1   109.5600471 388.275200
   3224   3238   3242     1   109.5600471 388.275200
   3224   3238   3243     1   109.5600471 388.275200
   3225   3224   3226     1   109.5600471 388.275200
   3225   3228   3232     1   109.5600471 388.275200
   3225   3237   3240     1   107.2600461 396.643200
   3226   3224   3238     1   109.5600471 388.275200
   3226   3224   3246     1   109.7800468 425.094400
   3227   3225   3228     1   109.5600471 388.275200
   3227   3225   3237     1   110.2600474 425.931200
   3228   3229   3231     1   109.5600471 388.275200
   3228   3236   3239     1   107.2600461 396.643200
   3229   3228   3232     1   109.5600471 388.275200
   3229   3230   3233     1   110.2200475 386.601600
   3229   3235   3241     1   107.2600461 396.643200
   3230   3229   3231     1   109.5600471 388.275200
   3231   3229   3235     1   110.2600474 425.931200
   3232   3228   3236     1   110.2600474 425.931200
   3233   3230   3234     1   109.5800467 425.931200
   3233   3230   3246     1   109.5800467 425.931200
   3238   3244   3245     1   107.2600461 396.643200
   3242   3238   3244     1   110.2600474 425.931200
   3242   3238   3243     1   108.4600466 328.025600
   3243   3238   3244     1   110.2600474 425.931200
   3247   3248   3250     1   109.5600471 388.275200
   3247   3261   3265     1   109.5600471 388.275200
   3247   3261   3266     1   109.5600471 388.275200
   3248   3251   3255     1   109.5600471 388.275200
   3248   3260   3263     1   107.2600461 396.643200
   3248   3247   3249     1   109.5600471 388.275200
   3249   3247   3261     1   109.5600471 388.275200
   3249   3247   3269     1   109.7800468 425.094400
   3250   3248   3251     1   109.5600471 388.275200
   3250   3248   3260     1   110.2600474 425.931200
   3251   3252   3254     1   109.5600471 388.275200
   3251   3259   3262     1   107.2600461 396.643200
   3252   3253   3256     1   110.2200475 386.601600
   3252   3258   3264     1   107.2600461 396.643200
   3252   3251   3255     1   109.5600471 388.275200
   3253   3252   3254     1   109.5600471 388.275200
   3254   3252   3258     1   110.2600474 425.931200
   3255   3251   3259     1   110.2600474 425.931200
   3256   3253   3257     1   109.5800467 425.931200
   3256   3253   3269     1   109.5800467 425.931200
   3261   3267   3268     1   107.2600461 396.643200
   3265   3261   3267     1   110.2600474 425.931200
   3265   3261   3266     1   108.4600466 328.025600
   3266   3261   3267     1   110.2600474 425.931200

[ dihedrals ]
;    ai     aj     ak     al funct         c0         c1         c2         c3         c4         c5
      1      2      8     14     1  0.0000000  0.6508444  3
      1      5     11     17     1  0.0000000  0.6508444  3
      2      1      5     11     1  180.0000771  0.4184000  2
      2      1      5     11     1  0.0000000  1.6024720  3
      2      8     14     20     1  0.0000000  0.6508444  3
      5      1      2      8     1  180.0000771  0.4184000  2
      5      1      2      8     1  0.0000000  1.6024720  3
      5     11     17     21     1  0.0000000  0.6508444  3
      8     14     20     28     1  180.0000771  2.0083200  2
      8     14     20     28     1  0.0000000  1.2552000  3
      8     14     20     31     1  180.0000771  2.0083200  2
      8     14     20     31     1  0.0000000  1.2552000  3
     11     17     21     22     1  180.0000771  2.0083200  2
     11     17     21     22     1  0.0000000  1.2552000  3
     11     17     21     25     1  180.0000771  2.0083200  2
     11     17     21     25     1  0.0000000  1.2552000  3
     14     20     28     40     1  180.0000771  2.0083200  2
     14     20     28     40     1  0.0000000  1.2552000  3
     14     20     31     43     1  180.0000771  2.0083200  2
     14     20     31     43     1  0.0000000  1.2552000  3
     17     21     22     34     1  180.0000771  2.0083200  2
     17     21     22     34     1  0.0000000  1.2552000  3
     17     21     25     37     1  180.0000771  2.0083200  2
     17     21     25     37     1  0.0000000  1.2552000  3
     20     28     40     49     1  0.0000000  0.6508444  3
     20     31     43     46     1  0.0000000  0.6508444  3
     21     22     34     55     1  0.0000000  0.6508444  3
     21     25     37     52     1  0.0000000  0.6508444  3
     22     21     25     37     1  180.0000771  2.0083200  2
     22     21     25     37     1  0.0000000  1.2552000  3
     22     34     55    173     1  0.0000000  0.6508444  3
     25     21     22     34     1  180.0000771  2.0083200  2
     25     21     22     34     1  0.0000000  1.2552000  3
     25     37     52    144     1  0.0000000  0.6508444  3
     28     20     31     43     1  180.0000771  2.0083200  2
     28     20     31     43     1  0.0000000  1.2552000  3
     28     40     49    115     1  0.0000000  0.6508444  3
     31     20     28     40     1  180.0000771  2.0083200  2
     31     20     28     40     1  0.0000000  1.2552000  3
     31     43     46     86     1  0.0000000  0.6508444  3
     34     55    173    164     1  180.0000771  0.4184000  2
     34     55    173    164     1  0.0000000  1.6024720  3
     37     52    144    135     1  180.0000771  0.4184000  2
     37     52    144    135     1  0.0000000  1.6024720  3
     40     49    115    106     1  180.0000771  0.4184000  2
     40     49    115    106     1  0.0000000  1.6024720  3
     43     46     86     77     1  180.0000771  0.4184000  2
     43     46     86     77     1  0.0000000  1.6024720  3
     46     86     77     68     1  180.0000771  0.4184000  2
     46     86     77     68     1  0.0000000  1.6024720  3
     49    115    106     97     1  180.0000771  0.4184000  2
     49    115    106     97     1  0.0000000  1.6024720  3
     52    144    135    126     1  180.0000771  0.4184000  2
     52    144    135    126     1  0.0000000  1.6024720  3
     55    173    164    155     1  180.0000771  0.4184000  2
     55    173    164    155     1  0.0000000  1.6024720  3
     58     59     71     83     1  0.0000000  0.6508444  3
     58     62     74     80     1  0.0000000  0.6508444  3
     58     65     68     77     1  0.0000000  0.6508444  3
     59     58     62     74     1  180.0000771  2.0083200  2
     59     58     62     74     1  0.0000000  1.2552000  3
     59     58     65     68     1  180.0000771  2.0083200  2
     59     58     65     68     1  0.0000000  1.2552000  3
     59     71     83    231     1  0.0000000  0.6508444  3
     62     58     59     71     1  180.0000771  2.0083200  2
     62     58     59     71     1  0.0000000  1.2552000  3
     62     58     65     68     1  180.0000771  2.0083200  2
     62     58     65     68     1  0.0000000  1.2552000  3
     62     74     80    202     1  0.0000000  0.6508444  3
     65     58     59     71     1  180.0000771  2.0083200  2
     65     58     59     71     1  0.0000000  1.2552000  3
     65     58     62     74     1  180.0000771  2.0083200  2
     65     58     62     74     1  0.0000000  1.2552000  3
     65     68     77     86     1  0.0000000  0.6508444  3
     71     83    231    222     1  180.0000771  0.4184000  2
     71     83    231    222     1  0.0000000  1.6024720  3
     74     80    202    193     1  180.0000771  0.4184000  2
     74     80    202    193     1  0.0000000  1.6024720  3
     80    202    193    184     1  180.0000771  0.4184000  2
     80    202    193    184     1  0.0000000  1.6024720  3
     83    231    222    213     1  180.0000771  0.4184000  2
     83    231    222    213     1  0.0000000  1.6024720  3
     87     88    100    112     1  0.0000000  0.6508444  3
     87     91    103    109     1  0.0000000  0.6508444  3
     87     94     97    106     1  0.0000000  0.6508444  3
     88     87     91    103     1  180.0000771  2.0083200  2
     88     87     91    103     1  0.0000000  1.2552000  3
     88     87     94     97     1  180.0000771  2.0083200  2
     88     87     94     97     1  0.0000000  1.2552000  3
     88    100    112    289     1  0.0000000  0.6508444  3
     91     87     88    100     1  180.0000771  2.0083200  2
     91     87     88    100     1  0.0000000  1.2552000  3
     91     87     94     97     1  180.0000771  2.0083200  2
     91     87     94     97     1  0.0000000  1.2552000  3
     91    103    109    260     1  0.0000000  0.6508444  3
     94     87     88    100     1  180.0000771  2.0083200  2
     94     87     88    100     1  0.0000000  1.2552000  3
     94     87     91    103     1  180.0000771  2.0083200  2
     94     87     91    103     1  0.0000000  1.2552000  3
     94     97    106    115     1  0.0000000  0.6508444  3
    100    112    289    280     1  180.0000771  0.4184000  2
    100    112    289    280     1  0.0000000  1.6024720  3
    103    109    260    251     1  180.0000771  0.4184000  2
    103    109    260    251     1  0.0000000  1.6024720  3
    109    260    251    242     1  180.0000771  0.4184000  2
    109    260    251    242     1  0.0000000  1.6024720  3
    112    289    280    271     1  180.0000771  0.4184000  2
    112    289    280    271     1  0.0000000  1.6024720  3
    116    117    129    141     1  0.0000000  0.6508444  3
    116    120    132    138     1  0.0000000  0.6508444  3
    116    123    126    135     1  0.0000000  0.6508444  3
    117    116    120    132     1  180.0000771  2.0083200  2
    117    116    120    132     1  0.0000000  1.2552000  3
    117    116    123    126     1  180.0000771  2.0083200  2
    117    116    123    126     1  0.0000000  1.2552000  3
    117    129    141    347     1  0.0000000  0.6508444  3
    120    116    117    129     1  180.0000771  2.0083200  2
    120    116    117    129     1  0.0000000  1.2552000  3
    120    116    123    126     1  180.0000771  2.0083200  2
    120    116    123    126     1  0.0000000  1.2552000  3
    120    132    138    318     1  0.0000000  0.6508444  3
    123    116    117    129     1  180.0000771  2.0083200  2
    123    116    117    129     1  0.0000000  1.2552000  3
    123    116    120    132     1  180.0000771  2.0083200  2
    123    116    120    132     1  0.0000000  1.2552000  3
    123    126    135    144     1  0.0000000  0.6508444  3
    129    141    347    338     1  180.0000771  0.4184000  2
    129    141    347    338     1  0.0000000  1.6024720  3
    132    138    318    309     1  180.0000771  0.4184000  2
    132    138    318    309     1  0.0000000  1.6024720  3
    138    318    309    300     1  180.0000771  0.4184000  2
    138    318    309    300     1  0.0000000  1.6024720  3
    141    347    338    329     1  180.0000771  0.4184000  2
    141    347    338    329     1  0.0000000  1.6024720  3
    145    146    158    170     1  0.0000000  0.6508444  3
    145    149    161    167     1  0.0000000  0.6508444  3
    145    152    155    164     1  0.0000000  0.6508444  3
    146    145    149    161     1  180.0000771  2.0083200  2
    146    145    149    161     1  0.0000000  1.2552000  3
    146    145    152    155     1  180.0000771  2.0083200  2
    146    145    152    155     1  0.0000000  1.2552000  3
    146    158    170    405     1  0.0000000  0.6508444  3
    149    145    146    158     1  180.0000771  2.0083200  2
    149    145    146    158     1  0.0000000  1.2552000  3
    149    145    152    155     1  180.0000771  2.0083200  2
    149    145    152    155     1  0.0000000  1.2552000  3
    149    161    167    376     1  0.0000000  0.6508444  3
    152    145    146    158     1  180.0000771  2.0083200  2
    152    145    146    158     1  0.0000000  1.2552000  3
    152    145    149    161     1  180.0000771  2.0083200  2
    152    145    149    161     1  0.0000000  1.2552000  3
    152    155    164    173     1  0.0000000  0.6508444  3
    158    170    405    396     1  180.0000771  0.4184000  2
    158    170    405    396     1  0.0000000  1.6024720  3
    161    167    376    367     1  180.0000771  0.4184000  2
    161    167    376    367     1  0.0000000  1.6024720  3
    167    376    367    358     1  180.0000771  0.4184000  2
    167    376    367    358     1  0.0000000  1.6024720  3
    170    405    396    387     1  180.0000771  0.4184000  2
    170    405    396    387     1  0.0000000  1.6024720  3
    174    175    187    199     1  0.0000000  0.6508444  3
    174    178    190    196     1  0.0000000  0.6508444  3
    174    181    184    193     1  0.0000000  0.6508444  3
    175    174    178    190     1  180.0000771  2.0083200  2
    175    174    178    190     1  0.0000000  1.2552000  3
    175    174    181    184     1  180.0000771  2.0083200  2
    175    174    181    184     1  0.0000000  1.2552000  3
    175    187    199    463     1  0.0000000  0.6508444  3
    178    174    175    187     1  180.0000771  2.0083200  2
    178    174    175    187     1  0.0000000  1.2552000  3
    178    174    181    184     1  180.0000771  2.0083200  2
    178    174    181    184     1  0.0000000  1.2552000  3
    178    190    196    434     1  0.0000000  0.6508444  3
    181    174    175    187     1  180.0000771  2.0083200  2
    181    174    175    187     1  0.0000000  1.2552000  3
    181    174    178    190     1  180.0000771  2.0083200  2
    181    174    178    190     1  0.0000000  1.2552000  3
    181    184    193    202     1  0.0000000  0.6508444  3
    187    199    463    454     1  180.0000771  0.4184000  2
    187    199    463    454     1  0.0000000  1.6024720  3
    190    196    434    425     1  180.0000771  0.4184000  2
    190    196    434    425     1  0.0000000  1.6024720  3
    196    434    425    416     1  180.0000771  0.4184000  2
    196    434    425    416     1  0.0000000  1.6024720  3
    199    463    454    445     1  180.0000771  0.4184000  2
    199    463    454    445     1  0.0000000  1.6024720  3
    203    204    216    228     1  0.0000000  0.6508444  3
    203    207    219    225     1  0.0000000  0.6508444  3
    203    210    213    222     1  0.0000000  0.6508444  3
    204    203    207    219     1  180.0000771  2.0083200  2
    204    203    207    219     1  0.0000000  1.2552000  3
    204    203    210    213     1  180.0000771  2.0083200  2
    204    203    210    213     1  0.0000000  1.2552000  3
    204    216    228    521     1  0.0000000  0.6508444  3
    207    203    204    216     1  180.0000771  2.0083200  2
    207    203    204    216     1  0.0000000  1.2552000  3
    207    203    210    213     1  180.0000771  2.0083200  2
    207    203    210    213     1  0.0000000  1.2552000  3
    207    219    225    492     1  0.0000000  0.6508444  3
    210    203    204    216     1  180.0000771  2.0083200  2
    210    203    204    216     1  0.0000000  1.2552000  3
    210    203    207    219     1  180.0000771  2.0083200  2
    210    203    207    219     1  0.0000000  1.2552000  3
    210    213    222    231     1  0.0000000  0.6508444  3
    216    228    521    512     1  180.0000771  0.4184000  2
    216    228    521    512     1  0.0000000  1.6024720  3
    219    225    492    483     1  180.0000771  0.4184000  2
    219    225    492    483     1  0.0000000  1.6024720  3
    225    492    483    474     1  180.0000771  0.4184000  2
    225    492    483    474     1  0.0000000  1.6024720  3
    228    521    512    503     1  180.0000771  0.4184000  2
    228    521    512    503     1  0.0000000  1.6024720  3
    232    233    245    257     1  0.0000000  0.6508444  3
    232    236    248    254     1  0.0000000  0.6508444  3
    232    239    242    251     1  0.0000000  0.6508444  3
    233    232    236    248     1  180.0000771  2.0083200  2
    233    232    236    248     1  0.0000000  1.2552000  3
    233    232    239    242     1  180.0000771  2.0083200  2
    233    232    239    242     1  0.0000000  1.2552000  3
    233    245    257    579     1  0.0000000  0.6508444  3
    236    232    233    245     1  180.0000771  2.0083200  2
    236    232    233    245     1  0.0000000  1.2552000  3
    236    232    239    242     1  180.0000771  2.0083200  2
    236    232    239    242     1  0.0000000  1.2552000  3
    236    248    254    550     1  0.0000000  0.6508444  3
    239    232    233    245     1  180.0000771  2.0083200  2
    239    232    233    245     1  0.0000000  1.2552000  3
    239    232    236    248     1  180.0000771  2.0083200  2
    239    232    236    248     1  0.0000000  1.2552000  3
    239    242    251    260     1  0.0000000  0.6508444  3
    245    257    579    570     1  180.0000771  0.4184000  2
    245    257    579    570     1  0.0000000  1.6024720  3
    248    254    550    541     1  180.0000771  0.4184000  2
    248    254    550    541     1  0.0000000  1.6024720  3
    254    550    541    532     1  180.0000771  0.4184000  2
    254    550    541    532     1  0.0000000  1.6024720  3
    257    579    570    561     1  180.0000771  0.4184000  2
    257    579    570    561     1  0.0000000  1.6024720  3
    261    262    274    286     1  0.0000000  0.6508444  3
    261    265    277    283     1  0.0000000  0.6508444  3
    261    268    271    280     1  0.0000000  0.6508444  3
    262    261    265    277     1  180.0000771  2.0083200  2
    262    261    265    277     1  0.0000000  1.2552000  3
    262    261    268    271     1  180.0000771  2.0083200  2
    262    261    268    271     1  0.0000000  1.2552000  3
    262    274    286    637     1  0.0000000  0.6508444  3
    265    261    262    274     1  180.0000771  2.0083200  2
    265    261    262    274     1  0.0000000  1.2552000  3
    265    261    268    271     1  180.0000771  2.0083200  2
    265    261    268    271     1  0.0000000  1.2552000  3
    265    277    283    608     1  0.0000000  0.6508444  3
    268    261    262    274     1  180.0000771  2.0083200  2
    268    261    262    274     1  0.0000000  1.2552000  3
    268    261    265    277     1  180.0000771  2.0083200  2
    268    261    265    277     1  0.0000000  1.2552000  3
    268    271    280    289     1  0.0000000  0.6508444  3
    274    286    637    628     1  180.0000771  0.4184000  2
    274    286    637    628     1  0.0000000  1.6024720  3
    277    283    608    599     1  180.0000771  0.4184000  2
    277    283    608    599     1  0.0000000  1.6024720  3
    283    608    599    590     1  180.0000771  0.4184000  2
    283    608    599    590     1  0.0000000  1.6024720  3
    286    637    628    619     1  180.0000771  0.4184000  2
    286    637    628    619     1  0.0000000  1.6024720  3
    290    291    303    315     1  0.0000000  0.6508444  3
    290    294    306    312     1  0.0000000  0.6508444  3
    290    297    300    309     1  0.0000000  0.6508444  3
    291    290    294    306     1  180.0000771  2.0083200  2
    291    290    294    306     1  0.0000000  1.2552000  3
    291    290    297    300     1  180.0000771  2.0083200  2
    291    290    297    300     1  0.0000000  1.2552000  3
    291    303    315    695     1  0.0000000  0.6508444  3
    294    290    291    303     1  180.0000771  2.0083200  2
    294    290    291    303     1  0.0000000  1.2552000  3
    294    290    297    300     1  180.0000771  2.0083200  2
    294    290    297    300     1  0.0000000  1.2552000  3
    294    306    312    666     1  0.0000000  0.6508444  3
    297    290    291    303     1  180.0000771  2.0083200  2
    297    290    291    303     1  0.0000000  1.2552000  3
    297    290    294    306     1  180.0000771  2.0083200  2
    297    290    294    306     1  0.0000000  1.2552000  3
    297    300    309    318     1  0.0000000  0.6508444  3
    303    315    695    686     1  180.0000771  0.4184000  2
    303    315    695    686     1  0.0000000  1.6024720  3
    306    312    666    657     1  180.0000771  0.4184000  2
    306    312    666    657     1  0.0000000  1.6024720  3
    312    666    657    648     1  180.0000771  0.4184000  2
    312    666    657    648     1  0.0000000  1.6024720  3
    315    695    686    677     1  180.0000771  0.4184000  2
    315    695    686    677     1  0.0000000  1.6024720  3
    319    320    332    344     1  0.0000000  0.6508444  3
    319    323    335    341     1  0.0000000  0.6508444  3
    319    326    329    338     1  0.0000000  0.6508444  3
    320    319    323    335     1  180.0000771  2.0083200  2
    320    319    323    335     1  0.0000000  1.2552000  3
    320    319    326    329     1  180.0000771  2.0083200  2
    320    319    326    329     1  0.0000000  1.2552000  3
    320    332    344    753     1  0.0000000  0.6508444  3
    323    319    320    332     1  180.0000771  2.0083200  2
    323    319    320    332     1  0.0000000  1.2552000  3
    323    319    326    329     1  180.0000771  2.0083200  2
    323    319    326    329     1  0.0000000  1.2552000  3
    323    335    341    724     1  0.0000000  0.6508444  3
    326    319    320    332     1  180.0000771  2.0083200  2
    326    319    320    332     1  0.0000000  1.2552000  3
    326    319    323    335     1  180.0000771  2.0083200  2
    326    319    323    335     1  0.0000000  1.2552000  3
    326    329    338    347     1  0.0000000  0.6508444  3
    332    344    753    744     1  180.0000771  0.4184000  2
    332    344    753    744     1  0.0000000  1.6024720  3
    335    341    724    715     1  180.0000771  0.4184000  2
    335    341    724    715     1  0.0000000  1.6024720  3
    341    724    715    706     1  180.0000771  0.4184000  2
    341    724    715    706     1  0.0000000  1.6024720  3
    344    753    744    735     1  180.0000771  0.4184000  2
    344    753    744    735     1  0.0000000  1.6024720  3
    348    349    361    373     1  0.0000000  0.6508444  3
    348    352    364    370     1  0.0000000  0.6508444  3
    348    355    358    367     1  0.0000000  0.6508444  3
    349    348    352    364     1  180.0000771  2.0083200  2
    349    348    352    364     1  0.0000000  1.2552000  3
    349    348    355    358     1  180.0000771  2.0083200  2
    349    348    355    358     1  0.0000000  1.2552000  3
    349    361    373    811     1  0.0000000  0.6508444  3
    352    348    349    361     1  180.0000771  2.0083200  2
    352    348    349    361     1  0.0000000  1.2552000  3
    352    348    355    358     1  180.0000771  2.0083200  2
    352    348    355    358     1  0.0000000  1.2552000  3
    352    364    370    782     1  0.0000000  0.6508444  3
    355    348    349    361     1  180.0000771  2.0083200  2
    355    348    349    361     1  0.0000000  1.2552000  3
    355    348    352    364     1  180.0000771  2.0083200  2
    355    348    352    364     1  0.0000000  1.2552000  3
    355    358    367    376     1  0.0000000  0.6508444  3
    361    373    811    802     1  180.0000771  0.4184000  2
    361    373    811    802     1  0.0000000  1.6024720  3
    364    370    782    773     1  180.0000771  0.4184000  2
    364    370    782    773     1  0.0000000  1.6024720  3
    370    782    773    764     1  180.0000771  0.4184000  2
    370    782    773    764     1  0.0000000  1.6024720  3
    373    811    802    793     1  180.0000771  0.4184000  2
    373    811    802    793     1  0.0000000  1.6024720  3
    377    378    390    402     1  0.0000000  0.6508444  3
    377    381    393    399     1  0.0000000  0.6508444  3
    377    384    387    396     1  0.0000000  0.6508444  3
    378    377    381    393     1  180.0000771  2.0083200  2
    378    377    381    393     1  0.0000000  1.2552000  3
    378    377    384    387     1  180.0000771  2.0083200  2
    378    377    384    387     1  0.0000000  1.2552000  3
    378    390    402    869     1  0.0000000  0.6508444  3
    381    377    378    390     1  180.0000771  2.0083200  2
    381    377    378    390     1  0.0000000  1.2552000  3
    381    377    384    387     1  180.0000771  2.0083200  2
    381    377    384    387     1  0.0000000  1.2552000  3
    381    393    399    840     1  0.0000000  0.6508444  3
    384    377    378    390     1  180.0000771  2.0083200  2
    384    377    378    390     1  0.0000000  1.2552000  3
    384    377    381    393     1  180.0000771  2.0083200  2
    384    377    381    393     1  0.0000000  1.2552000  3
    384    387    396    405     1  0.0000000  0.6508444  3
    390    402    869    860     1  180.0000771  0.4184000  2
    390    402    869    860     1  0.0000000  1.6024720  3
    393    399    840    831     1  180.0000771  0.4184000  2
    393    399    840    831     1  0.0000000  1.6024720  3
    399    840    831    822     1  180.0000771  0.4184000  2
    399    840    831    822     1  0.0000000  1.6024720  3
    402    869    860    851     1  180.0000771  0.4184000  2
    402    869    860    851     1  0.0000000  1.6024720  3
    406    407    419    431     1  0.0000000  0.6508444  3
    406    410    422    428     1  0.0000000  0.6508444  3
    406    413    416    425     1  0.0000000  0.6508444  3
    407    406    410    422     1  180.0000771  2.0083200  2
    407    406    410    422     1  0.0000000  1.2552000  3
    407    406    413    416     1  180.0000771  2.0083200  2
    407    406    413    416     1  0.0000000  1.2552000  3
    407    419    431    927     1  0.0000000  0.6508444  3
    410    406    407    419     1  180.0000771  2.0083200  2
    410    406    407    419     1  0.0000000  1.2552000  3
    410    406    413    416     1  180.0000771  2.0083200  2
    410    406    413    416     1  0.0000000  1.2552000  3
    410    422    428    898     1  0.0000000  0.6508444  3
    413    406    407    419     1  180.0000771  2.0083200  2
    413    406    407    419     1  0.0000000  1.2552000  3
    413    406    410    422     1  180.0000771  2.0083200  2
    413    406    410    422     1  0.0000000  1.2552000  3
    413    416    425    434     1  0.0000000  0.6508444  3
    419    431    927    918     1  180.0000771  0.4184000  2
    419    431    927    918     1  0.0000000  1.6024720  3
    422    428    898    889     1  180.0000771  0.4184000  2
    422    428    898    889     1  0.0000000  1.6024720  3
    428    898    889    880     1  180.0000771  0.4184000  2
    428    898    889    880     1  0.0000000  1.6024720  3
    431    927    918    909     1  180.0000771  0.4184000  2
    431    927    918    909     1  0.0000000  1.6024720  3
    435    436    448    460     1  0.0000000  0.6508444  3
    435    439    451    457     1  0.0000000  0.6508444  3
    435    442    445    454     1  0.0000000  0.6508444  3
    436    435    439    451     1  180.0000771  2.0083200  2
    436    435    439    451     1  0.0000000  1.2552000  3
    436    435    442    445     1  180.0000771  2.0083200  2
    436    435    442    445     1  0.0000000  1.2552000  3
    436    448    460    985     1  0.0000000  0.6508444  3
    439    435    436    448     1  180.0000771  2.0083200  2
    439    435    436    448     1  0.0000000  1.2552000  3
    439    435    442    445     1  180.0000771  2.0083200  2
    439    435    442    445     1  0.0000000  1.2552000  3
    439    451    457    956     1  0.0000000  0.6508444  3
    442    435    436    448     1  180.0000771  2.0083200  2
    442    435    436    448     1  0.0000000  1.2552000  3
    442    435    439    451     1  180.0000771  2.0083200  2
    442    435    439    451     1  0.0000000  1.2552000  3
    442    445    454    463     1  0.0000000  0.6508444  3
    448    460    985    976     1  180.0000771  0.4184000  2
    448    460    985    976     1  0.0000000  1.6024720  3
    451    457    956    947     1  180.0000771  0.4184000  2
    451    457    956    947     1  0.0000000  1.6024720  3
    457    956    947    938     1  180.0000771  0.4184000  2
    457    956    947    938     1  0.0000000  1.6024720  3
    460    985    976    967     1  180.0000771  0.4184000  2
    460    985    976    967     1  0.0000000  1.6024720  3
    464    465    477    489     1  0.0000000  0.6508444  3
    464    468    480    486     1  0.0000000  0.6508444  3
    464    471    474    483     1  0.0000000  0.6508444  3
    465    464    468    480     1  180.0000771  2.0083200  2
    465    464    468    480     1  0.0000000  1.2552000  3
    465    464    471    474     1  180.0000771  2.0083200  2
    465    464    471    474     1  0.0000000  1.2552000  3
    465    477    489   1043     1  0.0000000  0.6508444  3
    468    464    465    477     1  180.0000771  2.0083200  2
    468    464    465    477     1  0.0000000  1.2552000  3
    468    464    471    474     1  180.0000771  2.0083200  2
    468    464    471    474     1  0.0000000  1.2552000  3
    468    480    486   1014     1  0.0000000  0.6508444  3
    471    464    465    477     1  180.0000771  2.0083200  2
    471    464    465    477     1  0.0000000  1.2552000  3
    471    464    468    480     1  180.0000771  2.0083200  2
    471    464    468    480     1  0.0000000  1.2552000  3
    471    474    483    492     1  0.0000000  0.6508444  3
    477    489   1043   1034     1  180.0000771  0.4184000  2
    477    489   1043   1034     1  0.0000000  1.6024720  3
    480    486   1014   1005     1  180.0000771  0.4184000  2
    480    486   1014   1005     1  0.0000000  1.6024720  3
    486   1014   1005    996     1  180.0000771  0.4184000  2
    486   1014   1005    996     1  0.0000000  1.6024720  3
    489   1043   1034   1025     1  180.0000771  0.4184000  2
    489   1043   1034   1025     1  0.0000000  1.6024720  3
    493    494    506    518     1  0.0000000  0.6508444  3
    493    497    509    515     1  0.0000000  0.6508444  3
    493    500    503    512     1  0.0000000  0.6508444  3
    494    493    497    509     1  180.0000771  2.0083200  2
    494    493    497    509     1  0.0000000  1.2552000  3
    494    493    500    503     1  180.0000771  2.0083200  2
    494    493    500    503     1  0.0000000  1.2552000  3
    494    506    518   1101     1  0.0000000  0.6508444  3
    497    493    494    506     1  180.0000771  2.0083200  2
    497    493    494    506     1  0.0000000  1.2552000  3
    497    493    500    503     1  180.0000771  2.0083200  2
    497    493    500    503     1  0.0000000  1.2552000  3
    497    509    515   1072     1  0.0000000  0.6508444  3
    500    493    494    506     1  180.0000771  2.0083200  2
    500    493    494    506     1  0.0000000  1.2552000  3
    500    493    497    509     1  180.0000771  2.0083200  2
    500    493    497    509     1  0.0000000  1.2552000  3
    500    503    512    521     1  0.0000000  0.6508444  3
    506    518   1101   1092     1  180.0000771  0.4184000  2
    506    518   1101   1092     1  0.0000000  1.6024720  3
    509    515   1072   1063     1  180.0000771  0.4184000  2
    509    515   1072   1063     1  0.0000000  1.6024720  3
    515   1072   1063   1054     1  180.0000771  0.4184000  2
    515   1072   1063   1054     1  0.0000000  1.6024720  3
    518   1101   1092   1083     1  180.0000771  0.4184000  2
    518   1101   1092   1083     1  0.0000000  1.6024720  3
    522    523    535    547     1  0.0000000  0.6508444  3
    522    526    538    544     1  0.0000000  0.6508444  3
    522    529    532    541     1  0.0000000  0.6508444  3
    523    522    526    538     1  180.0000771  2.0083200  2
    523    522    526    538     1  0.0000000  1.2552000  3
    523    522    529    532     1  180.0000771  2.0083200  2
    523    522    529    532     1  0.0000000  1.2552000  3
    523    535    547   1159     1  0.0000000  0.6508444  3
    526    522    523    535     1  180.0000771  2.0083200  2
    526    522    523    535     1  0.0000000  1.2552000  3
    526    522    529    532     1  180.0000771  2.0083200  2
    526    522    529    532     1  0.0000000  1.2552000  3
    526    538    544   1130     1  0.0000000  0.6508444  3
    529    522    523    535     1  180.0000771  2.0083200  2
    529    522    523    535     1  0.0000000  1.2552000  3
    529    522    526    538     1  180.0000771  2.0083200  2
    529    522    526    538     1  0.0000000  1.2552000  3
    529    532    541    550     1  0.0000000  0.6508444  3
    535    547   1159   1150     1  180.0000771  0.4184000  2
    535    547   1159   1150     1  0.0000000  1.6024720  3
    538    544   1130   1121     1  180.0000771  0.4184000  2
    538    544   1130   1121     1  0.0000000  1.6024720  3
    544   1130   1121   1112     1  180.0000771  0.4184000  2
    544   1130   1121   1112     1  0.0000000  1.6024720  3
    547   1159   1150   1141     1  180.0000771  0.4184000  2
    547   1159   1150   1141     1  0.0000000  1.6024720  3
    551    552    564    576     1  0.0000000  0.6508444  3
    551    555    567    573     1  0.0000000  0.6508444  3
    551    558    561    570     1  0.0000000  0.6508444  3
    552    551    555    567     1  180.0000771  2.0083200  2
    552    551    555    567     1  0.0000000  1.2552000  3
    552    551    558    561     1  180.0000771  2.0083200  2
    552    551    558    561     1  0.0000000  1.2552000  3
    552    564    576   1217     1  0.0000000  0.6508444  3
    555    551    552    564     1  180.0000771  2.0083200  2
    555    551    552    564     1  0.0000000  1.2552000  3
    555    551    558    561     1  180.0000771  2.0083200  2
    555    551    558    561     1  0.0000000  1.2552000  3
    555    567    573   1188     1  0.0000000  0.6508444  3
    558    551    552    564     1  180.0000771  2.0083200  2
    558    551    552    564     1  0.0000000  1.2552000  3
    558    551    555    567     1  180.0000771  2.0083200  2
    558    551    555    567     1  0.0000000  1.2552000  3
    558    561    570    579     1  0.0000000  0.6508444  3
    564    576   1217   1208     1  180.0000771  0.4184000  2
    564    576   1217   1208     1  0.0000000  1.6024720  3
    567    573   1188   1179     1  180.0000771  0.4184000  2
    567    573   1188   1179     1  0.0000000  1.6024720  3
    573   1188   1179   1170     1  180.0000771  0.4184000  2
    573   1188   1179   1170     1  0.0000000  1.6024720  3
    576   1217   1208   1199     1  180.0000771  0.4184000  2
    576   1217   1208   1199     1  0.0000000  1.6024720  3
    580    581    593    605     1  0.0000000  0.6508444  3
    580    584    596    602     1  0.0000000  0.6508444  3
    580    587    590    599     1  0.0000000  0.6508444  3
    581    580    584    596     1  180.0000771  2.0083200  2
    581    580    584    596     1  0.0000000  1.2552000  3
    581    580    587    590     1  180.0000771  2.0083200  2
    581    580    587    590     1  0.0000000  1.2552000  3
    581    593    605   1275     1  0.0000000  0.6508444  3
    584    580    581    593     1  180.0000771  2.0083200  2
    584    580    581    593     1  0.0000000  1.2552000  3
    584    580    587    590     1  180.0000771  2.0083200  2
    584    580    587    590     1  0.0000000  1.2552000  3
    584    596    602   1246     1  0.0000000  0.6508444  3
    587    580    581    593     1  180.0000771  2.0083200  2
    587    580    581    593     1  0.0000000  1.2552000  3
    587    580    584    596     1  180.0000771  2.0083200  2
    587    580    584    596     1  0.0000000  1.2552000  3
    587    590    599    608     1  0.0000000  0.6508444  3
    593    605   1275   1266     1  180.0000771  0.4184000  2
    593    605   1275   1266     1  0.0000000  1.6024720  3
    596    602   1246   1237     1  180.0000771  0.4184000  2
    596    602   1246   1237     1  0.0000000  1.6024720  3
    602   1246   1237   1228     1  180.0000771  0.4184000  2
    602   1246   1237   1228     1  0.0000000  1.6024720  3
    605   1275   1266   1257     1  180.0000771  0.4184000  2
    605   1275   1266   1257     1  0.0000000  1.6024720  3
    609    610    622    634     1  0.0000000  0.6508444  3
    609    613    625    631     1  0.0000000  0.6508444  3
    609    616    619    628     1  0.0000000  0.6508444  3
    610    609    613    625     1  180.0000771  2.0083200  2
    610    609    613    625     1  0.0000000  1.2552000  3
    610    609    616    619     1  180.0000771  2.0083200  2
    610    609    616    619     1  0.0000000  1.2552000  3
    610    622    634   1333     1  0.0000000  0.6508444  3
    613    609    610    622     1  180.0000771  2.0083200  2
    613    609    610    622     1  0.0000000  1.2552000  3
    613    609    616    619     1  180.0000771  2.0083200  2
    613    609    616    619     1  0.0000000  1.2552000  3
    613    625    631   1304     1  0.0000000  0.6508444  3
    616    609    610    622     1  180.0000771  2.0083200  2
    616    609    610    622     1  0.0000000  1.2552000  3
    616    609    613    625     1  180.0000771  2.0083200  2
    616    609    613    625     1  0.0000000  1.2552000  3
    616    619    628    637     1  0.0000000  0.6508444  3
    622    634   1333   1324     1  180.0000771  0.4184000  2
    622    634   1333   1324     1  0.0000000  1.6024720  3
    625    631   1304   1295     1  180.0000771  0.4184000  2
    625    631   1304   1295     1  0.0000000  1.6024720  3
    631   1304   1295   1286     1  180.0000771  0.4184000  2
    631   1304   1295   1286     1  0.0000000  1.6024720  3
    634   1333   1324   1315     1  180.0000771  0.4184000  2
    634   1333   1324   1315     1  0.0000000  1.6024720  3
    638    639    651    663     1  0.0000000  0.6508444  3
    638    642    654    660     1  0.0000000  0.6508444  3
    638    645    648    657     1  0.0000000  0.6508444  3
    639    638    642    654     1  180.0000771  2.0083200  2
    639    638    642    654     1  0.0000000  1.2552000  3
    639    638    645    648     1  180.0000771  2.0083200  2
    639    638    645    648     1  0.0000000  1.2552000  3
    639    651    663   1391     1  0.0000000  0.6508444  3
    642    638    639    651     1  180.0000771  2.0083200  2
    642    638    639    651     1  0.0000000  1.2552000  3
    642    638    645    648     1  180.0000771  2.0083200  2
    642    638    645    648     1  0.0000000  1.2552000  3
    642    654    660   1362     1  0.0000000  0.6508444  3
    645    638    639    651     1  180.0000771  2.0083200  2
    645    638    639    651     1  0.0000000  1.2552000  3
    645    638    642    654     1  180.0000771  2.0083200  2
    645    638    642    654     1  0.0000000  1.2552000  3
    645    648    657    666     1  0.0000000  0.6508444  3
    651    663   1391   1382     1  180.0000771  0.4184000  2
    651    663   1391   1382     1  0.0000000  1.6024720  3
    654    660   1362   1353     1  180.0000771  0.4184000  2
    654    660   1362   1353     1  0.0000000  1.6024720  3
    660   1362   1353   1344     1  180.0000771  0.4184000  2
    660   1362   1353   1344     1  0.0000000  1.6024720  3
    663   1391   1382   1373     1  180.0000771  0.4184000  2
    663   1391   1382   1373     1  0.0000000  1.6024720  3
    667    668    680    692     1  0.0000000  0.6508444  3
    667    671    683    689     1  0.0000000  0.6508444  3
    667    674    677    686     1  0.0000000  0.6508444  3
    668    667    671    683     1  180.0000771  2.0083200  2
    668    667    671    683     1  0.0000000  1.2552000  3
    668    667    674    677     1  180.0000771  2.0083200  2
    668    667    674    677     1  0.0000000  1.2552000  3
    668    680    692   1449     1  0.0000000  0.6508444  3
    671    667    668    680     1  180.0000771  2.0083200  2
    671    667    668    680     1  0.0000000  1.2552000  3
    671    667    674    677     1  180.0000771  2.0083200  2
    671    667    674    677     1  0.0000000  1.2552000  3
    671    683    689   1420     1  0.0000000  0.6508444  3
    674    667    668    680     1  180.0000771  2.0083200  2
    674    667    668    680     1  0.0000000  1.2552000  3
    674    667    671    683     1  180.0000771  2.0083200  2
    674    667    671    683     1  0.0000000  1.2552000  3
    674    677    686    695     1  0.0000000  0.6508444  3
    680    692   1449   1440     1  180.0000771  0.4184000  2
    680    692   1449   1440     1  0.0000000  1.6024720  3
    683    689   1420   1411     1  180.0000771  0.4184000  2
    683    689   1420   1411     1  0.0000000  1.6024720  3
    689   1420   1411   1402     1  180.0000771  0.4184000  2
    689   1420   1411   1402     1  0.0000000  1.6024720  3
    692   1449   1440   1431     1  180.0000771  0.4184000  2
    692   1449   1440   1431     1  0.0000000  1.6024720  3
    696    697    709    721     1  0.0000000  0.6508444  3
    696    700    712    718     1  0.0000000  0.6508444  3
    696    703    706    715     1  0.0000000  0.6508444  3
    697    696    700    712     1  180.0000771  2.0083200  2
    697    696    700    712     1  0.0000000  1.2552000  3
    697    696    703    706     1  180.0000771  2.0083200  2
    697    696    703    706     1  0.0000000  1.2552000  3
    697    709    721   1507     1  0.0000000  0.6508444  3
    700    696    697    709     1  180.0000771  2.0083200  2
    700    696    697    709     1  0.0000000  1.2552000  3
    700    696    703    706     1  180.0000771  2.0083200  2
    700    696    703    706     1  0.0000000  1.2552000  3
    700    712    718   1478     1  0.0000000  0.6508444  3
    703    696    697    709     1  180.0000771  2.0083200  2
    703    696    697    709     1  0.0000000  1.2552000  3
    703    696    700    712     1  180.0000771  2.0083200  2
    703    696    700    712     1  0.0000000  1.2552000  3
    703    706    715    724     1  0.0000000  0.6508444  3
    709    721   1507   1498     1  180.0000771  0.4184000  2
    709    721   1507   1498     1  0.0000000  1.6024720  3
    712    718   1478   1469     1  180.0000771  0.4184000  2
    712    718   1478   1469     1  0.0000000  1.6024720  3
    718   1478   1469   1460     1  180.0000771  0.4184000  2
    718   1478   1469   1460     1  0.0000000  1.6024720  3
    721   1507   1498   1489     1  180.0000771  0.4184000  2
    721   1507   1498   1489     1  0.0000000  1.6024720  3
    725    726    738    750     1  0.0000000  0.6508444  3
    725    729    741    747     1  0.0000000  0.6508444  3
    725    732    735    744     1  0.0000000  0.6508444  3
    726    725    729    741     1  180.0000771  2.0083200  2
    726    725    729    741     1  0.0000000  1.2552000  3
    726    725    732    735     1  180.0000771  2.0083200  2
    726    725    732    735     1  0.0000000  1.2552000  3
    726    738    750   1565     1  0.0000000  0.6508444  3
    729    725    726    738     1  180.0000771  2.0083200  2
    729    725    726    738     1  0.0000000  1.2552000  3
    729    725    732    735     1  180.0000771  2.0083200  2
    729    725    732    735     1  0.0000000  1.2552000  3
    729    741    747   1536     1  0.0000000  0.6508444  3
    732    725    726    738     1  180.0000771  2.0083200  2
    732    725    726    738     1  0.0000000  1.2552000  3
    732    725    729    741     1  180.0000771  2.0083200  2
    732    725    729    741     1  0.0000000  1.2552000  3
    732    735    744    753     1  0.0000000  0.6508444  3
    738    750   1565   1556     1  180.0000771  0.4184000  2
    738    750   1565   1556     1  0.0000000  1.6024720  3
    741    747   1536   1527     1  180.0000771  0.4184000  2
    741    747   1536   1527     1  0.0000000  1.6024720  3
    747   1536   1527   1518     1  180.0000771  0.4184000  2
    747   1536   1527   1518     1  0.0000000  1.6024720  3
    750   1565   1556   1547     1  180.0000771  0.4184000  2
    750   1565   1556   1547     1  0.0000000  1.6024720  3
    754    755    767    779     1  0.0000000  0.6508444  3
    754    758    770    776     1  0.0000000  0.6508444  3
    754    761    764    773     1  0.0000000  0.6508444  3
    755    754    758    770     1  180.0000771  2.0083200  2
    755    754    758    770     1  0.0000000  1.2552000  3
    755    754    761    764     1  180.0000771  2.0083200  2
    755    754    761    764     1  0.0000000  1.2552000  3
    755    767    779   1623     1  0.0000000  0.6508444  3
    758    754    755    767     1  180.0000771  2.0083200  2
    758    754    755    767     1  0.0000000  1.2552000  3
    758    754    761    764     1  180.0000771  2.0083200  2
    758    754    761    764     1  0.0000000  1.2552000  3
    758    770    776   1594     1  0.0000000  0.6508444  3
    761    754    755    767     1  180.0000771  2.0083200  2
    761    754    755    767     1  0.0000000  1.2552000  3
    761    754    758    770     1  180.0000771  2.0083200  2
    761    754    758    770     1  0.0000000  1.2552000  3
    761    764    773    782     1  0.0000000  0.6508444  3
    767    779   1623   1614     1  180.0000771  0.4184000  2
    767    779   1623   1614     1  0.0000000  1.6024720  3
    770    776   1594   1585     1  180.0000771  0.4184000  2
    770    776   1594   1585     1  0.0000000  1.6024720  3
    776   1594   1585   1576     1  180.0000771  0.4184000  2
    776   1594   1585   1576     1  0.0000000  1.6024720  3
    779   1623   1614   1605     1  180.0000771  0.4184000  2
    779   1623   1614   1605     1  0.0000000  1.6024720  3
    783    784    796    808     1  0.0000000  0.6508444  3
    783    787    799    805     1  0.0000000  0.6508444  3
    783    790    793    802     1  0.0000000  0.6508444  3
    784    783    787    799     1  180.0000771  2.0083200  2
    784    783    787    799     1  0.0000000  1.2552000  3
    784    783    790    793     1  180.0000771  2.0083200  2
    784    783    790    793     1  0.0000000  1.2552000  3
    784    796    808   1681     1  0.0000000  0.6508444  3
    787    783    784    796     1  180.0000771  2.0083200  2
    787    783    784    796     1  0.0000000  1.2552000  3
    787    783    790    793     1  180.0000771  2.0083200  2
    787    783    790    793     1  0.0000000  1.2552000  3
    787    799    805   1652     1  0.0000000  0.6508444  3
    790    783    784    796     1  180.0000771  2.0083200  2
    790    783    784    796     1  0.0000000  1.2552000  3
    790    783    787    799     1  180.0000771  2.0083200  2
    790    783    787    799     1  0.0000000  1.2552000  3
    790    793    802    811     1  0.0000000  0.6508444  3
    796    808   1681   1672     1  180.0000771  0.4184000  2
    796    808   1681   1672     1  0.0000000  1.6024720  3
    799    805   1652   1643     1  180.0000771  0.4184000  2
    799    805   1652   1643     1  0.0000000  1.6024720  3
    805   1652   1643   1634     1  180.0000771  0.4184000  2
    805   1652   1643   1634     1  0.0000000  1.6024720  3
    808   1681   1672   1663     1  180.0000771  0.4184000  2
    808   1681   1672   1663     1  0.0000000  1.6024720  3
    812    813    825    837     1  0.0000000  0.6508444  3
    812    816    828    834     1  0.0000000  0.6508444  3
    812    819    822    831     1  0.0000000  0.6508444  3
    813    812    816    828     1  180.0000771  2.0083200  2
    813    812    816    828     1  0.0000000  1.2552000  3
    813    812    819    822     1  180.0000771  2.0083200  2
    813    812    819    822     1  0.0000000  1.2552000  3
    813    825    837   1739     1  0.0000000  0.6508444  3
    816    812    813    825     1  180.0000771  2.0083200  2
    816    812    813    825     1  0.0000000  1.2552000  3
    816    812    819    822     1  180.0000771  2.0083200  2
    816    812    819    822     1  0.0000000  1.2552000  3
    816    828    834   1710     1  0.0000000  0.6508444  3
    819    812    813    825     1  180.0000771  2.0083200  2
    819    812    813    825     1  0.0000000  1.2552000  3
    819    812    816    828     1  180.0000771  2.0083200  2
    819    812    816    828     1  0.0000000  1.2552000  3
    819    822    831    840     1  0.0000000  0.6508444  3
    825    837   1739   1730     1  180.0000771  0.4184000  2
    825    837   1739   1730     1  0.0000000  1.6024720  3
    828    834   1710   1701     1  180.0000771  0.4184000  2
    828    834   1710   1701     1  0.0000000  1.6024720  3
    834   1710   1701   1692     1  180.0000771  0.4184000  2
    834   1710   1701   1692     1  0.0000000  1.6024720  3
    837   1739   1730   1721     1  180.0000771  0.4184000  2
    837   1739   1730   1721     1  0.0000000  1.6024720  3
    841    842    854    866     1  0.0000000  0.6508444  3
    841    845    857    863     1  0.0000000  0.6508444  3
    841    848    851    860     1  0.0000000  0.6508444  3
    842    841    845    857     1  180.0000771  2.0083200  2
    842    841    845    857     1  0.0000000  1.2552000  3
    842    841    848    851     1  180.0000771  2.0083200  2
    842    841    848    851     1  0.0000000  1.2552000  3
    842    854    866   1797     1  0.0000000  0.6508444  3
    845    841    842    854     1  180.0000771  2.0083200  2
    845    841    842    854     1  0.0000000  1.2552000  3
    845    841    848    851     1  180.0000771  2.0083200  2
    845    841    848    851     1  0.0000000  1.2552000  3
    845    857    863   1768     1  0.0000000  0.6508444  3
    848    841    842    854     1  180.0000771  2.0083200  2
    848    841    842    854     1  0.0000000  1.2552000  3
    848    841    845    857     1  180.0000771  2.0083200  2
    848    841    845    857     1  0.0000000  1.2552000  3
    848    851    860    869     1  0.0000000  0.6508444  3
    854    866   1797   1788     1  180.0000771  0.4184000  2
    854    866   1797   1788     1  0.0000000  1.6024720  3
    857    863   1768   1759     1  180.0000771  0.4184000  2
    857    863   1768   1759     1  0.0000000  1.6024720  3
    863   1768   1759   1750     1  180.0000771  0.4184000  2
    863   1768   1759   1750     1  0.0000000  1.6024720  3
    866   1797   1788   1779     1  180.0000771  0.4184000  2
    866   1797   1788   1779     1  0.0000000  1.6024720  3
    870    871    883    895     1  0.0000000  0.6508444  3
    870    874    886    892     1  0.0000000  0.6508444  3
    870    877    880    889     1  0.0000000  0.6508444  3
    871    870    874    886     1  180.0000771  2.0083200  2
    871    870    874    886     1  0.0000000  1.2552000  3
    871    870    877    880     1  180.0000771  2.0083200  2
    871    870    877    880     1  0.0000000  1.2552000  3
    871    883    895   1831     1  0.0000000  0.6508444  3
    874    870    871    883     1  180.0000771  2.0083200  2
    874    870    871    883     1  0.0000000  1.2552000  3
    874    870    877    880     1  180.0000771  2.0083200  2
    874    870    877    880     1  0.0000000  1.2552000  3
    874    886    892   1808     1  0.0000000  0.6508444  3
    877    870    871    883     1  180.0000771  2.0083200  2
    877    870    871    883     1  0.0000000  1.2552000  3
    877    870    874    886     1  180.0000771  2.0083200  2
    877    870    874    886     1  0.0000000  1.2552000  3
    877    880    889    898     1  0.0000000  0.6508444  3
    883    895   1831   1827     1  180.0000771  0.4184000  2
    883    895   1831   1827     1  0.0000000  1.6024720  3
    886    892   1808   1804     1  180.0000771  0.4184000  2
    886    892   1808   1804     1  0.0000000  1.6024720  3
    892   1808   1804   1803     1  180.0000771  0.4184000  2
    892   1808   1804   1803     1  0.0000000  1.6024720  3
    892   1808   1804   1820     1  180.0000771  5.6484000  1
    892   1808   1804   1820     1  180.0000771  3.5564000  2
    892   1808   1804   1820     1  0.0000000  0.4184000  3
    895   1831   1827   1843     1  180.0000771  5.6484000  1
    895   1831   1827   1843     1  180.0000771  3.5564000  2
    895   1831   1827   1843     1  0.0000000  0.4184000  3
    895   1831   1827   1826     1  180.0000771  0.4184000  2
    895   1831   1827   1826     1  0.0000000  1.6024720  3
    899    900    912    924     1  0.0000000  0.6508444  3
    899    903    915    921     1  0.0000000  0.6508444  3
    899    906    909    918     1  0.0000000  0.6508444  3
    900    899    903    915     1  180.0000771  2.0083200  2
    900    899    903    915     1  0.0000000  1.2552000  3
    900    899    906    909     1  180.0000771  2.0083200  2
    900    899    906    909     1  0.0000000  1.2552000  3
    900    912    924   1877     1  0.0000000  0.6508444  3
    903    899    900    912     1  180.0000771  2.0083200  2
    903    899    900    912     1  0.0000000  1.2552000  3
    903    899    906    909     1  180.0000771  2.0083200  2
    903    899    906    909     1  0.0000000  1.2552000  3
    903    915    921   1854     1  0.0000000  0.6508444  3
    906    899    900    912     1  180.0000771  2.0083200  2
    906    899    900    912     1  0.0000000  1.2552000  3
    906    899    903    915     1  180.0000771  2.0083200  2
    906    899    903    915     1  0.0000000  1.2552000  3
    906    909    918    927     1  0.0000000  0.6508444  3
    912    924   1877   1873     1  180.0000771  0.4184000  2
    912    924   1877   1873     1  0.0000000  1.6024720  3
    915    921   1854   1850     1  180.0000771  0.4184000  2
    915    921   1854   1850     1  0.0000000  1.6024720  3
    921   1854   1850   1849     1  180.0000771  0.4184000  2
    921   1854   1850   1849     1  0.0000000  1.6024720  3
    921   1854   1850   1866     1  180.0000771  5.6484000  1
    921   1854   1850   1866     1  180.0000771  3.5564000  2
    921   1854   1850   1866     1  0.0000000  0.4184000  3
    924   1877   1873   1889     1  180.0000771  5.6484000  1
    924   1877   1873   1889     1  180.0000771  3.5564000  2
    924   1877   1873   1889     1  0.0000000  0.4184000  3
    924   1877   1873   1872     1  180.0000771  0.4184000  2
    924   1877   1873   1872     1  0.0000000  1.6024720  3
    928    929    941    953     1  0.0000000  0.6508444  3
    928    932    944    950     1  0.0000000  0.6508444  3
    928    935    938    947     1  0.0000000  0.6508444  3
    929    928    932    944     1  180.0000771  2.0083200  2
    929    928    932    944     1  0.0000000  1.2552000  3
    929    928    935    938     1  180.0000771  2.0083200  2
    929    928    935    938     1  0.0000000  1.2552000  3
    929    941    953   1923     1  0.0000000  0.6508444  3
    932    928    929    941     1  180.0000771  2.0083200  2
    932    928    929    941     1  0.0000000  1.2552000  3
    932    928    935    938     1  180.0000771  2.0083200  2
    932    928    935    938     1  0.0000000  1.2552000  3
    932    944    950   1900     1  0.0000000  0.6508444  3
    935    928    929    941     1  180.0000771  2.0083200  2
    935    928    929    941     1  0.0000000  1.2552000  3
    935    928    932    944     1  180.0000771  2.0083200  2
    935    928    932    944     1  0.0000000  1.2552000  3
    935    938    947    956     1  0.0000000  0.6508444  3
    941    953   1923   1919     1  180.0000771  0.4184000  2
    941    953   1923   1919     1  0.0000000  1.6024720  3
    944    950   1900   1896     1  180.0000771  0.4184000  2
    944    950   1900   1896     1  0.0000000  1.6024720  3
    950   1900   1896   1895     1  180.0000771  0.4184000  2
    950   1900   1896   1895     1  0.0000000  1.6024720  3
    950   1900   1896   1912     1  180.0000771  5.6484000  1
    950   1900   1896   1912     1  180.0000771  3.5564000  2
    950   1900   1896   1912     1  0.0000000  0.4184000  3
    953   1923   1919   1935     1  180.0000771  5.6484000  1
    953   1923   1919   1935     1  180.0000771  3.5564000  2
    953   1923   1919   1935     1  0.0000000  0.4184000  3
    953   1923   1919   1918     1  180.0000771  0.4184000  2
    953   1923   1919   1918     1  0.0000000  1.6024720  3
    957    958    970    982     1  0.0000000  0.6508444  3
    957    961    973    979     1  0.0000000  0.6508444  3
    957    964    967    976     1  0.0000000  0.6508444  3
    958    957    961    973     1  180.0000771  2.0083200  2
    958    957    961    973     1  0.0000000  1.2552000  3
    958    957    964    967     1  180.0000771  2.0083200  2
    958    957    964    967     1  0.0000000  1.2552000  3
    958    970    982   1969     1  0.0000000  0.6508444  3
    961    957    958    970     1  180.0000771  2.0083200  2
    961    957    958    970     1  0.0000000  1.2552000  3
    961    957    964    967     1  180.0000771  2.0083200  2
    961    957    964    967     1  0.0000000  1.2552000  3
    961    973    979   1946     1  0.0000000  0.6508444  3
    964    957    958    970     1  180.0000771  2.0083200  2
    964    957    958    970     1  0.0000000  1.2552000  3
    964    957    961    973     1  180.0000771  2.0083200  2
    964    957    961    973     1  0.0000000  1.2552000  3
    964    967    976    985     1  0.0000000  0.6508444  3
    970    982   1969   1965     1  180.0000771  0.4184000  2
    970    982   1969   1965     1  0.0000000  1.6024720  3
    973    979   1946   1942     1  180.0000771  0.4184000  2
    973    979   1946   1942     1  0.0000000  1.6024720  3
    979   1946   1942   1941     1  180.0000771  0.4184000  2
    979   1946   1942   1941     1  0.0000000  1.6024720  3
    979   1946   1942   1958     1  180.0000771  5.6484000  1
    979   1946   1942   1958     1  180.0000771  3.5564000  2
    979   1946   1942   1958     1  0.0000000  0.4184000  3
    982   1969   1965   1981     1  180.0000771  5.6484000  1
    982   1969   1965   1981     1  180.0000771  3.5564000  2
    982   1969   1965   1981     1  0.0000000  0.4184000  3
    982   1969   1965   1964     1  180.0000771  0.4184000  2
    982   1969   1965   1964     1  0.0000000  1.6024720  3
    986    987    999   1011     1  0.0000000  0.6508444  3
    986    990   1002   1008     1  0.0000000  0.6508444  3
    986    993    996   1005     1  0.0000000  0.6508444  3
    987    986    990   1002     1  180.0000771  2.0083200  2
    987    986    990   1002     1  0.0000000  1.2552000  3
    987    986    993    996     1  180.0000771  2.0083200  2
    987    986    993    996     1  0.0000000  1.2552000  3
    987    999   1011   2015     1  0.0000000  0.6508444  3
    990    986    987    999     1  180.0000771  2.0083200  2
    990    986    987    999     1  0.0000000  1.2552000  3
    990    986    993    996     1  180.0000771  2.0083200  2
    990    986    993    996     1  0.0000000  1.2552000  3
    990   1002   1008   1992     1  0.0000000  0.6508444  3
    993    986    987    999     1  180.0000771  2.0083200  2
    993    986    987    999     1  0.0000000  1.2552000  3
    993    986    990   1002     1  180.0000771  2.0083200  2
    993    986    990   1002     1  0.0000000  1.2552000  3
    993    996   1005   1014     1  0.0000000  0.6508444  3
    999   1011   2015   2011     1  180.0000771  0.4184000  2
    999   1011   2015   2011     1  0.0000000  1.6024720  3
   1002   1008   1992   1988     1  180.0000771  0.4184000  2
   1002   1008   1992   1988     1  0.0000000  1.6024720  3
   1008   1992   1988   1987     1  180.0000771  0.4184000  2
   1008   1992   1988   1987     1  0.0000000  1.6024720  3
   1008   1992   1988   2004     1  180.0000771  5.6484000  1
   1008   1992   1988   2004     1  180.0000771  3.5564000  2
   1008   1992   1988   2004     1  0.0000000  0.4184000  3
   1011   2015   2011   2027     1  180.0000771  5.6484000  1
   1011   2015   2011   2027     1  180.0000771  3.5564000  2
   1011   2015   2011   2027     1  0.0000000  0.4184000  3
   1011   2015   2011   2010     1  180.0000771  0.4184000  2
   1011   2015   2011   2010     1  0.0000000  1.6024720  3
   1015   1016   1028   1040     1  0.0000000  0.6508444  3
   1015   1019   1031   1037     1  0.0000000  0.6508444  3
   1015   1022   1025   1034     1  0.0000000  0.6508444  3
   1016   1015   1019   1031     1  180.0000771  2.0083200  2
   1016   1015   1019   1031     1  0.0000000  1.2552000  3
   1016   1015   1022   1025     1  180.0000771  2.0083200  2
   1016   1015   1022   1025     1  0.0000000  1.2552000  3
   1016   1028   1040   2061     1  0.0000000  0.6508444  3
   1019   1015   1016   1028     1  180.0000771  2.0083200  2
   1019   1015   1016   1028     1  0.0000000  1.2552000  3
   1019   1015   1022   1025     1  180.0000771  2.0083200  2
   1019   1015   1022   1025     1  0.0000000  1.2552000  3
   1019   1031   1037   2038     1  0.0000000  0.6508444  3
   1022   1015   1016   1028     1  180.0000771  2.0083200  2
   1022   1015   1016   1028     1  0.0000000  1.2552000  3
   1022   1015   1019   1031     1  180.0000771  2.0083200  2
   1022   1015   1019   1031     1  0.0000000  1.2552000  3
   1022   1025   1034   1043     1  0.0000000  0.6508444  3
   1028   1040   2061   2057     1  180.0000771  0.4184000  2
   1028   1040   2061   2057     1  0.0000000  1.6024720  3
   1031   1037   2038   2034     1  180.0000771  0.4184000  2
   1031   1037   2038   2034     1  0.0000000  1.6024720  3
   1037   2038   2034   2033     1  180.0000771  0.4184000  2
   1037   2038   2034   2033     1  0.0000000  1.6024720  3
   1037   2038   2034   2050     1  180.0000771  5.6484000  1
   1037   2038   2034   2050     1  180.0000771  3.5564000  2
   1037   2038   2034   2050     1  0.0000000  0.4184000  3
   1040   2061   2057   2073     1  180.0000771  5.6484000  1
   1040   2061   2057   2073     1  180.0000771  3.5564000  2
   1040   2061   2057   2073     1  0.0000000  0.4184000  3
   1040   2061   2057   2056     1  180.0000771  0.4184000  2
   1040   2061   2057   2056     1  0.0000000  1.6024720  3
   1044   1045   1057   1069     1  0.0000000  0.6508444  3
   1044   1048   1060   1066     1  0.0000000  0.6508444  3
   1044   1051   1054   1063     1  0.0000000  0.6508444  3
   1045   1044   1048   1060     1  180.0000771  2.0083200  2
   1045   1044   1048   1060     1  0.0000000  1.2552000  3
   1045   1044   1051   1054     1  180.0000771  2.0083200  2
   1045   1044   1051   1054     1  0.0000000  1.2552000  3
   1045   1057   1069   2107     1  0.0000000  0.6508444  3
   1048   1044   1045   1057     1  180.0000771  2.0083200  2
   1048   1044   1045   1057     1  0.0000000  1.2552000  3
   1048   1044   1051   1054     1  180.0000771  2.0083200  2
   1048   1044   1051   1054     1  0.0000000  1.2552000  3
   1048   1060   1066   2084     1  0.0000000  0.6508444  3
   1051   1044   1045   1057     1  180.0000771  2.0083200  2
   1051   1044   1045   1057     1  0.0000000  1.2552000  3
   1051   1044   1048   1060     1  180.0000771  2.0083200  2
   1051   1044   1048   1060     1  0.0000000  1.2552000  3
   1051   1054   1063   1072     1  0.0000000  0.6508444  3
   1057   1069   2107   2103     1  180.0000771  0.4184000  2
   1057   1069   2107   2103     1  0.0000000  1.6024720  3
   1060   1066   2084   2080     1  180.0000771  0.4184000  2
   1060   1066   2084   2080     1  0.0000000  1.6024720  3
   1066   2084   2080   2079     1  180.0000771  0.4184000  2
   1066   2084   2080   2079     1  0.0000000  1.6024720  3
   1066   2084   2080   2096     1  180.0000771  5.6484000  1
   1066   2084   2080   2096     1  180.0000771  3.5564000  2
   1066   2084   2080   2096     1  0.0000000  0.4184000  3
   1069   2107   2103   2119     1  180.0000771  5.6484000  1
   1069   2107   2103   2119     1  180.0000771  3.5564000  2
   1069   2107   2103   2119     1  0.0000000  0.4184000  3
   1069   2107   2103   2102     1  180.0000771  0.4184000  2
   1069   2107   2103   2102     1  0.0000000  1.6024720  3
   1073   1074   1086   1098     1  0.0000000  0.6508444  3
   1073   1077   1089   1095     1  0.0000000  0.6508444  3
   1073   1080   1083   1092     1  0.0000000  0.6508444  3
   1074   1073   1077   1089     1  180.0000771  2.0083200  2
   1074   1073   1077   1089     1  0.0000000  1.2552000  3
   1074   1073   1080   1083     1  180.0000771  2.0083200  2
   1074   1073   1080   1083     1  0.0000000  1.2552000  3
   1074   1086   1098   2153     1  0.0000000  0.6508444  3
   1077   1073   1074   1086     1  180.0000771  2.0083200  2
   1077   1073   1074   1086     1  0.0000000  1.2552000  3
   1077   1073   1080   1083     1  180.0000771  2.0083200  2
   1077   1073   1080   1083     1  0.0000000  1.2552000  3
   1077   1089   1095   2130     1  0.0000000  0.6508444  3
   1080   1073   1074   1086     1  180.0000771  2.0083200  2
   1080   1073   1074   1086     1  0.0000000  1.2552000  3
   1080   1073   1077   1089     1  180.0000771  2.0083200  2
   1080   1073   1077   1089     1  0.0000000  1.2552000  3
   1080   1083   1092   1101     1  0.0000000  0.6508444  3
   1086   1098   2153   2149     1  180.0000771  0.4184000  2
   1086   1098   2153   2149     1  0.0000000  1.6024720  3
   1089   1095   2130   2126     1  180.0000771  0.4184000  2
   1089   1095   2130   2126     1  0.0000000  1.6024720  3
   1095   2130   2126   2125     1  180.0000771  0.4184000  2
   1095   2130   2126   2125     1  0.0000000  1.6024720  3
   1095   2130   2126   2142     1  180.0000771  5.6484000  1
   1095   2130   2126   2142     1  180.0000771  3.5564000  2
   1095   2130   2126   2142     1  0.0000000  0.4184000  3
   1098   2153   2149   2165     1  180.0000771  5.6484000  1
   1098   2153   2149   2165     1  180.0000771  3.5564000  2
   1098   2153   2149   2165     1  0.0000000  0.4184000  3
   1098   2153   2149   2148     1  180.0000771  0.4184000  2
   1098   2153   2149   2148     1  0.0000000  1.6024720  3
   1102   1103   1115   1127     1  0.0000000  0.6508444  3
   1102   1106   1118   1124     1  0.0000000  0.6508444  3
   1102   1109   1112   1121     1  0.0000000  0.6508444  3
   1103   1102   1106   1118     1  180.0000771  2.0083200  2
   1103   1102   1106   1118     1  0.0000000  1.2552000  3
   1103   1102   1109   1112     1  180.0000771  2.0083200  2
   1103   1102   1109   1112     1  0.0000000  1.2552000  3
   1103   1115   1127   2199     1  0.0000000  0.6508444  3
   1106   1102   1103   1115     1  180.0000771  2.0083200  2
   1106   1102   1103   1115     1  0.0000000  1.2552000  3
   1106   1102   1109   1112     1  180.0000771  2.0083200  2
   1106   1102   1109   1112     1  0.0000000  1.2552000  3
   1106   1118   1124   2176     1  0.0000000  0.6508444  3
   1109   1102   1103   1115     1  180.0000771  2.0083200  2
   1109   1102   1103   1115     1  0.0000000  1.2552000  3
   1109   1102   1106   1118     1  180.0000771  2.0083200  2
   1109   1102   1106   1118     1  0.0000000  1.2552000  3
   1109   1112   1121   1130     1  0.0000000  0.6508444  3
   1115   1127   2199   2195     1  180.0000771  0.4184000  2
   1115   1127   2199   2195     1  0.0000000  1.6024720  3
   1118   1124   2176   2172     1  180.0000771  0.4184000  2
   1118   1124   2176   2172     1  0.0000000  1.6024720  3
   1124   2176   2172   2171     1  180.0000771  0.4184000  2
   1124   2176   2172   2171     1  0.0000000  1.6024720  3
   1124   2176   2172   2188     1  180.0000771  5.6484000  1
   1124   2176   2172   2188     1  180.0000771  3.5564000  2
   1124   2176   2172   2188     1  0.0000000  0.4184000  3
   1127   2199   2195   2211     1  180.0000771  5.6484000  1
   1127   2199   2195   2211     1  180.0000771  3.5564000  2
   1127   2199   2195   2211     1  0.0000000  0.4184000  3
   1127   2199   2195   2194     1  180.0000771  0.4184000  2
   1127   2199   2195   2194     1  0.0000000  1.6024720  3
   1131   1132   1144   1156     1  0.0000000  0.6508444  3
   1131   1135   1147   1153     1  0.0000000  0.6508444  3
   1131   1138   1141   1150     1  0.0000000  0.6508444  3
   1132   1131   1135   1147     1  180.0000771  2.0083200  2
   1132   1131   1135   1147     1  0.0000000  1.2552000  3
   1132   1131   1138   1141     1  180.0000771  2.0083200  2
   1132   1131   1138   1141     1  0.0000000  1.2552000  3
   1132   1144   1156   2245     1  0.0000000  0.6508444  3
   1135   1131   1132   1144     1  180.0000771  2.0083200  2
   1135   1131   1132   1144     1  0.0000000  1.2552000  3
   1135   1131   1138   1141     1  180.0000771  2.0083200  2
   1135   1131   1138   1141     1  0.0000000  1.2552000  3
   1135   1147   1153   2222     1  0.0000000  0.6508444  3
   1138   1131   1132   1144     1  180.0000771  2.0083200  2
   1138   1131   1132   1144     1  0.0000000  1.2552000  3
   1138   1131   1135   1147     1  180.0000771  2.0083200  2
   1138   1131   1135   1147     1  0.0000000  1.2552000  3
   1138   1141   1150   1159     1  0.0000000  0.6508444  3
   1144   1156   2245   2241     1  180.0000771  0.4184000  2
   1144   1156   2245   2241     1  0.0000000  1.6024720  3
   1147   1153   2222   2218     1  180.0000771  0.4184000  2
   1147   1153   2222   2218     1  0.0000000  1.6024720  3
   1153   2222   2218   2217     1  180.0000771  0.4184000  2
   1153   2222   2218   2217     1  0.0000000  1.6024720  3
   1153   2222   2218   2234     1  180.0000771  5.6484000  1
   1153   2222   2218   2234     1  180.0000771  3.5564000  2
   1153   2222   2218   2234     1  0.0000000  0.4184000  3
   1156   2245   2241   2257     1  180.0000771  5.6484000  1
   1156   2245   2241   2257     1  180.0000771  3.5564000  2
   1156   2245   2241   2257     1  0.0000000  0.4184000  3
   1156   2245   2241   2240     1  180.0000771  0.4184000  2
   1156   2245   2241   2240     1  0.0000000  1.6024720  3
   1160   1161   1173   1185     1  0.0000000  0.6508444  3
   1160   1164   1176   1182     1  0.0000000  0.6508444  3
   1160   1167   1170   1179     1  0.0000000  0.6508444  3
   1161   1160   1164   1176     1  180.0000771  2.0083200  2
   1161   1160   1164   1176     1  0.0000000  1.2552000  3
   1161   1160   1167   1170     1  180.0000771  2.0083200  2
   1161   1160   1167   1170     1  0.0000000  1.2552000  3
   1161   1173   1185   2291     1  0.0000000  0.6508444  3
   1164   1160   1161   1173     1  180.0000771  2.0083200  2
   1164   1160   1161   1173     1  0.0000000  1.2552000  3
   1164   1160   1167   1170     1  180.0000771  2.0083200  2
   1164   1160   1167   1170     1  0.0000000  1.2552000  3
   1164   1176   1182   2268     1  0.0000000  0.6508444  3
   1167   1160   1161   1173     1  180.0000771  2.0083200  2
   1167   1160   1161   1173     1  0.0000000  1.2552000  3
   1167   1160   1164   1176     1  180.0000771  2.0083200  2
   1167   1160   1164   1176     1  0.0000000  1.2552000  3
   1167   1170   1179   1188     1  0.0000000  0.6508444  3
   1173   1185   2291   2287     1  180.0000771  0.4184000  2
   1173   1185   2291   2287     1  0.0000000  1.6024720  3
   1176   1182   2268   2264     1  180.0000771  0.4184000  2
   1176   1182   2268   2264     1  0.0000000  1.6024720  3
   1182   2268   2264   2263     1  180.0000771  0.4184000  2
   1182   2268   2264   2263     1  0.0000000  1.6024720  3
   1182   2268   2264   2280     1  180.0000771  5.6484000  1
   1182   2268   2264   2280     1  180.0000771  3.5564000  2
   1182   2268   2264   2280     1  0.0000000  0.4184000  3
   1185   2291   2287   2303     1  180.0000771  5.6484000  1
   1185   2291   2287   2303     1  180.0000771  3.5564000  2
   1185   2291   2287   2303     1  0.0000000  0.4184000  3
   1185   2291   2287   2286     1  180.0000771  0.4184000  2
   1185   2291   2287   2286     1  0.0000000  1.6024720  3
   1189   1190   1202   1214     1  0.0000000  0.6508444  3
   1189   1193   1205   1211     1  0.0000000  0.6508444  3
   1189   1196   1199   1208     1  0.0000000  0.6508444  3
   1190   1189   1193   1205     1  180.0000771  2.0083200  2
   1190   1189   1193   1205     1  0.0000000  1.2552000  3
   1190   1189   1196   1199     1  180.0000771  2.0083200  2
   1190   1189   1196   1199     1  0.0000000  1.2552000  3
   1190   1202   1214   2337     1  0.0000000  0.6508444  3
   1193   1189   1190   1202     1  180.0000771  2.0083200  2
   1193   1189   1190   1202     1  0.0000000  1.2552000  3
   1193   1189   1196   1199     1  180.0000771  2.0083200  2
   1193   1189   1196   1199     1  0.0000000  1.2552000  3
   1193   1205   1211   2314     1  0.0000000  0.6508444  3
   1196   1189   1190   1202     1  180.0000771  2.0083200  2
   1196   1189   1190   1202     1  0.0000000  1.2552000  3
   1196   1189   1193   1205     1  180.0000771  2.0083200  2
   1196   1189   1193   1205     1  0.0000000  1.2552000  3
   1196   1199   1208   1217     1  0.0000000  0.6508444  3
   1202   1214   2337   2333     1  180.0000771  0.4184000  2
   1202   1214   2337   2333     1  0.0000000  1.6024720  3
   1205   1211   2314   2310     1  180.0000771  0.4184000  2
   1205   1211   2314   2310     1  0.0000000  1.6024720  3
   1211   2314   2310   2309     1  180.0000771  0.4184000  2
   1211   2314   2310   2309     1  0.0000000  1.6024720  3
   1211   2314   2310   2326     1  180.0000771  5.6484000  1
   1211   2314   2310   2326     1  180.0000771  3.5564000  2
   1211   2314   2310   2326     1  0.0000000  0.4184000  3
   1214   2337   2333   2349     1  180.0000771  5.6484000  1
   1214   2337   2333   2349     1  180.0000771  3.5564000  2
   1214   2337   2333   2349     1  0.0000000  0.4184000  3
   1214   2337   2333   2332     1  180.0000771  0.4184000  2
   1214   2337   2333   2332     1  0.0000000  1.6024720  3
   1218   1219   1231   1243     1  0.0000000  0.6508444  3
   1218   1222   1234   1240     1  0.0000000  0.6508444  3
   1218   1225   1228   1237     1  0.0000000  0.6508444  3
   1219   1218   1222   1234     1  180.0000771  2.0083200  2
   1219   1218   1222   1234     1  0.0000000  1.2552000  3
   1219   1218   1225   1228     1  180.0000771  2.0083200  2
   1219   1218   1225   1228     1  0.0000000  1.2552000  3
   1219   1231   1243   2383     1  0.0000000  0.6508444  3
   1222   1218   1219   1231     1  180.0000771  2.0083200  2
   1222   1218   1219   1231     1  0.0000000  1.2552000  3
   1222   1218   1225   1228     1  180.0000771  2.0083200  2
   1222   1218   1225   1228     1  0.0000000  1.2552000  3
   1222   1234   1240   2360     1  0.0000000  0.6508444  3
   1225   1218   1219   1231     1  180.0000771  2.0083200  2
   1225   1218   1219   1231     1  0.0000000  1.2552000  3
   1225   1218   1222   1234     1  180.0000771  2.0083200  2
   1225   1218   1222   1234     1  0.0000000  1.2552000  3
   1225   1228   1237   1246     1  0.0000000  0.6508444  3
   1231   1243   2383   2379     1  180.0000771  0.4184000  2
   1231   1243   2383   2379     1  0.0000000  1.6024720  3
   1234   1240   2360   2356     1  180.0000771  0.4184000  2
   1234   1240   2360   2356     1  0.0000000  1.6024720  3
   1240   2360   2356   2355     1  180.0000771  0.4184000  2
   1240   2360   2356   2355     1  0.0000000  1.6024720  3
   1240   2360   2356   2372     1  180.0000771  5.6484000  1
   1240   2360   2356   2372     1  180.0000771  3.5564000  2
   1240   2360   2356   2372     1  0.0000000  0.4184000  3
   1243   2383   2379   2395     1  180.0000771  5.6484000  1
   1243   2383   2379   2395     1  180.0000771  3.5564000  2
   1243   2383   2379   2395     1  0.0000000  0.4184000  3
   1243   2383   2379   2378     1  180.0000771  0.4184000  2
   1243   2383   2379   2378     1  0.0000000  1.6024720  3
   1247   1248   1260   1272     1  0.0000000  0.6508444  3
   1247   1251   1263   1269     1  0.0000000  0.6508444  3
   1247   1254   1257   1266     1  0.0000000  0.6508444  3
   1248   1247   1251   1263     1  180.0000771  2.0083200  2
   1248   1247   1251   1263     1  0.0000000  1.2552000  3
   1248   1247   1254   1257     1  180.0000771  2.0083200  2
   1248   1247   1254   1257     1  0.0000000  1.2552000  3
   1248   1260   1272   2429     1  0.0000000  0.6508444  3
   1251   1247   1248   1260     1  180.0000771  2.0083200  2
   1251   1247   1248   1260     1  0.0000000  1.2552000  3
   1251   1247   1254   1257     1  180.0000771  2.0083200  2
   1251   1247   1254   1257     1  0.0000000  1.2552000  3
   1251   1263   1269   2406     1  0.0000000  0.6508444  3
   1254   1247   1248   1260     1  180.0000771  2.0083200  2
   1254   1247   1248   1260     1  0.0000000  1.2552000  3
   1254   1247   1251   1263     1  180.0000771  2.0083200  2
   1254   1247   1251   1263     1  0.0000000  1.2552000  3
   1254   1257   1266   1275     1  0.0000000  0.6508444  3
   1260   1272   2429   2425     1  180.0000771  0.4184000  2
   1260   1272   2429   2425     1  0.0000000  1.6024720  3
   1263   1269   2406   2402     1  180.0000771  0.4184000  2
   1263   1269   2406   2402     1  0.0000000  1.6024720  3
   1269   2406   2402   2401     1  180.0000771  0.4184000  2
   1269   2406   2402   2401     1  0.0000000  1.6024720  3
   1269   2406   2402   2418     1  180.0000771  5.6484000  1
   1269   2406   2402   2418     1  180.0000771  3.5564000  2
   1269   2406   2402   2418     1  0.0000000  0.4184000  3
   1272   2429   2425   2441     1  180.0000771  5.6484000  1
   1272   2429   2425   2441     1  180.0000771  3.5564000  2
   1272   2429   2425   2441     1  0.0000000  0.4184000  3
   1272   2429   2425   2424     1  180.0000771  0.4184000  2
   1272   2429   2425   2424     1  0.0000000  1.6024720  3
   1276   1277   1289   1301     1  0.0000000  0.6508444  3
   1276   1280   1292   1298     1  0.0000000  0.6508444  3
   1276   1283   1286   1295     1  0.0000000  0.6508444  3
   1277   1276   1280   1292     1  180.0000771  2.0083200  2
   1277   1276   1280   1292     1  0.0000000  1.2552000  3
   1277   1276   1283   1286     1  180.0000771  2.0083200  2
   1277   1276   1283   1286     1  0.0000000  1.2552000  3
   1277   1289   1301   2475     1  0.0000000  0.6508444  3
   1280   1276   1277   1289     1  180.0000771  2.0083200  2
   1280   1276   1277   1289     1  0.0000000  1.2552000  3
   1280   1276   1283   1286     1  180.0000771  2.0083200  2
   1280   1276   1283   1286     1  0.0000000  1.2552000  3
   1280   1292   1298   2452     1  0.0000000  0.6508444  3
   1283   1276   1277   1289     1  180.0000771  2.0083200  2
   1283   1276   1277   1289     1  0.0000000  1.2552000  3
   1283   1276   1280   1292     1  180.0000771  2.0083200  2
   1283   1276   1280   1292     1  0.0000000  1.2552000  3
   1283   1286   1295   1304     1  0.0000000  0.6508444  3
   1289   1301   2475   2471     1  180.0000771  0.4184000  2
   1289   1301   2475   2471     1  0.0000000  1.6024720  3
   1292   1298   2452   2448     1  180.0000771  0.4184000  2
   1292   1298   2452   2448     1  0.0000000  1.6024720  3
   1298   2452   2448   2447     1  180.0000771  0.4184000  2
   1298   2452   2448   2447     1  0.0000000  1.6024720  3
   1298   2452   2448   2464     1  180.0000771  5.6484000  1
   1298   2452   2448   2464     1  180.0000771  3.5564000  2
   1298   2452   2448   2464     1  0.0000000  0.4184000  3
   1301   2475   2471   2487     1  180.0000771  5.6484000  1
   1301   2475   2471   2487     1  180.0000771  3.5564000  2
   1301   2475   2471   2487     1  0.0000000  0.4184000  3
   1301   2475   2471   2470     1  180.0000771  0.4184000  2
   1301   2475   2471   2470     1  0.0000000  1.6024720  3
   1305   1306   1318   1330     1  0.0000000  0.6508444  3
   1305   1309   1321   1327     1  0.0000000  0.6508444  3
   1305   1312   1315   1324     1  0.0000000  0.6508444  3
   1306   1305   1309   1321     1  180.0000771  2.0083200  2
   1306   1305   1309   1321     1  0.0000000  1.2552000  3
   1306   1305   1312   1315     1  180.0000771  2.0083200  2
   1306   1305   1312   1315     1  0.0000000  1.2552000  3
   1306   1318   1330   2521     1  0.0000000  0.6508444  3
   1309   1305   1306   1318     1  180.0000771  2.0083200  2
   1309   1305   1306   1318     1  0.0000000  1.2552000  3
   1309   1305   1312   1315     1  180.0000771  2.0083200  2
   1309   1305   1312   1315     1  0.0000000  1.2552000  3
   1309   1321   1327   2498     1  0.0000000  0.6508444  3
   1312   1305   1306   1318     1  180.0000771  2.0083200  2
   1312   1305   1306   1318     1  0.0000000  1.2552000  3
   1312   1305   1309   1321     1  180.0000771  2.0083200  2
   1312   1305   1309   1321     1  0.0000000  1.2552000  3
   1312   1315   1324   1333     1  0.0000000  0.6508444  3
   1318   1330   2521   2517     1  180.0000771  0.4184000  2
   1318   1330   2521   2517     1  0.0000000  1.6024720  3
   1321   1327   2498   2494     1  180.0000771  0.4184000  2
   1321   1327   2498   2494     1  0.0000000  1.6024720  3
   1327   2498   2494   2493     1  180.0000771  0.4184000  2
   1327   2498   2494   2493     1  0.0000000  1.6024720  3
   1327   2498   2494   2510     1  180.0000771  5.6484000  1
   1327   2498   2494   2510     1  180.0000771  3.5564000  2
   1327   2498   2494   2510     1  0.0000000  0.4184000  3
   1330   2521   2517   2533     1  180.0000771  5.6484000  1
   1330   2521   2517   2533     1  180.0000771  3.5564000  2
   1330   2521   2517   2533     1  0.0000000  0.4184000  3
   1330   2521   2517   2516     1  180.0000771  0.4184000  2
   1330   2521   2517   2516     1  0.0000000  1.6024720  3
   1334   1335   1347   1359     1  0.0000000  0.6508444  3
   1334   1338   1350   1356     1  0.0000000  0.6508444  3
   1334   1341   1344   1353     1  0.0000000  0.6508444  3
   1335   1334   1338   1350     1  180.0000771  2.0083200  2
   1335   1334   1338   1350     1  0.0000000  1.2552000  3
   1335   1334   1341   1344     1  180.0000771  2.0083200  2
   1335   1334   1341   1344     1  0.0000000  1.2552000  3
   1335   1347   1359   2567     1  0.0000000  0.6508444  3
   1338   1334   1335   1347     1  180.0000771  2.0083200  2
   1338   1334   1335   1347     1  0.0000000  1.2552000  3
   1338   1334   1341   1344     1  180.0000771  2.0083200  2
   1338   1334   1341   1344     1  0.0000000  1.2552000  3
   1338   1350   1356   2544     1  0.0000000  0.6508444  3
   1341   1334   1335   1347     1  180.0000771  2.0083200  2
   1341   1334   1335   1347     1  0.0000000  1.2552000  3
   1341   1334   1338   1350     1  180.0000771  2.0083200  2
   1341   1334   1338   1350     1  0.0000000  1.2552000  3
   1341   1344   1353   1362     1  0.0000000  0.6508444  3
   1347   1359   2567   2563     1  180.0000771  0.4184000  2
   1347   1359   2567   2563     1  0.0000000  1.6024720  3
   1350   1356   2544   2540     1  180.0000771  0.4184000  2
   1350   1356   2544   2540     1  0.0000000  1.6024720  3
   1356   2544   2540   2539     1  180.0000771  0.4184000  2
   1356   2544   2540   2539     1  0.0000000  1.6024720  3
   1356   2544   2540   2556     1  180.0000771  5.6484000  1
   1356   2544   2540   2556     1  180.0000771  3.5564000  2
   1356   2544   2540   2556     1  0.0000000  0.4184000  3
   1359   2567   2563   2579     1  180.0000771  5.6484000  1
   1359   2567   2563   2579     1  180.0000771  3.5564000  2
   1359   2567   2563   2579     1  0.0000000  0.4184000  3
   1359   2567   2563   2562     1  180.0000771  0.4184000  2
   1359   2567   2563   2562     1  0.0000000  1.6024720  3
   1363   1364   1376   1388     1  0.0000000  0.6508444  3
   1363   1367   1379   1385     1  0.0000000  0.6508444  3
   1363   1370   1373   1382     1  0.0000000  0.6508444  3
   1364   1363   1367   1379     1  180.0000771  2.0083200  2
   1364   1363   1367   1379     1  0.0000000  1.2552000  3
   1364   1363   1370   1373     1  180.0000771  2.0083200  2
   1364   1363   1370   1373     1  0.0000000  1.2552000  3
   1364   1376   1388   2613     1  0.0000000  0.6508444  3
   1367   1363   1364   1376     1  180.0000771  2.0083200  2
   1367   1363   1364   1376     1  0.0000000  1.2552000  3
   1367   1363   1370   1373     1  180.0000771  2.0083200  2
   1367   1363   1370   1373     1  0.0000000  1.2552000  3
   1367   1379   1385   2590     1  0.0000000  0.6508444  3
   1370   1363   1364   1376     1  180.0000771  2.0083200  2
   1370   1363   1364   1376     1  0.0000000  1.2552000  3
   1370   1363   1367   1379     1  180.0000771  2.0083200  2
   1370   1363   1367   1379     1  0.0000000  1.2552000  3
   1370   1373   1382   1391     1  0.0000000  0.6508444  3
   1376   1388   2613   2609     1  180.0000771  0.4184000  2
   1376   1388   2613   2609     1  0.0000000  1.6024720  3
   1379   1385   2590   2586     1  180.0000771  0.4184000  2
   1379   1385   2590   2586     1  0.0000000  1.6024720  3
   1385   2590   2586   2585     1  180.0000771  0.4184000  2
   1385   2590   2586   2585     1  0.0000000  1.6024720  3
   1385   2590   2586   2602     1  180.0000771  5.6484000  1
   1385   2590   2586   2602     1  180.0000771  3.5564000  2
   1385   2590   2586   2602     1  0.0000000  0.4184000  3
   1388   2613   2609   2625     1  180.0000771  5.6484000  1
   1388   2613   2609   2625     1  180.0000771  3.5564000  2
   1388   2613   2609   2625     1  0.0000000  0.4184000  3
   1388   2613   2609   2608     1  180.0000771  0.4184000  2
   1388   2613   2609   2608     1  0.0000000  1.6024720  3
   1392   1393   1405   1417     1  0.0000000  0.6508444  3
   1392   1396   1408   1414     1  0.0000000  0.6508444  3
   1392   1399   1402   1411     1  0.0000000  0.6508444  3
   1393   1392   1396   1408     1  180.0000771  2.0083200  2
   1393   1392   1396   1408     1  0.0000000  1.2552000  3
   1393   1392   1399   1402     1  180.0000771  2.0083200  2
   1393   1392   1399   1402     1  0.0000000  1.2552000  3
   1393   1405   1417   2659     1  0.0000000  0.6508444  3
   1396   1392   1393   1405     1  180.0000771  2.0083200  2
   1396   1392   1393   1405     1  0.0000000  1.2552000  3
   1396   1392   1399   1402     1  180.0000771  2.0083200  2
   1396   1392   1399   1402     1  0.0000000  1.2552000  3
   1396   1408   1414   2636     1  0.0000000  0.6508444  3
   1399   1392   1393   1405     1  180.0000771  2.0083200  2
   1399   1392   1393   1405     1  0.0000000  1.2552000  3
   1399   1392   1396   1408     1  180.0000771  2.0083200  2
   1399   1392   1396   1408     1  0.0000000  1.2552000  3
   1399   1402   1411   1420     1  0.0000000  0.6508444  3
   1405   1417   2659   2655     1  180.0000771  0.4184000  2
   1405   1417   2659   2655     1  0.0000000  1.6024720  3
   1408   1414   2636   2632     1  180.0000771  0.4184000  2
   1408   1414   2636   2632     1  0.0000000  1.6024720  3
   1414   2636   2632   2631     1  180.0000771  0.4184000  2
   1414   2636   2632   2631     1  0.0000000  1.6024720  3
   1414   2636   2632   2648     1  180.0000771  5.6484000  1
   1414   2636   2632   2648     1  180.0000771  3.5564000  2
   1414   2636   2632   2648     1  0.0000000  0.4184000  3
   1417   2659   2655   2671     1  180.0000771  5.6484000  1
   1417   2659   2655   2671     1  180.0000771  3.5564000  2
   1417   2659   2655   2671     1  0.0000000  0.4184000  3
   1417   2659   2655   2654     1  180.0000771  0.4184000  2
   1417   2659   2655   2654     1  0.0000000  1.6024720  3
   1421   1422   1434   1446     1  0.0000000  0.6508444  3
   1421   1425   1437   1443     1  0.0000000  0.6508444  3
   1421   1428   1431   1440     1  0.0000000  0.6508444  3
   1422   1421   1425   1437     1  180.0000771  2.0083200  2
   1422   1421   1425   1437     1  0.0000000  1.2552000  3
   1422   1421   1428   1431     1  180.0000771  2.0083200  2
   1422   1421   1428   1431     1  0.0000000  1.2552000  3
   1422   1434   1446   2705     1  0.0000000  0.6508444  3
   1425   1421   1422   1434     1  180.0000771  2.0083200  2
   1425   1421   1422   1434     1  0.0000000  1.2552000  3
   1425   1421   1428   1431     1  180.0000771  2.0083200  2
   1425   1421   1428   1431     1  0.0000000  1.2552000  3
   1425   1437   1443   2682     1  0.0000000  0.6508444  3
   1428   1421   1422   1434     1  180.0000771  2.0083200  2
   1428   1421   1422   1434     1  0.0000000  1.2552000  3
   1428   1421   1425   1437     1  180.0000771  2.0083200  2
   1428   1421   1425   1437     1  0.0000000  1.2552000  3
   1428   1431   1440   1449     1  0.0000000  0.6508444  3
   1434   1446   2705   2701     1  180.0000771  0.4184000  2
   1434   1446   2705   2701     1  0.0000000  1.6024720  3
   1437   1443   2682   2678     1  180.0000771  0.4184000  2
   1437   1443   2682   2678     1  0.0000000  1.6024720  3
   1443   2682   2678   2677     1  180.0000771  0.4184000  2
   1443   2682   2678   2677     1  0.0000000  1.6024720  3
   1443   2682   2678   2694     1  180.0000771  5.6484000  1
   1443   2682   2678   2694     1  180.0000771  3.5564000  2
   1443   2682   2678   2694     1  0.0000000  0.4184000  3
   1446   2705   2701   2717     1  180.0000771  5.6484000  1
   1446   2705   2701   2717     1  180.0000771  3.5564000  2
   1446   2705   2701   2717     1  0.0000000  0.4184000  3
   1446   2705   2701   2700     1  180.0000771  0.4184000  2
   1446   2705   2701   2700     1  0.0000000  1.6024720  3
   1450   1451   1463   1475     1  0.0000000  0.6508444  3
   1450   1454   1466   1472     1  0.0000000  0.6508444  3
   1450   1457   1460   1469     1  0.0000000  0.6508444  3
   1451   1450   1454   1466     1  180.0000771  2.0083200  2
   1451   1450   1454   1466     1  0.0000000  1.2552000  3
   1451   1450   1457   1460     1  180.0000771  2.0083200  2
   1451   1450   1457   1460     1  0.0000000  1.2552000  3
   1451   1463   1475   2751     1  0.0000000  0.6508444  3
   1454   1450   1451   1463     1  180.0000771  2.0083200  2
   1454   1450   1451   1463     1  0.0000000  1.2552000  3
   1454   1450   1457   1460     1  180.0000771  2.0083200  2
   1454   1450   1457   1460     1  0.0000000  1.2552000  3
   1454   1466   1472   2728     1  0.0000000  0.6508444  3
   1457   1450   1451   1463     1  180.0000771  2.0083200  2
   1457   1450   1451   1463     1  0.0000000  1.2552000  3
   1457   1450   1454   1466     1  180.0000771  2.0083200  2
   1457   1450   1454   1466     1  0.0000000  1.2552000  3
   1457   1460   1469   1478     1  0.0000000  0.6508444  3
   1463   1475   2751   2747     1  180.0000771  0.4184000  2
   1463   1475   2751   2747     1  0.0000000  1.6024720  3
   1466   1472   2728   2724     1  180.0000771  0.4184000  2
   1466   1472   2728   2724     1  0.0000000  1.6024720  3
   1472   2728   2724   2723     1  180.0000771  0.4184000  2
   1472   2728   2724   2723     1  0.0000000  1.6024720  3
   1472   2728   2724   2740     1  180.0000771  5.6484000  1
   1472   2728   2724   2740     1  180.0000771  3.5564000  2
   1472   2728   2724   2740     1  0.0000000  0.4184000  3
   1475   2751   2747   2763     1  180.0000771  5.6484000  1
   1475   2751   2747   2763     1  180.0000771  3.5564000  2
   1475   2751   2747   2763     1  0.0000000  0.4184000  3
   1475   2751   2747   2746     1  180.0000771  0.4184000  2
   1475   2751   2747   2746     1  0.0000000  1.6024720  3
   1479   1480   1492   1504     1  0.0000000  0.6508444  3
   1479   1483   1495   1501     1  0.0000000  0.6508444  3
   1479   1486   1489   1498     1  0.0000000  0.6508444  3
   1480   1479   1483   1495     1  180.0000771  2.0083200  2
   1480   1479   1483   1495     1  0.0000000  1.2552000  3
   1480   1479   1486   1489     1  180.0000771  2.0083200  2
   1480   1479   1486   1489     1  0.0000000  1.2552000  3
   1480   1492   1504   2797     1  0.0000000  0.6508444  3
   1483   1479   1480   1492     1  180.0000771  2.0083200  2
   1483   1479   1480   1492     1  0.0000000  1.2552000  3
   1483   1479   1486   1489     1  180.0000771  2.0083200  2
   1483   1479   1486   1489     1  0.0000000  1.2552000  3
   1483   1495   1501   2774     1  0.0000000  0.6508444  3
   1486   1479   1480   1492     1  180.0000771  2.0083200  2
   1486   1479   1480   1492     1  0.0000000  1.2552000  3
   1486   1479   1483   1495     1  180.0000771  2.0083200  2
   1486   1479   1483   1495     1  0.0000000  1.2552000  3
   1486   1489   1498   1507     1  0.0000000  0.6508444  3
   1492   1504   2797   2793     1  180.0000771  0.4184000  2
   1492   1504   2797   2793     1  0.0000000  1.6024720  3
   1495   1501   2774   2770     1  180.0000771  0.4184000  2
   1495   1501   2774   2770     1  0.0000000  1.6024720  3
   1501   2774   2770   2769     1  180.0000771  0.4184000  2
   1501   2774   2770   2769     1  0.0000000  1.6024720  3
   1501   2774   2770   2786     1  180.0000771  5.6484000  1
   1501   2774   2770   2786     1  180.0000771  3.5564000  2
   1501   2774   2770   2786     1  0.0000000  0.4184000  3
   1504   2797   2793   2809     1  180.0000771  5.6484000  1
   1504   2797   2793   2809     1  180.0000771  3.5564000  2
   1504   2797   2793   2809     1  0.0000000  0.4184000  3
   1504   2797   2793   2792     1  180.0000771  0.4184000  2
   1504   2797   2793   2792     1  0.0000000  1.6024720  3
   1508   1509   1521   1533     1  0.0000000  0.6508444  3
   1508   1512   1524   1530     1  0.0000000  0.6508444  3
   1508   1515   1518   1527     1  0.0000000  0.6508444  3
   1509   1508   1512   1524     1  180.0000771  2.0083200  2
   1509   1508   1512   1524     1  0.0000000  1.2552000  3
   1509   1508   1515   1518     1  180.0000771  2.0083200  2
   1509   1508   1515   1518     1  0.0000000  1.2552000  3
   1509   1521   1533   2843     1  0.0000000  0.6508444  3
   1512   1508   1509   1521     1  180.0000771  2.0083200  2
   1512   1508   1509   1521     1  0.0000000  1.2552000  3
   1512   1508   1515   1518     1  180.0000771  2.0083200  2
   1512   1508   1515   1518     1  0.0000000  1.2552000  3
   1512   1524   1530   2820     1  0.0000000  0.6508444  3
   1515   1508   1509   1521     1  180.0000771  2.0083200  2
   1515   1508   1509   1521     1  0.0000000  1.2552000  3
   1515   1508   1512   1524     1  180.0000771  2.0083200  2
   1515   1508   1512   1524     1  0.0000000  1.2552000  3
   1515   1518   1527   1536     1  0.0000000  0.6508444  3
   1521   1533   2843   2839     1  180.0000771  0.4184000  2
   1521   1533   2843   2839     1  0.0000000  1.6024720  3
   1524   1530   2820   2816     1  180.0000771  0.4184000  2
   1524   1530   2820   2816     1  0.0000000  1.6024720  3
   1530   2820   2816   2815     1  180.0000771  0.4184000  2
   1530   2820   2816   2815     1  0.0000000  1.6024720  3
   1530   2820   2816   2832     1  180.0000771  5.6484000  1
   1530   2820   2816   2832     1  180.0000771  3.5564000  2
   1530   2820   2816   2832     1  0.0000000  0.4184000  3
   1533   2843   2839   2855     1  180.0000771  5.6484000  1
   1533   2843   2839   2855     1  180.0000771  3.5564000  2
   1533   2843   2839   2855     1  0.0000000  0.4184000  3
   1533   2843   2839   2838     1  180.0000771  0.4184000  2
   1533   2843   2839   2838     1  0.0000000  1.6024720  3
   1537   1538   1550   1562     1  0.0000000  0.6508444  3
   1537   1541   1553   1559     1  0.0000000  0.6508444  3
   1537   1544   1547   1556     1  0.0000000  0.6508444  3
   1538   1537   1541   1553     1  180.0000771  2.0083200  2
   1538   1537   1541   1553     1  0.0000000  1.2552000  3
   1538   1537   1544   1547     1  180.0000771  2.0083200  2
   1538   1537   1544   1547     1  0.0000000  1.2552000  3
   1538   1550   1562   2889     1  0.0000000  0.6508444  3
   1541   1537   1538   1550     1  180.0000771  2.0083200  2
   1541   1537   1538   1550     1  0.0000000  1.2552000  3
   1541   1537   1544   1547     1  180.0000771  2.0083200  2
   1541   1537   1544   1547     1  0.0000000  1.2552000  3
   1541   1553   1559   2866     1  0.0000000  0.6508444  3
   1544   1537   1538   1550     1  180.0000771  2.0083200  2
   1544   1537   1538   1550     1  0.0000000  1.2552000  3
   1544   1537   1541   1553     1  180.0000771  2.0083200  2
   1544   1537   1541   1553     1  0.0000000  1.2552000  3
   1544   1547   1556   1565     1  0.0000000  0.6508444  3
   1550   1562   2889   2885     1  180.0000771  0.4184000  2
   1550   1562   2889   2885     1  0.0000000  1.6024720  3
   1553   1559   2866   2862     1  180.0000771  0.4184000  2
   1553   1559   2866   2862     1  0.0000000  1.6024720  3
   1559   2866   2862   2861     1  180.0000771  0.4184000  2
   1559   2866   2862   2861     1  0.0000000  1.6024720  3
   1559   2866   2862   2878     1  180.0000771  5.6484000  1
   1559   2866   2862   2878     1  180.0000771  3.5564000  2
   1559   2866   2862   2878     1  0.0000000  0.4184000  3
   1562   2889   2885   2901     1  180.0000771  5.6484000  1
   1562   2889   2885   2901     1  180.0000771  3.5564000  2
   1562   2889   2885   2901     1  0.0000000  0.4184000  3
   1562   2889   2885   2884     1  180.0000771  0.4184000  2
   1562   2889   2885   2884     1  0.0000000  1.6024720  3
   1566   1567   1579   1591     1  0.0000000  0.6508444  3
   1566   1570   1582   1588     1  0.0000000  0.6508444  3
   1566   1573   1576   1585     1  0.0000000  0.6508444  3
   1567   1566   1570   1582     1  180.0000771  2.0083200  2
   1567   1566   1570   1582     1  0.0000000  1.2552000  3
   1567   1566   1573   1576     1  180.0000771  2.0083200  2
   1567   1566   1573   1576     1  0.0000000  1.2552000  3
   1567   1579   1591   2935     1  0.0000000  0.6508444  3
   1570   1566   1567   1579     1  180.0000771  2.0083200  2
   1570   1566   1567   1579     1  0.0000000  1.2552000  3
   1570   1566   1573   1576     1  180.0000771  2.0083200  2
   1570   1566   1573   1576     1  0.0000000  1.2552000  3
   1570   1582   1588   2912     1  0.0000000  0.6508444  3
   1573   1566   1567   1579     1  180.0000771  2.0083200  2
   1573   1566   1567   1579     1  0.0000000  1.2552000  3
   1573   1566   1570   1582     1  180.0000771  2.0083200  2
   1573   1566   1570   1582     1  0.0000000  1.2552000  3
   1573   1576   1585   1594     1  0.0000000  0.6508444  3
   1579   1591   2935   2931     1  180.0000771  0.4184000  2
   1579   1591   2935   2931     1  0.0000000  1.6024720  3
   1582   1588   2912   2908     1  180.0000771  0.4184000  2
   1582   1588   2912   2908     1  0.0000000  1.6024720  3
   1588   2912   2908   2907     1  180.0000771  0.4184000  2
   1588   2912   2908   2907     1  0.0000000  1.6024720  3
   1588   2912   2908   2924     1  180.0000771  5.6484000  1
   1588   2912   2908   2924     1  180.0000771  3.5564000  2
   1588   2912   2908   2924     1  0.0000000  0.4184000  3
   1591   2935   2931   2947     1  180.0000771  5.6484000  1
   1591   2935   2931   2947     1  180.0000771  3.5564000  2
   1591   2935   2931   2947     1  0.0000000  0.4184000  3
   1591   2935   2931   2930     1  180.0000771  0.4184000  2
   1591   2935   2931   2930     1  0.0000000  1.6024720  3
   1595   1596   1608   1620     1  0.0000000  0.6508444  3
   1595   1599   1611   1617     1  0.0000000  0.6508444  3
   1595   1602   1605   1614     1  0.0000000  0.6508444  3
   1596   1595   1599   1611     1  180.0000771  2.0083200  2
   1596   1595   1599   1611     1  0.0000000  1.2552000  3
   1596   1595   1602   1605     1  180.0000771  2.0083200  2
   1596   1595   1602   1605     1  0.0000000  1.2552000  3
   1596   1608   1620   2981     1  0.0000000  0.6508444  3
   1599   1595   1596   1608     1  180.0000771  2.0083200  2
   1599   1595   1596   1608     1  0.0000000  1.2552000  3
   1599   1595   1602   1605     1  180.0000771  2.0083200  2
   1599   1595   1602   1605     1  0.0000000  1.2552000  3
   1599   1611   1617   2958     1  0.0000000  0.6508444  3
   1602   1595   1596   1608     1  180.0000771  2.0083200  2
   1602   1595   1596   1608     1  0.0000000  1.2552000  3
   1602   1595   1599   1611     1  180.0000771  2.0083200  2
   1602   1595   1599   1611     1  0.0000000  1.2552000  3
   1602   1605   1614   1623     1  0.0000000  0.6508444  3
   1608   1620   2981   2977     1  180.0000771  0.4184000  2
   1608   1620   2981   2977     1  0.0000000  1.6024720  3
   1611   1617   2958   2954     1  180.0000771  0.4184000  2
   1611   1617   2958   2954     1  0.0000000  1.6024720  3
   1617   2958   2954   2953     1  180.0000771  0.4184000  2
   1617   2958   2954   2953     1  0.0000000  1.6024720  3
   1617   2958   2954   2970     1  180.0000771  5.6484000  1
   1617   2958   2954   2970     1  180.0000771  3.5564000  2
   1617   2958   2954   2970     1  0.0000000  0.4184000  3
   1620   2981   2977   2993     1  180.0000771  5.6484000  1
   1620   2981   2977   2993     1  180.0000771  3.5564000  2
   1620   2981   2977   2993     1  0.0000000  0.4184000  3
   1620   2981   2977   2976     1  180.0000771  0.4184000  2
   1620   2981   2977   2976     1  0.0000000  1.6024720  3
   1624   1625   1637   1649     1  0.0000000  0.6508444  3
   1624   1628   1640   1646     1  0.0000000  0.6508444  3
   1624   1631   1634   1643     1  0.0000000  0.6508444  3
   1625   1624   1628   1640     1  180.0000771  2.0083200  2
   1625   1624   1628   1640     1  0.0000000  1.2552000  3
   1625   1624   1631   1634     1  180.0000771  2.0083200  2
   1625   1624   1631   1634     1  0.0000000  1.2552000  3
   1625   1637   1649   3027     1  0.0000000  0.6508444  3
   1628   1624   1625   1637     1  180.0000771  2.0083200  2
   1628   1624   1625   1637     1  0.0000000  1.2552000  3
   1628   1624   1631   1634     1  180.0000771  2.0083200  2
   1628   1624   1631   1634     1  0.0000000  1.2552000  3
   1628   1640   1646   3004     1  0.0000000  0.6508444  3
   1631   1624   1625   1637     1  180.0000771  2.0083200  2
   1631   1624   1625   1637     1  0.0000000  1.2552000  3
   1631   1624   1628   1640     1  180.0000771  2.0083200  2
   1631   1624   1628   1640     1  0.0000000  1.2552000  3
   1631   1634   1643   1652     1  0.0000000  0.6508444  3
   1637   1649   3027   3023     1  180.0000771  0.4184000  2
   1637   1649   3027   3023     1  0.0000000  1.6024720  3
   1640   1646   3004   3000     1  180.0000771  0.4184000  2
   1640   1646   3004   3000     1  0.0000000  1.6024720  3
   1646   3004   3000   2999     1  180.0000771  0.4184000  2
   1646   3004   3000   2999     1  0.0000000  1.6024720  3
   1646   3004   3000   3016     1  180.0000771  5.6484000  1
   1646   3004   3000   3016     1  180.0000771  3.5564000  2
   1646   3004   3000   3016     1  0.0000000  0.4184000  3
   1649   3027   3023   3039     1  180.0000771  5.6484000  1
   1649   3027   3023   3039     1  180.0000771  3.5564000  2
   1649   3027   3023   3039     1  0.0000000  0.4184000  3
   1649   3027   3023   3022     1  180.0000771  0.4184000  2
   1649   3027   3023   3022     1  0.0000000  1.6024720  3
   1653   1654   1666   1678     1  0.0000000  0.6508444  3
   1653   1657   1669   1675     1  0.0000000  0.6508444  3
   1653   1660   1663   1672     1  0.0000000  0.6508444  3
   1654   1653   1657   1669     1  180.0000771  2.0083200  2
   1654   1653   1657   1669     1  0.0000000  1.2552000  3
   1654   1653   1660   1663     1  180.0000771  2.0083200  2
   1654   1653   1660   1663     1  0.0000000  1.2552000  3
   1654   1666   1678   3073     1  0.0000000  0.6508444  3
   1657   1653   1654   1666     1  180.0000771  2.0083200  2
   1657   1653   1654   1666     1  0.0000000  1.2552000  3
   1657   1653   1660   1663     1  180.0000771  2.0083200  2
   1657   1653   1660   1663     1  0.0000000  1.2552000  3
   1657   1669   1675   3050     1  0.0000000  0.6508444  3
   1660   1653   1654   1666     1  180.0000771  2.0083200  2
   1660   1653   1654   1666     1  0.0000000  1.2552000  3
   1660   1653   1657   1669     1  180.0000771  2.0083200  2
   1660   1653   1657   1669     1  0.0000000  1.2552000  3
   1660   1663   1672   1681     1  0.0000000  0.6508444  3
   1666   1678   3073   3069     1  180.0000771  0.4184000  2
   1666   1678   3073   3069     1  0.0000000  1.6024720  3
   1669   1675   3050   3046     1  180.0000771  0.4184000  2
   1669   1675   3050   3046     1  0.0000000  1.6024720  3
   1675   3050   3046   3045     1  180.0000771  0.4184000  2
   1675   3050   3046   3045     1  0.0000000  1.6024720  3
   1675   3050   3046   3062     1  180.0000771  5.6484000  1
   1675   3050   3046   3062     1  180.0000771  3.5564000  2
   1675   3050   3046   3062     1  0.0000000  0.4184000  3
   1678   3073   3069   3085     1  180.0000771  5.6484000  1
   1678   3073   3069   3085     1  180.0000771  3.5564000  2
   1678   3073   3069   3085     1  0.0000000  0.4184000  3
   1678   3073   3069   3068     1  180.0000771  0.4184000  2
   1678   3073   3069   3068     1  0.0000000  1.6024720  3
   1682   1683   1695   1707     1  0.0000000  0.6508444  3
   1682   1686   1698   1704     1  0.0000000  0.6508444  3
   1682   1689   1692   1701     1  0.0000000  0.6508444  3
   1683   1682   1686   1698     1  180.0000771  2.0083200  2
   1683   1682   1686   1698     1  0.0000000  1.2552000  3
   1683   1682   1689   1692     1  180.0000771  2.0083200  2
   1683   1682   1689   1692     1  0.0000000  1.2552000  3
   1683   1695   1707   3119     1  0.0000000  0.6508444  3
   1686   1682   1683   1695     1  180.0000771  2.0083200  2
   1686   1682   1683   1695     1  0.0000000  1.2552000  3
   1686   1682   1689   1692     1  180.0000771  2.0083200  2
   1686   1682   1689   1692     1  0.0000000  1.2552000  3
   1686   1698   1704   3096     1  0.0000000  0.6508444  3
   1689   1682   1683   1695     1  180.0000771  2.0083200  2
   1689   1682   1683   1695     1  0.0000000  1.2552000  3
   1689   1682   1686   1698     1  180.0000771  2.0083200  2
   1689   1682   1686   1698     1  0.0000000  1.2552000  3
   1689   1692   1701   1710     1  0.0000000  0.6508444  3
   1695   1707   3119   3115     1  180.0000771  0.4184000  2
   1695   1707   3119   3115     1  0.0000000  1.6024720  3
   1698   1704   3096   3092     1  180.0000771  0.4184000  2
   1698   1704   3096   3092     1  0.0000000  1.6024720  3
   1704   3096   3092   3091     1  180.0000771  0.4184000  2
   1704   3096   3092   3091     1  0.0000000  1.6024720  3
   1704   3096   3092   3108     1  180.0000771  5.6484000  1
   1704   3096   3092   3108     1  180.0000771  3.5564000  2
   1704   3096   3092   3108     1  0.0000000  0.4184000  3
   1707   3119   3115   3131     1  180.0000771  5.6484000  1
   1707   3119   3115   3131     1  180.0000771  3.5564000  2
   1707   3119   3115   3131     1  0.0000000  0.4184000  3
   1707   3119   3115   3114     1  180.0000771  0.4184000  2
   1707   3119   3115   3114     1  0.0000000  1.6024720  3
   1711   1712   1724   1736     1  0.0000000  0.6508444  3
   1711   1715   1727   1733     1  0.0000000  0.6508444  3
   1711   1718   1721   1730     1  0.0000000  0.6508444  3
   1712   1711   1715   1727     1  180.0000771  2.0083200  2
   1712   1711   1715   1727     1  0.0000000  1.2552000  3
   1712   1711   1718   1721     1  180.0000771  2.0083200  2
   1712   1711   1718   1721     1  0.0000000  1.2552000  3
   1712   1724   1736   3165     1  0.0000000  0.6508444  3
   1715   1711   1712   1724     1  180.0000771  2.0083200  2
   1715   1711   1712   1724     1  0.0000000  1.2552000  3
   1715   1711   1718   1721     1  180.0000771  2.0083200  2
   1715   1711   1718   1721     1  0.0000000  1.2552000  3
   1715   1727   1733   3142     1  0.0000000  0.6508444  3
   1718   1711   1712   1724     1  180.0000771  2.0083200  2
   1718   1711   1712   1724     1  0.0000000  1.2552000  3
   1718   1711   1715   1727     1  180.0000771  2.0083200  2
   1718   1711   1715   1727     1  0.0000000  1.2552000  3
   1718   1721   1730   1739     1  0.0000000  0.6508444  3
   1724   1736   3165   3161     1  180.0000771  0.4184000  2
   1724   1736   3165   3161     1  0.0000000  1.6024720  3
   1727   1733   3142   3138     1  180.0000771  0.4184000  2
   1727   1733   3142   3138     1  0.0000000  1.6024720  3
   1733   3142   3138   3137     1  180.0000771  0.4184000  2
   1733   3142   3138   3137     1  0.0000000  1.6024720  3
   1733   3142   3138   3154     1  180.0000771  5.6484000  1
   1733   3142   3138   3154     1  180.0000771  3.5564000  2
   1733   3142   3138   3154     1  0.0000000  0.4184000  3
   1736   3165   3161   3177     1  180.0000771  5.6484000  1
   1736   3165   3161   3177     1  180.0000771  3.5564000  2
   1736   3165   3161   3177     1  0.0000000  0.4184000  3
   1736   3165   3161   3160     1  180.0000771  0.4184000  2
   1736   3165   3161   3160     1  0.0000000  1.6024720  3
   1740   1741   1753   1765     1  0.0000000  0.6508444  3
   1740   1744   1756   1762     1  0.0000000  0.6508444  3
   1740   1747   1750   1759     1  0.0000000  0.6508444  3
   1741   1740   1744   1756     1  180.0000771  2.0083200  2
   1741   1740   1744   1756     1  0.0000000  1.2552000  3
   1741   1740   1747   1750     1  180.0000771  2.0083200  2
   1741   1740   1747   1750     1  0.0000000  1.2552000  3
   1741   1753   1765   3211     1  0.0000000  0.6508444  3
   1744   1740   1741   1753     1  180.0000771  2.0083200  2
   1744   1740   1741   1753     1  0.0000000  1.2552000  3
   1744   1740   1747   1750     1  180.0000771  2.0083200  2
   1744   1740   1747   1750     1  0.0000000  1.2552000  3
   1744   1756   1762   3188     1  0.0000000  0.6508444  3
   1747   1740   1741   1753     1  180.0000771  2.0083200  2
   1747   1740   1741   1753     1  0.0000000  1.2552000  3
   1747   1740   1744   1756     1  180.0000771  2.0083200  2
   1747   1740   1744   1756     1  0.0000000  1.2552000  3
   1747   1750   1759   1768     1  0.0000000  0.6508444  3
   1753   1765   3211   3207     1  180.0000771  0.4184000  2
   1753   1765   3211   3207     1  0.0000000  1.6024720  3
   1756   1762   3188   3184     1  180.0000771  0.4184000  2
   1756   1762   3188   3184     1  0.0000000  1.6024720  3
   1762   3188   3184   3183     1  180.0000771  0.4184000  2
   1762   3188   3184   3183     1  0.0000000  1.6024720  3
   1762   3188   3184   3200     1  180.0000771  5.6484000  1
   1762   3188   3184   3200     1  180.0000771  3.5564000  2
   1762   3188   3184   3200     1  0.0000000  0.4184000  3
   1765   3211   3207   3223     1  180.0000771  5.6484000  1
   1765   3211   3207   3223     1  180.0000771  3.5564000  2
   1765   3211   3207   3223     1  0.0000000  0.4184000  3
   1765   3211   3207   3206     1  180.0000771  0.4184000  2
   1765   3211   3207   3206     1  0.0000000  1.6024720  3
   1769   1770   1782   1794     1  0.0000000  0.6508444  3
   1769   1773   1785   1791     1  0.0000000  0.6508444  3
   1769   1776   1779   1788     1  0.0000000  0.6508444  3
   1770   1769   1773   1785     1  180.0000771  2.0083200  2
   1770   1769   1773   1785     1  0.0000000  1.2552000  3
   1770   1769   1776   1779     1  180.0000771  2.0083200  2
   1770   1769   1776   1779     1  0.0000000  1.2552000  3
   1770   1782   1794   3257     1  0.0000000  0.6508444  3
   1773   1769   1770   1782     1  180.0000771  2.0083200  2
   1773   1769   1770   1782     1  0.0000000  1.2552000  3
   1773   1769   1776   1779     1  180.0000771  2.0083200  2
   1773   1769   1776   1779     1  0.0000000  1.2552000  3
   1773   1785   1791   3234     1  0.0000000  0.6508444  3
   1776   1769   1770   1782     1  180.0000771  2.0083200  2
   1776   1769   1770   1782     1  0.0000000  1.2552000  3
   1776   1769   1773   1785     1  180.0000771  2.0083200  2
   1776   1769   1773   1785     1  0.0000000  1.2552000  3
   1776   1779   1788   1797     1  0.0000000  0.6508444  3
   1782   1794   3257   3253     1  180.0000771  0.4184000  2
   1782   1794   3257   3253     1  0.0000000  1.6024720  3
   1785   1791   3234   3230     1  180.0000771  0.4184000  2
   1785   1791   3234   3230     1  0.0000000  1.6024720  3
   1791   3234   3230   3229     1  180.0000771  0.4184000  2
   1791   3234   3230   3229     1  0.0000000  1.6024720  3
   1791   3234   3230   3246     1  180.0000771  5.6484000  1
   1791   3234   3230   3246     1  180.0000771  3.5564000  2
   1791   3234   3230   3246     1  0.0000000  0.4184000  3
   1794   3257   3253   3269     1  180.0000771  5.6484000  1
   1794   3257   3253   3269     1  180.0000771  3.5564000  2
   1794   3257   3253   3269     1  0.0000000  0.4184000  3
   1794   3257   3253   3252     1  180.0000771  0.4184000  2
   1794   3257   3253   3252     1  0.0000000  1.6024720  3
   1798   1799   1802   1803     1  180.0000771  0.8368000  1
   1798   1799   1802   1803     1  180.0000771  1.0460000  2
   1798   1799   1802   1803     1  0.0000000  0.7531200  3
   1798   1799   1802   1810     1  0.0000000  0.6508444  3
   1798   1820   1804   1803     1  180.0000771  0.4184000  2
   1798   1820   1804   1803     1  0.0000000  1.6024720  3
   1798   1820   1804   1808     1  180.0000771  5.6484000  1
   1798   1820   1804   1808     1  180.0000771  3.5564000  2
   1798   1820   1804   1808     1  0.0000000  0.4184000  3
   1799   1798   1812   1818     1  0.0000000  0.6508444  3
   1799   1798   1820   1804     1  180.0000771  0.4184000  2
   1799   1798   1820   1804     1  0.0000000  1.6024720  3
   1799   1802   1803   1804     1  180.0000771  0.8368000  1
   1799   1802   1803   1804     1  180.0000771  1.0460000  2
   1799   1802   1803   1804     1  0.0000000  0.7531200  3
   1799   1802   1803   1809     1  0.0000000  0.6508444  3
   1802   1799   1798   1812     1  180.0000771  0.8368000  1
   1802   1799   1798   1812     1  180.0000771  1.0460000  2
   1802   1799   1798   1812     1  0.0000000  0.7531200  3
   1802   1799   1798   1820     1  0.0000000  0.6508444  3
   1802   1803   1804   1808     1  0.0000000  0.6508444  3
   1802   1803   1804   1820     1  0.0000000  0.6508444  3
   1803   1802   1799   1811     1  0.0000000  0.6508444  3
   1804   1803   1802   1810     1  0.0000000  0.6508444  3
   1804   1820   1798   1812     1  180.0000771  0.4184000  2
   1804   1820   1798   1812     1  0.0000000  1.6024720  3
   1808   1804   1803   1809     1  0.0000000  4.9162000  2
   1808   1804   1803   1809     1  0.0000000  0.6024960  3
   1809   1803   1802   1810     1  0.0000000  4.9162000  2
   1809   1803   1802   1810     1  0.0000000  0.6024960  3
   1809   1803   1804   1820     1  0.0000000  4.9162000  2
   1809   1803   1804   1820     1  0.0000000  0.6024960  3
   1810   1802   1799   1811     1  0.0000000  4.9162000  2
   1810   1802   1799   1811     1  0.0000000  0.6024960  3
   1811   1799   1798   1812     1  0.0000000  0.6508444  3
   1811   1799   1798   1820     1  0.0000000  4.9162000  2
   1811   1799   1798   1820     1  0.0000000  0.6024960  3
   1818   1812   1798   1820     1  0.0000000  4.9162000  2
   1818   1812   1798   1820     1  0.0000000  0.6024960  3
   1821   1822   1825   1826     1  180.0000771  0.8368000  1
   1821   1822   1825   1826     1  180.0000771  1.0460000  2
   1821   1822   1825   1826     1  0.0000000  0.7531200  3
   1821   1822   1825   1833     1  0.0000000  0.6508444  3
   1821   1843   1827   1831     1  180.0000771  5.6484000  1
   1821   1843   1827   1831     1  180.0000771  3.5564000  2
   1821   1843   1827   1831     1  0.0000000  0.4184000  3
   1821   1843   1827   1826     1  180.0000771  0.4184000  2
   1821   1843   1827   1826     1  0.0000000  1.6024720  3
   1822   1825   1826   1827     1  180.0000771  0.8368000  1
   1822   1825   1826   1827     1  180.0000771  1.0460000  2
   1822   1825   1826   1827     1  0.0000000  0.7531200  3
   1822   1825   1826   1832     1  0.0000000  0.6508444  3
   1822   1821   1835   1841     1  0.0000000  0.6508444  3
   1822   1821   1843   1827     1  180.0000771  0.4184000  2
   1822   1821   1843   1827     1  0.0000000  1.6024720  3
   1825   1826   1827   1831     1  0.0000000  0.6508444  3
   1825   1826   1827   1843     1  0.0000000  0.6508444  3
   1825   1822   1821   1835     1  180.0000771  0.8368000  1
   1825   1822   1821   1835     1  180.0000771  1.0460000  2
   1825   1822   1821   1835     1  0.0000000  0.7531200  3
   1825   1822   1821   1843     1  0.0000000  0.6508444  3
   1826   1825   1822   1834     1  0.0000000  0.6508444  3
   1827   1843   1821   1835     1  180.0000771  0.4184000  2
   1827   1843   1821   1835     1  0.0000000  1.6024720  3
   1827   1826   1825   1833     1  0.0000000  0.6508444  3
   1831   1827   1826   1832     1  0.0000000  4.9162000  2
   1831   1827   1826   1832     1  0.0000000  0.6024960  3
   1832   1826   1827   1843     1  0.0000000  4.9162000  2
   1832   1826   1827   1843     1  0.0000000  0.6024960  3
   1832   1826   1825   1833     1  0.0000000  4.9162000  2
   1832   1826   1825   1833     1  0.0000000  0.6024960  3
   1833   1825   1822   1834     1  0.0000000  4.9162000  2
   1833   1825   1822   1834     1  0.0000000  0.6024960  3
   1834   1822   1821   1835     1  0.0000000  0.6508444  3
   1834   1822   1821   1843     1  0.0000000  4.9162000  2
   1834   1822   1821   1843     1  0.0000000  0.6024960  3
   1841   1835   1821   1843     1  0.0000000  4.9162000  2
   1841   1835   1821   1843     1  0.0000000  0.6024960  3
   1844   1845   1848   1849     1  180.0000771  0.8368000  1
   1844   1845   1848   1849     1  180.0000771  1.0460000  2
   1844   1845   1848   1849     1  0.0000000  0.7531200  3
   1844   1845   1848   1856     1  0.0000000  0.6508444  3
   1844   1866   1850   1849     1  180.0000771  0.4184000  2
   1844   1866   1850   1849     1  0.0000000  1.6024720  3
   1844   1866   1850   1854     1  180.0000771  5.6484000  1
   1844   1866   1850   1854     1  180.0000771  3.5564000  2
   1844   1866   1850   1854     1  0.0000000  0.4184000  3
   1845   1844   1858   1864     1  0.0000000  0.6508444  3
   1845   1844   1866   1850     1  180.0000771  0.4184000  2
   1845   1844   1866   1850     1  0.0000000  1.6024720  3
   1845   1848   1849   1850     1  180.0000771  0.8368000  1
   1845   1848   1849   1850     1  180.0000771  1.0460000  2
   1845   1848   1849   1850     1  0.0000000  0.7531200  3
   1845   1848   1849   1855     1  0.0000000  0.6508444  3
   1848   1845   1844   1858     1  180.0000771  0.8368000  1
   1848   1845   1844   1858     1  180.0000771  1.0460000  2
   1848   1845   1844   1858     1  0.0000000  0.7531200  3
   1848   1845   1844   1866     1  0.0000000  0.6508444  3
   1848   1849   1850   1854     1  0.0000000  0.6508444  3
   1848   1849   1850   1866     1  0.0000000  0.6508444  3
   1849   1848   1845   1857     1  0.0000000  0.6508444  3
   1850   1849   1848   1856     1  0.0000000  0.6508444  3
   1850   1866   1844   1858     1  180.0000771  0.4184000  2
   1850   1866   1844   1858     1  0.0000000  1.6024720  3
   1854   1850   1849   1855     1  0.0000000  4.9162000  2
   1854   1850   1849   1855     1  0.0000000  0.6024960  3
   1855   1849   1848   1856     1  0.0000000  4.9162000  2
   1855   1849   1848   1856     1  0.0000000  0.6024960  3
   1855   1849   1850   1866     1  0.0000000  4.9162000  2
   1855   1849   1850   1866     1  0.0000000  0.6024960  3
   1856   1848   1845   1857     1  0.0000000  4.9162000  2
   1856   1848   1845   1857     1  0.0000000  0.6024960  3
   1857   1845   1844   1858     1  0.0000000  0.6508444  3
   1857   1845   1844   1866     1  0.0000000  4.9162000  2
   1857   1845   1844   1866     1  0.0000000  0.6024960  3
   1864   1858   1844   1866     1  0.0000000  4.9162000  2
   1864   1858   1844   1866     1  0.0000000  0.6024960  3
   1867   1868   1871   1872     1  180.0000771  0.8368000  1
   1867   1868   1871   1872     1  180.0000771  1.0460000  2
   1867   1868   1871   1872     1  0.0000000  0.7531200  3
   1867   1868   1871   1879     1  0.0000000  0.6508444  3
   1867   1889   1873   1877     1  180.0000771  5.6484000  1
   1867   1889   1873   1877     1  180.0000771  3.5564000  2
   1867   1889   1873   1877     1  0.0000000  0.4184000  3
   1867   1889   1873   1872     1  180.0000771  0.4184000  2
   1867   1889   1873   1872     1  0.0000000  1.6024720  3
   1868   1871   1872   1873     1  180.0000771  0.8368000  1
   1868   1871   1872   1873     1  180.0000771  1.0460000  2
   1868   1871   1872   1873     1  0.0000000  0.7531200  3
   1868   1871   1872   1878     1  0.0000000  0.6508444  3
   1868   1867   1881   1887     1  0.0000000  0.6508444  3
   1868   1867   1889   1873     1  180.0000771  0.4184000  2
   1868   1867   1889   1873     1  0.0000000  1.6024720  3
   1871   1872   1873   1877     1  0.0000000  0.6508444  3
   1871   1872   1873   1889     1  0.0000000  0.6508444  3
   1871   1868   1867   1881     1  180.0000771  0.8368000  1
   1871   1868   1867   1881     1  180.0000771  1.0460000  2
   1871   1868   1867   1881     1  0.0000000  0.7531200  3
   1871   1868   1867   1889     1  0.0000000  0.6508444  3
   1872   1871   1868   1880     1  0.0000000  0.6508444  3
   1873   1889   1867   1881     1  180.0000771  0.4184000  2
   1873   1889   1867   1881     1  0.0000000  1.6024720  3
   1873   1872   1871   1879     1  0.0000000  0.6508444  3
   1877   1873   1872   1878     1  0.0000000  4.9162000  2
   1877   1873   1872   1878     1  0.0000000  0.6024960  3
   1878   1872   1873   1889     1  0.0000000  4.9162000  2
   1878   1872   1873   1889     1  0.0000000  0.6024960  3
   1878   1872   1871   1879     1  0.0000000  4.9162000  2
   1878   1872   1871   1879     1  0.0000000  0.6024960  3
   1879   1871   1868   1880     1  0.0000000  4.9162000  2
   1879   1871   1868   1880     1  0.0000000  0.6024960  3
   1880   1868   1867   1881     1  0.0000000  0.6508444  3
   1880   1868   1867   1889     1  0.0000000  4.9162000  2
   1880   1868   1867   1889     1  0.0000000  0.6024960  3
   1887   1881   1867   1889     1  0.0000000  4.9162000  2
   1887   1881   1867   1889     1  0.0000000  0.6024960  3
   1890   1891   1894   1895     1  180.0000771  0.8368000  1
   1890   1891   1894   1895     1  180.0000771  1.0460000  2
   1890   1891   1894   1895     1  0.0000000  0.7531200  3
   1890   1891   1894   1902     1  0.0000000  0.6508444  3
   1890   1912   1896   1895     1  180.0000771  0.4184000  2
   1890   1912   1896   1895     1  0.0000000  1.6024720  3
   1890   1912   1896   1900     1  180.0000771  5.6484000  1
   1890   1912   1896   1900     1  180.0000771  3.5564000  2
   1890   1912   1896   1900     1  0.0000000  0.4184000  3
   1891   1890   1904   1910     1  0.0000000  0.6508444  3
   1891   1890   1912   1896     1  180.0000771  0.4184000  2
   1891   1890   1912   1896     1  0.0000000  1.6024720  3
   1891   1894   1895   1896     1  180.0000771  0.8368000  1
   1891   1894   1895   1896     1  180.0000771  1.0460000  2
   1891   1894   1895   1896     1  0.0000000  0.7531200  3
   1891   1894   1895   1901     1  0.0000000  0.6508444  3
   1894   1891   1890   1904     1  180.0000771  0.8368000  1
   1894   1891   1890   1904     1  180.0000771  1.0460000  2
   1894   1891   1890   1904     1  0.0000000  0.7531200  3
   1894   1891   1890   1912     1  0.0000000  0.6508444  3
   1894   1895   1896   1900     1  0.0000000  0.6508444  3
   1894   1895   1896   1912     1  0.0000000  0.6508444  3
   1895   1894   1891   1903     1  0.0000000  0.6508444  3
   1896   1895   1894   1902     1  0.0000000  0.6508444  3
   1896   1912   1890   1904     1  180.0000771  0.4184000  2
   1896   1912   1890   1904     1  0.0000000  1.6024720  3
   1900   1896   1895   1901     1  0.0000000  4.9162000  2
   1900   1896   1895   1901     1  0.0000000  0.6024960  3
   1901   1895   1894   1902     1  0.0000000  4.9162000  2
   1901   1895   1894   1902     1  0.0000000  0.6024960  3
   1901   1895   1896   1912     1  0.0000000  4.9162000  2
   1901   1895   1896   1912     1  0.0000000  0.6024960  3
   1902   1894   1891   1903     1  0.0000000  4.9162000  2
   1902   1894   1891   1903     1  0.0000000  0.6024960  3
   1903   1891   1890   1904     1  0.0000000  0.6508444  3
   1903   1891   1890   1912     1  0.0000000  4.9162000  2
   1903   1891   1890   1912     1  0.0000000  0.6024960  3
   1910   1904   1890   1912     1  0.0000000  4.9162000  2
   1910   1904   1890   1912     1  0.0000000  0.6024960  3
   1913   1914   1917   1918     1  180.0000771  0.8368000  1
   1913   1914   1917   1918     1  180.0000771  1.0460000  2
   1913   1914   1917   1918     1  0.0000000  0.7531200  3
   1913   1914   1917   1925     1  0.0000000  0.6508444  3
   1913   1935   1919   1923     1  180.0000771  5.6484000  1
   1913   1935   1919   1923     1  180.0000771  3.5564000  2
   1913   1935   1919   1923     1  0.0000000  0.4184000  3
   1913   1935   1919   1918     1  180.0000771  0.4184000  2
   1913   1935   1919   1918     1  0.0000000  1.6024720  3
   1914   1917   1918   1919     1  180.0000771  0.8368000  1
   1914   1917   1918   1919     1  180.0000771  1.0460000  2
   1914   1917   1918   1919     1  0.0000000  0.7531200  3
   1914   1917   1918   1924     1  0.0000000  0.6508444  3
   1914   1913   1927   1933     1  0.0000000  0.6508444  3
   1914   1913   1935   1919     1  180.0000771  0.4184000  2
   1914   1913   1935   1919     1  0.0000000  1.6024720  3
   1917   1918   1919   1923     1  0.0000000  0.6508444  3
   1917   1918   1919   1935     1  0.0000000  0.6508444  3
   1917   1914   1913   1927     1  180.0000771  0.8368000  1
   1917   1914   1913   1927     1  180.0000771  1.0460000  2
   1917   1914   1913   1927     1  0.0000000  0.7531200  3
   1917   1914   1913   1935     1  0.0000000  0.6508444  3
   1918   1917   1914   1926     1  0.0000000  0.6508444  3
   1919   1935   1913   1927     1  180.0000771  0.4184000  2
   1919   1935   1913   1927     1  0.0000000  1.6024720  3
   1919   1918   1917   1925     1  0.0000000  0.6508444  3
   1923   1919   1918   1924     1  0.0000000  4.9162000  2
   1923   1919   1918   1924     1  0.0000000  0.6024960  3
   1924   1918   1919   1935     1  0.0000000  4.9162000  2
   1924   1918   1919   1935     1  0.0000000  0.6024960  3
   1924   1918   1917   1925     1  0.0000000  4.9162000  2
   1924   1918   1917   1925     1  0.0000000  0.6024960  3
   1925   1917   1914   1926     1  0.0000000  4.9162000  2
   1925   1917   1914   1926     1  0.0000000  0.6024960  3
   1926   1914   1913   1927     1  0.0000000  0.6508444  3
   1926   1914   1913   1935     1  0.0000000  4.9162000  2
   1926   1914   1913   1935     1  0.0000000  0.6024960  3
   1933   1927   1913   1935     1  0.0000000  4.9162000  2
   1933   1927   1913   1935     1  0.0000000  0.6024960  3
   1936   1937   1940   1941     1  180.0000771  0.8368000  1
   1936   1937   1940   1941     1  180.0000771  1.0460000  2
   1936   1937   1940   1941     1  0.0000000  0.7531200  3
   1936   1937   1940   1948     1  0.0000000  0.6508444  3
   1936   1958   1942   1941     1  180.0000771  0.4184000  2
   1936   1958   1942   1941     1  0.0000000  1.6024720  3
   1936   1958   1942   1946     1  180.0000771  5.6484000  1
   1936   1958   1942   1946     1  180.0000771  3.5564000  2
   1936   1958   1942   1946     1  0.0000000  0.4184000  3
   1937   1936   1950   1956     1  0.0000000  0.6508444  3
   1937   1936   1958   1942     1  180.0000771  0.4184000  2
   1937   1936   1958   1942     1  0.0000000  1.6024720  3
   1937   1940   1941   1942     1  180.0000771  0.8368000  1
   1937   1940   1941   1942     1  180.0000771  1.0460000  2
   1937   1940   1941   1942     1  0.0000000  0.7531200  3
   1937   1940   1941   1947     1  0.0000000  0.6508444  3
   1940   1937   1936   1950     1  180.0000771  0.8368000  1
   1940   1937   1936   1950     1  180.0000771  1.0460000  2
   1940   1937   1936   1950     1  0.0000000  0.7531200  3
   1940   1937   1936   1958     1  0.0000000  0.6508444  3
   1940   1941   1942   1946     1  0.0000000  0.6508444  3
   1940   1941   1942   1958     1  0.0000000  0.6508444  3
   1941   1940   1937   1949     1  0.0000000  0.6508444  3
   1942   1941   1940   1948     1  0.0000000  0.6508444  3
   1942   1958   1936   1950     1  180.0000771  0.4184000  2
   1942   1958   1936   1950     1  0.0000000  1.6024720  3
   1946   1942   1941   1947     1  0.0000000  4.9162000  2
   1946   1942   1941   1947     1  0.0000000  0.6024960  3
   1947   1941   1940   1948     1  0.0000000  4.9162000  2
   1947   1941   1940   1948     1  0.0000000  0.6024960  3
   1947   1941   1942   1958     1  0.0000000  4.9162000  2
   1947   1941   1942   1958     1  0.0000000  0.6024960  3
   1948   1940   1937   1949     1  0.0000000  4.9162000  2
   1948   1940   1937   1949     1  0.0000000  0.6024960  3
   1949   1937   1936   1950     1  0.0000000  0.6508444  3
   1949   1937   1936   1958     1  0.0000000  4.9162000  2
   1949   1937   1936   1958     1  0.0000000  0.6024960  3
   1956   1950   1936   1958     1  0.0000000  4.9162000  2
   1956   1950   1936   1958     1  0.0000000  0.6024960  3
   1959   1960   1963   1964     1  180.0000771  0.8368000  1
   1959   1960   1963   1964     1  180.0000771  1.0460000  2
   1959   1960   1963   1964     1  0.0000000  0.7531200  3
   1959   1960   1963   1971     1  0.0000000  0.6508444  3
   1959   1981   1965   1969     1  180.0000771  5.6484000  1
   1959   1981   1965   1969     1  180.0000771  3.5564000  2
   1959   1981   1965   1969     1  0.0000000  0.4184000  3
   1959   1981   1965   1964     1  180.0000771  0.4184000  2
   1959   1981   1965   1964     1  0.0000000  1.6024720  3
   1960   1963   1964   1965     1  180.0000771  0.8368000  1
   1960   1963   1964   1965     1  180.0000771  1.0460000  2
   1960   1963   1964   1965     1  0.0000000  0.7531200  3
   1960   1963   1964   1970     1  0.0000000  0.6508444  3
   1960   1959   1973   1979     1  0.0000000  0.6508444  3
   1960   1959   1981   1965     1  180.0000771  0.4184000  2
   1960   1959   1981   1965     1  0.0000000  1.6024720  3
   1963   1964   1965   1969     1  0.0000000  0.6508444  3
   1963   1964   1965   1981     1  0.0000000  0.6508444  3
   1963   1960   1959   1973     1  180.0000771  0.8368000  1
   1963   1960   1959   1973     1  180.0000771  1.0460000  2
   1963   1960   1959   1973     1  0.0000000  0.7531200  3
   1963   1960   1959   1981     1  0.0000000  0.6508444  3
   1964   1963   1960   1972     1  0.0000000  0.6508444  3
   1965   1981   1959   1973     1  180.0000771  0.4184000  2
   1965   1981   1959   1973     1  0.0000000  1.6024720  3
   1965   1964   1963   1971     1  0.0000000  0.6508444  3
   1969   1965   1964   1970     1  0.0000000  4.9162000  2
   1969   1965   1964   1970     1  0.0000000  0.6024960  3
   1970   1964   1965   1981     1  0.0000000  4.9162000  2
   1970   1964   1965   1981     1  0.0000000  0.6024960  3
   1970   1964   1963   1971     1  0.0000000  4.9162000  2
   1970   1964   1963   1971     1  0.0000000  0.6024960  3
   1971   1963   1960   1972     1  0.0000000  4.9162000  2
   1971   1963   1960   1972     1  0.0000000  0.6024960  3
   1972   1960   1959   1973     1  0.0000000  0.6508444  3
   1972   1960   1959   1981     1  0.0000000  4.9162000  2
   1972   1960   1959   1981     1  0.0000000  0.6024960  3
   1979   1973   1959   1981     1  0.0000000  4.9162000  2
   1979   1973   1959   1981     1  0.0000000  0.6024960  3
   1982   1983   1986   1987     1  180.0000771  0.8368000  1
   1982   1983   1986   1987     1  180.0000771  1.0460000  2
   1982   1983   1986   1987     1  0.0000000  0.7531200  3
   1982   1983   1986   1994     1  0.0000000  0.6508444  3
   1982   2004   1988   1987     1  180.0000771  0.4184000  2
   1982   2004   1988   1987     1  0.0000000  1.6024720  3
   1982   2004   1988   1992     1  180.0000771  5.6484000  1
   1982   2004   1988   1992     1  180.0000771  3.5564000  2
   1982   2004   1988   1992     1  0.0000000  0.4184000  3
   1983   1982   1996   2002     1  0.0000000  0.6508444  3
   1983   1982   2004   1988     1  180.0000771  0.4184000  2
   1983   1982   2004   1988     1  0.0000000  1.6024720  3
   1983   1986   1987   1988     1  180.0000771  0.8368000  1
   1983   1986   1987   1988     1  180.0000771  1.0460000  2
   1983   1986   1987   1988     1  0.0000000  0.7531200  3
   1983   1986   1987   1993     1  0.0000000  0.6508444  3
   1986   1983   1982   1996     1  180.0000771  0.8368000  1
   1986   1983   1982   1996     1  180.0000771  1.0460000  2
   1986   1983   1982   1996     1  0.0000000  0.7531200  3
   1986   1983   1982   2004     1  0.0000000  0.6508444  3
   1986   1987   1988   1992     1  0.0000000  0.6508444  3
   1986   1987   1988   2004     1  0.0000000  0.6508444  3
   1987   1986   1983   1995     1  0.0000000  0.6508444  3
   1988   1987   1986   1994     1  0.0000000  0.6508444  3
   1988   2004   1982   1996     1  180.0000771  0.4184000  2
   1988   2004   1982   1996     1  0.0000000  1.6024720  3
   1992   1988   1987   1993     1  0.0000000  4.9162000  2
   1992   1988   1987   1993     1  0.0000000  0.6024960  3
   1993   1987   1986   1994     1  0.0000000  4.9162000  2
   1993   1987   1986   1994     1  0.0000000  0.6024960  3
   1993   1987   1988   2004     1  0.0000000  4.9162000  2
   1993   1987   1988   2004     1  0.0000000  0.6024960  3
   1994   1986   1983   1995     1  0.0000000  4.9162000  2
   1994   1986   1983   1995     1  0.0000000  0.6024960  3
   1995   1983   1982   1996     1  0.0000000  0.6508444  3
   1995   1983   1982   2004     1  0.0000000  4.9162000  2
   1995   1983   1982   2004     1  0.0000000  0.6024960  3
   2002   1996   1982   2004     1  0.0000000  4.9162000  2
   2002   1996   1982   2004     1  0.0000000  0.6024960  3
   2005   2006   2009   2010     1  180.0000771  0.8368000  1
   2005   2006   2009   2010     1  180.0000771  1.0460000  2
   2005   2006   2009   2010     1  0.0000000  0.7531200  3
   2005   2006   2009   2017     1  0.0000000  0.6508444  3
   2005   2027   2011   2015     1  180.0000771  5.6484000  1
   2005   2027   2011   2015     1  180.0000771  3.5564000  2
   2005   2027   2011   2015     1  0.0000000  0.4184000  3
   2005   2027   2011   2010     1  180.0000771  0.4184000  2
   2005   2027   2011   2010     1  0.0000000  1.6024720  3
   2006   2009   2010   2011     1  180.0000771  0.8368000  1
   2006   2009   2010   2011     1  180.0000771  1.0460000  2
   2006   2009   2010   2011     1  0.0000000  0.7531200  3
   2006   2009   2010   2016     1  0.0000000  0.6508444  3
   2006   2005   2019   2025     1  0.0000000  0.6508444  3
   2006   2005   2027   2011     1  180.0000771  0.4184000  2
   2006   2005   2027   2011     1  0.0000000  1.6024720  3
   2009   2010   2011   2015     1  0.0000000  0.6508444  3
   2009   2010   2011   2027     1  0.0000000  0.6508444  3
   2009   2006   2005   2019     1  180.0000771  0.8368000  1
   2009   2006   2005   2019     1  180.0000771  1.0460000  2
   2009   2006   2005   2019     1  0.0000000  0.7531200  3
   2009   2006   2005   2027     1  0.0000000  0.6508444  3
   2010   2009   2006   2018     1  0.0000000  0.6508444  3
   2011   2027   2005   2019     1  180.0000771  0.4184000  2
   2011   2027   2005   2019     1  0.0000000  1.6024720  3
   2011   2010   2009   2017     1  0.0000000  0.6508444  3
   2015   2011   2010   2016     1  0.0000000  4.9162000  2
   2015   2011   2010   2016     1  0.0000000  0.6024960  3
   2016   2010   2011   2027     1  0.0000000  4.9162000  2
   2016   2010   2011   2027     1  0.0000000  0.6024960  3
   2016   2010   2009   2017     1  0.0000000  4.9162000  2
   2016   2010   2009   2017     1  0.0000000  0.6024960  3
   2017   2009   2006   2018     1  0.0000000  4.9162000  2
   2017   2009   2006   2018     1  0.0000000  0.6024960  3
   2018   2006   2005   2019     1  0.0000000  0.6508444  3
   2018   2006   2005   2027     1  0.0000000  4.9162000  2
   2018   2006   2005   2027     1  0.0000000  0.6024960  3
   2025   2019   2005   2027     1  0.0000000  4.9162000  2
   2025   2019   2005   2027     1  0.0000000  0.6024960  3
   2028   2029   2032   2033     1  180.0000771  0.8368000  1
   2028   2029   2032   2033     1  180.0000771  1.0460000  2
   2028   2029   2032   2033     1  0.0000000  0.7531200  3
   2028   2029   2032   2040     1  0.0000000  0.6508444  3
   2028   2050   2034   2033     1  180.0000771  0.4184000  2
   2028   2050   2034   2033     1  0.0000000  1.6024720  3
   2028   2050   2034   2038     1  180.0000771  5.6484000  1
   2028   2050   2034   2038     1  180.0000771  3.5564000  2
   2028   2050   2034   2038     1  0.0000000  0.4184000  3
   2029   2028   2042   2048     1  0.0000000  0.6508444  3
   2029   2028   2050   2034     1  180.0000771  0.4184000  2
   2029   2028   2050   2034     1  0.0000000  1.6024720  3
   2029   2032   2033   2034     1  180.0000771  0.8368000  1
   2029   2032   2033   2034     1  180.0000771  1.0460000  2
   2029   2032   2033   2034     1  0.0000000  0.7531200  3
   2029   2032   2033   2039     1  0.0000000  0.6508444  3
   2032   2029   2028   2042     1  180.0000771  0.8368000  1
   2032   2029   2028   2042     1  180.0000771  1.0460000  2
   2032   2029   2028   2042     1  0.0000000  0.7531200  3
   2032   2029   2028   2050     1  0.0000000  0.6508444  3
   2032   2033   2034   2038     1  0.0000000  0.6508444  3
   2032   2033   2034   2050     1  0.0000000  0.6508444  3
   2033   2032   2029   2041     1  0.0000000  0.6508444  3
   2034   2033   2032   2040     1  0.0000000  0.6508444  3
   2034   2050   2028   2042     1  180.0000771  0.4184000  2
   2034   2050   2028   2042     1  0.0000000  1.6024720  3
   2038   2034   2033   2039     1  0.0000000  4.9162000  2
   2038   2034   2033   2039     1  0.0000000  0.6024960  3
   2039   2033   2032   2040     1  0.0000000  4.9162000  2
   2039   2033   2032   2040     1  0.0000000  0.6024960  3
   2039   2033   2034   2050     1  0.0000000  4.9162000  2
   2039   2033   2034   2050     1  0.0000000  0.6024960  3
   2040   2032   2029   2041     1  0.0000000  4.9162000  2
   2040   2032   2029   2041     1  0.0000000  0.6024960  3
   2041   2029   2028   2042     1  0.0000000  0.6508444  3
   2041   2029   2028   2050     1  0.0000000  4.9162000  2
   2041   2029   2028   2050     1  0.0000000  0.6024960  3
   2048   2042   2028   2050     1  0.0000000  4.9162000  2
   2048   2042   2028   2050     1  0.0000000  0.6024960  3
   2051   2052   2055   2056     1  180.0000771  0.8368000  1
   2051   2052   2055   2056     1  180.0000771  1.0460000  2
   2051   2052   2055   2056     1  0.0000000  0.7531200  3
   2051   2052   2055   2063     1  0.0000000  0.6508444  3
   2051   2073   2057   2061     1  180.0000771  5.6484000  1
   2051   2073   2057   2061     1  180.0000771  3.5564000  2
   2051   2073   2057   2061     1  0.0000000  0.4184000  3
   2051   2073   2057   2056     1  180.0000771  0.4184000  2
   2051   2073   2057   2056     1  0.0000000  1.6024720  3
   2052   2055   2056   2057     1  180.0000771  0.8368000  1
   2052   2055   2056   2057     1  180.0000771  1.0460000  2
   2052   2055   2056   2057     1  0.0000000  0.7531200  3
   2052   2055   2056   2062     1  0.0000000  0.6508444  3
   2052   2051   2065   2071     1  0.0000000  0.6508444  3
   2052   2051   2073   2057     1  180.0000771  0.4184000  2
   2052   2051   2073   2057     1  0.0000000  1.6024720  3
   2055   2056   2057   2061     1  0.0000000  0.6508444  3
   2055   2056   2057   2073     1  0.0000000  0.6508444  3
   2055   2052   2051   2065     1  180.0000771  0.8368000  1
   2055   2052   2051   2065     1  180.0000771  1.0460000  2
   2055   2052   2051   2065     1  0.0000000  0.7531200  3
   2055   2052   2051   2073     1  0.0000000  0.6508444  3
   2056   2055   2052   2064     1  0.0000000  0.6508444  3
   2057   2073   2051   2065     1  180.0000771  0.4184000  2
   2057   2073   2051   2065     1  0.0000000  1.6024720  3
   2057   2056   2055   2063     1  0.0000000  0.6508444  3
   2061   2057   2056   2062     1  0.0000000  4.9162000  2
   2061   2057   2056   2062     1  0.0000000  0.6024960  3
   2062   2056   2057   2073     1  0.0000000  4.9162000  2
   2062   2056   2057   2073     1  0.0000000  0.6024960  3
   2062   2056   2055   2063     1  0.0000000  4.9162000  2
   2062   2056   2055   2063     1  0.0000000  0.6024960  3
   2063   2055   2052   2064     1  0.0000000  4.9162000  2
   2063   2055   2052   2064     1  0.0000000  0.6024960  3
   2064   2052   2051   2065     1  0.0000000  0.6508444  3
   2064   2052   2051   2073     1  0.0000000  4.9162000  2
   2064   2052   2051   2073     1  0.0000000  0.6024960  3
   2071   2065   2051   2073     1  0.0000000  4.9162000  2
   2071   2065   2051   2073     1  0.0000000  0.6024960  3
   2074   2075   2078   2079     1  180.0000771  0.8368000  1
   2074   2075   2078   2079     1  180.0000771  1.0460000  2
   2074   2075   2078   2079     1  0.0000000  0.7531200  3
   2074   2075   2078   2086     1  0.0000000  0.6508444  3
   2074   2096   2080   2079     1  180.0000771  0.4184000  2
   2074   2096   2080   2079     1  0.0000000  1.6024720  3
   2074   2096   2080   2084     1  180.0000771  5.6484000  1
   2074   2096   2080   2084     1  180.0000771  3.5564000  2
   2074   2096   2080   2084     1  0.0000000  0.4184000  3
   2075   2074   2088   2094     1  0.0000000  0.6508444  3
   2075   2074   2096   2080     1  180.0000771  0.4184000  2
   2075   2074   2096   2080     1  0.0000000  1.6024720  3
   2075   2078   2079   2080     1  180.0000771  0.8368000  1
   2075   2078   2079   2080     1  180.0000771  1.0460000  2
   2075   2078   2079   2080     1  0.0000000  0.7531200  3
   2075   2078   2079   2085     1  0.0000000  0.6508444  3
   2078   2075   2074   2088     1  180.0000771  0.8368000  1
   2078   2075   2074   2088     1  180.0000771  1.0460000  2
   2078   2075   2074   2088     1  0.0000000  0.7531200  3
   2078   2075   2074   2096     1  0.0000000  0.6508444  3
   2078   2079   2080   2084     1  0.0000000  0.6508444  3
   2078   2079   2080   2096     1  0.0000000  0.6508444  3
   2079   2078   2075   2087     1  0.0000000  0.6508444  3
   2080   2079   2078   2086     1  0.0000000  0.6508444  3
   2080   2096   2074   2088     1  180.0000771  0.4184000  2
   2080   2096   2074   2088     1  0.0000000  1.6024720  3
   2084   2080   2079   2085     1  0.0000000  4.9162000  2
   2084   2080   2079   2085     1  0.0000000  0.6024960  3
   2085   2079   2078   2086     1  0.0000000  4.9162000  2
   2085   2079   2078   2086     1  0.0000000  0.6024960  3
   2085   2079   2080   2096     1  0.0000000  4.9162000  2
   2085   2079   2080   2096     1  0.0000000  0.6024960  3
   2086   2078   2075   2087     1  0.0000000  4.9162000  2
   2086   2078   2075   2087     1  0.0000000  0.6024960  3
   2087   2075   2074   2088     1  0.0000000  0.6508444  3
   2087   2075   2074   2096     1  0.0000000  4.9162000  2
   2087   2075   2074   2096     1  0.0000000  0.6024960  3
   2094   2088   2074   2096     1  0.0000000  4.9162000  2
   2094   2088   2074   2096     1  0.0000000  0.6024960  3
   2097   2098   2101   2102     1  180.0000771  0.8368000  1
   2097   2098   2101   2102     1  180.0000771  1.0460000  2
   2097   2098   2101   2102     1  0.0000000  0.7531200  3
   2097   2098   2101   2109     1  0.0000000  0.6508444  3
   2097   2119   2103   2107     1  180.0000771  5.6484000  1
   2097   2119   2103   2107     1  180.0000771  3.5564000  2
   2097   2119   2103   2107     1  0.0000000  0.4184000  3
   2097   2119   2103   2102     1  180.0000771  0.4184000  2
   2097   2119   2103   2102     1  0.0000000  1.6024720  3
   2098   2101   2102   2103     1  180.0000771  0.8368000  1
   2098   2101   2102   2103     1  180.0000771  1.0460000  2
   2098   2101   2102   2103     1  0.0000000  0.7531200  3
   2098   2101   2102   2108     1  0.0000000  0.6508444  3
   2098   2097   2111   2117     1  0.0000000  0.6508444  3
   2098   2097   2119   2103     1  180.0000771  0.4184000  2
   2098   2097   2119   2103     1  0.0000000  1.6024720  3
   2101   2102   2103   2107     1  0.0000000  0.6508444  3
   2101   2102   2103   2119     1  0.0000000  0.6508444  3
   2101   2098   2097   2111     1  180.0000771  0.8368000  1
   2101   2098   2097   2111     1  180.0000771  1.0460000  2
   2101   2098   2097   2111     1  0.0000000  0.7531200  3
   2101   2098   2097   2119     1  0.0000000  0.6508444  3
   2102   2101   2098   2110     1  0.0000000  0.6508444  3
   2103   2119   2097   2111     1  180.0000771  0.4184000  2
   2103   2119   2097   2111     1  0.0000000  1.6024720  3
   2103   2102   2101   2109     1  0.0000000  0.6508444  3
   2107   2103   2102   2108     1  0.0000000  4.9162000  2
   2107   2103   2102   2108     1  0.0000000  0.6024960  3
   2108   2102   2103   2119     1  0.0000000  4.9162000  2
   2108   2102   2103   2119     1  0.0000000  0.6024960  3
   2108   2102   2101   2109     1  0.0000000  4.9162000  2
   2108   2102   2101   2109     1  0.0000000  0.6024960  3
   2109   2101   2098   2110     1  0.0000000  4.9162000  2
   2109   2101   2098   2110     1  0.0000000  0.6024960  3
   2110   2098   2097   2111     1  0.0000000  0.6508444  3
   2110   2098   2097   2119     1  0.0000000  4.9162000  2
   2110   2098   2097   2119     1  0.0000000  0.6024960  3
   2117   2111   2097   2119     1  0.0000000  4.9162000  2
   2117   2111   2097   2119     1  0.0000000  0.6024960  3
   2120   2121   2124   2125     1  180.0000771  0.8368000  1
   2120   2121   2124   2125     1  180.0000771  1.0460000  2
   2120   2121   2124   2125     1  0.0000000  0.7531200  3
   2120   2121   2124   2132     1  0.0000000  0.6508444  3
   2120   2142   2126   2125     1  180.0000771  0.4184000  2
   2120   2142   2126   2125     1  0.0000000  1.6024720  3
   2120   2142   2126   2130     1  180.0000771  5.6484000  1
   2120   2142   2126   2130     1  180.0000771  3.5564000  2
   2120   2142   2126   2130     1  0.0000000  0.4184000  3
   2121   2120   2134   2140     1  0.0000000  0.6508444  3
   2121   2120   2142   2126     1  180.0000771  0.4184000  2
   2121   2120   2142   2126     1  0.0000000  1.6024720  3
   2121   2124   2125   2126     1  180.0000771  0.8368000  1
   2121   2124   2125   2126     1  180.0000771  1.0460000  2
   2121   2124   2125   2126     1  0.0000000  0.7531200  3
   2121   2124   2125   2131     1  0.0000000  0.6508444  3
   2124   2121   2120   2134     1  180.0000771  0.8368000  1
   2124   2121   2120   2134     1  180.0000771  1.0460000  2
   2124   2121   2120   2134     1  0.0000000  0.7531200  3
   2124   2121   2120   2142     1  0.0000000  0.6508444  3
   2124   2125   2126   2130     1  0.0000000  0.6508444  3
   2124   2125   2126   2142     1  0.0000000  0.6508444  3
   2125   2124   2121   2133     1  0.0000000  0.6508444  3
   2126   2125   2124   2132     1  0.0000000  0.6508444  3
   2126   2142   2120   2134     1  180.0000771  0.4184000  2
   2126   2142   2120   2134     1  0.0000000  1.6024720  3
   2130   2126   2125   2131     1  0.0000000  4.9162000  2
   2130   2126   2125   2131     1  0.0000000  0.6024960  3
   2131   2125   2124   2132     1  0.0000000  4.9162000  2
   2131   2125   2124   2132     1  0.0000000  0.6024960  3
   2131   2125   2126   2142     1  0.0000000  4.9162000  2
   2131   2125   2126   2142     1  0.0000000  0.6024960  3
   2132   2124   2121   2133     1  0.0000000  4.9162000  2
   2132   2124   2121   2133     1  0.0000000  0.6024960  3
   2133   2121   2120   2134     1  0.0000000  0.6508444  3
   2133   2121   2120   2142     1  0.0000000  4.9162000  2
   2133   2121   2120   2142     1  0.0000000  0.6024960  3
   2140   2134   2120   2142     1  0.0000000  4.9162000  2
   2140   2134   2120   2142     1  0.0000000  0.6024960  3
   2143   2144   2147   2148     1  180.0000771  0.8368000  1
   2143   2144   2147   2148     1  180.0000771  1.0460000  2
   2143   2144   2147   2148     1  0.0000000  0.7531200  3
   2143   2144   2147   2155     1  0.0000000  0.6508444  3
   2143   2165   2149   2153     1  180.0000771  5.6484000  1
   2143   2165   2149   2153     1  180.0000771  3.5564000  2
   2143   2165   2149   2153     1  0.0000000  0.4184000  3
   2143   2165   2149   2148     1  180.0000771  0.4184000  2
   2143   2165   2149   2148     1  0.0000000  1.6024720  3
   2144   2147   2148   2149     1  180.0000771  0.8368000  1
   2144   2147   2148   2149     1  180.0000771  1.0460000  2
   2144   2147   2148   2149     1  0.0000000  0.7531200  3
   2144   2147   2148   2154     1  0.0000000  0.6508444  3
   2144   2143   2157   2163     1  0.0000000  0.6508444  3
   2144   2143   2165   2149     1  180.0000771  0.4184000  2
   2144   2143   2165   2149     1  0.0000000  1.6024720  3
   2147   2148   2149   2153     1  0.0000000  0.6508444  3
   2147   2148   2149   2165     1  0.0000000  0.6508444  3
   2147   2144   2143   2157     1  180.0000771  0.8368000  1
   2147   2144   2143   2157     1  180.0000771  1.0460000  2
   2147   2144   2143   2157     1  0.0000000  0.7531200  3
   2147   2144   2143   2165     1  0.0000000  0.6508444  3
   2148   2147   2144   2156     1  0.0000000  0.6508444  3
   2149   2165   2143   2157     1  180.0000771  0.4184000  2
   2149   2165   2143   2157     1  0.0000000  1.6024720  3
   2149   2148   2147   2155     1  0.0000000  0.6508444  3
   2153   2149   2148   2154     1  0.0000000  4.9162000  2
   2153   2149   2148   2154     1  0.0000000  0.6024960  3
   2154   2148   2149   2165     1  0.0000000  4.9162000  2
   2154   2148   2149   2165     1  0.0000000  0.6024960  3
   2154   2148   2147   2155     1  0.0000000  4.9162000  2
   2154   2148   2147   2155     1  0.0000000  0.6024960  3
   2155   2147   2144   2156     1  0.0000000  4.9162000  2
   2155   2147   2144   2156     1  0.0000000  0.6024960  3
   2156   2144   2143   2157     1  0.0000000  0.6508444  3
   2156   2144   2143   2165     1  0.0000000  4.9162000  2
   2156   2144   2143   2165     1  0.0000000  0.6024960  3
   2163   2157   2143   2165     1  0.0000000  4.9162000  2
   2163   2157   2143   2165     1  0.0000000  0.6024960  3
   2166   2167   2170   2171     1  180.0000771  0.8368000  1
   2166   2167   2170   2171     1  180.0000771  1.0460000  2
   2166   2167   2170   2171     1  0.0000000  0.7531200  3
   2166   2167   2170   2178     1  0.0000000  0.6508444  3
   2166   2188   2172   2171     1  180.0000771  0.4184000  2
   2166   2188   2172   2171     1  0.0000000  1.6024720  3
   2166   2188   2172   2176     1  180.0000771  5.6484000  1
   2166   2188   2172   2176     1  180.0000771  3.5564000  2
   2166   2188   2172   2176     1  0.0000000  0.4184000  3
   2167   2166   2180   2186     1  0.0000000  0.6508444  3
   2167   2166   2188   2172     1  180.0000771  0.4184000  2
   2167   2166   2188   2172     1  0.0000000  1.6024720  3
   2167   2170   2171   2172     1  180.0000771  0.8368000  1
   2167   2170   2171   2172     1  180.0000771  1.0460000  2
   2167   2170   2171   2172     1  0.0000000  0.7531200  3
   2167   2170   2171   2177     1  0.0000000  0.6508444  3
   2170   2167   2166   2180     1  180.0000771  0.8368000  1
   2170   2167   2166   2180     1  180.0000771  1.0460000  2
   2170   2167   2166   2180     1  0.0000000  0.7531200  3
   2170   2167   2166   2188     1  0.0000000  0.6508444  3
   2170   2171   2172   2176     1  0.0000000  0.6508444  3
   2170   2171   2172   2188     1  0.0000000  0.6508444  3
   2171   2170   2167   2179     1  0.0000000  0.6508444  3
   2172   2171   2170   2178     1  0.0000000  0.6508444  3
   2172   2188   2166   2180     1  180.0000771  0.4184000  2
   2172   2188   2166   2180     1  0.0000000  1.6024720  3
   2176   2172   2171   2177     1  0.0000000  4.9162000  2
   2176   2172   2171   2177     1  0.0000000  0.6024960  3
   2177   2171   2170   2178     1  0.0000000  4.9162000  2
   2177   2171   2170   2178     1  0.0000000  0.6024960  3
   2177   2171   2172   2188     1  0.0000000  4.9162000  2
   2177   2171   2172   2188     1  0.0000000  0.6024960  3
   2178   2170   2167   2179     1  0.0000000  4.9162000  2
   2178   2170   2167   2179     1  0.0000000  0.6024960  3
   2179   2167   2166   2180     1  0.0000000  0.6508444  3
   2179   2167   2166   2188     1  0.0000000  4.9162000  2
   2179   2167   2166   2188     1  0.0000000  0.6024960  3
   2186   2180   2166   2188     1  0.0000000  4.9162000  2
   2186   2180   2166   2188     1  0.0000000  0.6024960  3
   2189   2190   2193   2194     1  180.0000771  0.8368000  1
   2189   2190   2193   2194     1  180.0000771  1.0460000  2
   2189   2190   2193   2194     1  0.0000000  0.7531200  3
   2189   2190   2193   2201     1  0.0000000  0.6508444  3
   2189   2211   2195   2199     1  180.0000771  5.6484000  1
   2189   2211   2195   2199     1  180.0000771  3.5564000  2
   2189   2211   2195   2199     1  0.0000000  0.4184000  3
   2189   2211   2195   2194     1  180.0000771  0.4184000  2
   2189   2211   2195   2194     1  0.0000000  1.6024720  3
   2190   2193   2194   2195     1  180.0000771  0.8368000  1
   2190   2193   2194   2195     1  180.0000771  1.0460000  2
   2190   2193   2194   2195     1  0.0000000  0.7531200  3
   2190   2193   2194   2200     1  0.0000000  0.6508444  3
   2190   2189   2203   2209     1  0.0000000  0.6508444  3
   2190   2189   2211   2195     1  180.0000771  0.4184000  2
   2190   2189   2211   2195     1  0.0000000  1.6024720  3
   2193   2194   2195   2199     1  0.0000000  0.6508444  3
   2193   2194   2195   2211     1  0.0000000  0.6508444  3
   2193   2190   2189   2203     1  180.0000771  0.8368000  1
   2193   2190   2189   2203     1  180.0000771  1.0460000  2
   2193   2190   2189   2203     1  0.0000000  0.7531200  3
   2193   2190   2189   2211     1  0.0000000  0.6508444  3
   2194   2193   2190   2202     1  0.0000000  0.6508444  3
   2195   2211   2189   2203     1  180.0000771  0.4184000  2
   2195   2211   2189   2203     1  0.0000000  1.6024720  3
   2195   2194   2193   2201     1  0.0000000  0.6508444  3
   2199   2195   2194   2200     1  0.0000000  4.9162000  2
   2199   2195   2194   2200     1  0.0000000  0.6024960  3
   2200   2194   2195   2211     1  0.0000000  4.9162000  2
   2200   2194   2195   2211     1  0.0000000  0.6024960  3
   2200   2194   2193   2201     1  0.0000000  4.9162000  2
   2200   2194   2193   2201     1  0.0000000  0.6024960  3
   2201   2193   2190   2202     1  0.0000000  4.9162000  2
   2201   2193   2190   2202     1  0.0000000  0.6024960  3
   2202   2190   2189   2203     1  0.0000000  0.6508444  3
   2202   2190   2189   2211     1  0.0000000  4.9162000  2
   2202   2190   2189   2211     1  0.0000000  0.6024960  3
   2209   2203   2189   2211     1  0.0000000  4.9162000  2
   2209   2203   2189   2211     1  0.0000000  0.6024960  3
   2212   2213   2216   2217     1  180.0000771  0.8368000  1
   2212   2213   2216   2217     1  180.0000771  1.0460000  2
   2212   2213   2216   2217     1  0.0000000  0.7531200  3
   2212   2213   2216   2224     1  0.0000000  0.6508444  3
   2212   2234   2218   2217     1  180.0000771  0.4184000  2
   2212   2234   2218   2217     1  0.0000000  1.6024720  3
   2212   2234   2218   2222     1  180.0000771  5.6484000  1
   2212   2234   2218   2222     1  180.0000771  3.5564000  2
   2212   2234   2218   2222     1  0.0000000  0.4184000  3
   2213   2212   2226   2232     1  0.0000000  0.6508444  3
   2213   2212   2234   2218     1  180.0000771  0.4184000  2
   2213   2212   2234   2218     1  0.0000000  1.6024720  3
   2213   2216   2217   2218     1  180.0000771  0.8368000  1
   2213   2216   2217   2218     1  180.0000771  1.0460000  2
   2213   2216   2217   2218     1  0.0000000  0.7531200  3
   2213   2216   2217   2223     1  0.0000000  0.6508444  3
   2216   2213   2212   2226     1  180.0000771  0.8368000  1
   2216   2213   2212   2226     1  180.0000771  1.0460000  2
   2216   2213   2212   2226     1  0.0000000  0.7531200  3
   2216   2213   2212   2234     1  0.0000000  0.6508444  3
   2216   2217   2218   2222     1  0.0000000  0.6508444  3
   2216   2217   2218   2234     1  0.0000000  0.6508444  3
   2217   2216   2213   2225     1  0.0000000  0.6508444  3
   2218   2217   2216   2224     1  0.0000000  0.6508444  3
   2218   2234   2212   2226     1  180.0000771  0.4184000  2
   2218   2234   2212   2226     1  0.0000000  1.6024720  3
   2222   2218   2217   2223     1  0.0000000  4.9162000  2
   2222   2218   2217   2223     1  0.0000000  0.6024960  3
   2223   2217   2216   2224     1  0.0000000  4.9162000  2
   2223   2217   2216   2224     1  0.0000000  0.6024960  3
   2223   2217   2218   2234     1  0.0000000  4.9162000  2
   2223   2217   2218   2234     1  0.0000000  0.6024960  3
   2224   2216   2213   2225     1  0.0000000  4.9162000  2
   2224   2216   2213   2225     1  0.0000000  0.6024960  3
   2225   2213   2212   2226     1  0.0000000  0.6508444  3
   2225   2213   2212   2234     1  0.0000000  4.9162000  2
   2225   2213   2212   2234     1  0.0000000  0.6024960  3
   2232   2226   2212   2234     1  0.0000000  4.9162000  2
   2232   2226   2212   2234     1  0.0000000  0.6024960  3
   2235   2236   2239   2240     1  180.0000771  0.8368000  1
   2235   2236   2239   2240     1  180.0000771  1.0460000  2
   2235   2236   2239   2240     1  0.0000000  0.7531200  3
   2235   2236   2239   2247     1  0.0000000  0.6508444  3
   2235   2257   2241   2245     1  180.0000771  5.6484000  1
   2235   2257   2241   2245     1  180.0000771  3.5564000  2
   2235   2257   2241   2245     1  0.0000000  0.4184000  3
   2235   2257   2241   2240     1  180.0000771  0.4184000  2
   2235   2257   2241   2240     1  0.0000000  1.6024720  3
   2236   2239   2240   2241     1  180.0000771  0.8368000  1
   2236   2239   2240   2241     1  180.0000771  1.0460000  2
   2236   2239   2240   2241     1  0.0000000  0.7531200  3
   2236   2239   2240   2246     1  0.0000000  0.6508444  3
   2236   2235   2249   2255     1  0.0000000  0.6508444  3
   2236   2235   2257   2241     1  180.0000771  0.4184000  2
   2236   2235   2257   2241     1  0.0000000  1.6024720  3
   2239   2240   2241   2245     1  0.0000000  0.6508444  3
   2239   2240   2241   2257     1  0.0000000  0.6508444  3
   2239   2236   2235   2249     1  180.0000771  0.8368000  1
   2239   2236   2235   2249     1  180.0000771  1.0460000  2
   2239   2236   2235   2249     1  0.0000000  0.7531200  3
   2239   2236   2235   2257     1  0.0000000  0.6508444  3
   2240   2239   2236   2248     1  0.0000000  0.6508444  3
   2241   2257   2235   2249     1  180.0000771  0.4184000  2
   2241   2257   2235   2249     1  0.0000000  1.6024720  3
   2241   2240   2239   2247     1  0.0000000  0.6508444  3
   2245   2241   2240   2246     1  0.0000000  4.9162000  2
   2245   2241   2240   2246     1  0.0000000  0.6024960  3
   2246   2240   2241   2257     1  0.0000000  4.9162000  2
   2246   2240   2241   2257     1  0.0000000  0.6024960  3
   2246   2240   2239   2247     1  0.0000000  4.9162000  2
   2246   2240   2239   2247     1  0.0000000  0.6024960  3
   2247   2239   2236   2248     1  0.0000000  4.9162000  2
   2247   2239   2236   2248     1  0.0000000  0.6024960  3
   2248   2236   2235   2249     1  0.0000000  0.6508444  3
   2248   2236   2235   2257     1  0.0000000  4.9162000  2
   2248   2236   2235   2257     1  0.0000000  0.6024960  3
   2255   2249   2235   2257     1  0.0000000  4.9162000  2
   2255   2249   2235   2257     1  0.0000000  0.6024960  3
   2258   2259   2262   2263     1  180.0000771  0.8368000  1
   2258   2259   2262   2263     1  180.0000771  1.0460000  2
   2258   2259   2262   2263     1  0.0000000  0.7531200  3
   2258   2259   2262   2270     1  0.0000000  0.6508444  3
   2258   2280   2264   2263     1  180.0000771  0.4184000  2
   2258   2280   2264   2263     1  0.0000000  1.6024720  3
   2258   2280   2264   2268     1  180.0000771  5.6484000  1
   2258   2280   2264   2268     1  180.0000771  3.5564000  2
   2258   2280   2264   2268     1  0.0000000  0.4184000  3
   2259   2258   2272   2278     1  0.0000000  0.6508444  3
   2259   2258   2280   2264     1  180.0000771  0.4184000  2
   2259   2258   2280   2264     1  0.0000000  1.6024720  3
   2259   2262   2263   2264     1  180.0000771  0.8368000  1
   2259   2262   2263   2264     1  180.0000771  1.0460000  2
   2259   2262   2263   2264     1  0.0000000  0.7531200  3
   2259   2262   2263   2269     1  0.0000000  0.6508444  3
   2262   2259   2258   2272     1  180.0000771  0.8368000  1
   2262   2259   2258   2272     1  180.0000771  1.0460000  2
   2262   2259   2258   2272     1  0.0000000  0.7531200  3
   2262   2259   2258   2280     1  0.0000000  0.6508444  3
   2262   2263   2264   2268     1  0.0000000  0.6508444  3
   2262   2263   2264   2280     1  0.0000000  0.6508444  3
   2263   2262   2259   2271     1  0.0000000  0.6508444  3
   2264   2263   2262   2270     1  0.0000000  0.6508444  3
   2264   2280   2258   2272     1  180.0000771  0.4184000  2
   2264   2280   2258   2272     1  0.0000000  1.6024720  3
   2268   2264   2263   2269     1  0.0000000  4.9162000  2
   2268   2264   2263   2269     1  0.0000000  0.6024960  3
   2269   2263   2262   2270     1  0.0000000  4.9162000  2
   2269   2263   2262   2270     1  0.0000000  0.6024960  3
   2269   2263   2264   2280     1  0.0000000  4.9162000  2
   2269   2263   2264   2280     1  0.0000000  0.6024960  3
   2270   2262   2259   2271     1  0.0000000  4.9162000  2
   2270   2262   2259   2271     1  0.0000000  0.6024960  3
   2271   2259   2258   2272     1  0.0000000  0.6508444  3
   2271   2259   2258   2280     1  0.0000000  4.9162000  2
   2271   2259   2258   2280     1  0.0000000  0.6024960  3
   2278   2272   2258   2280     1  0.0000000  4.9162000  2
   2278   2272   2258   2280     1  0.0000000  0.6024960  3
   2281   2282   2285   2286     1  180.0000771  0.8368000  1
   2281   2282   2285   2286     1  180.0000771  1.0460000  2
   2281   2282   2285   2286     1  0.0000000  0.7531200  3
   2281   2282   2285   2293     1  0.0000000  0.6508444  3
   2281   2303   2287   2291     1  180.0000771  5.6484000  1
   2281   2303   2287   2291     1  180.0000771  3.5564000  2
   2281   2303   2287   2291     1  0.0000000  0.4184000  3
   2281   2303   2287   2286     1  180.0000771  0.4184000  2
   2281   2303   2287   2286     1  0.0000000  1.6024720  3
   2282   2285   2286   2287     1  180.0000771  0.8368000  1
   2282   2285   2286   2287     1  180.0000771  1.0460000  2
   2282   2285   2286   2287     1  0.0000000  0.7531200  3
   2282   2285   2286   2292     1  0.0000000  0.6508444  3
   2282   2281   2295   2301     1  0.0000000  0.6508444  3
   2282   2281   2303   2287     1  180.0000771  0.4184000  2
   2282   2281   2303   2287     1  0.0000000  1.6024720  3
   2285   2286   2287   2291     1  0.0000000  0.6508444  3
   2285   2286   2287   2303     1  0.0000000  0.6508444  3
   2285   2282   2281   2295     1  180.0000771  0.8368000  1
   2285   2282   2281   2295     1  180.0000771  1.0460000  2
   2285   2282   2281   2295     1  0.0000000  0.7531200  3
   2285   2282   2281   2303     1  0.0000000  0.6508444  3
   2286   2285   2282   2294     1  0.0000000  0.6508444  3
   2287   2303   2281   2295     1  180.0000771  0.4184000  2
   2287   2303   2281   2295     1  0.0000000  1.6024720  3
   2287   2286   2285   2293     1  0.0000000  0.6508444  3
   2291   2287   2286   2292     1  0.0000000  4.9162000  2
   2291   2287   2286   2292     1  0.0000000  0.6024960  3
   2292   2286   2287   2303     1  0.0000000  4.9162000  2
   2292   2286   2287   2303     1  0.0000000  0.6024960  3
   2292   2286   2285   2293     1  0.0000000  4.9162000  2
   2292   2286   2285   2293     1  0.0000000  0.6024960  3
   2293   2285   2282   2294     1  0.0000000  4.9162000  2
   2293   2285   2282   2294     1  0.0000000  0.6024960  3
   2294   2282   2281   2295     1  0.0000000  0.6508444  3
   2294   2282   2281   2303     1  0.0000000  4.9162000  2
   2294   2282   2281   2303     1  0.0000000  0.6024960  3
   2301   2295   2281   2303     1  0.0000000  4.9162000  2
   2301   2295   2281   2303     1  0.0000000  0.6024960  3
   2304   2305   2308   2309     1  180.0000771  0.8368000  1
   2304   2305   2308   2309     1  180.0000771  1.0460000  2
   2304   2305   2308   2309     1  0.0000000  0.7531200  3
   2304   2305   2308   2316     1  0.0000000  0.6508444  3
   2304   2326   2310   2309     1  180.0000771  0.4184000  2
   2304   2326   2310   2309     1  0.0000000  1.6024720  3
   2304   2326   2310   2314     1  180.0000771  5.6484000  1
   2304   2326   2310   2314     1  180.0000771  3.5564000  2
   2304   2326   2310   2314     1  0.0000000  0.4184000  3
   2305   2304   2318   2324     1  0.0000000  0.6508444  3
   2305   2304   2326   2310     1  180.0000771  0.4184000  2
   2305   2304   2326   2310     1  0.0000000  1.6024720  3
   2305   2308   2309   2310     1  180.0000771  0.8368000  1
   2305   2308   2309   2310     1  180.0000771  1.0460000  2
   2305   2308   2309   2310     1  0.0000000  0.7531200  3
   2305   2308   2309   2315     1  0.0000000  0.6508444  3
   2308   2305   2304   2318     1  180.0000771  0.8368000  1
   2308   2305   2304   2318     1  180.0000771  1.0460000  2
   2308   2305   2304   2318     1  0.0000000  0.7531200  3
   2308   2305   2304   2326     1  0.0000000  0.6508444  3
   2308   2309   2310   2314     1  0.0000000  0.6508444  3
   2308   2309   2310   2326     1  0.0000000  0.6508444  3
   2309   2308   2305   2317     1  0.0000000  0.6508444  3
   2310   2309   2308   2316     1  0.0000000  0.6508444  3
   2310   2326   2304   2318     1  180.0000771  0.4184000  2
   2310   2326   2304   2318     1  0.0000000  1.6024720  3
   2314   2310   2309   2315     1  0.0000000  4.9162000  2
   2314   2310   2309   2315     1  0.0000000  0.6024960  3
   2315   2309   2308   2316     1  0.0000000  4.9162000  2
   2315   2309   2308   2316     1  0.0000000  0.6024960  3
   2315   2309   2310   2326     1  0.0000000  4.9162000  2
   2315   2309   2310   2326     1  0.0000000  0.6024960  3
   2316   2308   2305   2317     1  0.0000000  4.9162000  2
   2316   2308   2305   2317     1  0.0000000  0.6024960  3
   2317   2305   2304   2318     1  0.0000000  0.6508444  3
   2317   2305   2304   2326     1  0.0000000  4.9162000  2
   2317   2305   2304   2326     1  0.0000000  0.6024960  3
   2324   2318   2304   2326     1  0.0000000  4.9162000  2
   2324   2318   2304   2326     1  0.0000000  0.6024960  3
   2327   2328   2331   2332     1  180.0000771  0.8368000  1
   2327   2328   2331   2332     1  180.0000771  1.0460000  2
   2327   2328   2331   2332     1  0.0000000  0.7531200  3
   2327   2328   2331   2339     1  0.0000000  0.6508444  3
   2327   2349   2333   2337     1  180.0000771  5.6484000  1
   2327   2349   2333   2337     1  180.0000771  3.5564000  2
   2327   2349   2333   2337     1  0.0000000  0.4184000  3
   2327   2349   2333   2332     1  180.0000771  0.4184000  2
   2327   2349   2333   2332     1  0.0000000  1.6024720  3
   2328   2331   2332   2333     1  180.0000771  0.8368000  1
   2328   2331   2332   2333     1  180.0000771  1.0460000  2
   2328   2331   2332   2333     1  0.0000000  0.7531200  3
   2328   2331   2332   2338     1  0.0000000  0.6508444  3
   2328   2327   2341   2347     1  0.0000000  0.6508444  3
   2328   2327   2349   2333     1  180.0000771  0.4184000  2
   2328   2327   2349   2333     1  0.0000000  1.6024720  3
   2331   2332   2333   2337     1  0.0000000  0.6508444  3
   2331   2332   2333   2349     1  0.0000000  0.6508444  3
   2331   2328   2327   2341     1  180.0000771  0.8368000  1
   2331   2328   2327   2341     1  180.0000771  1.0460000  2
   2331   2328   2327   2341     1  0.0000000  0.7531200  3
   2331   2328   2327   2349     1  0.0000000  0.6508444  3
   2332   2331   2328   2340     1  0.0000000  0.6508444  3
   2333   2349   2327   2341     1  180.0000771  0.4184000  2
   2333   2349   2327   2341     1  0.0000000  1.6024720  3
   2333   2332   2331   2339     1  0.0000000  0.6508444  3
   2337   2333   2332   2338     1  0.0000000  4.9162000  2
   2337   2333   2332   2338     1  0.0000000  0.6024960  3
   2338   2332   2333   2349     1  0.0000000  4.9162000  2
   2338   2332   2333   2349     1  0.0000000  0.6024960  3
   2338   2332   2331   2339     1  0.0000000  4.9162000  2
   2338   2332   2331   2339     1  0.0000000  0.6024960  3
   2339   2331   2328   2340     1  0.0000000  4.9162000  2
   2339   2331   2328   2340     1  0.0000000  0.6024960  3
   2340   2328   2327   2341     1  0.0000000  0.6508444  3
   2340   2328   2327   2349     1  0.0000000  4.9162000  2
   2340   2328   2327   2349     1  0.0000000  0.6024960  3
   2347   2341   2327   2349     1  0.0000000  4.9162000  2
   2347   2341   2327   2349     1  0.0000000  0.6024960  3
   2350   2351   2354   2355     1  180.0000771  0.8368000  1
   2350   2351   2354   2355     1  180.0000771  1.0460000  2
   2350   2351   2354   2355     1  0.0000000  0.7531200  3
   2350   2351   2354   2362     1  0.0000000  0.6508444  3
   2350   2372   2356   2355     1  180.0000771  0.4184000  2
   2350   2372   2356   2355     1  0.0000000  1.6024720  3
   2350   2372   2356   2360     1  180.0000771  5.6484000  1
   2350   2372   2356   2360     1  180.0000771  3.5564000  2
   2350   2372   2356   2360     1  0.0000000  0.4184000  3
   2351   2350   2364   2370     1  0.0000000  0.6508444  3
   2351   2350   2372   2356     1  180.0000771  0.4184000  2
   2351   2350   2372   2356     1  0.0000000  1.6024720  3
   2351   2354   2355   2356     1  180.0000771  0.8368000  1
   2351   2354   2355   2356     1  180.0000771  1.0460000  2
   2351   2354   2355   2356     1  0.0000000  0.7531200  3
   2351   2354   2355   2361     1  0.0000000  0.6508444  3
   2354   2351   2350   2364     1  180.0000771  0.8368000  1
   2354   2351   2350   2364     1  180.0000771  1.0460000  2
   2354   2351   2350   2364     1  0.0000000  0.7531200  3
   2354   2351   2350   2372     1  0.0000000  0.6508444  3
   2354   2355   2356   2360     1  0.0000000  0.6508444  3
   2354   2355   2356   2372     1  0.0000000  0.6508444  3
   2355   2354   2351   2363     1  0.0000000  0.6508444  3
   2356   2355   2354   2362     1  0.0000000  0.6508444  3
   2356   2372   2350   2364     1  180.0000771  0.4184000  2
   2356   2372   2350   2364     1  0.0000000  1.6024720  3
   2360   2356   2355   2361     1  0.0000000  4.9162000  2
   2360   2356   2355   2361     1  0.0000000  0.6024960  3
   2361   2355   2354   2362     1  0.0000000  4.9162000  2
   2361   2355   2354   2362     1  0.0000000  0.6024960  3
   2361   2355   2356   2372     1  0.0000000  4.9162000  2
   2361   2355   2356   2372     1  0.0000000  0.6024960  3
   2362   2354   2351   2363     1  0.0000000  4.9162000  2
   2362   2354   2351   2363     1  0.0000000  0.6024960  3
   2363   2351   2350   2364     1  0.0000000  0.6508444  3
   2363   2351   2350   2372     1  0.0000000  4.9162000  2
   2363   2351   2350   2372     1  0.0000000  0.6024960  3
   2370   2364   2350   2372     1  0.0000000  4.9162000  2
   2370   2364   2350   2372     1  0.0000000  0.6024960  3
   2373   2374   2377   2378     1  180.0000771  0.8368000  1
   2373   2374   2377   2378     1  180.0000771  1.0460000  2
   2373   2374   2377   2378     1  0.0000000  0.7531200  3
   2373   2374   2377   2385     1  0.0000000  0.6508444  3
   2373   2395   2379   2383     1  180.0000771  5.6484000  1
   2373   2395   2379   2383     1  180.0000771  3.5564000  2
   2373   2395   2379   2383     1  0.0000000  0.4184000  3
   2373   2395   2379   2378     1  180.0000771  0.4184000  2
   2373   2395   2379   2378     1  0.0000000  1.6024720  3
   2374   2377   2378   2379     1  180.0000771  0.8368000  1
   2374   2377   2378   2379     1  180.0000771  1.0460000  2
   2374   2377   2378   2379     1  0.0000000  0.7531200  3
   2374   2377   2378   2384     1  0.0000000  0.6508444  3
   2374   2373   2387   2393     1  0.0000000  0.6508444  3
   2374   2373   2395   2379     1  180.0000771  0.4184000  2
   2374   2373   2395   2379     1  0.0000000  1.6024720  3
   2377   2378   2379   2383     1  0.0000000  0.6508444  3
   2377   2378   2379   2395     1  0.0000000  0.6508444  3
   2377   2374   2373   2387     1  180.0000771  0.8368000  1
   2377   2374   2373   2387     1  180.0000771  1.0460000  2
   2377   2374   2373   2387     1  0.0000000  0.7531200  3
   2377   2374   2373   2395     1  0.0000000  0.6508444  3
   2378   2377   2374   2386     1  0.0000000  0.6508444  3
   2379   2395   2373   2387     1  180.0000771  0.4184000  2
   2379   2395   2373   2387     1  0.0000000  1.6024720  3
   2379   2378   2377   2385     1  0.0000000  0.6508444  3
   2383   2379   2378   2384     1  0.0000000  4.9162000  2
   2383   2379   2378   2384     1  0.0000000  0.6024960  3
   2384   2378   2379   2395     1  0.0000000  4.9162000  2
   2384   2378   2379   2395     1  0.0000000  0.6024960  3
   2384   2378   2377   2385     1  0.0000000  4.9162000  2
   2384   2378   2377   2385     1  0.0000000  0.6024960  3
   2385   2377   2374   2386     1  0.0000000  4.9162000  2
   2385   2377   2374   2386     1  0.0000000  0.6024960  3
   2386   2374   2373   2387     1  0.0000000  0.6508444  3
   2386   2374   2373   2395     1  0.0000000  4.9162000  2
   2386   2374   2373   2395     1  0.0000000  0.6024960  3
   2393   2387   2373   2395     1  0.0000000  4.9162000  2
   2393   2387   2373   2395     1  0.0000000  0.6024960  3
   2396   2397   2400   2401     1  180.0000771  0.8368000  1
   2396   2397   2400   2401     1  180.0000771  1.0460000  2
   2396   2397   2400   2401     1  0.0000000  0.7531200  3
   2396   2397   2400   2408     1  0.0000000  0.6508444  3
   2396   2418   2402   2401     1  180.0000771  0.4184000  2
   2396   2418   2402   2401     1  0.0000000  1.6024720  3
   2396   2418   2402   2406     1  180.0000771  5.6484000  1
   2396   2418   2402   2406     1  180.0000771  3.5564000  2
   2396   2418   2402   2406     1  0.0000000  0.4184000  3
   2397   2396   2410   2416     1  0.0000000  0.6508444  3
   2397   2396   2418   2402     1  180.0000771  0.4184000  2
   2397   2396   2418   2402     1  0.0000000  1.6024720  3
   2397   2400   2401   2402     1  180.0000771  0.8368000  1
   2397   2400   2401   2402     1  180.0000771  1.0460000  2
   2397   2400   2401   2402     1  0.0000000  0.7531200  3
   2397   2400   2401   2407     1  0.0000000  0.6508444  3
   2400   2397   2396   2410     1  180.0000771  0.8368000  1
   2400   2397   2396   2410     1  180.0000771  1.0460000  2
   2400   2397   2396   2410     1  0.0000000  0.7531200  3
   2400   2397   2396   2418     1  0.0000000  0.6508444  3
   2400   2401   2402   2406     1  0.0000000  0.6508444  3
   2400   2401   2402   2418     1  0.0000000  0.6508444  3
   2401   2400   2397   2409     1  0.0000000  0.6508444  3
   2402   2401   2400   2408     1  0.0000000  0.6508444  3
   2402   2418   2396   2410     1  180.0000771  0.4184000  2
   2402   2418   2396   2410     1  0.0000000  1.6024720  3
   2406   2402   2401   2407     1  0.0000000  4.9162000  2
   2406   2402   2401   2407     1  0.0000000  0.6024960  3
   2407   2401   2400   2408     1  0.0000000  4.9162000  2
   2407   2401   2400   2408     1  0.0000000  0.6024960  3
   2407   2401   2402   2418     1  0.0000000  4.9162000  2
   2407   2401   2402   2418     1  0.0000000  0.6024960  3
   2408   2400   2397   2409     1  0.0000000  4.9162000  2
   2408   2400   2397   2409     1  0.0000000  0.6024960  3
   2409   2397   2396   2410     1  0.0000000  0.6508444  3
   2409   2397   2396   2418     1  0.0000000  4.9162000  2
   2409   2397   2396   2418     1  0.0000000  0.6024960  3
   2416   2410   2396   2418     1  0.0000000  4.9162000  2
   2416   2410   2396   2418     1  0.0000000  0.6024960  3
   2419   2420   2423   2424     1  180.0000771  0.8368000  1
   2419   2420   2423   2424     1  180.0000771  1.0460000  2
   2419   2420   2423   2424     1  0.0000000  0.7531200  3
   2419   2420   2423   2431     1  0.0000000  0.6508444  3
   2419   2441   2425   2429     1  180.0000771  5.6484000  1
   2419   2441   2425   2429     1  180.0000771  3.5564000  2
   2419   2441   2425   2429     1  0.0000000  0.4184000  3
   2419   2441   2425   2424     1  180.0000771  0.4184000  2
   2419   2441   2425   2424     1  0.0000000  1.6024720  3
   2420   2423   2424   2425     1  180.0000771  0.8368000  1
   2420   2423   2424   2425     1  180.0000771  1.0460000  2
   2420   2423   2424   2425     1  0.0000000  0.7531200  3
   2420   2423   2424   2430     1  0.0000000  0.6508444  3
   2420   2419   2433   2439     1  0.0000000  0.6508444  3
   2420   2419   2441   2425     1  180.0000771  0.4184000  2
   2420   2419   2441   2425     1  0.0000000  1.6024720  3
   2423   2424   2425   2429     1  0.0000000  0.6508444  3
   2423   2424   2425   2441     1  0.0000000  0.6508444  3
   2423   2420   2419   2433     1  180.0000771  0.8368000  1
   2423   2420   2419   2433     1  180.0000771  1.0460000  2
   2423   2420   2419   2433     1  0.0000000  0.7531200  3
   2423   2420   2419   2441     1  0.0000000  0.6508444  3
   2424   2423   2420   2432     1  0.0000000  0.6508444  3
   2425   2441   2419   2433     1  180.0000771  0.4184000  2
   2425   2441   2419   2433     1  0.0000000  1.6024720  3
   2425   2424   2423   2431     1  0.0000000  0.6508444  3
   2429   2425   2424   2430     1  0.0000000  4.9162000  2
   2429   2425   2424   2430     1  0.0000000  0.6024960  3
   2430   2424   2425   2441     1  0.0000000  4.9162000  2
   2430   2424   2425   2441     1  0.0000000  0.6024960  3
   2430   2424   2423   2431     1  0.0000000  4.9162000  2
   2430   2424   2423   2431     1  0.0000000  0.6024960  3
   2431   2423   2420   2432     1  0.0000000  4.9162000  2
   2431   2423   2420   2432     1  0.0000000  0.6024960  3
   2432   2420   2419   2433     1  0.0000000  0.6508444  3
   2432   2420   2419   2441     1  0.0000000  4.9162000  2
   2432   2420   2419   2441     1  0.0000000  0.6024960  3
   2439   2433   2419   2441     1  0.0000000  4.9162000  2
   2439   2433   2419   2441     1  0.0000000  0.6024960  3
   2442   2443   2446   2447     1  180.0000771  0.8368000  1
   2442   2443   2446   2447     1  180.0000771  1.0460000  2
   2442   2443   2446   2447     1  0.0000000  0.7531200  3
   2442   2443   2446   2454     1  0.0000000  0.6508444  3
   2442   2464   2448   2447     1  180.0000771  0.4184000  2
   2442   2464   2448   2447     1  0.0000000  1.6024720  3
   2442   2464   2448   2452     1  180.0000771  5.6484000  1
   2442   2464   2448   2452     1  180.0000771  3.5564000  2
   2442   2464   2448   2452     1  0.0000000  0.4184000  3
   2443   2442   2456   2462     1  0.0000000  0.6508444  3
   2443   2442   2464   2448     1  180.0000771  0.4184000  2
   2443   2442   2464   2448     1  0.0000000  1.6024720  3
   2443   2446   2447   2448     1  180.0000771  0.8368000  1
   2443   2446   2447   2448     1  180.0000771  1.0460000  2
   2443   2446   2447   2448     1  0.0000000  0.7531200  3
   2443   2446   2447   2453     1  0.0000000  0.6508444  3
   2446   2443   2442   2456     1  180.0000771  0.8368000  1
   2446   2443   2442   2456     1  180.0000771  1.0460000  2
   2446   2443   2442   2456     1  0.0000000  0.7531200  3
   2446   2443   2442   2464     1  0.0000000  0.6508444  3
   2446   2447   2448   2452     1  0.0000000  0.6508444  3
   2446   2447   2448   2464     1  0.0000000  0.6508444  3
   2447   2446   2443   2455     1  0.0000000  0.6508444  3
   2448   2447   2446   2454     1  0.0000000  0.6508444  3
   2448   2464   2442   2456     1  180.0000771  0.4184000  2
   2448   2464   2442   2456     1  0.0000000  1.6024720  3
   2452   2448   2447   2453     1  0.0000000  4.9162000  2
   2452   2448   2447   2453     1  0.0000000  0.6024960  3
   2453   2447   2446   2454     1  0.0000000  4.9162000  2
   2453   2447   2446   2454     1  0.0000000  0.6024960  3
   2453   2447   2448   2464     1  0.0000000  4.9162000  2
   2453   2447   2448   2464     1  0.0000000  0.6024960  3
   2454   2446   2443   2455     1  0.0000000  4.9162000  2
   2454   2446   2443   2455     1  0.0000000  0.6024960  3
   2455   2443   2442   2456     1  0.0000000  0.6508444  3
   2455   2443   2442   2464     1  0.0000000  4.9162000  2
   2455   2443   2442   2464     1  0.0000000  0.6024960  3
   2462   2456   2442   2464     1  0.0000000  4.9162000  2
   2462   2456   2442   2464     1  0.0000000  0.6024960  3
   2465   2466   2469   2470     1  180.0000771  0.8368000  1
   2465   2466   2469   2470     1  180.0000771  1.0460000  2
   2465   2466   2469   2470     1  0.0000000  0.7531200  3
   2465   2466   2469   2477     1  0.0000000  0.6508444  3
   2465   2487   2471   2475     1  180.0000771  5.6484000  1
   2465   2487   2471   2475     1  180.0000771  3.5564000  2
   2465   2487   2471   2475     1  0.0000000  0.4184000  3
   2465   2487   2471   2470     1  180.0000771  0.4184000  2
   2465   2487   2471   2470     1  0.0000000  1.6024720  3
   2466   2469   2470   2471     1  180.0000771  0.8368000  1
   2466   2469   2470   2471     1  180.0000771  1.0460000  2
   2466   2469   2470   2471     1  0.0000000  0.7531200  3
   2466   2469   2470   2476     1  0.0000000  0.6508444  3
   2466   2465   2479   2485     1  0.0000000  0.6508444  3
   2466   2465   2487   2471     1  180.0000771  0.4184000  2
   2466   2465   2487   2471     1  0.0000000  1.6024720  3
   2469   2470   2471   2475     1  0.0000000  0.6508444  3
   2469   2470   2471   2487     1  0.0000000  0.6508444  3
   2469   2466   2465   2479     1  180.0000771  0.8368000  1
   2469   2466   2465   2479     1  180.0000771  1.0460000  2
   2469   2466   2465   2479     1  0.0000000  0.7531200  3
   2469   2466   2465   2487     1  0.0000000  0.6508444  3
   2470   2469   2466   2478     1  0.0000000  0.6508444  3
   2471   2487   2465   2479     1  180.0000771  0.4184000  2
   2471   2487   2465   2479     1  0.0000000  1.6024720  3
   2471   2470   2469   2477     1  0.0000000  0.6508444  3
   2475   2471   2470   2476     1  0.0000000  4.9162000  2
   2475   2471   2470   2476     1  0.0000000  0.6024960  3
   2476   2470   2471   2487     1  0.0000000  4.9162000  2
   2476   2470   2471   2487     1  0.0000000  0.6024960  3
   2476   2470   2469   2477     1  0.0000000  4.9162000  2
   2476   2470   2469   2477     1  0.0000000  0.6024960  3
   2477   2469   2466   2478     1  0.0000000  4.9162000  2
   2477   2469   2466   2478     1  0.0000000  0.6024960  3
   2478   2466   2465   2479     1  0.0000000  0.6508444  3
   2478   2466   2465   2487     1  0.0000000  4.9162000  2
   2478   2466   2465   2487     1  0.0000000  0.6024960  3
   2485   2479   2465   2487     1  0.0000000  4.9162000  2
   2485   2479   2465   2487     1  0.0000000  0.6024960  3
   2488   2489   2492   2493     1  180.0000771  0.8368000  1
   2488   2489   2492   2493     1  180.0000771  1.0460000  2
   2488   2489   2492   2493     1  0.0000000  0.7531200  3
   2488   2489   2492   2500     1  0.0000000  0.6508444  3
   2488   2510   2494   2493     1  180.0000771  0.4184000  2
   2488   2510   2494   2493     1  0.0000000  1.6024720  3
   2488   2510   2494   2498     1  180.0000771  5.6484000  1
   2488   2510   2494   2498     1  180.0000771  3.5564000  2
   2488   2510   2494   2498     1  0.0000000  0.4184000  3
   2489   2488   2502   2508     1  0.0000000  0.6508444  3
   2489   2488   2510   2494     1  180.0000771  0.4184000  2
   2489   2488   2510   2494     1  0.0000000  1.6024720  3
   2489   2492   2493   2494     1  180.0000771  0.8368000  1
   2489   2492   2493   2494     1  180.0000771  1.0460000  2
   2489   2492   2493   2494     1  0.0000000  0.7531200  3
   2489   2492   2493   2499     1  0.0000000  0.6508444  3
   2492   2489   2488   2502     1  180.0000771  0.8368000  1
   2492   2489   2488   2502     1  180.0000771  1.0460000  2
   2492   2489   2488   2502     1  0.0000000  0.7531200  3
   2492   2489   2488   2510     1  0.0000000  0.6508444  3
   2492   2493   2494   2498     1  0.0000000  0.6508444  3
   2492   2493   2494   2510     1  0.0000000  0.6508444  3
   2493   2492   2489   2501     1  0.0000000  0.6508444  3
   2494   2493   2492   2500     1  0.0000000  0.6508444  3
   2494   2510   2488   2502     1  180.0000771  0.4184000  2
   2494   2510   2488   2502     1  0.0000000  1.6024720  3
   2498   2494   2493   2499     1  0.0000000  4.9162000  2
   2498   2494   2493   2499     1  0.0000000  0.6024960  3
   2499   2493   2492   2500     1  0.0000000  4.9162000  2
   2499   2493   2492   2500     1  0.0000000  0.6024960  3
   2499   2493   2494   2510     1  0.0000000  4.9162000  2
   2499   2493   2494   2510     1  0.0000000  0.6024960  3
   2500   2492   2489   2501     1  0.0000000  4.9162000  2
   2500   2492   2489   2501     1  0.0000000  0.6024960  3
   2501   2489   2488   2502     1  0.0000000  0.6508444  3
   2501   2489   2488   2510     1  0.0000000  4.9162000  2
   2501   2489   2488   2510     1  0.0000000  0.6024960  3
   2508   2502   2488   2510     1  0.0000000  4.9162000  2
   2508   2502   2488   2510     1  0.0000000  0.6024960  3
   2511   2512   2515   2516     1  180.0000771  0.8368000  1
   2511   2512   2515   2516     1  180.0000771  1.0460000  2
   2511   2512   2515   2516     1  0.0000000  0.7531200  3
   2511   2512   2515   2523     1  0.0000000  0.6508444  3
   2511   2533   2517   2521     1  180.0000771  5.6484000  1
   2511   2533   2517   2521     1  180.0000771  3.5564000  2
   2511   2533   2517   2521     1  0.0000000  0.4184000  3
   2511   2533   2517   2516     1  180.0000771  0.4184000  2
   2511   2533   2517   2516     1  0.0000000  1.6024720  3
   2512   2515   2516   2517     1  180.0000771  0.8368000  1
   2512   2515   2516   2517     1  180.0000771  1.0460000  2
   2512   2515   2516   2517     1  0.0000000  0.7531200  3
   2512   2515   2516   2522     1  0.0000000  0.6508444  3
   2512   2511   2525   2531     1  0.0000000  0.6508444  3
   2512   2511   2533   2517     1  180.0000771  0.4184000  2
   2512   2511   2533   2517     1  0.0000000  1.6024720  3
   2515   2516   2517   2521     1  0.0000000  0.6508444  3
   2515   2516   2517   2533     1  0.0000000  0.6508444  3
   2515   2512   2511   2525     1  180.0000771  0.8368000  1
   2515   2512   2511   2525     1  180.0000771  1.0460000  2
   2515   2512   2511   2525     1  0.0000000  0.7531200  3
   2515   2512   2511   2533     1  0.0000000  0.6508444  3
   2516   2515   2512   2524     1  0.0000000  0.6508444  3
   2517   2533   2511   2525     1  180.0000771  0.4184000  2
   2517   2533   2511   2525     1  0.0000000  1.6024720  3
   2517   2516   2515   2523     1  0.0000000  0.6508444  3
   2521   2517   2516   2522     1  0.0000000  4.9162000  2
   2521   2517   2516   2522     1  0.0000000  0.6024960  3
   2522   2516   2517   2533     1  0.0000000  4.9162000  2
   2522   2516   2517   2533     1  0.0000000  0.6024960  3
   2522   2516   2515   2523     1  0.0000000  4.9162000  2
   2522   2516   2515   2523     1  0.0000000  0.6024960  3
   2523   2515   2512   2524     1  0.0000000  4.9162000  2
   2523   2515   2512   2524     1  0.0000000  0.6024960  3
   2524   2512   2511   2525     1  0.0000000  0.6508444  3
   2524   2512   2511   2533     1  0.0000000  4.9162000  2
   2524   2512   2511   2533     1  0.0000000  0.6024960  3
   2531   2525   2511   2533     1  0.0000000  4.9162000  2
   2531   2525   2511   2533     1  0.0000000  0.6024960  3
   2534   2535   2538   2539     1  180.0000771  0.8368000  1
   2534   2535   2538   2539     1  180.0000771  1.0460000  2
   2534   2535   2538   2539     1  0.0000000  0.7531200  3
   2534   2535   2538   2546     1  0.0000000  0.6508444  3
   2534   2556   2540   2539     1  180.0000771  0.4184000  2
   2534   2556   2540   2539     1  0.0000000  1.6024720  3
   2534   2556   2540   2544     1  180.0000771  5.6484000  1
   2534   2556   2540   2544     1  180.0000771  3.5564000  2
   2534   2556   2540   2544     1  0.0000000  0.4184000  3
   2535   2534   2548   2554     1  0.0000000  0.6508444  3
   2535   2534   2556   2540     1  180.0000771  0.4184000  2
   2535   2534   2556   2540     1  0.0000000  1.6024720  3
   2535   2538   2539   2540     1  180.0000771  0.8368000  1
   2535   2538   2539   2540     1  180.0000771  1.0460000  2
   2535   2538   2539   2540     1  0.0000000  0.7531200  3
   2535   2538   2539   2545     1  0.0000000  0.6508444  3
   2538   2535   2534   2548     1  180.0000771  0.8368000  1
   2538   2535   2534   2548     1  180.0000771  1.0460000  2
   2538   2535   2534   2548     1  0.0000000  0.7531200  3
   2538   2535   2534   2556     1  0.0000000  0.6508444  3
   2538   2539   2540   2544     1  0.0000000  0.6508444  3
   2538   2539   2540   2556     1  0.0000000  0.6508444  3
   2539   2538   2535   2547     1  0.0000000  0.6508444  3
   2540   2539   2538   2546     1  0.0000000  0.6508444  3
   2540   2556   2534   2548     1  180.0000771  0.4184000  2
   2540   2556   2534   2548     1  0.0000000  1.6024720  3
   2544   2540   2539   2545     1  0.0000000  4.9162000  2
   2544   2540   2539   2545     1  0.0000000  0.6024960  3
   2545   2539   2538   2546     1  0.0000000  4.9162000  2
   2545   2539   2538   2546     1  0.0000000  0.6024960  3
   2545   2539   2540   2556     1  0.0000000  4.9162000  2
   2545   2539   2540   2556     1  0.0000000  0.6024960  3
   2546   2538   2535   2547     1  0.0000000  4.9162000  2
   2546   2538   2535   2547     1  0.0000000  0.6024960  3
   2547   2535   2534   2548     1  0.0000000  0.6508444  3
   2547   2535   2534   2556     1  0.0000000  4.9162000  2
   2547   2535   2534   2556     1  0.0000000  0.6024960  3
   2554   2548   2534   2556     1  0.0000000  4.9162000  2
   2554   2548   2534   2556     1  0.0000000  0.6024960  3
   2557   2558   2561   2562     1  180.0000771  0.8368000  1
   2557   2558   2561   2562     1  180.0000771  1.0460000  2
   2557   2558   2561   2562     1  0.0000000  0.7531200  3
   2557   2558   2561   2569     1  0.0000000  0.6508444  3
   2557   2579   2563   2567     1  180.0000771  5.6484000  1
   2557   2579   2563   2567     1  180.0000771  3.5564000  2
   2557   2579   2563   2567     1  0.0000000  0.4184000  3
   2557   2579   2563   2562     1  180.0000771  0.4184000  2
   2557   2579   2563   2562     1  0.0000000  1.6024720  3
   2558   2561   2562   2563     1  180.0000771  0.8368000  1
   2558   2561   2562   2563     1  180.0000771  1.0460000  2
   2558   2561   2562   2563     1  0.0000000  0.7531200  3
   2558   2561   2562   2568     1  0.0000000  0.6508444  3
   2558   2557   2571   2577     1  0.0000000  0.6508444  3
   2558   2557   2579   2563     1  180.0000771  0.4184000  2
   2558   2557   2579   2563     1  0.0000000  1.6024720  3
   2561   2562   2563   2567     1  0.0000000  0.6508444  3
   2561   2562   2563   2579     1  0.0000000  0.6508444  3
   2561   2558   2557   2571     1  180.0000771  0.8368000  1
   2561   2558   2557   2571     1  180.0000771  1.0460000  2
   2561   2558   2557   2571     1  0.0000000  0.7531200  3
   2561   2558   2557   2579     1  0.0000000  0.6508444  3
   2562   2561   2558   2570     1  0.0000000  0.6508444  3
   2563   2579   2557   2571     1  180.0000771  0.4184000  2
   2563   2579   2557   2571     1  0.0000000  1.6024720  3
   2563   2562   2561   2569     1  0.0000000  0.6508444  3
   2567   2563   2562   2568     1  0.0000000  4.9162000  2
   2567   2563   2562   2568     1  0.0000000  0.6024960  3
   2568   2562   2563   2579     1  0.0000000  4.9162000  2
   2568   2562   2563   2579     1  0.0000000  0.6024960  3
   2568   2562   2561   2569     1  0.0000000  4.9162000  2
   2568   2562   2561   2569     1  0.0000000  0.6024960  3
   2569   2561   2558   2570     1  0.0000000  4.9162000  2
   2569   2561   2558   2570     1  0.0000000  0.6024960  3
   2570   2558   2557   2571     1  0.0000000  0.6508444  3
   2570   2558   2557   2579     1  0.0000000  4.9162000  2
   2570   2558   2557   2579     1  0.0000000  0.6024960  3
   2577   2571   2557   2579     1  0.0000000  4.9162000  2
   2577   2571   2557   2579     1  0.0000000  0.6024960  3
   2580   2581   2584   2585     1  180.0000771  0.8368000  1
   2580   2581   2584   2585     1  180.0000771  1.0460000  2
   2580   2581   2584   2585     1  0.0000000  0.7531200  3
   2580   2581   2584   2592     1  0.0000000  0.6508444  3
   2580   2602   2586   2585     1  180.0000771  0.4184000  2
   2580   2602   2586   2585     1  0.0000000  1.6024720  3
   2580   2602   2586   2590     1  180.0000771  5.6484000  1
   2580   2602   2586   2590     1  180.0000771  3.5564000  2
   2580   2602   2586   2590     1  0.0000000  0.4184000  3
   2581   2580   2594   2600     1  0.0000000  0.6508444  3
   2581   2580   2602   2586     1  180.0000771  0.4184000  2
   2581   2580   2602   2586     1  0.0000000  1.6024720  3
   2581   2584   2585   2586     1  180.0000771  0.8368000  1
   2581   2584   2585   2586     1  180.0000771  1.0460000  2
   2581   2584   2585   2586     1  0.0000000  0.7531200  3
   2581   2584   2585   2591     1  0.0000000  0.6508444  3
   2584   2581   2580   2594     1  180.0000771  0.8368000  1
   2584   2581   2580   2594     1  180.0000771  1.0460000  2
   2584   2581   2580   2594     1  0.0000000  0.7531200  3
   2584   2581   2580   2602     1  0.0000000  0.6508444  3
   2584   2585   2586   2590     1  0.0000000  0.6508444  3
   2584   2585   2586   2602     1  0.0000000  0.6508444  3
   2585   2584   2581   2593     1  0.0000000  0.6508444  3
   2586   2585   2584   2592     1  0.0000000  0.6508444  3
   2586   2602   2580   2594     1  180.0000771  0.4184000  2
   2586   2602   2580   2594     1  0.0000000  1.6024720  3
   2590   2586   2585   2591     1  0.0000000  4.9162000  2
   2590   2586   2585   2591     1  0.0000000  0.6024960  3
   2591   2585   2584   2592     1  0.0000000  4.9162000  2
   2591   2585   2584   2592     1  0.0000000  0.6024960  3
   2591   2585   2586   2602     1  0.0000000  4.9162000  2
   2591   2585   2586   2602     1  0.0000000  0.6024960  3
   2592   2584   2581   2593     1  0.0000000  4.9162000  2
   2592   2584   2581   2593     1  0.0000000  0.6024960  3
   2593   2581   2580   2594     1  0.0000000  0.6508444  3
   2593   2581   2580   2602     1  0.0000000  4.9162000  2
   2593   2581   2580   2602     1  0.0000000  0.6024960  3
   2600   2594   2580   2602     1  0.0000000  4.9162000  2
   2600   2594   2580   2602     1  0.0000000  0.6024960  3
   2603   2604   2607   2608     1  180.0000771  0.8368000  1
   2603   2604   2607   2608     1  180.0000771  1.0460000  2
   2603   2604   2607   2608     1  0.0000000  0.7531200  3
   2603   2604   2607   2615     1  0.0000000  0.6508444  3
   2603   2625   2609   2613     1  180.0000771  5.6484000  1
   2603   2625   2609   2613     1  180.0000771  3.5564000  2
   2603   2625   2609   2613     1  0.0000000  0.4184000  3
   2603   2625   2609   2608     1  180.0000771  0.4184000  2
   2603   2625   2609   2608     1  0.0000000  1.6024720  3
   2604   2607   2608   2609     1  180.0000771  0.8368000  1
   2604   2607   2608   2609     1  180.0000771  1.0460000  2
   2604   2607   2608   2609     1  0.0000000  0.7531200  3
   2604   2607   2608   2614     1  0.0000000  0.6508444  3
   2604   2603   2617   2623     1  0.0000000  0.6508444  3
   2604   2603   2625   2609     1  180.0000771  0.4184000  2
   2604   2603   2625   2609     1  0.0000000  1.6024720  3
   2607   2608   2609   2613     1  0.0000000  0.6508444  3
   2607   2608   2609   2625     1  0.0000000  0.6508444  3
   2607   2604   2603   2617     1  180.0000771  0.8368000  1
   2607   2604   2603   2617     1  180.0000771  1.0460000  2
   2607   2604   2603   2617     1  0.0000000  0.7531200  3
   2607   2604   2603   2625     1  0.0000000  0.6508444  3
   2608   2607   2604   2616     1  0.0000000  0.6508444  3
   2609   2625   2603   2617     1  180.0000771  0.4184000  2
   2609   2625   2603   2617     1  0.0000000  1.6024720  3
   2609   2608   2607   2615     1  0.0000000  0.6508444  3
   2613   2609   2608   2614     1  0.0000000  4.9162000  2
   2613   2609   2608   2614     1  0.0000000  0.6024960  3
   2614   2608   2609   2625     1  0.0000000  4.9162000  2
   2614   2608   2609   2625     1  0.0000000  0.6024960  3
   2614   2608   2607   2615     1  0.0000000  4.9162000  2
   2614   2608   2607   2615     1  0.0000000  0.6024960  3
   2615   2607   2604   2616     1  0.0000000  4.9162000  2
   2615   2607   2604   2616     1  0.0000000  0.6024960  3
   2616   2604   2603   2617     1  0.0000000  0.6508444  3
   2616   2604   2603   2625     1  0.0000000  4.9162000  2
   2616   2604   2603   2625     1  0.0000000  0.6024960  3
   2623   2617   2603   2625     1  0.0000000  4.9162000  2
   2623   2617   2603   2625     1  0.0000000  0.6024960  3
   2626   2627   2630   2631     1  180.0000771  0.8368000  1
   2626   2627   2630   2631     1  180.0000771  1.0460000  2
   2626   2627   2630   2631     1  0.0000000  0.7531200  3
   2626   2627   2630   2638     1  0.0000000  0.6508444  3
   2626   2648   2632   2631     1  180.0000771  0.4184000  2
   2626   2648   2632   2631     1  0.0000000  1.6024720  3
   2626   2648   2632   2636     1  180.0000771  5.6484000  1
   2626   2648   2632   2636     1  180.0000771  3.5564000  2
   2626   2648   2632   2636     1  0.0000000  0.4184000  3
   2627   2626   2640   2646     1  0.0000000  0.6508444  3
   2627   2626   2648   2632     1  180.0000771  0.4184000  2
   2627   2626   2648   2632     1  0.0000000  1.6024720  3
   2627   2630   2631   2632     1  180.0000771  0.8368000  1
   2627   2630   2631   2632     1  180.0000771  1.0460000  2
   2627   2630   2631   2632     1  0.0000000  0.7531200  3
   2627   2630   2631   2637     1  0.0000000  0.6508444  3
   2630   2627   2626   2640     1  180.0000771  0.8368000  1
   2630   2627   2626   2640     1  180.0000771  1.0460000  2
   2630   2627   2626   2640     1  0.0000000  0.7531200  3
   2630   2627   2626   2648     1  0.0000000  0.6508444  3
   2630   2631   2632   2636     1  0.0000000  0.6508444  3
   2630   2631   2632   2648     1  0.0000000  0.6508444  3
   2631   2630   2627   2639     1  0.0000000  0.6508444  3
   2632   2631   2630   2638     1  0.0000000  0.6508444  3
   2632   2648   2626   2640     1  180.0000771  0.4184000  2
   2632   2648   2626   2640     1  0.0000000  1.6024720  3
   2636   2632   2631   2637     1  0.0000000  4.9162000  2
   2636   2632   2631   2637     1  0.0000000  0.6024960  3
   2637   2631   2630   2638     1  0.0000000  4.9162000  2
   2637   2631   2630   2638     1  0.0000000  0.6024960  3
   2637   2631   2632   2648     1  0.0000000  4.9162000  2
   2637   2631   2632   2648     1  0.0000000  0.6024960  3
   2638   2630   2627   2639     1  0.0000000  4.9162000  2
   2638   2630   2627   2639     1  0.0000000  0.6024960  3
   2639   2627   2626   2640     1  0.0000000  0.6508444  3
   2639   2627   2626   2648     1  0.0000000  4.9162000  2
   2639   2627   2626   2648     1  0.0000000  0.6024960  3
   2646   2640   2626   2648     1  0.0000000  4.9162000  2
   2646   2640   2626   2648     1  0.0000000  0.6024960  3
   2649   2650   2653   2654     1  180.0000771  0.8368000  1
   2649   2650   2653   2654     1  180.0000771  1.0460000  2
   2649   2650   2653   2654     1  0.0000000  0.7531200  3
   2649   2650   2653   2661     1  0.0000000  0.6508444  3
   2649   2671   2655   2659     1  180.0000771  5.6484000  1
   2649   2671   2655   2659     1  180.0000771  3.5564000  2
   2649   2671   2655   2659     1  0.0000000  0.4184000  3
   2649   2671   2655   2654     1  180.0000771  0.4184000  2
   2649   2671   2655   2654     1  0.0000000  1.6024720  3
   2650   2653   2654   2655     1  180.0000771  0.8368000  1
   2650   2653   2654   2655     1  180.0000771  1.0460000  2
   2650   2653   2654   2655     1  0.0000000  0.7531200  3
   2650   2653   2654   2660     1  0.0000000  0.6508444  3
   2650   2649   2663   2669     1  0.0000000  0.6508444  3
   2650   2649   2671   2655     1  180.0000771  0.4184000  2
   2650   2649   2671   2655     1  0.0000000  1.6024720  3
   2653   2654   2655   2659     1  0.0000000  0.6508444  3
   2653   2654   2655   2671     1  0.0000000  0.6508444  3
   2653   2650   2649   2663     1  180.0000771  0.8368000  1
   2653   2650   2649   2663     1  180.0000771  1.0460000  2
   2653   2650   2649   2663     1  0.0000000  0.7531200  3
   2653   2650   2649   2671     1  0.0000000  0.6508444  3
   2654   2653   2650   2662     1  0.0000000  0.6508444  3
   2655   2671   2649   2663     1  180.0000771  0.4184000  2
   2655   2671   2649   2663     1  0.0000000  1.6024720  3
   2655   2654   2653   2661     1  0.0000000  0.6508444  3
   2659   2655   2654   2660     1  0.0000000  4.9162000  2
   2659   2655   2654   2660     1  0.0000000  0.6024960  3
   2660   2654   2655   2671     1  0.0000000  4.9162000  2
   2660   2654   2655   2671     1  0.0000000  0.6024960  3
   2660   2654   2653   2661     1  0.0000000  4.9162000  2
   2660   2654   2653   2661     1  0.0000000  0.6024960  3
   2661   2653   2650   2662     1  0.0000000  4.9162000  2
   2661   2653   2650   2662     1  0.0000000  0.6024960  3
   2662   2650   2649   2663     1  0.0000000  0.6508444  3
   2662   2650   2649   2671     1  0.0000000  4.9162000  2
   2662   2650   2649   2671     1  0.0000000  0.6024960  3
   2669   2663   2649   2671     1  0.0000000  4.9162000  2
   2669   2663   2649   2671     1  0.0000000  0.6024960  3
   2672   2673   2676   2677     1  180.0000771  0.8368000  1
   2672   2673   2676   2677     1  180.0000771  1.0460000  2
   2672   2673   2676   2677     1  0.0000000  0.7531200  3
   2672   2673   2676   2684     1  0.0000000  0.6508444  3
   2672   2694   2678   2677     1  180.0000771  0.4184000  2
   2672   2694   2678   2677     1  0.0000000  1.6024720  3
   2672   2694   2678   2682     1  180.0000771  5.6484000  1
   2672   2694   2678   2682     1  180.0000771  3.5564000  2
   2672   2694   2678   2682     1  0.0000000  0.4184000  3
   2673   2672   2686   2692     1  0.0000000  0.6508444  3
   2673   2672   2694   2678     1  180.0000771  0.4184000  2
   2673   2672   2694   2678     1  0.0000000  1.6024720  3
   2673   2676   2677   2678     1  180.0000771  0.8368000  1
   2673   2676   2677   2678     1  180.0000771  1.0460000  2
   2673   2676   2677   2678     1  0.0000000  0.7531200  3
   2673   2676   2677   2683     1  0.0000000  0.6508444  3
   2676   2673   2672   2686     1  180.0000771  0.8368000  1
   2676   2673   2672   2686     1  180.0000771  1.0460000  2
   2676   2673   2672   2686     1  0.0000000  0.7531200  3
   2676   2673   2672   2694     1  0.0000000  0.6508444  3
   2676   2677   2678   2682     1  0.0000000  0.6508444  3
   2676   2677   2678   2694     1  0.0000000  0.6508444  3
   2677   2676   2673   2685     1  0.0000000  0.6508444  3
   2678   2677   2676   2684     1  0.0000000  0.6508444  3
   2678   2694   2672   2686     1  180.0000771  0.4184000  2
   2678   2694   2672   2686     1  0.0000000  1.6024720  3
   2682   2678   2677   2683     1  0.0000000  4.9162000  2
   2682   2678   2677   2683     1  0.0000000  0.6024960  3
   2683   2677   2676   2684     1  0.0000000  4.9162000  2
   2683   2677   2676   2684     1  0.0000000  0.6024960  3
   2683   2677   2678   2694     1  0.0000000  4.9162000  2
   2683   2677   2678   2694     1  0.0000000  0.6024960  3
   2684   2676   2673   2685     1  0.0000000  4.9162000  2
   2684   2676   2673   2685     1  0.0000000  0.6024960  3
   2685   2673   2672   2686     1  0.0000000  0.6508444  3
   2685   2673   2672   2694     1  0.0000000  4.9162000  2
   2685   2673   2672   2694     1  0.0000000  0.6024960  3
   2692   2686   2672   2694     1  0.0000000  4.9162000  2
   2692   2686   2672   2694     1  0.0000000  0.6024960  3
   2695   2696   2699   2700     1  180.0000771  0.8368000  1
   2695   2696   2699   2700     1  180.0000771  1.0460000  2
   2695   2696   2699   2700     1  0.0000000  0.7531200  3
   2695   2696   2699   2707     1  0.0000000  0.6508444  3
   2695   2717   2701   2705     1  180.0000771  5.6484000  1
   2695   2717   2701   2705     1  180.0000771  3.5564000  2
   2695   2717   2701   2705     1  0.0000000  0.4184000  3
   2695   2717   2701   2700     1  180.0000771  0.4184000  2
   2695   2717   2701   2700     1  0.0000000  1.6024720  3
   2696   2699   2700   2701     1  180.0000771  0.8368000  1
   2696   2699   2700   2701     1  180.0000771  1.0460000  2
   2696   2699   2700   2701     1  0.0000000  0.7531200  3
   2696   2699   2700   2706     1  0.0000000  0.6508444  3
   2696   2695   2709   2715     1  0.0000000  0.6508444  3
   2696   2695   2717   2701     1  180.0000771  0.4184000  2
   2696   2695   2717   2701     1  0.0000000  1.6024720  3
   2699   2700   2701   2705     1  0.0000000  0.6508444  3
   2699   2700   2701   2717     1  0.0000000  0.6508444  3
   2699   2696   2695   2709     1  180.0000771  0.8368000  1
   2699   2696   2695   2709     1  180.0000771  1.0460000  2
   2699   2696   2695   2709     1  0.0000000  0.7531200  3
   2699   2696   2695   2717     1  0.0000000  0.6508444  3
   2700   2699   2696   2708     1  0.0000000  0.6508444  3
   2701   2717   2695   2709     1  180.0000771  0.4184000  2
   2701   2717   2695   2709     1  0.0000000  1.6024720  3
   2701   2700   2699   2707     1  0.0000000  0.6508444  3
   2705   2701   2700   2706     1  0.0000000  4.9162000  2
   2705   2701   2700   2706     1  0.0000000  0.6024960  3
   2706   2700   2701   2717     1  0.0000000  4.9162000  2
   2706   2700   2701   2717     1  0.0000000  0.6024960  3
   2706   2700   2699   2707     1  0.0000000  4.9162000  2
   2706   2700   2699   2707     1  0.0000000  0.6024960  3
   2707   2699   2696   2708     1  0.0000000  4.9162000  2
   2707   2699   2696   2708     1  0.0000000  0.6024960  3
   2708   2696   2695   2709     1  0.0000000  0.6508444  3
   2708   2696   2695   2717     1  0.0000000  4.9162000  2
   2708   2696   2695   2717     1  0.0000000  0.6024960  3
   2715   2709   2695   2717     1  0.0000000  4.9162000  2
   2715   2709   2695   2717     1  0.0000000  0.6024960  3
   2718   2719   2722   2723     1  180.0000771  0.8368000  1
   2718   2719   2722   2723     1  180.0000771  1.0460000  2
   2718   2719   2722   2723     1  0.0000000  0.7531200  3
   2718   2719   2722   2730     1  0.0000000  0.6508444  3
   2718   2740   2724   2723     1  180.0000771  0.4184000  2
   2718   2740   2724   2723     1  0.0000000  1.6024720  3
   2718   2740   2724   2728     1  180.0000771  5.6484000  1
   2718   2740   2724   2728     1  180.0000771  3.5564000  2
   2718   2740   2724   2728     1  0.0000000  0.4184000  3
   2719   2718   2732   2738     1  0.0000000  0.6508444  3
   2719   2718   2740   2724     1  180.0000771  0.4184000  2
   2719   2718   2740   2724     1  0.0000000  1.6024720  3
   2719   2722   2723   2724     1  180.0000771  0.8368000  1
   2719   2722   2723   2724     1  180.0000771  1.0460000  2
   2719   2722   2723   2724     1  0.0000000  0.7531200  3
   2719   2722   2723   2729     1  0.0000000  0.6508444  3
   2722   2719   2718   2732     1  180.0000771  0.8368000  1
   2722   2719   2718   2732     1  180.0000771  1.0460000  2
   2722   2719   2718   2732     1  0.0000000  0.7531200  3
   2722   2719   2718   2740     1  0.0000000  0.6508444  3
   2722   2723   2724   2728     1  0.0000000  0.6508444  3
   2722   2723   2724   2740     1  0.0000000  0.6508444  3
   2723   2722   2719   2731     1  0.0000000  0.6508444  3
   2724   2723   2722   2730     1  0.0000000  0.6508444  3
   2724   2740   2718   2732     1  180.0000771  0.4184000  2
   2724   2740   2718   2732     1  0.0000000  1.6024720  3
   2728   2724   2723   2729     1  0.0000000  4.9162000  2
   2728   2724   2723   2729     1  0.0000000  0.6024960  3
   2729   2723   2722   2730     1  0.0000000  4.9162000  2
   2729   2723   2722   2730     1  0.0000000  0.6024960  3
   2729   2723   2724   2740     1  0.0000000  4.9162000  2
   2729   2723   2724   2740     1  0.0000000  0.6024960  3
   2730   2722   2719   2731     1  0.0000000  4.9162000  2
   2730   2722   2719   2731     1  0.0000000  0.6024960  3
   2731   2719   2718   2732     1  0.0000000  0.6508444  3
   2731   2719   2718   2740     1  0.0000000  4.9162000  2
   2731   2719   2718   2740     1  0.0000000  0.6024960  3
   2738   2732   2718   2740     1  0.0000000  4.9162000  2
   2738   2732   2718   2740     1  0.0000000  0.6024960  3
   2741   2742   2745   2746     1  180.0000771  0.8368000  1
   2741   2742   2745   2746     1  180.0000771  1.0460000  2
   2741   2742   2745   2746     1  0.0000000  0.7531200  3
   2741   2742   2745   2753     1  0.0000000  0.6508444  3
   2741   2763   2747   2751     1  180.0000771  5.6484000  1
   2741   2763   2747   2751     1  180.0000771  3.5564000  2
   2741   2763   2747   2751     1  0.0000000  0.4184000  3
   2741   2763   2747   2746     1  180.0000771  0.4184000  2
   2741   2763   2747   2746     1  0.0000000  1.6024720  3
   2742   2745   2746   2747     1  180.0000771  0.8368000  1
   2742   2745   2746   2747     1  180.0000771  1.0460000  2
   2742   2745   2746   2747     1  0.0000000  0.7531200  3
   2742   2745   2746   2752     1  0.0000000  0.6508444  3
   2742   2741   2755   2761     1  0.0000000  0.6508444  3
   2742   2741   2763   2747     1  180.0000771  0.4184000  2
   2742   2741   2763   2747     1  0.0000000  1.6024720  3
   2745   2746   2747   2751     1  0.0000000  0.6508444  3
   2745   2746   2747   2763     1  0.0000000  0.6508444  3
   2745   2742   2741   2755     1  180.0000771  0.8368000  1
   2745   2742   2741   2755     1  180.0000771  1.0460000  2
   2745   2742   2741   2755     1  0.0000000  0.7531200  3
   2745   2742   2741   2763     1  0.0000000  0.6508444  3
   2746   2745   2742   2754     1  0.0000000  0.6508444  3
   2747   2763   2741   2755     1  180.0000771  0.4184000  2
   2747   2763   2741   2755     1  0.0000000  1.6024720  3
   2747   2746   2745   2753     1  0.0000000  0.6508444  3
   2751   2747   2746   2752     1  0.0000000  4.9162000  2
   2751   2747   2746   2752     1  0.0000000  0.6024960  3
   2752   2746   2747   2763     1  0.0000000  4.9162000  2
   2752   2746   2747   2763     1  0.0000000  0.6024960  3
   2752   2746   2745   2753     1  0.0000000  4.9162000  2
   2752   2746   2745   2753     1  0.0000000  0.6024960  3
   2753   2745   2742   2754     1  0.0000000  4.9162000  2
   2753   2745   2742   2754     1  0.0000000  0.6024960  3
   2754   2742   2741   2755     1  0.0000000  0.6508444  3
   2754   2742   2741   2763     1  0.0000000  4.9162000  2
   2754   2742   2741   2763     1  0.0000000  0.6024960  3
   2761   2755   2741   2763     1  0.0000000  4.9162000  2
   2761   2755   2741   2763     1  0.0000000  0.6024960  3
   2764   2765   2768   2769     1  180.0000771  0.8368000  1
   2764   2765   2768   2769     1  180.0000771  1.0460000  2
   2764   2765   2768   2769     1  0.0000000  0.7531200  3
   2764   2765   2768   2776     1  0.0000000  0.6508444  3
   2764   2786   2770   2769     1  180.0000771  0.4184000  2
   2764   2786   2770   2769     1  0.0000000  1.6024720  3
   2764   2786   2770   2774     1  180.0000771  5.6484000  1
   2764   2786   2770   2774     1  180.0000771  3.5564000  2
   2764   2786   2770   2774     1  0.0000000  0.4184000  3
   2765   2764   2778   2784     1  0.0000000  0.6508444  3
   2765   2764   2786   2770     1  180.0000771  0.4184000  2
   2765   2764   2786   2770     1  0.0000000  1.6024720  3
   2765   2768   2769   2770     1  180.0000771  0.8368000  1
   2765   2768   2769   2770     1  180.0000771  1.0460000  2
   2765   2768   2769   2770     1  0.0000000  0.7531200  3
   2765   2768   2769   2775     1  0.0000000  0.6508444  3
   2768   2765   2764   2778     1  180.0000771  0.8368000  1
   2768   2765   2764   2778     1  180.0000771  1.0460000  2
   2768   2765   2764   2778     1  0.0000000  0.7531200  3
   2768   2765   2764   2786     1  0.0000000  0.6508444  3
   2768   2769   2770   2774     1  0.0000000  0.6508444  3
   2768   2769   2770   2786     1  0.0000000  0.6508444  3
   2769   2768   2765   2777     1  0.0000000  0.6508444  3
   2770   2769   2768   2776     1  0.0000000  0.6508444  3
   2770   2786   2764   2778     1  180.0000771  0.4184000  2
   2770   2786   2764   2778     1  0.0000000  1.6024720  3
   2774   2770   2769   2775     1  0.0000000  4.9162000  2
   2774   2770   2769   2775     1  0.0000000  0.6024960  3
   2775   2769   2768   2776     1  0.0000000  4.9162000  2
   2775   2769   2768   2776     1  0.0000000  0.6024960  3
   2775   2769   2770   2786     1  0.0000000  4.9162000  2
   2775   2769   2770   2786     1  0.0000000  0.6024960  3
   2776   2768   2765   2777     1  0.0000000  4.9162000  2
   2776   2768   2765   2777     1  0.0000000  0.6024960  3
   2777   2765   2764   2778     1  0.0000000  0.6508444  3
   2777   2765   2764   2786     1  0.0000000  4.9162000  2
   2777   2765   2764   2786     1  0.0000000  0.6024960  3
   2784   2778   2764   2786     1  0.0000000  4.9162000  2
   2784   2778   2764   2786     1  0.0000000  0.6024960  3
   2787   2788   2791   2792     1  180.0000771  0.8368000  1
   2787   2788   2791   2792     1  180.0000771  1.0460000  2
   2787   2788   2791   2792     1  0.0000000  0.7531200  3
   2787   2788   2791   2799     1  0.0000000  0.6508444  3
   2787   2809   2793   2797     1  180.0000771  5.6484000  1
   2787   2809   2793   2797     1  180.0000771  3.5564000  2
   2787   2809   2793   2797     1  0.0000000  0.4184000  3
   2787   2809   2793   2792     1  180.0000771  0.4184000  2
   2787   2809   2793   2792     1  0.0000000  1.6024720  3
   2788   2791   2792   2793     1  180.0000771  0.8368000  1
   2788   2791   2792   2793     1  180.0000771  1.0460000  2
   2788   2791   2792   2793     1  0.0000000  0.7531200  3
   2788   2791   2792   2798     1  0.0000000  0.6508444  3
   2788   2787   2801   2807     1  0.0000000  0.6508444  3
   2788   2787   2809   2793     1  180.0000771  0.4184000  2
   2788   2787   2809   2793     1  0.0000000  1.6024720  3
   2791   2792   2793   2797     1  0.0000000  0.6508444  3
   2791   2792   2793   2809     1  0.0000000  0.6508444  3
   2791   2788   2787   2801     1  180.0000771  0.8368000  1
   2791   2788   2787   2801     1  180.0000771  1.0460000  2
   2791   2788   2787   2801     1  0.0000000  0.7531200  3
   2791   2788   2787   2809     1  0.0000000  0.6508444  3
   2792   2791   2788   2800     1  0.0000000  0.6508444  3
   2793   2809   2787   2801     1  180.0000771  0.4184000  2
   2793   2809   2787   2801     1  0.0000000  1.6024720  3
   2793   2792   2791   2799     1  0.0000000  0.6508444  3
   2797   2793   2792   2798     1  0.0000000  4.9162000  2
   2797   2793   2792   2798     1  0.0000000  0.6024960  3
   2798   2792   2793   2809     1  0.0000000  4.9162000  2
   2798   2792   2793   2809     1  0.0000000  0.6024960  3
   2798   2792   2791   2799     1  0.0000000  4.9162000  2
   2798   2792   2791   2799     1  0.0000000  0.6024960  3
   2799   2791   2788   2800     1  0.0000000  4.9162000  2
   2799   2791   2788   2800     1  0.0000000  0.6024960  3
   2800   2788   2787   2801     1  0.0000000  0.6508444  3
   2800   2788   2787   2809     1  0.0000000  4.9162000  2
   2800   2788   2787   2809     1  0.0000000  0.6024960  3
   2807   2801   2787   2809     1  0.0000000  4.9162000  2
   2807   2801   2787   2809     1  0.0000000  0.6024960  3
   2810   2811   2814   2815     1  180.0000771  0.8368000  1
   2810   2811   2814   2815     1  180.0000771  1.0460000  2
   2810   2811   2814   2815     1  0.0000000  0.7531200  3
   2810   2811   2814   2822     1  0.0000000  0.6508444  3
   2810   2832   2816   2815     1  180.0000771  0.4184000  2
   2810   2832   2816   2815     1  0.0000000  1.6024720  3
   2810   2832   2816   2820     1  180.0000771  5.6484000  1
   2810   2832   2816   2820     1  180.0000771  3.5564000  2
   2810   2832   2816   2820     1  0.0000000  0.4184000  3
   2811   2810   2824   2830     1  0.0000000  0.6508444  3
   2811   2810   2832   2816     1  180.0000771  0.4184000  2
   2811   2810   2832   2816     1  0.0000000  1.6024720  3
   2811   2814   2815   2816     1  180.0000771  0.8368000  1
   2811   2814   2815   2816     1  180.0000771  1.0460000  2
   2811   2814   2815   2816     1  0.0000000  0.7531200  3
   2811   2814   2815   2821     1  0.0000000  0.6508444  3
   2814   2811   2810   2824     1  180.0000771  0.8368000  1
   2814   2811   2810   2824     1  180.0000771  1.0460000  2
   2814   2811   2810   2824     1  0.0000000  0.7531200  3
   2814   2811   2810   2832     1  0.0000000  0.6508444  3
   2814   2815   2816   2820     1  0.0000000  0.6508444  3
   2814   2815   2816   2832     1  0.0000000  0.6508444  3
   2815   2814   2811   2823     1  0.0000000  0.6508444  3
   2816   2815   2814   2822     1  0.0000000  0.6508444  3
   2816   2832   2810   2824     1  180.0000771  0.4184000  2
   2816   2832   2810   2824     1  0.0000000  1.6024720  3
   2820   2816   2815   2821     1  0.0000000  4.9162000  2
   2820   2816   2815   2821     1  0.0000000  0.6024960  3
   2821   2815   2814   2822     1  0.0000000  4.9162000  2
   2821   2815   2814   2822     1  0.0000000  0.6024960  3
   2821   2815   2816   2832     1  0.0000000  4.9162000  2
   2821   2815   2816   2832     1  0.0000000  0.6024960  3
   2822   2814   2811   2823     1  0.0000000  4.9162000  2
   2822   2814   2811   2823     1  0.0000000  0.6024960  3
   2823   2811   2810   2824     1  0.0000000  0.6508444  3
   2823   2811   2810   2832     1  0.0000000  4.9162000  2
   2823   2811   2810   2832     1  0.0000000  0.6024960  3
   2830   2824   2810   2832     1  0.0000000  4.9162000  2
   2830   2824   2810   2832     1  0.0000000  0.6024960  3
   2833   2834   2837   2838     1  180.0000771  0.8368000  1
   2833   2834   2837   2838     1  180.0000771  1.0460000  2
   2833   2834   2837   2838     1  0.0000000  0.7531200  3
   2833   2834   2837   2845     1  0.0000000  0.6508444  3
   2833   2855   2839   2843     1  180.0000771  5.6484000  1
   2833   2855   2839   2843     1  180.0000771  3.5564000  2
   2833   2855   2839   2843     1  0.0000000  0.4184000  3
   2833   2855   2839   2838     1  180.0000771  0.4184000  2
   2833   2855   2839   2838     1  0.0000000  1.6024720  3
   2834   2837   2838   2839     1  180.0000771  0.8368000  1
   2834   2837   2838   2839     1  180.0000771  1.0460000  2
   2834   2837   2838   2839     1  0.0000000  0.7531200  3
   2834   2837   2838   2844     1  0.0000000  0.6508444  3
   2834   2833   2847   2853     1  0.0000000  0.6508444  3
   2834   2833   2855   2839     1  180.0000771  0.4184000  2
   2834   2833   2855   2839     1  0.0000000  1.6024720  3
   2837   2838   2839   2843     1  0.0000000  0.6508444  3
   2837   2838   2839   2855     1  0.0000000  0.6508444  3
   2837   2834   2833   2847     1  180.0000771  0.8368000  1
   2837   2834   2833   2847     1  180.0000771  1.0460000  2
   2837   2834   2833   2847     1  0.0000000  0.7531200  3
   2837   2834   2833   2855     1  0.0000000  0.6508444  3
   2838   2837   2834   2846     1  0.0000000  0.6508444  3
   2839   2855   2833   2847     1  180.0000771  0.4184000  2
   2839   2855   2833   2847     1  0.0000000  1.6024720  3
   2839   2838   2837   2845     1  0.0000000  0.6508444  3
   2843   2839   2838   2844     1  0.0000000  4.9162000  2
   2843   2839   2838   2844     1  0.0000000  0.6024960  3
   2844   2838   2839   2855     1  0.0000000  4.9162000  2
   2844   2838   2839   2855     1  0.0000000  0.6024960  3
   2844   2838   2837   2845     1  0.0000000  4.9162000  2
   2844   2838   2837   2845     1  0.0000000  0.6024960  3
   2845   2837   2834   2846     1  0.0000000  4.9162000  2
   2845   2837   2834   2846     1  0.0000000  0.6024960  3
   2846   2834   2833   2847     1  0.0000000  0.6508444  3
   2846   2834   2833   2855     1  0.0000000  4.9162000  2
   2846   2834   2833   2855     1  0.0000000  0.6024960  3
   2853   2847   2833   2855     1  0.0000000  4.9162000  2
   2853   2847   2833   2855     1  0.0000000  0.6024960  3
   2856   2857   2860   2861     1  180.0000771  0.8368000  1
   2856   2857   2860   2861     1  180.0000771  1.0460000  2
   2856   2857   2860   2861     1  0.0000000  0.7531200  3
   2856   2857   2860   2868     1  0.0000000  0.6508444  3
   2856   2878   2862   2861     1  180.0000771  0.4184000  2
   2856   2878   2862   2861     1  0.0000000  1.6024720  3
   2856   2878   2862   2866     1  180.0000771  5.6484000  1
   2856   2878   2862   2866     1  180.0000771  3.5564000  2
   2856   2878   2862   2866     1  0.0000000  0.4184000  3
   2857   2856   2870   2876     1  0.0000000  0.6508444  3
   2857   2856   2878   2862     1  180.0000771  0.4184000  2
   2857   2856   2878   2862     1  0.0000000  1.6024720  3
   2857   2860   2861   2862     1  180.0000771  0.8368000  1
   2857   2860   2861   2862     1  180.0000771  1.0460000  2
   2857   2860   2861   2862     1  0.0000000  0.7531200  3
   2857   2860   2861   2867     1  0.0000000  0.6508444  3
   2860   2857   2856   2870     1  180.0000771  0.8368000  1
   2860   2857   2856   2870     1  180.0000771  1.0460000  2
   2860   2857   2856   2870     1  0.0000000  0.7531200  3
   2860   2857   2856   2878     1  0.0000000  0.6508444  3
   2860   2861   2862   2866     1  0.0000000  0.6508444  3
   2860   2861   2862   2878     1  0.0000000  0.6508444  3
   2861   2860   2857   2869     1  0.0000000  0.6508444  3
   2862   2861   2860   2868     1  0.0000000  0.6508444  3
   2862   2878   2856   2870     1  180.0000771  0.4184000  2
   2862   2878   2856   2870     1  0.0000000  1.6024720  3
   2866   2862   2861   2867     1  0.0000000  4.9162000  2
   2866   2862   2861   2867     1  0.0000000  0.6024960  3
   2867   2861   2860   2868     1  0.0000000  4.9162000  2
   2867   2861   2860   2868     1  0.0000000  0.6024960  3
   2867   2861   2862   2878     1  0.0000000  4.9162000  2
   2867   2861   2862   2878     1  0.0000000  0.6024960  3
   2868   2860   2857   2869     1  0.0000000  4.9162000  2
   2868   2860   2857   2869     1  0.0000000  0.6024960  3
   2869   2857   2856   2870     1  0.0000000  0.6508444  3
   2869   2857   2856   2878     1  0.0000000  4.9162000  2
   2869   2857   2856   2878     1  0.0000000  0.6024960  3
   2876   2870   2856   2878     1  0.0000000  4.9162000  2
   2876   2870   2856   2878     1  0.0000000  0.6024960  3
   2879   2880   2883   2884     1  180.0000771  0.8368000  1
   2879   2880   2883   2884     1  180.0000771  1.0460000  2
   2879   2880   2883   2884     1  0.0000000  0.7531200  3
   2879   2880   2883   2891     1  0.0000000  0.6508444  3
   2879   2901   2885   2889     1  180.0000771  5.6484000  1
   2879   2901   2885   2889     1  180.0000771  3.5564000  2
   2879   2901   2885   2889     1  0.0000000  0.4184000  3
   2879   2901   2885   2884     1  180.0000771  0.4184000  2
   2879   2901   2885   2884     1  0.0000000  1.6024720  3
   2880   2883   2884   2885     1  180.0000771  0.8368000  1
   2880   2883   2884   2885     1  180.0000771  1.0460000  2
   2880   2883   2884   2885     1  0.0000000  0.7531200  3
   2880   2883   2884   2890     1  0.0000000  0.6508444  3
   2880   2879   2893   2899     1  0.0000000  0.6508444  3
   2880   2879   2901   2885     1  180.0000771  0.4184000  2
   2880   2879   2901   2885     1  0.0000000  1.6024720  3
   2883   2884   2885   2889     1  0.0000000  0.6508444  3
   2883   2884   2885   2901     1  0.0000000  0.6508444  3
   2883   2880   2879   2893     1  180.0000771  0.8368000  1
   2883   2880   2879   2893     1  180.0000771  1.0460000  2
   2883   2880   2879   2893     1  0.0000000  0.7531200  3
   2883   2880   2879   2901     1  0.0000000  0.6508444  3
   2884   2883   2880   2892     1  0.0000000  0.6508444  3
   2885   2901   2879   2893     1  180.0000771  0.4184000  2
   2885   2901   2879   2893     1  0.0000000  1.6024720  3
   2885   2884   2883   2891     1  0.0000000  0.6508444  3
   2889   2885   2884   2890     1  0.0000000  4.9162000  2
   2889   2885   2884   2890     1  0.0000000  0.6024960  3
   2890   2884   2885   2901     1  0.0000000  4.9162000  2
   2890   2884   2885   2901     1  0.0000000  0.6024960  3
   2890   2884   2883   2891     1  0.0000000  4.9162000  2
   2890   2884   2883   2891     1  0.0000000  0.6024960  3
   2891   2883   2880   2892     1  0.0000000  4.9162000  2
   2891   2883   2880   2892     1  0.0000000  0.6024960  3
   2892   2880   2879   2893     1  0.0000000  0.6508444  3
   2892   2880   2879   2901     1  0.0000000  4.9162000  2
   2892   2880   2879   2901     1  0.0000000  0.6024960  3
   2899   2893   2879   2901     1  0.0000000  4.9162000  2
   2899   2893   2879   2901     1  0.0000000  0.6024960  3
   2902   2903   2906   2907     1  180.0000771  0.8368000  1
   2902   2903   2906   2907     1  180.0000771  1.0460000  2
   2902   2903   2906   2907     1  0.0000000  0.7531200  3
   2902   2903   2906   2914     1  0.0000000  0.6508444  3
   2902   2924   2908   2907     1  180.0000771  0.4184000  2
   2902   2924   2908   2907     1  0.0000000  1.6024720  3
   2902   2924   2908   2912     1  180.0000771  5.6484000  1
   2902   2924   2908   2912     1  180.0000771  3.5564000  2
   2902   2924   2908   2912     1  0.0000000  0.4184000  3
   2903   2902   2916   2922     1  0.0000000  0.6508444  3
   2903   2902   2924   2908     1  180.0000771  0.4184000  2
   2903   2902   2924   2908     1  0.0000000  1.6024720  3
   2903   2906   2907   2908     1  180.0000771  0.8368000  1
   2903   2906   2907   2908     1  180.0000771  1.0460000  2
   2903   2906   2907   2908     1  0.0000000  0.7531200  3
   2903   2906   2907   2913     1  0.0000000  0.6508444  3
   2906   2903   2902   2916     1  180.0000771  0.8368000  1
   2906   2903   2902   2916     1  180.0000771  1.0460000  2
   2906   2903   2902   2916     1  0.0000000  0.7531200  3
   2906   2903   2902   2924     1  0.0000000  0.6508444  3
   2906   2907   2908   2912     1  0.0000000  0.6508444  3
   2906   2907   2908   2924     1  0.0000000  0.6508444  3
   2907   2906   2903   2915     1  0.0000000  0.6508444  3
   2908   2907   2906   2914     1  0.0000000  0.6508444  3
   2908   2924   2902   2916     1  180.0000771  0.4184000  2
   2908   2924   2902   2916     1  0.0000000  1.6024720  3
   2912   2908   2907   2913     1  0.0000000  4.9162000  2
   2912   2908   2907   2913     1  0.0000000  0.6024960  3
   2913   2907   2906   2914     1  0.0000000  4.9162000  2
   2913   2907   2906   2914     1  0.0000000  0.6024960  3
   2913   2907   2908   2924     1  0.0000000  4.9162000  2
   2913   2907   2908   2924     1  0.0000000  0.6024960  3
   2914   2906   2903   2915     1  0.0000000  4.9162000  2
   2914   2906   2903   2915     1  0.0000000  0.6024960  3
   2915   2903   2902   2916     1  0.0000000  0.6508444  3
   2915   2903   2902   2924     1  0.0000000  4.9162000  2
   2915   2903   2902   2924     1  0.0000000  0.6024960  3
   2922   2916   2902   2924     1  0.0000000  4.9162000  2
   2922   2916   2902   2924     1  0.0000000  0.6024960  3
   2925   2926   2929   2930     1  180.0000771  0.8368000  1
   2925   2926   2929   2930     1  180.0000771  1.0460000  2
   2925   2926   2929   2930     1  0.0000000  0.7531200  3
   2925   2926   2929   2937     1  0.0000000  0.6508444  3
   2925   2947   2931   2935     1  180.0000771  5.6484000  1
   2925   2947   2931   2935     1  180.0000771  3.5564000  2
   2925   2947   2931   2935     1  0.0000000  0.4184000  3
   2925   2947   2931   2930     1  180.0000771  0.4184000  2
   2925   2947   2931   2930     1  0.0000000  1.6024720  3
   2926   2929   2930   2931     1  180.0000771  0.8368000  1
   2926   2929   2930   2931     1  180.0000771  1.0460000  2
   2926   2929   2930   2931     1  0.0000000  0.7531200  3
   2926   2929   2930   2936     1  0.0000000  0.6508444  3
   2926   2925   2939   2945     1  0.0000000  0.6508444  3
   2926   2925   2947   2931     1  180.0000771  0.4184000  2
   2926   2925   2947   2931     1  0.0000000  1.6024720  3
   2929   2930   2931   2935     1  0.0000000  0.6508444  3
   2929   2930   2931   2947     1  0.0000000  0.6508444  3
   2929   2926   2925   2939     1  180.0000771  0.8368000  1
   2929   2926   2925   2939     1  180.0000771  1.0460000  2
   2929   2926   2925   2939     1  0.0000000  0.7531200  3
   2929   2926   2925   2947     1  0.0000000  0.6508444  3
   2930   2929   2926   2938     1  0.0000000  0.6508444  3
   2931   2947   2925   2939     1  180.0000771  0.4184000  2
   2931   2947   2925   2939     1  0.0000000  1.6024720  3
   2931   2930   2929   2937     1  0.0000000  0.6508444  3
   2935   2931   2930   2936     1  0.0000000  4.9162000  2
   2935   2931   2930   2936     1  0.0000000  0.6024960  3
   2936   2930   2931   2947     1  0.0000000  4.9162000  2
   2936   2930   2931   2947     1  0.0000000  0.6024960  3
   2936   2930   2929   2937     1  0.0000000  4.9162000  2
   2936   2930   2929   2937     1  0.0000000  0.6024960  3
   2937   2929   2926   2938     1  0.0000000  4.9162000  2
   2937   2929   2926   2938     1  0.0000000  0.6024960  3
   2938   2926   2925   2939     1  0.0000000  0.6508444  3
   2938   2926   2925   2947     1  0.0000000  4.9162000  2
   2938   2926   2925   2947     1  0.0000000  0.6024960  3
   2945   2939   2925   2947     1  0.0000000  4.9162000  2
   2945   2939   2925   2947     1  0.0000000  0.6024960  3
   2948   2949   2952   2953     1  180.0000771  0.8368000  1
   2948   2949   2952   2953     1  180.0000771  1.0460000  2
   2948   2949   2952   2953     1  0.0000000  0.7531200  3
   2948   2949   2952   2960     1  0.0000000  0.6508444  3
   2948   2970   2954   2953     1  180.0000771  0.4184000  2
   2948   2970   2954   2953     1  0.0000000  1.6024720  3
   2948   2970   2954   2958     1  180.0000771  5.6484000  1
   2948   2970   2954   2958     1  180.0000771  3.5564000  2
   2948   2970   2954   2958     1  0.0000000  0.4184000  3
   2949   2948   2962   2968     1  0.0000000  0.6508444  3
   2949   2948   2970   2954     1  180.0000771  0.4184000  2
   2949   2948   2970   2954     1  0.0000000  1.6024720  3
   2949   2952   2953   2954     1  180.0000771  0.8368000  1
   2949   2952   2953   2954     1  180.0000771  1.0460000  2
   2949   2952   2953   2954     1  0.0000000  0.7531200  3
   2949   2952   2953   2959     1  0.0000000  0.6508444  3
   2952   2949   2948   2962     1  180.0000771  0.8368000  1
   2952   2949   2948   2962     1  180.0000771  1.0460000  2
   2952   2949   2948   2962     1  0.0000000  0.7531200  3
   2952   2949   2948   2970     1  0.0000000  0.6508444  3
   2952   2953   2954   2958     1  0.0000000  0.6508444  3
   2952   2953   2954   2970     1  0.0000000  0.6508444  3
   2953   2952   2949   2961     1  0.0000000  0.6508444  3
   2954   2953   2952   2960     1  0.0000000  0.6508444  3
   2954   2970   2948   2962     1  180.0000771  0.4184000  2
   2954   2970   2948   2962     1  0.0000000  1.6024720  3
   2958   2954   2953   2959     1  0.0000000  4.9162000  2
   2958   2954   2953   2959     1  0.0000000  0.6024960  3
   2959   2953   2952   2960     1  0.0000000  4.9162000  2
   2959   2953   2952   2960     1  0.0000000  0.6024960  3
   2959   2953   2954   2970     1  0.0000000  4.9162000  2
   2959   2953   2954   2970     1  0.0000000  0.6024960  3
   2960   2952   2949   2961     1  0.0000000  4.9162000  2
   2960   2952   2949   2961     1  0.0000000  0.6024960  3
   2961   2949   2948   2962     1  0.0000000  0.6508444  3
   2961   2949   2948   2970     1  0.0000000  4.9162000  2
   2961   2949   2948   2970     1  0.0000000  0.6024960  3
   2968   2962   2948   2970     1  0.0000000  4.9162000  2
   2968   2962   2948   2970     1  0.0000000  0.6024960  3
   2971   2972   2975   2976     1  180.0000771  0.8368000  1
   2971   2972   2975   2976     1  180.0000771  1.0460000  2
   2971   2972   2975   2976     1  0.0000000  0.7531200  3
   2971   2972   2975   2983     1  0.0000000  0.6508444  3
   2971   2993   2977   2981     1  180.0000771  5.6484000  1
   2971   2993   2977   2981     1  180.0000771  3.5564000  2
   2971   2993   2977   2981     1  0.0000000  0.4184000  3
   2971   2993   2977   2976     1  180.0000771  0.4184000  2
   2971   2993   2977   2976     1  0.0000000  1.6024720  3
   2972   2975   2976   2977     1  180.0000771  0.8368000  1
   2972   2975   2976   2977     1  180.0000771  1.0460000  2
   2972   2975   2976   2977     1  0.0000000  0.7531200  3
   2972   2975   2976   2982     1  0.0000000  0.6508444  3
   2972   2971   2985   2991     1  0.0000000  0.6508444  3
   2972   2971   2993   2977     1  180.0000771  0.4184000  2
   2972   2971   2993   2977     1  0.0000000  1.6024720  3
   2975   2976   2977   2981     1  0.0000000  0.6508444  3
   2975   2976   2977   2993     1  0.0000000  0.6508444  3
   2975   2972   2971   2985     1  180.0000771  0.8368000  1
   2975   2972   2971   2985     1  180.0000771  1.0460000  2
   2975   2972   2971   2985     1  0.0000000  0.7531200  3
   2975   2972   2971   2993     1  0.0000000  0.6508444  3
   2976   2975   2972   2984     1  0.0000000  0.6508444  3
   2977   2993   2971   2985     1  180.0000771  0.4184000  2
   2977   2993   2971   2985     1  0.0000000  1.6024720  3
   2977   2976   2975   2983     1  0.0000000  0.6508444  3
   2981   2977   2976   2982     1  0.0000000  4.9162000  2
   2981   2977   2976   2982     1  0.0000000  0.6024960  3
   2982   2976   2977   2993     1  0.0000000  4.9162000  2
   2982   2976   2977   2993     1  0.0000000  0.6024960  3
   2982   2976   2975   2983     1  0.0000000  4.9162000  2
   2982   2976   2975   2983     1  0.0000000  0.6024960  3
   2983   2975   2972   2984     1  0.0000000  4.9162000  2
   2983   2975   2972   2984     1  0.0000000  0.6024960  3
   2984   2972   2971   2985     1  0.0000000  0.6508444  3
   2984   2972   2971   2993     1  0.0000000  4.9162000  2
   2984   2972   2971   2993     1  0.0000000  0.6024960  3
   2991   2985   2971   2993     1  0.0000000  4.9162000  2
   2991   2985   2971   2993     1  0.0000000  0.6024960  3
   2994   2995   2998   2999     1  180.0000771  0.8368000  1
   2994   2995   2998   2999     1  180.0000771  1.0460000  2
   2994   2995   2998   2999     1  0.0000000  0.7531200  3
   2994   2995   2998   3006     1  0.0000000  0.6508444  3
   2994   3016   3000   2999     1  180.0000771  0.4184000  2
   2994   3016   3000   2999     1  0.0000000  1.6024720  3
   2994   3016   3000   3004     1  180.0000771  5.6484000  1
   2994   3016   3000   3004     1  180.0000771  3.5564000  2
   2994   3016   3000   3004     1  0.0000000  0.4184000  3
   2995   2994   3008   3014     1  0.0000000  0.6508444  3
   2995   2994   3016   3000     1  180.0000771  0.4184000  2
   2995   2994   3016   3000     1  0.0000000  1.6024720  3
   2995   2998   2999   3000     1  180.0000771  0.8368000  1
   2995   2998   2999   3000     1  180.0000771  1.0460000  2
   2995   2998   2999   3000     1  0.0000000  0.7531200  3
   2995   2998   2999   3005     1  0.0000000  0.6508444  3
   2998   2995   2994   3008     1  180.0000771  0.8368000  1
   2998   2995   2994   3008     1  180.0000771  1.0460000  2
   2998   2995   2994   3008     1  0.0000000  0.7531200  3
   2998   2995   2994   3016     1  0.0000000  0.6508444  3
   2998   2999   3000   3004     1  0.0000000  0.6508444  3
   2998   2999   3000   3016     1  0.0000000  0.6508444  3
   2999   2998   2995   3007     1  0.0000000  0.6508444  3
   3000   2999   2998   3006     1  0.0000000  0.6508444  3
   3000   3016   2994   3008     1  180.0000771  0.4184000  2
   3000   3016   2994   3008     1  0.0000000  1.6024720  3
   3004   3000   2999   3005     1  0.0000000  4.9162000  2
   3004   3000   2999   3005     1  0.0000000  0.6024960  3
   3005   2999   2998   3006     1  0.0000000  4.9162000  2
   3005   2999   2998   3006     1  0.0000000  0.6024960  3
   3005   2999   3000   3016     1  0.0000000  4.9162000  2
   3005   2999   3000   3016     1  0.0000000  0.6024960  3
   3006   2998   2995   3007     1  0.0000000  4.9162000  2
   3006   2998   2995   3007     1  0.0000000  0.6024960  3
   3007   2995   2994   3008     1  0.0000000  0.6508444  3
   3007   2995   2994   3016     1  0.0000000  4.9162000  2
   3007   2995   2994   3016     1  0.0000000  0.6024960  3
   3014   3008   2994   3016     1  0.0000000  4.9162000  2
   3014   3008   2994   3016     1  0.0000000  0.6024960  3
   3017   3018   3021   3022     1  180.0000771  0.8368000  1
   3017   3018   3021   3022     1  180.0000771  1.0460000  2
   3017   3018   3021   3022     1  0.0000000  0.7531200  3
   3017   3018   3021   3029     1  0.0000000  0.6508444  3
   3017   3039   3023   3027     1  180.0000771  5.6484000  1
   3017   3039   3023   3027     1  180.0000771  3.5564000  2
   3017   3039   3023   3027     1  0.0000000  0.4184000  3
   3017   3039   3023   3022     1  180.0000771  0.4184000  2
   3017   3039   3023   3022     1  0.0000000  1.6024720  3
   3018   3021   3022   3023     1  180.0000771  0.8368000  1
   3018   3021   3022   3023     1  180.0000771  1.0460000  2
   3018   3021   3022   3023     1  0.0000000  0.7531200  3
   3018   3021   3022   3028     1  0.0000000  0.6508444  3
   3018   3017   3031   3037     1  0.0000000  0.6508444  3
   3018   3017   3039   3023     1  180.0000771  0.4184000  2
   3018   3017   3039   3023     1  0.0000000  1.6024720  3
   3021   3022   3023   3027     1  0.0000000  0.6508444  3
   3021   3022   3023   3039     1  0.0000000  0.6508444  3
   3021   3018   3017   3031     1  180.0000771  0.8368000  1
   3021   3018   3017   3031     1  180.0000771  1.0460000  2
   3021   3018   3017   3031     1  0.0000000  0.7531200  3
   3021   3018   3017   3039     1  0.0000000  0.6508444  3
   3022   3021   3018   3030     1  0.0000000  0.6508444  3
   3023   3039   3017   3031     1  180.0000771  0.4184000  2
   3023   3039   3017   3031     1  0.0000000  1.6024720  3
   3023   3022   3021   3029     1  0.0000000  0.6508444  3
   3027   3023   3022   3028     1  0.0000000  4.9162000  2
   3027   3023   3022   3028     1  0.0000000  0.6024960  3
   3028   3022   3023   3039     1  0.0000000  4.9162000  2
   3028   3022   3023   3039     1  0.0000000  0.6024960  3
   3028   3022   3021   3029     1  0.0000000  4.9162000  2
   3028   3022   3021   3029     1  0.0000000  0.6024960  3
   3029   3021   3018   3030     1  0.0000000  4.9162000  2
   3029   3021   3018   3030     1  0.0000000  0.6024960  3
   3030   3018   3017   3031     1  0.0000000  0.6508444  3
   3030   3018   3017   3039     1  0.0000000  4.9162000  2
   3030   3018   3017   3039     1  0.0000000  0.6024960  3
   3037   3031   3017   3039     1  0.0000000  4.9162000  2
   3037   3031   3017   3039     1  0.0000000  0.6024960  3
   3040   3041   3044   3045     1  180.0000771  0.8368000  1
   3040   3041   3044   3045     1  180.0000771  1.0460000  2
   3040   3041   3044   3045     1  0.0000000  0.7531200  3
   3040   3041   3044   3052     1  0.0000000  0.6508444  3
   3040   3062   3046   3045     1  180.0000771  0.4184000  2
   3040   3062   3046   3045     1  0.0000000  1.6024720  3
   3040   3062   3046   3050     1  180.0000771  5.6484000  1
   3040   3062   3046   3050     1  180.0000771  3.5564000  2
   3040   3062   3046   3050     1  0.0000000  0.4184000  3
   3041   3040   3054   3060     1  0.0000000  0.6508444  3
   3041   3040   3062   3046     1  180.0000771  0.4184000  2
   3041   3040   3062   3046     1  0.0000000  1.6024720  3
   3041   3044   3045   3046     1  180.0000771  0.8368000  1
   3041   3044   3045   3046     1  180.0000771  1.0460000  2
   3041   3044   3045   3046     1  0.0000000  0.7531200  3
   3041   3044   3045   3051     1  0.0000000  0.6508444  3
   3044   3041   3040   3054     1  180.0000771  0.8368000  1
   3044   3041   3040   3054     1  180.0000771  1.0460000  2
   3044   3041   3040   3054     1  0.0000000  0.7531200  3
   3044   3041   3040   3062     1  0.0000000  0.6508444  3
   3044   3045   3046   3050     1  0.0000000  0.6508444  3
   3044   3045   3046   3062     1  0.0000000  0.6508444  3
   3045   3044   3041   3053     1  0.0000000  0.6508444  3
   3046   3045   3044   3052     1  0.0000000  0.6508444  3
   3046   3062   3040   3054     1  180.0000771  0.4184000  2
   3046   3062   3040   3054     1  0.0000000  1.6024720  3
   3050   3046   3045   3051     1  0.0000000  4.9162000  2
   3050   3046   3045   3051     1  0.0000000  0.6024960  3
   3051   3045   3044   3052     1  0.0000000  4.9162000  2
   3051   3045   3044   3052     1  0.0000000  0.6024960  3
   3051   3045   3046   3062     1  0.0000000  4.9162000  2
   3051   3045   3046   3062     1  0.0000000  0.6024960  3
   3052   3044   3041   3053     1  0.0000000  4.9162000  2
   3052   3044   3041   3053     1  0.0000000  0.6024960  3
   3053   3041   3040   3054     1  0.0000000  0.6508444  3
   3053   3041   3040   3062     1  0.0000000  4.9162000  2
   3053   3041   3040   3062     1  0.0000000  0.6024960  3
   3060   3054   3040   3062     1  0.0000000  4.9162000  2
   3060   3054   3040   3062     1  0.0000000  0.6024960  3
   3063   3064   3067   3068     1  180.0000771  0.8368000  1
   3063   3064   3067   3068     1  180.0000771  1.0460000  2
   3063   3064   3067   3068     1  0.0000000  0.7531200  3
   3063   3064   3067   3075     1  0.0000000  0.6508444  3
   3063   3085   3069   3073     1  180.0000771  5.6484000  1
   3063   3085   3069   3073     1  180.0000771  3.5564000  2
   3063   3085   3069   3073     1  0.0000000  0.4184000  3
   3063   3085   3069   3068     1  180.0000771  0.4184000  2
   3063   3085   3069   3068     1  0.0000000  1.6024720  3
   3064   3067   3068   3069     1  180.0000771  0.8368000  1
   3064   3067   3068   3069     1  180.0000771  1.0460000  2
   3064   3067   3068   3069     1  0.0000000  0.7531200  3
   3064   3067   3068   3074     1  0.0000000  0.6508444  3
   3064   3063   3077   3083     1  0.0000000  0.6508444  3
   3064   3063   3085   3069     1  180.0000771  0.4184000  2
   3064   3063   3085   3069     1  0.0000000  1.6024720  3
   3067   3068   3069   3073     1  0.0000000  0.6508444  3
   3067   3068   3069   3085     1  0.0000000  0.6508444  3
   3067   3064   3063   3077     1  180.0000771  0.8368000  1
   3067   3064   3063   3077     1  180.0000771  1.0460000  2
   3067   3064   3063   3077     1  0.0000000  0.7531200  3
   3067   3064   3063   3085     1  0.0000000  0.6508444  3
   3068   3067   3064   3076     1  0.0000000  0.6508444  3
   3069   3085   3063   3077     1  180.0000771  0.4184000  2
   3069   3085   3063   3077     1  0.0000000  1.6024720  3
   3069   3068   3067   3075     1  0.0000000  0.6508444  3
   3073   3069   3068   3074     1  0.0000000  4.9162000  2
   3073   3069   3068   3074     1  0.0000000  0.6024960  3
   3074   3068   3069   3085     1  0.0000000  4.9162000  2
   3074   3068   3069   3085     1  0.0000000  0.6024960  3
   3074   3068   3067   3075     1  0.0000000  4.9162000  2
   3074   3068   3067   3075     1  0.0000000  0.6024960  3
   3075   3067   3064   3076     1  0.0000000  4.9162000  2
   3075   3067   3064   3076     1  0.0000000  0.6024960  3
   3076   3064   3063   3077     1  0.0000000  0.6508444  3
   3076   3064   3063   3085     1  0.0000000  4.9162000  2
   3076   3064   3063   3085     1  0.0000000  0.6024960  3
   3083   3077   3063   3085     1  0.0000000  4.9162000  2
   3083   3077   3063   3085     1  0.0000000  0.6024960  3
   3086   3087   3090   3091     1  180.0000771  0.8368000  1
   3086   3087   3090   3091     1  180.0000771  1.0460000  2
   3086   3087   3090   3091     1  0.0000000  0.7531200  3
   3086   3087   3090   3098     1  0.0000000  0.6508444  3
   3086   3108   3092   3091     1  180.0000771  0.4184000  2
   3086   3108   3092   3091     1  0.0000000  1.6024720  3
   3086   3108   3092   3096     1  180.0000771  5.6484000  1
   3086   3108   3092   3096     1  180.0000771  3.5564000  2
   3086   3108   3092   3096     1  0.0000000  0.4184000  3
   3087   3086   3100   3106     1  0.0000000  0.6508444  3
   3087   3086   3108   3092     1  180.0000771  0.4184000  2
   3087   3086   3108   3092     1  0.0000000  1.6024720  3
   3087   3090   3091   3092     1  180.0000771  0.8368000  1
   3087   3090   3091   3092     1  180.0000771  1.0460000  2
   3087   3090   3091   3092     1  0.0000000  0.7531200  3
   3087   3090   3091   3097     1  0.0000000  0.6508444  3
   3090   3087   3086   3100     1  180.0000771  0.8368000  1
   3090   3087   3086   3100     1  180.0000771  1.0460000  2
   3090   3087   3086   3100     1  0.0000000  0.7531200  3
   3090   3087   3086   3108     1  0.0000000  0.6508444  3
   3090   3091   3092   3096     1  0.0000000  0.6508444  3
   3090   3091   3092   3108     1  0.0000000  0.6508444  3
   3091   3090   3087   3099     1  0.0000000  0.6508444  3
   3092   3091   3090   3098     1  0.0000000  0.6508444  3
   3092   3108   3086   3100     1  180.0000771  0.4184000  2
   3092   3108   3086   3100     1  0.0000000  1.6024720  3
   3096   3092   3091   3097     1  0.0000000  4.9162000  2
   3096   3092   3091   3097     1  0.0000000  0.6024960  3
   3097   3091   3090   3098     1  0.0000000  4.9162000  2
   3097   3091   3090   3098     1  0.0000000  0.6024960  3
   3097   3091   3092   3108     1  0.0000000  4.9162000  2
   3097   3091   3092   3108     1  0.0000000  0.6024960  3
   3098   3090   3087   3099     1  0.0000000  4.9162000  2
   3098   3090   3087   3099     1  0.0000000  0.6024960  3
   3099   3087   3086   3100     1  0.0000000  0.6508444  3
   3099   3087   3086   3108     1  0.0000000  4.9162000  2
   3099   3087   3086   3108     1  0.0000000  0.6024960  3
   3106   3100   3086   3108     1  0.0000000  4.9162000  2
   3106   3100   3086   3108     1  0.0000000  0.6024960  3
   3109   3110   3113   3114     1  180.0000771  0.8368000  1
   3109   3110   3113   3114     1  180.0000771  1.0460000  2
   3109   3110   3113   3114     1  0.0000000  0.7531200  3
   3109   3110   3113   3121     1  0.0000000  0.6508444  3
   3109   3131   3115   3119     1  180.0000771  5.6484000  1
   3109   3131   3115   3119     1  180.0000771  3.5564000  2
   3109   3131   3115   3119     1  0.0000000  0.4184000  3
   3109   3131   3115   3114     1  180.0000771  0.4184000  2
   3109   3131   3115   3114     1  0.0000000  1.6024720  3
   3110   3113   3114   3115     1  180.0000771  0.8368000  1
   3110   3113   3114   3115     1  180.0000771  1.0460000  2
   3110   3113   3114   3115     1  0.0000000  0.7531200  3
   3110   3113   3114   3120     1  0.0000000  0.6508444  3
   3110   3109   3123   3129     1  0.0000000  0.6508444  3
   3110   3109   3131   3115     1  180.0000771  0.4184000  2
   3110   3109   3131   3115     1  0.0000000  1.6024720  3
   3113   3114   3115   3119     1  0.0000000  0.6508444  3
   3113   3114   3115   3131     1  0.0000000  0.6508444  3
   3113   3110   3109   3123     1  180.0000771  0.8368000  1
   3113   3110   3109   3123     1  180.0000771  1.0460000  2
   3113   3110   3109   3123     1  0.0000000  0.7531200  3
   3113   3110   3109   3131     1  0.0000000  0.6508444  3
   3114   3113   3110   3122     1  0.0000000  0.6508444  3
   3115   3131   3109   3123     1  180.0000771  0.4184000  2
   3115   3131   3109   3123     1  0.0000000  1.6024720  3
   3115   3114   3113   3121     1  0.0000000  0.6508444  3
   3119   3115   3114   3120     1  0.0000000  4.9162000  2
   3119   3115   3114   3120     1  0.0000000  0.6024960  3
   3120   3114   3115   3131     1  0.0000000  4.9162000  2
   3120   3114   3115   3131     1  0.0000000  0.6024960  3
   3120   3114   3113   3121     1  0.0000000  4.9162000  2
   3120   3114   3113   3121     1  0.0000000  0.6024960  3
   3121   3113   3110   3122     1  0.0000000  4.9162000  2
   3121   3113   3110   3122     1  0.0000000  0.6024960  3
   3122   3110   3109   3123     1  0.0000000  0.6508444  3
   3122   3110   3109   3131     1  0.0000000  4.9162000  2
   3122   3110   3109   3131     1  0.0000000  0.6024960  3
   3129   3123   3109   3131     1  0.0000000  4.9162000  2
   3129   3123   3109   3131     1  0.0000000  0.6024960  3
   3132   3133   3136   3137     1  180.0000771  0.8368000  1
   3132   3133   3136   3137     1  180.0000771  1.0460000  2
   3132   3133   3136   3137     1  0.0000000  0.7531200  3
   3132   3133   3136   3144     1  0.0000000  0.6508444  3
   3132   3154   3138   3137     1  180.0000771  0.4184000  2
   3132   3154   3138   3137     1  0.0000000  1.6024720  3
   3132   3154   3138   3142     1  180.0000771  5.6484000  1
   3132   3154   3138   3142     1  180.0000771  3.5564000  2
   3132   3154   3138   3142     1  0.0000000  0.4184000  3
   3133   3132   3146   3152     1  0.0000000  0.6508444  3
   3133   3132   3154   3138     1  180.0000771  0.4184000  2
   3133   3132   3154   3138     1  0.0000000  1.6024720  3
   3133   3136   3137   3138     1  180.0000771  0.8368000  1
   3133   3136   3137   3138     1  180.0000771  1.0460000  2
   3133   3136   3137   3138     1  0.0000000  0.7531200  3
   3133   3136   3137   3143     1  0.0000000  0.6508444  3
   3136   3133   3132   3146     1  180.0000771  0.8368000  1
   3136   3133   3132   3146     1  180.0000771  1.0460000  2
   3136   3133   3132   3146     1  0.0000000  0.7531200  3
   3136   3133   3132   3154     1  0.0000000  0.6508444  3
   3136   3137   3138   3142     1  0.0000000  0.6508444  3
   3136   3137   3138   3154     1  0.0000000  0.6508444  3
   3137   3136   3133   3145     1  0.0000000  0.6508444  3
   3138   3137   3136   3144     1  0.0000000  0.6508444  3
   3138   3154   3132   3146     1  180.0000771  0.4184000  2
   3138   3154   3132   3146     1  0.0000000  1.6024720  3
   3142   3138   3137   3143     1  0.0000000  4.9162000  2
   3142   3138   3137   3143     1  0.0000000  0.6024960  3
   3143   3137   3136   3144     1  0.0000000  4.9162000  2
   3143   3137   3136   3144     1  0.0000000  0.6024960  3
   3143   3137   3138   3154     1  0.0000000  4.9162000  2
   3143   3137   3138   3154     1  0.0000000  0.6024960  3
   3144   3136   3133   3145     1  0.0000000  4.9162000  2
   3144   3136   3133   3145     1  0.0000000  0.6024960  3
   3145   3133   3132   3146     1  0.0000000  0.6508444  3
   3145   3133   3132   3154     1  0.0000000  4.9162000  2
   3145   3133   3132   3154     1  0.0000000  0.6024960  3
   3152   3146   3132   3154     1  0.0000000  4.9162000  2
   3152   3146   3132   3154     1  0.0000000  0.6024960  3
   3155   3156   3159   3160     1  180.0000771  0.8368000  1
   3155   3156   3159   3160     1  180.0000771  1.0460000  2
   3155   3156   3159   3160     1  0.0000000  0.7531200  3
   3155   3156   3159   3167     1  0.0000000  0.6508444  3
   3155   3177   3161   3165     1  180.0000771  5.6484000  1
   3155   3177   3161   3165     1  180.0000771  3.5564000  2
   3155   3177   3161   3165     1  0.0000000  0.4184000  3
   3155   3177   3161   3160     1  180.0000771  0.4184000  2
   3155   3177   3161   3160     1  0.0000000  1.6024720  3
   3156   3159   3160   3161     1  180.0000771  0.8368000  1
   3156   3159   3160   3161     1  180.0000771  1.0460000  2
   3156   3159   3160   3161     1  0.0000000  0.7531200  3
   3156   3159   3160   3166     1  0.0000000  0.6508444  3
   3156   3155   3169   3175     1  0.0000000  0.6508444  3
   3156   3155   3177   3161     1  180.0000771  0.4184000  2
   3156   3155   3177   3161     1  0.0000000  1.6024720  3
   3159   3160   3161   3165     1  0.0000000  0.6508444  3
   3159   3160   3161   3177     1  0.0000000  0.6508444  3
   3159   3156   3155   3169     1  180.0000771  0.8368000  1
   3159   3156   3155   3169     1  180.0000771  1.0460000  2
   3159   3156   3155   3169     1  0.0000000  0.7531200  3
   3159   3156   3155   3177     1  0.0000000  0.6508444  3
   3160   3159   3156   3168     1  0.0000000  0.6508444  3
   3161   3177   3155   3169     1  180.0000771  0.4184000  2
   3161   3177   3155   3169     1  0.0000000  1.6024720  3
   3161   3160   3159   3167     1  0.0000000  0.6508444  3
   3165   3161   3160   3166     1  0.0000000  4.9162000  2
   3165   3161   3160   3166     1  0.0000000  0.6024960  3
   3166   3160   3161   3177     1  0.0000000  4.9162000  2
   3166   3160   3161   3177     1  0.0000000  0.6024960  3
   3166   3160   3159   3167     1  0.0000000  4.9162000  2
   3166   3160   3159   3167     1  0.0000000  0.6024960  3
   3167   3159   3156   3168     1  0.0000000  4.9162000  2
   3167   3159   3156   3168     1  0.0000000  0.6024960  3
   3168   3156   3155   3169     1  0.0000000  0.6508444  3
   3168   3156   3155   3177     1  0.0000000  4.9162000  2
   3168   3156   3155   3177     1  0.0000000  0.6024960  3
   3175   3169   3155   3177     1  0.0000000  4.9162000  2
   3175   3169   3155   3177     1  0.0000000  0.6024960  3
   3178   3179   3182   3183     1  180.0000771  0.8368000  1
   3178   3179   3182   3183     1  180.0000771  1.0460000  2
   3178   3179   3182   3183     1  0.0000000  0.7531200  3
   3178   3179   3182   3190     1  0.0000000  0.6508444  3
   3178   3200   3184   3183     1  180.0000771  0.4184000  2
   3178   3200   3184   3183     1  0.0000000  1.6024720  3
   3178   3200   3184   3188     1  180.0000771  5.6484000  1
   3178   3200   3184   3188     1  180.0000771  3.5564000  2
   3178   3200   3184   3188     1  0.0000000  0.4184000  3
   3179   3178   3192   3198     1  0.0000000  0.6508444  3
   3179   3178   3200   3184     1  180.0000771  0.4184000  2
   3179   3178   3200   3184     1  0.0000000  1.6024720  3
   3179   3182   3183   3184     1  180.0000771  0.8368000  1
   3179   3182   3183   3184     1  180.0000771  1.0460000  2
   3179   3182   3183   3184     1  0.0000000  0.7531200  3
   3179   3182   3183   3189     1  0.0000000  0.6508444  3
   3182   3179   3178   3192     1  180.0000771  0.8368000  1
   3182   3179   3178   3192     1  180.0000771  1.0460000  2
   3182   3179   3178   3192     1  0.0000000  0.7531200  3
   3182   3179   3178   3200     1  0.0000000  0.6508444  3
   3182   3183   3184   3188     1  0.0000000  0.6508444  3
   3182   3183   3184   3200     1  0.0000000  0.6508444  3
   3183   3182   3179   3191     1  0.0000000  0.6508444  3
   3184   3183   3182   3190     1  0.0000000  0.6508444  3
   3184   3200   3178   3192     1  180.0000771  0.4184000  2
   3184   3200   3178   3192     1  0.0000000  1.6024720  3
   3188   3184   3183   3189     1  0.0000000  4.9162000  2
   3188   3184   3183   3189     1  0.0000000  0.6024960  3
   3189   3183   3182   3190     1  0.0000000  4.9162000  2
   3189   3183   3182   3190     1  0.0000000  0.6024960  3
   3189   3183   3184   3200     1  0.0000000  4.9162000  2
   3189   3183   3184   3200     1  0.0000000  0.6024960  3
   3190   3182   3179   3191     1  0.0000000  4.9162000  2
   3190   3182   3179   3191     1  0.0000000  0.6024960  3
   3191   3179   3178   3192     1  0.0000000  0.6508444  3
   3191   3179   3178   3200     1  0.0000000  4.9162000  2
   3191   3179   3178   3200     1  0.0000000  0.6024960  3
   3198   3192   3178   3200     1  0.0000000  4.9162000  2
   3198   3192   3178   3200     1  0.0000000  0.6024960  3
   3201   3202   3205   3206     1  180.0000771  0.8368000  1
   3201   3202   3205   3206     1  180.0000771  1.0460000  2
   3201   3202   3205   3206     1  0.0000000  0.7531200  3
   3201   3202   3205   3213     1  0.0000000  0.6508444  3
   3201   3223   3207   3211     1  180.0000771  5.6484000  1
   3201   3223   3207   3211     1  180.0000771  3.5564000  2
   3201   3223   3207   3211     1  0.0000000  0.4184000  3
   3201   3223   3207   3206     1  180.0000771  0.4184000  2
   3201   3223   3207   3206     1  0.0000000  1.6024720  3
   3202   3205   3206   3207     1  180.0000771  0.8368000  1
   3202   3205   3206   3207     1  180.0000771  1.0460000  2
   3202   3205   3206   3207     1  0.0000000  0.7531200  3
   3202   3205   3206   3212     1  0.0000000  0.6508444  3
   3202   3201   3215   3221     1  0.0000000  0.6508444  3
   3202   3201   3223   3207     1  180.0000771  0.4184000  2
   3202   3201   3223   3207     1  0.0000000  1.6024720  3
   3205   3206   3207   3211     1  0.0000000  0.6508444  3
   3205   3206   3207   3223     1  0.0000000  0.6508444  3
   3205   3202   3201   3215     1  180.0000771  0.8368000  1
   3205   3202   3201   3215     1  180.0000771  1.0460000  2
   3205   3202   3201   3215     1  0.0000000  0.7531200  3
   3205   3202   3201   3223     1  0.0000000  0.6508444  3
   3206   3205   3202   3214     1  0.0000000  0.6508444  3
   3207   3223   3201   3215     1  180.0000771  0.4184000  2
   3207   3223   3201   3215     1  0.0000000  1.6024720  3
   3207   3206   3205   3213     1  0.0000000  0.6508444  3
   3211   3207   3206   3212     1  0.0000000  4.9162000  2
   3211   3207   3206   3212     1  0.0000000  0.6024960  3
   3212   3206   3207   3223     1  0.0000000  4.9162000  2
   3212   3206   3207   3223     1  0.0000000  0.6024960  3
   3212   3206   3205   3213     1  0.0000000  4.9162000  2
   3212   3206   3205   3213     1  0.0000000  0.6024960  3
   3213   3205   3202   3214     1  0.0000000  4.9162000  2
   3213   3205   3202   3214     1  0.0000000  0.6024960  3
   3214   3202   3201   3215     1  0.0000000  0.6508444  3
   3214   3202   3201   3223     1  0.0000000  4.9162000  2
   3214   3202   3201   3223     1  0.0000000  0.6024960  3
   3221   3215   3201   3223     1  0.0000000  4.9162000  2
   3221   3215   3201   3223     1  0.0000000  0.6024960  3
   3224   3225   3228   3229     1  180.0000771  0.8368000  1
   3224   3225   3228   3229     1  180.0000771  1.0460000  2
   3224   3225   3228   3229     1  0.0000000  0.7531200  3
   3224   3225   3228   3236     1  0.0000000  0.6508444  3
   3224   3246   3230   3229     1  180.0000771  0.4184000  2
   3224   3246   3230   3229     1  0.0000000  1.6024720  3
   3224   3246   3230   3234     1  180.0000771  5.6484000  1
   3224   3246   3230   3234     1  180.0000771  3.5564000  2
   3224   3246   3230   3234     1  0.0000000  0.4184000  3
   3225   3224   3238   3244     1  0.0000000  0.6508444  3
   3225   3224   3246   3230     1  180.0000771  0.4184000  2
   3225   3224   3246   3230     1  0.0000000  1.6024720  3
   3225   3228   3229   3230     1  180.0000771  0.8368000  1
   3225   3228   3229   3230     1  180.0000771  1.0460000  2
   3225   3228   3229   3230     1  0.0000000  0.7531200  3
   3225   3228   3229   3235     1  0.0000000  0.6508444  3
   3228   3225   3224   3238     1  180.0000771  0.8368000  1
   3228   3225   3224   3238     1  180.0000771  1.0460000  2
   3228   3225   3224   3238     1  0.0000000  0.7531200  3
   3228   3225   3224   3246     1  0.0000000  0.6508444  3
   3228   3229   3230   3234     1  0.0000000  0.6508444  3
   3228   3229   3230   3246     1  0.0000000  0.6508444  3
   3229   3228   3225   3237     1  0.0000000  0.6508444  3
   3230   3229   3228   3236     1  0.0000000  0.6508444  3
   3230   3246   3224   3238     1  180.0000771  0.4184000  2
   3230   3246   3224   3238     1  0.0000000  1.6024720  3
   3234   3230   3229   3235     1  0.0000000  4.9162000  2
   3234   3230   3229   3235     1  0.0000000  0.6024960  3
   3235   3229   3228   3236     1  0.0000000  4.9162000  2
   3235   3229   3228   3236     1  0.0000000  0.6024960  3
   3235   3229   3230   3246     1  0.0000000  4.9162000  2
   3235   3229   3230   3246     1  0.0000000  0.6024960  3
   3236   3228   3225   3237     1  0.0000000  4.9162000  2
   3236   3228   3225   3237     1  0.0000000  0.6024960  3
   3237   3225   3224   3238     1  0.0000000  0.6508444  3
   3237   3225   3224   3246     1  0.0000000  4.9162000  2
   3237   3225   3224   3246     1  0.0000000  0.6024960  3
   3244   3238   3224   3246     1  0.0000000  4.9162000  2
   3244   3238   3224   3246     1  0.0000000  0.6024960  3
   3247   3248   3251   3252     1  180.0000771  0.8368000  1
   3247   3248   3251   3252     1  180.0000771  1.0460000  2
   3247   3248   3251   3252     1  0.0000000  0.7531200  3
   3247   3248   3251   3259     1  0.0000000  0.6508444  3
   3247   3269   3253   3257     1  180.0000771  5.6484000  1
   3247   3269   3253   3257     1  180.0000771  3.5564000  2
   3247   3269   3253   3257     1  0.0000000  0.4184000  3
   3247   3269   3253   3252     1  180.0000771  0.4184000  2
   3247   3269   3253   3252     1  0.0000000  1.6024720  3
   3248   3251   3252   3253     1  180.0000771  0.8368000  1
   3248   3251   3252   3253     1  180.0000771  1.0460000  2
   3248   3251   3252   3253     1  0.0000000  0.7531200  3
   3248   3251   3252   3258     1  0.0000000  0.6508444  3
   3248   3247   3261   3267     1  0.0000000  0.6508444  3
   3248   3247   3269   3253     1  180.0000771  0.4184000  2
   3248   3247   3269   3253     1  0.0000000  1.6024720  3
   3251   3252   3253   3257     1  0.0000000  0.6508444  3
   3251   3252   3253   3269     1  0.0000000  0.6508444  3
   3251   3248   3247   3261     1  180.0000771  0.8368000  1
   3251   3248   3247   3261     1  180.0000771  1.0460000  2
   3251   3248   3247   3261     1  0.0000000  0.7531200  3
   3251   3248   3247   3269     1  0.0000000  0.6508444  3
   3252   3251   3248   3260     1  0.0000000  0.6508444  3
   3253   3269   3247   3261     1  180.0000771  0.4184000  2
   3253   3269   3247   3261     1  0.0000000  1.6024720  3
   3253   3252   3251   3259     1  0.0000000  0.6508444  3
   3257   3253   3252   3258     1  0.0000000  4.9162000  2
   3257   3253   3252   3258     1  0.0000000  0.6024960  3
   3258   3252   3253   3269     1  0.0000000  4.9162000  2
   3258   3252   3253   3269     1  0.0000000  0.6024960  3
   3258   3252   3251   3259     1  0.0000000  4.9162000  2
   3258   3252   3251   3259     1  0.0000000  0.6024960  3
   3259   3251   3248   3260     1  0.0000000  4.9162000  2
   3259   3251   3248   3260     1  0.0000000  0.6024960  3
   3260   3248   3247   3261     1  0.0000000  0.6508444  3
   3260   3248   3247   3269     1  0.0000000  4.9162000  2
   3260   3248   3247   3269     1  0.0000000  0.6024960  3
   3267   3261   3247   3269     1  0.0000000  4.9162000  2
   3267   3261   3247   3269     1  0.0000000  0.6024960  3
      1      2      8      9     1  0.0000000  1.0460000  1
      1      2      8      9     1  0.0000000  0.0000000  3
      1      2      8     10     1  0.0000000  1.0460000  1
      1      2      8     10     1  0.0000000  0.0000000  3
      1      5     11     12     1  0.0000000  1.0460000  1
      1      5     11     12     1  0.0000000  0.0000000  3
      1      5     11     13     1  0.0000000  1.0460000  1
      1      5     11     13     1  0.0000000  0.0000000  3
      2      1      5      6     1  0.0000000  1.6038667  3
      2      1      5      7     1  0.0000000  1.6038667  3
      2      8     14     15     1  0.0000000  0.6508444  3
      2      8     14     16     1  0.0000000  0.6508444  3
      5      1      2      3     1  0.0000000  1.6038667  3
      3      2      8     14     1  0.0000000  0.6508444  3
      3      2      8      9     1  0.0000000  0.6508444  3
      3      2      8     10     1  0.0000000  0.6508444  3
      5      1      2      4     1  0.0000000  1.6038667  3
      4      2      8     14     1  0.0000000  0.6508444  3
      4      2      8      9     1  0.0000000  0.6508444  3
      4      2      8     10     1  0.0000000  0.6508444  3
      5     11     17     18     1  0.0000000  0.6508444  3
      5     11     17     19     1  0.0000000  0.6508444  3
      6      5     11     17     1  0.0000000  0.6508444  3
      6      5     11     12     1  0.0000000  0.6508444  3
      6      5     11     13     1  0.0000000  0.6508444  3
      7      5     11     17     1  0.0000000  0.6508444  3
      7      5     11     12     1  0.0000000  0.6508444  3
      7      5     11     13     1  0.0000000  0.6508444  3
      9      8     14     20     1  0.0000000  0.6508444  3
      9      8     14     15     1  0.0000000  0.6508444  3
      9      8     14     16     1  0.0000000  0.6508444  3
     10      8     14     20     1  0.0000000  0.6508444  3
     10      8     14     15     1  0.0000000  0.6508444  3
     10      8     14     16     1  0.0000000  0.6508444  3
     12     11     17     21     1  0.0000000  0.6508444  3
     12     11     17     18     1  0.0000000  0.6508444  3
     12     11     17     19     1  0.0000000  0.6508444  3
     13     11     17     21     1  0.0000000  0.6508444  3
     13     11     17     18     1  0.0000000  0.6508444  3
     13     11     17     19     1  0.0000000  0.6508444  3
     14     20     28     29     1  0.0000000  1.2552000  3
     14     20     28     30     1  0.0000000  1.2552000  3
     14     20     31     32     1  0.0000000  1.2552000  3
     14     20     31     33     1  0.0000000  1.2552000  3
     15     14     20     28     1  0.0000000  1.2552000  3
     15     14     20     31     1  0.0000000  1.2552000  3
     16     14     20     28     1  0.0000000  1.2552000  3
     16     14     20     31     1  0.0000000  1.2552000  3
     17     21     22     23     1  0.0000000  1.2552000  3
     17     21     22     24     1  0.0000000  1.2552000  3
     17     21     25     26     1  0.0000000  1.2552000  3
     17     21     25     27     1  0.0000000  1.2552000  3
     18     17     21     22     1  0.0000000  1.2552000  3
     18     17     21     25     1  0.0000000  1.2552000  3
     19     17     21     22     1  0.0000000  1.2552000  3
     19     17     21     25     1  0.0000000  1.2552000  3
     20     28     40     41     1  0.0000000  0.6508444  3
     20     28     40     42     1  0.0000000  0.6508444  3
     20     31     43     44     1  0.0000000  0.6508444  3
     20     31     43     45     1  0.0000000  0.6508444  3
     21     22     34     35     1  0.0000000  0.6508444  3
     21     22     34     36     1  0.0000000  0.6508444  3
     21     25     37     38     1  0.0000000  0.6508444  3
     21     25     37     39     1  0.0000000  0.6508444  3
     22     21     25     26     1  0.0000000  1.2552000  3
     22     21     25     27     1  0.0000000  1.2552000  3
     22     34     55     56     1  0.0000000  0.6508444  3
     22     34     55     57     1  0.0000000  0.6508444  3
     23     22     21     25     1  0.0000000  1.2552000  3
     23     22     34     55     1  0.0000000  0.6508444  3
     23     22     34     35     1  0.0000000  0.6508444  3
     23     22     34     36     1  0.0000000  0.6508444  3
     24     22     21     25     1  0.0000000  1.2552000  3
     24     22     34     55     1  0.0000000  0.6508444  3
     24     22     34     35     1  0.0000000  0.6508444  3
     24     22     34     36     1  0.0000000  0.6508444  3
     25     37     52     53     1  0.0000000  0.6508444  3
     25     37     52     54     1  0.0000000  0.6508444  3
     26     25     37     52     1  0.0000000  0.6508444  3
     26     25     37     38     1  0.0000000  0.6508444  3
     26     25     37     39     1  0.0000000  0.6508444  3
     27     25     37     52     1  0.0000000  0.6508444  3
     27     25     37     38     1  0.0000000  0.6508444  3
     27     25     37     39     1  0.0000000  0.6508444  3
     28     20     31     32     1  0.0000000  1.2552000  3
     28     20     31     33     1  0.0000000  1.2552000  3
     28     40     49     50     1  0.0000000  0.6508444  3
     28     40     49     51     1  0.0000000  0.6508444  3
     29     28     20     31     1  0.0000000  1.2552000  3
     29     28     40     49     1  0.0000000  0.6508444  3
     29     28     40     41     1  0.0000000  0.6508444  3
     29     28     40     42     1  0.0000000  0.6508444  3
     30     28     20     31     1  0.0000000  1.2552000  3
     30     28     40     49     1  0.0000000  0.6508444  3
     30     28     40     41     1  0.0000000  0.6508444  3
     30     28     40     42     1  0.0000000  0.6508444  3
     31     43     46     47     1  0.0000000  0.6508444  3
     31     43     46     48     1  0.0000000  0.6508444  3
     32     31     43     46     1  0.0000000  0.6508444  3
     32     31     43     44     1  0.0000000  0.6508444  3
     32     31     43     45     1  0.0000000  0.6508444  3
     33     31     43     46     1  0.0000000  0.6508444  3
     33     31     43     44     1  0.0000000  0.6508444  3
     33     31     43     45     1  0.0000000  0.6508444  3
     35     34     55    173     1  0.0000000  1.0460000  1
     35     34     55    173     1  0.0000000  0.0000000  3
     35     34     55     56     1  0.0000000  0.6508444  3
     35     34     55     57     1  0.0000000  0.6508444  3
     36     34     55    173     1  0.0000000  1.0460000  1
     36     34     55    173     1  0.0000000  0.0000000  3
     36     34     55     56     1  0.0000000  0.6508444  3
     36     34     55     57     1  0.0000000  0.6508444  3
     38     37     52    144     1  0.0000000  1.0460000  1
     38     37     52    144     1  0.0000000  0.0000000  3
     38     37     52     53     1  0.0000000  0.6508444  3
     38     37     52     54     1  0.0000000  0.6508444  3
     39     37     52    144     1  0.0000000  1.0460000  1
     39     37     52    144     1  0.0000000  0.0000000  3
     39     37     52     53     1  0.0000000  0.6508444  3
     39     37     52     54     1  0.0000000  0.6508444  3
     41     40     49    115     1  0.0000000  1.0460000  1
     41     40     49    115     1  0.0000000  0.0000000  3
     41     40     49     50     1  0.0000000  0.6508444  3
     41     40     49     51     1  0.0000000  0.6508444  3
     42     40     49    115     1  0.0000000  1.0460000  1
     42     40     49    115     1  0.0000000  0.0000000  3
     42     40     49     50     1  0.0000000  0.6508444  3
     42     40     49     51     1  0.0000000  0.6508444  3
     44     43     46     86     1  0.0000000  1.0460000  1
     44     43     46     86     1  0.0000000  0.0000000  3
     44     43     46     47     1  0.0000000  0.6508444  3
     44     43     46     48     1  0.0000000  0.6508444  3
     45     43     46     86     1  0.0000000  1.0460000  1
     45     43     46     86     1  0.0000000  0.0000000  3
     45     43     46     47     1  0.0000000  0.6508444  3
     45     43     46     48     1  0.0000000  0.6508444  3
     46     86     77     78     1  0.0000000  1.6038667  3
     46     86     77     79     1  0.0000000  1.6038667  3
     47     46     86     77     1  0.0000000  1.6038667  3
     48     46     86     77     1  0.0000000  1.6038667  3
     49    115    106    107     1  0.0000000  1.6038667  3
     49    115    106    108     1  0.0000000  1.6038667  3
     50     49    115    106     1  0.0000000  1.6038667  3
     51     49    115    106     1  0.0000000  1.6038667  3
     52    144    135    136     1  0.0000000  1.6038667  3
     52    144    135    137     1  0.0000000  1.6038667  3
     53     52    144    135     1  0.0000000  1.6038667  3
     54     52    144    135     1  0.0000000  1.6038667  3
     55    173    164    165     1  0.0000000  1.6038667  3
     55    173    164    166     1  0.0000000  1.6038667  3
     56     55    173    164     1  0.0000000  1.6038667  3
     57     55    173    164     1  0.0000000  1.6038667  3
     58     59     71     72     1  0.0000000  0.6508444  3
     58     59     71     73     1  0.0000000  0.6508444  3
     58     62     74     75     1  0.0000000  0.6508444  3
     58     62     74     76     1  0.0000000  0.6508444  3
     58     65     68     69     1  0.0000000  0.6508444  3
     58     65     68     70     1  0.0000000  0.6508444  3
     59     58     62     63     1  0.0000000  1.2552000  3
     59     58     62     64     1  0.0000000  1.2552000  3
     59     58     65     66     1  0.0000000  1.2552000  3
     59     58     65     67     1  0.0000000  1.2552000  3
     59     71     83     84     1  0.0000000  0.6508444  3
     59     71     83     85     1  0.0000000  0.6508444  3
     60     59     58     62     1  0.0000000  1.2552000  3
     60     59     58     65     1  0.0000000  1.2552000  3
     60     59     71     83     1  0.0000000  0.6508444  3
     60     59     71     72     1  0.0000000  0.6508444  3
     60     59     71     73     1  0.0000000  0.6508444  3
     61     59     58     62     1  0.0000000  1.2552000  3
     61     59     58     65     1  0.0000000  1.2552000  3
     61     59     71     83     1  0.0000000  0.6508444  3
     61     59     71     72     1  0.0000000  0.6508444  3
     61     59     71     73     1  0.0000000  0.6508444  3
     62     58     65     66     1  0.0000000  1.2552000  3
     62     58     65     67     1  0.0000000  1.2552000  3
     62     74     80     81     1  0.0000000  0.6508444  3
     62     74     80     82     1  0.0000000  0.6508444  3
     63     62     58     65     1  0.0000000  1.2552000  3
     63     62     74     80     1  0.0000000  0.6508444  3
     63     62     74     75     1  0.0000000  0.6508444  3
     63     62     74     76     1  0.0000000  0.6508444  3
     64     62     58     65     1  0.0000000  1.2552000  3
     64     62     74     80     1  0.0000000  0.6508444  3
     64     62     74     75     1  0.0000000  0.6508444  3
     64     62     74     76     1  0.0000000  0.6508444  3
     65     68     77     78     1  0.0000000  0.6508444  3
     65     68     77     79     1  0.0000000  0.6508444  3
     66     65     68     77     1  0.0000000  0.6508444  3
     66     65     68     69     1  0.0000000  0.6508444  3
     66     65     68     70     1  0.0000000  0.6508444  3
     67     65     68     77     1  0.0000000  0.6508444  3
     67     65     68     69     1  0.0000000  0.6508444  3
     67     65     68     70     1  0.0000000  0.6508444  3
     69     68     77     86     1  0.0000000  1.0460000  1
     69     68     77     86     1  0.0000000  0.0000000  3
     69     68     77     78     1  0.0000000  0.6508444  3
     69     68     77     79     1  0.0000000  0.6508444  3
     70     68     77     86     1  0.0000000  1.0460000  1
     70     68     77     86     1  0.0000000  0.0000000  3
     70     68     77     78     1  0.0000000  0.6508444  3
     70     68     77     79     1  0.0000000  0.6508444  3
     72     71     83    231     1  0.0000000  1.0460000  1
     72     71     83    231     1  0.0000000  0.0000000  3
     72     71     83     84     1  0.0000000  0.6508444  3
     72     71     83     85     1  0.0000000  0.6508444  3
     73     71     83    231     1  0.0000000  1.0460000  1
     73     71     83    231     1  0.0000000  0.0000000  3
     73     71     83     84     1  0.0000000  0.6508444  3
     73     71     83     85     1  0.0000000  0.6508444  3
     75     74     80    202     1  0.0000000  1.0460000  1
     75     74     80    202     1  0.0000000  0.0000000  3
     75     74     80     81     1  0.0000000  0.6508444  3
     75     74     80     82     1  0.0000000  0.6508444  3
     76     74     80    202     1  0.0000000  1.0460000  1
     76     74     80    202     1  0.0000000  0.0000000  3
     76     74     80     81     1  0.0000000  0.6508444  3
     76     74     80     82     1  0.0000000  0.6508444  3
     80    202    193    194     1  0.0000000  1.6038667  3
     80    202    193    195     1  0.0000000  1.6038667  3
     81     80    202    193     1  0.0000000  1.6038667  3
     82     80    202    193     1  0.0000000  1.6038667  3
     83    231    222    223     1  0.0000000  1.6038667  3
     83    231    222    224     1  0.0000000  1.6038667  3
     84     83    231    222     1  0.0000000  1.6038667  3
     85     83    231    222     1  0.0000000  1.6038667  3
     87     88    100    101     1  0.0000000  0.6508444  3
     87     88    100    102     1  0.0000000  0.6508444  3
     87     91    103    104     1  0.0000000  0.6508444  3
     87     91    103    105     1  0.0000000  0.6508444  3
     87     94     97     98     1  0.0000000  0.6508444  3
     87     94     97     99     1  0.0000000  0.6508444  3
     88     87     91     92     1  0.0000000  1.2552000  3
     88     87     91     93     1  0.0000000  1.2552000  3
     88     87     94     95     1  0.0000000  1.2552000  3
     88     87     94     96     1  0.0000000  1.2552000  3
     88    100    112    113     1  0.0000000  0.6508444  3
     88    100    112    114     1  0.0000000  0.6508444  3
     89     88     87     91     1  0.0000000  1.2552000  3
     89     88     87     94     1  0.0000000  1.2552000  3
     89     88    100    112     1  0.0000000  0.6508444  3
     89     88    100    101     1  0.0000000  0.6508444  3
     89     88    100    102     1  0.0000000  0.6508444  3
     90     88     87     91     1  0.0000000  1.2552000  3
     90     88     87     94     1  0.0000000  1.2552000  3
     90     88    100    112     1  0.0000000  0.6508444  3
     90     88    100    101     1  0.0000000  0.6508444  3
     90     88    100    102     1  0.0000000  0.6508444  3
     91     87     94     95     1  0.0000000  1.2552000  3
     91     87     94     96     1  0.0000000  1.2552000  3
     91    103    109    110     1  0.0000000  0.6508444  3
     91    103    109    111     1  0.0000000  0.6508444  3
     92     91     87     94     1  0.0000000  1.2552000  3
     92     91    103    109     1  0.0000000  0.6508444  3
     92     91    103    104     1  0.0000000  0.6508444  3
     92     91    103    105     1  0.0000000  0.6508444  3
     93     91     87     94     1  0.0000000  1.2552000  3
     93     91    103    109     1  0.0000000  0.6508444  3
     93     91    103    104     1  0.0000000  0.6508444  3
     93     91    103    105     1  0.0000000  0.6508444  3
     94     97    106    107     1  0.0000000  0.6508444  3
     94     97    106    108     1  0.0000000  0.6508444  3
     95     94     97    106     1  0.0000000  0.6508444  3
     95     94     97     98     1  0.0000000  0.6508444  3
     95     94     97     99     1  0.0000000  0.6508444  3
     96     94     97    106     1  0.0000000  0.6508444  3
     96     94     97     98     1  0.0000000  0.6508444  3
     96     94     97     99     1  0.0000000  0.6508444  3
     98     97    106    115     1  0.0000000  1.0460000  1
     98     97    106    115     1  0.0000000  0.0000000  3
     98     97    106    107     1  0.0000000  0.6508444  3
     98     97    106    108     1  0.0000000  0.6508444  3
     99     97    106    115     1  0.0000000  1.0460000  1
     99     97    106    115     1  0.0000000  0.0000000  3
     99     97    106    107     1  0.0000000  0.6508444  3
     99     97    106    108     1  0.0000000  0.6508444  3
    101    100    112    289     1  0.0000000  1.0460000  1
    101    100    112    289     1  0.0000000  0.0000000  3
    101    100    112    113     1  0.0000000  0.6508444  3
    101    100    112    114     1  0.0000000  0.6508444  3
    102    100    112    289     1  0.0000000  1.0460000  1
    102    100    112    289     1  0.0000000  0.0000000  3
    102    100    112    113     1  0.0000000  0.6508444  3
    102    100    112    114     1  0.0000000  0.6508444  3
    104    103    109    260     1  0.0000000  1.0460000  1
    104    103    109    260     1  0.0000000  0.0000000  3
    104    103    109    110     1  0.0000000  0.6508444  3
    104    103    109    111     1  0.0000000  0.6508444  3
    105    103    109    260     1  0.0000000  1.0460000  1
    105    103    109    260     1  0.0000000  0.0000000  3
    105    103    109    110     1  0.0000000  0.6508444  3
    105    103    109    111     1  0.0000000  0.6508444  3
    109    260    251    252     1  0.0000000  1.6038667  3
    109    260    251    253     1  0.0000000  1.6038667  3
    110    109    260    251     1  0.0000000  1.6038667  3
    111    109    260    251     1  0.0000000  1.6038667  3
    112    289    280    281     1  0.0000000  1.6038667  3
    112    289    280    282     1  0.0000000  1.6038667  3
    113    112    289    280     1  0.0000000  1.6038667  3
    114    112    289    280     1  0.0000000  1.6038667  3
    116    117    129    130     1  0.0000000  0.6508444  3
    116    117    129    131     1  0.0000000  0.6508444  3
    116    120    132    133     1  0.0000000  0.6508444  3
    116    120    132    134     1  0.0000000  0.6508444  3
    116    123    126    127     1  0.0000000  0.6508444  3
    116    123    126    128     1  0.0000000  0.6508444  3
    117    116    120    121     1  0.0000000  1.2552000  3
    117    116    120    122     1  0.0000000  1.2552000  3
    117    116    123    124     1  0.0000000  1.2552000  3
    117    116    123    125     1  0.0000000  1.2552000  3
    117    129    141    142     1  0.0000000  0.6508444  3
    117    129    141    143     1  0.0000000  0.6508444  3
    118    117    116    120     1  0.0000000  1.2552000  3
    118    117    116    123     1  0.0000000  1.2552000  3
    118    117    129    141     1  0.0000000  0.6508444  3
    118    117    129    130     1  0.0000000  0.6508444  3
    118    117    129    131     1  0.0000000  0.6508444  3
    119    117    116    120     1  0.0000000  1.2552000  3
    119    117    116    123     1  0.0000000  1.2552000  3
    119    117    129    141     1  0.0000000  0.6508444  3
    119    117    129    130     1  0.0000000  0.6508444  3
    119    117    129    131     1  0.0000000  0.6508444  3
    120    116    123    124     1  0.0000000  1.2552000  3
    120    116    123    125     1  0.0000000  1.2552000  3
    120    132    138    139     1  0.0000000  0.6508444  3
    120    132    138    140     1  0.0000000  0.6508444  3
    121    120    116    123     1  0.0000000  1.2552000  3
    121    120    132    138     1  0.0000000  0.6508444  3
    121    120    132    133     1  0.0000000  0.6508444  3
    121    120    132    134     1  0.0000000  0.6508444  3
    122    120    116    123     1  0.0000000  1.2552000  3
    122    120    132    138     1  0.0000000  0.6508444  3
    122    120    132    133     1  0.0000000  0.6508444  3
    122    120    132    134     1  0.0000000  0.6508444  3
    123    126    135    136     1  0.0000000  0.6508444  3
    123    126    135    137     1  0.0000000  0.6508444  3
    124    123    126    135     1  0.0000000  0.6508444  3
    124    123    126    127     1  0.0000000  0.6508444  3
    124    123    126    128     1  0.0000000  0.6508444  3
    125    123    126    135     1  0.0000000  0.6508444  3
    125    123    126    127     1  0.0000000  0.6508444  3
    125    123    126    128     1  0.0000000  0.6508444  3
    127    126    135    144     1  0.0000000  1.0460000  1
    127    126    135    144     1  0.0000000  0.0000000  3
    127    126    135    136     1  0.0000000  0.6508444  3
    127    126    135    137     1  0.0000000  0.6508444  3
    128    126    135    144     1  0.0000000  1.0460000  1
    128    126    135    144     1  0.0000000  0.0000000  3
    128    126    135    136     1  0.0000000  0.6508444  3
    128    126    135    137     1  0.0000000  0.6508444  3
    130    129    141    347     1  0.0000000  1.0460000  1
    130    129    141    347     1  0.0000000  0.0000000  3
    130    129    141    142     1  0.0000000  0.6508444  3
    130    129    141    143     1  0.0000000  0.6508444  3
    131    129    141    347     1  0.0000000  1.0460000  1
    131    129    141    347     1  0.0000000  0.0000000  3
    131    129    141    142     1  0.0000000  0.6508444  3
    131    129    141    143     1  0.0000000  0.6508444  3
    133    132    138    318     1  0.0000000  1.0460000  1
    133    132    138    318     1  0.0000000  0.0000000  3
    133    132    138    139     1  0.0000000  0.6508444  3
    133    132    138    140     1  0.0000000  0.6508444  3
    134    132    138    318     1  0.0000000  1.0460000  1
    134    132    138    318     1  0.0000000  0.0000000  3
    134    132    138    139     1  0.0000000  0.6508444  3
    134    132    138    140     1  0.0000000  0.6508444  3
    138    318    309    310     1  0.0000000  1.6038667  3
    138    318    309    311     1  0.0000000  1.6038667  3
    139    138    318    309     1  0.0000000  1.6038667  3
    140    138    318    309     1  0.0000000  1.6038667  3
    141    347    338    339     1  0.0000000  1.6038667  3
    141    347    338    340     1  0.0000000  1.6038667  3
    142    141    347    338     1  0.0000000  1.6038667  3
    143    141    347    338     1  0.0000000  1.6038667  3
    145    146    158    159     1  0.0000000  0.6508444  3
    145    146    158    160     1  0.0000000  0.6508444  3
    145    149    161    162     1  0.0000000  0.6508444  3
    145    149    161    163     1  0.0000000  0.6508444  3
    145    152    155    156     1  0.0000000  0.6508444  3
    145    152    155    157     1  0.0000000  0.6508444  3
    146    145    149    150     1  0.0000000  1.2552000  3
    146    145    149    151     1  0.0000000  1.2552000  3
    146    145    152    153     1  0.0000000  1.2552000  3
    146    145    152    154     1  0.0000000  1.2552000  3
    146    158    170    171     1  0.0000000  0.6508444  3
    146    158    170    172     1  0.0000000  0.6508444  3
    147    146    145    149     1  0.0000000  1.2552000  3
    147    146    145    152     1  0.0000000  1.2552000  3
    147    146    158    170     1  0.0000000  0.6508444  3
    147    146    158    159     1  0.0000000  0.6508444  3
    147    146    158    160     1  0.0000000  0.6508444  3
    148    146    145    149     1  0.0000000  1.2552000  3
    148    146    145    152     1  0.0000000  1.2552000  3
    148    146    158    170     1  0.0000000  0.6508444  3
    148    146    158    159     1  0.0000000  0.6508444  3
    148    146    158    160     1  0.0000000  0.6508444  3
    149    145    152    153     1  0.0000000  1.2552000  3
    149    145    152    154     1  0.0000000  1.2552000  3
    149    161    167    168     1  0.0000000  0.6508444  3
    149    161    167    169     1  0.0000000  0.6508444  3
    150    149    145    152     1  0.0000000  1.2552000  3
    150    149    161    167     1  0.0000000  0.6508444  3
    150    149    161    162     1  0.0000000  0.6508444  3
    150    149    161    163     1  0.0000000  0.6508444  3
    151    149    145    152     1  0.0000000  1.2552000  3
    151    149    161    167     1  0.0000000  0.6508444  3
    151    149    161    162     1  0.0000000  0.6508444  3
    151    149    161    163     1  0.0000000  0.6508444  3
    152    155    164    165     1  0.0000000  0.6508444  3
    152    155    164    166     1  0.0000000  0.6508444  3
    153    152    155    164     1  0.0000000  0.6508444  3
    153    152    155    156     1  0.0000000  0.6508444  3
    153    152    155    157     1  0.0000000  0.6508444  3
    154    152    155    164     1  0.0000000  0.6508444  3
    154    152    155    156     1  0.0000000  0.6508444  3
    154    152    155    157     1  0.0000000  0.6508444  3
    156    155    164    173     1  0.0000000  1.0460000  1
    156    155    164    173     1  0.0000000  0.0000000  3
    156    155    164    165     1  0.0000000  0.6508444  3
    156    155    164    166     1  0.0000000  0.6508444  3
    157    155    164    173     1  0.0000000  1.0460000  1
    157    155    164    173     1  0.0000000  0.0000000  3
    157    155    164    165     1  0.0000000  0.6508444  3
    157    155    164    166     1  0.0000000  0.6508444  3
    159    158    170    405     1  0.0000000  1.0460000  1
    159    158    170    405     1  0.0000000  0.0000000  3
    159    158    170    171     1  0.0000000  0.6508444  3
    159    158    170    172     1  0.0000000  0.6508444  3
    160    158    170    405     1  0.0000000  1.0460000  1
    160    158    170    405     1  0.0000000  0.0000000  3
    160    158    170    171     1  0.0000000  0.6508444  3
    160    158    170    172     1  0.0000000  0.6508444  3
    162    161    167    376     1  0.0000000  1.0460000  1
    162    161    167    376     1  0.0000000  0.0000000  3
    162    161    167    168     1  0.0000000  0.6508444  3
    162    161    167    169     1  0.0000000  0.6508444  3
    163    161    167    376     1  0.0000000  1.0460000  1
    163    161    167    376     1  0.0000000  0.0000000  3
    163    161    167    168     1  0.0000000  0.6508444  3
    163    161    167    169     1  0.0000000  0.6508444  3
    167    376    367    368     1  0.0000000  1.6038667  3
    167    376    367    369     1  0.0000000  1.6038667  3
    168    167    376    367     1  0.0000000  1.6038667  3
    169    167    376    367     1  0.0000000  1.6038667  3
    170    405    396    397     1  0.0000000  1.6038667  3
    170    405    396    398     1  0.0000000  1.6038667  3
    171    170    405    396     1  0.0000000  1.6038667  3
    172    170    405    396     1  0.0000000  1.6038667  3
    174    175    187    188     1  0.0000000  0.6508444  3
    174    175    187    189     1  0.0000000  0.6508444  3
    174    178    190    191     1  0.0000000  0.6508444  3
    174    178    190    192     1  0.0000000  0.6508444  3
    174    181    184    185     1  0.0000000  0.6508444  3
    174    181    184    186     1  0.0000000  0.6508444  3
    175    174    178    179     1  0.0000000  1.2552000  3
    175    174    178    180     1  0.0000000  1.2552000  3
    175    174    181    182     1  0.0000000  1.2552000  3
    175    174    181    183     1  0.0000000  1.2552000  3
    175    187    199    200     1  0.0000000  0.6508444  3
    175    187    199    201     1  0.0000000  0.6508444  3
    176    175    174    178     1  0.0000000  1.2552000  3
    176    175    174    181     1  0.0000000  1.2552000  3
    176    175    187    199     1  0.0000000  0.6508444  3
    176    175    187    188     1  0.0000000  0.6508444  3
    176    175    187    189     1  0.0000000  0.6508444  3
    177    175    174    178     1  0.0000000  1.2552000  3
    177    175    174    181     1  0.0000000  1.2552000  3
    177    175    187    199     1  0.0000000  0.6508444  3
    177    175    187    188     1  0.0000000  0.6508444  3
    177    175    187    189     1  0.0000000  0.6508444  3
    178    174    181    182     1  0.0000000  1.2552000  3
    178    174    181    183     1  0.0000000  1.2552000  3
    178    190    196    197     1  0.0000000  0.6508444  3
    178    190    196    198     1  0.0000000  0.6508444  3
    179    178    174    181     1  0.0000000  1.2552000  3
    179    178    190    196     1  0.0000000  0.6508444  3
    179    178    190    191     1  0.0000000  0.6508444  3
    179    178    190    192     1  0.0000000  0.6508444  3
    180    178    174    181     1  0.0000000  1.2552000  3
    180    178    190    196     1  0.0000000  0.6508444  3
    180    178    190    191     1  0.0000000  0.6508444  3
    180    178    190    192     1  0.0000000  0.6508444  3
    181    184    193    194     1  0.0000000  0.6508444  3
    181    184    193    195     1  0.0000000  0.6508444  3
    182    181    184    193     1  0.0000000  0.6508444  3
    182    181    184    185     1  0.0000000  0.6508444  3
    182    181    184    186     1  0.0000000  0.6508444  3
    183    181    184    193     1  0.0000000  0.6508444  3
    183    181    184    185     1  0.0000000  0.6508444  3
    183    181    184    186     1  0.0000000  0.6508444  3
    185    184    193    202     1  0.0000000  1.0460000  1
    185    184    193    202     1  0.0000000  0.0000000  3
    185    184    193    194     1  0.0000000  0.6508444  3
    185    184    193    195     1  0.0000000  0.6508444  3
    186    184    193    202     1  0.0000000  1.0460000  1
    186    184    193    202     1  0.0000000  0.0000000  3
    186    184    193    194     1  0.0000000  0.6508444  3
    186    184    193    195     1  0.0000000  0.6508444  3
    188    187    199    463     1  0.0000000  1.0460000  1
    188    187    199    463     1  0.0000000  0.0000000  3
    188    187    199    200     1  0.0000000  0.6508444  3
    188    187    199    201     1  0.0000000  0.6508444  3
    189    187    199    463     1  0.0000000  1.0460000  1
    189    187    199    463     1  0.0000000  0.0000000  3
    189    187    199    200     1  0.0000000  0.6508444  3
    189    187    199    201     1  0.0000000  0.6508444  3
    191    190    196    434     1  0.0000000  1.0460000  1
    191    190    196    434     1  0.0000000  0.0000000  3
    191    190    196    197     1  0.0000000  0.6508444  3
    191    190    196    198     1  0.0000000  0.6508444  3
    192    190    196    434     1  0.0000000  1.0460000  1
    192    190    196    434     1  0.0000000  0.0000000  3
    192    190    196    197     1  0.0000000  0.6508444  3
    192    190    196    198     1  0.0000000  0.6508444  3
    196    434    425    426     1  0.0000000  1.6038667  3
    196    434    425    427     1  0.0000000  1.6038667  3
    197    196    434    425     1  0.0000000  1.6038667  3
    198    196    434    425     1  0.0000000  1.6038667  3
    199    463    454    455     1  0.0000000  1.6038667  3
    199    463    454    456     1  0.0000000  1.6038667  3
    200    199    463    454     1  0.0000000  1.6038667  3
    201    199    463    454     1  0.0000000  1.6038667  3
    203    204    216    217     1  0.0000000  0.6508444  3
    203    204    216    218     1  0.0000000  0.6508444  3
    203    207    219    220     1  0.0000000  0.6508444  3
    203    207    219    221     1  0.0000000  0.6508444  3
    203    210    213    214     1  0.0000000  0.6508444  3
    203    210    213    215     1  0.0000000  0.6508444  3
    204    203    207    208     1  0.0000000  1.2552000  3
    204    203    207    209     1  0.0000000  1.2552000  3
    204    203    210    211     1  0.0000000  1.2552000  3
    204    203    210    212     1  0.0000000  1.2552000  3
    204    216    228    229     1  0.0000000  0.6508444  3
    204    216    228    230     1  0.0000000  0.6508444  3
    205    204    203    207     1  0.0000000  1.2552000  3
    205    204    203    210     1  0.0000000  1.2552000  3
    205    204    216    228     1  0.0000000  0.6508444  3
    205    204    216    217     1  0.0000000  0.6508444  3
    205    204    216    218     1  0.0000000  0.6508444  3
    206    204    203    207     1  0.0000000  1.2552000  3
    206    204    203    210     1  0.0000000  1.2552000  3
    206    204    216    228     1  0.0000000  0.6508444  3
    206    204    216    217     1  0.0000000  0.6508444  3
    206    204    216    218     1  0.0000000  0.6508444  3
    207    203    210    211     1  0.0000000  1.2552000  3
    207    203    210    212     1  0.0000000  1.2552000  3
    207    219    225    226     1  0.0000000  0.6508444  3
    207    219    225    227     1  0.0000000  0.6508444  3
    208    207    203    210     1  0.0000000  1.2552000  3
    208    207    219    225     1  0.0000000  0.6508444  3
    208    207    219    220     1  0.0000000  0.6508444  3
    208    207    219    221     1  0.0000000  0.6508444  3
    209    207    203    210     1  0.0000000  1.2552000  3
    209    207    219    225     1  0.0000000  0.6508444  3
    209    207    219    220     1  0.0000000  0.6508444  3
    209    207    219    221     1  0.0000000  0.6508444  3
    210    213    222    223     1  0.0000000  0.6508444  3
    210    213    222    224     1  0.0000000  0.6508444  3
    211    210    213    222     1  0.0000000  0.6508444  3
    211    210    213    214     1  0.0000000  0.6508444  3
    211    210    213    215     1  0.0000000  0.6508444  3
    212    210    213    222     1  0.0000000  0.6508444  3
    212    210    213    214     1  0.0000000  0.6508444  3
    212    210    213    215     1  0.0000000  0.6508444  3
    214    213    222    231     1  0.0000000  1.0460000  1
    214    213    222    231     1  0.0000000  0.0000000  3
    214    213    222    223     1  0.0000000  0.6508444  3
    214    213    222    224     1  0.0000000  0.6508444  3
    215    213    222    231     1  0.0000000  1.0460000  1
    215    213    222    231     1  0.0000000  0.0000000  3
    215    213    222    223     1  0.0000000  0.6508444  3
    215    213    222    224     1  0.0000000  0.6508444  3
    217    216    228    521     1  0.0000000  1.0460000  1
    217    216    228    521     1  0.0000000  0.0000000  3
    217    216    228    229     1  0.0000000  0.6508444  3
    217    216    228    230     1  0.0000000  0.6508444  3
    218    216    228    521     1  0.0000000  1.0460000  1
    218    216    228    521     1  0.0000000  0.0000000  3
    218    216    228    229     1  0.0000000  0.6508444  3
    218    216    228    230     1  0.0000000  0.6508444  3
    220    219    225    492     1  0.0000000  1.0460000  1
    220    219    225    492     1  0.0000000  0.0000000  3
    220    219    225    226     1  0.0000000  0.6508444  3
    220    219    225    227     1  0.0000000  0.6508444  3
    221    219    225    492     1  0.0000000  1.0460000  1
    221    219    225    492     1  0.0000000  0.0000000  3
    221    219    225    226     1  0.0000000  0.6508444  3
    221    219    225    227     1  0.0000000  0.6508444  3
    225    492    483    484     1  0.0000000  1.6038667  3
    225    492    483    485     1  0.0000000  1.6038667  3
    226    225    492    483     1  0.0000000  1.6038667  3
    227    225    492    483     1  0.0000000  1.6038667  3
    228    521    512    513     1  0.0000000  1.6038667  3
    228    521    512    514     1  0.0000000  1.6038667  3
    229    228    521    512     1  0.0000000  1.6038667  3
    230    228    521    512     1  0.0000000  1.6038667  3
    232    233    245    246     1  0.0000000  0.6508444  3
    232    233    245    247     1  0.0000000  0.6508444  3
    232    236    248    249     1  0.0000000  0.6508444  3
    232    236    248    250     1  0.0000000  0.6508444  3
    232    239    242    243     1  0.0000000  0.6508444  3
    232    239    242    244     1  0.0000000  0.6508444  3
    233    232    236    237     1  0.0000000  1.2552000  3
    233    232    236    238     1  0.0000000  1.2552000  3
    233    232    239    240     1  0.0000000  1.2552000  3
    233    232    239    241     1  0.0000000  1.2552000  3
    233    245    257    258     1  0.0000000  0.6508444  3
    233    245    257    259     1  0.0000000  0.6508444  3
    234    233    232    236     1  0.0000000  1.2552000  3
    234    233    232    239     1  0.0000000  1.2552000  3
    234    233    245    257     1  0.0000000  0.6508444  3
    234    233    245    246     1  0.0000000  0.6508444  3
    234    233    245    247     1  0.0000000  0.6508444  3
    235    233    232    236     1  0.0000000  1.2552000  3
    235    233    232    239     1  0.0000000  1.2552000  3
    235    233    245    257     1  0.0000000  0.6508444  3
    235    233    245    246     1  0.0000000  0.6508444  3
    235    233    245    247     1  0.0000000  0.6508444  3
    236    232    239    240     1  0.0000000  1.2552000  3
    236    232    239    241     1  0.0000000  1.2552000  3
    236    248    254    255     1  0.0000000  0.6508444  3
    236    248    254    256     1  0.0000000  0.6508444  3
    237    236    232    239     1  0.0000000  1.2552000  3
    237    236    248    254     1  0.0000000  0.6508444  3
    237    236    248    249     1  0.0000000  0.6508444  3
    237    236    248    250     1  0.0000000  0.6508444  3
    238    236    232    239     1  0.0000000  1.2552000  3
    238    236    248    254     1  0.0000000  0.6508444  3
    238    236    248    249     1  0.0000000  0.6508444  3
    238    236    248    250     1  0.0000000  0.6508444  3
    239    242    251    252     1  0.0000000  0.6508444  3
    239    242    251    253     1  0.0000000  0.6508444  3
    240    239    242    251     1  0.0000000  0.6508444  3
    240    239    242    243     1  0.0000000  0.6508444  3
    240    239    242    244     1  0.0000000  0.6508444  3
    241    239    242    251     1  0.0000000  0.6508444  3
    241    239    242    243     1  0.0000000  0.6508444  3
    241    239    242    244     1  0.0000000  0.6508444  3
    243    242    251    260     1  0.0000000  1.0460000  1
    243    242    251    260     1  0.0000000  0.0000000  3
    243    242    251    252     1  0.0000000  0.6508444  3
    243    242    251    253     1  0.0000000  0.6508444  3
    244    242    251    260     1  0.0000000  1.0460000  1
    244    242    251    260     1  0.0000000  0.0000000  3
    244    242    251    252     1  0.0000000  0.6508444  3
    244    242    251    253     1  0.0000000  0.6508444  3
    246    245    257    579     1  0.0000000  1.0460000  1
    246    245    257    579     1  0.0000000  0.0000000  3
    246    245    257    258     1  0.0000000  0.6508444  3
    246    245    257    259     1  0.0000000  0.6508444  3
    247    245    257    579     1  0.0000000  1.0460000  1
    247    245    257    579     1  0.0000000  0.0000000  3
    247    245    257    258     1  0.0000000  0.6508444  3
    247    245    257    259     1  0.0000000  0.6508444  3
    249    248    254    550     1  0.0000000  1.0460000  1
    249    248    254    550     1  0.0000000  0.0000000  3
    249    248    254    255     1  0.0000000  0.6508444  3
    249    248    254    256     1  0.0000000  0.6508444  3
    250    248    254    550     1  0.0000000  1.0460000  1
    250    248    254    550     1  0.0000000  0.0000000  3
    250    248    254    255     1  0.0000000  0.6508444  3
    250    248    254    256     1  0.0000000  0.6508444  3
    254    550    541    542     1  0.0000000  1.6038667  3
    254    550    541    543     1  0.0000000  1.6038667  3
    255    254    550    541     1  0.0000000  1.6038667  3
    256    254    550    541     1  0.0000000  1.6038667  3
    257    579    570    571     1  0.0000000  1.6038667  3
    257    579    570    572     1  0.0000000  1.6038667  3
    258    257    579    570     1  0.0000000  1.6038667  3
    259    257    579    570     1  0.0000000  1.6038667  3
    261    262    274    275     1  0.0000000  0.6508444  3
    261    262    274    276     1  0.0000000  0.6508444  3
    261    265    277    278     1  0.0000000  0.6508444  3
    261    265    277    279     1  0.0000000  0.6508444  3
    261    268    271    272     1  0.0000000  0.6508444  3
    261    268    271    273     1  0.0000000  0.6508444  3
    262    261    265    266     1  0.0000000  1.2552000  3
    262    261    265    267     1  0.0000000  1.2552000  3
    262    261    268    269     1  0.0000000  1.2552000  3
    262    261    268    270     1  0.0000000  1.2552000  3
    262    274    286    287     1  0.0000000  0.6508444  3
    262    274    286    288     1  0.0000000  0.6508444  3
    263    262    261    265     1  0.0000000  1.2552000  3
    263    262    261    268     1  0.0000000  1.2552000  3
    263    262    274    286     1  0.0000000  0.6508444  3
    263    262    274    275     1  0.0000000  0.6508444  3
    263    262    274    276     1  0.0000000  0.6508444  3
    264    262    261    265     1  0.0000000  1.2552000  3
    264    262    261    268     1  0.0000000  1.2552000  3
    264    262    274    286     1  0.0000000  0.6508444  3
    264    262    274    275     1  0.0000000  0.6508444  3
    264    262    274    276     1  0.0000000  0.6508444  3
    265    261    268    269     1  0.0000000  1.2552000  3
    265    261    268    270     1  0.0000000  1.2552000  3
    265    277    283    284     1  0.0000000  0.6508444  3
    265    277    283    285     1  0.0000000  0.6508444  3
    266    265    261    268     1  0.0000000  1.2552000  3
    266    265    277    283     1  0.0000000  0.6508444  3
    266    265    277    278     1  0.0000000  0.6508444  3
    266    265    277    279     1  0.0000000  0.6508444  3
    267    265    261    268     1  0.0000000  1.2552000  3
    267    265    277    283     1  0.0000000  0.6508444  3
    267    265    277    278     1  0.0000000  0.6508444  3
    267    265    277    279     1  0.0000000  0.6508444  3
    268    271    280    281     1  0.0000000  0.6508444  3
    268    271    280    282     1  0.0000000  0.6508444  3
    269    268    271    280     1  0.0000000  0.6508444  3
    269    268    271    272     1  0.0000000  0.6508444  3
    269    268    271    273     1  0.0000000  0.6508444  3
    270    268    271    280     1  0.0000000  0.6508444  3
    270    268    271    272     1  0.0000000  0.6508444  3
    270    268    271    273     1  0.0000000  0.6508444  3
    272    271    280    289     1  0.0000000  1.0460000  1
    272    271    280    289     1  0.0000000  0.0000000  3
    272    271    280    281     1  0.0000000  0.6508444  3
    272    271    280    282     1  0.0000000  0.6508444  3
    273    271    280    289     1  0.0000000  1.0460000  1
    273    271    280    289     1  0.0000000  0.0000000  3
    273    271    280    281     1  0.0000000  0.6508444  3
    273    271    280    282     1  0.0000000  0.6508444  3
    275    274    286    637     1  0.0000000  1.0460000  1
    275    274    286    637     1  0.0000000  0.0000000  3
    275    274    286    287     1  0.0000000  0.6508444  3
    275    274    286    288     1  0.0000000  0.6508444  3
    276    274    286    637     1  0.0000000  1.0460000  1
    276    274    286    637     1  0.0000000  0.0000000  3
    276    274    286    287     1  0.0000000  0.6508444  3
    276    274    286    288     1  0.0000000  0.6508444  3
    278    277    283    608     1  0.0000000  1.0460000  1
    278    277    283    608     1  0.0000000  0.0000000  3
    278    277    283    284     1  0.0000000  0.6508444  3
    278    277    283    285     1  0.0000000  0.6508444  3
    279    277    283    608     1  0.0000000  1.0460000  1
    279    277    283    608     1  0.0000000  0.0000000  3
    279    277    283    284     1  0.0000000  0.6508444  3
    279    277    283    285     1  0.0000000  0.6508444  3
    283    608    599    600     1  0.0000000  1.6038667  3
    283    608    599    601     1  0.0000000  1.6038667  3
    284    283    608    599     1  0.0000000  1.6038667  3
    285    283    608    599     1  0.0000000  1.6038667  3
    286    637    628    629     1  0.0000000  1.6038667  3
    286    637    628    630     1  0.0000000  1.6038667  3
    287    286    637    628     1  0.0000000  1.6038667  3
    288    286    637    628     1  0.0000000  1.6038667  3
    290    291    303    304     1  0.0000000  0.6508444  3
    290    291    303    305     1  0.0000000  0.6508444  3
    290    294    306    307     1  0.0000000  0.6508444  3
    290    294    306    308     1  0.0000000  0.6508444  3
    290    297    300    301     1  0.0000000  0.6508444  3
    290    297    300    302     1  0.0000000  0.6508444  3
    291    290    294    295     1  0.0000000  1.2552000  3
    291    290    294    296     1  0.0000000  1.2552000  3
    291    290    297    298     1  0.0000000  1.2552000  3
    291    290    297    299     1  0.0000000  1.2552000  3
    291    303    315    316     1  0.0000000  0.6508444  3
    291    303    315    317     1  0.0000000  0.6508444  3
    292    291    290    294     1  0.0000000  1.2552000  3
    292    291    290    297     1  0.0000000  1.2552000  3
    292    291    303    315     1  0.0000000  0.6508444  3
    292    291    303    304     1  0.0000000  0.6508444  3
    292    291    303    305     1  0.0000000  0.6508444  3
    293    291    290    294     1  0.0000000  1.2552000  3
    293    291    290    297     1  0.0000000  1.2552000  3
    293    291    303    315     1  0.0000000  0.6508444  3
    293    291    303    304     1  0.0000000  0.6508444  3
    293    291    303    305     1  0.0000000  0.6508444  3
    294    290    297    298     1  0.0000000  1.2552000  3
    294    290    297    299     1  0.0000000  1.2552000  3
    294    306    312    313     1  0.0000000  0.6508444  3
    294    306    312    314     1  0.0000000  0.6508444  3
    295    294    290    297     1  0.0000000  1.2552000  3
    295    294    306    312     1  0.0000000  0.6508444  3
    295    294    306    307     1  0.0000000  0.6508444  3
    295    294    306    308     1  0.0000000  0.6508444  3
    296    294    290    297     1  0.0000000  1.2552000  3
    296    294    306    312     1  0.0000000  0.6508444  3
    296    294    306    307     1  0.0000000  0.6508444  3
    296    294    306    308     1  0.0000000  0.6508444  3
    297    300    309    310     1  0.0000000  0.6508444  3
    297    300    309    311     1  0.0000000  0.6508444  3
    298    297    300    309     1  0.0000000  0.6508444  3
    298    297    300    301     1  0.0000000  0.6508444  3
    298    297    300    302     1  0.0000000  0.6508444  3
    299    297    300    309     1  0.0000000  0.6508444  3
    299    297    300    301     1  0.0000000  0.6508444  3
    299    297    300    302     1  0.0000000  0.6508444  3
    301    300    309    318     1  0.0000000  1.0460000  1
    301    300    309    318     1  0.0000000  0.0000000  3
    301    300    309    310     1  0.0000000  0.6508444  3
    301    300    309    311     1  0.0000000  0.6508444  3
    302    300    309    318     1  0.0000000  1.0460000  1
    302    300    309    318     1  0.0000000  0.0000000  3
    302    300    309    310     1  0.0000000  0.6508444  3
    302    300    309    311     1  0.0000000  0.6508444  3
    304    303    315    695     1  0.0000000  1.0460000  1
    304    303    315    695     1  0.0000000  0.0000000  3
    304    303    315    316     1  0.0000000  0.6508444  3
    304    303    315    317     1  0.0000000  0.6508444  3
    305    303    315    695     1  0.0000000  1.0460000  1
    305    303    315    695     1  0.0000000  0.0000000  3
    305    303    315    316     1  0.0000000  0.6508444  3
    305    303    315    317     1  0.0000000  0.6508444  3
    307    306    312    666     1  0.0000000  1.0460000  1
    307    306    312    666     1  0.0000000  0.0000000  3
    307    306    312    313     1  0.0000000  0.6508444  3
    307    306    312    314     1  0.0000000  0.6508444  3
    308    306    312    666     1  0.0000000  1.0460000  1
    308    306    312    666     1  0.0000000  0.0000000  3
    308    306    312    313     1  0.0000000  0.6508444  3
    308    306    312    314     1  0.0000000  0.6508444  3
    312    666    657    658     1  0.0000000  1.6038667  3
    312    666    657    659     1  0.0000000  1.6038667  3
    313    312    666    657     1  0.0000000  1.6038667  3
    314    312    666    657     1  0.0000000  1.6038667  3
    315    695    686    687     1  0.0000000  1.6038667  3
    315    695    686    688     1  0.0000000  1.6038667  3
    316    315    695    686     1  0.0000000  1.6038667  3
    317    315    695    686     1  0.0000000  1.6038667  3
    319    320    332    333     1  0.0000000  0.6508444  3
    319    320    332    334     1  0.0000000  0.6508444  3
    319    323    335    336     1  0.0000000  0.6508444  3
    319    323    335    337     1  0.0000000  0.6508444  3
    319    326    329    330     1  0.0000000  0.6508444  3
    319    326    329    331     1  0.0000000  0.6508444  3
    320    319    323    324     1  0.0000000  1.2552000  3
    320    319    323    325     1  0.0000000  1.2552000  3
    320    319    326    327     1  0.0000000  1.2552000  3
    320    319    326    328     1  0.0000000  1.2552000  3
    320    332    344    345     1  0.0000000  0.6508444  3
    320    332    344    346     1  0.0000000  0.6508444  3
    321    320    319    323     1  0.0000000  1.2552000  3
    321    320    319    326     1  0.0000000  1.2552000  3
    321    320    332    344     1  0.0000000  0.6508444  3
    321    320    332    333     1  0.0000000  0.6508444  3
    321    320    332    334     1  0.0000000  0.6508444  3
    322    320    319    323     1  0.0000000  1.2552000  3
    322    320    319    326     1  0.0000000  1.2552000  3
    322    320    332    344     1  0.0000000  0.6508444  3
    322    320    332    333     1  0.0000000  0.6508444  3
    322    320    332    334     1  0.0000000  0.6508444  3
    323    319    326    327     1  0.0000000  1.2552000  3
    323    319    326    328     1  0.0000000  1.2552000  3
    323    335    341    342     1  0.0000000  0.6508444  3
    323    335    341    343     1  0.0000000  0.6508444  3
    324    323    319    326     1  0.0000000  1.2552000  3
    324    323    335    341     1  0.0000000  0.6508444  3
    324    323    335    336     1  0.0000000  0.6508444  3
    324    323    335    337     1  0.0000000  0.6508444  3
    325    323    319    326     1  0.0000000  1.2552000  3
    325    323    335    341     1  0.0000000  0.6508444  3
    325    323    335    336     1  0.0000000  0.6508444  3
    325    323    335    337     1  0.0000000  0.6508444  3
    326    329    338    339     1  0.0000000  0.6508444  3
    326    329    338    340     1  0.0000000  0.6508444  3
    327    326    329    338     1  0.0000000  0.6508444  3
    327    326    329    330     1  0.0000000  0.6508444  3
    327    326    329    331     1  0.0000000  0.6508444  3
    328    326    329    338     1  0.0000000  0.6508444  3
    328    326    329    330     1  0.0000000  0.6508444  3
    328    326    329    331     1  0.0000000  0.6508444  3
    330    329    338    347     1  0.0000000  1.0460000  1
    330    329    338    347     1  0.0000000  0.0000000  3
    330    329    338    339     1  0.0000000  0.6508444  3
    330    329    338    340     1  0.0000000  0.6508444  3
    331    329    338    347     1  0.0000000  1.0460000  1
    331    329    338    347     1  0.0000000  0.0000000  3
    331    329    338    339     1  0.0000000  0.6508444  3
    331    329    338    340     1  0.0000000  0.6508444  3
    333    332    344    753     1  0.0000000  1.0460000  1
    333    332    344    753     1  0.0000000  0.0000000  3
    333    332    344    345     1  0.0000000  0.6508444  3
    333    332    344    346     1  0.0000000  0.6508444  3
    334    332    344    753     1  0.0000000  1.0460000  1
    334    332    344    753     1  0.0000000  0.0000000  3
    334    332    344    345     1  0.0000000  0.6508444  3
    334    332    344    346     1  0.0000000  0.6508444  3
    336    335    341    724     1  0.0000000  1.0460000  1
    336    335    341    724     1  0.0000000  0.0000000  3
    336    335    341    342     1  0.0000000  0.6508444  3
    336    335    341    343     1  0.0000000  0.6508444  3
    337    335    341    724     1  0.0000000  1.0460000  1
    337    335    341    724     1  0.0000000  0.0000000  3
    337    335    341    342     1  0.0000000  0.6508444  3
    337    335    341    343     1  0.0000000  0.6508444  3
    341    724    715    716     1  0.0000000  1.6038667  3
    341    724    715    717     1  0.0000000  1.6038667  3
    342    341    724    715     1  0.0000000  1.6038667  3
    343    341    724    715     1  0.0000000  1.6038667  3
    344    753    744    745     1  0.0000000  1.6038667  3
    344    753    744    746     1  0.0000000  1.6038667  3
    345    344    753    744     1  0.0000000  1.6038667  3
    346    344    753    744     1  0.0000000  1.6038667  3
    348    349    361    362     1  0.0000000  0.6508444  3
    348    349    361    363     1  0.0000000  0.6508444  3
    348    352    364    365     1  0.0000000  0.6508444  3
    348    352    364    366     1  0.0000000  0.6508444  3
    348    355    358    359     1  0.0000000  0.6508444  3
    348    355    358    360     1  0.0000000  0.6508444  3
    349    348    352    353     1  0.0000000  1.2552000  3
    349    348    352    354     1  0.0000000  1.2552000  3
    349    348    355    356     1  0.0000000  1.2552000  3
    349    348    355    357     1  0.0000000  1.2552000  3
    349    361    373    374     1  0.0000000  0.6508444  3
    349    361    373    375     1  0.0000000  0.6508444  3
    350    349    348    352     1  0.0000000  1.2552000  3
    350    349    348    355     1  0.0000000  1.2552000  3
    350    349    361    373     1  0.0000000  0.6508444  3
    350    349    361    362     1  0.0000000  0.6508444  3
    350    349    361    363     1  0.0000000  0.6508444  3
    351    349    348    352     1  0.0000000  1.2552000  3
    351    349    348    355     1  0.0000000  1.2552000  3
    351    349    361    373     1  0.0000000  0.6508444  3
    351    349    361    362     1  0.0000000  0.6508444  3
    351    349    361    363     1  0.0000000  0.6508444  3
    352    348    355    356     1  0.0000000  1.2552000  3
    352    348    355    357     1  0.0000000  1.2552000  3
    352    364    370    371     1  0.0000000  0.6508444  3
    352    364    370    372     1  0.0000000  0.6508444  3
    353    352    348    355     1  0.0000000  1.2552000  3
    353    352    364    370     1  0.0000000  0.6508444  3
    353    352    364    365     1  0.0000000  0.6508444  3
    353    352    364    366     1  0.0000000  0.6508444  3
    354    352    348    355     1  0.0000000  1.2552000  3
    354    352    364    370     1  0.0000000  0.6508444  3
    354    352    364    365     1  0.0000000  0.6508444  3
    354    352    364    366     1  0.0000000  0.6508444  3
    355    358    367    368     1  0.0000000  0.6508444  3
    355    358    367    369     1  0.0000000  0.6508444  3
    356    355    358    367     1  0.0000000  0.6508444  3
    356    355    358    359     1  0.0000000  0.6508444  3
    356    355    358    360     1  0.0000000  0.6508444  3
    357    355    358    367     1  0.0000000  0.6508444  3
    357    355    358    359     1  0.0000000  0.6508444  3
    357    355    358    360     1  0.0000000  0.6508444  3
    359    358    367    376     1  0.0000000  1.0460000  1
    359    358    367    376     1  0.0000000  0.0000000  3
    359    358    367    368     1  0.0000000  0.6508444  3
    359    358    367    369     1  0.0000000  0.6508444  3
    360    358    367    376     1  0.0000000  1.0460000  1
    360    358    367    376     1  0.0000000  0.0000000  3
    360    358    367    368     1  0.0000000  0.6508444  3
    360    358    367    369     1  0.0000000  0.6508444  3
    362    361    373    811     1  0.0000000  1.0460000  1
    362    361    373    811     1  0.0000000  0.0000000  3
    362    361    373    374     1  0.0000000  0.6508444  3
    362    361    373    375     1  0.0000000  0.6508444  3
    363    361    373    811     1  0.0000000  1.0460000  1
    363    361    373    811     1  0.0000000  0.0000000  3
    363    361    373    374     1  0.0000000  0.6508444  3
    363    361    373    375     1  0.0000000  0.6508444  3
    365    364    370    782     1  0.0000000  1.0460000  1
    365    364    370    782     1  0.0000000  0.0000000  3
    365    364    370    371     1  0.0000000  0.6508444  3
    365    364    370    372     1  0.0000000  0.6508444  3
    366    364    370    782     1  0.0000000  1.0460000  1
    366    364    370    782     1  0.0000000  0.0000000  3
    366    364    370    371     1  0.0000000  0.6508444  3
    366    364    370    372     1  0.0000000  0.6508444  3
    370    782    773    774     1  0.0000000  1.6038667  3
    370    782    773    775     1  0.0000000  1.6038667  3
    371    370    782    773     1  0.0000000  1.6038667  3
    372    370    782    773     1  0.0000000  1.6038667  3
    373    811    802    803     1  0.0000000  1.6038667  3
    373    811    802    804     1  0.0000000  1.6038667  3
    374    373    811    802     1  0.0000000  1.6038667  3
    375    373    811    802     1  0.0000000  1.6038667  3
    377    378    390    391     1  0.0000000  0.6508444  3
    377    378    390    392     1  0.0000000  0.6508444  3
    377    381    393    394     1  0.0000000  0.6508444  3
    377    381    393    395     1  0.0000000  0.6508444  3
    377    384    387    388     1  0.0000000  0.6508444  3
    377    384    387    389     1  0.0000000  0.6508444  3
    378    377    381    382     1  0.0000000  1.2552000  3
    378    377    381    383     1  0.0000000  1.2552000  3
    378    377    384    385     1  0.0000000  1.2552000  3
    378    377    384    386     1  0.0000000  1.2552000  3
    378    390    402    403     1  0.0000000  0.6508444  3
    378    390    402    404     1  0.0000000  0.6508444  3
    379    378    377    381     1  0.0000000  1.2552000  3
    379    378    377    384     1  0.0000000  1.2552000  3
    379    378    390    402     1  0.0000000  0.6508444  3
    379    378    390    391     1  0.0000000  0.6508444  3
    379    378    390    392     1  0.0000000  0.6508444  3
    380    378    377    381     1  0.0000000  1.2552000  3
    380    378    377    384     1  0.0000000  1.2552000  3
    380    378    390    402     1  0.0000000  0.6508444  3
    380    378    390    391     1  0.0000000  0.6508444  3
    380    378    390    392     1  0.0000000  0.6508444  3
    381    377    384    385     1  0.0000000  1.2552000  3
    381    377    384    386     1  0.0000000  1.2552000  3
    381    393    399    400     1  0.0000000  0.6508444  3
    381    393    399    401     1  0.0000000  0.6508444  3
    382    381    377    384     1  0.0000000  1.2552000  3
    382    381    393    399     1  0.0000000  0.6508444  3
    382    381    393    394     1  0.0000000  0.6508444  3
    382    381    393    395     1  0.0000000  0.6508444  3
    383    381    377    384     1  0.0000000  1.2552000  3
    383    381    393    399     1  0.0000000  0.6508444  3
    383    381    393    394     1  0.0000000  0.6508444  3
    383    381    393    395     1  0.0000000  0.6508444  3
    384    387    396    397     1  0.0000000  0.6508444  3
    384    387    396    398     1  0.0000000  0.6508444  3
    385    384    387    396     1  0.0000000  0.6508444  3
    385    384    387    388     1  0.0000000  0.6508444  3
    385    384    387    389     1  0.0000000  0.6508444  3
    386    384    387    396     1  0.0000000  0.6508444  3
    386    384    387    388     1  0.0000000  0.6508444  3
    386    384    387    389     1  0.0000000  0.6508444  3
    388    387    396    405     1  0.0000000  1.0460000  1
    388    387    396    405     1  0.0000000  0.0000000  3
    388    387    396    397     1  0.0000000  0.6508444  3
    388    387    396    398     1  0.0000000  0.6508444  3
    389    387    396    405     1  0.0000000  1.0460000  1
    389    387    396    405     1  0.0000000  0.0000000  3
    389    387    396    397     1  0.0000000  0.6508444  3
    389    387    396    398     1  0.0000000  0.6508444  3
    391    390    402    869     1  0.0000000  1.0460000  1
    391    390    402    869     1  0.0000000  0.0000000  3
    391    390    402    403     1  0.0000000  0.6508444  3
    391    390    402    404     1  0.0000000  0.6508444  3
    392    390    402    869     1  0.0000000  1.0460000  1
    392    390    402    869     1  0.0000000  0.0000000  3
    392    390    402    403     1  0.0000000  0.6508444  3
    392    390    402    404     1  0.0000000  0.6508444  3
    394    393    399    840     1  0.0000000  1.0460000  1
    394    393    399    840     1  0.0000000  0.0000000  3
    394    393    399    400     1  0.0000000  0.6508444  3
    394    393    399    401     1  0.0000000  0.6508444  3
    395    393    399    840     1  0.0000000  1.0460000  1
    395    393    399    840     1  0.0000000  0.0000000  3
    395    393    399    400     1  0.0000000  0.6508444  3
    395    393    399    401     1  0.0000000  0.6508444  3
    399    840    831    832     1  0.0000000  1.6038667  3
    399    840    831    833     1  0.0000000  1.6038667  3
    400    399    840    831     1  0.0000000  1.6038667  3
    401    399    840    831     1  0.0000000  1.6038667  3
    402    869    860    861     1  0.0000000  1.6038667  3
    402    869    860    862     1  0.0000000  1.6038667  3
    403    402    869    860     1  0.0000000  1.6038667  3
    404    402    869    860     1  0.0000000  1.6038667  3
    406    407    419    420     1  0.0000000  0.6508444  3
    406    407    419    421     1  0.0000000  0.6508444  3
    406    410    422    423     1  0.0000000  0.6508444  3
    406    410    422    424     1  0.0000000  0.6508444  3
    406    413    416    417     1  0.0000000  0.6508444  3
    406    413    416    418     1  0.0000000  0.6508444  3
    407    406    410    411     1  0.0000000  1.2552000  3
    407    406    410    412     1  0.0000000  1.2552000  3
    407    406    413    414     1  0.0000000  1.2552000  3
    407    406    413    415     1  0.0000000  1.2552000  3
    407    419    431    432     1  0.0000000  0.6508444  3
    407    419    431    433     1  0.0000000  0.6508444  3
    408    407    406    410     1  0.0000000  1.2552000  3
    408    407    406    413     1  0.0000000  1.2552000  3
    408    407    419    431     1  0.0000000  0.6508444  3
    408    407    419    420     1  0.0000000  0.6508444  3
    408    407    419    421     1  0.0000000  0.6508444  3
    409    407    406    410     1  0.0000000  1.2552000  3
    409    407    406    413     1  0.0000000  1.2552000  3
    409    407    419    431     1  0.0000000  0.6508444  3
    409    407    419    420     1  0.0000000  0.6508444  3
    409    407    419    421     1  0.0000000  0.6508444  3
    410    406    413    414     1  0.0000000  1.2552000  3
    410    406    413    415     1  0.0000000  1.2552000  3
    410    422    428    429     1  0.0000000  0.6508444  3
    410    422    428    430     1  0.0000000  0.6508444  3
    411    410    406    413     1  0.0000000  1.2552000  3
    411    410    422    428     1  0.0000000  0.6508444  3
    411    410    422    423     1  0.0000000  0.6508444  3
    411    410    422    424     1  0.0000000  0.6508444  3
    412    410    406    413     1  0.0000000  1.2552000  3
    412    410    422    428     1  0.0000000  0.6508444  3
    412    410    422    423     1  0.0000000  0.6508444  3
    412    410    422    424     1  0.0000000  0.6508444  3
    413    416    425    426     1  0.0000000  0.6508444  3
    413    416    425    427     1  0.0000000  0.6508444  3
    414    413    416    425     1  0.0000000  0.6508444  3
    414    413    416    417     1  0.0000000  0.6508444  3
    414    413    416    418     1  0.0000000  0.6508444  3
    415    413    416    425     1  0.0000000  0.6508444  3
    415    413    416    417     1  0.0000000  0.6508444  3
    415    413    416    418     1  0.0000000  0.6508444  3
    417    416    425    434     1  0.0000000  1.0460000  1
    417    416    425    434     1  0.0000000  0.0000000  3
    417    416    425    426     1  0.0000000  0.6508444  3
    417    416    425    427     1  0.0000000  0.6508444  3
    418    416    425    434     1  0.0000000  1.0460000  1
    418    416    425    434     1  0.0000000  0.0000000  3
    418    416    425    426     1  0.0000000  0.6508444  3
    418    416    425    427     1  0.0000000  0.6508444  3
    420    419    431    927     1  0.0000000  1.0460000  1
    420    419    431    927     1  0.0000000  0.0000000  3
    420    419    431    432     1  0.0000000  0.6508444  3
    420    419    431    433     1  0.0000000  0.6508444  3
    421    419    431    927     1  0.0000000  1.0460000  1
    421    419    431    927     1  0.0000000  0.0000000  3
    421    419    431    432     1  0.0000000  0.6508444  3
    421    419    431    433     1  0.0000000  0.6508444  3
    423    422    428    898     1  0.0000000  1.0460000  1
    423    422    428    898     1  0.0000000  0.0000000  3
    423    422    428    429     1  0.0000000  0.6508444  3
    423    422    428    430     1  0.0000000  0.6508444  3
    424    422    428    898     1  0.0000000  1.0460000  1
    424    422    428    898     1  0.0000000  0.0000000  3
    424    422    428    429     1  0.0000000  0.6508444  3
    424    422    428    430     1  0.0000000  0.6508444  3
    428    898    889    890     1  0.0000000  1.6038667  3
    428    898    889    891     1  0.0000000  1.6038667  3
    429    428    898    889     1  0.0000000  1.6038667  3
    430    428    898    889     1  0.0000000  1.6038667  3
    431    927    918    919     1  0.0000000  1.6038667  3
    431    927    918    920     1  0.0000000  1.6038667  3
    432    431    927    918     1  0.0000000  1.6038667  3
    433    431    927    918     1  0.0000000  1.6038667  3
    435    436    448    449     1  0.0000000  0.6508444  3
    435    436    448    450     1  0.0000000  0.6508444  3
    435    439    451    452     1  0.0000000  0.6508444  3
    435    439    451    453     1  0.0000000  0.6508444  3
    435    442    445    446     1  0.0000000  0.6508444  3
    435    442    445    447     1  0.0000000  0.6508444  3
    436    435    439    440     1  0.0000000  1.2552000  3
    436    435    439    441     1  0.0000000  1.2552000  3
    436    435    442    443     1  0.0000000  1.2552000  3
    436    435    442    444     1  0.0000000  1.2552000  3
    436    448    460    461     1  0.0000000  0.6508444  3
    436    448    460    462     1  0.0000000  0.6508444  3
    437    436    435    439     1  0.0000000  1.2552000  3
    437    436    435    442     1  0.0000000  1.2552000  3
    437    436    448    460     1  0.0000000  0.6508444  3
    437    436    448    449     1  0.0000000  0.6508444  3
    437    436    448    450     1  0.0000000  0.6508444  3
    438    436    435    439     1  0.0000000  1.2552000  3
    438    436    435    442     1  0.0000000  1.2552000  3
    438    436    448    460     1  0.0000000  0.6508444  3
    438    436    448    449     1  0.0000000  0.6508444  3
    438    436    448    450     1  0.0000000  0.6508444  3
    439    435    442    443     1  0.0000000  1.2552000  3
    439    435    442    444     1  0.0000000  1.2552000  3
    439    451    457    458     1  0.0000000  0.6508444  3
    439    451    457    459     1  0.0000000  0.6508444  3
    440    439    435    442     1  0.0000000  1.2552000  3
    440    439    451    457     1  0.0000000  0.6508444  3
    440    439    451    452     1  0.0000000  0.6508444  3
    440    439    451    453     1  0.0000000  0.6508444  3
    441    439    435    442     1  0.0000000  1.2552000  3
    441    439    451    457     1  0.0000000  0.6508444  3
    441    439    451    452     1  0.0000000  0.6508444  3
    441    439    451    453     1  0.0000000  0.6508444  3
    442    445    454    455     1  0.0000000  0.6508444  3
    442    445    454    456     1  0.0000000  0.6508444  3
    443    442    445    454     1  0.0000000  0.6508444  3
    443    442    445    446     1  0.0000000  0.6508444  3
    443    442    445    447     1  0.0000000  0.6508444  3
    444    442    445    454     1  0.0000000  0.6508444  3
    444    442    445    446     1  0.0000000  0.6508444  3
    444    442    445    447     1  0.0000000  0.6508444  3
    446    445    454    463     1  0.0000000  1.0460000  1
    446    445    454    463     1  0.0000000  0.0000000  3
    446    445    454    455     1  0.0000000  0.6508444  3
    446    445    454    456     1  0.0000000  0.6508444  3
    447    445    454    463     1  0.0000000  1.0460000  1
    447    445    454    463     1  0.0000000  0.0000000  3
    447    445    454    455     1  0.0000000  0.6508444  3
    447    445    454    456     1  0.0000000  0.6508444  3
    449    448    460    985     1  0.0000000  1.0460000  1
    449    448    460    985     1  0.0000000  0.0000000  3
    449    448    460    461     1  0.0000000  0.6508444  3
    449    448    460    462     1  0.0000000  0.6508444  3
    450    448    460    985     1  0.0000000  1.0460000  1
    450    448    460    985     1  0.0000000  0.0000000  3
    450    448    460    461     1  0.0000000  0.6508444  3
    450    448    460    462     1  0.0000000  0.6508444  3
    452    451    457    956     1  0.0000000  1.0460000  1
    452    451    457    956     1  0.0000000  0.0000000  3
    452    451    457    458     1  0.0000000  0.6508444  3
    452    451    457    459     1  0.0000000  0.6508444  3
    453    451    457    956     1  0.0000000  1.0460000  1
    453    451    457    956     1  0.0000000  0.0000000  3
    453    451    457    458     1  0.0000000  0.6508444  3
    453    451    457    459     1  0.0000000  0.6508444  3
    457    956    947    948     1  0.0000000  1.6038667  3
    457    956    947    949     1  0.0000000  1.6038667  3
    458    457    956    947     1  0.0000000  1.6038667  3
    459    457    956    947     1  0.0000000  1.6038667  3
    460    985    976    977     1  0.0000000  1.6038667  3
    460    985    976    978     1  0.0000000  1.6038667  3
    461    460    985    976     1  0.0000000  1.6038667  3
    462    460    985    976     1  0.0000000  1.6038667  3
    464    465    477    478     1  0.0000000  0.6508444  3
    464    465    477    479     1  0.0000000  0.6508444  3
    464    468    480    481     1  0.0000000  0.6508444  3
    464    468    480    482     1  0.0000000  0.6508444  3
    464    471    474    475     1  0.0000000  0.6508444  3
    464    471    474    476     1  0.0000000  0.6508444  3
    465    464    468    469     1  0.0000000  1.2552000  3
    465    464    468    470     1  0.0000000  1.2552000  3
    465    464    471    472     1  0.0000000  1.2552000  3
    465    464    471    473     1  0.0000000  1.2552000  3
    465    477    489    490     1  0.0000000  0.6508444  3
    465    477    489    491     1  0.0000000  0.6508444  3
    466    465    464    468     1  0.0000000  1.2552000  3
    466    465    464    471     1  0.0000000  1.2552000  3
    466    465    477    489     1  0.0000000  0.6508444  3
    466    465    477    478     1  0.0000000  0.6508444  3
    466    465    477    479     1  0.0000000  0.6508444  3
    467    465    464    468     1  0.0000000  1.2552000  3
    467    465    464    471     1  0.0000000  1.2552000  3
    467    465    477    489     1  0.0000000  0.6508444  3
    467    465    477    478     1  0.0000000  0.6508444  3
    467    465    477    479     1  0.0000000  0.6508444  3
    468    464    471    472     1  0.0000000  1.2552000  3
    468    464    471    473     1  0.0000000  1.2552000  3
    468    480    486    487     1  0.0000000  0.6508444  3
    468    480    486    488     1  0.0000000  0.6508444  3
    469    468    464    471     1  0.0000000  1.2552000  3
    469    468    480    486     1  0.0000000  0.6508444  3
    469    468    480    481     1  0.0000000  0.6508444  3
    469    468    480    482     1  0.0000000  0.6508444  3
    470    468    464    471     1  0.0000000  1.2552000  3
    470    468    480    486     1  0.0000000  0.6508444  3
    470    468    480    481     1  0.0000000  0.6508444  3
    470    468    480    482     1  0.0000000  0.6508444  3
    471    474    483    484     1  0.0000000  0.6508444  3
    471    474    483    485     1  0.0000000  0.6508444  3
    472    471    474    483     1  0.0000000  0.6508444  3
    472    471    474    475     1  0.0000000  0.6508444  3
    472    471    474    476     1  0.0000000  0.6508444  3
    473    471    474    483     1  0.0000000  0.6508444  3
    473    471    474    475     1  0.0000000  0.6508444  3
    473    471    474    476     1  0.0000000  0.6508444  3
    475    474    483    492     1  0.0000000  1.0460000  1
    475    474    483    492     1  0.0000000  0.0000000  3
    475    474    483    484     1  0.0000000  0.6508444  3
    475    474    483    485     1  0.0000000  0.6508444  3
    476    474    483    492     1  0.0000000  1.0460000  1
    476    474    483    492     1  0.0000000  0.0000000  3
    476    474    483    484     1  0.0000000  0.6508444  3
    476    474    483    485     1  0.0000000  0.6508444  3
    478    477    489   1043     1  0.0000000  1.0460000  1
    478    477    489   1043     1  0.0000000  0.0000000  3
    478    477    489    490     1  0.0000000  0.6508444  3
    478    477    489    491     1  0.0000000  0.6508444  3
    479    477    489   1043     1  0.0000000  1.0460000  1
    479    477    489   1043     1  0.0000000  0.0000000  3
    479    477    489    490     1  0.0000000  0.6508444  3
    479    477    489    491     1  0.0000000  0.6508444  3
    481    480    486   1014     1  0.0000000  1.0460000  1
    481    480    486   1014     1  0.0000000  0.0000000  3
    481    480    486    487     1  0.0000000  0.6508444  3
    481    480    486    488     1  0.0000000  0.6508444  3
    482    480    486   1014     1  0.0000000  1.0460000  1
    482    480    486   1014     1  0.0000000  0.0000000  3
    482    480    486    487     1  0.0000000  0.6508444  3
    482    480    486    488     1  0.0000000  0.6508444  3
    486   1014   1005   1006     1  0.0000000  1.6038667  3
    486   1014   1005   1007     1  0.0000000  1.6038667  3
    487    486   1014   1005     1  0.0000000  1.6038667  3
    488    486   1014   1005     1  0.0000000  1.6038667  3
    489   1043   1034   1035     1  0.0000000  1.6038667  3
    489   1043   1034   1036     1  0.0000000  1.6038667  3
    490    489   1043   1034     1  0.0000000  1.6038667  3
    491    489   1043   1034     1  0.0000000  1.6038667  3
    493    494    506    507     1  0.0000000  0.6508444  3
    493    494    506    508     1  0.0000000  0.6508444  3
    493    497    509    510     1  0.0000000  0.6508444  3
    493    497    509    511     1  0.0000000  0.6508444  3
    493    500    503    504     1  0.0000000  0.6508444  3
    493    500    503    505     1  0.0000000  0.6508444  3
    494    493    497    498     1  0.0000000  1.2552000  3
    494    493    497    499     1  0.0000000  1.2552000  3
    494    493    500    501     1  0.0000000  1.2552000  3
    494    493    500    502     1  0.0000000  1.2552000  3
    494    506    518    519     1  0.0000000  0.6508444  3
    494    506    518    520     1  0.0000000  0.6508444  3
    495    494    493    497     1  0.0000000  1.2552000  3
    495    494    493    500     1  0.0000000  1.2552000  3
    495    494    506    518     1  0.0000000  0.6508444  3
    495    494    506    507     1  0.0000000  0.6508444  3
    495    494    506    508     1  0.0000000  0.6508444  3
    496    494    493    497     1  0.0000000  1.2552000  3
    496    494    493    500     1  0.0000000  1.2552000  3
    496    494    506    518     1  0.0000000  0.6508444  3
    496    494    506    507     1  0.0000000  0.6508444  3
    496    494    506    508     1  0.0000000  0.6508444  3
    497    493    500    501     1  0.0000000  1.2552000  3
    497    493    500    502     1  0.0000000  1.2552000  3
    497    509    515    516     1  0.0000000  0.6508444  3
    497    509    515    517     1  0.0000000  0.6508444  3
    498    497    493    500     1  0.0000000  1.2552000  3
    498    497    509    515     1  0.0000000  0.6508444  3
    498    497    509    510     1  0.0000000  0.6508444  3
    498    497    509    511     1  0.0000000  0.6508444  3
    499    497    493    500     1  0.0000000  1.2552000  3
    499    497    509    515     1  0.0000000  0.6508444  3
    499    497    509    510     1  0.0000000  0.6508444  3
    499    497    509    511     1  0.0000000  0.6508444  3
    500    503    512    513     1  0.0000000  0.6508444  3
    500    503    512    514     1  0.0000000  0.6508444  3
    501    500    503    512     1  0.0000000  0.6508444  3
    501    500    503    504     1  0.0000000  0.6508444  3
    501    500    503    505     1  0.0000000  0.6508444  3
    502    500    503    512     1  0.0000000  0.6508444  3
    502    500    503    504     1  0.0000000  0.6508444  3
    502    500    503    505     1  0.0000000  0.6508444  3
    504    503    512    521     1  0.0000000  1.0460000  1
    504    503    512    521     1  0.0000000  0.0000000  3
    504    503    512    513     1  0.0000000  0.6508444  3
    504    503    512    514     1  0.0000000  0.6508444  3
    505    503    512    521     1  0.0000000  1.0460000  1
    505    503    512    521     1  0.0000000  0.0000000  3
    505    503    512    513     1  0.0000000  0.6508444  3
    505    503    512    514     1  0.0000000  0.6508444  3
    507    506    518   1101     1  0.0000000  1.0460000  1
    507    506    518   1101     1  0.0000000  0.0000000  3
    507    506    518    519     1  0.0000000  0.6508444  3
    507    506    518    520     1  0.0000000  0.6508444  3
    508    506    518   1101     1  0.0000000  1.0460000  1
    508    506    518   1101     1  0.0000000  0.0000000  3
    508    506    518    519     1  0.0000000  0.6508444  3
    508    506    518    520     1  0.0000000  0.6508444  3
    510    509    515   1072     1  0.0000000  1.0460000  1
    510    509    515   1072     1  0.0000000  0.0000000  3
    510    509    515    516     1  0.0000000  0.6508444  3
    510    509    515    517     1  0.0000000  0.6508444  3
    511    509    515   1072     1  0.0000000  1.0460000  1
    511    509    515   1072     1  0.0000000  0.0000000  3
    511    509    515    516     1  0.0000000  0.6508444  3
    511    509    515    517     1  0.0000000  0.6508444  3
    515   1072   1063   1064     1  0.0000000  1.6038667  3
    515   1072   1063   1065     1  0.0000000  1.6038667  3
    516    515   1072   1063     1  0.0000000  1.6038667  3
    517    515   1072   1063     1  0.0000000  1.6038667  3
    518   1101   1092   1093     1  0.0000000  1.6038667  3
    518   1101   1092   1094     1  0.0000000  1.6038667  3
    519    518   1101   1092     1  0.0000000  1.6038667  3
    520    518   1101   1092     1  0.0000000  1.6038667  3
    522    523    535    536     1  0.0000000  0.6508444  3
    522    523    535    537     1  0.0000000  0.6508444  3
    522    526    538    539     1  0.0000000  0.6508444  3
    522    526    538    540     1  0.0000000  0.6508444  3
    522    529    532    533     1  0.0000000  0.6508444  3
    522    529    532    534     1  0.0000000  0.6508444  3
    523    522    526    527     1  0.0000000  1.2552000  3
    523    522    526    528     1  0.0000000  1.2552000  3
    523    522    529    530     1  0.0000000  1.2552000  3
    523    522    529    531     1  0.0000000  1.2552000  3
    523    535    547    548     1  0.0000000  0.6508444  3
    523    535    547    549     1  0.0000000  0.6508444  3
    524    523    522    526     1  0.0000000  1.2552000  3
    524    523    522    529     1  0.0000000  1.2552000  3
    524    523    535    547     1  0.0000000  0.6508444  3
    524    523    535    536     1  0.0000000  0.6508444  3
    524    523    535    537     1  0.0000000  0.6508444  3
    525    523    522    526     1  0.0000000  1.2552000  3
    525    523    522    529     1  0.0000000  1.2552000  3
    525    523    535    547     1  0.0000000  0.6508444  3
    525    523    535    536     1  0.0000000  0.6508444  3
    525    523    535    537     1  0.0000000  0.6508444  3
    526    522    529    530     1  0.0000000  1.2552000  3
    526    522    529    531     1  0.0000000  1.2552000  3
    526    538    544    545     1  0.0000000  0.6508444  3
    526    538    544    546     1  0.0000000  0.6508444  3
    527    526    522    529     1  0.0000000  1.2552000  3
    527    526    538    544     1  0.0000000  0.6508444  3
    527    526    538    539     1  0.0000000  0.6508444  3
    527    526    538    540     1  0.0000000  0.6508444  3
    528    526    522    529     1  0.0000000  1.2552000  3
    528    526    538    544     1  0.0000000  0.6508444  3
    528    526    538    539     1  0.0000000  0.6508444  3
    528    526    538    540     1  0.0000000  0.6508444  3
    529    532    541    542     1  0.0000000  0.6508444  3
    529    532    541    543     1  0.0000000  0.6508444  3
    530    529    532    541     1  0.0000000  0.6508444  3
    530    529    532    533     1  0.0000000  0.6508444  3
    530    529    532    534     1  0.0000000  0.6508444  3
    531    529    532    541     1  0.0000000  0.6508444  3
    531    529    532    533     1  0.0000000  0.6508444  3
    531    529    532    534     1  0.0000000  0.6508444  3
    533    532    541    550     1  0.0000000  1.0460000  1
    533    532    541    550     1  0.0000000  0.0000000  3
    533    532    541    542     1  0.0000000  0.6508444  3
    533    532    541    543     1  0.0000000  0.6508444  3
    534    532    541    550     1  0.0000000  1.0460000  1
    534    532    541    550     1  0.0000000  0.0000000  3
    534    532    541    542     1  0.0000000  0.6508444  3
    534    532    541    543     1  0.0000000  0.6508444  3
    536    535    547   1159     1  0.0000000  1.0460000  1
    536    535    547   1159     1  0.0000000  0.0000000  3
    536    535    547    548     1  0.0000000  0.6508444  3
    536    535    547    549     1  0.0000000  0.6508444  3
    537    535    547   1159     1  0.0000000  1.0460000  1
    537    535    547   1159     1  0.0000000  0.0000000  3
    537    535    547    548     1  0.0000000  0.6508444  3
    537    535    547    549     1  0.0000000  0.6508444  3
    539    538    544   1130     1  0.0000000  1.0460000  1
    539    538    544   1130     1  0.0000000  0.0000000  3
    539    538    544    545     1  0.0000000  0.6508444  3
    539    538    544    546     1  0.0000000  0.6508444  3
    540    538    544   1130     1  0.0000000  1.0460000  1
    540    538    544   1130     1  0.0000000  0.0000000  3
    540    538    544    545     1  0.0000000  0.6508444  3
    540    538    544    546     1  0.0000000  0.6508444  3
    544   1130   1121   1122     1  0.0000000  1.6038667  3
    544   1130   1121   1123     1  0.0000000  1.6038667  3
    545    544   1130   1121     1  0.0000000  1.6038667  3
    546    544   1130   1121     1  0.0000000  1.6038667  3
    547   1159   1150   1151     1  0.0000000  1.6038667  3
    547   1159   1150   1152     1  0.0000000  1.6038667  3
    548    547   1159   1150     1  0.0000000  1.6038667  3
    549    547   1159   1150     1  0.0000000  1.6038667  3
    551    552    564    565     1  0.0000000  0.6508444  3
    551    552    564    566     1  0.0000000  0.6508444  3
    551    555    567    568     1  0.0000000  0.6508444  3
    551    555    567    569     1  0.0000000  0.6508444  3
    551    558    561    562     1  0.0000000  0.6508444  3
    551    558    561    563     1  0.0000000  0.6508444  3
    552    551    555    556     1  0.0000000  1.2552000  3
    552    551    555    557     1  0.0000000  1.2552000  3
    552    551    558    559     1  0.0000000  1.2552000  3
    552    551    558    560     1  0.0000000  1.2552000  3
    552    564    576    577     1  0.0000000  0.6508444  3
    552    564    576    578     1  0.0000000  0.6508444  3
    553    552    551    555     1  0.0000000  1.2552000  3
    553    552    551    558     1  0.0000000  1.2552000  3
    553    552    564    576     1  0.0000000  0.6508444  3
    553    552    564    565     1  0.0000000  0.6508444  3
    553    552    564    566     1  0.0000000  0.6508444  3
    554    552    551    555     1  0.0000000  1.2552000  3
    554    552    551    558     1  0.0000000  1.2552000  3
    554    552    564    576     1  0.0000000  0.6508444  3
    554    552    564    565     1  0.0000000  0.6508444  3
    554    552    564    566     1  0.0000000  0.6508444  3
    555    551    558    559     1  0.0000000  1.2552000  3
    555    551    558    560     1  0.0000000  1.2552000  3
    555    567    573    574     1  0.0000000  0.6508444  3
    555    567    573    575     1  0.0000000  0.6508444  3
    556    555    551    558     1  0.0000000  1.2552000  3
    556    555    567    573     1  0.0000000  0.6508444  3
    556    555    567    568     1  0.0000000  0.6508444  3
    556    555    567    569     1  0.0000000  0.6508444  3
    557    555    551    558     1  0.0000000  1.2552000  3
    557    555    567    573     1  0.0000000  0.6508444  3
    557    555    567    568     1  0.0000000  0.6508444  3
    557    555    567    569     1  0.0000000  0.6508444  3
    558    561    570    571     1  0.0000000  0.6508444  3
    558    561    570    572     1  0.0000000  0.6508444  3
    559    558    561    570     1  0.0000000  0.6508444  3
    559    558    561    562     1  0.0000000  0.6508444  3
    559    558    561    563     1  0.0000000  0.6508444  3
    560    558    561    570     1  0.0000000  0.6508444  3
    560    558    561    562     1  0.0000000  0.6508444  3
    560    558    561    563     1  0.0000000  0.6508444  3
    562    561    570    579     1  0.0000000  1.0460000  1
    562    561    570    579     1  0.0000000  0.0000000  3
    562    561    570    571     1  0.0000000  0.6508444  3
    562    561    570    572     1  0.0000000  0.6508444  3
    563    561    570    579     1  0.0000000  1.0460000  1
    563    561    570    579     1  0.0000000  0.0000000  3
    563    561    570    571     1  0.0000000  0.6508444  3
    563    561    570    572     1  0.0000000  0.6508444  3
    565    564    576   1217     1  0.0000000  1.0460000  1
    565    564    576   1217     1  0.0000000  0.0000000  3
    565    564    576    577     1  0.0000000  0.6508444  3
    565    564    576    578     1  0.0000000  0.6508444  3
    566    564    576   1217     1  0.0000000  1.0460000  1
    566    564    576   1217     1  0.0000000  0.0000000  3
    566    564    576    577     1  0.0000000  0.6508444  3
    566    564    576    578     1  0.0000000  0.6508444  3
    568    567    573   1188     1  0.0000000  1.0460000  1
    568    567    573   1188     1  0.0000000  0.0000000  3
    568    567    573    574     1  0.0000000  0.6508444  3
    568    567    573    575     1  0.0000000  0.6508444  3
    569    567    573   1188     1  0.0000000  1.0460000  1
    569    567    573   1188     1  0.0000000  0.0000000  3
    569    567    573    574     1  0.0000000  0.6508444  3
    569    567    573    575     1  0.0000000  0.6508444  3
    573   1188   1179   1180     1  0.0000000  1.6038667  3
    573   1188   1179   1181     1  0.0000000  1.6038667  3
    574    573   1188   1179     1  0.0000000  1.6038667  3
    575    573   1188   1179     1  0.0000000  1.6038667  3
    576   1217   1208   1209     1  0.0000000  1.6038667  3
    576   1217   1208   1210     1  0.0000000  1.6038667  3
    577    576   1217   1208     1  0.0000000  1.6038667  3
    578    576   1217   1208     1  0.0000000  1.6038667  3
    580    581    593    594     1  0.0000000  0.6508444  3
    580    581    593    595     1  0.0000000  0.6508444  3
    580    584    596    597     1  0.0000000  0.6508444  3
    580    584    596    598     1  0.0000000  0.6508444  3
    580    587    590    591     1  0.0000000  0.6508444  3
    580    587    590    592     1  0.0000000  0.6508444  3
    581    580    584    585     1  0.0000000  1.2552000  3
    581    580    584    586     1  0.0000000  1.2552000  3
    581    580    587    588     1  0.0000000  1.2552000  3
    581    580    587    589     1  0.0000000  1.2552000  3
    581    593    605    606     1  0.0000000  0.6508444  3
    581    593    605    607     1  0.0000000  0.6508444  3
    582    581    580    584     1  0.0000000  1.2552000  3
    582    581    580    587     1  0.0000000  1.2552000  3
    582    581    593    605     1  0.0000000  0.6508444  3
    582    581    593    594     1  0.0000000  0.6508444  3
    582    581    593    595     1  0.0000000  0.6508444  3
    583    581    580    584     1  0.0000000  1.2552000  3
    583    581    580    587     1  0.0000000  1.2552000  3
    583    581    593    605     1  0.0000000  0.6508444  3
    583    581    593    594     1  0.0000000  0.6508444  3
    583    581    593    595     1  0.0000000  0.6508444  3
    584    580    587    588     1  0.0000000  1.2552000  3
    584    580    587    589     1  0.0000000  1.2552000  3
    584    596    602    603     1  0.0000000  0.6508444  3
    584    596    602    604     1  0.0000000  0.6508444  3
    585    584    580    587     1  0.0000000  1.2552000  3
    585    584    596    602     1  0.0000000  0.6508444  3
    585    584    596    597     1  0.0000000  0.6508444  3
    585    584    596    598     1  0.0000000  0.6508444  3
    586    584    580    587     1  0.0000000  1.2552000  3
    586    584    596    602     1  0.0000000  0.6508444  3
    586    584    596    597     1  0.0000000  0.6508444  3
    586    584    596    598     1  0.0000000  0.6508444  3
    587    590    599    600     1  0.0000000  0.6508444  3
    587    590    599    601     1  0.0000000  0.6508444  3
    588    587    590    599     1  0.0000000  0.6508444  3
    588    587    590    591     1  0.0000000  0.6508444  3
    588    587    590    592     1  0.0000000  0.6508444  3
    589    587    590    599     1  0.0000000  0.6508444  3
    589    587    590    591     1  0.0000000  0.6508444  3
    589    587    590    592     1  0.0000000  0.6508444  3
    591    590    599    608     1  0.0000000  1.0460000  1
    591    590    599    608     1  0.0000000  0.0000000  3
    591    590    599    600     1  0.0000000  0.6508444  3
    591    590    599    601     1  0.0000000  0.6508444  3
    592    590    599    608     1  0.0000000  1.0460000  1
    592    590    599    608     1  0.0000000  0.0000000  3
    592    590    599    600     1  0.0000000  0.6508444  3
    592    590    599    601     1  0.0000000  0.6508444  3
    594    593    605   1275     1  0.0000000  1.0460000  1
    594    593    605   1275     1  0.0000000  0.0000000  3
    594    593    605    606     1  0.0000000  0.6508444  3
    594    593    605    607     1  0.0000000  0.6508444  3
    595    593    605   1275     1  0.0000000  1.0460000  1
    595    593    605   1275     1  0.0000000  0.0000000  3
    595    593    605    606     1  0.0000000  0.6508444  3
    595    593    605    607     1  0.0000000  0.6508444  3
    597    596    602   1246     1  0.0000000  1.0460000  1
    597    596    602   1246     1  0.0000000  0.0000000  3
    597    596    602    603     1  0.0000000  0.6508444  3
    597    596    602    604     1  0.0000000  0.6508444  3
    598    596    602   1246     1  0.0000000  1.0460000  1
    598    596    602   1246     1  0.0000000  0.0000000  3
    598    596    602    603     1  0.0000000  0.6508444  3
    598    596    602    604     1  0.0000000  0.6508444  3
    602   1246   1237   1238     1  0.0000000  1.6038667  3
    602   1246   1237   1239     1  0.0000000  1.6038667  3
    603    602   1246   1237     1  0.0000000  1.6038667  3
    604    602   1246   1237     1  0.0000000  1.6038667  3
    605   1275   1266   1267     1  0.0000000  1.6038667  3
    605   1275   1266   1268     1  0.0000000  1.6038667  3
    606    605   1275   1266     1  0.0000000  1.6038667  3
    607    605   1275   1266     1  0.0000000  1.6038667  3
    609    610    622    623     1  0.0000000  0.6508444  3
    609    610    622    624     1  0.0000000  0.6508444  3
    609    613    625    626     1  0.0000000  0.6508444  3
    609    613    625    627     1  0.0000000  0.6508444  3
    609    616    619    620     1  0.0000000  0.6508444  3
    609    616    619    621     1  0.0000000  0.6508444  3
    610    609    613    614     1  0.0000000  1.2552000  3
    610    609    613    615     1  0.0000000  1.2552000  3
    610    609    616    617     1  0.0000000  1.2552000  3
    610    609    616    618     1  0.0000000  1.2552000  3
    610    622    634    635     1  0.0000000  0.6508444  3
    610    622    634    636     1  0.0000000  0.6508444  3
    611    610    609    613     1  0.0000000  1.2552000  3
    611    610    609    616     1  0.0000000  1.2552000  3
    611    610    622    634     1  0.0000000  0.6508444  3
    611    610    622    623     1  0.0000000  0.6508444  3
    611    610    622    624     1  0.0000000  0.6508444  3
    612    610    609    613     1  0.0000000  1.2552000  3
    612    610    609    616     1  0.0000000  1.2552000  3
    612    610    622    634     1  0.0000000  0.6508444  3
    612    610    622    623     1  0.0000000  0.6508444  3
    612    610    622    624     1  0.0000000  0.6508444  3
    613    609    616    617     1  0.0000000  1.2552000  3
    613    609    616    618     1  0.0000000  1.2552000  3
    613    625    631    632     1  0.0000000  0.6508444  3
    613    625    631    633     1  0.0000000  0.6508444  3
    614    613    609    616     1  0.0000000  1.2552000  3
    614    613    625    631     1  0.0000000  0.6508444  3
    614    613    625    626     1  0.0000000  0.6508444  3
    614    613    625    627     1  0.0000000  0.6508444  3
    615    613    609    616     1  0.0000000  1.2552000  3
    615    613    625    631     1  0.0000000  0.6508444  3
    615    613    625    626     1  0.0000000  0.6508444  3
    615    613    625    627     1  0.0000000  0.6508444  3
    616    619    628    629     1  0.0000000  0.6508444  3
    616    619    628    630     1  0.0000000  0.6508444  3
    617    616    619    628     1  0.0000000  0.6508444  3
    617    616    619    620     1  0.0000000  0.6508444  3
    617    616    619    621     1  0.0000000  0.6508444  3
    618    616    619    628     1  0.0000000  0.6508444  3
    618    616    619    620     1  0.0000000  0.6508444  3
    618    616    619    621     1  0.0000000  0.6508444  3
    620    619    628    637     1  0.0000000  1.0460000  1
    620    619    628    637     1  0.0000000  0.0000000  3
    620    619    628    629     1  0.0000000  0.6508444  3
    620    619    628    630     1  0.0000000  0.6508444  3
    621    619    628    637     1  0.0000000  1.0460000  1
    621    619    628    637     1  0.0000000  0.0000000  3
    621    619    628    629     1  0.0000000  0.6508444  3
    621    619    628    630     1  0.0000000  0.6508444  3
    623    622    634   1333     1  0.0000000  1.0460000  1
    623    622    634   1333     1  0.0000000  0.0000000  3
    623    622    634    635     1  0.0000000  0.6508444  3
    623    622    634    636     1  0.0000000  0.6508444  3
    624    622    634   1333     1  0.0000000  1.0460000  1
    624    622    634   1333     1  0.0000000  0.0000000  3
    624    622    634    635     1  0.0000000  0.6508444  3
    624    622    634    636     1  0.0000000  0.6508444  3
    626    625    631   1304     1  0.0000000  1.0460000  1
    626    625    631   1304     1  0.0000000  0.0000000  3
    626    625    631    632     1  0.0000000  0.6508444  3
    626    625    631    633     1  0.0000000  0.6508444  3
    627    625    631   1304     1  0.0000000  1.0460000  1
    627    625    631   1304     1  0.0000000  0.0000000  3
    627    625    631    632     1  0.0000000  0.6508444  3
    627    625    631    633     1  0.0000000  0.6508444  3
    631   1304   1295   1296     1  0.0000000  1.6038667  3
    631   1304   1295   1297     1  0.0000000  1.6038667  3
    632    631   1304   1295     1  0.0000000  1.6038667  3
    633    631   1304   1295     1  0.0000000  1.6038667  3
    634   1333   1324   1325     1  0.0000000  1.6038667  3
    634   1333   1324   1326     1  0.0000000  1.6038667  3
    635    634   1333   1324     1  0.0000000  1.6038667  3
    636    634   1333   1324     1  0.0000000  1.6038667  3
    638    639    651    652     1  0.0000000  0.6508444  3
    638    639    651    653     1  0.0000000  0.6508444  3
    638    642    654    655     1  0.0000000  0.6508444  3
    638    642    654    656     1  0.0000000  0.6508444  3
    638    645    648    649     1  0.0000000  0.6508444  3
    638    645    648    650     1  0.0000000  0.6508444  3
    639    638    642    643     1  0.0000000  1.2552000  3
    639    638    642    644     1  0.0000000  1.2552000  3
    639    638    645    646     1  0.0000000  1.2552000  3
    639    638    645    647     1  0.0000000  1.2552000  3
    639    651    663    664     1  0.0000000  0.6508444  3
    639    651    663    665     1  0.0000000  0.6508444  3
    640    639    638    642     1  0.0000000  1.2552000  3
    640    639    638    645     1  0.0000000  1.2552000  3
    640    639    651    663     1  0.0000000  0.6508444  3
    640    639    651    652     1  0.0000000  0.6508444  3
    640    639    651    653     1  0.0000000  0.6508444  3
    641    639    638    642     1  0.0000000  1.2552000  3
    641    639    638    645     1  0.0000000  1.2552000  3
    641    639    651    663     1  0.0000000  0.6508444  3
    641    639    651    652     1  0.0000000  0.6508444  3
    641    639    651    653     1  0.0000000  0.6508444  3
    642    638    645    646     1  0.0000000  1.2552000  3
    642    638    645    647     1  0.0000000  1.2552000  3
    642    654    660    661     1  0.0000000  0.6508444  3
    642    654    660    662     1  0.0000000  0.6508444  3
    643    642    638    645     1  0.0000000  1.2552000  3
    643    642    654    660     1  0.0000000  0.6508444  3
    643    642    654    655     1  0.0000000  0.6508444  3
    643    642    654    656     1  0.0000000  0.6508444  3
    644    642    638    645     1  0.0000000  1.2552000  3
    644    642    654    660     1  0.0000000  0.6508444  3
    644    642    654    655     1  0.0000000  0.6508444  3
    644    642    654    656     1  0.0000000  0.6508444  3
    645    648    657    658     1  0.0000000  0.6508444  3
    645    648    657    659     1  0.0000000  0.6508444  3
    646    645    648    657     1  0.0000000  0.6508444  3
    646    645    648    649     1  0.0000000  0.6508444  3
    646    645    648    650     1  0.0000000  0.6508444  3
    647    645    648    657     1  0.0000000  0.6508444  3
    647    645    648    649     1  0.0000000  0.6508444  3
    647    645    648    650     1  0.0000000  0.6508444  3
    649    648    657    666     1  0.0000000  1.0460000  1
    649    648    657    666     1  0.0000000  0.0000000  3
    649    648    657    658     1  0.0000000  0.6508444  3
    649    648    657    659     1  0.0000000  0.6508444  3
    650    648    657    666     1  0.0000000  1.0460000  1
    650    648    657    666     1  0.0000000  0.0000000  3
    650    648    657    658     1  0.0000000  0.6508444  3
    650    648    657    659     1  0.0000000  0.6508444  3
    652    651    663   1391     1  0.0000000  1.0460000  1
    652    651    663   1391     1  0.0000000  0.0000000  3
    652    651    663    664     1  0.0000000  0.6508444  3
    652    651    663    665     1  0.0000000  0.6508444  3
    653    651    663   1391     1  0.0000000  1.0460000  1
    653    651    663   1391     1  0.0000000  0.0000000  3
    653    651    663    664     1  0.0000000  0.6508444  3
    653    651    663    665     1  0.0000000  0.6508444  3
    655    654    660   1362     1  0.0000000  1.0460000  1
    655    654    660   1362     1  0.0000000  0.0000000  3
    655    654    660    661     1  0.0000000  0.6508444  3
    655    654    660    662     1  0.0000000  0.6508444  3
    656    654    660   1362     1  0.0000000  1.0460000  1
    656    654    660   1362     1  0.0000000  0.0000000  3
    656    654    660    661     1  0.0000000  0.6508444  3
    656    654    660    662     1  0.0000000  0.6508444  3
    660   1362   1353   1354     1  0.0000000  1.6038667  3
    660   1362   1353   1355     1  0.0000000  1.6038667  3
    661    660   1362   1353     1  0.0000000  1.6038667  3
    662    660   1362   1353     1  0.0000000  1.6038667  3
    663   1391   1382   1383     1  0.0000000  1.6038667  3
    663   1391   1382   1384     1  0.0000000  1.6038667  3
    664    663   1391   1382     1  0.0000000  1.6038667  3
    665    663   1391   1382     1  0.0000000  1.6038667  3
    667    668    680    681     1  0.0000000  0.6508444  3
    667    668    680    682     1  0.0000000  0.6508444  3
    667    671    683    684     1  0.0000000  0.6508444  3
    667    671    683    685     1  0.0000000  0.6508444  3
    667    674    677    678     1  0.0000000  0.6508444  3
    667    674    677    679     1  0.0000000  0.6508444  3
    668    667    671    672     1  0.0000000  1.2552000  3
    668    667    671    673     1  0.0000000  1.2552000  3
    668    667    674    675     1  0.0000000  1.2552000  3
    668    667    674    676     1  0.0000000  1.2552000  3
    668    680    692    693     1  0.0000000  0.6508444  3
    668    680    692    694     1  0.0000000  0.6508444  3
    669    668    667    671     1  0.0000000  1.2552000  3
    669    668    667    674     1  0.0000000  1.2552000  3
    669    668    680    692     1  0.0000000  0.6508444  3
    669    668    680    681     1  0.0000000  0.6508444  3
    669    668    680    682     1  0.0000000  0.6508444  3
    670    668    667    671     1  0.0000000  1.2552000  3
    670    668    667    674     1  0.0000000  1.2552000  3
    670    668    680    692     1  0.0000000  0.6508444  3
    670    668    680    681     1  0.0000000  0.6508444  3
    670    668    680    682     1  0.0000000  0.6508444  3
    671    667    674    675     1  0.0000000  1.2552000  3
    671    667    674    676     1  0.0000000  1.2552000  3
    671    683    689    690     1  0.0000000  0.6508444  3
    671    683    689    691     1  0.0000000  0.6508444  3
    672    671    667    674     1  0.0000000  1.2552000  3
    672    671    683    689     1  0.0000000  0.6508444  3
    672    671    683    684     1  0.0000000  0.6508444  3
    672    671    683    685     1  0.0000000  0.6508444  3
    673    671    667    674     1  0.0000000  1.2552000  3
    673    671    683    689     1  0.0000000  0.6508444  3
    673    671    683    684     1  0.0000000  0.6508444  3
    673    671    683    685     1  0.0000000  0.6508444  3
    674    677    686    687     1  0.0000000  0.6508444  3
    674    677    686    688     1  0.0000000  0.6508444  3
    675    674    677    686     1  0.0000000  0.6508444  3
    675    674    677    678     1  0.0000000  0.6508444  3
    675    674    677    679     1  0.0000000  0.6508444  3
    676    674    677    686     1  0.0000000  0.6508444  3
    676    674    677    678     1  0.0000000  0.6508444  3
    676    674    677    679     1  0.0000000  0.6508444  3
    678    677    686    695     1  0.0000000  1.0460000  1
    678    677    686    695     1  0.0000000  0.0000000  3
    678    677    686    687     1  0.0000000  0.6508444  3
    678    677    686    688     1  0.0000000  0.6508444  3
    679    677    686    695     1  0.0000000  1.0460000  1
    679    677    686    695     1  0.0000000  0.0000000  3
    679    677    686    687     1  0.0000000  0.6508444  3
    679    677    686    688     1  0.0000000  0.6508444  3
    681    680    692   1449     1  0.0000000  1.0460000  1
    681    680    692   1449     1  0.0000000  0.0000000  3
    681    680    692    693     1  0.0000000  0.6508444  3
    681    680    692    694     1  0.0000000  0.6508444  3
    682    680    692   1449     1  0.0000000  1.0460000  1
    682    680    692   1449     1  0.0000000  0.0000000  3
    682    680    692    693     1  0.0000000  0.6508444  3
    682    680    692    694     1  0.0000000  0.6508444  3
    684    683    689   1420     1  0.0000000  1.0460000  1
    684    683    689   1420     1  0.0000000  0.0000000  3
    684    683    689    690     1  0.0000000  0.6508444  3
    684    683    689    691     1  0.0000000  0.6508444  3
    685    683    689   1420     1  0.0000000  1.0460000  1
    685    683    689   1420     1  0.0000000  0.0000000  3
    685    683    689    690     1  0.0000000  0.6508444  3
    685    683    689    691     1  0.0000000  0.6508444  3
    689   1420   1411   1412     1  0.0000000  1.6038667  3
    689   1420   1411   1413     1  0.0000000  1.6038667  3
    690    689   1420   1411     1  0.0000000  1.6038667  3
    691    689   1420   1411     1  0.0000000  1.6038667  3
    692   1449   1440   1441     1  0.0000000  1.6038667  3
    692   1449   1440   1442     1  0.0000000  1.6038667  3
    693    692   1449   1440     1  0.0000000  1.6038667  3
    694    692   1449   1440     1  0.0000000  1.6038667  3
    696    697    709    710     1  0.0000000  0.6508444  3
    696    697    709    711     1  0.0000000  0.6508444  3
    696    700    712    713     1  0.0000000  0.6508444  3
    696    700    712    714     1  0.0000000  0.6508444  3
    696    703    706    707     1  0.0000000  0.6508444  3
    696    703    706    708     1  0.0000000  0.6508444  3
    697    696    700    701     1  0.0000000  1.2552000  3
    697    696    700    702     1  0.0000000  1.2552000  3
    697    696    703    704     1  0.0000000  1.2552000  3
    697    696    703    705     1  0.0000000  1.2552000  3
    697    709    721    722     1  0.0000000  0.6508444  3
    697    709    721    723     1  0.0000000  0.6508444  3
    698    697    696    700     1  0.0000000  1.2552000  3
    698    697    696    703     1  0.0000000  1.2552000  3
    698    697    709    721     1  0.0000000  0.6508444  3
    698    697    709    710     1  0.0000000  0.6508444  3
    698    697    709    711     1  0.0000000  0.6508444  3
    699    697    696    700     1  0.0000000  1.2552000  3
    699    697    696    703     1  0.0000000  1.2552000  3
    699    697    709    721     1  0.0000000  0.6508444  3
    699    697    709    710     1  0.0000000  0.6508444  3
    699    697    709    711     1  0.0000000  0.6508444  3
    700    696    703    704     1  0.0000000  1.2552000  3
    700    696    703    705     1  0.0000000  1.2552000  3
    700    712    718    719     1  0.0000000  0.6508444  3
    700    712    718    720     1  0.0000000  0.6508444  3
    701    700    696    703     1  0.0000000  1.2552000  3
    701    700    712    718     1  0.0000000  0.6508444  3
    701    700    712    713     1  0.0000000  0.6508444  3
    701    700    712    714     1  0.0000000  0.6508444  3
    702    700    696    703     1  0.0000000  1.2552000  3
    702    700    712    718     1  0.0000000  0.6508444  3
    702    700    712    713     1  0.0000000  0.6508444  3
    702    700    712    714     1  0.0000000  0.6508444  3
    703    706    715    716     1  0.0000000  0.6508444  3
    703    706    715    717     1  0.0000000  0.6508444  3
    704    703    706    715     1  0.0000000  0.6508444  3
    704    703    706    707     1  0.0000000  0.6508444  3
    704    703    706    708     1  0.0000000  0.6508444  3
    705    703    706    715     1  0.0000000  0.6508444  3
    705    703    706    707     1  0.0000000  0.6508444  3
    705    703    706    708     1  0.0000000  0.6508444  3
    707    706    715    724     1  0.0000000  1.0460000  1
    707    706    715    724     1  0.0000000  0.0000000  3
    707    706    715    716     1  0.0000000  0.6508444  3
    707    706    715    717     1  0.0000000  0.6508444  3
    708    706    715    724     1  0.0000000  1.0460000  1
    708    706    715    724     1  0.0000000  0.0000000  3
    708    706    715    716     1  0.0000000  0.6508444  3
    708    706    715    717     1  0.0000000  0.6508444  3
    710    709    721   1507     1  0.0000000  1.0460000  1
    710    709    721   1507     1  0.0000000  0.0000000  3
    710    709    721    722     1  0.0000000  0.6508444  3
    710    709    721    723     1  0.0000000  0.6508444  3
    711    709    721   1507     1  0.0000000  1.0460000  1
    711    709    721   1507     1  0.0000000  0.0000000  3
    711    709    721    722     1  0.0000000  0.6508444  3
    711    709    721    723     1  0.0000000  0.6508444  3
    713    712    718   1478     1  0.0000000  1.0460000  1
    713    712    718   1478     1  0.0000000  0.0000000  3
    713    712    718    719     1  0.0000000  0.6508444  3
    713    712    718    720     1  0.0000000  0.6508444  3
    714    712    718   1478     1  0.0000000  1.0460000  1
    714    712    718   1478     1  0.0000000  0.0000000  3
    714    712    718    719     1  0.0000000  0.6508444  3
    714    712    718    720     1  0.0000000  0.6508444  3
    718   1478   1469   1470     1  0.0000000  1.6038667  3
    718   1478   1469   1471     1  0.0000000  1.6038667  3
    719    718   1478   1469     1  0.0000000  1.6038667  3
    720    718   1478   1469     1  0.0000000  1.6038667  3
    721   1507   1498   1499     1  0.0000000  1.6038667  3
    721   1507   1498   1500     1  0.0000000  1.6038667  3
    722    721   1507   1498     1  0.0000000  1.6038667  3
    723    721   1507   1498     1  0.0000000  1.6038667  3
    725    726    738    739     1  0.0000000  0.6508444  3
    725    726    738    740     1  0.0000000  0.6508444  3
    725    729    741    742     1  0.0000000  0.6508444  3
    725    729    741    743     1  0.0000000  0.6508444  3
    725    732    735    736     1  0.0000000  0.6508444  3
    725    732    735    737     1  0.0000000  0.6508444  3
    726    725    729    730     1  0.0000000  1.2552000  3
    726    725    729    731     1  0.0000000  1.2552000  3
    726    725    732    733     1  0.0000000  1.2552000  3
    726    725    732    734     1  0.0000000  1.2552000  3
    726    738    750    751     1  0.0000000  0.6508444  3
    726    738    750    752     1  0.0000000  0.6508444  3
    727    726    725    729     1  0.0000000  1.2552000  3
    727    726    725    732     1  0.0000000  1.2552000  3
    727    726    738    750     1  0.0000000  0.6508444  3
    727    726    738    739     1  0.0000000  0.6508444  3
    727    726    738    740     1  0.0000000  0.6508444  3
    728    726    725    729     1  0.0000000  1.2552000  3
    728    726    725    732     1  0.0000000  1.2552000  3
    728    726    738    750     1  0.0000000  0.6508444  3
    728    726    738    739     1  0.0000000  0.6508444  3
    728    726    738    740     1  0.0000000  0.6508444  3
    729    725    732    733     1  0.0000000  1.2552000  3
    729    725    732    734     1  0.0000000  1.2552000  3
    729    741    747    748     1  0.0000000  0.6508444  3
    729    741    747    749     1  0.0000000  0.6508444  3
    730    729    725    732     1  0.0000000  1.2552000  3
    730    729    741    747     1  0.0000000  0.6508444  3
    730    729    741    742     1  0.0000000  0.6508444  3
    730    729    741    743     1  0.0000000  0.6508444  3
    731    729    725    732     1  0.0000000  1.2552000  3
    731    729    741    747     1  0.0000000  0.6508444  3
    731    729    741    742     1  0.0000000  0.6508444  3
    731    729    741    743     1  0.0000000  0.6508444  3
    732    735    744    745     1  0.0000000  0.6508444  3
    732    735    744    746     1  0.0000000  0.6508444  3
    733    732    735    744     1  0.0000000  0.6508444  3
    733    732    735    736     1  0.0000000  0.6508444  3
    733    732    735    737     1  0.0000000  0.6508444  3
    734    732    735    744     1  0.0000000  0.6508444  3
    734    732    735    736     1  0.0000000  0.6508444  3
    734    732    735    737     1  0.0000000  0.6508444  3
    736    735    744    753     1  0.0000000  1.0460000  1
    736    735    744    753     1  0.0000000  0.0000000  3
    736    735    744    745     1  0.0000000  0.6508444  3
    736    735    744    746     1  0.0000000  0.6508444  3
    737    735    744    753     1  0.0000000  1.0460000  1
    737    735    744    753     1  0.0000000  0.0000000  3
    737    735    744    745     1  0.0000000  0.6508444  3
    737    735    744    746     1  0.0000000  0.6508444  3
    739    738    750   1565     1  0.0000000  1.0460000  1
    739    738    750   1565     1  0.0000000  0.0000000  3
    739    738    750    751     1  0.0000000  0.6508444  3
    739    738    750    752     1  0.0000000  0.6508444  3
    740    738    750   1565     1  0.0000000  1.0460000  1
    740    738    750   1565     1  0.0000000  0.0000000  3
    740    738    750    751     1  0.0000000  0.6508444  3
    740    738    750    752     1  0.0000000  0.6508444  3
    742    741    747   1536     1  0.0000000  1.0460000  1
    742    741    747   1536     1  0.0000000  0.0000000  3
    742    741    747    748     1  0.0000000  0.6508444  3
    742    741    747    749     1  0.0000000  0.6508444  3
    743    741    747   1536     1  0.0000000  1.0460000  1
    743    741    747   1536     1  0.0000000  0.0000000  3
    743    741    747    748     1  0.0000000  0.6508444  3
    743    741    747    749     1  0.0000000  0.6508444  3
    747   1536   1527   1528     1  0.0000000  1.6038667  3
    747   1536   1527   1529     1  0.0000000  1.6038667  3
    748    747   1536   1527     1  0.0000000  1.6038667  3
    749    747   1536   1527     1  0.0000000  1.6038667  3
    750   1565   1556   1557     1  0.0000000  1.6038667  3
    750   1565   1556   1558     1  0.0000000  1.6038667  3
    751    750   1565   1556     1  0.0000000  1.6038667  3
    752    750   1565   1556     1  0.0000000  1.6038667  3
    754    755    767    768     1  0.0000000  0.6508444  3
    754    755    767    769     1  0.0000000  0.6508444  3
    754    758    770    771     1  0.0000000  0.6508444  3
    754    758    770    772     1  0.0000000  0.6508444  3
    754    761    764    765     1  0.0000000  0.6508444  3
    754    761    764    766     1  0.0000000  0.6508444  3
    755    754    758    759     1  0.0000000  1.2552000  3
    755    754    758    760     1  0.0000000  1.2552000  3
    755    754    761    762     1  0.0000000  1.2552000  3
    755    754    761    763     1  0.0000000  1.2552000  3
    755    767    779    780     1  0.0000000  0.6508444  3
    755    767    779    781     1  0.0000000  0.6508444  3
    756    755    754    758     1  0.0000000  1.2552000  3
    756    755    754    761     1  0.0000000  1.2552000  3
    756    755    767    779     1  0.0000000  0.6508444  3
    756    755    767    768     1  0.0000000  0.6508444  3
    756    755    767    769     1  0.0000000  0.6508444  3
    757    755    754    758     1  0.0000000  1.2552000  3
    757    755    754    761     1  0.0000000  1.2552000  3
    757    755    767    779     1  0.0000000  0.6508444  3
    757    755    767    768     1  0.0000000  0.6508444  3
    757    755    767    769     1  0.0000000  0.6508444  3
    758    754    761    762     1  0.0000000  1.2552000  3
    758    754    761    763     1  0.0000000  1.2552000  3
    758    770    776    777     1  0.0000000  0.6508444  3
    758    770    776    778     1  0.0000000  0.6508444  3
    759    758    754    761     1  0.0000000  1.2552000  3
    759    758    770    776     1  0.0000000  0.6508444  3
    759    758    770    771     1  0.0000000  0.6508444  3
    759    758    770    772     1  0.0000000  0.6508444  3
    760    758    754    761     1  0.0000000  1.2552000  3
    760    758    770    776     1  0.0000000  0.6508444  3
    760    758    770    771     1  0.0000000  0.6508444  3
    760    758    770    772     1  0.0000000  0.6508444  3
    761    764    773    774     1  0.0000000  0.6508444  3
    761    764    773    775     1  0.0000000  0.6508444  3
    762    761    764    773     1  0.0000000  0.6508444  3
    762    761    764    765     1  0.0000000  0.6508444  3
    762    761    764    766     1  0.0000000  0.6508444  3
    763    761    764    773     1  0.0000000  0.6508444  3
    763    761    764    765     1  0.0000000  0.6508444  3
    763    761    764    766     1  0.0000000  0.6508444  3
    765    764    773    782     1  0.0000000  1.0460000  1
    765    764    773    782     1  0.0000000  0.0000000  3
    765    764    773    774     1  0.0000000  0.6508444  3
    765    764    773    775     1  0.0000000  0.6508444  3
    766    764    773    782     1  0.0000000  1.0460000  1
    766    764    773    782     1  0.0000000  0.0000000  3
    766    764    773    774     1  0.0000000  0.6508444  3
    766    764    773    775     1  0.0000000  0.6508444  3
    768    767    779   1623     1  0.0000000  1.0460000  1
    768    767    779   1623     1  0.0000000  0.0000000  3
    768    767    779    780     1  0.0000000  0.6508444  3
    768    767    779    781     1  0.0000000  0.6508444  3
    769    767    779   1623     1  0.0000000  1.0460000  1
    769    767    779   1623     1  0.0000000  0.0000000  3
    769    767    779    780     1  0.0000000  0.6508444  3
    769    767    779    781     1  0.0000000  0.6508444  3
    771    770    776   1594     1  0.0000000  1.0460000  1
    771    770    776   1594     1  0.0000000  0.0000000  3
    771    770    776    777     1  0.0000000  0.6508444  3
    771    770    776    778     1  0.0000000  0.6508444  3
    772    770    776   1594     1  0.0000000  1.0460000  1
    772    770    776   1594     1  0.0000000  0.0000000  3
    772    770    776    777     1  0.0000000  0.6508444  3
    772    770    776    778     1  0.0000000  0.6508444  3
    776   1594   1585   1586     1  0.0000000  1.6038667  3
    776   1594   1585   1587     1  0.0000000  1.6038667  3
    777    776   1594   1585     1  0.0000000  1.6038667  3
    778    776   1594   1585     1  0.0000000  1.6038667  3
    779   1623   1614   1615     1  0.0000000  1.6038667  3
    779   1623   1614   1616     1  0.0000000  1.6038667  3
    780    779   1623   1614     1  0.0000000  1.6038667  3
    781    779   1623   1614     1  0.0000000  1.6038667  3
    783    784    796    797     1  0.0000000  0.6508444  3
    783    784    796    798     1  0.0000000  0.6508444  3
    783    787    799    800     1  0.0000000  0.6508444  3
    783    787    799    801     1  0.0000000  0.6508444  3
    783    790    793    794     1  0.0000000  0.6508444  3
    783    790    793    795     1  0.0000000  0.6508444  3
    784    783    787    788     1  0.0000000  1.2552000  3
    784    783    787    789     1  0.0000000  1.2552000  3
    784    783    790    791     1  0.0000000  1.2552000  3
    784    783    790    792     1  0.0000000  1.2552000  3
    784    796    808    809     1  0.0000000  0.6508444  3
    784    796    808    810     1  0.0000000  0.6508444  3
    785    784    783    787     1  0.0000000  1.2552000  3
    785    784    783    790     1  0.0000000  1.2552000  3
    785    784    796    808     1  0.0000000  0.6508444  3
    785    784    796    797     1  0.0000000  0.6508444  3
    785    784    796    798     1  0.0000000  0.6508444  3
    786    784    783    787     1  0.0000000  1.2552000  3
    786    784    783    790     1  0.0000000  1.2552000  3
    786    784    796    808     1  0.0000000  0.6508444  3
    786    784    796    797     1  0.0000000  0.6508444  3
    786    784    796    798     1  0.0000000  0.6508444  3
    787    783    790    791     1  0.0000000  1.2552000  3
    787    783    790    792     1  0.0000000  1.2552000  3
    787    799    805    806     1  0.0000000  0.6508444  3
    787    799    805    807     1  0.0000000  0.6508444  3
    788    787    783    790     1  0.0000000  1.2552000  3
    788    787    799    805     1  0.0000000  0.6508444  3
    788    787    799    800     1  0.0000000  0.6508444  3
    788    787    799    801     1  0.0000000  0.6508444  3
    789    787    783    790     1  0.0000000  1.2552000  3
    789    787    799    805     1  0.0000000  0.6508444  3
    789    787    799    800     1  0.0000000  0.6508444  3
    789    787    799    801     1  0.0000000  0.6508444  3
    790    793    802    803     1  0.0000000  0.6508444  3
    790    793    802    804     1  0.0000000  0.6508444  3
    791    790    793    802     1  0.0000000  0.6508444  3
    791    790    793    794     1  0.0000000  0.6508444  3
    791    790    793    795     1  0.0000000  0.6508444  3
    792    790    793    802     1  0.0000000  0.6508444  3
    792    790    793    794     1  0.0000000  0.6508444  3
    792    790    793    795     1  0.0000000  0.6508444  3
    794    793    802    811     1  0.0000000  1.0460000  1
    794    793    802    811     1  0.0000000  0.0000000  3
    794    793    802    803     1  0.0000000  0.6508444  3
    794    793    802    804     1  0.0000000  0.6508444  3
    795    793    802    811     1  0.0000000  1.0460000  1
    795    793    802    811     1  0.0000000  0.0000000  3
    795    793    802    803     1  0.0000000  0.6508444  3
    795    793    802    804     1  0.0000000  0.6508444  3
    797    796    808   1681     1  0.0000000  1.0460000  1
    797    796    808   1681     1  0.0000000  0.0000000  3
    797    796    808    809     1  0.0000000  0.6508444  3
    797    796    808    810     1  0.0000000  0.6508444  3
    798    796    808   1681     1  0.0000000  1.0460000  1
    798    796    808   1681     1  0.0000000  0.0000000  3
    798    796    808    809     1  0.0000000  0.6508444  3
    798    796    808    810     1  0.0000000  0.6508444  3
    800    799    805   1652     1  0.0000000  1.0460000  1
    800    799    805   1652     1  0.0000000  0.0000000  3
    800    799    805    806     1  0.0000000  0.6508444  3
    800    799    805    807     1  0.0000000  0.6508444  3
    801    799    805   1652     1  0.0000000  1.0460000  1
    801    799    805   1652     1  0.0000000  0.0000000  3
    801    799    805    806     1  0.0000000  0.6508444  3
    801    799    805    807     1  0.0000000  0.6508444  3
    805   1652   1643   1644     1  0.0000000  1.6038667  3
    805   1652   1643   1645     1  0.0000000  1.6038667  3
    806    805   1652   1643     1  0.0000000  1.6038667  3
    807    805   1652   1643     1  0.0000000  1.6038667  3
    808   1681   1672   1673     1  0.0000000  1.6038667  3
    808   1681   1672   1674     1  0.0000000  1.6038667  3
    809    808   1681   1672     1  0.0000000  1.6038667  3
    810    808   1681   1672     1  0.0000000  1.6038667  3
    812    813    825    826     1  0.0000000  0.6508444  3
    812    813    825    827     1  0.0000000  0.6508444  3
    812    816    828    829     1  0.0000000  0.6508444  3
    812    816    828    830     1  0.0000000  0.6508444  3
    812    819    822    823     1  0.0000000  0.6508444  3
    812    819    822    824     1  0.0000000  0.6508444  3
    813    812    816    817     1  0.0000000  1.2552000  3
    813    812    816    818     1  0.0000000  1.2552000  3
    813    812    819    820     1  0.0000000  1.2552000  3
    813    812    819    821     1  0.0000000  1.2552000  3
    813    825    837    838     1  0.0000000  0.6508444  3
    813    825    837    839     1  0.0000000  0.6508444  3
    814    813    812    816     1  0.0000000  1.2552000  3
    814    813    812    819     1  0.0000000  1.2552000  3
    814    813    825    837     1  0.0000000  0.6508444  3
    814    813    825    826     1  0.0000000  0.6508444  3
    814    813    825    827     1  0.0000000  0.6508444  3
    815    813    812    816     1  0.0000000  1.2552000  3
    815    813    812    819     1  0.0000000  1.2552000  3
    815    813    825    837     1  0.0000000  0.6508444  3
    815    813    825    826     1  0.0000000  0.6508444  3
    815    813    825    827     1  0.0000000  0.6508444  3
    816    812    819    820     1  0.0000000  1.2552000  3
    816    812    819    821     1  0.0000000  1.2552000  3
    816    828    834    835     1  0.0000000  0.6508444  3
    816    828    834    836     1  0.0000000  0.6508444  3
    817    816    812    819     1  0.0000000  1.2552000  3
    817    816    828    834     1  0.0000000  0.6508444  3
    817    816    828    829     1  0.0000000  0.6508444  3
    817    816    828    830     1  0.0000000  0.6508444  3
    818    816    812    819     1  0.0000000  1.2552000  3
    818    816    828    834     1  0.0000000  0.6508444  3
    818    816    828    829     1  0.0000000  0.6508444  3
    818    816    828    830     1  0.0000000  0.6508444  3
    819    822    831    832     1  0.0000000  0.6508444  3
    819    822    831    833     1  0.0000000  0.6508444  3
    820    819    822    831     1  0.0000000  0.6508444  3
    820    819    822    823     1  0.0000000  0.6508444  3
    820    819    822    824     1  0.0000000  0.6508444  3
    821    819    822    831     1  0.0000000  0.6508444  3
    821    819    822    823     1  0.0000000  0.6508444  3
    821    819    822    824     1  0.0000000  0.6508444  3
    823    822    831    840     1  0.0000000  1.0460000  1
    823    822    831    840     1  0.0000000  0.0000000  3
    823    822    831    832     1  0.0000000  0.6508444  3
    823    822    831    833     1  0.0000000  0.6508444  3
    824    822    831    840     1  0.0000000  1.0460000  1
    824    822    831    840     1  0.0000000  0.0000000  3
    824    822    831    832     1  0.0000000  0.6508444  3
    824    822    831    833     1  0.0000000  0.6508444  3
    826    825    837   1739     1  0.0000000  1.0460000  1
    826    825    837   1739     1  0.0000000  0.0000000  3
    826    825    837    838     1  0.0000000  0.6508444  3
    826    825    837    839     1  0.0000000  0.6508444  3
    827    825    837   1739     1  0.0000000  1.0460000  1
    827    825    837   1739     1  0.0000000  0.0000000  3
    827    825    837    838     1  0.0000000  0.6508444  3
    827    825    837    839     1  0.0000000  0.6508444  3
    829    828    834   1710     1  0.0000000  1.0460000  1
    829    828    834   1710     1  0.0000000  0.0000000  3
    829    828    834    835     1  0.0000000  0.6508444  3
    829    828    834    836     1  0.0000000  0.6508444  3
    830    828    834   1710     1  0.0000000  1.0460000  1
    830    828    834   1710     1  0.0000000  0.0000000  3
    830    828    834    835     1  0.0000000  0.6508444  3
    830    828    834    836     1  0.0000000  0.6508444  3
    834   1710   1701   1702     1  0.0000000  1.6038667  3
    834   1710   1701   1703     1  0.0000000  1.6038667  3
    835    834   1710   1701     1  0.0000000  1.6038667  3
    836    834   1710   1701     1  0.0000000  1.6038667  3
    837   1739   1730   1731     1  0.0000000  1.6038667  3
    837   1739   1730   1732     1  0.0000000  1.6038667  3
    838    837   1739   1730     1  0.0000000  1.6038667  3
    839    837   1739   1730     1  0.0000000  1.6038667  3
    841    842    854    855     1  0.0000000  0.6508444  3
    841    842    854    856     1  0.0000000  0.6508444  3
    841    845    857    858     1  0.0000000  0.6508444  3
    841    845    857    859     1  0.0000000  0.6508444  3
    841    848    851    852     1  0.0000000  0.6508444  3
    841    848    851    853     1  0.0000000  0.6508444  3
    842    841    845    846     1  0.0000000  1.2552000  3
    842    841    845    847     1  0.0000000  1.2552000  3
    842    841    848    849     1  0.0000000  1.2552000  3
    842    841    848    850     1  0.0000000  1.2552000  3
    842    854    866    867     1  0.0000000  0.6508444  3
    842    854    866    868     1  0.0000000  0.6508444  3
    843    842    841    845     1  0.0000000  1.2552000  3
    843    842    841    848     1  0.0000000  1.2552000  3
    843    842    854    866     1  0.0000000  0.6508444  3
    843    842    854    855     1  0.0000000  0.6508444  3
    843    842    854    856     1  0.0000000  0.6508444  3
    844    842    841    845     1  0.0000000  1.2552000  3
    844    842    841    848     1  0.0000000  1.2552000  3
    844    842    854    866     1  0.0000000  0.6508444  3
    844    842    854    855     1  0.0000000  0.6508444  3
    844    842    854    856     1  0.0000000  0.6508444  3
    845    841    848    849     1  0.0000000  1.2552000  3
    845    841    848    850     1  0.0000000  1.2552000  3
    845    857    863    864     1  0.0000000  0.6508444  3
    845    857    863    865     1  0.0000000  0.6508444  3
    846    845    841    848     1  0.0000000  1.2552000  3
    846    845    857    863     1  0.0000000  0.6508444  3
    846    845    857    858     1  0.0000000  0.6508444  3
    846    845    857    859     1  0.0000000  0.6508444  3
    847    845    841    848     1  0.0000000  1.2552000  3
    847    845    857    863     1  0.0000000  0.6508444  3
    847    845    857    858     1  0.0000000  0.6508444  3
    847    845    857    859     1  0.0000000  0.6508444  3
    848    851    860    861     1  0.0000000  0.6508444  3
    848    851    860    862     1  0.0000000  0.6508444  3
    849    848    851    860     1  0.0000000  0.6508444  3
    849    848    851    852     1  0.0000000  0.6508444  3
    849    848    851    853     1  0.0000000  0.6508444  3
    850    848    851    860     1  0.0000000  0.6508444  3
    850    848    851    852     1  0.0000000  0.6508444  3
    850    848    851    853     1  0.0000000  0.6508444  3
    852    851    860    869     1  0.0000000  1.0460000  1
    852    851    860    869     1  0.0000000  0.0000000  3
    852    851    860    861     1  0.0000000  0.6508444  3
    852    851    860    862     1  0.0000000  0.6508444  3
    853    851    860    869     1  0.0000000  1.0460000  1
    853    851    860    869     1  0.0000000  0.0000000  3
    853    851    860    861     1  0.0000000  0.6508444  3
    853    851    860    862     1  0.0000000  0.6508444  3
    855    854    866   1797     1  0.0000000  1.0460000  1
    855    854    866   1797     1  0.0000000  0.0000000  3
    855    854    866    867     1  0.0000000  0.6508444  3
    855    854    866    868     1  0.0000000  0.6508444  3
    856    854    866   1797     1  0.0000000  1.0460000  1
    856    854    866   1797     1  0.0000000  0.0000000  3
    856    854    866    867     1  0.0000000  0.6508444  3
    856    854    866    868     1  0.0000000  0.6508444  3
    858    857    863   1768     1  0.0000000  1.0460000  1
    858    857    863   1768     1  0.0000000  0.0000000  3
    858    857    863    864     1  0.0000000  0.6508444  3
    858    857    863    865     1  0.0000000  0.6508444  3
    859    857    863   1768     1  0.0000000  1.0460000  1
    859    857    863   1768     1  0.0000000  0.0000000  3
    859    857    863    864     1  0.0000000  0.6508444  3
    859    857    863    865     1  0.0000000  0.6508444  3
    863   1768   1759   1760     1  0.0000000  1.6038667  3
    863   1768   1759   1761     1  0.0000000  1.6038667  3
    864    863   1768   1759     1  0.0000000  1.6038667  3
    865    863   1768   1759     1  0.0000000  1.6038667  3
    866   1797   1788   1789     1  0.0000000  1.6038667  3
    866   1797   1788   1790     1  0.0000000  1.6038667  3
    867    866   1797   1788     1  0.0000000  1.6038667  3
    868    866   1797   1788     1  0.0000000  1.6038667  3
    870    871    883    884     1  0.0000000  0.6508444  3
    870    871    883    885     1  0.0000000  0.6508444  3
    870    874    886    887     1  0.0000000  0.6508444  3
    870    874    886    888     1  0.0000000  0.6508444  3
    870    877    880    881     1  0.0000000  0.6508444  3
    870    877    880    882     1  0.0000000  0.6508444  3
    871    870    874    875     1  0.0000000  1.2552000  3
    871    870    874    876     1  0.0000000  1.2552000  3
    871    870    877    878     1  0.0000000  1.2552000  3
    871    870    877    879     1  0.0000000  1.2552000  3
    871    883    895    896     1  0.0000000  0.6508444  3
    871    883    895    897     1  0.0000000  0.6508444  3
    872    871    870    874     1  0.0000000  1.2552000  3
    872    871    870    877     1  0.0000000  1.2552000  3
    872    871    883    895     1  0.0000000  0.6508444  3
    872    871    883    884     1  0.0000000  0.6508444  3
    872    871    883    885     1  0.0000000  0.6508444  3
    873    871    870    874     1  0.0000000  1.2552000  3
    873    871    870    877     1  0.0000000  1.2552000  3
    873    871    883    895     1  0.0000000  0.6508444  3
    873    871    883    884     1  0.0000000  0.6508444  3
    873    871    883    885     1  0.0000000  0.6508444  3
    874    870    877    878     1  0.0000000  1.2552000  3
    874    870    877    879     1  0.0000000  1.2552000  3
    874    886    892    893     1  0.0000000  0.6508444  3
    874    886    892    894     1  0.0000000  0.6508444  3
    875    874    870    877     1  0.0000000  1.2552000  3
    875    874    886    892     1  0.0000000  0.6508444  3
    875    874    886    887     1  0.0000000  0.6508444  3
    875    874    886    888     1  0.0000000  0.6508444  3
    876    874    870    877     1  0.0000000  1.2552000  3
    876    874    886    892     1  0.0000000  0.6508444  3
    876    874    886    887     1  0.0000000  0.6508444  3
    876    874    886    888     1  0.0000000  0.6508444  3
    877    880    889    890     1  0.0000000  0.6508444  3
    877    880    889    891     1  0.0000000  0.6508444  3
    878    877    880    889     1  0.0000000  0.6508444  3
    878    877    880    881     1  0.0000000  0.6508444  3
    878    877    880    882     1  0.0000000  0.6508444  3
    879    877    880    889     1  0.0000000  0.6508444  3
    879    877    880    881     1  0.0000000  0.6508444  3
    879    877    880    882     1  0.0000000  0.6508444  3
    881    880    889    898     1  0.0000000  1.0460000  1
    881    880    889    898     1  0.0000000  0.0000000  3
    881    880    889    890     1  0.0000000  0.6508444  3
    881    880    889    891     1  0.0000000  0.6508444  3
    882    880    889    898     1  0.0000000  1.0460000  1
    882    880    889    898     1  0.0000000  0.0000000  3
    882    880    889    890     1  0.0000000  0.6508444  3
    882    880    889    891     1  0.0000000  0.6508444  3
    884    883    895   1831     1  0.0000000  1.0460000  1
    884    883    895   1831     1  0.0000000  0.0000000  3
    884    883    895    896     1  0.0000000  0.6508444  3
    884    883    895    897     1  0.0000000  0.6508444  3
    885    883    895   1831     1  0.0000000  1.0460000  1
    885    883    895   1831     1  0.0000000  0.0000000  3
    885    883    895    896     1  0.0000000  0.6508444  3
    885    883    895    897     1  0.0000000  0.6508444  3
    887    886    892   1808     1  0.0000000  1.0460000  1
    887    886    892   1808     1  0.0000000  0.0000000  3
    887    886    892    893     1  0.0000000  0.6508444  3
    887    886    892    894     1  0.0000000  0.6508444  3
    888    886    892   1808     1  0.0000000  1.0460000  1
    888    886    892   1808     1  0.0000000  0.0000000  3
    888    886    892    893     1  0.0000000  0.6508444  3
    888    886    892    894     1  0.0000000  0.6508444  3
    892   1808   1804   1807     1  0.0000000  1.6038667  3
    893    892   1808   1804     1  0.0000000  1.6038667  3
    894    892   1808   1804     1  0.0000000  1.6038667  3
    895   1831   1827   1830     1  0.0000000  1.6038667  3
    896    895   1831   1827     1  0.0000000  1.6038667  3
    897    895   1831   1827     1  0.0000000  1.6038667  3
    899    900    912    913     1  0.0000000  0.6508444  3
    899    900    912    914     1  0.0000000  0.6508444  3
    899    903    915    916     1  0.0000000  0.6508444  3
    899    903    915    917     1  0.0000000  0.6508444  3
    899    906    909    910     1  0.0000000  0.6508444  3
    899    906    909    911     1  0.0000000  0.6508444  3
    900    899    903    904     1  0.0000000  1.2552000  3
    900    899    903    905     1  0.0000000  1.2552000  3
    900    899    906    907     1  0.0000000  1.2552000  3
    900    899    906    908     1  0.0000000  1.2552000  3
    900    912    924    925     1  0.0000000  0.6508444  3
    900    912    924    926     1  0.0000000  0.6508444  3
    901    900    899    903     1  0.0000000  1.2552000  3
    901    900    899    906     1  0.0000000  1.2552000  3
    901    900    912    924     1  0.0000000  0.6508444  3
    901    900    912    913     1  0.0000000  0.6508444  3
    901    900    912    914     1  0.0000000  0.6508444  3
    902    900    899    903     1  0.0000000  1.2552000  3
    902    900    899    906     1  0.0000000  1.2552000  3
    902    900    912    924     1  0.0000000  0.6508444  3
    902    900    912    913     1  0.0000000  0.6508444  3
    902    900    912    914     1  0.0000000  0.6508444  3
    903    899    906    907     1  0.0000000  1.2552000  3
    903    899    906    908     1  0.0000000  1.2552000  3
    903    915    921    922     1  0.0000000  0.6508444  3
    903    915    921    923     1  0.0000000  0.6508444  3
    904    903    899    906     1  0.0000000  1.2552000  3
    904    903    915    921     1  0.0000000  0.6508444  3
    904    903    915    916     1  0.0000000  0.6508444  3
    904    903    915    917     1  0.0000000  0.6508444  3
    905    903    899    906     1  0.0000000  1.2552000  3
    905    903    915    921     1  0.0000000  0.6508444  3
    905    903    915    916     1  0.0000000  0.6508444  3
    905    903    915    917     1  0.0000000  0.6508444  3
    906    909    918    919     1  0.0000000  0.6508444  3
    906    909    918    920     1  0.0000000  0.6508444  3
    907    906    909    918     1  0.0000000  0.6508444  3
    907    906    909    910     1  0.0000000  0.6508444  3
    907    906    909    911     1  0.0000000  0.6508444  3
    908    906    909    918     1  0.0000000  0.6508444  3
    908    906    909    910     1  0.0000000  0.6508444  3
    908    906    909    911     1  0.0000000  0.6508444  3
    910    909    918    927     1  0.0000000  1.0460000  1
    910    909    918    927     1  0.0000000  0.0000000  3
    910    909    918    919     1  0.0000000  0.6508444  3
    910    909    918    920     1  0.0000000  0.6508444  3
    911    909    918    927     1  0.0000000  1.0460000  1
    911    909    918    927     1  0.0000000  0.0000000  3
    911    909    918    919     1  0.0000000  0.6508444  3
    911    909    918    920     1  0.0000000  0.6508444  3
    913    912    924   1877     1  0.0000000  1.0460000  1
    913    912    924   1877     1  0.0000000  0.0000000  3
    913    912    924    925     1  0.0000000  0.6508444  3
    913    912    924    926     1  0.0000000  0.6508444  3
    914    912    924   1877     1  0.0000000  1.0460000  1
    914    912    924   1877     1  0.0000000  0.0000000  3
    914    912    924    925     1  0.0000000  0.6508444  3
    914    912    924    926     1  0.0000000  0.6508444  3
    916    915    921   1854     1  0.0000000  1.0460000  1
    916    915    921   1854     1  0.0000000  0.0000000  3
    916    915    921    922     1  0.0000000  0.6508444  3
    916    915    921    923     1  0.0000000  0.6508444  3
    917    915    921   1854     1  0.0000000  1.0460000  1
    917    915    921   1854     1  0.0000000  0.0000000  3
    917    915    921    922     1  0.0000000  0.6508444  3
    917    915    921    923     1  0.0000000  0.6508444  3
    921   1854   1850   1853     1  0.0000000  1.6038667  3
    922    921   1854   1850     1  0.0000000  1.6038667  3
    923    921   1854   1850     1  0.0000000  1.6038667  3
    924   1877   1873   1876     1  0.0000000  1.6038667  3
    925    924   1877   1873     1  0.0000000  1.6038667  3
    926    924   1877   1873     1  0.0000000  1.6038667  3
    928    929    941    942     1  0.0000000  0.6508444  3
    928    929    941    943     1  0.0000000  0.6508444  3
    928    932    944    945     1  0.0000000  0.6508444  3
    928    932    944    946     1  0.0000000  0.6508444  3
    928    935    938    939     1  0.0000000  0.6508444  3
    928    935    938    940     1  0.0000000  0.6508444  3
    929    928    932    933     1  0.0000000  1.2552000  3
    929    928    932    934     1  0.0000000  1.2552000  3
    929    928    935    936     1  0.0000000  1.2552000  3
    929    928    935    937     1  0.0000000  1.2552000  3
    929    941    953    954     1  0.0000000  0.6508444  3
    929    941    953    955     1  0.0000000  0.6508444  3
    930    929    928    932     1  0.0000000  1.2552000  3
    930    929    928    935     1  0.0000000  1.2552000  3
    930    929    941    953     1  0.0000000  0.6508444  3
    930    929    941    942     1  0.0000000  0.6508444  3
    930    929    941    943     1  0.0000000  0.6508444  3
    931    929    928    932     1  0.0000000  1.2552000  3
    931    929    928    935     1  0.0000000  1.2552000  3
    931    929    941    953     1  0.0000000  0.6508444  3
    931    929    941    942     1  0.0000000  0.6508444  3
    931    929    941    943     1  0.0000000  0.6508444  3
    932    928    935    936     1  0.0000000  1.2552000  3
    932    928    935    937     1  0.0000000  1.2552000  3
    932    944    950    951     1  0.0000000  0.6508444  3
    932    944    950    952     1  0.0000000  0.6508444  3
    933    932    928    935     1  0.0000000  1.2552000  3
    933    932    944    950     1  0.0000000  0.6508444  3
    933    932    944    945     1  0.0000000  0.6508444  3
    933    932    944    946     1  0.0000000  0.6508444  3
    934    932    928    935     1  0.0000000  1.2552000  3
    934    932    944    950     1  0.0000000  0.6508444  3
    934    932    944    945     1  0.0000000  0.6508444  3
    934    932    944    946     1  0.0000000  0.6508444  3
    935    938    947    948     1  0.0000000  0.6508444  3
    935    938    947    949     1  0.0000000  0.6508444  3
    936    935    938    947     1  0.0000000  0.6508444  3
    936    935    938    939     1  0.0000000  0.6508444  3
    936    935    938    940     1  0.0000000  0.6508444  3
    937    935    938    947     1  0.0000000  0.6508444  3
    937    935    938    939     1  0.0000000  0.6508444  3
    937    935    938    940     1  0.0000000  0.6508444  3
    939    938    947    956     1  0.0000000  1.0460000  1
    939    938    947    956     1  0.0000000  0.0000000  3
    939    938    947    948     1  0.0000000  0.6508444  3
    939    938    947    949     1  0.0000000  0.6508444  3
    940    938    947    956     1  0.0000000  1.0460000  1
    940    938    947    956     1  0.0000000  0.0000000  3
    940    938    947    948     1  0.0000000  0.6508444  3
    940    938    947    949     1  0.0000000  0.6508444  3
    942    941    953   1923     1  0.0000000  1.0460000  1
    942    941    953   1923     1  0.0000000  0.0000000  3
    942    941    953    954     1  0.0000000  0.6508444  3
    942    941    953    955     1  0.0000000  0.6508444  3
    943    941    953   1923     1  0.0000000  1.0460000  1
    943    941    953   1923     1  0.0000000  0.0000000  3
    943    941    953    954     1  0.0000000  0.6508444  3
    943    941    953    955     1  0.0000000  0.6508444  3
    945    944    950   1900     1  0.0000000  1.0460000  1
    945    944    950   1900     1  0.0000000  0.0000000  3
    945    944    950    951     1  0.0000000  0.6508444  3
    945    944    950    952     1  0.0000000  0.6508444  3
    946    944    950   1900     1  0.0000000  1.0460000  1
    946    944    950   1900     1  0.0000000  0.0000000  3
    946    944    950    951     1  0.0000000  0.6508444  3
    946    944    950    952     1  0.0000000  0.6508444  3
    950   1900   1896   1899     1  0.0000000  1.6038667  3
    951    950   1900   1896     1  0.0000000  1.6038667  3
    952    950   1900   1896     1  0.0000000  1.6038667  3
    953   1923   1919   1922     1  0.0000000  1.6038667  3
    954    953   1923   1919     1  0.0000000  1.6038667  3
    955    953   1923   1919     1  0.0000000  1.6038667  3
    957    958    970    971     1  0.0000000  0.6508444  3
    957    958    970    972     1  0.0000000  0.6508444  3
    957    961    973    974     1  0.0000000  0.6508444  3
    957    961    973    975     1  0.0000000  0.6508444  3
    957    964    967    968     1  0.0000000  0.6508444  3
    957    964    967    969     1  0.0000000  0.6508444  3
    958    957    961    962     1  0.0000000  1.2552000  3
    958    957    961    963     1  0.0000000  1.2552000  3
    958    957    964    965     1  0.0000000  1.2552000  3
    958    957    964    966     1  0.0000000  1.2552000  3
    958    970    982    983     1  0.0000000  0.6508444  3
    958    970    982    984     1  0.0000000  0.6508444  3
    959    958    957    961     1  0.0000000  1.2552000  3
    959    958    957    964     1  0.0000000  1.2552000  3
    959    958    970    982     1  0.0000000  0.6508444  3
    959    958    970    971     1  0.0000000  0.6508444  3
    959    958    970    972     1  0.0000000  0.6508444  3
    960    958    957    961     1  0.0000000  1.2552000  3
    960    958    957    964     1  0.0000000  1.2552000  3
    960    958    970    982     1  0.0000000  0.6508444  3
    960    958    970    971     1  0.0000000  0.6508444  3
    960    958    970    972     1  0.0000000  0.6508444  3
    961    957    964    965     1  0.0000000  1.2552000  3
    961    957    964    966     1  0.0000000  1.2552000  3
    961    973    979    980     1  0.0000000  0.6508444  3
    961    973    979    981     1  0.0000000  0.6508444  3
    962    961    957    964     1  0.0000000  1.2552000  3
    962    961    973    979     1  0.0000000  0.6508444  3
    962    961    973    974     1  0.0000000  0.6508444  3
    962    961    973    975     1  0.0000000  0.6508444  3
    963    961    957    964     1  0.0000000  1.2552000  3
    963    961    973    979     1  0.0000000  0.6508444  3
    963    961    973    974     1  0.0000000  0.6508444  3
    963    961    973    975     1  0.0000000  0.6508444  3
    964    967    976    977     1  0.0000000  0.6508444  3
    964    967    976    978     1  0.0000000  0.6508444  3
    965    964    967    976     1  0.0000000  0.6508444  3
    965    964    967    968     1  0.0000000  0.6508444  3
    965    964    967    969     1  0.0000000  0.6508444  3
    966    964    967    976     1  0.0000000  0.6508444  3
    966    964    967    968     1  0.0000000  0.6508444  3
    966    964    967    969     1  0.0000000  0.6508444  3
    968    967    976    985     1  0.0000000  1.0460000  1
    968    967    976    985     1  0.0000000  0.0000000  3
    968    967    976    977     1  0.0000000  0.6508444  3
    968    967    976    978     1  0.0000000  0.6508444  3
    969    967    976    985     1  0.0000000  1.0460000  1
    969    967    976    985     1  0.0000000  0.0000000  3
    969    967    976    977     1  0.0000000  0.6508444  3
    969    967    976    978     1  0.0000000  0.6508444  3
    971    970    982   1969     1  0.0000000  1.0460000  1
    971    970    982   1969     1  0.0000000  0.0000000  3
    971    970    982    983     1  0.0000000  0.6508444  3
    971    970    982    984     1  0.0000000  0.6508444  3
    972    970    982   1969     1  0.0000000  1.0460000  1
    972    970    982   1969     1  0.0000000  0.0000000  3
    972    970    982    983     1  0.0000000  0.6508444  3
    972    970    982    984     1  0.0000000  0.6508444  3
    974    973    979   1946     1  0.0000000  1.0460000  1
    974    973    979   1946     1  0.0000000  0.0000000  3
    974    973    979    980     1  0.0000000  0.6508444  3
    974    973    979    981     1  0.0000000  0.6508444  3
    975    973    979   1946     1  0.0000000  1.0460000  1
    975    973    979   1946     1  0.0000000  0.0000000  3
    975    973    979    980     1  0.0000000  0.6508444  3
    975    973    979    981     1  0.0000000  0.6508444  3
    979   1946   1942   1945     1  0.0000000  1.6038667  3
    980    979   1946   1942     1  0.0000000  1.6038667  3
    981    979   1946   1942     1  0.0000000  1.6038667  3
    982   1969   1965   1968     1  0.0000000  1.6038667  3
    983    982   1969   1965     1  0.0000000  1.6038667  3
    984    982   1969   1965     1  0.0000000  1.6038667  3
    986    987    999   1000     1  0.0000000  0.6508444  3
    986    987    999   1001     1  0.0000000  0.6508444  3
    986    990   1002   1003     1  0.0000000  0.6508444  3
    986    990   1002   1004     1  0.0000000  0.6508444  3
    986    993    996    997     1  0.0000000  0.6508444  3
    986    993    996    998     1  0.0000000  0.6508444  3
    987    986    990    991     1  0.0000000  1.2552000  3
    987    986    990    992     1  0.0000000  1.2552000  3
    987    986    993    994     1  0.0000000  1.2552000  3
    987    986    993    995     1  0.0000000  1.2552000  3
    987    999   1011   1012     1  0.0000000  0.6508444  3
    987    999   1011   1013     1  0.0000000  0.6508444  3
    988    987    986    990     1  0.0000000  1.2552000  3
    988    987    986    993     1  0.0000000  1.2552000  3
    988    987    999   1011     1  0.0000000  0.6508444  3
    988    987    999   1000     1  0.0000000  0.6508444  3
    988    987    999   1001     1  0.0000000  0.6508444  3
    989    987    986    990     1  0.0000000  1.2552000  3
    989    987    986    993     1  0.0000000  1.2552000  3
    989    987    999   1011     1  0.0000000  0.6508444  3
    989    987    999   1000     1  0.0000000  0.6508444  3
    989    987    999   1001     1  0.0000000  0.6508444  3
    990    986    993    994     1  0.0000000  1.2552000  3
    990    986    993    995     1  0.0000000  1.2552000  3
    990   1002   1008   1009     1  0.0000000  0.6508444  3
    990   1002   1008   1010     1  0.0000000  0.6508444  3
    991    990    986    993     1  0.0000000  1.2552000  3
    991    990   1002   1008     1  0.0000000  0.6508444  3
    991    990   1002   1003     1  0.0000000  0.6508444  3
    991    990   1002   1004     1  0.0000000  0.6508444  3
    992    990    986    993     1  0.0000000  1.2552000  3
    992    990   1002   1008     1  0.0000000  0.6508444  3
    992    990   1002   1003     1  0.0000000  0.6508444  3
    992    990   1002   1004     1  0.0000000  0.6508444  3
    993    996   1005   1006     1  0.0000000  0.6508444  3
    993    996   1005   1007     1  0.0000000  0.6508444  3
    994    993    996   1005     1  0.0000000  0.6508444  3
    994    993    996    997     1  0.0000000  0.6508444  3
    994    993    996    998     1  0.0000000  0.6508444  3
    995    993    996   1005     1  0.0000000  0.6508444  3
    995    993    996    997     1  0.0000000  0.6508444  3
    995    993    996    998     1  0.0000000  0.6508444  3
    997    996   1005   1014     1  0.0000000  1.0460000  1
    997    996   1005   1014     1  0.0000000  0.0000000  3
    997    996   1005   1006     1  0.0000000  0.6508444  3
    997    996   1005   1007     1  0.0000000  0.6508444  3
    998    996   1005   1014     1  0.0000000  1.0460000  1
    998    996   1005   1014     1  0.0000000  0.0000000  3
    998    996   1005   1006     1  0.0000000  0.6508444  3
    998    996   1005   1007     1  0.0000000  0.6508444  3
   1000    999   1011   2015     1  0.0000000  1.0460000  1
   1000    999   1011   2015     1  0.0000000  0.0000000  3
   1000    999   1011   1012     1  0.0000000  0.6508444  3
   1000    999   1011   1013     1  0.0000000  0.6508444  3
   1001    999   1011   2015     1  0.0000000  1.0460000  1
   1001    999   1011   2015     1  0.0000000  0.0000000  3
   1001    999   1011   1012     1  0.0000000  0.6508444  3
   1001    999   1011   1013     1  0.0000000  0.6508444  3
   1003   1002   1008   1992     1  0.0000000  1.0460000  1
   1003   1002   1008   1992     1  0.0000000  0.0000000  3
   1003   1002   1008   1009     1  0.0000000  0.6508444  3
   1003   1002   1008   1010     1  0.0000000  0.6508444  3
   1004   1002   1008   1992     1  0.0000000  1.0460000  1
   1004   1002   1008   1992     1  0.0000000  0.0000000  3
   1004   1002   1008   1009     1  0.0000000  0.6508444  3
   1004   1002   1008   1010     1  0.0000000  0.6508444  3
   1008   1992   1988   1991     1  0.0000000  1.6038667  3
   1009   1008   1992   1988     1  0.0000000  1.6038667  3
   1010   1008   1992   1988     1  0.0000000  1.6038667  3
   1011   2015   2011   2014     1  0.0000000  1.6038667  3
   1012   1011   2015   2011     1  0.0000000  1.6038667  3
   1013   1011   2015   2011     1  0.0000000  1.6038667  3
   1015   1016   1028   1029     1  0.0000000  0.6508444  3
   1015   1016   1028   1030     1  0.0000000  0.6508444  3
   1015   1019   1031   1032     1  0.0000000  0.6508444  3
   1015   1019   1031   1033     1  0.0000000  0.6508444  3
   1015   1022   1025   1026     1  0.0000000  0.6508444  3
   1015   1022   1025   1027     1  0.0000000  0.6508444  3
   1016   1015   1019   1020     1  0.0000000  1.2552000  3
   1016   1015   1019   1021     1  0.0000000  1.2552000  3
   1016   1015   1022   1023     1  0.0000000  1.2552000  3
   1016   1015   1022   1024     1  0.0000000  1.2552000  3
   1016   1028   1040   1041     1  0.0000000  0.6508444  3
   1016   1028   1040   1042     1  0.0000000  0.6508444  3
   1017   1016   1015   1019     1  0.0000000  1.2552000  3
   1017   1016   1015   1022     1  0.0000000  1.2552000  3
   1017   1016   1028   1040     1  0.0000000  0.6508444  3
   1017   1016   1028   1029     1  0.0000000  0.6508444  3
   1017   1016   1028   1030     1  0.0000000  0.6508444  3
   1018   1016   1015   1019     1  0.0000000  1.2552000  3
   1018   1016   1015   1022     1  0.0000000  1.2552000  3
   1018   1016   1028   1040     1  0.0000000  0.6508444  3
   1018   1016   1028   1029     1  0.0000000  0.6508444  3
   1018   1016   1028   1030     1  0.0000000  0.6508444  3
   1019   1015   1022   1023     1  0.0000000  1.2552000  3
   1019   1015   1022   1024     1  0.0000000  1.2552000  3
   1019   1031   1037   1038     1  0.0000000  0.6508444  3
   1019   1031   1037   1039     1  0.0000000  0.6508444  3
   1020   1019   1015   1022     1  0.0000000  1.2552000  3
   1020   1019   1031   1037     1  0.0000000  0.6508444  3
   1020   1019   1031   1032     1  0.0000000  0.6508444  3
   1020   1019   1031   1033     1  0.0000000  0.6508444  3
   1021   1019   1015   1022     1  0.0000000  1.2552000  3
   1021   1019   1031   1037     1  0.0000000  0.6508444  3
   1021   1019   1031   1032     1  0.0000000  0.6508444  3
   1021   1019   1031   1033     1  0.0000000  0.6508444  3
   1022   1025   1034   1035     1  0.0000000  0.6508444  3
   1022   1025   1034   1036     1  0.0000000  0.6508444  3
   1023   1022   1025   1034     1  0.0000000  0.6508444  3
   1023   1022   1025   1026     1  0.0000000  0.6508444  3
   1023   1022   1025   1027     1  0.0000000  0.6508444  3
   1024   1022   1025   1034     1  0.0000000  0.6508444  3
   1024   1022   1025   1026     1  0.0000000  0.6508444  3
   1024   1022   1025   1027     1  0.0000000  0.6508444  3
   1026   1025   1034   1043     1  0.0000000  1.0460000  1
   1026   1025   1034   1043     1  0.0000000  0.0000000  3
   1026   1025   1034   1035     1  0.0000000  0.6508444  3
   1026   1025   1034   1036     1  0.0000000  0.6508444  3
   1027   1025   1034   1043     1  0.0000000  1.0460000  1
   1027   1025   1034   1043     1  0.0000000  0.0000000  3
   1027   1025   1034   1035     1  0.0000000  0.6508444  3
   1027   1025   1034   1036     1  0.0000000  0.6508444  3
   1029   1028   1040   2061     1  0.0000000  1.0460000  1
   1029   1028   1040   2061     1  0.0000000  0.0000000  3
   1029   1028   1040   1041     1  0.0000000  0.6508444  3
   1029   1028   1040   1042     1  0.0000000  0.6508444  3
   1030   1028   1040   2061     1  0.0000000  1.0460000  1
   1030   1028   1040   2061     1  0.0000000  0.0000000  3
   1030   1028   1040   1041     1  0.0000000  0.6508444  3
   1030   1028   1040   1042     1  0.0000000  0.6508444  3
   1032   1031   1037   2038     1  0.0000000  1.0460000  1
   1032   1031   1037   2038     1  0.0000000  0.0000000  3
   1032   1031   1037   1038     1  0.0000000  0.6508444  3
   1032   1031   1037   1039     1  0.0000000  0.6508444  3
   1033   1031   1037   2038     1  0.0000000  1.0460000  1
   1033   1031   1037   2038     1  0.0000000  0.0000000  3
   1033   1031   1037   1038     1  0.0000000  0.6508444  3
   1033   1031   1037   1039     1  0.0000000  0.6508444  3
   1037   2038   2034   2037     1  0.0000000  1.6038667  3
   1038   1037   2038   2034     1  0.0000000  1.6038667  3
   1039   1037   2038   2034     1  0.0000000  1.6038667  3
   1040   2061   2057   2060     1  0.0000000  1.6038667  3
   1041   1040   2061   2057     1  0.0000000  1.6038667  3
   1042   1040   2061   2057     1  0.0000000  1.6038667  3
   1044   1045   1057   1058     1  0.0000000  0.6508444  3
   1044   1045   1057   1059     1  0.0000000  0.6508444  3
   1044   1048   1060   1061     1  0.0000000  0.6508444  3
   1044   1048   1060   1062     1  0.0000000  0.6508444  3
   1044   1051   1054   1055     1  0.0000000  0.6508444  3
   1044   1051   1054   1056     1  0.0000000  0.6508444  3
   1045   1044   1048   1049     1  0.0000000  1.2552000  3
   1045   1044   1048   1050     1  0.0000000  1.2552000  3
   1045   1044   1051   1052     1  0.0000000  1.2552000  3
   1045   1044   1051   1053     1  0.0000000  1.2552000  3
   1045   1057   1069   1070     1  0.0000000  0.6508444  3
   1045   1057   1069   1071     1  0.0000000  0.6508444  3
   1046   1045   1044   1048     1  0.0000000  1.2552000  3
   1046   1045   1044   1051     1  0.0000000  1.2552000  3
   1046   1045   1057   1069     1  0.0000000  0.6508444  3
   1046   1045   1057   1058     1  0.0000000  0.6508444  3
   1046   1045   1057   1059     1  0.0000000  0.6508444  3
   1047   1045   1044   1048     1  0.0000000  1.2552000  3
   1047   1045   1044   1051     1  0.0000000  1.2552000  3
   1047   1045   1057   1069     1  0.0000000  0.6508444  3
   1047   1045   1057   1058     1  0.0000000  0.6508444  3
   1047   1045   1057   1059     1  0.0000000  0.6508444  3
   1048   1044   1051   1052     1  0.0000000  1.2552000  3
   1048   1044   1051   1053     1  0.0000000  1.2552000  3
   1048   1060   1066   1067     1  0.0000000  0.6508444  3
   1048   1060   1066   1068     1  0.0000000  0.6508444  3
   1049   1048   1044   1051     1  0.0000000  1.2552000  3
   1049   1048   1060   1066     1  0.0000000  0.6508444  3
   1049   1048   1060   1061     1  0.0000000  0.6508444  3
   1049   1048   1060   1062     1  0.0000000  0.6508444  3
   1050   1048   1044   1051     1  0.0000000  1.2552000  3
   1050   1048   1060   1066     1  0.0000000  0.6508444  3
   1050   1048   1060   1061     1  0.0000000  0.6508444  3
   1050   1048   1060   1062     1  0.0000000  0.6508444  3
   1051   1054   1063   1064     1  0.0000000  0.6508444  3
   1051   1054   1063   1065     1  0.0000000  0.6508444  3
   1052   1051   1054   1063     1  0.0000000  0.6508444  3
   1052   1051   1054   1055     1  0.0000000  0.6508444  3
   1052   1051   1054   1056     1  0.0000000  0.6508444  3
   1053   1051   1054   1063     1  0.0000000  0.6508444  3
   1053   1051   1054   1055     1  0.0000000  0.6508444  3
   1053   1051   1054   1056     1  0.0000000  0.6508444  3
   1055   1054   1063   1072     1  0.0000000  1.0460000  1
   1055   1054   1063   1072     1  0.0000000  0.0000000  3
   1055   1054   1063   1064     1  0.0000000  0.6508444  3
   1055   1054   1063   1065     1  0.0000000  0.6508444  3
   1056   1054   1063   1072     1  0.0000000  1.0460000  1
   1056   1054   1063   1072     1  0.0000000  0.0000000  3
   1056   1054   1063   1064     1  0.0000000  0.6508444  3
   1056   1054   1063   1065     1  0.0000000  0.6508444  3
   1058   1057   1069   2107     1  0.0000000  1.0460000  1
   1058   1057   1069   2107     1  0.0000000  0.0000000  3
   1058   1057   1069   1070     1  0.0000000  0.6508444  3
   1058   1057   1069   1071     1  0.0000000  0.6508444  3
   1059   1057   1069   2107     1  0.0000000  1.0460000  1
   1059   1057   1069   2107     1  0.0000000  0.0000000  3
   1059   1057   1069   1070     1  0.0000000  0.6508444  3
   1059   1057   1069   1071     1  0.0000000  0.6508444  3
   1061   1060   1066   2084     1  0.0000000  1.0460000  1
   1061   1060   1066   2084     1  0.0000000  0.0000000  3
   1061   1060   1066   1067     1  0.0000000  0.6508444  3
   1061   1060   1066   1068     1  0.0000000  0.6508444  3
   1062   1060   1066   2084     1  0.0000000  1.0460000  1
   1062   1060   1066   2084     1  0.0000000  0.0000000  3
   1062   1060   1066   1067     1  0.0000000  0.6508444  3
   1062   1060   1066   1068     1  0.0000000  0.6508444  3
   1066   2084   2080   2083     1  0.0000000  1.6038667  3
   1067   1066   2084   2080     1  0.0000000  1.6038667  3
   1068   1066   2084   2080     1  0.0000000  1.6038667  3
   1069   2107   2103   2106     1  0.0000000  1.6038667  3
   1070   1069   2107   2103     1  0.0000000  1.6038667  3
   1071   1069   2107   2103     1  0.0000000  1.6038667  3
   1073   1074   1086   1087     1  0.0000000  0.6508444  3
   1073   1074   1086   1088     1  0.0000000  0.6508444  3
   1073   1077   1089   1090     1  0.0000000  0.6508444  3
   1073   1077   1089   1091     1  0.0000000  0.6508444  3
   1073   1080   1083   1084     1  0.0000000  0.6508444  3
   1073   1080   1083   1085     1  0.0000000  0.6508444  3
   1074   1073   1077   1078     1  0.0000000  1.2552000  3
   1074   1073   1077   1079     1  0.0000000  1.2552000  3
   1074   1073   1080   1081     1  0.0000000  1.2552000  3
   1074   1073   1080   1082     1  0.0000000  1.2552000  3
   1074   1086   1098   1099     1  0.0000000  0.6508444  3
   1074   1086   1098   1100     1  0.0000000  0.6508444  3
   1075   1074   1073   1077     1  0.0000000  1.2552000  3
   1075   1074   1073   1080     1  0.0000000  1.2552000  3
   1075   1074   1086   1098     1  0.0000000  0.6508444  3
   1075   1074   1086   1087     1  0.0000000  0.6508444  3
   1075   1074   1086   1088     1  0.0000000  0.6508444  3
   1076   1074   1073   1077     1  0.0000000  1.2552000  3
   1076   1074   1073   1080     1  0.0000000  1.2552000  3
   1076   1074   1086   1098     1  0.0000000  0.6508444  3
   1076   1074   1086   1087     1  0.0000000  0.6508444  3
   1076   1074   1086   1088     1  0.0000000  0.6508444  3
   1077   1073   1080   1081     1  0.0000000  1.2552000  3
   1077   1073   1080   1082     1  0.0000000  1.2552000  3
   1077   1089   1095   1096     1  0.0000000  0.6508444  3
   1077   1089   1095   1097     1  0.0000000  0.6508444  3
   1078   1077   1073   1080     1  0.0000000  1.2552000  3
   1078   1077   1089   1095     1  0.0000000  0.6508444  3
   1078   1077   1089   1090     1  0.0000000  0.6508444  3
   1078   1077   1089   1091     1  0.0000000  0.6508444  3
   1079   1077   1073   1080     1  0.0000000  1.2552000  3
   1079   1077   1089   1095     1  0.0000000  0.6508444  3
   1079   1077   1089   1090     1  0.0000000  0.6508444  3
   1079   1077   1089   1091     1  0.0000000  0.6508444  3
   1080   1083   1092   1093     1  0.0000000  0.6508444  3
   1080   1083   1092   1094     1  0.0000000  0.6508444  3
   1081   1080   1083   1092     1  0.0000000  0.6508444  3
   1081   1080   1083   1084     1  0.0000000  0.6508444  3
   1081   1080   1083   1085     1  0.0000000  0.6508444  3
   1082   1080   1083   1092     1  0.0000000  0.6508444  3
   1082   1080   1083   1084     1  0.0000000  0.6508444  3
   1082   1080   1083   1085     1  0.0000000  0.6508444  3
   1084   1083   1092   1101     1  0.0000000  1.0460000  1
   1084   1083   1092   1101     1  0.0000000  0.0000000  3
   1084   1083   1092   1093     1  0.0000000  0.6508444  3
   1084   1083   1092   1094     1  0.0000000  0.6508444  3
   1085   1083   1092   1101     1  0.0000000  1.0460000  1
   1085   1083   1092   1101     1  0.0000000  0.0000000  3
   1085   1083   1092   1093     1  0.0000000  0.6508444  3
   1085   1083   1092   1094     1  0.0000000  0.6508444  3
   1087   1086   1098   2153     1  0.0000000  1.0460000  1
   1087   1086   1098   2153     1  0.0000000  0.0000000  3
   1087   1086   1098   1099     1  0.0000000  0.6508444  3
   1087   1086   1098   1100     1  0.0000000  0.6508444  3
   1088   1086   1098   2153     1  0.0000000  1.0460000  1
   1088   1086   1098   2153     1  0.0000000  0.0000000  3
   1088   1086   1098   1099     1  0.0000000  0.6508444  3
   1088   1086   1098   1100     1  0.0000000  0.6508444  3
   1090   1089   1095   2130     1  0.0000000  1.0460000  1
   1090   1089   1095   2130     1  0.0000000  0.0000000  3
   1090   1089   1095   1096     1  0.0000000  0.6508444  3
   1090   1089   1095   1097     1  0.0000000  0.6508444  3
   1091   1089   1095   2130     1  0.0000000  1.0460000  1
   1091   1089   1095   2130     1  0.0000000  0.0000000  3
   1091   1089   1095   1096     1  0.0000000  0.6508444  3
   1091   1089   1095   1097     1  0.0000000  0.6508444  3
   1095   2130   2126   2129     1  0.0000000  1.6038667  3
   1096   1095   2130   2126     1  0.0000000  1.6038667  3
   1097   1095   2130   2126     1  0.0000000  1.6038667  3
   1098   2153   2149   2152     1  0.0000000  1.6038667  3
   1099   1098   2153   2149     1  0.0000000  1.6038667  3
   1100   1098   2153   2149     1  0.0000000  1.6038667  3
   1102   1103   1115   1116     1  0.0000000  0.6508444  3
   1102   1103   1115   1117     1  0.0000000  0.6508444  3
   1102   1106   1118   1119     1  0.0000000  0.6508444  3
   1102   1106   1118   1120     1  0.0000000  0.6508444  3
   1102   1109   1112   1113     1  0.0000000  0.6508444  3
   1102   1109   1112   1114     1  0.0000000  0.6508444  3
   1103   1102   1106   1107     1  0.0000000  1.2552000  3
   1103   1102   1106   1108     1  0.0000000  1.2552000  3
   1103   1102   1109   1110     1  0.0000000  1.2552000  3
   1103   1102   1109   1111     1  0.0000000  1.2552000  3
   1103   1115   1127   1128     1  0.0000000  0.6508444  3
   1103   1115   1127   1129     1  0.0000000  0.6508444  3
   1104   1103   1102   1106     1  0.0000000  1.2552000  3
   1104   1103   1102   1109     1  0.0000000  1.2552000  3
   1104   1103   1115   1127     1  0.0000000  0.6508444  3
   1104   1103   1115   1116     1  0.0000000  0.6508444  3
   1104   1103   1115   1117     1  0.0000000  0.6508444  3
   1105   1103   1102   1106     1  0.0000000  1.2552000  3
   1105   1103   1102   1109     1  0.0000000  1.2552000  3
   1105   1103   1115   1127     1  0.0000000  0.6508444  3
   1105   1103   1115   1116     1  0.0000000  0.6508444  3
   1105   1103   1115   1117     1  0.0000000  0.6508444  3
   1106   1102   1109   1110     1  0.0000000  1.2552000  3
   1106   1102   1109   1111     1  0.0000000  1.2552000  3
   1106   1118   1124   1125     1  0.0000000  0.6508444  3
   1106   1118   1124   1126     1  0.0000000  0.6508444  3
   1107   1106   1102   1109     1  0.0000000  1.2552000  3
   1107   1106   1118   1124     1  0.0000000  0.6508444  3
   1107   1106   1118   1119     1  0.0000000  0.6508444  3
   1107   1106   1118   1120     1  0.0000000  0.6508444  3
   1108   1106   1102   1109     1  0.0000000  1.2552000  3
   1108   1106   1118   1124     1  0.0000000  0.6508444  3
   1108   1106   1118   1119     1  0.0000000  0.6508444  3
   1108   1106   1118   1120     1  0.0000000  0.6508444  3
   1109   1112   1121   1122     1  0.0000000  0.6508444  3
   1109   1112   1121   1123     1  0.0000000  0.6508444  3
   1110   1109   1112   1121     1  0.0000000  0.6508444  3
   1110   1109   1112   1113     1  0.0000000  0.6508444  3
   1110   1109   1112   1114     1  0.0000000  0.6508444  3
   1111   1109   1112   1121     1  0.0000000  0.6508444  3
   1111   1109   1112   1113     1  0.0000000  0.6508444  3
   1111   1109   1112   1114     1  0.0000000  0.6508444  3
   1113   1112   1121   1130     1  0.0000000  1.0460000  1
   1113   1112   1121   1130     1  0.0000000  0.0000000  3
   1113   1112   1121   1122     1  0.0000000  0.6508444  3
   1113   1112   1121   1123     1  0.0000000  0.6508444  3
   1114   1112   1121   1130     1  0.0000000  1.0460000  1
   1114   1112   1121   1130     1  0.0000000  0.0000000  3
   1114   1112   1121   1122     1  0.0000000  0.6508444  3
   1114   1112   1121   1123     1  0.0000000  0.6508444  3
   1116   1115   1127   2199     1  0.0000000  1.0460000  1
   1116   1115   1127   2199     1  0.0000000  0.0000000  3
   1116   1115   1127   1128     1  0.0000000  0.6508444  3
   1116   1115   1127   1129     1  0.0000000  0.6508444  3
   1117   1115   1127   2199     1  0.0000000  1.0460000  1
   1117   1115   1127   2199     1  0.0000000  0.0000000  3
   1117   1115   1127   1128     1  0.0000000  0.6508444  3
   1117   1115   1127   1129     1  0.0000000  0.6508444  3
   1119   1118   1124   2176     1  0.0000000  1.0460000  1
   1119   1118   1124   2176     1  0.0000000  0.0000000  3
   1119   1118   1124   1125     1  0.0000000  0.6508444  3
   1119   1118   1124   1126     1  0.0000000  0.6508444  3
   1120   1118   1124   2176     1  0.0000000  1.0460000  1
   1120   1118   1124   2176     1  0.0000000  0.0000000  3
   1120   1118   1124   1125     1  0.0000000  0.6508444  3
   1120   1118   1124   1126     1  0.0000000  0.6508444  3
   1124   2176   2172   2175     1  0.0000000  1.6038667  3
   1125   1124   2176   2172     1  0.0000000  1.6038667  3
   1126   1124   2176   2172     1  0.0000000  1.6038667  3
   1127   2199   2195   2198     1  0.0000000  1.6038667  3
   1128   1127   2199   2195     1  0.0000000  1.6038667  3
   1129   1127   2199   2195     1  0.0000000  1.6038667  3
   1131   1132   1144   1145     1  0.0000000  0.6508444  3
   1131   1132   1144   1146     1  0.0000000  0.6508444  3
   1131   1135   1147   1148     1  0.0000000  0.6508444  3
   1131   1135   1147   1149     1  0.0000000  0.6508444  3
   1131   1138   1141   1142     1  0.0000000  0.6508444  3
   1131   1138   1141   1143     1  0.0000000  0.6508444  3
   1132   1131   1135   1136     1  0.0000000  1.2552000  3
   1132   1131   1135   1137     1  0.0000000  1.2552000  3
   1132   1131   1138   1139     1  0.0000000  1.2552000  3
   1132   1131   1138   1140     1  0.0000000  1.2552000  3
   1132   1144   1156   1157     1  0.0000000  0.6508444  3
   1132   1144   1156   1158     1  0.0000000  0.6508444  3
   1133   1132   1131   1135     1  0.0000000  1.2552000  3
   1133   1132   1131   1138     1  0.0000000  1.2552000  3
   1133   1132   1144   1156     1  0.0000000  0.6508444  3
   1133   1132   1144   1145     1  0.0000000  0.6508444  3
   1133   1132   1144   1146     1  0.0000000  0.6508444  3
   1134   1132   1131   1135     1  0.0000000  1.2552000  3
   1134   1132   1131   1138     1  0.0000000  1.2552000  3
   1134   1132   1144   1156     1  0.0000000  0.6508444  3
   1134   1132   1144   1145     1  0.0000000  0.6508444  3
   1134   1132   1144   1146     1  0.0000000  0.6508444  3
   1135   1131   1138   1139     1  0.0000000  1.2552000  3
   1135   1131   1138   1140     1  0.0000000  1.2552000  3
   1135   1147   1153   1154     1  0.0000000  0.6508444  3
   1135   1147   1153   1155     1  0.0000000  0.6508444  3
   1136   1135   1131   1138     1  0.0000000  1.2552000  3
   1136   1135   1147   1153     1  0.0000000  0.6508444  3
   1136   1135   1147   1148     1  0.0000000  0.6508444  3
   1136   1135   1147   1149     1  0.0000000  0.6508444  3
   1137   1135   1131   1138     1  0.0000000  1.2552000  3
   1137   1135   1147   1153     1  0.0000000  0.6508444  3
   1137   1135   1147   1148     1  0.0000000  0.6508444  3
   1137   1135   1147   1149     1  0.0000000  0.6508444  3
   1138   1141   1150   1151     1  0.0000000  0.6508444  3
   1138   1141   1150   1152     1  0.0000000  0.6508444  3
   1139   1138   1141   1150     1  0.0000000  0.6508444  3
   1139   1138   1141   1142     1  0.0000000  0.6508444  3
   1139   1138   1141   1143     1  0.0000000  0.6508444  3
   1140   1138   1141   1150     1  0.0000000  0.6508444  3
   1140   1138   1141   1142     1  0.0000000  0.6508444  3
   1140   1138   1141   1143     1  0.0000000  0.6508444  3
   1142   1141   1150   1159     1  0.0000000  1.0460000  1
   1142   1141   1150   1159     1  0.0000000  0.0000000  3
   1142   1141   1150   1151     1  0.0000000  0.6508444  3
   1142   1141   1150   1152     1  0.0000000  0.6508444  3
   1143   1141   1150   1159     1  0.0000000  1.0460000  1
   1143   1141   1150   1159     1  0.0000000  0.0000000  3
   1143   1141   1150   1151     1  0.0000000  0.6508444  3
   1143   1141   1150   1152     1  0.0000000  0.6508444  3
   1145   1144   1156   2245     1  0.0000000  1.0460000  1
   1145   1144   1156   2245     1  0.0000000  0.0000000  3
   1145   1144   1156   1157     1  0.0000000  0.6508444  3
   1145   1144   1156   1158     1  0.0000000  0.6508444  3
   1146   1144   1156   2245     1  0.0000000  1.0460000  1
   1146   1144   1156   2245     1  0.0000000  0.0000000  3
   1146   1144   1156   1157     1  0.0000000  0.6508444  3
   1146   1144   1156   1158     1  0.0000000  0.6508444  3
   1148   1147   1153   2222     1  0.0000000  1.0460000  1
   1148   1147   1153   2222     1  0.0000000  0.0000000  3
   1148   1147   1153   1154     1  0.0000000  0.6508444  3
   1148   1147   1153   1155     1  0.0000000  0.6508444  3
   1149   1147   1153   2222     1  0.0000000  1.0460000  1
   1149   1147   1153   2222     1  0.0000000  0.0000000  3
   1149   1147   1153   1154     1  0.0000000  0.6508444  3
   1149   1147   1153   1155     1  0.0000000  0.6508444  3
   1153   2222   2218   2221     1  0.0000000  1.6038667  3
   1154   1153   2222   2218     1  0.0000000  1.6038667  3
   1155   1153   2222   2218     1  0.0000000  1.6038667  3
   1156   2245   2241   2244     1  0.0000000  1.6038667  3
   1157   1156   2245   2241     1  0.0000000  1.6038667  3
   1158   1156   2245   2241     1  0.0000000  1.6038667  3
   1160   1161   1173   1174     1  0.0000000  0.6508444  3
   1160   1161   1173   1175     1  0.0000000  0.6508444  3
   1160   1164   1176   1177     1  0.0000000  0.6508444  3
   1160   1164   1176   1178     1  0.0000000  0.6508444  3
   1160   1167   1170   1171     1  0.0000000  0.6508444  3
   1160   1167   1170   1172     1  0.0000000  0.6508444  3
   1161   1160   1164   1165     1  0.0000000  1.2552000  3
   1161   1160   1164   1166     1  0.0000000  1.2552000  3
   1161   1160   1167   1168     1  0.0000000  1.2552000  3
   1161   1160   1167   1169     1  0.0000000  1.2552000  3
   1161   1173   1185   1186     1  0.0000000  0.6508444  3
   1161   1173   1185   1187     1  0.0000000  0.6508444  3
   1162   1161   1160   1164     1  0.0000000  1.2552000  3
   1162   1161   1160   1167     1  0.0000000  1.2552000  3
   1162   1161   1173   1185     1  0.0000000  0.6508444  3
   1162   1161   1173   1174     1  0.0000000  0.6508444  3
   1162   1161   1173   1175     1  0.0000000  0.6508444  3
   1163   1161   1160   1164     1  0.0000000  1.2552000  3
   1163   1161   1160   1167     1  0.0000000  1.2552000  3
   1163   1161   1173   1185     1  0.0000000  0.6508444  3
   1163   1161   1173   1174     1  0.0000000  0.6508444  3
   1163   1161   1173   1175     1  0.0000000  0.6508444  3
   1164   1160   1167   1168     1  0.0000000  1.2552000  3
   1164   1160   1167   1169     1  0.0000000  1.2552000  3
   1164   1176   1182   1183     1  0.0000000  0.6508444  3
   1164   1176   1182   1184     1  0.0000000  0.6508444  3
   1165   1164   1160   1167     1  0.0000000  1.2552000  3
   1165   1164   1176   1182     1  0.0000000  0.6508444  3
   1165   1164   1176   1177     1  0.0000000  0.6508444  3
   1165   1164   1176   1178     1  0.0000000  0.6508444  3
   1166   1164   1160   1167     1  0.0000000  1.2552000  3
   1166   1164   1176   1182     1  0.0000000  0.6508444  3
   1166   1164   1176   1177     1  0.0000000  0.6508444  3
   1166   1164   1176   1178     1  0.0000000  0.6508444  3
   1167   1170   1179   1180     1  0.0000000  0.6508444  3
   1167   1170   1179   1181     1  0.0000000  0.6508444  3
   1168   1167   1170   1179     1  0.0000000  0.6508444  3
   1168   1167   1170   1171     1  0.0000000  0.6508444  3
   1168   1167   1170   1172     1  0.0000000  0.6508444  3
   1169   1167   1170   1179     1  0.0000000  0.6508444  3
   1169   1167   1170   1171     1  0.0000000  0.6508444  3
   1169   1167   1170   1172     1  0.0000000  0.6508444  3
   1171   1170   1179   1188     1  0.0000000  1.0460000  1
   1171   1170   1179   1188     1  0.0000000  0.0000000  3
   1171   1170   1179   1180     1  0.0000000  0.6508444  3
   1171   1170   1179   1181     1  0.0000000  0.6508444  3
   1172   1170   1179   1188     1  0.0000000  1.0460000  1
   1172   1170   1179   1188     1  0.0000000  0.0000000  3
   1172   1170   1179   1180     1  0.0000000  0.6508444  3
   1172   1170   1179   1181     1  0.0000000  0.6508444  3
   1174   1173   1185   2291     1  0.0000000  1.0460000  1
   1174   1173   1185   2291     1  0.0000000  0.0000000  3
   1174   1173   1185   1186     1  0.0000000  0.6508444  3
   1174   1173   1185   1187     1  0.0000000  0.6508444  3
   1175   1173   1185   2291     1  0.0000000  1.0460000  1
   1175   1173   1185   2291     1  0.0000000  0.0000000  3
   1175   1173   1185   1186     1  0.0000000  0.6508444  3
   1175   1173   1185   1187     1  0.0000000  0.6508444  3
   1177   1176   1182   2268     1  0.0000000  1.0460000  1
   1177   1176   1182   2268     1  0.0000000  0.0000000  3
   1177   1176   1182   1183     1  0.0000000  0.6508444  3
   1177   1176   1182   1184     1  0.0000000  0.6508444  3
   1178   1176   1182   2268     1  0.0000000  1.0460000  1
   1178   1176   1182   2268     1  0.0000000  0.0000000  3
   1178   1176   1182   1183     1  0.0000000  0.6508444  3
   1178   1176   1182   1184     1  0.0000000  0.6508444  3
   1182   2268   2264   2267     1  0.0000000  1.6038667  3
   1183   1182   2268   2264     1  0.0000000  1.6038667  3
   1184   1182   2268   2264     1  0.0000000  1.6038667  3
   1185   2291   2287   2290     1  0.0000000  1.6038667  3
   1186   1185   2291   2287     1  0.0000000  1.6038667  3
   1187   1185   2291   2287     1  0.0000000  1.6038667  3
   1189   1190   1202   1203     1  0.0000000  0.6508444  3
   1189   1190   1202   1204     1  0.0000000  0.6508444  3
   1189   1193   1205   1206     1  0.0000000  0.6508444  3
   1189   1193   1205   1207     1  0.0000000  0.6508444  3
   1189   1196   1199   1200     1  0.0000000  0.6508444  3
   1189   1196   1199   1201     1  0.0000000  0.6508444  3
   1190   1189   1193   1194     1  0.0000000  1.2552000  3
   1190   1189   1193   1195     1  0.0000000  1.2552000  3
   1190   1189   1196   1197     1  0.0000000  1.2552000  3
   1190   1189   1196   1198     1  0.0000000  1.2552000  3
   1190   1202   1214   1215     1  0.0000000  0.6508444  3
   1190   1202   1214   1216     1  0.0000000  0.6508444  3
   1191   1190   1189   1193     1  0.0000000  1.2552000  3
   1191   1190   1189   1196     1  0.0000000  1.2552000  3
   1191   1190   1202   1214     1  0.0000000  0.6508444  3
   1191   1190   1202   1203     1  0.0000000  0.6508444  3
   1191   1190   1202   1204     1  0.0000000  0.6508444  3
   1192   1190   1189   1193     1  0.0000000  1.2552000  3
   1192   1190   1189   1196     1  0.0000000  1.2552000  3
   1192   1190   1202   1214     1  0.0000000  0.6508444  3
   1192   1190   1202   1203     1  0.0000000  0.6508444  3
   1192   1190   1202   1204     1  0.0000000  0.6508444  3
   1193   1189   1196   1197     1  0.0000000  1.2552000  3
   1193   1189   1196   1198     1  0.0000000  1.2552000  3
   1193   1205   1211   1212     1  0.0000000  0.6508444  3
   1193   1205   1211   1213     1  0.0000000  0.6508444  3
   1194   1193   1189   1196     1  0.0000000  1.2552000  3
   1194   1193   1205   1211     1  0.0000000  0.6508444  3
   1194   1193   1205   1206     1  0.0000000  0.6508444  3
   1194   1193   1205   1207     1  0.0000000  0.6508444  3
   1195   1193   1189   1196     1  0.0000000  1.2552000  3
   1195   1193   1205   1211     1  0.0000000  0.6508444  3
   1195   1193   1205   1206     1  0.0000000  0.6508444  3
   1195   1193   1205   1207     1  0.0000000  0.6508444  3
   1196   1199   1208   1209     1  0.0000000  0.6508444  3
   1196   1199   1208   1210     1  0.0000000  0.6508444  3
   1197   1196   1199   1208     1  0.0000000  0.6508444  3
   1197   1196   1199   1200     1  0.0000000  0.6508444  3
   1197   1196   1199   1201     1  0.0000000  0.6508444  3
   1198   1196   1199   1208     1  0.0000000  0.6508444  3
   1198   1196   1199   1200     1  0.0000000  0.6508444  3
   1198   1196   1199   1201     1  0.0000000  0.6508444  3
   1200   1199   1208   1217     1  0.0000000  1.0460000  1
   1200   1199   1208   1217     1  0.0000000  0.0000000  3
   1200   1199   1208   1209     1  0.0000000  0.6508444  3
   1200   1199   1208   1210     1  0.0000000  0.6508444  3
   1201   1199   1208   1217     1  0.0000000  1.0460000  1
   1201   1199   1208   1217     1  0.0000000  0.0000000  3
   1201   1199   1208   1209     1  0.0000000  0.6508444  3
   1201   1199   1208   1210     1  0.0000000  0.6508444  3
   1203   1202   1214   2337     1  0.0000000  1.0460000  1
   1203   1202   1214   2337     1  0.0000000  0.0000000  3
   1203   1202   1214   1215     1  0.0000000  0.6508444  3
   1203   1202   1214   1216     1  0.0000000  0.6508444  3
   1204   1202   1214   2337     1  0.0000000  1.0460000  1
   1204   1202   1214   2337     1  0.0000000  0.0000000  3
   1204   1202   1214   1215     1  0.0000000  0.6508444  3
   1204   1202   1214   1216     1  0.0000000  0.6508444  3
   1206   1205   1211   2314     1  0.0000000  1.0460000  1
   1206   1205   1211   2314     1  0.0000000  0.0000000  3
   1206   1205   1211   1212     1  0.0000000  0.6508444  3
   1206   1205   1211   1213     1  0.0000000  0.6508444  3
   1207   1205   1211   2314     1  0.0000000  1.0460000  1
   1207   1205   1211   2314     1  0.0000000  0.0000000  3
   1207   1205   1211   1212     1  0.0000000  0.6508444  3
   1207   1205   1211   1213     1  0.0000000  0.6508444  3
   1211   2314   2310   2313     1  0.0000000  1.6038667  3
   1212   1211   2314   2310     1  0.0000000  1.6038667  3
   1213   1211   2314   2310     1  0.0000000  1.6038667  3
   1214   2337   2333   2336     1  0.0000000  1.6038667  3
   1215   1214   2337   2333     1  0.0000000  1.6038667  3
   1216   1214   2337   2333     1  0.0000000  1.6038667  3
   1218   1219   1231   1232     1  0.0000000  0.6508444  3
   1218   1219   1231   1233     1  0.0000000  0.6508444  3
   1218   1222   1234   1235     1  0.0000000  0.6508444  3
   1218   1222   1234   1236     1  0.0000000  0.6508444  3
   1218   1225   1228   1229     1  0.0000000  0.6508444  3
   1218   1225   1228   1230     1  0.0000000  0.6508444  3
   1219   1218   1222   1223     1  0.0000000  1.2552000  3
   1219   1218   1222   1224     1  0.0000000  1.2552000  3
   1219   1218   1225   1226     1  0.0000000  1.2552000  3
   1219   1218   1225   1227     1  0.0000000  1.2552000  3
   1219   1231   1243   1244     1  0.0000000  0.6508444  3
   1219   1231   1243   1245     1  0.0000000  0.6508444  3
   1220   1219   1218   1222     1  0.0000000  1.2552000  3
   1220   1219   1218   1225     1  0.0000000  1.2552000  3
   1220   1219   1231   1243     1  0.0000000  0.6508444  3
   1220   1219   1231   1232     1  0.0000000  0.6508444  3
   1220   1219   1231   1233     1  0.0000000  0.6508444  3
   1221   1219   1218   1222     1  0.0000000  1.2552000  3
   1221   1219   1218   1225     1  0.0000000  1.2552000  3
   1221   1219   1231   1243     1  0.0000000  0.6508444  3
   1221   1219   1231   1232     1  0.0000000  0.6508444  3
   1221   1219   1231   1233     1  0.0000000  0.6508444  3
   1222   1218   1225   1226     1  0.0000000  1.2552000  3
   1222   1218   1225   1227     1  0.0000000  1.2552000  3
   1222   1234   1240   1241     1  0.0000000  0.6508444  3
   1222   1234   1240   1242     1  0.0000000  0.6508444  3
   1223   1222   1218   1225     1  0.0000000  1.2552000  3
   1223   1222   1234   1240     1  0.0000000  0.6508444  3
   1223   1222   1234   1235     1  0.0000000  0.6508444  3
   1223   1222   1234   1236     1  0.0000000  0.6508444  3
   1224   1222   1218   1225     1  0.0000000  1.2552000  3
   1224   1222   1234   1240     1  0.0000000  0.6508444  3
   1224   1222   1234   1235     1  0.0000000  0.6508444  3
   1224   1222   1234   1236     1  0.0000000  0.6508444  3
   1225   1228   1237   1238     1  0.0000000  0.6508444  3
   1225   1228   1237   1239     1  0.0000000  0.6508444  3
   1226   1225   1228   1237     1  0.0000000  0.6508444  3
   1226   1225   1228   1229     1  0.0000000  0.6508444  3
   1226   1225   1228   1230     1  0.0000000  0.6508444  3
   1227   1225   1228   1237     1  0.0000000  0.6508444  3
   1227   1225   1228   1229     1  0.0000000  0.6508444  3
   1227   1225   1228   1230     1  0.0000000  0.6508444  3
   1229   1228   1237   1246     1  0.0000000  1.0460000  1
   1229   1228   1237   1246     1  0.0000000  0.0000000  3
   1229   1228   1237   1238     1  0.0000000  0.6508444  3
   1229   1228   1237   1239     1  0.0000000  0.6508444  3
   1230   1228   1237   1246     1  0.0000000  1.0460000  1
   1230   1228   1237   1246     1  0.0000000  0.0000000  3
   1230   1228   1237   1238     1  0.0000000  0.6508444  3
   1230   1228   1237   1239     1  0.0000000  0.6508444  3
   1232   1231   1243   2383     1  0.0000000  1.0460000  1
   1232   1231   1243   2383     1  0.0000000  0.0000000  3
   1232   1231   1243   1244     1  0.0000000  0.6508444  3
   1232   1231   1243   1245     1  0.0000000  0.6508444  3
   1233   1231   1243   2383     1  0.0000000  1.0460000  1
   1233   1231   1243   2383     1  0.0000000  0.0000000  3
   1233   1231   1243   1244     1  0.0000000  0.6508444  3
   1233   1231   1243   1245     1  0.0000000  0.6508444  3
   1235   1234   1240   2360     1  0.0000000  1.0460000  1
   1235   1234   1240   2360     1  0.0000000  0.0000000  3
   1235   1234   1240   1241     1  0.0000000  0.6508444  3
   1235   1234   1240   1242     1  0.0000000  0.6508444  3
   1236   1234   1240   2360     1  0.0000000  1.0460000  1
   1236   1234   1240   2360     1  0.0000000  0.0000000  3
   1236   1234   1240   1241     1  0.0000000  0.6508444  3
   1236   1234   1240   1242     1  0.0000000  0.6508444  3
   1240   2360   2356   2359     1  0.0000000  1.6038667  3
   1241   1240   2360   2356     1  0.0000000  1.6038667  3
   1242   1240   2360   2356     1  0.0000000  1.6038667  3
   1243   2383   2379   2382     1  0.0000000  1.6038667  3
   1244   1243   2383   2379     1  0.0000000  1.6038667  3
   1245   1243   2383   2379     1  0.0000000  1.6038667  3
   1247   1248   1260   1261     1  0.0000000  0.6508444  3
   1247   1248   1260   1262     1  0.0000000  0.6508444  3
   1247   1251   1263   1264     1  0.0000000  0.6508444  3
   1247   1251   1263   1265     1  0.0000000  0.6508444  3
   1247   1254   1257   1258     1  0.0000000  0.6508444  3
   1247   1254   1257   1259     1  0.0000000  0.6508444  3
   1248   1247   1251   1252     1  0.0000000  1.2552000  3
   1248   1247   1251   1253     1  0.0000000  1.2552000  3
   1248   1247   1254   1255     1  0.0000000  1.2552000  3
   1248   1247   1254   1256     1  0.0000000  1.2552000  3
   1248   1260   1272   1273     1  0.0000000  0.6508444  3
   1248   1260   1272   1274     1  0.0000000  0.6508444  3
   1249   1248   1247   1251     1  0.0000000  1.2552000  3
   1249   1248   1247   1254     1  0.0000000  1.2552000  3
   1249   1248   1260   1272     1  0.0000000  0.6508444  3
   1249   1248   1260   1261     1  0.0000000  0.6508444  3
   1249   1248   1260   1262     1  0.0000000  0.6508444  3
   1250   1248   1247   1251     1  0.0000000  1.2552000  3
   1250   1248   1247   1254     1  0.0000000  1.2552000  3
   1250   1248   1260   1272     1  0.0000000  0.6508444  3
   1250   1248   1260   1261     1  0.0000000  0.6508444  3
   1250   1248   1260   1262     1  0.0000000  0.6508444  3
   1251   1247   1254   1255     1  0.0000000  1.2552000  3
   1251   1247   1254   1256     1  0.0000000  1.2552000  3
   1251   1263   1269   1270     1  0.0000000  0.6508444  3
   1251   1263   1269   1271     1  0.0000000  0.6508444  3
   1252   1251   1247   1254     1  0.0000000  1.2552000  3
   1252   1251   1263   1269     1  0.0000000  0.6508444  3
   1252   1251   1263   1264     1  0.0000000  0.6508444  3
   1252   1251   1263   1265     1  0.0000000  0.6508444  3
   1253   1251   1247   1254     1  0.0000000  1.2552000  3
   1253   1251   1263   1269     1  0.0000000  0.6508444  3
   1253   1251   1263   1264     1  0.0000000  0.6508444  3
   1253   1251   1263   1265     1  0.0000000  0.6508444  3
   1254   1257   1266   1267     1  0.0000000  0.6508444  3
   1254   1257   1266   1268     1  0.0000000  0.6508444  3
   1255   1254   1257   1266     1  0.0000000  0.6508444  3
   1255   1254   1257   1258     1  0.0000000  0.6508444  3
   1255   1254   1257   1259     1  0.0000000  0.6508444  3
   1256   1254   1257   1266     1  0.0000000  0.6508444  3
   1256   1254   1257   1258     1  0.0000000  0.6508444  3
   1256   1254   1257   1259     1  0.0000000  0.6508444  3
   1258   1257   1266   1275     1  0.0000000  1.0460000  1
   1258   1257   1266   1275     1  0.0000000  0.0000000  3
   1258   1257   1266   1267     1  0.0000000  0.6508444  3
   1258   1257   1266   1268     1  0.0000000  0.6508444  3
   1259   1257   1266   1275     1  0.0000000  1.0460000  1
   1259   1257   1266   1275     1  0.0000000  0.0000000  3
   1259   1257   1266   1267     1  0.0000000  0.6508444  3
   1259   1257   1266   1268     1  0.0000000  0.6508444  3
   1261   1260   1272   2429     1  0.0000000  1.0460000  1
   1261   1260   1272   2429     1  0.0000000  0.0000000  3
   1261   1260   1272   1273     1  0.0000000  0.6508444  3
   1261   1260   1272   1274     1  0.0000000  0.6508444  3
   1262   1260   1272   2429     1  0.0000000  1.0460000  1
   1262   1260   1272   2429     1  0.0000000  0.0000000  3
   1262   1260   1272   1273     1  0.0000000  0.6508444  3
   1262   1260   1272   1274     1  0.0000000  0.6508444  3
   1264   1263   1269   2406     1  0.0000000  1.0460000  1
   1264   1263   1269   2406     1  0.0000000  0.0000000  3
   1264   1263   1269   1270     1  0.0000000  0.6508444  3
   1264   1263   1269   1271     1  0.0000000  0.6508444  3
   1265   1263   1269   2406     1  0.0000000  1.0460000  1
   1265   1263   1269   2406     1  0.0000000  0.0000000  3
   1265   1263   1269   1270     1  0.0000000  0.6508444  3
   1265   1263   1269   1271     1  0.0000000  0.6508444  3
   1269   2406   2402   2405     1  0.0000000  1.6038667  3
   1270   1269   2406   2402     1  0.0000000  1.6038667  3
   1271   1269   2406   2402     1  0.0000000  1.6038667  3
   1272   2429   2425   2428     1  0.0000000  1.6038667  3
   1273   1272   2429   2425     1  0.0000000  1.6038667  3
   1274   1272   2429   2425     1  0.0000000  1.6038667  3
   1276   1277   1289   1290     1  0.0000000  0.6508444  3
   1276   1277   1289   1291     1  0.0000000  0.6508444  3
   1276   1280   1292   1293     1  0.0000000  0.6508444  3
   1276   1280   1292   1294     1  0.0000000  0.6508444  3
   1276   1283   1286   1287     1  0.0000000  0.6508444  3
   1276   1283   1286   1288     1  0.0000000  0.6508444  3
   1277   1276   1280   1281     1  0.0000000  1.2552000  3
   1277   1276   1280   1282     1  0.0000000  1.2552000  3
   1277   1276   1283   1284     1  0.0000000  1.2552000  3
   1277   1276   1283   1285     1  0.0000000  1.2552000  3
   1277   1289   1301   1302     1  0.0000000  0.6508444  3
   1277   1289   1301   1303     1  0.0000000  0.6508444  3
   1278   1277   1276   1280     1  0.0000000  1.2552000  3
   1278   1277   1276   1283     1  0.0000000  1.2552000  3
   1278   1277   1289   1301     1  0.0000000  0.6508444  3
   1278   1277   1289   1290     1  0.0000000  0.6508444  3
   1278   1277   1289   1291     1  0.0000000  0.6508444  3
   1279   1277   1276   1280     1  0.0000000  1.2552000  3
   1279   1277   1276   1283     1  0.0000000  1.2552000  3
   1279   1277   1289   1301     1  0.0000000  0.6508444  3
   1279   1277   1289   1290     1  0.0000000  0.6508444  3
   1279   1277   1289   1291     1  0.0000000  0.6508444  3
   1280   1276   1283   1284     1  0.0000000  1.2552000  3
   1280   1276   1283   1285     1  0.0000000  1.2552000  3
   1280   1292   1298   1299     1  0.0000000  0.6508444  3
   1280   1292   1298   1300     1  0.0000000  0.6508444  3
   1281   1280   1276   1283     1  0.0000000  1.2552000  3
   1281   1280   1292   1298     1  0.0000000  0.6508444  3
   1281   1280   1292   1293     1  0.0000000  0.6508444  3
   1281   1280   1292   1294     1  0.0000000  0.6508444  3
   1282   1280   1276   1283     1  0.0000000  1.2552000  3
   1282   1280   1292   1298     1  0.0000000  0.6508444  3
   1282   1280   1292   1293     1  0.0000000  0.6508444  3
   1282   1280   1292   1294     1  0.0000000  0.6508444  3
   1283   1286   1295   1296     1  0.0000000  0.6508444  3
   1283   1286   1295   1297     1  0.0000000  0.6508444  3
   1284   1283   1286   1295     1  0.0000000  0.6508444  3
   1284   1283   1286   1287     1  0.0000000  0.6508444  3
   1284   1283   1286   1288     1  0.0000000  0.6508444  3
   1285   1283   1286   1295     1  0.0000000  0.6508444  3
   1285   1283   1286   1287     1  0.0000000  0.6508444  3
   1285   1283   1286   1288     1  0.0000000  0.6508444  3
   1287   1286   1295   1304     1  0.0000000  1.0460000  1
   1287   1286   1295   1304     1  0.0000000  0.0000000  3
   1287   1286   1295   1296     1  0.0000000  0.6508444  3
   1287   1286   1295   1297     1  0.0000000  0.6508444  3
   1288   1286   1295   1304     1  0.0000000  1.0460000  1
   1288   1286   1295   1304     1  0.0000000  0.0000000  3
   1288   1286   1295   1296     1  0.0000000  0.6508444  3
   1288   1286   1295   1297     1  0.0000000  0.6508444  3
   1290   1289   1301   2475     1  0.0000000  1.0460000  1
   1290   1289   1301   2475     1  0.0000000  0.0000000  3
   1290   1289   1301   1302     1  0.0000000  0.6508444  3
   1290   1289   1301   1303     1  0.0000000  0.6508444  3
   1291   1289   1301   2475     1  0.0000000  1.0460000  1
   1291   1289   1301   2475     1  0.0000000  0.0000000  3
   1291   1289   1301   1302     1  0.0000000  0.6508444  3
   1291   1289   1301   1303     1  0.0000000  0.6508444  3
   1293   1292   1298   2452     1  0.0000000  1.0460000  1
   1293   1292   1298   2452     1  0.0000000  0.0000000  3
   1293   1292   1298   1299     1  0.0000000  0.6508444  3
   1293   1292   1298   1300     1  0.0000000  0.6508444  3
   1294   1292   1298   2452     1  0.0000000  1.0460000  1
   1294   1292   1298   2452     1  0.0000000  0.0000000  3
   1294   1292   1298   1299     1  0.0000000  0.6508444  3
   1294   1292   1298   1300     1  0.0000000  0.6508444  3
   1298   2452   2448   2451     1  0.0000000  1.6038667  3
   1299   1298   2452   2448     1  0.0000000  1.6038667  3
   1300   1298   2452   2448     1  0.0000000  1.6038667  3
   1301   2475   2471   2474     1  0.0000000  1.6038667  3
   1302   1301   2475   2471     1  0.0000000  1.6038667  3
   1303   1301   2475   2471     1  0.0000000  1.6038667  3
   1305   1306   1318   1319     1  0.0000000  0.6508444  3
   1305   1306   1318   1320     1  0.0000000  0.6508444  3
   1305   1309   1321   1322     1  0.0000000  0.6508444  3
   1305   1309   1321   1323     1  0.0000000  0.6508444  3
   1305   1312   1315   1316     1  0.0000000  0.6508444  3
   1305   1312   1315   1317     1  0.0000000  0.6508444  3
   1306   1305   1309   1310     1  0.0000000  1.2552000  3
   1306   1305   1309   1311     1  0.0000000  1.2552000  3
   1306   1305   1312   1313     1  0.0000000  1.2552000  3
   1306   1305   1312   1314     1  0.0000000  1.2552000  3
   1306   1318   1330   1331     1  0.0000000  0.6508444  3
   1306   1318   1330   1332     1  0.0000000  0.6508444  3
   1307   1306   1305   1309     1  0.0000000  1.2552000  3
   1307   1306   1305   1312     1  0.0000000  1.2552000  3
   1307   1306   1318   1330     1  0.0000000  0.6508444  3
   1307   1306   1318   1319     1  0.0000000  0.6508444  3
   1307   1306   1318   1320     1  0.0000000  0.6508444  3
   1308   1306   1305   1309     1  0.0000000  1.2552000  3
   1308   1306   1305   1312     1  0.0000000  1.2552000  3
   1308   1306   1318   1330     1  0.0000000  0.6508444  3
   1308   1306   1318   1319     1  0.0000000  0.6508444  3
   1308   1306   1318   1320     1  0.0000000  0.6508444  3
   1309   1305   1312   1313     1  0.0000000  1.2552000  3
   1309   1305   1312   1314     1  0.0000000  1.2552000  3
   1309   1321   1327   1328     1  0.0000000  0.6508444  3
   1309   1321   1327   1329     1  0.0000000  0.6508444  3
   1310   1309   1305   1312     1  0.0000000  1.2552000  3
   1310   1309   1321   1327     1  0.0000000  0.6508444  3
   1310   1309   1321   1322     1  0.0000000  0.6508444  3
   1310   1309   1321   1323     1  0.0000000  0.6508444  3
   1311   1309   1305   1312     1  0.0000000  1.2552000  3
   1311   1309   1321   1327     1  0.0000000  0.6508444  3
   1311   1309   1321   1322     1  0.0000000  0.6508444  3
   1311   1309   1321   1323     1  0.0000000  0.6508444  3
   1312   1315   1324   1325     1  0.0000000  0.6508444  3
   1312   1315   1324   1326     1  0.0000000  0.6508444  3
   1313   1312   1315   1324     1  0.0000000  0.6508444  3
   1313   1312   1315   1316     1  0.0000000  0.6508444  3
   1313   1312   1315   1317     1  0.0000000  0.6508444  3
   1314   1312   1315   1324     1  0.0000000  0.6508444  3
   1314   1312   1315   1316     1  0.0000000  0.6508444  3
   1314   1312   1315   1317     1  0.0000000  0.6508444  3
   1316   1315   1324   1333     1  0.0000000  1.0460000  1
   1316   1315   1324   1333     1  0.0000000  0.0000000  3
   1316   1315   1324   1325     1  0.0000000  0.6508444  3
   1316   1315   1324   1326     1  0.0000000  0.6508444  3
   1317   1315   1324   1333     1  0.0000000  1.0460000  1
   1317   1315   1324   1333     1  0.0000000  0.0000000  3
   1317   1315   1324   1325     1  0.0000000  0.6508444  3
   1317   1315   1324   1326     1  0.0000000  0.6508444  3
   1319   1318   1330   2521     1  0.0000000  1.0460000  1
   1319   1318   1330   2521     1  0.0000000  0.0000000  3
   1319   1318   1330   1331     1  0.0000000  0.6508444  3
   1319   1318   1330   1332     1  0.0000000  0.6508444  3
   1320   1318   1330   2521     1  0.0000000  1.0460000  1
   1320   1318   1330   2521     1  0.0000000  0.0000000  3
   1320   1318   1330   1331     1  0.0000000  0.6508444  3
   1320   1318   1330   1332     1  0.0000000  0.6508444  3
   1322   1321   1327   2498     1  0.0000000  1.0460000  1
   1322   1321   1327   2498     1  0.0000000  0.0000000  3
   1322   1321   1327   1328     1  0.0000000  0.6508444  3
   1322   1321   1327   1329     1  0.0000000  0.6508444  3
   1323   1321   1327   2498     1  0.0000000  1.0460000  1
   1323   1321   1327   2498     1  0.0000000  0.0000000  3
   1323   1321   1327   1328     1  0.0000000  0.6508444  3
   1323   1321   1327   1329     1  0.0000000  0.6508444  3
   1327   2498   2494   2497     1  0.0000000  1.6038667  3
   1328   1327   2498   2494     1  0.0000000  1.6038667  3
   1329   1327   2498   2494     1  0.0000000  1.6038667  3
   1330   2521   2517   2520     1  0.0000000  1.6038667  3
   1331   1330   2521   2517     1  0.0000000  1.6038667  3
   1332   1330   2521   2517     1  0.0000000  1.6038667  3
   1334   1335   1347   1348     1  0.0000000  0.6508444  3
   1334   1335   1347   1349     1  0.0000000  0.6508444  3
   1334   1338   1350   1351     1  0.0000000  0.6508444  3
   1334   1338   1350   1352     1  0.0000000  0.6508444  3
   1334   1341   1344   1345     1  0.0000000  0.6508444  3
   1334   1341   1344   1346     1  0.0000000  0.6508444  3
   1335   1334   1338   1339     1  0.0000000  1.2552000  3
   1335   1334   1338   1340     1  0.0000000  1.2552000  3
   1335   1334   1341   1342     1  0.0000000  1.2552000  3
   1335   1334   1341   1343     1  0.0000000  1.2552000  3
   1335   1347   1359   1360     1  0.0000000  0.6508444  3
   1335   1347   1359   1361     1  0.0000000  0.6508444  3
   1336   1335   1334   1338     1  0.0000000  1.2552000  3
   1336   1335   1334   1341     1  0.0000000  1.2552000  3
   1336   1335   1347   1359     1  0.0000000  0.6508444  3
   1336   1335   1347   1348     1  0.0000000  0.6508444  3
   1336   1335   1347   1349     1  0.0000000  0.6508444  3
   1337   1335   1334   1338     1  0.0000000  1.2552000  3
   1337   1335   1334   1341     1  0.0000000  1.2552000  3
   1337   1335   1347   1359     1  0.0000000  0.6508444  3
   1337   1335   1347   1348     1  0.0000000  0.6508444  3
   1337   1335   1347   1349     1  0.0000000  0.6508444  3
   1338   1334   1341   1342     1  0.0000000  1.2552000  3
   1338   1334   1341   1343     1  0.0000000  1.2552000  3
   1338   1350   1356   1357     1  0.0000000  0.6508444  3
   1338   1350   1356   1358     1  0.0000000  0.6508444  3
   1339   1338   1334   1341     1  0.0000000  1.2552000  3
   1339   1338   1350   1356     1  0.0000000  0.6508444  3
   1339   1338   1350   1351     1  0.0000000  0.6508444  3
   1339   1338   1350   1352     1  0.0000000  0.6508444  3
   1340   1338   1334   1341     1  0.0000000  1.2552000  3
   1340   1338   1350   1356     1  0.0000000  0.6508444  3
   1340   1338   1350   1351     1  0.0000000  0.6508444  3
   1340   1338   1350   1352     1  0.0000000  0.6508444  3
   1341   1344   1353   1354     1  0.0000000  0.6508444  3
   1341   1344   1353   1355     1  0.0000000  0.6508444  3
   1342   1341   1344   1353     1  0.0000000  0.6508444  3
   1342   1341   1344   1345     1  0.0000000  0.6508444  3
   1342   1341   1344   1346     1  0.0000000  0.6508444  3
   1343   1341   1344   1353     1  0.0000000  0.6508444  3
   1343   1341   1344   1345     1  0.0000000  0.6508444  3
   1343   1341   1344   1346     1  0.0000000  0.6508444  3
   1345   1344   1353   1362     1  0.0000000  1.0460000  1
   1345   1344   1353   1362     1  0.0000000  0.0000000  3
   1345   1344   1353   1354     1  0.0000000  0.6508444  3
   1345   1344   1353   1355     1  0.0000000  0.6508444  3
   1346   1344   1353   1362     1  0.0000000  1.0460000  1
   1346   1344   1353   1362     1  0.0000000  0.0000000  3
   1346   1344   1353   1354     1  0.0000000  0.6508444  3
   1346   1344   1353   1355     1  0.0000000  0.6508444  3
   1348   1347   1359   2567     1  0.0000000  1.0460000  1
   1348   1347   1359   2567     1  0.0000000  0.0000000  3
   1348   1347   1359   1360     1  0.0000000  0.6508444  3
   1348   1347   1359   1361     1  0.0000000  0.6508444  3
   1349   1347   1359   2567     1  0.0000000  1.0460000  1
   1349   1347   1359   2567     1  0.0000000  0.0000000  3
   1349   1347   1359   1360     1  0.0000000  0.6508444  3
   1349   1347   1359   1361     1  0.0000000  0.6508444  3
   1351   1350   1356   2544     1  0.0000000  1.0460000  1
   1351   1350   1356   2544     1  0.0000000  0.0000000  3
   1351   1350   1356   1357     1  0.0000000  0.6508444  3
   1351   1350   1356   1358     1  0.0000000  0.6508444  3
   1352   1350   1356   2544     1  0.0000000  1.0460000  1
   1352   1350   1356   2544     1  0.0000000  0.0000000  3
   1352   1350   1356   1357     1  0.0000000  0.6508444  3
   1352   1350   1356   1358     1  0.0000000  0.6508444  3
   1356   2544   2540   2543     1  0.0000000  1.6038667  3
   1357   1356   2544   2540     1  0.0000000  1.6038667  3
   1358   1356   2544   2540     1  0.0000000  1.6038667  3
   1359   2567   2563   2566     1  0.0000000  1.6038667  3
   1360   1359   2567   2563     1  0.0000000  1.6038667  3
   1361   1359   2567   2563     1  0.0000000  1.6038667  3
   1363   1364   1376   1377     1  0.0000000  0.6508444  3
   1363   1364   1376   1378     1  0.0000000  0.6508444  3
   1363   1367   1379   1380     1  0.0000000  0.6508444  3
   1363   1367   1379   1381     1  0.0000000  0.6508444  3
   1363   1370   1373   1374     1  0.0000000  0.6508444  3
   1363   1370   1373   1375     1  0.0000000  0.6508444  3
   1364   1363   1367   1368     1  0.0000000  1.2552000  3
   1364   1363   1367   1369     1  0.0000000  1.2552000  3
   1364   1363   1370   1371     1  0.0000000  1.2552000  3
   1364   1363   1370   1372     1  0.0000000  1.2552000  3
   1364   1376   1388   1389     1  0.0000000  0.6508444  3
   1364   1376   1388   1390     1  0.0000000  0.6508444  3
   1365   1364   1363   1367     1  0.0000000  1.2552000  3
   1365   1364   1363   1370     1  0.0000000  1.2552000  3
   1365   1364   1376   1388     1  0.0000000  0.6508444  3
   1365   1364   1376   1377     1  0.0000000  0.6508444  3
   1365   1364   1376   1378     1  0.0000000  0.6508444  3
   1366   1364   1363   1367     1  0.0000000  1.2552000  3
   1366   1364   1363   1370     1  0.0000000  1.2552000  3
   1366   1364   1376   1388     1  0.0000000  0.6508444  3
   1366   1364   1376   1377     1  0.0000000  0.6508444  3
   1366   1364   1376   1378     1  0.0000000  0.6508444  3
   1367   1363   1370   1371     1  0.0000000  1.2552000  3
   1367   1363   1370   1372     1  0.0000000  1.2552000  3
   1367   1379   1385   1386     1  0.0000000  0.6508444  3
   1367   1379   1385   1387     1  0.0000000  0.6508444  3
   1368   1367   1363   1370     1  0.0000000  1.2552000  3
   1368   1367   1379   1385     1  0.0000000  0.6508444  3
   1368   1367   1379   1380     1  0.0000000  0.6508444  3
   1368   1367   1379   1381     1  0.0000000  0.6508444  3
   1369   1367   1363   1370     1  0.0000000  1.2552000  3
   1369   1367   1379   1385     1  0.0000000  0.6508444  3
   1369   1367   1379   1380     1  0.0000000  0.6508444  3
   1369   1367   1379   1381     1  0.0000000  0.6508444  3
   1370   1373   1382   1383     1  0.0000000  0.6508444  3
   1370   1373   1382   1384     1  0.0000000  0.6508444  3
   1371   1370   1373   1382     1  0.0000000  0.6508444  3
   1371   1370   1373   1374     1  0.0000000  0.6508444  3
   1371   1370   1373   1375     1  0.0000000  0.6508444  3
   1372   1370   1373   1382     1  0.0000000  0.6508444  3
   1372   1370   1373   1374     1  0.0000000  0.6508444  3
   1372   1370   1373   1375     1  0.0000000  0.6508444  3
   1374   1373   1382   1391     1  0.0000000  1.0460000  1
   1374   1373   1382   1391     1  0.0000000  0.0000000  3
   1374   1373   1382   1383     1  0.0000000  0.6508444  3
   1374   1373   1382   1384     1  0.0000000  0.6508444  3
   1375   1373   1382   1391     1  0.0000000  1.0460000  1
   1375   1373   1382   1391     1  0.0000000  0.0000000  3
   1375   1373   1382   1383     1  0.0000000  0.6508444  3
   1375   1373   1382   1384     1  0.0000000  0.6508444  3
   1377   1376   1388   2613     1  0.0000000  1.0460000  1
   1377   1376   1388   2613     1  0.0000000  0.0000000  3
   1377   1376   1388   1389     1  0.0000000  0.6508444  3
   1377   1376   1388   1390     1  0.0000000  0.6508444  3
   1378   1376   1388   2613     1  0.0000000  1.0460000  1
   1378   1376   1388   2613     1  0.0000000  0.0000000  3
   1378   1376   1388   1389     1  0.0000000  0.6508444  3
   1378   1376   1388   1390     1  0.0000000  0.6508444  3
   1380   1379   1385   2590     1  0.0000000  1.0460000  1
   1380   1379   1385   2590     1  0.0000000  0.0000000  3
   1380   1379   1385   1386     1  0.0000000  0.6508444  3
   1380   1379   1385   1387     1  0.0000000  0.6508444  3
   1381   1379   1385   2590     1  0.0000000  1.0460000  1
   1381   1379   1385   2590     1  0.0000000  0.0000000  3
   1381   1379   1385   1386     1  0.0000000  0.6508444  3
   1381   1379   1385   1387     1  0.0000000  0.6508444  3
   1385   2590   2586   2589     1  0.0000000  1.6038667  3
   1386   1385   2590   2586     1  0.0000000  1.6038667  3
   1387   1385   2590   2586     1  0.0000000  1.6038667  3
   1388   2613   2609   2612     1  0.0000000  1.6038667  3
   1389   1388   2613   2609     1  0.0000000  1.6038667  3
   1390   1388   2613   2609     1  0.0000000  1.6038667  3
   1392   1393   1405   1406     1  0.0000000  0.6508444  3
   1392   1393   1405   1407     1  0.0000000  0.6508444  3
   1392   1396   1408   1409     1  0.0000000  0.6508444  3
   1392   1396   1408   1410     1  0.0000000  0.6508444  3
   1392   1399   1402   1403     1  0.0000000  0.6508444  3
   1392   1399   1402   1404     1  0.0000000  0.6508444  3
   1393   1392   1396   1397     1  0.0000000  1.2552000  3
   1393   1392   1396   1398     1  0.0000000  1.2552000  3
   1393   1392   1399   1400     1  0.0000000  1.2552000  3
   1393   1392   1399   1401     1  0.0000000  1.2552000  3
   1393   1405   1417   1418     1  0.0000000  0.6508444  3
   1393   1405   1417   1419     1  0.0000000  0.6508444  3
   1394   1393   1392   1396     1  0.0000000  1.2552000  3
   1394   1393   1392   1399     1  0.0000000  1.2552000  3
   1394   1393   1405   1417     1  0.0000000  0.6508444  3
   1394   1393   1405   1406     1  0.0000000  0.6508444  3
   1394   1393   1405   1407     1  0.0000000  0.6508444  3
   1395   1393   1392   1396     1  0.0000000  1.2552000  3
   1395   1393   1392   1399     1  0.0000000  1.2552000  3
   1395   1393   1405   1417     1  0.0000000  0.6508444  3
   1395   1393   1405   1406     1  0.0000000  0.6508444  3
   1395   1393   1405   1407     1  0.0000000  0.6508444  3
   1396   1392   1399   1400     1  0.0000000  1.2552000  3
   1396   1392   1399   1401     1  0.0000000  1.2552000  3
   1396   1408   1414   1415     1  0.0000000  0.6508444  3
   1396   1408   1414   1416     1  0.0000000  0.6508444  3
   1397   1396   1392   1399     1  0.0000000  1.2552000  3
   1397   1396   1408   1414     1  0.0000000  0.6508444  3
   1397   1396   1408   1409     1  0.0000000  0.6508444  3
   1397   1396   1408   1410     1  0.0000000  0.6508444  3
   1398   1396   1392   1399     1  0.0000000  1.2552000  3
   1398   1396   1408   1414     1  0.0000000  0.6508444  3
   1398   1396   1408   1409     1  0.0000000  0.6508444  3
   1398   1396   1408   1410     1  0.0000000  0.6508444  3
   1399   1402   1411   1412     1  0.0000000  0.6508444  3
   1399   1402   1411   1413     1  0.0000000  0.6508444  3
   1400   1399   1402   1411     1  0.0000000  0.6508444  3
   1400   1399   1402   1403     1  0.0000000  0.6508444  3
   1400   1399   1402   1404     1  0.0000000  0.6508444  3
   1401   1399   1402   1411     1  0.0000000  0.6508444  3
   1401   1399   1402   1403     1  0.0000000  0.6508444  3
   1401   1399   1402   1404     1  0.0000000  0.6508444  3
   1403   1402   1411   1420     1  0.0000000  1.0460000  1
   1403   1402   1411   1420     1  0.0000000  0.0000000  3
   1403   1402   1411   1412     1  0.0000000  0.6508444  3
   1403   1402   1411   1413     1  0.0000000  0.6508444  3
   1404   1402   1411   1420     1  0.0000000  1.0460000  1
   1404   1402   1411   1420     1  0.0000000  0.0000000  3
   1404   1402   1411   1412     1  0.0000000  0.6508444  3
   1404   1402   1411   1413     1  0.0000000  0.6508444  3
   1406   1405   1417   2659     1  0.0000000  1.0460000  1
   1406   1405   1417   2659     1  0.0000000  0.0000000  3
   1406   1405   1417   1418     1  0.0000000  0.6508444  3
   1406   1405   1417   1419     1  0.0000000  0.6508444  3
   1407   1405   1417   2659     1  0.0000000  1.0460000  1
   1407   1405   1417   2659     1  0.0000000  0.0000000  3
   1407   1405   1417   1418     1  0.0000000  0.6508444  3
   1407   1405   1417   1419     1  0.0000000  0.6508444  3
   1409   1408   1414   2636     1  0.0000000  1.0460000  1
   1409   1408   1414   2636     1  0.0000000  0.0000000  3
   1409   1408   1414   1415     1  0.0000000  0.6508444  3
   1409   1408   1414   1416     1  0.0000000  0.6508444  3
   1410   1408   1414   2636     1  0.0000000  1.0460000  1
   1410   1408   1414   2636     1  0.0000000  0.0000000  3
   1410   1408   1414   1415     1  0.0000000  0.6508444  3
   1410   1408   1414   1416     1  0.0000000  0.6508444  3
   1414   2636   2632   2635     1  0.0000000  1.6038667  3
   1415   1414   2636   2632     1  0.0000000  1.6038667  3
   1416   1414   2636   2632     1  0.0000000  1.6038667  3
   1417   2659   2655   2658     1  0.0000000  1.6038667  3
   1418   1417   2659   2655     1  0.0000000  1.6038667  3
   1419   1417   2659   2655     1  0.0000000  1.6038667  3
   1421   1422   1434   1435     1  0.0000000  0.6508444  3
   1421   1422   1434   1436     1  0.0000000  0.6508444  3
   1421   1425   1437   1438     1  0.0000000  0.6508444  3
   1421   1425   1437   1439     1  0.0000000  0.6508444  3
   1421   1428   1431   1432     1  0.0000000  0.6508444  3
   1421   1428   1431   1433     1  0.0000000  0.6508444  3
   1422   1421   1425   1426     1  0.0000000  1.2552000  3
   1422   1421   1425   1427     1  0.0000000  1.2552000  3
   1422   1421   1428   1429     1  0.0000000  1.2552000  3
   1422   1421   1428   1430     1  0.0000000  1.2552000  3
   1422   1434   1446   1447     1  0.0000000  0.6508444  3
   1422   1434   1446   1448     1  0.0000000  0.6508444  3
   1423   1422   1421   1425     1  0.0000000  1.2552000  3
   1423   1422   1421   1428     1  0.0000000  1.2552000  3
   1423   1422   1434   1446     1  0.0000000  0.6508444  3
   1423   1422   1434   1435     1  0.0000000  0.6508444  3
   1423   1422   1434   1436     1  0.0000000  0.6508444  3
   1424   1422   1421   1425     1  0.0000000  1.2552000  3
   1424   1422   1421   1428     1  0.0000000  1.2552000  3
   1424   1422   1434   1446     1  0.0000000  0.6508444  3
   1424   1422   1434   1435     1  0.0000000  0.6508444  3
   1424   1422   1434   1436     1  0.0000000  0.6508444  3
   1425   1421   1428   1429     1  0.0000000  1.2552000  3
   1425   1421   1428   1430     1  0.0000000  1.2552000  3
   1425   1437   1443   1444     1  0.0000000  0.6508444  3
   1425   1437   1443   1445     1  0.0000000  0.6508444  3
   1426   1425   1421   1428     1  0.0000000  1.2552000  3
   1426   1425   1437   1443     1  0.0000000  0.6508444  3
   1426   1425   1437   1438     1  0.0000000  0.6508444  3
   1426   1425   1437   1439     1  0.0000000  0.6508444  3
   1427   1425   1421   1428     1  0.0000000  1.2552000  3
   1427   1425   1437   1443     1  0.0000000  0.6508444  3
   1427   1425   1437   1438     1  0.0000000  0.6508444  3
   1427   1425   1437   1439     1  0.0000000  0.6508444  3
   1428   1431   1440   1441     1  0.0000000  0.6508444  3
   1428   1431   1440   1442     1  0.0000000  0.6508444  3
   1429   1428   1431   1440     1  0.0000000  0.6508444  3
   1429   1428   1431   1432     1  0.0000000  0.6508444  3
   1429   1428   1431   1433     1  0.0000000  0.6508444  3
   1430   1428   1431   1440     1  0.0000000  0.6508444  3
   1430   1428   1431   1432     1  0.0000000  0.6508444  3
   1430   1428   1431   1433     1  0.0000000  0.6508444  3
   1432   1431   1440   1449     1  0.0000000  1.0460000  1
   1432   1431   1440   1449     1  0.0000000  0.0000000  3
   1432   1431   1440   1441     1  0.0000000  0.6508444  3
   1432   1431   1440   1442     1  0.0000000  0.6508444  3
   1433   1431   1440   1449     1  0.0000000  1.0460000  1
   1433   1431   1440   1449     1  0.0000000  0.0000000  3
   1433   1431   1440   1441     1  0.0000000  0.6508444  3
   1433   1431   1440   1442     1  0.0000000  0.6508444  3
   1435   1434   1446   2705     1  0.0000000  1.0460000  1
   1435   1434   1446   2705     1  0.0000000  0.0000000  3
   1435   1434   1446   1447     1  0.0000000  0.6508444  3
   1435   1434   1446   1448     1  0.0000000  0.6508444  3
   1436   1434   1446   2705     1  0.0000000  1.0460000  1
   1436   1434   1446   2705     1  0.0000000  0.0000000  3
   1436   1434   1446   1447     1  0.0000000  0.6508444  3
   1436   1434   1446   1448     1  0.0000000  0.6508444  3
   1438   1437   1443   2682     1  0.0000000  1.0460000  1
   1438   1437   1443   2682     1  0.0000000  0.0000000  3
   1438   1437   1443   1444     1  0.0000000  0.6508444  3
   1438   1437   1443   1445     1  0.0000000  0.6508444  3
   1439   1437   1443   2682     1  0.0000000  1.0460000  1
   1439   1437   1443   2682     1  0.0000000  0.0000000  3
   1439   1437   1443   1444     1  0.0000000  0.6508444  3
   1439   1437   1443   1445     1  0.0000000  0.6508444  3
   1443   2682   2678   2681     1  0.0000000  1.6038667  3
   1444   1443   2682   2678     1  0.0000000  1.6038667  3
   1445   1443   2682   2678     1  0.0000000  1.6038667  3
   1446   2705   2701   2704     1  0.0000000  1.6038667  3
   1447   1446   2705   2701     1  0.0000000  1.6038667  3
   1448   1446   2705   2701     1  0.0000000  1.6038667  3
   1450   1451   1463   1464     1  0.0000000  0.6508444  3
   1450   1451   1463   1465     1  0.0000000  0.6508444  3
   1450   1454   1466   1467     1  0.0000000  0.6508444  3
   1450   1454   1466   1468     1  0.0000000  0.6508444  3
   1450   1457   1460   1461     1  0.0000000  0.6508444  3
   1450   1457   1460   1462     1  0.0000000  0.6508444  3
   1451   1450   1454   1455     1  0.0000000  1.2552000  3
   1451   1450   1454   1456     1  0.0000000  1.2552000  3
   1451   1450   1457   1458     1  0.0000000  1.2552000  3
   1451   1450   1457   1459     1  0.0000000  1.2552000  3
   1451   1463   1475   1476     1  0.0000000  0.6508444  3
   1451   1463   1475   1477     1  0.0000000  0.6508444  3
   1452   1451   1450   1454     1  0.0000000  1.2552000  3
   1452   1451   1450   1457     1  0.0000000  1.2552000  3
   1452   1451   1463   1475     1  0.0000000  0.6508444  3
   1452   1451   1463   1464     1  0.0000000  0.6508444  3
   1452   1451   1463   1465     1  0.0000000  0.6508444  3
   1453   1451   1450   1454     1  0.0000000  1.2552000  3
   1453   1451   1450   1457     1  0.0000000  1.2552000  3
   1453   1451   1463   1475     1  0.0000000  0.6508444  3
   1453   1451   1463   1464     1  0.0000000  0.6508444  3
   1453   1451   1463   1465     1  0.0000000  0.6508444  3
   1454   1450   1457   1458     1  0.0000000  1.2552000  3
   1454   1450   1457   1459     1  0.0000000  1.2552000  3
   1454   1466   1472   1473     1  0.0000000  0.6508444  3
   1454   1466   1472   1474     1  0.0000000  0.6508444  3
   1455   1454   1450   1457     1  0.0000000  1.2552000  3
   1455   1454   1466   1472     1  0.0000000  0.6508444  3
   1455   1454   1466   1467     1  0.0000000  0.6508444  3
   1455   1454   1466   1468     1  0.0000000  0.6508444  3
   1456   1454   1450   1457     1  0.0000000  1.2552000  3
   1456   1454   1466   1472     1  0.0000000  0.6508444  3
   1456   1454   1466   1467     1  0.0000000  0.6508444  3
   1456   1454   1466   1468     1  0.0000000  0.6508444  3
   1457   1460   1469   1470     1  0.0000000  0.6508444  3
   1457   1460   1469   1471     1  0.0000000  0.6508444  3
   1458   1457   1460   1469     1  0.0000000  0.6508444  3
   1458   1457   1460   1461     1  0.0000000  0.6508444  3
   1458   1457   1460   1462     1  0.0000000  0.6508444  3
   1459   1457   1460   1469     1  0.0000000  0.6508444  3
   1459   1457   1460   1461     1  0.0000000  0.6508444  3
   1459   1457   1460   1462     1  0.0000000  0.6508444  3
   1461   1460   1469   1478     1  0.0000000  1.0460000  1
   1461   1460   1469   1478     1  0.0000000  0.0000000  3
   1461   1460   1469   1470     1  0.0000000  0.6508444  3
   1461   1460   1469   1471     1  0.0000000  0.6508444  3
   1462   1460   1469   1478     1  0.0000000  1.0460000  1
   1462   1460   1469   1478     1  0.0000000  0.0000000  3
   1462   1460   1469   1470     1  0.0000000  0.6508444  3
   1462   1460   1469   1471     1  0.0000000  0.6508444  3
   1464   1463   1475   2751     1  0.0000000  1.0460000  1
   1464   1463   1475   2751     1  0.0000000  0.0000000  3
   1464   1463   1475   1476     1  0.0000000  0.6508444  3
   1464   1463   1475   1477     1  0.0000000  0.6508444  3
   1465   1463   1475   2751     1  0.0000000  1.0460000  1
   1465   1463   1475   2751     1  0.0000000  0.0000000  3
   1465   1463   1475   1476     1  0.0000000  0.6508444  3
   1465   1463   1475   1477     1  0.0000000  0.6508444  3
   1467   1466   1472   2728     1  0.0000000  1.0460000  1
   1467   1466   1472   2728     1  0.0000000  0.0000000  3
   1467   1466   1472   1473     1  0.0000000  0.6508444  3
   1467   1466   1472   1474     1  0.0000000  0.6508444  3
   1468   1466   1472   2728     1  0.0000000  1.0460000  1
   1468   1466   1472   2728     1  0.0000000  0.0000000  3
   1468   1466   1472   1473     1  0.0000000  0.6508444  3
   1468   1466   1472   1474     1  0.0000000  0.6508444  3
   1472   2728   2724   2727     1  0.0000000  1.6038667  3
   1473   1472   2728   2724     1  0.0000000  1.6038667  3
   1474   1472   2728   2724     1  0.0000000  1.6038667  3
   1475   2751   2747   2750     1  0.0000000  1.6038667  3
   1476   1475   2751   2747     1  0.0000000  1.6038667  3
   1477   1475   2751   2747     1  0.0000000  1.6038667  3
   1479   1480   1492   1493     1  0.0000000  0.6508444  3
   1479   1480   1492   1494     1  0.0000000  0.6508444  3
   1479   1483   1495   1496     1  0.0000000  0.6508444  3
   1479   1483   1495   1497     1  0.0000000  0.6508444  3
   1479   1486   1489   1490     1  0.0000000  0.6508444  3
   1479   1486   1489   1491     1  0.0000000  0.6508444  3
   1480   1479   1483   1484     1  0.0000000  1.2552000  3
   1480   1479   1483   1485     1  0.0000000  1.2552000  3
   1480   1479   1486   1487     1  0.0000000  1.2552000  3
   1480   1479   1486   1488     1  0.0000000  1.2552000  3
   1480   1492   1504   1505     1  0.0000000  0.6508444  3
   1480   1492   1504   1506     1  0.0000000  0.6508444  3
   1481   1480   1479   1483     1  0.0000000  1.2552000  3
   1481   1480   1479   1486     1  0.0000000  1.2552000  3
   1481   1480   1492   1504     1  0.0000000  0.6508444  3
   1481   1480   1492   1493     1  0.0000000  0.6508444  3
   1481   1480   1492   1494     1  0.0000000  0.6508444  3
   1482   1480   1479   1483     1  0.0000000  1.2552000  3
   1482   1480   1479   1486     1  0.0000000  1.2552000  3
   1482   1480   1492   1504     1  0.0000000  0.6508444  3
   1482   1480   1492   1493     1  0.0000000  0.6508444  3
   1482   1480   1492   1494     1  0.0000000  0.6508444  3
   1483   1479   1486   1487     1  0.0000000  1.2552000  3
   1483   1479   1486   1488     1  0.0000000  1.2552000  3
   1483   1495   1501   1502     1  0.0000000  0.6508444  3
   1483   1495   1501   1503     1  0.0000000  0.6508444  3
   1484   1483   1479   1486     1  0.0000000  1.2552000  3
   1484   1483   1495   1501     1  0.0000000  0.6508444  3
   1484   1483   1495   1496     1  0.0000000  0.6508444  3
   1484   1483   1495   1497     1  0.0000000  0.6508444  3
   1485   1483   1479   1486     1  0.0000000  1.2552000  3
   1485   1483   1495   1501     1  0.0000000  0.6508444  3
   1485   1483   1495   1496     1  0.0000000  0.6508444  3
   1485   1483   1495   1497     1  0.0000000  0.6508444  3
   1486   1489   1498   1499     1  0.0000000  0.6508444  3
   1486   1489   1498   1500     1  0.0000000  0.6508444  3
   1487   1486   1489   1498     1  0.0000000  0.6508444  3
   1487   1486   1489   1490     1  0.0000000  0.6508444  3
   1487   1486   1489   1491     1  0.0000000  0.6508444  3
   1488   1486   1489   1498     1  0.0000000  0.6508444  3
   1488   1486   1489   1490     1  0.0000000  0.6508444  3
   1488   1486   1489   1491     1  0.0000000  0.6508444  3
   1490   1489   1498   1507     1  0.0000000  1.0460000  1
   1490   1489   1498   1507     1  0.0000000  0.0000000  3
   1490   1489   1498   1499     1  0.0000000  0.6508444  3
   1490   1489   1498   1500     1  0.0000000  0.6508444  3
   1491   1489   1498   1507     1  0.0000000  1.0460000  1
   1491   1489   1498   1507     1  0.0000000  0.0000000  3
   1491   1489   1498   1499     1  0.0000000  0.6508444  3
   1491   1489   1498   1500     1  0.0000000  0.6508444  3
   1493   1492   1504   2797     1  0.0000000  1.0460000  1
   1493   1492   1504   2797     1  0.0000000  0.0000000  3
   1493   1492   1504   1505     1  0.0000000  0.6508444  3
   1493   1492   1504   1506     1  0.0000000  0.6508444  3
   1494   1492   1504   2797     1  0.0000000  1.0460000  1
   1494   1492   1504   2797     1  0.0000000  0.0000000  3
   1494   1492   1504   1505     1  0.0000000  0.6508444  3
   1494   1492   1504   1506     1  0.0000000  0.6508444  3
   1496   1495   1501   2774     1  0.0000000  1.0460000  1
   1496   1495   1501   2774     1  0.0000000  0.0000000  3
   1496   1495   1501   1502     1  0.0000000  0.6508444  3
   1496   1495   1501   1503     1  0.0000000  0.6508444  3
   1497   1495   1501   2774     1  0.0000000  1.0460000  1
   1497   1495   1501   2774     1  0.0000000  0.0000000  3
   1497   1495   1501   1502     1  0.0000000  0.6508444  3
   1497   1495   1501   1503     1  0.0000000  0.6508444  3
   1501   2774   2770   2773     1  0.0000000  1.6038667  3
   1502   1501   2774   2770     1  0.0000000  1.6038667  3
   1503   1501   2774   2770     1  0.0000000  1.6038667  3
   1504   2797   2793   2796     1  0.0000000  1.6038667  3
   1505   1504   2797   2793     1  0.0000000  1.6038667  3
   1506   1504   2797   2793     1  0.0000000  1.6038667  3
   1508   1509   1521   1522     1  0.0000000  0.6508444  3
   1508   1509   1521   1523     1  0.0000000  0.6508444  3
   1508   1512   1524   1525     1  0.0000000  0.6508444  3
   1508   1512   1524   1526     1  0.0000000  0.6508444  3
   1508   1515   1518   1519     1  0.0000000  0.6508444  3
   1508   1515   1518   1520     1  0.0000000  0.6508444  3
   1509   1508   1512   1513     1  0.0000000  1.2552000  3
   1509   1508   1512   1514     1  0.0000000  1.2552000  3
   1509   1508   1515   1516     1  0.0000000  1.2552000  3
   1509   1508   1515   1517     1  0.0000000  1.2552000  3
   1509   1521   1533   1534     1  0.0000000  0.6508444  3
   1509   1521   1533   1535     1  0.0000000  0.6508444  3
   1510   1509   1508   1512     1  0.0000000  1.2552000  3
   1510   1509   1508   1515     1  0.0000000  1.2552000  3
   1510   1509   1521   1533     1  0.0000000  0.6508444  3
   1510   1509   1521   1522     1  0.0000000  0.6508444  3
   1510   1509   1521   1523     1  0.0000000  0.6508444  3
   1511   1509   1508   1512     1  0.0000000  1.2552000  3
   1511   1509   1508   1515     1  0.0000000  1.2552000  3
   1511   1509   1521   1533     1  0.0000000  0.6508444  3
   1511   1509   1521   1522     1  0.0000000  0.6508444  3
   1511   1509   1521   1523     1  0.0000000  0.6508444  3
   1512   1508   1515   1516     1  0.0000000  1.2552000  3
   1512   1508   1515   1517     1  0.0000000  1.2552000  3
   1512   1524   1530   1531     1  0.0000000  0.6508444  3
   1512   1524   1530   1532     1  0.0000000  0.6508444  3
   1513   1512   1508   1515     1  0.0000000  1.2552000  3
   1513   1512   1524   1530     1  0.0000000  0.6508444  3
   1513   1512   1524   1525     1  0.0000000  0.6508444  3
   1513   1512   1524   1526     1  0.0000000  0.6508444  3
   1514   1512   1508   1515     1  0.0000000  1.2552000  3
   1514   1512   1524   1530     1  0.0000000  0.6508444  3
   1514   1512   1524   1525     1  0.0000000  0.6508444  3
   1514   1512   1524   1526     1  0.0000000  0.6508444  3
   1515   1518   1527   1528     1  0.0000000  0.6508444  3
   1515   1518   1527   1529     1  0.0000000  0.6508444  3
   1516   1515   1518   1527     1  0.0000000  0.6508444  3
   1516   1515   1518   1519     1  0.0000000  0.6508444  3
   1516   1515   1518   1520     1  0.0000000  0.6508444  3
   1517   1515   1518   1527     1  0.0000000  0.6508444  3
   1517   1515   1518   1519     1  0.0000000  0.6508444  3
   1517   1515   1518   1520     1  0.0000000  0.6508444  3
   1519   1518   1527   1536     1  0.0000000  1.0460000  1
   1519   1518   1527   1536     1  0.0000000  0.0000000  3
   1519   1518   1527   1528     1  0.0000000  0.6508444  3
   1519   1518   1527   1529     1  0.0000000  0.6508444  3
   1520   1518   1527   1536     1  0.0000000  1.0460000  1
   1520   1518   1527   1536     1  0.0000000  0.0000000  3
   1520   1518   1527   1528     1  0.0000000  0.6508444  3
   1520   1518   1527   1529     1  0.0000000  0.6508444  3
   1522   1521   1533   2843     1  0.0000000  1.0460000  1
   1522   1521   1533   2843     1  0.0000000  0.0000000  3
   1522   1521   1533   1534     1  0.0000000  0.6508444  3
   1522   1521   1533   1535     1  0.0000000  0.6508444  3
   1523   1521   1533   2843     1  0.0000000  1.0460000  1
   1523   1521   1533   2843     1  0.0000000  0.0000000  3
   1523   1521   1533   1534     1  0.0000000  0.6508444  3
   1523   1521   1533   1535     1  0.0000000  0.6508444  3
   1525   1524   1530   2820     1  0.0000000  1.0460000  1
   1525   1524   1530   2820     1  0.0000000  0.0000000  3
   1525   1524   1530   1531     1  0.0000000  0.6508444  3
   1525   1524   1530   1532     1  0.0000000  0.6508444  3
   1526   1524   1530   2820     1  0.0000000  1.0460000  1
   1526   1524   1530   2820     1  0.0000000  0.0000000  3
   1526   1524   1530   1531     1  0.0000000  0.6508444  3
   1526   1524   1530   1532     1  0.0000000  0.6508444  3
   1530   2820   2816   2819     1  0.0000000  1.6038667  3
   1531   1530   2820   2816     1  0.0000000  1.6038667  3
   1532   1530   2820   2816     1  0.0000000  1.6038667  3
   1533   2843   2839   2842     1  0.0000000  1.6038667  3
   1534   1533   2843   2839     1  0.0000000  1.6038667  3
   1535   1533   2843   2839     1  0.0000000  1.6038667  3
   1537   1538   1550   1551     1  0.0000000  0.6508444  3
   1537   1538   1550   1552     1  0.0000000  0.6508444  3
   1537   1541   1553   1554     1  0.0000000  0.6508444  3
   1537   1541   1553   1555     1  0.0000000  0.6508444  3
   1537   1544   1547   1548     1  0.0000000  0.6508444  3
   1537   1544   1547   1549     1  0.0000000  0.6508444  3
   1538   1537   1541   1542     1  0.0000000  1.2552000  3
   1538   1537   1541   1543     1  0.0000000  1.2552000  3
   1538   1537   1544   1545     1  0.0000000  1.2552000  3
   1538   1537   1544   1546     1  0.0000000  1.2552000  3
   1538   1550   1562   1563     1  0.0000000  0.6508444  3
   1538   1550   1562   1564     1  0.0000000  0.6508444  3
   1539   1538   1537   1541     1  0.0000000  1.2552000  3
   1539   1538   1537   1544     1  0.0000000  1.2552000  3
   1539   1538   1550   1562     1  0.0000000  0.6508444  3
   1539   1538   1550   1551     1  0.0000000  0.6508444  3
   1539   1538   1550   1552     1  0.0000000  0.6508444  3
   1540   1538   1537   1541     1  0.0000000  1.2552000  3
   1540   1538   1537   1544     1  0.0000000  1.2552000  3
   1540   1538   1550   1562     1  0.0000000  0.6508444  3
   1540   1538   1550   1551     1  0.0000000  0.6508444  3
   1540   1538   1550   1552     1  0.0000000  0.6508444  3
   1541   1537   1544   1545     1  0.0000000  1.2552000  3
   1541   1537   1544   1546     1  0.0000000  1.2552000  3
   1541   1553   1559   1560     1  0.0000000  0.6508444  3
   1541   1553   1559   1561     1  0.0000000  0.6508444  3
   1542   1541   1537   1544     1  0.0000000  1.2552000  3
   1542   1541   1553   1559     1  0.0000000  0.6508444  3
   1542   1541   1553   1554     1  0.0000000  0.6508444  3
   1542   1541   1553   1555     1  0.0000000  0.6508444  3
   1543   1541   1537   1544     1  0.0000000  1.2552000  3
   1543   1541   1553   1559     1  0.0000000  0.6508444  3
   1543   1541   1553   1554     1  0.0000000  0.6508444  3
   1543   1541   1553   1555     1  0.0000000  0.6508444  3
   1544   1547   1556   1557     1  0.0000000  0.6508444  3
   1544   1547   1556   1558     1  0.0000000  0.6508444  3
   1545   1544   1547   1556     1  0.0000000  0.6508444  3
   1545   1544   1547   1548     1  0.0000000  0.6508444  3
   1545   1544   1547   1549     1  0.0000000  0.6508444  3
   1546   1544   1547   1556     1  0.0000000  0.6508444  3
   1546   1544   1547   1548     1  0.0000000  0.6508444  3
   1546   1544   1547   1549     1  0.0000000  0.6508444  3
   1548   1547   1556   1565     1  0.0000000  1.0460000  1
   1548   1547   1556   1565     1  0.0000000  0.0000000  3
   1548   1547   1556   1557     1  0.0000000  0.6508444  3
   1548   1547   1556   1558     1  0.0000000  0.6508444  3
   1549   1547   1556   1565     1  0.0000000  1.0460000  1
   1549   1547   1556   1565     1  0.0000000  0.0000000  3
   1549   1547   1556   1557     1  0.0000000  0.6508444  3
   1549   1547   1556   1558     1  0.0000000  0.6508444  3
   1551   1550   1562   2889     1  0.0000000  1.0460000  1
   1551   1550   1562   2889     1  0.0000000  0.0000000  3
   1551   1550   1562   1563     1  0.0000000  0.6508444  3
   1551   1550   1562   1564     1  0.0000000  0.6508444  3
   1552   1550   1562   2889     1  0.0000000  1.0460000  1
   1552   1550   1562   2889     1  0.0000000  0.0000000  3
   1552   1550   1562   1563     1  0.0000000  0.6508444  3
   1552   1550   1562   1564     1  0.0000000  0.6508444  3
   1554   1553   1559   2866     1  0.0000000  1.0460000  1
   1554   1553   1559   2866     1  0.0000000  0.0000000  3
   1554   1553   1559   1560     1  0.0000000  0.6508444  3
   1554   1553   1559   1561     1  0.0000000  0.6508444  3
   1555   1553   1559   2866     1  0.0000000  1.0460000  1
   1555   1553   1559   2866     1  0.0000000  0.0000000  3
   1555   1553   1559   1560     1  0.0000000  0.6508444  3
   1555   1553   1559   1561     1  0.0000000  0.6508444  3
   1559   2866   2862   2865     1  0.0000000  1.6038667  3
   1560   1559   2866   2862     1  0.0000000  1.6038667  3
   1561   1559   2866   2862     1  0.0000000  1.6038667  3
   1562   2889   2885   2888     1  0.0000000  1.6038667  3
   1563   1562   2889   2885     1  0.0000000  1.6038667  3
   1564   1562   2889   2885     1  0.0000000  1.6038667  3
   1566   1567   1579   1580     1  0.0000000  0.6508444  3
   1566   1567   1579   1581     1  0.0000000  0.6508444  3
   1566   1570   1582   1583     1  0.0000000  0.6508444  3
   1566   1570   1582   1584     1  0.0000000  0.6508444  3
   1566   1573   1576   1577     1  0.0000000  0.6508444  3
   1566   1573   1576   1578     1  0.0000000  0.6508444  3
   1567   1566   1570   1571     1  0.0000000  1.2552000  3
   1567   1566   1570   1572     1  0.0000000  1.2552000  3
   1567   1566   1573   1574     1  0.0000000  1.2552000  3
   1567   1566   1573   1575     1  0.0000000  1.2552000  3
   1567   1579   1591   1592     1  0.0000000  0.6508444  3
   1567   1579   1591   1593     1  0.0000000  0.6508444  3
   1568   1567   1566   1570     1  0.0000000  1.2552000  3
   1568   1567   1566   1573     1  0.0000000  1.2552000  3
   1568   1567   1579   1591     1  0.0000000  0.6508444  3
   1568   1567   1579   1580     1  0.0000000  0.6508444  3
   1568   1567   1579   1581     1  0.0000000  0.6508444  3
   1569   1567   1566   1570     1  0.0000000  1.2552000  3
   1569   1567   1566   1573     1  0.0000000  1.2552000  3
   1569   1567   1579   1591     1  0.0000000  0.6508444  3
   1569   1567   1579   1580     1  0.0000000  0.6508444  3
   1569   1567   1579   1581     1  0.0000000  0.6508444  3
   1570   1566   1573   1574     1  0.0000000  1.2552000  3
   1570   1566   1573   1575     1  0.0000000  1.2552000  3
   1570   1582   1588   1589     1  0.0000000  0.6508444  3
   1570   1582   1588   1590     1  0.0000000  0.6508444  3
   1571   1570   1566   1573     1  0.0000000  1.2552000  3
   1571   1570   1582   1588     1  0.0000000  0.6508444  3
   1571   1570   1582   1583     1  0.0000000  0.6508444  3
   1571   1570   1582   1584     1  0.0000000  0.6508444  3
   1572   1570   1566   1573     1  0.0000000  1.2552000  3
   1572   1570   1582   1588     1  0.0000000  0.6508444  3
   1572   1570   1582   1583     1  0.0000000  0.6508444  3
   1572   1570   1582   1584     1  0.0000000  0.6508444  3
   1573   1576   1585   1586     1  0.0000000  0.6508444  3
   1573   1576   1585   1587     1  0.0000000  0.6508444  3
   1574   1573   1576   1585     1  0.0000000  0.6508444  3
   1574   1573   1576   1577     1  0.0000000  0.6508444  3
   1574   1573   1576   1578     1  0.0000000  0.6508444  3
   1575   1573   1576   1585     1  0.0000000  0.6508444  3
   1575   1573   1576   1577     1  0.0000000  0.6508444  3
   1575   1573   1576   1578     1  0.0000000  0.6508444  3
   1577   1576   1585   1594     1  0.0000000  1.0460000  1
   1577   1576   1585   1594     1  0.0000000  0.0000000  3
   1577   1576   1585   1586     1  0.0000000  0.6508444  3
   1577   1576   1585   1587     1  0.0000000  0.6508444  3
   1578   1576   1585   1594     1  0.0000000  1.0460000  1
   1578   1576   1585   1594     1  0.0000000  0.0000000  3
   1578   1576   1585   1586     1  0.0000000  0.6508444  3
   1578   1576   1585   1587     1  0.0000000  0.6508444  3
   1580   1579   1591   2935     1  0.0000000  1.0460000  1
   1580   1579   1591   2935     1  0.0000000  0.0000000  3
   1580   1579   1591   1592     1  0.0000000  0.6508444  3
   1580   1579   1591   1593     1  0.0000000  0.6508444  3
   1581   1579   1591   2935     1  0.0000000  1.0460000  1
   1581   1579   1591   2935     1  0.0000000  0.0000000  3
   1581   1579   1591   1592     1  0.0000000  0.6508444  3
   1581   1579   1591   1593     1  0.0000000  0.6508444  3
   1583   1582   1588   2912     1  0.0000000  1.0460000  1
   1583   1582   1588   2912     1  0.0000000  0.0000000  3
   1583   1582   1588   1589     1  0.0000000  0.6508444  3
   1583   1582   1588   1590     1  0.0000000  0.6508444  3
   1584   1582   1588   2912     1  0.0000000  1.0460000  1
   1584   1582   1588   2912     1  0.0000000  0.0000000  3
   1584   1582   1588   1589     1  0.0000000  0.6508444  3
   1584   1582   1588   1590     1  0.0000000  0.6508444  3
   1588   2912   2908   2911     1  0.0000000  1.6038667  3
   1589   1588   2912   2908     1  0.0000000  1.6038667  3
   1590   1588   2912   2908     1  0.0000000  1.6038667  3
   1591   2935   2931   2934     1  0.0000000  1.6038667  3
   1592   1591   2935   2931     1  0.0000000  1.6038667  3
   1593   1591   2935   2931     1  0.0000000  1.6038667  3
   1595   1596   1608   1609     1  0.0000000  0.6508444  3
   1595   1596   1608   1610     1  0.0000000  0.6508444  3
   1595   1599   1611   1612     1  0.0000000  0.6508444  3
   1595   1599   1611   1613     1  0.0000000  0.6508444  3
   1595   1602   1605   1606     1  0.0000000  0.6508444  3
   1595   1602   1605   1607     1  0.0000000  0.6508444  3
   1596   1595   1599   1600     1  0.0000000  1.2552000  3
   1596   1595   1599   1601     1  0.0000000  1.2552000  3
   1596   1595   1602   1603     1  0.0000000  1.2552000  3
   1596   1595   1602   1604     1  0.0000000  1.2552000  3
   1596   1608   1620   1621     1  0.0000000  0.6508444  3
   1596   1608   1620   1622     1  0.0000000  0.6508444  3
   1597   1596   1595   1599     1  0.0000000  1.2552000  3
   1597   1596   1595   1602     1  0.0000000  1.2552000  3
   1597   1596   1608   1620     1  0.0000000  0.6508444  3
   1597   1596   1608   1609     1  0.0000000  0.6508444  3
   1597   1596   1608   1610     1  0.0000000  0.6508444  3
   1598   1596   1595   1599     1  0.0000000  1.2552000  3
   1598   1596   1595   1602     1  0.0000000  1.2552000  3
   1598   1596   1608   1620     1  0.0000000  0.6508444  3
   1598   1596   1608   1609     1  0.0000000  0.6508444  3
   1598   1596   1608   1610     1  0.0000000  0.6508444  3
   1599   1595   1602   1603     1  0.0000000  1.2552000  3
   1599   1595   1602   1604     1  0.0000000  1.2552000  3
   1599   1611   1617   1618     1  0.0000000  0.6508444  3
   1599   1611   1617   1619     1  0.0000000  0.6508444  3
   1600   1599   1595   1602     1  0.0000000  1.2552000  3
   1600   1599   1611   1617     1  0.0000000  0.6508444  3
   1600   1599   1611   1612     1  0.0000000  0.6508444  3
   1600   1599   1611   1613     1  0.0000000  0.6508444  3
   1601   1599   1595   1602     1  0.0000000  1.2552000  3
   1601   1599   1611   1617     1  0.0000000  0.6508444  3
   1601   1599   1611   1612     1  0.0000000  0.6508444  3
   1601   1599   1611   1613     1  0.0000000  0.6508444  3
   1602   1605   1614   1615     1  0.0000000  0.6508444  3
   1602   1605   1614   1616     1  0.0000000  0.6508444  3
   1603   1602   1605   1614     1  0.0000000  0.6508444  3
   1603   1602   1605   1606     1  0.0000000  0.6508444  3
   1603   1602   1605   1607     1  0.0000000  0.6508444  3
   1604   1602   1605   1614     1  0.0000000  0.6508444  3
   1604   1602   1605   1606     1  0.0000000  0.6508444  3
   1604   1602   1605   1607     1  0.0000000  0.6508444  3
   1606   1605   1614   1623     1  0.0000000  1.0460000  1
   1606   1605   1614   1623     1  0.0000000  0.0000000  3
   1606   1605   1614   1615     1  0.0000000  0.6508444  3
   1606   1605   1614   1616     1  0.0000000  0.6508444  3
   1607   1605   1614   1623     1  0.0000000  1.0460000  1
   1607   1605   1614   1623     1  0.0000000  0.0000000  3
   1607   1605   1614   1615     1  0.0000000  0.6508444  3
   1607   1605   1614   1616     1  0.0000000  0.6508444  3
   1609   1608   1620   2981     1  0.0000000  1.0460000  1
   1609   1608   1620   2981     1  0.0000000  0.0000000  3
   1609   1608   1620   1621     1  0.0000000  0.6508444  3
   1609   1608   1620   1622     1  0.0000000  0.6508444  3
   1610   1608   1620   2981     1  0.0000000  1.0460000  1
   1610   1608   1620   2981     1  0.0000000  0.0000000  3
   1610   1608   1620   1621     1  0.0000000  0.6508444  3
   1610   1608   1620   1622     1  0.0000000  0.6508444  3
   1612   1611   1617   2958     1  0.0000000  1.0460000  1
   1612   1611   1617   2958     1  0.0000000  0.0000000  3
   1612   1611   1617   1618     1  0.0000000  0.6508444  3
   1612   1611   1617   1619     1  0.0000000  0.6508444  3
   1613   1611   1617   2958     1  0.0000000  1.0460000  1
   1613   1611   1617   2958     1  0.0000000  0.0000000  3
   1613   1611   1617   1618     1  0.0000000  0.6508444  3
   1613   1611   1617   1619     1  0.0000000  0.6508444  3
   1617   2958   2954   2957     1  0.0000000  1.6038667  3
   1618   1617   2958   2954     1  0.0000000  1.6038667  3
   1619   1617   2958   2954     1  0.0000000  1.6038667  3
   1620   2981   2977   2980     1  0.0000000  1.6038667  3
   1621   1620   2981   2977     1  0.0000000  1.6038667  3
   1622   1620   2981   2977     1  0.0000000  1.6038667  3
   1624   1625   1637   1638     1  0.0000000  0.6508444  3
   1624   1625   1637   1639     1  0.0000000  0.6508444  3
   1624   1628   1640   1641     1  0.0000000  0.6508444  3
   1624   1628   1640   1642     1  0.0000000  0.6508444  3
   1624   1631   1634   1635     1  0.0000000  0.6508444  3
   1624   1631   1634   1636     1  0.0000000  0.6508444  3
   1625   1624   1628   1629     1  0.0000000  1.2552000  3
   1625   1624   1628   1630     1  0.0000000  1.2552000  3
   1625   1624   1631   1632     1  0.0000000  1.2552000  3
   1625   1624   1631   1633     1  0.0000000  1.2552000  3
   1625   1637   1649   1650     1  0.0000000  0.6508444  3
   1625   1637   1649   1651     1  0.0000000  0.6508444  3
   1626   1625   1624   1628     1  0.0000000  1.2552000  3
   1626   1625   1624   1631     1  0.0000000  1.2552000  3
   1626   1625   1637   1649     1  0.0000000  0.6508444  3
   1626   1625   1637   1638     1  0.0000000  0.6508444  3
   1626   1625   1637   1639     1  0.0000000  0.6508444  3
   1627   1625   1624   1628     1  0.0000000  1.2552000  3
   1627   1625   1624   1631     1  0.0000000  1.2552000  3
   1627   1625   1637   1649     1  0.0000000  0.6508444  3
   1627   1625   1637   1638     1  0.0000000  0.6508444  3
   1627   1625   1637   1639     1  0.0000000  0.6508444  3
   1628   1624   1631   1632     1  0.0000000  1.2552000  3
   1628   1624   1631   1633     1  0.0000000  1.2552000  3
   1628   1640   1646   1647     1  0.0000000  0.6508444  3
   1628   1640   1646   1648     1  0.0000000  0.6508444  3
   1629   1628   1624   1631     1  0.0000000  1.2552000  3
   1629   1628   1640   1646     1  0.0000000  0.6508444  3
   1629   1628   1640   1641     1  0.0000000  0.6508444  3
   1629   1628   1640   1642     1  0.0000000  0.6508444  3
   1630   1628   1624   1631     1  0.0000000  1.2552000  3
   1630   1628   1640   1646     1  0.0000000  0.6508444  3
   1630   1628   1640   1641     1  0.0000000  0.6508444  3
   1630   1628   1640   1642     1  0.0000000  0.6508444  3
   1631   1634   1643   1644     1  0.0000000  0.6508444  3
   1631   1634   1643   1645     1  0.0000000  0.6508444  3
   1632   1631   1634   1643     1  0.0000000  0.6508444  3
   1632   1631   1634   1635     1  0.0000000  0.6508444  3
   1632   1631   1634   1636     1  0.0000000  0.6508444  3
   1633   1631   1634   1643     1  0.0000000  0.6508444  3
   1633   1631   1634   1635     1  0.0000000  0.6508444  3
   1633   1631   1634   1636     1  0.0000000  0.6508444  3
   1635   1634   1643   1652     1  0.0000000  1.0460000  1
   1635   1634   1643   1652     1  0.0000000  0.0000000  3
   1635   1634   1643   1644     1  0.0000000  0.6508444  3
   1635   1634   1643   1645     1  0.0000000  0.6508444  3
   1636   1634   1643   1652     1  0.0000000  1.0460000  1
   1636   1634   1643   1652     1  0.0000000  0.0000000  3
   1636   1634   1643   1644     1  0.0000000  0.6508444  3
   1636   1634   1643   1645     1  0.0000000  0.6508444  3
   1638   1637   1649   3027     1  0.0000000  1.0460000  1
   1638   1637   1649   3027     1  0.0000000  0.0000000  3
   1638   1637   1649   1650     1  0.0000000  0.6508444  3
   1638   1637   1649   1651     1  0.0000000  0.6508444  3
   1639   1637   1649   3027     1  0.0000000  1.0460000  1
   1639   1637   1649   3027     1  0.0000000  0.0000000  3
   1639   1637   1649   1650     1  0.0000000  0.6508444  3
   1639   1637   1649   1651     1  0.0000000  0.6508444  3
   1641   1640   1646   3004     1  0.0000000  1.0460000  1
   1641   1640   1646   3004     1  0.0000000  0.0000000  3
   1641   1640   1646   1647     1  0.0000000  0.6508444  3
   1641   1640   1646   1648     1  0.0000000  0.6508444  3
   1642   1640   1646   3004     1  0.0000000  1.0460000  1
   1642   1640   1646   3004     1  0.0000000  0.0000000  3
   1642   1640   1646   1647     1  0.0000000  0.6508444  3
   1642   1640   1646   1648     1  0.0000000  0.6508444  3
   1646   3004   3000   3003     1  0.0000000  1.6038667  3
   1647   1646   3004   3000     1  0.0000000  1.6038667  3
   1648   1646   3004   3000     1  0.0000000  1.6038667  3
   1649   3027   3023   3026     1  0.0000000  1.6038667  3
   1650   1649   3027   3023     1  0.0000000  1.6038667  3
   1651   1649   3027   3023     1  0.0000000  1.6038667  3
   1653   1654   1666   1667     1  0.0000000  0.6508444  3
   1653   1654   1666   1668     1  0.0000000  0.6508444  3
   1653   1657   1669   1670     1  0.0000000  0.6508444  3
   1653   1657   1669   1671     1  0.0000000  0.6508444  3
   1653   1660   1663   1664     1  0.0000000  0.6508444  3
   1653   1660   1663   1665     1  0.0000000  0.6508444  3
   1654   1653   1657   1658     1  0.0000000  1.2552000  3
   1654   1653   1657   1659     1  0.0000000  1.2552000  3
   1654   1653   1660   1661     1  0.0000000  1.2552000  3
   1654   1653   1660   1662     1  0.0000000  1.2552000  3
   1654   1666   1678   1679     1  0.0000000  0.6508444  3
   1654   1666   1678   1680     1  0.0000000  0.6508444  3
   1655   1654   1653   1657     1  0.0000000  1.2552000  3
   1655   1654   1653   1660     1  0.0000000  1.2552000  3
   1655   1654   1666   1678     1  0.0000000  0.6508444  3
   1655   1654   1666   1667     1  0.0000000  0.6508444  3
   1655   1654   1666   1668     1  0.0000000  0.6508444  3
   1656   1654   1653   1657     1  0.0000000  1.2552000  3
   1656   1654   1653   1660     1  0.0000000  1.2552000  3
   1656   1654   1666   1678     1  0.0000000  0.6508444  3
   1656   1654   1666   1667     1  0.0000000  0.6508444  3
   1656   1654   1666   1668     1  0.0000000  0.6508444  3
   1657   1653   1660   1661     1  0.0000000  1.2552000  3
   1657   1653   1660   1662     1  0.0000000  1.2552000  3
   1657   1669   1675   1676     1  0.0000000  0.6508444  3
   1657   1669   1675   1677     1  0.0000000  0.6508444  3
   1658   1657   1653   1660     1  0.0000000  1.2552000  3
   1658   1657   1669   1675     1  0.0000000  0.6508444  3
   1658   1657   1669   1670     1  0.0000000  0.6508444  3
   1658   1657   1669   1671     1  0.0000000  0.6508444  3
   1659   1657   1653   1660     1  0.0000000  1.2552000  3
   1659   1657   1669   1675     1  0.0000000  0.6508444  3
   1659   1657   1669   1670     1  0.0000000  0.6508444  3
   1659   1657   1669   1671     1  0.0000000  0.6508444  3
   1660   1663   1672   1673     1  0.0000000  0.6508444  3
   1660   1663   1672   1674     1  0.0000000  0.6508444  3
   1661   1660   1663   1672     1  0.0000000  0.6508444  3
   1661   1660   1663   1664     1  0.0000000  0.6508444  3
   1661   1660   1663   1665     1  0.0000000  0.6508444  3
   1662   1660   1663   1672     1  0.0000000  0.6508444  3
   1662   1660   1663   1664     1  0.0000000  0.6508444  3
   1662   1660   1663   1665     1  0.0000000  0.6508444  3
   1664   1663   1672   1681     1  0.0000000  1.0460000  1
   1664   1663   1672   1681     1  0.0000000  0.0000000  3
   1664   1663   1672   1673     1  0.0000000  0.6508444  3
   1664   1663   1672   1674     1  0.0000000  0.6508444  3
   1665   1663   1672   1681     1  0.0000000  1.0460000  1
   1665   1663   1672   1681     1  0.0000000  0.0000000  3
   1665   1663   1672   1673     1  0.0000000  0.6508444  3
   1665   1663   1672   1674     1  0.0000000  0.6508444  3
   1667   1666   1678   3073     1  0.0000000  1.0460000  1
   1667   1666   1678   3073     1  0.0000000  0.0000000  3
   1667   1666   1678   1679     1  0.0000000  0.6508444  3
   1667   1666   1678   1680     1  0.0000000  0.6508444  3
   1668   1666   1678   3073     1  0.0000000  1.0460000  1
   1668   1666   1678   3073     1  0.0000000  0.0000000  3
   1668   1666   1678   1679     1  0.0000000  0.6508444  3
   1668   1666   1678   1680     1  0.0000000  0.6508444  3
   1670   1669   1675   3050     1  0.0000000  1.0460000  1
   1670   1669   1675   3050     1  0.0000000  0.0000000  3
   1670   1669   1675   1676     1  0.0000000  0.6508444  3
   1670   1669   1675   1677     1  0.0000000  0.6508444  3
   1671   1669   1675   3050     1  0.0000000  1.0460000  1
   1671   1669   1675   3050     1  0.0000000  0.0000000  3
   1671   1669   1675   1676     1  0.0000000  0.6508444  3
   1671   1669   1675   1677     1  0.0000000  0.6508444  3
   1675   3050   3046   3049     1  0.0000000  1.6038667  3
   1676   1675   3050   3046     1  0.0000000  1.6038667  3
   1677   1675   3050   3046     1  0.0000000  1.6038667  3
   1678   3073   3069   3072     1  0.0000000  1.6038667  3
   1679   1678   3073   3069     1  0.0000000  1.6038667  3
   1680   1678   3073   3069     1  0.0000000  1.6038667  3
   1682   1683   1695   1696     1  0.0000000  0.6508444  3
   1682   1683   1695   1697     1  0.0000000  0.6508444  3
   1682   1686   1698   1699     1  0.0000000  0.6508444  3
   1682   1686   1698   1700     1  0.0000000  0.6508444  3
   1682   1689   1692   1693     1  0.0000000  0.6508444  3
   1682   1689   1692   1694     1  0.0000000  0.6508444  3
   1683   1682   1686   1687     1  0.0000000  1.2552000  3
   1683   1682   1686   1688     1  0.0000000  1.2552000  3
   1683   1682   1689   1690     1  0.0000000  1.2552000  3
   1683   1682   1689   1691     1  0.0000000  1.2552000  3
   1683   1695   1707   1708     1  0.0000000  0.6508444  3
   1683   1695   1707   1709     1  0.0000000  0.6508444  3
   1684   1683   1682   1686     1  0.0000000  1.2552000  3
   1684   1683   1682   1689     1  0.0000000  1.2552000  3
   1684   1683   1695   1707     1  0.0000000  0.6508444  3
   1684   1683   1695   1696     1  0.0000000  0.6508444  3
   1684   1683   1695   1697     1  0.0000000  0.6508444  3
   1685   1683   1682   1686     1  0.0000000  1.2552000  3
   1685   1683   1682   1689     1  0.0000000  1.2552000  3
   1685   1683   1695   1707     1  0.0000000  0.6508444  3
   1685   1683   1695   1696     1  0.0000000  0.6508444  3
   1685   1683   1695   1697     1  0.0000000  0.6508444  3
   1686   1682   1689   1690     1  0.0000000  1.2552000  3
   1686   1682   1689   1691     1  0.0000000  1.2552000  3
   1686   1698   1704   1705     1  0.0000000  0.6508444  3
   1686   1698   1704   1706     1  0.0000000  0.6508444  3
   1687   1686   1682   1689     1  0.0000000  1.2552000  3
   1687   1686   1698   1704     1  0.0000000  0.6508444  3
   1687   1686   1698   1699     1  0.0000000  0.6508444  3
   1687   1686   1698   1700     1  0.0000000  0.6508444  3
   1688   1686   1682   1689     1  0.0000000  1.2552000  3
   1688   1686   1698   1704     1  0.0000000  0.6508444  3
   1688   1686   1698   1699     1  0.0000000  0.6508444  3
   1688   1686   1698   1700     1  0.0000000  0.6508444  3
   1689   1692   1701   1702     1  0.0000000  0.6508444  3
   1689   1692   1701   1703     1  0.0000000  0.6508444  3
   1690   1689   1692   1701     1  0.0000000  0.6508444  3
   1690   1689   1692   1693     1  0.0000000  0.6508444  3
   1690   1689   1692   1694     1  0.0000000  0.6508444  3
   1691   1689   1692   1701     1  0.0000000  0.6508444  3
   1691   1689   1692   1693     1  0.0000000  0.6508444  3
   1691   1689   1692   1694     1  0.0000000  0.6508444  3
   1693   1692   1701   1710     1  0.0000000  1.0460000  1
   1693   1692   1701   1710     1  0.0000000  0.0000000  3
   1693   1692   1701   1702     1  0.0000000  0.6508444  3
   1693   1692   1701   1703     1  0.0000000  0.6508444  3
   1694   1692   1701   1710     1  0.0000000  1.0460000  1
   1694   1692   1701   1710     1  0.0000000  0.0000000  3
   1694   1692   1701   1702     1  0.0000000  0.6508444  3
   1694   1692   1701   1703     1  0.0000000  0.6508444  3
   1696   1695   1707   3119     1  0.0000000  1.0460000  1
   1696   1695   1707   3119     1  0.0000000  0.0000000  3
   1696   1695   1707   1708     1  0.0000000  0.6508444  3
   1696   1695   1707   1709     1  0.0000000  0.6508444  3
   1697   1695   1707   3119     1  0.0000000  1.0460000  1
   1697   1695   1707   3119     1  0.0000000  0.0000000  3
   1697   1695   1707   1708     1  0.0000000  0.6508444  3
   1697   1695   1707   1709     1  0.0000000  0.6508444  3
   1699   1698   1704   3096     1  0.0000000  1.0460000  1
   1699   1698   1704   3096     1  0.0000000  0.0000000  3
   1699   1698   1704   1705     1  0.0000000  0.6508444  3
   1699   1698   1704   1706     1  0.0000000  0.6508444  3
   1700   1698   1704   3096     1  0.0000000  1.0460000  1
   1700   1698   1704   3096     1  0.0000000  0.0000000  3
   1700   1698   1704   1705     1  0.0000000  0.6508444  3
   1700   1698   1704   1706     1  0.0000000  0.6508444  3
   1704   3096   3092   3095     1  0.0000000  1.6038667  3
   1705   1704   3096   3092     1  0.0000000  1.6038667  3
   1706   1704   3096   3092     1  0.0000000  1.6038667  3
   1707   3119   3115   3118     1  0.0000000  1.6038667  3
   1708   1707   3119   3115     1  0.0000000  1.6038667  3
   1709   1707   3119   3115     1  0.0000000  1.6038667  3
   1711   1712   1724   1725     1  0.0000000  0.6508444  3
   1711   1712   1724   1726     1  0.0000000  0.6508444  3
   1711   1715   1727   1728     1  0.0000000  0.6508444  3
   1711   1715   1727   1729     1  0.0000000  0.6508444  3
   1711   1718   1721   1722     1  0.0000000  0.6508444  3
   1711   1718   1721   1723     1  0.0000000  0.6508444  3
   1712   1711   1715   1716     1  0.0000000  1.2552000  3
   1712   1711   1715   1717     1  0.0000000  1.2552000  3
   1712   1711   1718   1719     1  0.0000000  1.2552000  3
   1712   1711   1718   1720     1  0.0000000  1.2552000  3
   1712   1724   1736   1737     1  0.0000000  0.6508444  3
   1712   1724   1736   1738     1  0.0000000  0.6508444  3
   1713   1712   1711   1715     1  0.0000000  1.2552000  3
   1713   1712   1711   1718     1  0.0000000  1.2552000  3
   1713   1712   1724   1736     1  0.0000000  0.6508444  3
   1713   1712   1724   1725     1  0.0000000  0.6508444  3
   1713   1712   1724   1726     1  0.0000000  0.6508444  3
   1714   1712   1711   1715     1  0.0000000  1.2552000  3
   1714   1712   1711   1718     1  0.0000000  1.2552000  3
   1714   1712   1724   1736     1  0.0000000  0.6508444  3
   1714   1712   1724   1725     1  0.0000000  0.6508444  3
   1714   1712   1724   1726     1  0.0000000  0.6508444  3
   1715   1711   1718   1719     1  0.0000000  1.2552000  3
   1715   1711   1718   1720     1  0.0000000  1.2552000  3
   1715   1727   1733   1734     1  0.0000000  0.6508444  3
   1715   1727   1733   1735     1  0.0000000  0.6508444  3
   1716   1715   1711   1718     1  0.0000000  1.2552000  3
   1716   1715   1727   1733     1  0.0000000  0.6508444  3
   1716   1715   1727   1728     1  0.0000000  0.6508444  3
   1716   1715   1727   1729     1  0.0000000  0.6508444  3
   1717   1715   1711   1718     1  0.0000000  1.2552000  3
   1717   1715   1727   1733     1  0.0000000  0.6508444  3
   1717   1715   1727   1728     1  0.0000000  0.6508444  3
   1717   1715   1727   1729     1  0.0000000  0.6508444  3
   1718   1721   1730   1731     1  0.0000000  0.6508444  3
   1718   1721   1730   1732     1  0.0000000  0.6508444  3
   1719   1718   1721   1730     1  0.0000000  0.6508444  3
   1719   1718   1721   1722     1  0.0000000  0.6508444  3
   1719   1718   1721   1723     1  0.0000000  0.6508444  3
   1720   1718   1721   1730     1  0.0000000  0.6508444  3
   1720   1718   1721   1722     1  0.0000000  0.6508444  3
   1720   1718   1721   1723     1  0.0000000  0.6508444  3
   1722   1721   1730   1739     1  0.0000000  1.0460000  1
   1722   1721   1730   1739     1  0.0000000  0.0000000  3
   1722   1721   1730   1731     1  0.0000000  0.6508444  3
   1722   1721   1730   1732     1  0.0000000  0.6508444  3
   1723   1721   1730   1739     1  0.0000000  1.0460000  1
   1723   1721   1730   1739     1  0.0000000  0.0000000  3
   1723   1721   1730   1731     1  0.0000000  0.6508444  3
   1723   1721   1730   1732     1  0.0000000  0.6508444  3
   1725   1724   1736   3165     1  0.0000000  1.0460000  1
   1725   1724   1736   3165     1  0.0000000  0.0000000  3
   1725   1724   1736   1737     1  0.0000000  0.6508444  3
   1725   1724   1736   1738     1  0.0000000  0.6508444  3
   1726   1724   1736   3165     1  0.0000000  1.0460000  1
   1726   1724   1736   3165     1  0.0000000  0.0000000  3
   1726   1724   1736   1737     1  0.0000000  0.6508444  3
   1726   1724   1736   1738     1  0.0000000  0.6508444  3
   1728   1727   1733   3142     1  0.0000000  1.0460000  1
   1728   1727   1733   3142     1  0.0000000  0.0000000  3
   1728   1727   1733   1734     1  0.0000000  0.6508444  3
   1728   1727   1733   1735     1  0.0000000  0.6508444  3
   1729   1727   1733   3142     1  0.0000000  1.0460000  1
   1729   1727   1733   3142     1  0.0000000  0.0000000  3
   1729   1727   1733   1734     1  0.0000000  0.6508444  3
   1729   1727   1733   1735     1  0.0000000  0.6508444  3
   1733   3142   3138   3141     1  0.0000000  1.6038667  3
   1734   1733   3142   3138     1  0.0000000  1.6038667  3
   1735   1733   3142   3138     1  0.0000000  1.6038667  3
   1736   3165   3161   3164     1  0.0000000  1.6038667  3
   1737   1736   3165   3161     1  0.0000000  1.6038667  3
   1738   1736   3165   3161     1  0.0000000  1.6038667  3
   1740   1741   1753   1754     1  0.0000000  0.6508444  3
   1740   1741   1753   1755     1  0.0000000  0.6508444  3
   1740   1744   1756   1757     1  0.0000000  0.6508444  3
   1740   1744   1756   1758     1  0.0000000  0.6508444  3
   1740   1747   1750   1751     1  0.0000000  0.6508444  3
   1740   1747   1750   1752     1  0.0000000  0.6508444  3
   1741   1740   1744   1745     1  0.0000000  1.2552000  3
   1741   1740   1744   1746     1  0.0000000  1.2552000  3
   1741   1740   1747   1748     1  0.0000000  1.2552000  3
   1741   1740   1747   1749     1  0.0000000  1.2552000  3
   1741   1753   1765   1766     1  0.0000000  0.6508444  3
   1741   1753   1765   1767     1  0.0000000  0.6508444  3
   1742   1741   1740   1744     1  0.0000000  1.2552000  3
   1742   1741   1740   1747     1  0.0000000  1.2552000  3
   1742   1741   1753   1765     1  0.0000000  0.6508444  3
   1742   1741   1753   1754     1  0.0000000  0.6508444  3
   1742   1741   1753   1755     1  0.0000000  0.6508444  3
   1743   1741   1740   1744     1  0.0000000  1.2552000  3
   1743   1741   1740   1747     1  0.0000000  1.2552000  3
   1743   1741   1753   1765     1  0.0000000  0.6508444  3
   1743   1741   1753   1754     1  0.0000000  0.6508444  3
   1743   1741   1753   1755     1  0.0000000  0.6508444  3
   1744   1740   1747   1748     1  0.0000000  1.2552000  3
   1744   1740   1747   1749     1  0.0000000  1.2552000  3
   1744   1756   1762   1763     1  0.0000000  0.6508444  3
   1744   1756   1762   1764     1  0.0000000  0.6508444  3
   1745   1744   1740   1747     1  0.0000000  1.2552000  3
   1745   1744   1756   1762     1  0.0000000  0.6508444  3
   1745   1744   1756   1757     1  0.0000000  0.6508444  3
   1745   1744   1756   1758     1  0.0000000  0.6508444  3
   1746   1744   1740   1747     1  0.0000000  1.2552000  3
   1746   1744   1756   1762     1  0.0000000  0.6508444  3
   1746   1744   1756   1757     1  0.0000000  0.6508444  3
   1746   1744   1756   1758     1  0.0000000  0.6508444  3
   1747   1750   1759   1760     1  0.0000000  0.6508444  3
   1747   1750   1759   1761     1  0.0000000  0.6508444  3
   1748   1747   1750   1759     1  0.0000000  0.6508444  3
   1748   1747   1750   1751     1  0.0000000  0.6508444  3
   1748   1747   1750   1752     1  0.0000000  0.6508444  3
   1749   1747   1750   1759     1  0.0000000  0.6508444  3
   1749   1747   1750   1751     1  0.0000000  0.6508444  3
   1749   1747   1750   1752     1  0.0000000  0.6508444  3
   1751   1750   1759   1768     1  0.0000000  1.0460000  1
   1751   1750   1759   1768     1  0.0000000  0.0000000  3
   1751   1750   1759   1760     1  0.0000000  0.6508444  3
   1751   1750   1759   1761     1  0.0000000  0.6508444  3
   1752   1750   1759   1768     1  0.0000000  1.0460000  1
   1752   1750   1759   1768     1  0.0000000  0.0000000  3
   1752   1750   1759   1760     1  0.0000000  0.6508444  3
   1752   1750   1759   1761     1  0.0000000  0.6508444  3
   1754   1753   1765   3211     1  0.0000000  1.0460000  1
   1754   1753   1765   3211     1  0.0000000  0.0000000  3
   1754   1753   1765   1766     1  0.0000000  0.6508444  3
   1754   1753   1765   1767     1  0.0000000  0.6508444  3
   1755   1753   1765   3211     1  0.0000000  1.0460000  1
   1755   1753   1765   3211     1  0.0000000  0.0000000  3
   1755   1753   1765   1766     1  0.0000000  0.6508444  3
   1755   1753   1765   1767     1  0.0000000  0.6508444  3
   1757   1756   1762   3188     1  0.0000000  1.0460000  1
   1757   1756   1762   3188     1  0.0000000  0.0000000  3
   1757   1756   1762   1763     1  0.0000000  0.6508444  3
   1757   1756   1762   1764     1  0.0000000  0.6508444  3
   1758   1756   1762   3188     1  0.0000000  1.0460000  1
   1758   1756   1762   3188     1  0.0000000  0.0000000  3
   1758   1756   1762   1763     1  0.0000000  0.6508444  3
   1758   1756   1762   1764     1  0.0000000  0.6508444  3
   1762   3188   3184   3187     1  0.0000000  1.6038667  3
   1763   1762   3188   3184     1  0.0000000  1.6038667  3
   1764   1762   3188   3184     1  0.0000000  1.6038667  3
   1765   3211   3207   3210     1  0.0000000  1.6038667  3
   1766   1765   3211   3207     1  0.0000000  1.6038667  3
   1767   1765   3211   3207     1  0.0000000  1.6038667  3
   1769   1770   1782   1783     1  0.0000000  0.6508444  3
   1769   1770   1782   1784     1  0.0000000  0.6508444  3
   1769   1773   1785   1786     1  0.0000000  0.6508444  3
   1769   1773   1785   1787     1  0.0000000  0.6508444  3
   1769   1776   1779   1780     1  0.0000000  0.6508444  3
   1769   1776   1779   1781     1  0.0000000  0.6508444  3
   1770   1769   1773   1774     1  0.0000000  1.2552000  3
   1770   1769   1773   1775     1  0.0000000  1.2552000  3
   1770   1769   1776   1777     1  0.0000000  1.2552000  3
   1770   1769   1776   1778     1  0.0000000  1.2552000  3
   1770   1782   1794   1795     1  0.0000000  0.6508444  3
   1770   1782   1794   1796     1  0.0000000  0.6508444  3
   1771   1770   1769   1773     1  0.0000000  1.2552000  3
   1771   1770   1769   1776     1  0.0000000  1.2552000  3
   1771   1770   1782   1794     1  0.0000000  0.6508444  3
   1771   1770   1782   1783     1  0.0000000  0.6508444  3
   1771   1770   1782   1784     1  0.0000000  0.6508444  3
   1772   1770   1769   1773     1  0.0000000  1.2552000  3
   1772   1770   1769   1776     1  0.0000000  1.2552000  3
   1772   1770   1782   1794     1  0.0000000  0.6508444  3
   1772   1770   1782   1783     1  0.0000000  0.6508444  3
   1772   1770   1782   1784     1  0.0000000  0.6508444  3
   1773   1769   1776   1777     1  0.0000000  1.2552000  3
   1773   1769   1776   1778     1  0.0000000  1.2552000  3
   1773   1785   1791   1792     1  0.0000000  0.6508444  3
   1773   1785   1791   1793     1  0.0000000  0.6508444  3
   1774   1773   1769   1776     1  0.0000000  1.2552000  3
   1774   1773   1785   1791     1  0.0000000  0.6508444  3
   1774   1773   1785   1786     1  0.0000000  0.6508444  3
   1774   1773   1785   1787     1  0.0000000  0.6508444  3
   1775   1773   1769   1776     1  0.0000000  1.2552000  3
   1775   1773   1785   1791     1  0.0000000  0.6508444  3
   1775   1773   1785   1786     1  0.0000000  0.6508444  3
   1775   1773   1785   1787     1  0.0000000  0.6508444  3
   1776   1779   1788   1789     1  0.0000000  0.6508444  3
   1776   1779   1788   1790     1  0.0000000  0.6508444  3
   1777   1776   1779   1788     1  0.0000000  0.6508444  3
   1777   1776   1779   1780     1  0.0000000  0.6508444  3
   1777   1776   1779   1781     1  0.0000000  0.6508444  3
   1778   1776   1779   1788     1  0.0000000  0.6508444  3
   1778   1776   1779   1780     1  0.0000000  0.6508444  3
   1778   1776   1779   1781     1  0.0000000  0.6508444  3
   1780   1779   1788   1797     1  0.0000000  1.0460000  1
   1780   1779   1788   1797     1  0.0000000  0.0000000  3
   1780   1779   1788   1789     1  0.0000000  0.6508444  3
   1780   1779   1788   1790     1  0.0000000  0.6508444  3
   1781   1779   1788   1797     1  0.0000000  1.0460000  1
   1781   1779   1788   1797     1  0.0000000  0.0000000  3
   1781   1779   1788   1789     1  0.0000000  0.6508444  3
   1781   1779   1788   1790     1  0.0000000  0.6508444  3
   1783   1782   1794   3257     1  0.0000000  1.0460000  1
   1783   1782   1794   3257     1  0.0000000  0.0000000  3
   1783   1782   1794   1795     1  0.0000000  0.6508444  3
   1783   1782   1794   1796     1  0.0000000  0.6508444  3
   1784   1782   1794   3257     1  0.0000000  1.0460000  1
   1784   1782   1794   3257     1  0.0000000  0.0000000  3
   1784   1782   1794   1795     1  0.0000000  0.6508444  3
   1784   1782   1794   1796     1  0.0000000  0.6508444  3
   1786   1785   1791   3234     1  0.0000000  1.0460000  1
   1786   1785   1791   3234     1  0.0000000  0.0000000  3
   1786   1785   1791   1792     1  0.0000000  0.6508444  3
   1786   1785   1791   1793     1  0.0000000  0.6508444  3
   1787   1785   1791   3234     1  0.0000000  1.0460000  1
   1787   1785   1791   3234     1  0.0000000  0.0000000  3
   1787   1785   1791   1792     1  0.0000000  0.6508444  3
   1787   1785   1791   1793     1  0.0000000  0.6508444  3
   1791   3234   3230   3233     1  0.0000000  1.6038667  3
   1792   1791   3234   3230     1  0.0000000  1.6038667  3
   1793   1791   3234   3230     1  0.0000000  1.6038667  3
   1794   3257   3253   3256     1  0.0000000  1.6038667  3
   1795   1794   3257   3253     1  0.0000000  1.6038667  3
   1796   1794   3257   3253     1  0.0000000  1.6038667  3
   1798   1799   1802   1806     1  0.0000000  0.6508444  3
   1798   1799   1811   1814     1  0.0000000  1.0460000  1
   1798   1799   1811   1814     1  0.0000000  0.6694400  3
   1798   1812   1818   1819     1  0.0000000  1.0460000  1
   1798   1812   1818   1819     1  0.0000000  0.6694400  3
   1798   1820   1804   1807     1  0.0000000  1.6038667  3
   1799   1798   1812   1816     1  0.0000000  0.6508444  3
   1799   1798   1812   1817     1  0.0000000  0.6508444  3
   1799   1802   1803   1805     1  0.0000000  0.6508444  3
   1799   1802   1810   1813     1  0.0000000  1.0460000  1
   1799   1802   1810   1813     1  0.0000000  0.6694400  3
   1800   1798   1799   1802     1  0.0000000  0.6508444  3
   1800   1798   1799   1811     1  0.0000000  1.0460000  1
   1800   1798   1799   1811     1  0.0000000  0.0000000  3
   1800   1798   1799   1801     1  0.0000000  0.6508444  3
   1800   1798   1812   1818     1  0.0000000  1.0460000  1
   1800   1798   1812   1818     1  0.0000000  0.0000000  3
   1800   1798   1812   1816     1  0.0000000  0.6508444  3
   1800   1798   1812   1817     1  0.0000000  0.6508444  3
   1800   1798   1820   1804     1  0.0000000  1.6038667  3
   1801   1799   1798   1812     1  0.0000000  0.6508444  3
   1801   1799   1798   1820     1  0.0000000  1.0460000  1
   1801   1799   1798   1820     1  0.0000000  0.0000000  3
   1801   1799   1802   1803     1  0.0000000  0.6508444  3
   1801   1799   1802   1810     1  0.0000000  1.0460000  1
   1801   1799   1802   1810     1  0.0000000  0.0000000  3
   1801   1799   1802   1806     1  0.0000000  0.6508444  3
   1801   1799   1811   1814     1  0.0000000  0.6973333  3
   1802   1799   1811   1814     1  0.0000000  1.0460000  1
   1802   1799   1811   1814     1  0.0000000  0.6694400  3
   1802   1803   1804   1807     1  0.0000000  0.6508444  3
   1802   1803   1809   1815     1  0.0000000  1.0460000  1
   1802   1803   1809   1815     1  0.0000000  0.6694400  3
   1803   1802   1810   1813     1  0.0000000  1.0460000  1
   1803   1802   1810   1813     1  0.0000000  0.6694400  3
   1804   1803   1802   1806     1  0.0000000  0.6508444  3
   1804   1803   1809   1815     1  0.0000000  1.0460000  1
   1804   1803   1809   1815     1  0.0000000  0.6694400  3
   1805   1803   1802   1810     1  0.0000000  1.0460000  1
   1805   1803   1802   1810     1  0.0000000  0.0000000  3
   1805   1803   1802   1806     1  0.0000000  0.6508444  3
   1805   1803   1804   1808     1  0.0000000  1.0460000  1
   1805   1803   1804   1808     1  0.0000000  0.0000000  3
   1805   1803   1804   1820     1  0.0000000  1.0460000  1
   1805   1803   1804   1820     1  0.0000000  0.0000000  3
   1805   1803   1804   1807     1  0.0000000  0.6508444  3
   1805   1803   1809   1815     1  0.0000000  0.6973333  3
   1806   1802   1799   1811     1  0.0000000  1.0460000  1
   1806   1802   1799   1811     1  0.0000000  0.0000000  3
   1806   1802   1803   1809     1  0.0000000  1.0460000  1
   1806   1802   1803   1809     1  0.0000000  0.0000000  3
   1806   1802   1810   1813     1  0.0000000  0.6973333  3
   1807   1804   1803   1809     1  0.0000000  0.6508444  3
   1816   1812   1798   1820     1  0.0000000  1.0460000  1
   1816   1812   1798   1820     1  0.0000000  0.0000000  3
   1816   1812   1818   1819     1  0.0000000  0.6973333  3
   1817   1812   1798   1820     1  0.0000000  1.0460000  1
   1817   1812   1798   1820     1  0.0000000  0.0000000  3
   1817   1812   1818   1819     1  0.0000000  0.6973333  3
   1821   1822   1825   1829     1  0.0000000  0.6508444  3
   1821   1822   1834   1837     1  0.0000000  1.0460000  1
   1821   1822   1834   1837     1  0.0000000  0.6694400  3
   1821   1835   1841   1842     1  0.0000000  1.0460000  1
   1821   1835   1841   1842     1  0.0000000  0.6694400  3
   1821   1843   1827   1830     1  0.0000000  1.6038667  3
   1822   1825   1826   1828     1  0.0000000  0.6508444  3
   1822   1825   1833   1836     1  0.0000000  1.0460000  1
   1822   1825   1833   1836     1  0.0000000  0.6694400  3
   1822   1821   1835   1839     1  0.0000000  0.6508444  3
   1822   1821   1835   1840     1  0.0000000  0.6508444  3
   1823   1821   1822   1825     1  0.0000000  0.6508444  3
   1823   1821   1822   1834     1  0.0000000  1.0460000  1
   1823   1821   1822   1834     1  0.0000000  0.0000000  3
   1823   1821   1822   1824     1  0.0000000  0.6508444  3
   1823   1821   1835   1841     1  0.0000000  1.0460000  1
   1823   1821   1835   1841     1  0.0000000  0.0000000  3
   1823   1821   1835   1839     1  0.0000000  0.6508444  3
   1823   1821   1835   1840     1  0.0000000  0.6508444  3
   1823   1821   1843   1827     1  0.0000000  1.6038667  3
   1824   1822   1825   1826     1  0.0000000  0.6508444  3
   1824   1822   1825   1833     1  0.0000000  1.0460000  1
   1824   1822   1825   1833     1  0.0000000  0.0000000  3
   1824   1822   1825   1829     1  0.0000000  0.6508444  3
   1824   1822   1834   1837     1  0.0000000  0.6973333  3
   1824   1822   1821   1835     1  0.0000000  0.6508444  3
   1824   1822   1821   1843     1  0.0000000  1.0460000  1
   1824   1822   1821   1843     1  0.0000000  0.0000000  3
   1825   1826   1827   1830     1  0.0000000  0.6508444  3
   1825   1826   1832   1838     1  0.0000000  1.0460000  1
   1825   1826   1832   1838     1  0.0000000  0.6694400  3
   1825   1822   1834   1837     1  0.0000000  1.0460000  1
   1825   1822   1834   1837     1  0.0000000  0.6694400  3
   1826   1825   1833   1836     1  0.0000000  1.0460000  1
   1826   1825   1833   1836     1  0.0000000  0.6694400  3
   1827   1826   1832   1838     1  0.0000000  1.0460000  1
   1827   1826   1832   1838     1  0.0000000  0.6694400  3
   1827   1826   1825   1829     1  0.0000000  0.6508444  3
   1828   1826   1827   1831     1  0.0000000  1.0460000  1
   1828   1826   1827   1831     1  0.0000000  0.0000000  3
   1828   1826   1827   1843     1  0.0000000  1.0460000  1
   1828   1826   1827   1843     1  0.0000000  0.0000000  3
   1828   1826   1827   1830     1  0.0000000  0.6508444  3
   1828   1826   1832   1838     1  0.0000000  0.6973333  3
   1828   1826   1825   1833     1  0.0000000  1.0460000  1
   1828   1826   1825   1833     1  0.0000000  0.0000000  3
   1828   1826   1825   1829     1  0.0000000  0.6508444  3
   1829   1825   1826   1832     1  0.0000000  1.0460000  1
   1829   1825   1826   1832     1  0.0000000  0.0000000  3
   1829   1825   1833   1836     1  0.0000000  0.6973333  3
   1829   1825   1822   1834     1  0.0000000  1.0460000  1
   1829   1825   1822   1834     1  0.0000000  0.0000000  3
   1830   1827   1826   1832     1  0.0000000  0.6508444  3
   1839   1835   1841   1842     1  0.0000000  0.6973333  3
   1839   1835   1821   1843     1  0.0000000  1.0460000  1
   1839   1835   1821   1843     1  0.0000000  0.0000000  3
   1840   1835   1841   1842     1  0.0000000  0.6973333  3
   1840   1835   1821   1843     1  0.0000000  1.0460000  1
   1840   1835   1821   1843     1  0.0000000  0.0000000  3
   1844   1845   1848   1852     1  0.0000000  0.6508444  3
   1844   1845   1857   1860     1  0.0000000  1.0460000  1
   1844   1845   1857   1860     1  0.0000000  0.6694400  3
   1844   1858   1864   1865     1  0.0000000  1.0460000  1
   1844   1858   1864   1865     1  0.0000000  0.6694400  3
   1844   1866   1850   1853     1  0.0000000  1.6038667  3
   1845   1844   1858   1862     1  0.0000000  0.6508444  3
   1845   1844   1858   1863     1  0.0000000  0.6508444  3
   1845   1848   1849   1851     1  0.0000000  0.6508444  3
   1845   1848   1856   1859     1  0.0000000  1.0460000  1
   1845   1848   1856   1859     1  0.0000000  0.6694400  3
   1846   1844   1845   1848     1  0.0000000  0.6508444  3
   1846   1844   1845   1857     1  0.0000000  1.0460000  1
   1846   1844   1845   1857     1  0.0000000  0.0000000  3
   1846   1844   1845   1847     1  0.0000000  0.6508444  3
   1846   1844   1858   1864     1  0.0000000  1.0460000  1
   1846   1844   1858   1864     1  0.0000000  0.0000000  3
   1846   1844   1858   1862     1  0.0000000  0.6508444  3
   1846   1844   1858   1863     1  0.0000000  0.6508444  3
   1846   1844   1866   1850     1  0.0000000  1.6038667  3
   1847   1845   1844   1858     1  0.0000000  0.6508444  3
   1847   1845   1844   1866     1  0.0000000  1.0460000  1
   1847   1845   1844   1866     1  0.0000000  0.0000000  3
   1847   1845   1848   1849     1  0.0000000  0.6508444  3
   1847   1845   1848   1856     1  0.0000000  1.0460000  1
   1847   1845   1848   1856     1  0.0000000  0.0000000  3
   1847   1845   1848   1852     1  0.0000000  0.6508444  3
   1847   1845   1857   1860     1  0.0000000  0.6973333  3
   1848   1845   1857   1860     1  0.0000000  1.0460000  1
   1848   1845   1857   1860     1  0.0000000  0.6694400  3
   1848   1849   1850   1853     1  0.0000000  0.6508444  3
   1848   1849   1855   1861     1  0.0000000  1.0460000  1
   1848   1849   1855   1861     1  0.0000000  0.6694400  3
   1849   1848   1856   1859     1  0.0000000  1.0460000  1
   1849   1848   1856   1859     1  0.0000000  0.6694400  3
   1850   1849   1848   1852     1  0.0000000  0.6508444  3
   1850   1849   1855   1861     1  0.0000000  1.0460000  1
   1850   1849   1855   1861     1  0.0000000  0.6694400  3
   1851   1849   1848   1856     1  0.0000000  1.0460000  1
   1851   1849   1848   1856     1  0.0000000  0.0000000  3
   1851   1849   1848   1852     1  0.0000000  0.6508444  3
   1851   1849   1850   1854     1  0.0000000  1.0460000  1
   1851   1849   1850   1854     1  0.0000000  0.0000000  3
   1851   1849   1850   1866     1  0.0000000  1.0460000  1
   1851   1849   1850   1866     1  0.0000000  0.0000000  3
   1851   1849   1850   1853     1  0.0000000  0.6508444  3
   1851   1849   1855   1861     1  0.0000000  0.6973333  3
   1852   1848   1845   1857     1  0.0000000  1.0460000  1
   1852   1848   1845   1857     1  0.0000000  0.0000000  3
   1852   1848   1849   1855     1  0.0000000  1.0460000  1
   1852   1848   1849   1855     1  0.0000000  0.0000000  3
   1852   1848   1856   1859     1  0.0000000  0.6973333  3
   1853   1850   1849   1855     1  0.0000000  0.6508444  3
   1862   1858   1844   1866     1  0.0000000  1.0460000  1
   1862   1858   1844   1866     1  0.0000000  0.0000000  3
   1862   1858   1864   1865     1  0.0000000  0.6973333  3
   1863   1858   1844   1866     1  0.0000000  1.0460000  1
   1863   1858   1844   1866     1  0.0000000  0.0000000  3
   1863   1858   1864   1865     1  0.0000000  0.6973333  3
   1867   1868   1871   1875     1  0.0000000  0.6508444  3
   1867   1868   1880   1883     1  0.0000000  1.0460000  1
   1867   1868   1880   1883     1  0.0000000  0.6694400  3
   1867   1881   1887   1888     1  0.0000000  1.0460000  1
   1867   1881   1887   1888     1  0.0000000  0.6694400  3
   1867   1889   1873   1876     1  0.0000000  1.6038667  3
   1868   1871   1872   1874     1  0.0000000  0.6508444  3
   1868   1871   1879   1882     1  0.0000000  1.0460000  1
   1868   1871   1879   1882     1  0.0000000  0.6694400  3
   1868   1867   1881   1885     1  0.0000000  0.6508444  3
   1868   1867   1881   1886     1  0.0000000  0.6508444  3
   1869   1867   1868   1871     1  0.0000000  0.6508444  3
   1869   1867   1868   1880     1  0.0000000  1.0460000  1
   1869   1867   1868   1880     1  0.0000000  0.0000000  3
   1869   1867   1868   1870     1  0.0000000  0.6508444  3
   1869   1867   1881   1887     1  0.0000000  1.0460000  1
   1869   1867   1881   1887     1  0.0000000  0.0000000  3
   1869   1867   1881   1885     1  0.0000000  0.6508444  3
   1869   1867   1881   1886     1  0.0000000  0.6508444  3
   1869   1867   1889   1873     1  0.0000000  1.6038667  3
   1870   1868   1871   1872     1  0.0000000  0.6508444  3
   1870   1868   1871   1879     1  0.0000000  1.0460000  1
   1870   1868   1871   1879     1  0.0000000  0.0000000  3
   1870   1868   1871   1875     1  0.0000000  0.6508444  3
   1870   1868   1880   1883     1  0.0000000  0.6973333  3
   1870   1868   1867   1881     1  0.0000000  0.6508444  3
   1870   1868   1867   1889     1  0.0000000  1.0460000  1
   1870   1868   1867   1889     1  0.0000000  0.0000000  3
   1871   1872   1873   1876     1  0.0000000  0.6508444  3
   1871   1872   1878   1884     1  0.0000000  1.0460000  1
   1871   1872   1878   1884     1  0.0000000  0.6694400  3
   1871   1868   1880   1883     1  0.0000000  1.0460000  1
   1871   1868   1880   1883     1  0.0000000  0.6694400  3
   1872   1871   1879   1882     1  0.0000000  1.0460000  1
   1872   1871   1879   1882     1  0.0000000  0.6694400  3
   1873   1872   1878   1884     1  0.0000000  1.0460000  1
   1873   1872   1878   1884     1  0.0000000  0.6694400  3
   1873   1872   1871   1875     1  0.0000000  0.6508444  3
   1874   1872   1873   1877     1  0.0000000  1.0460000  1
   1874   1872   1873   1877     1  0.0000000  0.0000000  3
   1874   1872   1873   1889     1  0.0000000  1.0460000  1
   1874   1872   1873   1889     1  0.0000000  0.0000000  3
   1874   1872   1873   1876     1  0.0000000  0.6508444  3
   1874   1872   1878   1884     1  0.0000000  0.6973333  3
   1874   1872   1871   1879     1  0.0000000  1.0460000  1
   1874   1872   1871   1879     1  0.0000000  0.0000000  3
   1874   1872   1871   1875     1  0.0000000  0.6508444  3
   1875   1871   1872   1878     1  0.0000000  1.0460000  1
   1875   1871   1872   1878     1  0.0000000  0.0000000  3
   1875   1871   1879   1882     1  0.0000000  0.6973333  3
   1875   1871   1868   1880     1  0.0000000  1.0460000  1
   1875   1871   1868   1880     1  0.0000000  0.0000000  3
   1876   1873   1872   1878     1  0.0000000  0.6508444  3
   1885   1881   1887   1888     1  0.0000000  0.6973333  3
   1885   1881   1867   1889     1  0.0000000  1.0460000  1
   1885   1881   1867   1889     1  0.0000000  0.0000000  3
   1886   1881   1887   1888     1  0.0000000  0.6973333  3
   1886   1881   1867   1889     1  0.0000000  1.0460000  1
   1886   1881   1867   1889     1  0.0000000  0.0000000  3
   1890   1891   1894   1898     1  0.0000000  0.6508444  3
   1890   1891   1903   1906     1  0.0000000  1.0460000  1
   1890   1891   1903   1906     1  0.0000000  0.6694400  3
   1890   1904   1910   1911     1  0.0000000  1.0460000  1
   1890   1904   1910   1911     1  0.0000000  0.6694400  3
   1890   1912   1896   1899     1  0.0000000  1.6038667  3
   1891   1890   1904   1908     1  0.0000000  0.6508444  3
   1891   1890   1904   1909     1  0.0000000  0.6508444  3
   1891   1894   1895   1897     1  0.0000000  0.6508444  3
   1891   1894   1902   1905     1  0.0000000  1.0460000  1
   1891   1894   1902   1905     1  0.0000000  0.6694400  3
   1892   1890   1891   1894     1  0.0000000  0.6508444  3
   1892   1890   1891   1903     1  0.0000000  1.0460000  1
   1892   1890   1891   1903     1  0.0000000  0.0000000  3
   1892   1890   1891   1893     1  0.0000000  0.6508444  3
   1892   1890   1904   1910     1  0.0000000  1.0460000  1
   1892   1890   1904   1910     1  0.0000000  0.0000000  3
   1892   1890   1904   1908     1  0.0000000  0.6508444  3
   1892   1890   1904   1909     1  0.0000000  0.6508444  3
   1892   1890   1912   1896     1  0.0000000  1.6038667  3
   1893   1891   1890   1904     1  0.0000000  0.6508444  3
   1893   1891   1890   1912     1  0.0000000  1.0460000  1
   1893   1891   1890   1912     1  0.0000000  0.0000000  3
   1893   1891   1894   1895     1  0.0000000  0.6508444  3
   1893   1891   1894   1902     1  0.0000000  1.0460000  1
   1893   1891   1894   1902     1  0.0000000  0.0000000  3
   1893   1891   1894   1898     1  0.0000000  0.6508444  3
   1893   1891   1903   1906     1  0.0000000  0.6973333  3
   1894   1891   1903   1906     1  0.0000000  1.0460000  1
   1894   1891   1903   1906     1  0.0000000  0.6694400  3
   1894   1895   1896   1899     1  0.0000000  0.6508444  3
   1894   1895   1901   1907     1  0.0000000  1.0460000  1
   1894   1895   1901   1907     1  0.0000000  0.6694400  3
   1895   1894   1902   1905     1  0.0000000  1.0460000  1
   1895   1894   1902   1905     1  0.0000000  0.6694400  3
   1896   1895   1894   1898     1  0.0000000  0.6508444  3
   1896   1895   1901   1907     1  0.0000000  1.0460000  1
   1896   1895   1901   1907     1  0.0000000  0.6694400  3
   1897   1895   1894   1902     1  0.0000000  1.0460000  1
   1897   1895   1894   1902     1  0.0000000  0.0000000  3
   1897   1895   1894   1898     1  0.0000000  0.6508444  3
   1897   1895   1896   1900     1  0.0000000  1.0460000  1
   1897   1895   1896   1900     1  0.0000000  0.0000000  3
   1897   1895   1896   1912     1  0.0000000  1.0460000  1
   1897   1895   1896   1912     1  0.0000000  0.0000000  3
   1897   1895   1896   1899     1  0.0000000  0.6508444  3
   1897   1895   1901   1907     1  0.0000000  0.6973333  3
   1898   1894   1891   1903     1  0.0000000  1.0460000  1
   1898   1894   1891   1903     1  0.0000000  0.0000000  3
   1898   1894   1895   1901     1  0.0000000  1.0460000  1
   1898   1894   1895   1901     1  0.0000000  0.0000000  3
   1898   1894   1902   1905     1  0.0000000  0.6973333  3
   1899   1896   1895   1901     1  0.0000000  0.6508444  3
   1908   1904   1890   1912     1  0.0000000  1.0460000  1
   1908   1904   1890   1912     1  0.0000000  0.0000000  3
   1908   1904   1910   1911     1  0.0000000  0.6973333  3
   1909   1904   1890   1912     1  0.0000000  1.0460000  1
   1909   1904   1890   1912     1  0.0000000  0.0000000  3
   1909   1904   1910   1911     1  0.0000000  0.6973333  3
   1913   1914   1917   1921     1  0.0000000  0.6508444  3
   1913   1914   1926   1929     1  0.0000000  1.0460000  1
   1913   1914   1926   1929     1  0.0000000  0.6694400  3
   1913   1927   1933   1934     1  0.0000000  1.0460000  1
   1913   1927   1933   1934     1  0.0000000  0.6694400  3
   1913   1935   1919   1922     1  0.0000000  1.6038667  3
   1914   1917   1918   1920     1  0.0000000  0.6508444  3
   1914   1917   1925   1928     1  0.0000000  1.0460000  1
   1914   1917   1925   1928     1  0.0000000  0.6694400  3
   1914   1913   1927   1931     1  0.0000000  0.6508444  3
   1914   1913   1927   1932     1  0.0000000  0.6508444  3
   1915   1913   1914   1917     1  0.0000000  0.6508444  3
   1915   1913   1914   1926     1  0.0000000  1.0460000  1
   1915   1913   1914   1926     1  0.0000000  0.0000000  3
   1915   1913   1914   1916     1  0.0000000  0.6508444  3
   1915   1913   1927   1933     1  0.0000000  1.0460000  1
   1915   1913   1927   1933     1  0.0000000  0.0000000  3
   1915   1913   1927   1931     1  0.0000000  0.6508444  3
   1915   1913   1927   1932     1  0.0000000  0.6508444  3
   1915   1913   1935   1919     1  0.0000000  1.6038667  3
   1916   1914   1917   1918     1  0.0000000  0.6508444  3
   1916   1914   1917   1925     1  0.0000000  1.0460000  1
   1916   1914   1917   1925     1  0.0000000  0.0000000  3
   1916   1914   1917   1921     1  0.0000000  0.6508444  3
   1916   1914   1926   1929     1  0.0000000  0.6973333  3
   1916   1914   1913   1927     1  0.0000000  0.6508444  3
   1916   1914   1913   1935     1  0.0000000  1.0460000  1
   1916   1914   1913   1935     1  0.0000000  0.0000000  3
   1917   1918   1919   1922     1  0.0000000  0.6508444  3
   1917   1918   1924   1930     1  0.0000000  1.0460000  1
   1917   1918   1924   1930     1  0.0000000  0.6694400  3
   1917   1914   1926   1929     1  0.0000000  1.0460000  1
   1917   1914   1926   1929     1  0.0000000  0.6694400  3
   1918   1917   1925   1928     1  0.0000000  1.0460000  1
   1918   1917   1925   1928     1  0.0000000  0.6694400  3
   1919   1918   1924   1930     1  0.0000000  1.0460000  1
   1919   1918   1924   1930     1  0.0000000  0.6694400  3
   1919   1918   1917   1921     1  0.0000000  0.6508444  3
   1920   1918   1919   1923     1  0.0000000  1.0460000  1
   1920   1918   1919   1923     1  0.0000000  0.0000000  3
   1920   1918   1919   1935     1  0.0000000  1.0460000  1
   1920   1918   1919   1935     1  0.0000000  0.0000000  3
   1920   1918   1919   1922     1  0.0000000  0.6508444  3
   1920   1918   1924   1930     1  0.0000000  0.6973333  3
   1920   1918   1917   1925     1  0.0000000  1.0460000  1
   1920   1918   1917   1925     1  0.0000000  0.0000000  3
   1920   1918   1917   1921     1  0.0000000  0.6508444  3
   1921   1917   1918   1924     1  0.0000000  1.0460000  1
   1921   1917   1918   1924     1  0.0000000  0.0000000  3
   1921   1917   1925   1928     1  0.0000000  0.6973333  3
   1921   1917   1914   1926     1  0.0000000  1.0460000  1
   1921   1917   1914   1926     1  0.0000000  0.0000000  3
   1922   1919   1918   1924     1  0.0000000  0.6508444  3
   1931   1927   1933   1934     1  0.0000000  0.6973333  3
   1931   1927   1913   1935     1  0.0000000  1.0460000  1
   1931   1927   1913   1935     1  0.0000000  0.0000000  3
   1932   1927   1933   1934     1  0.0000000  0.6973333  3
   1932   1927   1913   1935     1  0.0000000  1.0460000  1
   1932   1927   1913   1935     1  0.0000000  0.0000000  3
   1936   1937   1940   1944     1  0.0000000  0.6508444  3
   1936   1937   1949   1952     1  0.0000000  1.0460000  1
   1936   1937   1949   1952     1  0.0000000  0.6694400  3
   1936   1950   1956   1957     1  0.0000000  1.0460000  1
   1936   1950   1956   1957     1  0.0000000  0.6694400  3
   1936   1958   1942   1945     1  0.0000000  1.6038667  3
   1937   1936   1950   1954     1  0.0000000  0.6508444  3
   1937   1936   1950   1955     1  0.0000000  0.6508444  3
   1937   1940   1941   1943     1  0.0000000  0.6508444  3
   1937   1940   1948   1951     1  0.0000000  1.0460000  1
   1937   1940   1948   1951     1  0.0000000  0.6694400  3
   1938   1936   1937   1940     1  0.0000000  0.6508444  3
   1938   1936   1937   1949     1  0.0000000  1.0460000  1
   1938   1936   1937   1949     1  0.0000000  0.0000000  3
   1938   1936   1937   1939     1  0.0000000  0.6508444  3
   1938   1936   1950   1956     1  0.0000000  1.0460000  1
   1938   1936   1950   1956     1  0.0000000  0.0000000  3
   1938   1936   1950   1954     1  0.0000000  0.6508444  3
   1938   1936   1950   1955     1  0.0000000  0.6508444  3
   1938   1936   1958   1942     1  0.0000000  1.6038667  3
   1939   1937   1936   1950     1  0.0000000  0.6508444  3
   1939   1937   1936   1958     1  0.0000000  1.0460000  1
   1939   1937   1936   1958     1  0.0000000  0.0000000  3
   1939   1937   1940   1941     1  0.0000000  0.6508444  3
   1939   1937   1940   1948     1  0.0000000  1.0460000  1
   1939   1937   1940   1948     1  0.0000000  0.0000000  3
   1939   1937   1940   1944     1  0.0000000  0.6508444  3
   1939   1937   1949   1952     1  0.0000000  0.6973333  3
   1940   1937   1949   1952     1  0.0000000  1.0460000  1
   1940   1937   1949   1952     1  0.0000000  0.6694400  3
   1940   1941   1942   1945     1  0.0000000  0.6508444  3
   1940   1941   1947   1953     1  0.0000000  1.0460000  1
   1940   1941   1947   1953     1  0.0000000  0.6694400  3
   1941   1940   1948   1951     1  0.0000000  1.0460000  1
   1941   1940   1948   1951     1  0.0000000  0.6694400  3
   1942   1941   1940   1944     1  0.0000000  0.6508444  3
   1942   1941   1947   1953     1  0.0000000  1.0460000  1
   1942   1941   1947   1953     1  0.0000000  0.6694400  3
   1943   1941   1940   1948     1  0.0000000  1.0460000  1
   1943   1941   1940   1948     1  0.0000000  0.0000000  3
   1943   1941   1940   1944     1  0.0000000  0.6508444  3
   1943   1941   1942   1946     1  0.0000000  1.0460000  1
   1943   1941   1942   1946     1  0.0000000  0.0000000  3
   1943   1941   1942   1958     1  0.0000000  1.0460000  1
   1943   1941   1942   1958     1  0.0000000  0.0000000  3
   1943   1941   1942   1945     1  0.0000000  0.6508444  3
   1943   1941   1947   1953     1  0.0000000  0.6973333  3
   1944   1940   1937   1949     1  0.0000000  1.0460000  1
   1944   1940   1937   1949     1  0.0000000  0.0000000  3
   1944   1940   1941   1947     1  0.0000000  1.0460000  1
   1944   1940   1941   1947     1  0.0000000  0.0000000  3
   1944   1940   1948   1951     1  0.0000000  0.6973333  3
   1945   1942   1941   1947     1  0.0000000  0.6508444  3
   1954   1950   1936   1958     1  0.0000000  1.0460000  1
   1954   1950   1936   1958     1  0.0000000  0.0000000  3
   1954   1950   1956   1957     1  0.0000000  0.6973333  3
   1955   1950   1936   1958     1  0.0000000  1.0460000  1
   1955   1950   1936   1958     1  0.0000000  0.0000000  3
   1955   1950   1956   1957     1  0.0000000  0.6973333  3
   1959   1960   1963   1967     1  0.0000000  0.6508444  3
   1959   1960   1972   1975     1  0.0000000  1.0460000  1
   1959   1960   1972   1975     1  0.0000000  0.6694400  3
   1959   1973   1979   1980     1  0.0000000  1.0460000  1
   1959   1973   1979   1980     1  0.0000000  0.6694400  3
   1959   1981   1965   1968     1  0.0000000  1.6038667  3
   1960   1963   1964   1966     1  0.0000000  0.6508444  3
   1960   1963   1971   1974     1  0.0000000  1.0460000  1
   1960   1963   1971   1974     1  0.0000000  0.6694400  3
   1960   1959   1973   1977     1  0.0000000  0.6508444  3
   1960   1959   1973   1978     1  0.0000000  0.6508444  3
   1961   1959   1960   1963     1  0.0000000  0.6508444  3
   1961   1959   1960   1972     1  0.0000000  1.0460000  1
   1961   1959   1960   1972     1  0.0000000  0.0000000  3
   1961   1959   1960   1962     1  0.0000000  0.6508444  3
   1961   1959   1973   1979     1  0.0000000  1.0460000  1
   1961   1959   1973   1979     1  0.0000000  0.0000000  3
   1961   1959   1973   1977     1  0.0000000  0.6508444  3
   1961   1959   1973   1978     1  0.0000000  0.6508444  3
   1961   1959   1981   1965     1  0.0000000  1.6038667  3
   1962   1960   1963   1964     1  0.0000000  0.6508444  3
   1962   1960   1963   1971     1  0.0000000  1.0460000  1
   1962   1960   1963   1971     1  0.0000000  0.0000000  3
   1962   1960   1963   1967     1  0.0000000  0.6508444  3
   1962   1960   1972   1975     1  0.0000000  0.6973333  3
   1962   1960   1959   1973     1  0.0000000  0.6508444  3
   1962   1960   1959   1981     1  0.0000000  1.0460000  1
   1962   1960   1959   1981     1  0.0000000  0.0000000  3
   1963   1964   1965   1968     1  0.0000000  0.6508444  3
   1963   1964   1970   1976     1  0.0000000  1.0460000  1
   1963   1964   1970   1976     1  0.0000000  0.6694400  3
   1963   1960   1972   1975     1  0.0000000  1.0460000  1
   1963   1960   1972   1975     1  0.0000000  0.6694400  3
   1964   1963   1971   1974     1  0.0000000  1.0460000  1
   1964   1963   1971   1974     1  0.0000000  0.6694400  3
   1965   1964   1970   1976     1  0.0000000  1.0460000  1
   1965   1964   1970   1976     1  0.0000000  0.6694400  3
   1965   1964   1963   1967     1  0.0000000  0.6508444  3
   1966   1964   1965   1969     1  0.0000000  1.0460000  1
   1966   1964   1965   1969     1  0.0000000  0.0000000  3
   1966   1964   1965   1981     1  0.0000000  1.0460000  1
   1966   1964   1965   1981     1  0.0000000  0.0000000  3
   1966   1964   1965   1968     1  0.0000000  0.6508444  3
   1966   1964   1970   1976     1  0.0000000  0.6973333  3
   1966   1964   1963   1971     1  0.0000000  1.0460000  1
   1966   1964   1963   1971     1  0.0000000  0.0000000  3
   1966   1964   1963   1967     1  0.0000000  0.6508444  3
   1967   1963   1964   1970     1  0.0000000  1.0460000  1
   1967   1963   1964   1970     1  0.0000000  0.0000000  3
   1967   1963   1971   1974     1  0.0000000  0.6973333  3
   1967   1963   1960   1972     1  0.0000000  1.0460000  1
   1967   1963   1960   1972     1  0.0000000  0.0000000  3
   1968   1965   1964   1970     1  0.0000000  0.6508444  3
   1977   1973   1979   1980     1  0.0000000  0.6973333  3
   1977   1973   1959   1981     1  0.0000000  1.0460000  1
   1977   1973   1959   1981     1  0.0000000  0.0000000  3
   1978   1973   1979   1980     1  0.0000000  0.6973333  3
   1978   1973   1959   1981     1  0.0000000  1.0460000  1
   1978   1973   1959   1981     1  0.0000000  0.0000000  3
   1982   1983   1986   1990     1  0.0000000  0.6508444  3
   1982   1983   1995   1998     1  0.0000000  1.0460000  1
   1982   1983   1995   1998     1  0.0000000  0.6694400  3
   1982   1996   2002   2003     1  0.0000000  1.0460000  1
   1982   1996   2002   2003     1  0.0000000  0.6694400  3
   1982   2004   1988   1991     1  0.0000000  1.6038667  3
   1983   1982   1996   2000     1  0.0000000  0.6508444  3
   1983   1982   1996   2001     1  0.0000000  0.6508444  3
   1983   1986   1987   1989     1  0.0000000  0.6508444  3
   1983   1986   1994   1997     1  0.0000000  1.0460000  1
   1983   1986   1994   1997     1  0.0000000  0.6694400  3
   1984   1982   1983   1986     1  0.0000000  0.6508444  3
   1984   1982   1983   1995     1  0.0000000  1.0460000  1
   1984   1982   1983   1995     1  0.0000000  0.0000000  3
   1984   1982   1983   1985     1  0.0000000  0.6508444  3
   1984   1982   1996   2002     1  0.0000000  1.0460000  1
   1984   1982   1996   2002     1  0.0000000  0.0000000  3
   1984   1982   1996   2000     1  0.0000000  0.6508444  3
   1984   1982   1996   2001     1  0.0000000  0.6508444  3
   1984   1982   2004   1988     1  0.0000000  1.6038667  3
   1985   1983   1982   1996     1  0.0000000  0.6508444  3
   1985   1983   1982   2004     1  0.0000000  1.0460000  1
   1985   1983   1982   2004     1  0.0000000  0.0000000  3
   1985   1983   1986   1987     1  0.0000000  0.6508444  3
   1985   1983   1986   1994     1  0.0000000  1.0460000  1
   1985   1983   1986   1994     1  0.0000000  0.0000000  3
   1985   1983   1986   1990     1  0.0000000  0.6508444  3
   1985   1983   1995   1998     1  0.0000000  0.6973333  3
   1986   1983   1995   1998     1  0.0000000  1.0460000  1
   1986   1983   1995   1998     1  0.0000000  0.6694400  3
   1986   1987   1988   1991     1  0.0000000  0.6508444  3
   1986   1987   1993   1999     1  0.0000000  1.0460000  1
   1986   1987   1993   1999     1  0.0000000  0.6694400  3
   1987   1986   1994   1997     1  0.0000000  1.0460000  1
   1987   1986   1994   1997     1  0.0000000  0.6694400  3
   1988   1987   1986   1990     1  0.0000000  0.6508444  3
   1988   1987   1993   1999     1  0.0000000  1.0460000  1
   1988   1987   1993   1999     1  0.0000000  0.6694400  3
   1989   1987   1986   1994     1  0.0000000  1.0460000  1
   1989   1987   1986   1994     1  0.0000000  0.0000000  3
   1989   1987   1986   1990     1  0.0000000  0.6508444  3
   1989   1987   1988   1992     1  0.0000000  1.0460000  1
   1989   1987   1988   1992     1  0.0000000  0.0000000  3
   1989   1987   1988   2004     1  0.0000000  1.0460000  1
   1989   1987   1988   2004     1  0.0000000  0.0000000  3
   1989   1987   1988   1991     1  0.0000000  0.6508444  3
   1989   1987   1993   1999     1  0.0000000  0.6973333  3
   1990   1986   1983   1995     1  0.0000000  1.0460000  1
   1990   1986   1983   1995     1  0.0000000  0.0000000  3
   1990   1986   1987   1993     1  0.0000000  1.0460000  1
   1990   1986   1987   1993     1  0.0000000  0.0000000  3
   1990   1986   1994   1997     1  0.0000000  0.6973333  3
   1991   1988   1987   1993     1  0.0000000  0.6508444  3
   2000   1996   1982   2004     1  0.0000000  1.0460000  1
   2000   1996   1982   2004     1  0.0000000  0.0000000  3
   2000   1996   2002   2003     1  0.0000000  0.6973333  3
   2001   1996   1982   2004     1  0.0000000  1.0460000  1
   2001   1996   1982   2004     1  0.0000000  0.0000000  3
   2001   1996   2002   2003     1  0.0000000  0.6973333  3
   2005   2006   2009   2013     1  0.0000000  0.6508444  3
   2005   2006   2018   2021     1  0.0000000  1.0460000  1
   2005   2006   2018   2021     1  0.0000000  0.6694400  3
   2005   2019   2025   2026     1  0.0000000  1.0460000  1
   2005   2019   2025   2026     1  0.0000000  0.6694400  3
   2005   2027   2011   2014     1  0.0000000  1.6038667  3
   2006   2009   2010   2012     1  0.0000000  0.6508444  3
   2006   2009   2017   2020     1  0.0000000  1.0460000  1
   2006   2009   2017   2020     1  0.0000000  0.6694400  3
   2006   2005   2019   2023     1  0.0000000  0.6508444  3
   2006   2005   2019   2024     1  0.0000000  0.6508444  3
   2007   2005   2006   2009     1  0.0000000  0.6508444  3
   2007   2005   2006   2018     1  0.0000000  1.0460000  1
   2007   2005   2006   2018     1  0.0000000  0.0000000  3
   2007   2005   2006   2008     1  0.0000000  0.6508444  3
   2007   2005   2019   2025     1  0.0000000  1.0460000  1
   2007   2005   2019   2025     1  0.0000000  0.0000000  3
   2007   2005   2019   2023     1  0.0000000  0.6508444  3
   2007   2005   2019   2024     1  0.0000000  0.6508444  3
   2007   2005   2027   2011     1  0.0000000  1.6038667  3
   2008   2006   2009   2010     1  0.0000000  0.6508444  3
   2008   2006   2009   2017     1  0.0000000  1.0460000  1
   2008   2006   2009   2017     1  0.0000000  0.0000000  3
   2008   2006   2009   2013     1  0.0000000  0.6508444  3
   2008   2006   2018   2021     1  0.0000000  0.6973333  3
   2008   2006   2005   2019     1  0.0000000  0.6508444  3
   2008   2006   2005   2027     1  0.0000000  1.0460000  1
   2008   2006   2005   2027     1  0.0000000  0.0000000  3
   2009   2010   2011   2014     1  0.0000000  0.6508444  3
   2009   2010   2016   2022     1  0.0000000  1.0460000  1
   2009   2010   2016   2022     1  0.0000000  0.6694400  3
   2009   2006   2018   2021     1  0.0000000  1.0460000  1
   2009   2006   2018   2021     1  0.0000000  0.6694400  3
   2010   2009   2017   2020     1  0.0000000  1.0460000  1
   2010   2009   2017   2020     1  0.0000000  0.6694400  3
   2011   2010   2016   2022     1  0.0000000  1.0460000  1
   2011   2010   2016   2022     1  0.0000000  0.6694400  3
   2011   2010   2009   2013     1  0.0000000  0.6508444  3
   2012   2010   2011   2015     1  0.0000000  1.0460000  1
   2012   2010   2011   2015     1  0.0000000  0.0000000  3
   2012   2010   2011   2027     1  0.0000000  1.0460000  1
   2012   2010   2011   2027     1  0.0000000  0.0000000  3
   2012   2010   2011   2014     1  0.0000000  0.6508444  3
   2012   2010   2016   2022     1  0.0000000  0.6973333  3
   2012   2010   2009   2017     1  0.0000000  1.0460000  1
   2012   2010   2009   2017     1  0.0000000  0.0000000  3
   2012   2010   2009   2013     1  0.0000000  0.6508444  3
   2013   2009   2010   2016     1  0.0000000  1.0460000  1
   2013   2009   2010   2016     1  0.0000000  0.0000000  3
   2013   2009   2017   2020     1  0.0000000  0.6973333  3
   2013   2009   2006   2018     1  0.0000000  1.0460000  1
   2013   2009   2006   2018     1  0.0000000  0.0000000  3
   2014   2011   2010   2016     1  0.0000000  0.6508444  3
   2023   2019   2025   2026     1  0.0000000  0.6973333  3
   2023   2019   2005   2027     1  0.0000000  1.0460000  1
   2023   2019   2005   2027     1  0.0000000  0.0000000  3
   2024   2019   2025   2026     1  0.0000000  0.6973333  3
   2024   2019   2005   2027     1  0.0000000  1.0460000  1
   2024   2019   2005   2027     1  0.0000000  0.0000000  3
   2028   2029   2032   2036     1  0.0000000  0.6508444  3
   2028   2029   2041   2044     1  0.0000000  1.0460000  1
   2028   2029   2041   2044     1  0.0000000  0.6694400  3
   2028   2042   2048   2049     1  0.0000000  1.0460000  1
   2028   2042   2048   2049     1  0.0000000  0.6694400  3
   2028   2050   2034   2037     1  0.0000000  1.6038667  3
   2029   2028   2042   2046     1  0.0000000  0.6508444  3
   2029   2028   2042   2047     1  0.0000000  0.6508444  3
   2029   2032   2033   2035     1  0.0000000  0.6508444  3
   2029   2032   2040   2043     1  0.0000000  1.0460000  1
   2029   2032   2040   2043     1  0.0000000  0.6694400  3
   2030   2028   2029   2032     1  0.0000000  0.6508444  3
   2030   2028   2029   2041     1  0.0000000  1.0460000  1
   2030   2028   2029   2041     1  0.0000000  0.0000000  3
   2030   2028   2029   2031     1  0.0000000  0.6508444  3
   2030   2028   2042   2048     1  0.0000000  1.0460000  1
   2030   2028   2042   2048     1  0.0000000  0.0000000  3
   2030   2028   2042   2046     1  0.0000000  0.6508444  3
   2030   2028   2042   2047     1  0.0000000  0.6508444  3
   2030   2028   2050   2034     1  0.0000000  1.6038667  3
   2031   2029   2028   2042     1  0.0000000  0.6508444  3
   2031   2029   2028   2050     1  0.0000000  1.0460000  1
   2031   2029   2028   2050     1  0.0000000  0.0000000  3
   2031   2029   2032   2033     1  0.0000000  0.6508444  3
   2031   2029   2032   2040     1  0.0000000  1.0460000  1
   2031   2029   2032   2040     1  0.0000000  0.0000000  3
   2031   2029   2032   2036     1  0.0000000  0.6508444  3
   2031   2029   2041   2044     1  0.0000000  0.6973333  3
   2032   2029   2041   2044     1  0.0000000  1.0460000  1
   2032   2029   2041   2044     1  0.0000000  0.6694400  3
   2032   2033   2034   2037     1  0.0000000  0.6508444  3
   2032   2033   2039   2045     1  0.0000000  1.0460000  1
   2032   2033   2039   2045     1  0.0000000  0.6694400  3
   2033   2032   2040   2043     1  0.0000000  1.0460000  1
   2033   2032   2040   2043     1  0.0000000  0.6694400  3
   2034   2033   2032   2036     1  0.0000000  0.6508444  3
   2034   2033   2039   2045     1  0.0000000  1.0460000  1
   2034   2033   2039   2045     1  0.0000000  0.6694400  3
   2035   2033   2032   2040     1  0.0000000  1.0460000  1
   2035   2033   2032   2040     1  0.0000000  0.0000000  3
   2035   2033   2032   2036     1  0.0000000  0.6508444  3
   2035   2033   2034   2038     1  0.0000000  1.0460000  1
   2035   2033   2034   2038     1  0.0000000  0.0000000  3
   2035   2033   2034   2050     1  0.0000000  1.0460000  1
   2035   2033   2034   2050     1  0.0000000  0.0000000  3
   2035   2033   2034   2037     1  0.0000000  0.6508444  3
   2035   2033   2039   2045     1  0.0000000  0.6973333  3
   2036   2032   2029   2041     1  0.0000000  1.0460000  1
   2036   2032   2029   2041     1  0.0000000  0.0000000  3
   2036   2032   2033   2039     1  0.0000000  1.0460000  1
   2036   2032   2033   2039     1  0.0000000  0.0000000  3
   2036   2032   2040   2043     1  0.0000000  0.6973333  3
   2037   2034   2033   2039     1  0.0000000  0.6508444  3
   2046   2042   2028   2050     1  0.0000000  1.0460000  1
   2046   2042   2028   2050     1  0.0000000  0.0000000  3
   2046   2042   2048   2049     1  0.0000000  0.6973333  3
   2047   2042   2028   2050     1  0.0000000  1.0460000  1
   2047   2042   2028   2050     1  0.0000000  0.0000000  3
   2047   2042   2048   2049     1  0.0000000  0.6973333  3
   2051   2052   2055   2059     1  0.0000000  0.6508444  3
   2051   2052   2064   2067     1  0.0000000  1.0460000  1
   2051   2052   2064   2067     1  0.0000000  0.6694400  3
   2051   2065   2071   2072     1  0.0000000  1.0460000  1
   2051   2065   2071   2072     1  0.0000000  0.6694400  3
   2051   2073   2057   2060     1  0.0000000  1.6038667  3
   2052   2055   2056   2058     1  0.0000000  0.6508444  3
   2052   2055   2063   2066     1  0.0000000  1.0460000  1
   2052   2055   2063   2066     1  0.0000000  0.6694400  3
   2052   2051   2065   2069     1  0.0000000  0.6508444  3
   2052   2051   2065   2070     1  0.0000000  0.6508444  3
   2053   2051   2052   2055     1  0.0000000  0.6508444  3
   2053   2051   2052   2064     1  0.0000000  1.0460000  1
   2053   2051   2052   2064     1  0.0000000  0.0000000  3
   2053   2051   2052   2054     1  0.0000000  0.6508444  3
   2053   2051   2065   2071     1  0.0000000  1.0460000  1
   2053   2051   2065   2071     1  0.0000000  0.0000000  3
   2053   2051   2065   2069     1  0.0000000  0.6508444  3
   2053   2051   2065   2070     1  0.0000000  0.6508444  3
   2053   2051   2073   2057     1  0.0000000  1.6038667  3
   2054   2052   2055   2056     1  0.0000000  0.6508444  3
   2054   2052   2055   2063     1  0.0000000  1.0460000  1
   2054   2052   2055   2063     1  0.0000000  0.0000000  3
   2054   2052   2055   2059     1  0.0000000  0.6508444  3
   2054   2052   2064   2067     1  0.0000000  0.6973333  3
   2054   2052   2051   2065     1  0.0000000  0.6508444  3
   2054   2052   2051   2073     1  0.0000000  1.0460000  1
   2054   2052   2051   2073     1  0.0000000  0.0000000  3
   2055   2056   2057   2060     1  0.0000000  0.6508444  3
   2055   2056   2062   2068     1  0.0000000  1.0460000  1
   2055   2056   2062   2068     1  0.0000000  0.6694400  3
   2055   2052   2064   2067     1  0.0000000  1.0460000  1
   2055   2052   2064   2067     1  0.0000000  0.6694400  3
   2056   2055   2063   2066     1  0.0000000  1.0460000  1
   2056   2055   2063   2066     1  0.0000000  0.6694400  3
   2057   2056   2062   2068     1  0.0000000  1.0460000  1
   2057   2056   2062   2068     1  0.0000000  0.6694400  3
   2057   2056   2055   2059     1  0.0000000  0.6508444  3
   2058   2056   2057   2061     1  0.0000000  1.0460000  1
   2058   2056   2057   2061     1  0.0000000  0.0000000  3
   2058   2056   2057   2073     1  0.0000000  1.0460000  1
   2058   2056   2057   2073     1  0.0000000  0.0000000  3
   2058   2056   2057   2060     1  0.0000000  0.6508444  3
   2058   2056   2062   2068     1  0.0000000  0.6973333  3
   2058   2056   2055   2063     1  0.0000000  1.0460000  1
   2058   2056   2055   2063     1  0.0000000  0.0000000  3
   2058   2056   2055   2059     1  0.0000000  0.6508444  3
   2059   2055   2056   2062     1  0.0000000  1.0460000  1
   2059   2055   2056   2062     1  0.0000000  0.0000000  3
   2059   2055   2063   2066     1  0.0000000  0.6973333  3
   2059   2055   2052   2064     1  0.0000000  1.0460000  1
   2059   2055   2052   2064     1  0.0000000  0.0000000  3
   2060   2057   2056   2062     1  0.0000000  0.6508444  3
   2069   2065   2071   2072     1  0.0000000  0.6973333  3
   2069   2065   2051   2073     1  0.0000000  1.0460000  1
   2069   2065   2051   2073     1  0.0000000  0.0000000  3
   2070   2065   2071   2072     1  0.0000000  0.6973333  3
   2070   2065   2051   2073     1  0.0000000  1.0460000  1
   2070   2065   2051   2073     1  0.0000000  0.0000000  3
   2074   2075   2078   2082     1  0.0000000  0.6508444  3
   2074   2075   2087   2090     1  0.0000000  1.0460000  1
   2074   2075   2087   2090     1  0.0000000  0.6694400  3
   2074   2088   2094   2095     1  0.0000000  1.0460000  1
   2074   2088   2094   2095     1  0.0000000  0.6694400  3
   2074   2096   2080   2083     1  0.0000000  1.6038667  3
   2075   2074   2088   2092     1  0.0000000  0.6508444  3
   2075   2074   2088   2093     1  0.0000000  0.6508444  3
   2075   2078   2079   2081     1  0.0000000  0.6508444  3
   2075   2078   2086   2089     1  0.0000000  1.0460000  1
   2075   2078   2086   2089     1  0.0000000  0.6694400  3
   2076   2074   2075   2078     1  0.0000000  0.6508444  3
   2076   2074   2075   2087     1  0.0000000  1.0460000  1
   2076   2074   2075   2087     1  0.0000000  0.0000000  3
   2076   2074   2075   2077     1  0.0000000  0.6508444  3
   2076   2074   2088   2094     1  0.0000000  1.0460000  1
   2076   2074   2088   2094     1  0.0000000  0.0000000  3
   2076   2074   2088   2092     1  0.0000000  0.6508444  3
   2076   2074   2088   2093     1  0.0000000  0.6508444  3
   2076   2074   2096   2080     1  0.0000000  1.6038667  3
   2077   2075   2074   2088     1  0.0000000  0.6508444  3
   2077   2075   2074   2096     1  0.0000000  1.0460000  1
   2077   2075   2074   2096     1  0.0000000  0.0000000  3
   2077   2075   2078   2079     1  0.0000000  0.6508444  3
   2077   2075   2078   2086     1  0.0000000  1.0460000  1
   2077   2075   2078   2086     1  0.0000000  0.0000000  3
   2077   2075   2078   2082     1  0.0000000  0.6508444  3
   2077   2075   2087   2090     1  0.0000000  0.6973333  3
   2078   2075   2087   2090     1  0.0000000  1.0460000  1
   2078   2075   2087   2090     1  0.0000000  0.6694400  3
   2078   2079   2080   2083     1  0.0000000  0.6508444  3
   2078   2079   2085   2091     1  0.0000000  1.0460000  1
   2078   2079   2085   2091     1  0.0000000  0.6694400  3
   2079   2078   2086   2089     1  0.0000000  1.0460000  1
   2079   2078   2086   2089     1  0.0000000  0.6694400  3
   2080   2079   2078   2082     1  0.0000000  0.6508444  3
   2080   2079   2085   2091     1  0.0000000  1.0460000  1
   2080   2079   2085   2091     1  0.0000000  0.6694400  3
   2081   2079   2078   2086     1  0.0000000  1.0460000  1
   2081   2079   2078   2086     1  0.0000000  0.0000000  3
   2081   2079   2078   2082     1  0.0000000  0.6508444  3
   2081   2079   2080   2084     1  0.0000000  1.0460000  1
   2081   2079   2080   2084     1  0.0000000  0.0000000  3
   2081   2079   2080   2096     1  0.0000000  1.0460000  1
   2081   2079   2080   2096     1  0.0000000  0.0000000  3
   2081   2079   2080   2083     1  0.0000000  0.6508444  3
   2081   2079   2085   2091     1  0.0000000  0.6973333  3
   2082   2078   2075   2087     1  0.0000000  1.0460000  1
   2082   2078   2075   2087     1  0.0000000  0.0000000  3
   2082   2078   2079   2085     1  0.0000000  1.0460000  1
   2082   2078   2079   2085     1  0.0000000  0.0000000  3
   2082   2078   2086   2089     1  0.0000000  0.6973333  3
   2083   2080   2079   2085     1  0.0000000  0.6508444  3
   2092   2088   2074   2096     1  0.0000000  1.0460000  1
   2092   2088   2074   2096     1  0.0000000  0.0000000  3
   2092   2088   2094   2095     1  0.0000000  0.6973333  3
   2093   2088   2074   2096     1  0.0000000  1.0460000  1
   2093   2088   2074   2096     1  0.0000000  0.0000000  3
   2093   2088   2094   2095     1  0.0000000  0.6973333  3
   2097   2098   2101   2105     1  0.0000000  0.6508444  3
   2097   2098   2110   2113     1  0.0000000  1.0460000  1
   2097   2098   2110   2113     1  0.0000000  0.6694400  3
   2097   2111   2117   2118     1  0.0000000  1.0460000  1
   2097   2111   2117   2118     1  0.0000000  0.6694400  3
   2097   2119   2103   2106     1  0.0000000  1.6038667  3
   2098   2101   2102   2104     1  0.0000000  0.6508444  3
   2098   2101   2109   2112     1  0.0000000  1.0460000  1
   2098   2101   2109   2112     1  0.0000000  0.6694400  3
   2098   2097   2111   2115     1  0.0000000  0.6508444  3
   2098   2097   2111   2116     1  0.0000000  0.6508444  3
   2099   2097   2098   2101     1  0.0000000  0.6508444  3
   2099   2097   2098   2110     1  0.0000000  1.0460000  1
   2099   2097   2098   2110     1  0.0000000  0.0000000  3
   2099   2097   2098   2100     1  0.0000000  0.6508444  3
   2099   2097   2111   2117     1  0.0000000  1.0460000  1
   2099   2097   2111   2117     1  0.0000000  0.0000000  3
   2099   2097   2111   2115     1  0.0000000  0.6508444  3
   2099   2097   2111   2116     1  0.0000000  0.6508444  3
   2099   2097   2119   2103     1  0.0000000  1.6038667  3
   2100   2098   2101   2102     1  0.0000000  0.6508444  3
   2100   2098   2101   2109     1  0.0000000  1.0460000  1
   2100   2098   2101   2109     1  0.0000000  0.0000000  3
   2100   2098   2101   2105     1  0.0000000  0.6508444  3
   2100   2098   2110   2113     1  0.0000000  0.6973333  3
   2100   2098   2097   2111     1  0.0000000  0.6508444  3
   2100   2098   2097   2119     1  0.0000000  1.0460000  1
   2100   2098   2097   2119     1  0.0000000  0.0000000  3
   2101   2102   2103   2106     1  0.0000000  0.6508444  3
   2101   2102   2108   2114     1  0.0000000  1.0460000  1
   2101   2102   2108   2114     1  0.0000000  0.6694400  3
   2101   2098   2110   2113     1  0.0000000  1.0460000  1
   2101   2098   2110   2113     1  0.0000000  0.6694400  3
   2102   2101   2109   2112     1  0.0000000  1.0460000  1
   2102   2101   2109   2112     1  0.0000000  0.6694400  3
   2103   2102   2108   2114     1  0.0000000  1.0460000  1
   2103   2102   2108   2114     1  0.0000000  0.6694400  3
   2103   2102   2101   2105     1  0.0000000  0.6508444  3
   2104   2102   2103   2107     1  0.0000000  1.0460000  1
   2104   2102   2103   2107     1  0.0000000  0.0000000  3
   2104   2102   2103   2119     1  0.0000000  1.0460000  1
   2104   2102   2103   2119     1  0.0000000  0.0000000  3
   2104   2102   2103   2106     1  0.0000000  0.6508444  3
   2104   2102   2108   2114     1  0.0000000  0.6973333  3
   2104   2102   2101   2109     1  0.0000000  1.0460000  1
   2104   2102   2101   2109     1  0.0000000  0.0000000  3
   2104   2102   2101   2105     1  0.0000000  0.6508444  3
   2105   2101   2102   2108     1  0.0000000  1.0460000  1
   2105   2101   2102   2108     1  0.0000000  0.0000000  3
   2105   2101   2109   2112     1  0.0000000  0.6973333  3
   2105   2101   2098   2110     1  0.0000000  1.0460000  1
   2105   2101   2098   2110     1  0.0000000  0.0000000  3
   2106   2103   2102   2108     1  0.0000000  0.6508444  3
   2115   2111   2117   2118     1  0.0000000  0.6973333  3
   2115   2111   2097   2119     1  0.0000000  1.0460000  1
   2115   2111   2097   2119     1  0.0000000  0.0000000  3
   2116   2111   2117   2118     1  0.0000000  0.6973333  3
   2116   2111   2097   2119     1  0.0000000  1.0460000  1
   2116   2111   2097   2119     1  0.0000000  0.0000000  3
   2120   2121   2124   2128     1  0.0000000  0.6508444  3
   2120   2121   2133   2136     1  0.0000000  1.0460000  1
   2120   2121   2133   2136     1  0.0000000  0.6694400  3
   2120   2134   2140   2141     1  0.0000000  1.0460000  1
   2120   2134   2140   2141     1  0.0000000  0.6694400  3
   2120   2142   2126   2129     1  0.0000000  1.6038667  3
   2121   2120   2134   2138     1  0.0000000  0.6508444  3
   2121   2120   2134   2139     1  0.0000000  0.6508444  3
   2121   2124   2125   2127     1  0.0000000  0.6508444  3
   2121   2124   2132   2135     1  0.0000000  1.0460000  1
   2121   2124   2132   2135     1  0.0000000  0.6694400  3
   2122   2120   2121   2124     1  0.0000000  0.6508444  3
   2122   2120   2121   2133     1  0.0000000  1.0460000  1
   2122   2120   2121   2133     1  0.0000000  0.0000000  3
   2122   2120   2121   2123     1  0.0000000  0.6508444  3
   2122   2120   2134   2140     1  0.0000000  1.0460000  1
   2122   2120   2134   2140     1  0.0000000  0.0000000  3
   2122   2120   2134   2138     1  0.0000000  0.6508444  3
   2122   2120   2134   2139     1  0.0000000  0.6508444  3
   2122   2120   2142   2126     1  0.0000000  1.6038667  3
   2123   2121   2120   2134     1  0.0000000  0.6508444  3
   2123   2121   2120   2142     1  0.0000000  1.0460000  1
   2123   2121   2120   2142     1  0.0000000  0.0000000  3
   2123   2121   2124   2125     1  0.0000000  0.6508444  3
   2123   2121   2124   2132     1  0.0000000  1.0460000  1
   2123   2121   2124   2132     1  0.0000000  0.0000000  3
   2123   2121   2124   2128     1  0.0000000  0.6508444  3
   2123   2121   2133   2136     1  0.0000000  0.6973333  3
   2124   2121   2133   2136     1  0.0000000  1.0460000  1
   2124   2121   2133   2136     1  0.0000000  0.6694400  3
   2124   2125   2126   2129     1  0.0000000  0.6508444  3
   2124   2125   2131   2137     1  0.0000000  1.0460000  1
   2124   2125   2131   2137     1  0.0000000  0.6694400  3
   2125   2124   2132   2135     1  0.0000000  1.0460000  1
   2125   2124   2132   2135     1  0.0000000  0.6694400  3
   2126   2125   2124   2128     1  0.0000000  0.6508444  3
   2126   2125   2131   2137     1  0.0000000  1.0460000  1
   2126   2125   2131   2137     1  0.0000000  0.6694400  3
   2127   2125   2124   2132     1  0.0000000  1.0460000  1
   2127   2125   2124   2132     1  0.0000000  0.0000000  3
   2127   2125   2124   2128     1  0.0000000  0.6508444  3
   2127   2125   2126   2130     1  0.0000000  1.0460000  1
   2127   2125   2126   2130     1  0.0000000  0.0000000  3
   2127   2125   2126   2142     1  0.0000000  1.0460000  1
   2127   2125   2126   2142     1  0.0000000  0.0000000  3
   2127   2125   2126   2129     1  0.0000000  0.6508444  3
   2127   2125   2131   2137     1  0.0000000  0.6973333  3
   2128   2124   2121   2133     1  0.0000000  1.0460000  1
   2128   2124   2121   2133     1  0.0000000  0.0000000  3
   2128   2124   2125   2131     1  0.0000000  1.0460000  1
   2128   2124   2125   2131     1  0.0000000  0.0000000  3
   2128   2124   2132   2135     1  0.0000000  0.6973333  3
   2129   2126   2125   2131     1  0.0000000  0.6508444  3
   2138   2134   2120   2142     1  0.0000000  1.0460000  1
   2138   2134   2120   2142     1  0.0000000  0.0000000  3
   2138   2134   2140   2141     1  0.0000000  0.6973333  3
   2139   2134   2120   2142     1  0.0000000  1.0460000  1
   2139   2134   2120   2142     1  0.0000000  0.0000000  3
   2139   2134   2140   2141     1  0.0000000  0.6973333  3
   2143   2144   2147   2151     1  0.0000000  0.6508444  3
   2143   2144   2156   2159     1  0.0000000  1.0460000  1
   2143   2144   2156   2159     1  0.0000000  0.6694400  3
   2143   2157   2163   2164     1  0.0000000  1.0460000  1
   2143   2157   2163   2164     1  0.0000000  0.6694400  3
   2143   2165   2149   2152     1  0.0000000  1.6038667  3
   2144   2147   2148   2150     1  0.0000000  0.6508444  3
   2144   2147   2155   2158     1  0.0000000  1.0460000  1
   2144   2147   2155   2158     1  0.0000000  0.6694400  3
   2144   2143   2157   2161     1  0.0000000  0.6508444  3
   2144   2143   2157   2162     1  0.0000000  0.6508444  3
   2145   2143   2144   2147     1  0.0000000  0.6508444  3
   2145   2143   2144   2156     1  0.0000000  1.0460000  1
   2145   2143   2144   2156     1  0.0000000  0.0000000  3
   2145   2143   2144   2146     1  0.0000000  0.6508444  3
   2145   2143   2157   2163     1  0.0000000  1.0460000  1
   2145   2143   2157   2163     1  0.0000000  0.0000000  3
   2145   2143   2157   2161     1  0.0000000  0.6508444  3
   2145   2143   2157   2162     1  0.0000000  0.6508444  3
   2145   2143   2165   2149     1  0.0000000  1.6038667  3
   2146   2144   2147   2148     1  0.0000000  0.6508444  3
   2146   2144   2147   2155     1  0.0000000  1.0460000  1
   2146   2144   2147   2155     1  0.0000000  0.0000000  3
   2146   2144   2147   2151     1  0.0000000  0.6508444  3
   2146   2144   2156   2159     1  0.0000000  0.6973333  3
   2146   2144   2143   2157     1  0.0000000  0.6508444  3
   2146   2144   2143   2165     1  0.0000000  1.0460000  1
   2146   2144   2143   2165     1  0.0000000  0.0000000  3
   2147   2148   2149   2152     1  0.0000000  0.6508444  3
   2147   2148   2154   2160     1  0.0000000  1.0460000  1
   2147   2148   2154   2160     1  0.0000000  0.6694400  3
   2147   2144   2156   2159     1  0.0000000  1.0460000  1
   2147   2144   2156   2159     1  0.0000000  0.6694400  3
   2148   2147   2155   2158     1  0.0000000  1.0460000  1
   2148   2147   2155   2158     1  0.0000000  0.6694400  3
   2149   2148   2154   2160     1  0.0000000  1.0460000  1
   2149   2148   2154   2160     1  0.0000000  0.6694400  3
   2149   2148   2147   2151     1  0.0000000  0.6508444  3
   2150   2148   2149   2153     1  0.0000000  1.0460000  1
   2150   2148   2149   2153     1  0.0000000  0.0000000  3
   2150   2148   2149   2165     1  0.0000000  1.0460000  1
   2150   2148   2149   2165     1  0.0000000  0.0000000  3
   2150   2148   2149   2152     1  0.0000000  0.6508444  3
   2150   2148   2154   2160     1  0.0000000  0.6973333  3
   2150   2148   2147   2155     1  0.0000000  1.0460000  1
   2150   2148   2147   2155     1  0.0000000  0.0000000  3
   2150   2148   2147   2151     1  0.0000000  0.6508444  3
   2151   2147   2148   2154     1  0.0000000  1.0460000  1
   2151   2147   2148   2154     1  0.0000000  0.0000000  3
   2151   2147   2155   2158     1  0.0000000  0.6973333  3
   2151   2147   2144   2156     1  0.0000000  1.0460000  1
   2151   2147   2144   2156     1  0.0000000  0.0000000  3
   2152   2149   2148   2154     1  0.0000000  0.6508444  3
   2161   2157   2163   2164     1  0.0000000  0.6973333  3
   2161   2157   2143   2165     1  0.0000000  1.0460000  1
   2161   2157   2143   2165     1  0.0000000  0.0000000  3
   2162   2157   2163   2164     1  0.0000000  0.6973333  3
   2162   2157   2143   2165     1  0.0000000  1.0460000  1
   2162   2157   2143   2165     1  0.0000000  0.0000000  3
   2166   2167   2170   2174     1  0.0000000  0.6508444  3
   2166   2167   2179   2182     1  0.0000000  1.0460000  1
   2166   2167   2179   2182     1  0.0000000  0.6694400  3
   2166   2180   2186   2187     1  0.0000000  1.0460000  1
   2166   2180   2186   2187     1  0.0000000  0.6694400  3
   2166   2188   2172   2175     1  0.0000000  1.6038667  3
   2167   2166   2180   2184     1  0.0000000  0.6508444  3
   2167   2166   2180   2185     1  0.0000000  0.6508444  3
   2167   2170   2171   2173     1  0.0000000  0.6508444  3
   2167   2170   2178   2181     1  0.0000000  1.0460000  1
   2167   2170   2178   2181     1  0.0000000  0.6694400  3
   2168   2166   2167   2170     1  0.0000000  0.6508444  3
   2168   2166   2167   2179     1  0.0000000  1.0460000  1
   2168   2166   2167   2179     1  0.0000000  0.0000000  3
   2168   2166   2167   2169     1  0.0000000  0.6508444  3
   2168   2166   2180   2186     1  0.0000000  1.0460000  1
   2168   2166   2180   2186     1  0.0000000  0.0000000  3
   2168   2166   2180   2184     1  0.0000000  0.6508444  3
   2168   2166   2180   2185     1  0.0000000  0.6508444  3
   2168   2166   2188   2172     1  0.0000000  1.6038667  3
   2169   2167   2166   2180     1  0.0000000  0.6508444  3
   2169   2167   2166   2188     1  0.0000000  1.0460000  1
   2169   2167   2166   2188     1  0.0000000  0.0000000  3
   2169   2167   2170   2171     1  0.0000000  0.6508444  3
   2169   2167   2170   2178     1  0.0000000  1.0460000  1
   2169   2167   2170   2178     1  0.0000000  0.0000000  3
   2169   2167   2170   2174     1  0.0000000  0.6508444  3
   2169   2167   2179   2182     1  0.0000000  0.6973333  3
   2170   2167   2179   2182     1  0.0000000  1.0460000  1
   2170   2167   2179   2182     1  0.0000000  0.6694400  3
   2170   2171   2172   2175     1  0.0000000  0.6508444  3
   2170   2171   2177   2183     1  0.0000000  1.0460000  1
   2170   2171   2177   2183     1  0.0000000  0.6694400  3
   2171   2170   2178   2181     1  0.0000000  1.0460000  1
   2171   2170   2178   2181     1  0.0000000  0.6694400  3
   2172   2171   2170   2174     1  0.0000000  0.6508444  3
   2172   2171   2177   2183     1  0.0000000  1.0460000  1
   2172   2171   2177   2183     1  0.0000000  0.6694400  3
   2173   2171   2170   2178     1  0.0000000  1.0460000  1
   2173   2171   2170   2178     1  0.0000000  0.0000000  3
   2173   2171   2170   2174     1  0.0000000  0.6508444  3
   2173   2171   2172   2176     1  0.0000000  1.0460000  1
   2173   2171   2172   2176     1  0.0000000  0.0000000  3
   2173   2171   2172   2188     1  0.0000000  1.0460000  1
   2173   2171   2172   2188     1  0.0000000  0.0000000  3
   2173   2171   2172   2175     1  0.0000000  0.6508444  3
   2173   2171   2177   2183     1  0.0000000  0.6973333  3
   2174   2170   2167   2179     1  0.0000000  1.0460000  1
   2174   2170   2167   2179     1  0.0000000  0.0000000  3
   2174   2170   2171   2177     1  0.0000000  1.0460000  1
   2174   2170   2171   2177     1  0.0000000  0.0000000  3
   2174   2170   2178   2181     1  0.0000000  0.6973333  3
   2175   2172   2171   2177     1  0.0000000  0.6508444  3
   2184   2180   2166   2188     1  0.0000000  1.0460000  1
   2184   2180   2166   2188     1  0.0000000  0.0000000  3
   2184   2180   2186   2187     1  0.0000000  0.6973333  3
   2185   2180   2166   2188     1  0.0000000  1.0460000  1
   2185   2180   2166   2188     1  0.0000000  0.0000000  3
   2185   2180   2186   2187     1  0.0000000  0.6973333  3
   2189   2190   2193   2197     1  0.0000000  0.6508444  3
   2189   2190   2202   2205     1  0.0000000  1.0460000  1
   2189   2190   2202   2205     1  0.0000000  0.6694400  3
   2189   2203   2209   2210     1  0.0000000  1.0460000  1
   2189   2203   2209   2210     1  0.0000000  0.6694400  3
   2189   2211   2195   2198     1  0.0000000  1.6038667  3
   2190   2193   2194   2196     1  0.0000000  0.6508444  3
   2190   2193   2201   2204     1  0.0000000  1.0460000  1
   2190   2193   2201   2204     1  0.0000000  0.6694400  3
   2190   2189   2203   2207     1  0.0000000  0.6508444  3
   2190   2189   2203   2208     1  0.0000000  0.6508444  3
   2191   2189   2190   2193     1  0.0000000  0.6508444  3
   2191   2189   2190   2202     1  0.0000000  1.0460000  1
   2191   2189   2190   2202     1  0.0000000  0.0000000  3
   2191   2189   2190   2192     1  0.0000000  0.6508444  3
   2191   2189   2203   2209     1  0.0000000  1.0460000  1
   2191   2189   2203   2209     1  0.0000000  0.0000000  3
   2191   2189   2203   2207     1  0.0000000  0.6508444  3
   2191   2189   2203   2208     1  0.0000000  0.6508444  3
   2191   2189   2211   2195     1  0.0000000  1.6038667  3
   2192   2190   2193   2194     1  0.0000000  0.6508444  3
   2192   2190   2193   2201     1  0.0000000  1.0460000  1
   2192   2190   2193   2201     1  0.0000000  0.0000000  3
   2192   2190   2193   2197     1  0.0000000  0.6508444  3
   2192   2190   2202   2205     1  0.0000000  0.6973333  3
   2192   2190   2189   2203     1  0.0000000  0.6508444  3
   2192   2190   2189   2211     1  0.0000000  1.0460000  1
   2192   2190   2189   2211     1  0.0000000  0.0000000  3
   2193   2194   2195   2198     1  0.0000000  0.6508444  3
   2193   2194   2200   2206     1  0.0000000  1.0460000  1
   2193   2194   2200   2206     1  0.0000000  0.6694400  3
   2193   2190   2202   2205     1  0.0000000  1.0460000  1
   2193   2190   2202   2205     1  0.0000000  0.6694400  3
   2194   2193   2201   2204     1  0.0000000  1.0460000  1
   2194   2193   2201   2204     1  0.0000000  0.6694400  3
   2195   2194   2200   2206     1  0.0000000  1.0460000  1
   2195   2194   2200   2206     1  0.0000000  0.6694400  3
   2195   2194   2193   2197     1  0.0000000  0.6508444  3
   2196   2194   2195   2199     1  0.0000000  1.0460000  1
   2196   2194   2195   2199     1  0.0000000  0.0000000  3
   2196   2194   2195   2211     1  0.0000000  1.0460000  1
   2196   2194   2195   2211     1  0.0000000  0.0000000  3
   2196   2194   2195   2198     1  0.0000000  0.6508444  3
   2196   2194   2200   2206     1  0.0000000  0.6973333  3
   2196   2194   2193   2201     1  0.0000000  1.0460000  1
   2196   2194   2193   2201     1  0.0000000  0.0000000  3
   2196   2194   2193   2197     1  0.0000000  0.6508444  3
   2197   2193   2194   2200     1  0.0000000  1.0460000  1
   2197   2193   2194   2200     1  0.0000000  0.0000000  3
   2197   2193   2201   2204     1  0.0000000  0.6973333  3
   2197   2193   2190   2202     1  0.0000000  1.0460000  1
   2197   2193   2190   2202     1  0.0000000  0.0000000  3
   2198   2195   2194   2200     1  0.0000000  0.6508444  3
   2207   2203   2209   2210     1  0.0000000  0.6973333  3
   2207   2203   2189   2211     1  0.0000000  1.0460000  1
   2207   2203   2189   2211     1  0.0000000  0.0000000  3
   2208   2203   2209   2210     1  0.0000000  0.6973333  3
   2208   2203   2189   2211     1  0.0000000  1.0460000  1
   2208   2203   2189   2211     1  0.0000000  0.0000000  3
   2212   2213   2216   2220     1  0.0000000  0.6508444  3
   2212   2213   2225   2228     1  0.0000000  1.0460000  1
   2212   2213   2225   2228     1  0.0000000  0.6694400  3
   2212   2226   2232   2233     1  0.0000000  1.0460000  1
   2212   2226   2232   2233     1  0.0000000  0.6694400  3
   2212   2234   2218   2221     1  0.0000000  1.6038667  3
   2213   2212   2226   2230     1  0.0000000  0.6508444  3
   2213   2212   2226   2231     1  0.0000000  0.6508444  3
   2213   2216   2217   2219     1  0.0000000  0.6508444  3
   2213   2216   2224   2227     1  0.0000000  1.0460000  1
   2213   2216   2224   2227     1  0.0000000  0.6694400  3
   2214   2212   2213   2216     1  0.0000000  0.6508444  3
   2214   2212   2213   2225     1  0.0000000  1.0460000  1
   2214   2212   2213   2225     1  0.0000000  0.0000000  3
   2214   2212   2213   2215     1  0.0000000  0.6508444  3
   2214   2212   2226   2232     1  0.0000000  1.0460000  1
   2214   2212   2226   2232     1  0.0000000  0.0000000  3
   2214   2212   2226   2230     1  0.0000000  0.6508444  3
   2214   2212   2226   2231     1  0.0000000  0.6508444  3
   2214   2212   2234   2218     1  0.0000000  1.6038667  3
   2215   2213   2212   2226     1  0.0000000  0.6508444  3
   2215   2213   2212   2234     1  0.0000000  1.0460000  1
   2215   2213   2212   2234     1  0.0000000  0.0000000  3
   2215   2213   2216   2217     1  0.0000000  0.6508444  3
   2215   2213   2216   2224     1  0.0000000  1.0460000  1
   2215   2213   2216   2224     1  0.0000000  0.0000000  3
   2215   2213   2216   2220     1  0.0000000  0.6508444  3
   2215   2213   2225   2228     1  0.0000000  0.6973333  3
   2216   2213   2225   2228     1  0.0000000  1.0460000  1
   2216   2213   2225   2228     1  0.0000000  0.6694400  3
   2216   2217   2218   2221     1  0.0000000  0.6508444  3
   2216   2217   2223   2229     1  0.0000000  1.0460000  1
   2216   2217   2223   2229     1  0.0000000  0.6694400  3
   2217   2216   2224   2227     1  0.0000000  1.0460000  1
   2217   2216   2224   2227     1  0.0000000  0.6694400  3
   2218   2217   2216   2220     1  0.0000000  0.6508444  3
   2218   2217   2223   2229     1  0.0000000  1.0460000  1
   2218   2217   2223   2229     1  0.0000000  0.6694400  3
   2219   2217   2216   2224     1  0.0000000  1.0460000  1
   2219   2217   2216   2224     1  0.0000000  0.0000000  3
   2219   2217   2216   2220     1  0.0000000  0.6508444  3
   2219   2217   2218   2222     1  0.0000000  1.0460000  1
   2219   2217   2218   2222     1  0.0000000  0.0000000  3
   2219   2217   2218   2234     1  0.0000000  1.0460000  1
   2219   2217   2218   2234     1  0.0000000  0.0000000  3
   2219   2217   2218   2221     1  0.0000000  0.6508444  3
   2219   2217   2223   2229     1  0.0000000  0.6973333  3
   2220   2216   2213   2225     1  0.0000000  1.0460000  1
   2220   2216   2213   2225     1  0.0000000  0.0000000  3
   2220   2216   2217   2223     1  0.0000000  1.0460000  1
   2220   2216   2217   2223     1  0.0000000  0.0000000  3
   2220   2216   2224   2227     1  0.0000000  0.6973333  3
   2221   2218   2217   2223     1  0.0000000  0.6508444  3
   2230   2226   2212   2234     1  0.0000000  1.0460000  1
   2230   2226   2212   2234     1  0.0000000  0.0000000  3
   2230   2226   2232   2233     1  0.0000000  0.6973333  3
   2231   2226   2212   2234     1  0.0000000  1.0460000  1
   2231   2226   2212   2234     1  0.0000000  0.0000000  3
   2231   2226   2232   2233     1  0.0000000  0.6973333  3
   2235   2236   2239   2243     1  0.0000000  0.6508444  3
   2235   2236   2248   2251     1  0.0000000  1.0460000  1
   2235   2236   2248   2251     1  0.0000000  0.6694400  3
   2235   2249   2255   2256     1  0.0000000  1.0460000  1
   2235   2249   2255   2256     1  0.0000000  0.6694400  3
   2235   2257   2241   2244     1  0.0000000  1.6038667  3
   2236   2239   2240   2242     1  0.0000000  0.6508444  3
   2236   2239   2247   2250     1  0.0000000  1.0460000  1
   2236   2239   2247   2250     1  0.0000000  0.6694400  3
   2236   2235   2249   2253     1  0.0000000  0.6508444  3
   2236   2235   2249   2254     1  0.0000000  0.6508444  3
   2237   2235   2236   2239     1  0.0000000  0.6508444  3
   2237   2235   2236   2248     1  0.0000000  1.0460000  1
   2237   2235   2236   2248     1  0.0000000  0.0000000  3
   2237   2235   2236   2238     1  0.0000000  0.6508444  3
   2237   2235   2249   2255     1  0.0000000  1.0460000  1
   2237   2235   2249   2255     1  0.0000000  0.0000000  3
   2237   2235   2249   2253     1  0.0000000  0.6508444  3
   2237   2235   2249   2254     1  0.0000000  0.6508444  3
   2237   2235   2257   2241     1  0.0000000  1.6038667  3
   2238   2236   2239   2240     1  0.0000000  0.6508444  3
   2238   2236   2239   2247     1  0.0000000  1.0460000  1
   2238   2236   2239   2247     1  0.0000000  0.0000000  3
   2238   2236   2239   2243     1  0.0000000  0.6508444  3
   2238   2236   2248   2251     1  0.0000000  0.6973333  3
   2238   2236   2235   2249     1  0.0000000  0.6508444  3
   2238   2236   2235   2257     1  0.0000000  1.0460000  1
   2238   2236   2235   2257     1  0.0000000  0.0000000  3
   2239   2240   2241   2244     1  0.0000000  0.6508444  3
   2239   2240   2246   2252     1  0.0000000  1.0460000  1
   2239   2240   2246   2252     1  0.0000000  0.6694400  3
   2239   2236   2248   2251     1  0.0000000  1.0460000  1
   2239   2236   2248   2251     1  0.0000000  0.6694400  3
   2240   2239   2247   2250     1  0.0000000  1.0460000  1
   2240   2239   2247   2250     1  0.0000000  0.6694400  3
   2241   2240   2246   2252     1  0.0000000  1.0460000  1
   2241   2240   2246   2252     1  0.0000000  0.6694400  3
   2241   2240   2239   2243     1  0.0000000  0.6508444  3
   2242   2240   2241   2245     1  0.0000000  1.0460000  1
   2242   2240   2241   2245     1  0.0000000  0.0000000  3
   2242   2240   2241   2257     1  0.0000000  1.0460000  1
   2242   2240   2241   2257     1  0.0000000  0.0000000  3
   2242   2240   2241   2244     1  0.0000000  0.6508444  3
   2242   2240   2246   2252     1  0.0000000  0.6973333  3
   2242   2240   2239   2247     1  0.0000000  1.0460000  1
   2242   2240   2239   2247     1  0.0000000  0.0000000  3
   2242   2240   2239   2243     1  0.0000000  0.6508444  3
   2243   2239   2240   2246     1  0.0000000  1.0460000  1
   2243   2239   2240   2246     1  0.0000000  0.0000000  3
   2243   2239   2247   2250     1  0.0000000  0.6973333  3
   2243   2239   2236   2248     1  0.0000000  1.0460000  1
   2243   2239   2236   2248     1  0.0000000  0.0000000  3
   2244   2241   2240   2246     1  0.0000000  0.6508444  3
   2253   2249   2255   2256     1  0.0000000  0.6973333  3
   2253   2249   2235   2257     1  0.0000000  1.0460000  1
   2253   2249   2235   2257     1  0.0000000  0.0000000  3
   2254   2249   2255   2256     1  0.0000000  0.6973333  3
   2254   2249   2235   2257     1  0.0000000  1.0460000  1
   2254   2249   2235   2257     1  0.0000000  0.0000000  3
   2258   2259   2262   2266     1  0.0000000  0.6508444  3
   2258   2259   2271   2274     1  0.0000000  1.0460000  1
   2258   2259   2271   2274     1  0.0000000  0.6694400  3
   2258   2272   2278   2279     1  0.0000000  1.0460000  1
   2258   2272   2278   2279     1  0.0000000  0.6694400  3
   2258   2280   2264   2267     1  0.0000000  1.6038667  3
   2259   2258   2272   2276     1  0.0000000  0.6508444  3
   2259   2258   2272   2277     1  0.0000000  0.6508444  3
   2259   2262   2263   2265     1  0.0000000  0.6508444  3
   2259   2262   2270   2273     1  0.0000000  1.0460000  1
   2259   2262   2270   2273     1  0.0000000  0.6694400  3
   2260   2258   2259   2262     1  0.0000000  0.6508444  3
   2260   2258   2259   2271     1  0.0000000  1.0460000  1
   2260   2258   2259   2271     1  0.0000000  0.0000000  3
   2260   2258   2259   2261     1  0.0000000  0.6508444  3
   2260   2258   2272   2278     1  0.0000000  1.0460000  1
   2260   2258   2272   2278     1  0.0000000  0.0000000  3
   2260   2258   2272   2276     1  0.0000000  0.6508444  3
   2260   2258   2272   2277     1  0.0000000  0.6508444  3
   2260   2258   2280   2264     1  0.0000000  1.6038667  3
   2261   2259   2258   2272     1  0.0000000  0.6508444  3
   2261   2259   2258   2280     1  0.0000000  1.0460000  1
   2261   2259   2258   2280     1  0.0000000  0.0000000  3
   2261   2259   2262   2263     1  0.0000000  0.6508444  3
   2261   2259   2262   2270     1  0.0000000  1.0460000  1
   2261   2259   2262   2270     1  0.0000000  0.0000000  3
   2261   2259   2262   2266     1  0.0000000  0.6508444  3
   2261   2259   2271   2274     1  0.0000000  0.6973333  3
   2262   2259   2271   2274     1  0.0000000  1.0460000  1
   2262   2259   2271   2274     1  0.0000000  0.6694400  3
   2262   2263   2264   2267     1  0.0000000  0.6508444  3
   2262   2263   2269   2275     1  0.0000000  1.0460000  1
   2262   2263   2269   2275     1  0.0000000  0.6694400  3
   2263   2262   2270   2273     1  0.0000000  1.0460000  1
   2263   2262   2270   2273     1  0.0000000  0.6694400  3
   2264   2263   2262   2266     1  0.0000000  0.6508444  3
   2264   2263   2269   2275     1  0.0000000  1.0460000  1
   2264   2263   2269   2275     1  0.0000000  0.6694400  3
   2265   2263   2262   2270     1  0.0000000  1.0460000  1
   2265   2263   2262   2270     1  0.0000000  0.0000000  3
   2265   2263   2262   2266     1  0.0000000  0.6508444  3
   2265   2263   2264   2268     1  0.0000000  1.0460000  1
   2265   2263   2264   2268     1  0.0000000  0.0000000  3
   2265   2263   2264   2280     1  0.0000000  1.0460000  1
   2265   2263   2264   2280     1  0.0000000  0.0000000  3
   2265   2263   2264   2267     1  0.0000000  0.6508444  3
   2265   2263   2269   2275     1  0.0000000  0.6973333  3
   2266   2262   2259   2271     1  0.0000000  1.0460000  1
   2266   2262   2259   2271     1  0.0000000  0.0000000  3
   2266   2262   2263   2269     1  0.0000000  1.0460000  1
   2266   2262   2263   2269     1  0.0000000  0.0000000  3
   2266   2262   2270   2273     1  0.0000000  0.6973333  3
   2267   2264   2263   2269     1  0.0000000  0.6508444  3
   2276   2272   2258   2280     1  0.0000000  1.0460000  1
   2276   2272   2258   2280     1  0.0000000  0.0000000  3
   2276   2272   2278   2279     1  0.0000000  0.6973333  3
   2277   2272   2258   2280     1  0.0000000  1.0460000  1
   2277   2272   2258   2280     1  0.0000000  0.0000000  3
   2277   2272   2278   2279     1  0.0000000  0.6973333  3
   2281   2282   2285   2289     1  0.0000000  0.6508444  3
   2281   2282   2294   2297     1  0.0000000  1.0460000  1
   2281   2282   2294   2297     1  0.0000000  0.6694400  3
   2281   2295   2301   2302     1  0.0000000  1.0460000  1
   2281   2295   2301   2302     1  0.0000000  0.6694400  3
   2281   2303   2287   2290     1  0.0000000  1.6038667  3
   2282   2285   2286   2288     1  0.0000000  0.6508444  3
   2282   2285   2293   2296     1  0.0000000  1.0460000  1
   2282   2285   2293   2296     1  0.0000000  0.6694400  3
   2282   2281   2295   2299     1  0.0000000  0.6508444  3
   2282   2281   2295   2300     1  0.0000000  0.6508444  3
   2283   2281   2282   2285     1  0.0000000  0.6508444  3
   2283   2281   2282   2294     1  0.0000000  1.0460000  1
   2283   2281   2282   2294     1  0.0000000  0.0000000  3
   2283   2281   2282   2284     1  0.0000000  0.6508444  3
   2283   2281   2295   2301     1  0.0000000  1.0460000  1
   2283   2281   2295   2301     1  0.0000000  0.0000000  3
   2283   2281   2295   2299     1  0.0000000  0.6508444  3
   2283   2281   2295   2300     1  0.0000000  0.6508444  3
   2283   2281   2303   2287     1  0.0000000  1.6038667  3
   2284   2282   2285   2286     1  0.0000000  0.6508444  3
   2284   2282   2285   2293     1  0.0000000  1.0460000  1
   2284   2282   2285   2293     1  0.0000000  0.0000000  3
   2284   2282   2285   2289     1  0.0000000  0.6508444  3
   2284   2282   2294   2297     1  0.0000000  0.6973333  3
   2284   2282   2281   2295     1  0.0000000  0.6508444  3
   2284   2282   2281   2303     1  0.0000000  1.0460000  1
   2284   2282   2281   2303     1  0.0000000  0.0000000  3
   2285   2286   2287   2290     1  0.0000000  0.6508444  3
   2285   2286   2292   2298     1  0.0000000  1.0460000  1
   2285   2286   2292   2298     1  0.0000000  0.6694400  3
   2285   2282   2294   2297     1  0.0000000  1.0460000  1
   2285   2282   2294   2297     1  0.0000000  0.6694400  3
   2286   2285   2293   2296     1  0.0000000  1.0460000  1
   2286   2285   2293   2296     1  0.0000000  0.6694400  3
   2287   2286   2292   2298     1  0.0000000  1.0460000  1
   2287   2286   2292   2298     1  0.0000000  0.6694400  3
   2287   2286   2285   2289     1  0.0000000  0.6508444  3
   2288   2286   2287   2291     1  0.0000000  1.0460000  1
   2288   2286   2287   2291     1  0.0000000  0.0000000  3
   2288   2286   2287   2303     1  0.0000000  1.0460000  1
   2288   2286   2287   2303     1  0.0000000  0.0000000  3
   2288   2286   2287   2290     1  0.0000000  0.6508444  3
   2288   2286   2292   2298     1  0.0000000  0.6973333  3
   2288   2286   2285   2293     1  0.0000000  1.0460000  1
   2288   2286   2285   2293     1  0.0000000  0.0000000  3
   2288   2286   2285   2289     1  0.0000000  0.6508444  3
   2289   2285   2286   2292     1  0.0000000  1.0460000  1
   2289   2285   2286   2292     1  0.0000000  0.0000000  3
   2289   2285   2293   2296     1  0.0000000  0.6973333  3
   2289   2285   2282   2294     1  0.0000000  1.0460000  1
   2289   2285   2282   2294     1  0.0000000  0.0000000  3
   2290   2287   2286   2292     1  0.0000000  0.6508444  3
   2299   2295   2301   2302     1  0.0000000  0.6973333  3
   2299   2295   2281   2303     1  0.0000000  1.0460000  1
   2299   2295   2281   2303     1  0.0000000  0.0000000  3
   2300   2295   2301   2302     1  0.0000000  0.6973333  3
   2300   2295   2281   2303     1  0.0000000  1.0460000  1
   2300   2295   2281   2303     1  0.0000000  0.0000000  3
   2304   2305   2308   2312     1  0.0000000  0.6508444  3
   2304   2305   2317   2320     1  0.0000000  1.0460000  1
   2304   2305   2317   2320     1  0.0000000  0.6694400  3
   2304   2318   2324   2325     1  0.0000000  1.0460000  1
   2304   2318   2324   2325     1  0.0000000  0.6694400  3
   2304   2326   2310   2313     1  0.0000000  1.6038667  3
   2305   2304   2318   2322     1  0.0000000  0.6508444  3
   2305   2304   2318   2323     1  0.0000000  0.6508444  3
   2305   2308   2309   2311     1  0.0000000  0.6508444  3
   2305   2308   2316   2319     1  0.0000000  1.0460000  1
   2305   2308   2316   2319     1  0.0000000  0.6694400  3
   2306   2304   2305   2308     1  0.0000000  0.6508444  3
   2306   2304   2305   2317     1  0.0000000  1.0460000  1
   2306   2304   2305   2317     1  0.0000000  0.0000000  3
   2306   2304   2305   2307     1  0.0000000  0.6508444  3
   2306   2304   2318   2324     1  0.0000000  1.0460000  1
   2306   2304   2318   2324     1  0.0000000  0.0000000  3
   2306   2304   2318   2322     1  0.0000000  0.6508444  3
   2306   2304   2318   2323     1  0.0000000  0.6508444  3
   2306   2304   2326   2310     1  0.0000000  1.6038667  3
   2307   2305   2304   2318     1  0.0000000  0.6508444  3
   2307   2305   2304   2326     1  0.0000000  1.0460000  1
   2307   2305   2304   2326     1  0.0000000  0.0000000  3
   2307   2305   2308   2309     1  0.0000000  0.6508444  3
   2307   2305   2308   2316     1  0.0000000  1.0460000  1
   2307   2305   2308   2316     1  0.0000000  0.0000000  3
   2307   2305   2308   2312     1  0.0000000  0.6508444  3
   2307   2305   2317   2320     1  0.0000000  0.6973333  3
   2308   2305   2317   2320     1  0.0000000  1.0460000  1
   2308   2305   2317   2320     1  0.0000000  0.6694400  3
   2308   2309   2310   2313     1  0.0000000  0.6508444  3
   2308   2309   2315   2321     1  0.0000000  1.0460000  1
   2308   2309   2315   2321     1  0.0000000  0.6694400  3
   2309   2308   2316   2319     1  0.0000000  1.0460000  1
   2309   2308   2316   2319     1  0.0000000  0.6694400  3
   2310   2309   2308   2312     1  0.0000000  0.6508444  3
   2310   2309   2315   2321     1  0.0000000  1.0460000  1
   2310   2309   2315   2321     1  0.0000000  0.6694400  3
   2311   2309   2308   2316     1  0.0000000  1.0460000  1
   2311   2309   2308   2316     1  0.0000000  0.0000000  3
   2311   2309   2308   2312     1  0.0000000  0.6508444  3
   2311   2309   2310   2314     1  0.0000000  1.0460000  1
   2311   2309   2310   2314     1  0.0000000  0.0000000  3
   2311   2309   2310   2326     1  0.0000000  1.0460000  1
   2311   2309   2310   2326     1  0.0000000  0.0000000  3
   2311   2309   2310   2313     1  0.0000000  0.6508444  3
   2311   2309   2315   2321     1  0.0000000  0.6973333  3
   2312   2308   2305   2317     1  0.0000000  1.0460000  1
   2312   2308   2305   2317     1  0.0000000  0.0000000  3
   2312   2308   2309   2315     1  0.0000000  1.0460000  1
   2312   2308   2309   2315     1  0.0000000  0.0000000  3
   2312   2308   2316   2319     1  0.0000000  0.6973333  3
   2313   2310   2309   2315     1  0.0000000  0.6508444  3
   2322   2318   2304   2326     1  0.0000000  1.0460000  1
   2322   2318   2304   2326     1  0.0000000  0.0000000  3
   2322   2318   2324   2325     1  0.0000000  0.6973333  3
   2323   2318   2304   2326     1  0.0000000  1.0460000  1
   2323   2318   2304   2326     1  0.0000000  0.0000000  3
   2323   2318   2324   2325     1  0.0000000  0.6973333  3
   2327   2328   2331   2335     1  0.0000000  0.6508444  3
   2327   2328   2340   2343     1  0.0000000  1.0460000  1
   2327   2328   2340   2343     1  0.0000000  0.6694400  3
   2327   2341   2347   2348     1  0.0000000  1.0460000  1
   2327   2341   2347   2348     1  0.0000000  0.6694400  3
   2327   2349   2333   2336     1  0.0000000  1.6038667  3
   2328   2331   2332   2334     1  0.0000000  0.6508444  3
   2328   2331   2339   2342     1  0.0000000  1.0460000  1
   2328   2331   2339   2342     1  0.0000000  0.6694400  3
   2328   2327   2341   2345     1  0.0000000  0.6508444  3
   2328   2327   2341   2346     1  0.0000000  0.6508444  3
   2329   2327   2328   2331     1  0.0000000  0.6508444  3
   2329   2327   2328   2340     1  0.0000000  1.0460000  1
   2329   2327   2328   2340     1  0.0000000  0.0000000  3
   2329   2327   2328   2330     1  0.0000000  0.6508444  3
   2329   2327   2341   2347     1  0.0000000  1.0460000  1
   2329   2327   2341   2347     1  0.0000000  0.0000000  3
   2329   2327   2341   2345     1  0.0000000  0.6508444  3
   2329   2327   2341   2346     1  0.0000000  0.6508444  3
   2329   2327   2349   2333     1  0.0000000  1.6038667  3
   2330   2328   2331   2332     1  0.0000000  0.6508444  3
   2330   2328   2331   2339     1  0.0000000  1.0460000  1
   2330   2328   2331   2339     1  0.0000000  0.0000000  3
   2330   2328   2331   2335     1  0.0000000  0.6508444  3
   2330   2328   2340   2343     1  0.0000000  0.6973333  3
   2330   2328   2327   2341     1  0.0000000  0.6508444  3
   2330   2328   2327   2349     1  0.0000000  1.0460000  1
   2330   2328   2327   2349     1  0.0000000  0.0000000  3
   2331   2332   2333   2336     1  0.0000000  0.6508444  3
   2331   2332   2338   2344     1  0.0000000  1.0460000  1
   2331   2332   2338   2344     1  0.0000000  0.6694400  3
   2331   2328   2340   2343     1  0.0000000  1.0460000  1
   2331   2328   2340   2343     1  0.0000000  0.6694400  3
   2332   2331   2339   2342     1  0.0000000  1.0460000  1
   2332   2331   2339   2342     1  0.0000000  0.6694400  3
   2333   2332   2338   2344     1  0.0000000  1.0460000  1
   2333   2332   2338   2344     1  0.0000000  0.6694400  3
   2333   2332   2331   2335     1  0.0000000  0.6508444  3
   2334   2332   2333   2337     1  0.0000000  1.0460000  1
   2334   2332   2333   2337     1  0.0000000  0.0000000  3
   2334   2332   2333   2349     1  0.0000000  1.0460000  1
   2334   2332   2333   2349     1  0.0000000  0.0000000  3
   2334   2332   2333   2336     1  0.0000000  0.6508444  3
   2334   2332   2338   2344     1  0.0000000  0.6973333  3
   2334   2332   2331   2339     1  0.0000000  1.0460000  1
   2334   2332   2331   2339     1  0.0000000  0.0000000  3
   2334   2332   2331   2335     1  0.0000000  0.6508444  3
   2335   2331   2332   2338     1  0.0000000  1.0460000  1
   2335   2331   2332   2338     1  0.0000000  0.0000000  3
   2335   2331   2339   2342     1  0.0000000  0.6973333  3
   2335   2331   2328   2340     1  0.0000000  1.0460000  1
   2335   2331   2328   2340     1  0.0000000  0.0000000  3
   2336   2333   2332   2338     1  0.0000000  0.6508444  3
   2345   2341   2347   2348     1  0.0000000  0.6973333  3
   2345   2341   2327   2349     1  0.0000000  1.0460000  1
   2345   2341   2327   2349     1  0.0000000  0.0000000  3
   2346   2341   2347   2348     1  0.0000000  0.6973333  3
   2346   2341   2327   2349     1  0.0000000  1.0460000  1
   2346   2341   2327   2349     1  0.0000000  0.0000000  3
   2350   2351   2354   2358     1  0.0000000  0.6508444  3
   2350   2351   2363   2366     1  0.0000000  1.0460000  1
   2350   2351   2363   2366     1  0.0000000  0.6694400  3
   2350   2364   2370   2371     1  0.0000000  1.0460000  1
   2350   2364   2370   2371     1  0.0000000  0.6694400  3
   2350   2372   2356   2359     1  0.0000000  1.6038667  3
   2351   2350   2364   2368     1  0.0000000  0.6508444  3
   2351   2350   2364   2369     1  0.0000000  0.6508444  3
   2351   2354   2355   2357     1  0.0000000  0.6508444  3
   2351   2354   2362   2365     1  0.0000000  1.0460000  1
   2351   2354   2362   2365     1  0.0000000  0.6694400  3
   2352   2350   2351   2354     1  0.0000000  0.6508444  3
   2352   2350   2351   2363     1  0.0000000  1.0460000  1
   2352   2350   2351   2363     1  0.0000000  0.0000000  3
   2352   2350   2351   2353     1  0.0000000  0.6508444  3
   2352   2350   2364   2370     1  0.0000000  1.0460000  1
   2352   2350   2364   2370     1  0.0000000  0.0000000  3
   2352   2350   2364   2368     1  0.0000000  0.6508444  3
   2352   2350   2364   2369     1  0.0000000  0.6508444  3
   2352   2350   2372   2356     1  0.0000000  1.6038667  3
   2353   2351   2350   2364     1  0.0000000  0.6508444  3
   2353   2351   2350   2372     1  0.0000000  1.0460000  1
   2353   2351   2350   2372     1  0.0000000  0.0000000  3
   2353   2351   2354   2355     1  0.0000000  0.6508444  3
   2353   2351   2354   2362     1  0.0000000  1.0460000  1
   2353   2351   2354   2362     1  0.0000000  0.0000000  3
   2353   2351   2354   2358     1  0.0000000  0.6508444  3
   2353   2351   2363   2366     1  0.0000000  0.6973333  3
   2354   2351   2363   2366     1  0.0000000  1.0460000  1
   2354   2351   2363   2366     1  0.0000000  0.6694400  3
   2354   2355   2356   2359     1  0.0000000  0.6508444  3
   2354   2355   2361   2367     1  0.0000000  1.0460000  1
   2354   2355   2361   2367     1  0.0000000  0.6694400  3
   2355   2354   2362   2365     1  0.0000000  1.0460000  1
   2355   2354   2362   2365     1  0.0000000  0.6694400  3
   2356   2355   2354   2358     1  0.0000000  0.6508444  3
   2356   2355   2361   2367     1  0.0000000  1.0460000  1
   2356   2355   2361   2367     1  0.0000000  0.6694400  3
   2357   2355   2354   2362     1  0.0000000  1.0460000  1
   2357   2355   2354   2362     1  0.0000000  0.0000000  3
   2357   2355   2354   2358     1  0.0000000  0.6508444  3
   2357   2355   2356   2360     1  0.0000000  1.0460000  1
   2357   2355   2356   2360     1  0.0000000  0.0000000  3
   2357   2355   2356   2372     1  0.0000000  1.0460000  1
   2357   2355   2356   2372     1  0.0000000  0.0000000  3
   2357   2355   2356   2359     1  0.0000000  0.6508444  3
   2357   2355   2361   2367     1  0.0000000  0.6973333  3
   2358   2354   2351   2363     1  0.0000000  1.0460000  1
   2358   2354   2351   2363     1  0.0000000  0.0000000  3
   2358   2354   2355   2361     1  0.0000000  1.0460000  1
   2358   2354   2355   2361     1  0.0000000  0.0000000  3
   2358   2354   2362   2365     1  0.0000000  0.6973333  3
   2359   2356   2355   2361     1  0.0000000  0.6508444  3
   2368   2364   2350   2372     1  0.0000000  1.0460000  1
   2368   2364   2350   2372     1  0.0000000  0.0000000  3
   2368   2364   2370   2371     1  0.0000000  0.6973333  3
   2369   2364   2350   2372     1  0.0000000  1.0460000  1
   2369   2364   2350   2372     1  0.0000000  0.0000000  3
   2369   2364   2370   2371     1  0.0000000  0.6973333  3
   2373   2374   2377   2381     1  0.0000000  0.6508444  3
   2373   2374   2386   2389     1  0.0000000  1.0460000  1
   2373   2374   2386   2389     1  0.0000000  0.6694400  3
   2373   2387   2393   2394     1  0.0000000  1.0460000  1
   2373   2387   2393   2394     1  0.0000000  0.6694400  3
   2373   2395   2379   2382     1  0.0000000  1.6038667  3
   2374   2377   2378   2380     1  0.0000000  0.6508444  3
   2374   2377   2385   2388     1  0.0000000  1.0460000  1
   2374   2377   2385   2388     1  0.0000000  0.6694400  3
   2374   2373   2387   2391     1  0.0000000  0.6508444  3
   2374   2373   2387   2392     1  0.0000000  0.6508444  3
   2375   2373   2374   2377     1  0.0000000  0.6508444  3
   2375   2373   2374   2386     1  0.0000000  1.0460000  1
   2375   2373   2374   2386     1  0.0000000  0.0000000  3
   2375   2373   2374   2376     1  0.0000000  0.6508444  3
   2375   2373   2387   2393     1  0.0000000  1.0460000  1
   2375   2373   2387   2393     1  0.0000000  0.0000000  3
   2375   2373   2387   2391     1  0.0000000  0.6508444  3
   2375   2373   2387   2392     1  0.0000000  0.6508444  3
   2375   2373   2395   2379     1  0.0000000  1.6038667  3
   2376   2374   2377   2378     1  0.0000000  0.6508444  3
   2376   2374   2377   2385     1  0.0000000  1.0460000  1
   2376   2374   2377   2385     1  0.0000000  0.0000000  3
   2376   2374   2377   2381     1  0.0000000  0.6508444  3
   2376   2374   2386   2389     1  0.0000000  0.6973333  3
   2376   2374   2373   2387     1  0.0000000  0.6508444  3
   2376   2374   2373   2395     1  0.0000000  1.0460000  1
   2376   2374   2373   2395     1  0.0000000  0.0000000  3
   2377   2378   2379   2382     1  0.0000000  0.6508444  3
   2377   2378   2384   2390     1  0.0000000  1.0460000  1
   2377   2378   2384   2390     1  0.0000000  0.6694400  3
   2377   2374   2386   2389     1  0.0000000  1.0460000  1
   2377   2374   2386   2389     1  0.0000000  0.6694400  3
   2378   2377   2385   2388     1  0.0000000  1.0460000  1
   2378   2377   2385   2388     1  0.0000000  0.6694400  3
   2379   2378   2384   2390     1  0.0000000  1.0460000  1
   2379   2378   2384   2390     1  0.0000000  0.6694400  3
   2379   2378   2377   2381     1  0.0000000  0.6508444  3
   2380   2378   2379   2383     1  0.0000000  1.0460000  1
   2380   2378   2379   2383     1  0.0000000  0.0000000  3
   2380   2378   2379   2395     1  0.0000000  1.0460000  1
   2380   2378   2379   2395     1  0.0000000  0.0000000  3
   2380   2378   2379   2382     1  0.0000000  0.6508444  3
   2380   2378   2384   2390     1  0.0000000  0.6973333  3
   2380   2378   2377   2385     1  0.0000000  1.0460000  1
   2380   2378   2377   2385     1  0.0000000  0.0000000  3
   2380   2378   2377   2381     1  0.0000000  0.6508444  3
   2381   2377   2378   2384     1  0.0000000  1.0460000  1
   2381   2377   2378   2384     1  0.0000000  0.0000000  3
   2381   2377   2385   2388     1  0.0000000  0.6973333  3
   2381   2377   2374   2386     1  0.0000000  1.0460000  1
   2381   2377   2374   2386     1  0.0000000  0.0000000  3
   2382   2379   2378   2384     1  0.0000000  0.6508444  3
   2391   2387   2393   2394     1  0.0000000  0.6973333  3
   2391   2387   2373   2395     1  0.0000000  1.0460000  1
   2391   2387   2373   2395     1  0.0000000  0.0000000  3
   2392   2387   2393   2394     1  0.0000000  0.6973333  3
   2392   2387   2373   2395     1  0.0000000  1.0460000  1
   2392   2387   2373   2395     1  0.0000000  0.0000000  3
   2396   2397   2400   2404     1  0.0000000  0.6508444  3
   2396   2397   2409   2412     1  0.0000000  1.0460000  1
   2396   2397   2409   2412     1  0.0000000  0.6694400  3
   2396   2410   2416   2417     1  0.0000000  1.0460000  1
   2396   2410   2416   2417     1  0.0000000  0.6694400  3
   2396   2418   2402   2405     1  0.0000000  1.6038667  3
   2397   2396   2410   2414     1  0.0000000  0.6508444  3
   2397   2396   2410   2415     1  0.0000000  0.6508444  3
   2397   2400   2401   2403     1  0.0000000  0.6508444  3
   2397   2400   2408   2411     1  0.0000000  1.0460000  1
   2397   2400   2408   2411     1  0.0000000  0.6694400  3
   2398   2396   2397   2400     1  0.0000000  0.6508444  3
   2398   2396   2397   2409     1  0.0000000  1.0460000  1
   2398   2396   2397   2409     1  0.0000000  0.0000000  3
   2398   2396   2397   2399     1  0.0000000  0.6508444  3
   2398   2396   2410   2416     1  0.0000000  1.0460000  1
   2398   2396   2410   2416     1  0.0000000  0.0000000  3
   2398   2396   2410   2414     1  0.0000000  0.6508444  3
   2398   2396   2410   2415     1  0.0000000  0.6508444  3
   2398   2396   2418   2402     1  0.0000000  1.6038667  3
   2399   2397   2396   2410     1  0.0000000  0.6508444  3
   2399   2397   2396   2418     1  0.0000000  1.0460000  1
   2399   2397   2396   2418     1  0.0000000  0.0000000  3
   2399   2397   2400   2401     1  0.0000000  0.6508444  3
   2399   2397   2400   2408     1  0.0000000  1.0460000  1
   2399   2397   2400   2408     1  0.0000000  0.0000000  3
   2399   2397   2400   2404     1  0.0000000  0.6508444  3
   2399   2397   2409   2412     1  0.0000000  0.6973333  3
   2400   2397   2409   2412     1  0.0000000  1.0460000  1
   2400   2397   2409   2412     1  0.0000000  0.6694400  3
   2400   2401   2402   2405     1  0.0000000  0.6508444  3
   2400   2401   2407   2413     1  0.0000000  1.0460000  1
   2400   2401   2407   2413     1  0.0000000  0.6694400  3
   2401   2400   2408   2411     1  0.0000000  1.0460000  1
   2401   2400   2408   2411     1  0.0000000  0.6694400  3
   2402   2401   2400   2404     1  0.0000000  0.6508444  3
   2402   2401   2407   2413     1  0.0000000  1.0460000  1
   2402   2401   2407   2413     1  0.0000000  0.6694400  3
   2403   2401   2400   2408     1  0.0000000  1.0460000  1
   2403   2401   2400   2408     1  0.0000000  0.0000000  3
   2403   2401   2400   2404     1  0.0000000  0.6508444  3
   2403   2401   2402   2406     1  0.0000000  1.0460000  1
   2403   2401   2402   2406     1  0.0000000  0.0000000  3
   2403   2401   2402   2418     1  0.0000000  1.0460000  1
   2403   2401   2402   2418     1  0.0000000  0.0000000  3
   2403   2401   2402   2405     1  0.0000000  0.6508444  3
   2403   2401   2407   2413     1  0.0000000  0.6973333  3
   2404   2400   2397   2409     1  0.0000000  1.0460000  1
   2404   2400   2397   2409     1  0.0000000  0.0000000  3
   2404   2400   2401   2407     1  0.0000000  1.0460000  1
   2404   2400   2401   2407     1  0.0000000  0.0000000  3
   2404   2400   2408   2411     1  0.0000000  0.6973333  3
   2405   2402   2401   2407     1  0.0000000  0.6508444  3
   2414   2410   2396   2418     1  0.0000000  1.0460000  1
   2414   2410   2396   2418     1  0.0000000  0.0000000  3
   2414   2410   2416   2417     1  0.0000000  0.6973333  3
   2415   2410   2396   2418     1  0.0000000  1.0460000  1
   2415   2410   2396   2418     1  0.0000000  0.0000000  3
   2415   2410   2416   2417     1  0.0000000  0.6973333  3
   2419   2420   2423   2427     1  0.0000000  0.6508444  3
   2419   2420   2432   2435     1  0.0000000  1.0460000  1
   2419   2420   2432   2435     1  0.0000000  0.6694400  3
   2419   2433   2439   2440     1  0.0000000  1.0460000  1
   2419   2433   2439   2440     1  0.0000000  0.6694400  3
   2419   2441   2425   2428     1  0.0000000  1.6038667  3
   2420   2423   2424   2426     1  0.0000000  0.6508444  3
   2420   2423   2431   2434     1  0.0000000  1.0460000  1
   2420   2423   2431   2434     1  0.0000000  0.6694400  3
   2420   2419   2433   2437     1  0.0000000  0.6508444  3
   2420   2419   2433   2438     1  0.0000000  0.6508444  3
   2421   2419   2420   2423     1  0.0000000  0.6508444  3
   2421   2419   2420   2432     1  0.0000000  1.0460000  1
   2421   2419   2420   2432     1  0.0000000  0.0000000  3
   2421   2419   2420   2422     1  0.0000000  0.6508444  3
   2421   2419   2433   2439     1  0.0000000  1.0460000  1
   2421   2419   2433   2439     1  0.0000000  0.0000000  3
   2421   2419   2433   2437     1  0.0000000  0.6508444  3
   2421   2419   2433   2438     1  0.0000000  0.6508444  3
   2421   2419   2441   2425     1  0.0000000  1.6038667  3
   2422   2420   2423   2424     1  0.0000000  0.6508444  3
   2422   2420   2423   2431     1  0.0000000  1.0460000  1
   2422   2420   2423   2431     1  0.0000000  0.0000000  3
   2422   2420   2423   2427     1  0.0000000  0.6508444  3
   2422   2420   2432   2435     1  0.0000000  0.6973333  3
   2422   2420   2419   2433     1  0.0000000  0.6508444  3
   2422   2420   2419   2441     1  0.0000000  1.0460000  1
   2422   2420   2419   2441     1  0.0000000  0.0000000  3
   2423   2424   2425   2428     1  0.0000000  0.6508444  3
   2423   2424   2430   2436     1  0.0000000  1.0460000  1
   2423   2424   2430   2436     1  0.0000000  0.6694400  3
   2423   2420   2432   2435     1  0.0000000  1.0460000  1
   2423   2420   2432   2435     1  0.0000000  0.6694400  3
   2424   2423   2431   2434     1  0.0000000  1.0460000  1
   2424   2423   2431   2434     1  0.0000000  0.6694400  3
   2425   2424   2430   2436     1  0.0000000  1.0460000  1
   2425   2424   2430   2436     1  0.0000000  0.6694400  3
   2425   2424   2423   2427     1  0.0000000  0.6508444  3
   2426   2424   2425   2429     1  0.0000000  1.0460000  1
   2426   2424   2425   2429     1  0.0000000  0.0000000  3
   2426   2424   2425   2441     1  0.0000000  1.0460000  1
   2426   2424   2425   2441     1  0.0000000  0.0000000  3
   2426   2424   2425   2428     1  0.0000000  0.6508444  3
   2426   2424   2430   2436     1  0.0000000  0.6973333  3
   2426   2424   2423   2431     1  0.0000000  1.0460000  1
   2426   2424   2423   2431     1  0.0000000  0.0000000  3
   2426   2424   2423   2427     1  0.0000000  0.6508444  3
   2427   2423   2424   2430     1  0.0000000  1.0460000  1
   2427   2423   2424   2430     1  0.0000000  0.0000000  3
   2427   2423   2431   2434     1  0.0000000  0.6973333  3
   2427   2423   2420   2432     1  0.0000000  1.0460000  1
   2427   2423   2420   2432     1  0.0000000  0.0000000  3
   2428   2425   2424   2430     1  0.0000000  0.6508444  3
   2437   2433   2439   2440     1  0.0000000  0.6973333  3
   2437   2433   2419   2441     1  0.0000000  1.0460000  1
   2437   2433   2419   2441     1  0.0000000  0.0000000  3
   2438   2433   2439   2440     1  0.0000000  0.6973333  3
   2438   2433   2419   2441     1  0.0000000  1.0460000  1
   2438   2433   2419   2441     1  0.0000000  0.0000000  3
   2442   2443   2446   2450     1  0.0000000  0.6508444  3
   2442   2443   2455   2458     1  0.0000000  1.0460000  1
   2442   2443   2455   2458     1  0.0000000  0.6694400  3
   2442   2456   2462   2463     1  0.0000000  1.0460000  1
   2442   2456   2462   2463     1  0.0000000  0.6694400  3
   2442   2464   2448   2451     1  0.0000000  1.6038667  3
   2443   2442   2456   2460     1  0.0000000  0.6508444  3
   2443   2442   2456   2461     1  0.0000000  0.6508444  3
   2443   2446   2447   2449     1  0.0000000  0.6508444  3
   2443   2446   2454   2457     1  0.0000000  1.0460000  1
   2443   2446   2454   2457     1  0.0000000  0.6694400  3
   2444   2442   2443   2446     1  0.0000000  0.6508444  3
   2444   2442   2443   2455     1  0.0000000  1.0460000  1
   2444   2442   2443   2455     1  0.0000000  0.0000000  3
   2444   2442   2443   2445     1  0.0000000  0.6508444  3
   2444   2442   2456   2462     1  0.0000000  1.0460000  1
   2444   2442   2456   2462     1  0.0000000  0.0000000  3
   2444   2442   2456   2460     1  0.0000000  0.6508444  3
   2444   2442   2456   2461     1  0.0000000  0.6508444  3
   2444   2442   2464   2448     1  0.0000000  1.6038667  3
   2445   2443   2442   2456     1  0.0000000  0.6508444  3
   2445   2443   2442   2464     1  0.0000000  1.0460000  1
   2445   2443   2442   2464     1  0.0000000  0.0000000  3
   2445   2443   2446   2447     1  0.0000000  0.6508444  3
   2445   2443   2446   2454     1  0.0000000  1.0460000  1
   2445   2443   2446   2454     1  0.0000000  0.0000000  3
   2445   2443   2446   2450     1  0.0000000  0.6508444  3
   2445   2443   2455   2458     1  0.0000000  0.6973333  3
   2446   2443   2455   2458     1  0.0000000  1.0460000  1
   2446   2443   2455   2458     1  0.0000000  0.6694400  3
   2446   2447   2448   2451     1  0.0000000  0.6508444  3
   2446   2447   2453   2459     1  0.0000000  1.0460000  1
   2446   2447   2453   2459     1  0.0000000  0.6694400  3
   2447   2446   2454   2457     1  0.0000000  1.0460000  1
   2447   2446   2454   2457     1  0.0000000  0.6694400  3
   2448   2447   2446   2450     1  0.0000000  0.6508444  3
   2448   2447   2453   2459     1  0.0000000  1.0460000  1
   2448   2447   2453   2459     1  0.0000000  0.6694400  3
   2449   2447   2446   2454     1  0.0000000  1.0460000  1
   2449   2447   2446   2454     1  0.0000000  0.0000000  3
   2449   2447   2446   2450     1  0.0000000  0.6508444  3
   2449   2447   2448   2452     1  0.0000000  1.0460000  1
   2449   2447   2448   2452     1  0.0000000  0.0000000  3
   2449   2447   2448   2464     1  0.0000000  1.0460000  1
   2449   2447   2448   2464     1  0.0000000  0.0000000  3
   2449   2447   2448   2451     1  0.0000000  0.6508444  3
   2449   2447   2453   2459     1  0.0000000  0.6973333  3
   2450   2446   2443   2455     1  0.0000000  1.0460000  1
   2450   2446   2443   2455     1  0.0000000  0.0000000  3
   2450   2446   2447   2453     1  0.0000000  1.0460000  1
   2450   2446   2447   2453     1  0.0000000  0.0000000  3
   2450   2446   2454   2457     1  0.0000000  0.6973333  3
   2451   2448   2447   2453     1  0.0000000  0.6508444  3
   2460   2456   2442   2464     1  0.0000000  1.0460000  1
   2460   2456   2442   2464     1  0.0000000  0.0000000  3
   2460   2456   2462   2463     1  0.0000000  0.6973333  3
   2461   2456   2442   2464     1  0.0000000  1.0460000  1
   2461   2456   2442   2464     1  0.0000000  0.0000000  3
   2461   2456   2462   2463     1  0.0000000  0.6973333  3
   2465   2466   2469   2473     1  0.0000000  0.6508444  3
   2465   2466   2478   2481     1  0.0000000  1.0460000  1
   2465   2466   2478   2481     1  0.0000000  0.6694400  3
   2465   2479   2485   2486     1  0.0000000  1.0460000  1
   2465   2479   2485   2486     1  0.0000000  0.6694400  3
   2465   2487   2471   2474     1  0.0000000  1.6038667  3
   2466   2469   2470   2472     1  0.0000000  0.6508444  3
   2466   2469   2477   2480     1  0.0000000  1.0460000  1
   2466   2469   2477   2480     1  0.0000000  0.6694400  3
   2466   2465   2479   2483     1  0.0000000  0.6508444  3
   2466   2465   2479   2484     1  0.0000000  0.6508444  3
   2467   2465   2466   2469     1  0.0000000  0.6508444  3
   2467   2465   2466   2478     1  0.0000000  1.0460000  1
   2467   2465   2466   2478     1  0.0000000  0.0000000  3
   2467   2465   2466   2468     1  0.0000000  0.6508444  3
   2467   2465   2479   2485     1  0.0000000  1.0460000  1
   2467   2465   2479   2485     1  0.0000000  0.0000000  3
   2467   2465   2479   2483     1  0.0000000  0.6508444  3
   2467   2465   2479   2484     1  0.0000000  0.6508444  3
   2467   2465   2487   2471     1  0.0000000  1.6038667  3
   2468   2466   2469   2470     1  0.0000000  0.6508444  3
   2468   2466   2469   2477     1  0.0000000  1.0460000  1
   2468   2466   2469   2477     1  0.0000000  0.0000000  3
   2468   2466   2469   2473     1  0.0000000  0.6508444  3
   2468   2466   2478   2481     1  0.0000000  0.6973333  3
   2468   2466   2465   2479     1  0.0000000  0.6508444  3
   2468   2466   2465   2487     1  0.0000000  1.0460000  1
   2468   2466   2465   2487     1  0.0000000  0.0000000  3
   2469   2470   2471   2474     1  0.0000000  0.6508444  3
   2469   2470   2476   2482     1  0.0000000  1.0460000  1
   2469   2470   2476   2482     1  0.0000000  0.6694400  3
   2469   2466   2478   2481     1  0.0000000  1.0460000  1
   2469   2466   2478   2481     1  0.0000000  0.6694400  3
   2470   2469   2477   2480     1  0.0000000  1.0460000  1
   2470   2469   2477   2480     1  0.0000000  0.6694400  3
   2471   2470   2476   2482     1  0.0000000  1.0460000  1
   2471   2470   2476   2482     1  0.0000000  0.6694400  3
   2471   2470   2469   2473     1  0.0000000  0.6508444  3
   2472   2470   2471   2475     1  0.0000000  1.0460000  1
   2472   2470   2471   2475     1  0.0000000  0.0000000  3
   2472   2470   2471   2487     1  0.0000000  1.0460000  1
   2472   2470   2471   2487     1  0.0000000  0.0000000  3
   2472   2470   2471   2474     1  0.0000000  0.6508444  3
   2472   2470   2476   2482     1  0.0000000  0.6973333  3
   2472   2470   2469   2477     1  0.0000000  1.0460000  1
   2472   2470   2469   2477     1  0.0000000  0.0000000  3
   2472   2470   2469   2473     1  0.0000000  0.6508444  3
   2473   2469   2470   2476     1  0.0000000  1.0460000  1
   2473   2469   2470   2476     1  0.0000000  0.0000000  3
   2473   2469   2477   2480     1  0.0000000  0.6973333  3
   2473   2469   2466   2478     1  0.0000000  1.0460000  1
   2473   2469   2466   2478     1  0.0000000  0.0000000  3
   2474   2471   2470   2476     1  0.0000000  0.6508444  3
   2483   2479   2485   2486     1  0.0000000  0.6973333  3
   2483   2479   2465   2487     1  0.0000000  1.0460000  1
   2483   2479   2465   2487     1  0.0000000  0.0000000  3
   2484   2479   2485   2486     1  0.0000000  0.6973333  3
   2484   2479   2465   2487     1  0.0000000  1.0460000  1
   2484   2479   2465   2487     1  0.0000000  0.0000000  3
   2488   2489   2492   2496     1  0.0000000  0.6508444  3
   2488   2489   2501   2504     1  0.0000000  1.0460000  1
   2488   2489   2501   2504     1  0.0000000  0.6694400  3
   2488   2502   2508   2509     1  0.0000000  1.0460000  1
   2488   2502   2508   2509     1  0.0000000  0.6694400  3
   2488   2510   2494   2497     1  0.0000000  1.6038667  3
   2489   2488   2502   2506     1  0.0000000  0.6508444  3
   2489   2488   2502   2507     1  0.0000000  0.6508444  3
   2489   2492   2493   2495     1  0.0000000  0.6508444  3
   2489   2492   2500   2503     1  0.0000000  1.0460000  1
   2489   2492   2500   2503     1  0.0000000  0.6694400  3
   2490   2488   2489   2492     1  0.0000000  0.6508444  3
   2490   2488   2489   2501     1  0.0000000  1.0460000  1
   2490   2488   2489   2501     1  0.0000000  0.0000000  3
   2490   2488   2489   2491     1  0.0000000  0.6508444  3
   2490   2488   2502   2508     1  0.0000000  1.0460000  1
   2490   2488   2502   2508     1  0.0000000  0.0000000  3
   2490   2488   2502   2506     1  0.0000000  0.6508444  3
   2490   2488   2502   2507     1  0.0000000  0.6508444  3
   2490   2488   2510   2494     1  0.0000000  1.6038667  3
   2491   2489   2488   2502     1  0.0000000  0.6508444  3
   2491   2489   2488   2510     1  0.0000000  1.0460000  1
   2491   2489   2488   2510     1  0.0000000  0.0000000  3
   2491   2489   2492   2493     1  0.0000000  0.6508444  3
   2491   2489   2492   2500     1  0.0000000  1.0460000  1
   2491   2489   2492   2500     1  0.0000000  0.0000000  3
   2491   2489   2492   2496     1  0.0000000  0.6508444  3
   2491   2489   2501   2504     1  0.0000000  0.6973333  3
   2492   2489   2501   2504     1  0.0000000  1.0460000  1
   2492   2489   2501   2504     1  0.0000000  0.6694400  3
   2492   2493   2494   2497     1  0.0000000  0.6508444  3
   2492   2493   2499   2505     1  0.0000000  1.0460000  1
   2492   2493   2499   2505     1  0.0000000  0.6694400  3
   2493   2492   2500   2503     1  0.0000000  1.0460000  1
   2493   2492   2500   2503     1  0.0000000  0.6694400  3
   2494   2493   2492   2496     1  0.0000000  0.6508444  3
   2494   2493   2499   2505     1  0.0000000  1.0460000  1
   2494   2493   2499   2505     1  0.0000000  0.6694400  3
   2495   2493   2492   2500     1  0.0000000  1.0460000  1
   2495   2493   2492   2500     1  0.0000000  0.0000000  3
   2495   2493   2492   2496     1  0.0000000  0.6508444  3
   2495   2493   2494   2498     1  0.0000000  1.0460000  1
   2495   2493   2494   2498     1  0.0000000  0.0000000  3
   2495   2493   2494   2510     1  0.0000000  1.0460000  1
   2495   2493   2494   2510     1  0.0000000  0.0000000  3
   2495   2493   2494   2497     1  0.0000000  0.6508444  3
   2495   2493   2499   2505     1  0.0000000  0.6973333  3
   2496   2492   2489   2501     1  0.0000000  1.0460000  1
   2496   2492   2489   2501     1  0.0000000  0.0000000  3
   2496   2492   2493   2499     1  0.0000000  1.0460000  1
   2496   2492   2493   2499     1  0.0000000  0.0000000  3
   2496   2492   2500   2503     1  0.0000000  0.6973333  3
   2497   2494   2493   2499     1  0.0000000  0.6508444  3
   2506   2502   2488   2510     1  0.0000000  1.0460000  1
   2506   2502   2488   2510     1  0.0000000  0.0000000  3
   2506   2502   2508   2509     1  0.0000000  0.6973333  3
   2507   2502   2488   2510     1  0.0000000  1.0460000  1
   2507   2502   2488   2510     1  0.0000000  0.0000000  3
   2507   2502   2508   2509     1  0.0000000  0.6973333  3
   2511   2512   2515   2519     1  0.0000000  0.6508444  3
   2511   2512   2524   2527     1  0.0000000  1.0460000  1
   2511   2512   2524   2527     1  0.0000000  0.6694400  3
   2511   2525   2531   2532     1  0.0000000  1.0460000  1
   2511   2525   2531   2532     1  0.0000000  0.6694400  3
   2511   2533   2517   2520     1  0.0000000  1.6038667  3
   2512   2515   2516   2518     1  0.0000000  0.6508444  3
   2512   2515   2523   2526     1  0.0000000  1.0460000  1
   2512   2515   2523   2526     1  0.0000000  0.6694400  3
   2512   2511   2525   2529     1  0.0000000  0.6508444  3
   2512   2511   2525   2530     1  0.0000000  0.6508444  3
   2513   2511   2512   2515     1  0.0000000  0.6508444  3
   2513   2511   2512   2524     1  0.0000000  1.0460000  1
   2513   2511   2512   2524     1  0.0000000  0.0000000  3
   2513   2511   2512   2514     1  0.0000000  0.6508444  3
   2513   2511   2525   2531     1  0.0000000  1.0460000  1
   2513   2511   2525   2531     1  0.0000000  0.0000000  3
   2513   2511   2525   2529     1  0.0000000  0.6508444  3
   2513   2511   2525   2530     1  0.0000000  0.6508444  3
   2513   2511   2533   2517     1  0.0000000  1.6038667  3
   2514   2512   2515   2516     1  0.0000000  0.6508444  3
   2514   2512   2515   2523     1  0.0000000  1.0460000  1
   2514   2512   2515   2523     1  0.0000000  0.0000000  3
   2514   2512   2515   2519     1  0.0000000  0.6508444  3
   2514   2512   2524   2527     1  0.0000000  0.6973333  3
   2514   2512   2511   2525     1  0.0000000  0.6508444  3
   2514   2512   2511   2533     1  0.0000000  1.0460000  1
   2514   2512   2511   2533     1  0.0000000  0.0000000  3
   2515   2516   2517   2520     1  0.0000000  0.6508444  3
   2515   2516   2522   2528     1  0.0000000  1.0460000  1
   2515   2516   2522   2528     1  0.0000000  0.6694400  3
   2515   2512   2524   2527     1  0.0000000  1.0460000  1
   2515   2512   2524   2527     1  0.0000000  0.6694400  3
   2516   2515   2523   2526     1  0.0000000  1.0460000  1
   2516   2515   2523   2526     1  0.0000000  0.6694400  3
   2517   2516   2522   2528     1  0.0000000  1.0460000  1
   2517   2516   2522   2528     1  0.0000000  0.6694400  3
   2517   2516   2515   2519     1  0.0000000  0.6508444  3
   2518   2516   2517   2521     1  0.0000000  1.0460000  1
   2518   2516   2517   2521     1  0.0000000  0.0000000  3
   2518   2516   2517   2533     1  0.0000000  1.0460000  1
   2518   2516   2517   2533     1  0.0000000  0.0000000  3
   2518   2516   2517   2520     1  0.0000000  0.6508444  3
   2518   2516   2522   2528     1  0.0000000  0.6973333  3
   2518   2516   2515   2523     1  0.0000000  1.0460000  1
   2518   2516   2515   2523     1  0.0000000  0.0000000  3
   2518   2516   2515   2519     1  0.0000000  0.6508444  3
   2519   2515   2516   2522     1  0.0000000  1.0460000  1
   2519   2515   2516   2522     1  0.0000000  0.0000000  3
   2519   2515   2523   2526     1  0.0000000  0.6973333  3
   2519   2515   2512   2524     1  0.0000000  1.0460000  1
   2519   2515   2512   2524     1  0.0000000  0.0000000  3
   2520   2517   2516   2522     1  0.0000000  0.6508444  3
   2529   2525   2531   2532     1  0.0000000  0.6973333  3
   2529   2525   2511   2533     1  0.0000000  1.0460000  1
   2529   2525   2511   2533     1  0.0000000  0.0000000  3
   2530   2525   2531   2532     1  0.0000000  0.6973333  3
   2530   2525   2511   2533     1  0.0000000  1.0460000  1
   2530   2525   2511   2533     1  0.0000000  0.0000000  3
   2534   2535   2538   2542     1  0.0000000  0.6508444  3
   2534   2535   2547   2550     1  0.0000000  1.0460000  1
   2534   2535   2547   2550     1  0.0000000  0.6694400  3
   2534   2548   2554   2555     1  0.0000000  1.0460000  1
   2534   2548   2554   2555     1  0.0000000  0.6694400  3
   2534   2556   2540   2543     1  0.0000000  1.6038667  3
   2535   2534   2548   2552     1  0.0000000  0.6508444  3
   2535   2534   2548   2553     1  0.0000000  0.6508444  3
   2535   2538   2539   2541     1  0.0000000  0.6508444  3
   2535   2538   2546   2549     1  0.0000000  1.0460000  1
   2535   2538   2546   2549     1  0.0000000  0.6694400  3
   2536   2534   2535   2538     1  0.0000000  0.6508444  3
   2536   2534   2535   2547     1  0.0000000  1.0460000  1
   2536   2534   2535   2547     1  0.0000000  0.0000000  3
   2536   2534   2535   2537     1  0.0000000  0.6508444  3
   2536   2534   2548   2554     1  0.0000000  1.0460000  1
   2536   2534   2548   2554     1  0.0000000  0.0000000  3
   2536   2534   2548   2552     1  0.0000000  0.6508444  3
   2536   2534   2548   2553     1  0.0000000  0.6508444  3
   2536   2534   2556   2540     1  0.0000000  1.6038667  3
   2537   2535   2534   2548     1  0.0000000  0.6508444  3
   2537   2535   2534   2556     1  0.0000000  1.0460000  1
   2537   2535   2534   2556     1  0.0000000  0.0000000  3
   2537   2535   2538   2539     1  0.0000000  0.6508444  3
   2537   2535   2538   2546     1  0.0000000  1.0460000  1
   2537   2535   2538   2546     1  0.0000000  0.0000000  3
   2537   2535   2538   2542     1  0.0000000  0.6508444  3
   2537   2535   2547   2550     1  0.0000000  0.6973333  3
   2538   2535   2547   2550     1  0.0000000  1.0460000  1
   2538   2535   2547   2550     1  0.0000000  0.6694400  3
   2538   2539   2540   2543     1  0.0000000  0.6508444  3
   2538   2539   2545   2551     1  0.0000000  1.0460000  1
   2538   2539   2545   2551     1  0.0000000  0.6694400  3
   2539   2538   2546   2549     1  0.0000000  1.0460000  1
   2539   2538   2546   2549     1  0.0000000  0.6694400  3
   2540   2539   2538   2542     1  0.0000000  0.6508444  3
   2540   2539   2545   2551     1  0.0000000  1.0460000  1
   2540   2539   2545   2551     1  0.0000000  0.6694400  3
   2541   2539   2538   2546     1  0.0000000  1.0460000  1
   2541   2539   2538   2546     1  0.0000000  0.0000000  3
   2541   2539   2538   2542     1  0.0000000  0.6508444  3
   2541   2539   2540   2544     1  0.0000000  1.0460000  1
   2541   2539   2540   2544     1  0.0000000  0.0000000  3
   2541   2539   2540   2556     1  0.0000000  1.0460000  1
   2541   2539   2540   2556     1  0.0000000  0.0000000  3
   2541   2539   2540   2543     1  0.0000000  0.6508444  3
   2541   2539   2545   2551     1  0.0000000  0.6973333  3
   2542   2538   2535   2547     1  0.0000000  1.0460000  1
   2542   2538   2535   2547     1  0.0000000  0.0000000  3
   2542   2538   2539   2545     1  0.0000000  1.0460000  1
   2542   2538   2539   2545     1  0.0000000  0.0000000  3
   2542   2538   2546   2549     1  0.0000000  0.6973333  3
   2543   2540   2539   2545     1  0.0000000  0.6508444  3
   2552   2548   2534   2556     1  0.0000000  1.0460000  1
   2552   2548   2534   2556     1  0.0000000  0.0000000  3
   2552   2548   2554   2555     1  0.0000000  0.6973333  3
   2553   2548   2534   2556     1  0.0000000  1.0460000  1
   2553   2548   2534   2556     1  0.0000000  0.0000000  3
   2553   2548   2554   2555     1  0.0000000  0.6973333  3
   2557   2558   2561   2565     1  0.0000000  0.6508444  3
   2557   2558   2570   2573     1  0.0000000  1.0460000  1
   2557   2558   2570   2573     1  0.0000000  0.6694400  3
   2557   2571   2577   2578     1  0.0000000  1.0460000  1
   2557   2571   2577   2578     1  0.0000000  0.6694400  3
   2557   2579   2563   2566     1  0.0000000  1.6038667  3
   2558   2561   2562   2564     1  0.0000000  0.6508444  3
   2558   2561   2569   2572     1  0.0000000  1.0460000  1
   2558   2561   2569   2572     1  0.0000000  0.6694400  3
   2558   2557   2571   2575     1  0.0000000  0.6508444  3
   2558   2557   2571   2576     1  0.0000000  0.6508444  3
   2559   2557   2558   2561     1  0.0000000  0.6508444  3
   2559   2557   2558   2570     1  0.0000000  1.0460000  1
   2559   2557   2558   2570     1  0.0000000  0.0000000  3
   2559   2557   2558   2560     1  0.0000000  0.6508444  3
   2559   2557   2571   2577     1  0.0000000  1.0460000  1
   2559   2557   2571   2577     1  0.0000000  0.0000000  3
   2559   2557   2571   2575     1  0.0000000  0.6508444  3
   2559   2557   2571   2576     1  0.0000000  0.6508444  3
   2559   2557   2579   2563     1  0.0000000  1.6038667  3
   2560   2558   2561   2562     1  0.0000000  0.6508444  3
   2560   2558   2561   2569     1  0.0000000  1.0460000  1
   2560   2558   2561   2569     1  0.0000000  0.0000000  3
   2560   2558   2561   2565     1  0.0000000  0.6508444  3
   2560   2558   2570   2573     1  0.0000000  0.6973333  3
   2560   2558   2557   2571     1  0.0000000  0.6508444  3
   2560   2558   2557   2579     1  0.0000000  1.0460000  1
   2560   2558   2557   2579     1  0.0000000  0.0000000  3
   2561   2562   2563   2566     1  0.0000000  0.6508444  3
   2561   2562   2568   2574     1  0.0000000  1.0460000  1
   2561   2562   2568   2574     1  0.0000000  0.6694400  3
   2561   2558   2570   2573     1  0.0000000  1.0460000  1
   2561   2558   2570   2573     1  0.0000000  0.6694400  3
   2562   2561   2569   2572     1  0.0000000  1.0460000  1
   2562   2561   2569   2572     1  0.0000000  0.6694400  3
   2563   2562   2568   2574     1  0.0000000  1.0460000  1
   2563   2562   2568   2574     1  0.0000000  0.6694400  3
   2563   2562   2561   2565     1  0.0000000  0.6508444  3
   2564   2562   2563   2567     1  0.0000000  1.0460000  1
   2564   2562   2563   2567     1  0.0000000  0.0000000  3
   2564   2562   2563   2579     1  0.0000000  1.0460000  1
   2564   2562   2563   2579     1  0.0000000  0.0000000  3
   2564   2562   2563   2566     1  0.0000000  0.6508444  3
   2564   2562   2568   2574     1  0.0000000  0.6973333  3
   2564   2562   2561   2569     1  0.0000000  1.0460000  1
   2564   2562   2561   2569     1  0.0000000  0.0000000  3
   2564   2562   2561   2565     1  0.0000000  0.6508444  3
   2565   2561   2562   2568     1  0.0000000  1.0460000  1
   2565   2561   2562   2568     1  0.0000000  0.0000000  3
   2565   2561   2569   2572     1  0.0000000  0.6973333  3
   2565   2561   2558   2570     1  0.0000000  1.0460000  1
   2565   2561   2558   2570     1  0.0000000  0.0000000  3
   2566   2563   2562   2568     1  0.0000000  0.6508444  3
   2575   2571   2577   2578     1  0.0000000  0.6973333  3
   2575   2571   2557   2579     1  0.0000000  1.0460000  1
   2575   2571   2557   2579     1  0.0000000  0.0000000  3
   2576   2571   2577   2578     1  0.0000000  0.6973333  3
   2576   2571   2557   2579     1  0.0000000  1.0460000  1
   2576   2571   2557   2579     1  0.0000000  0.0000000  3
   2580   2581   2584   2588     1  0.0000000  0.6508444  3
   2580   2581   2593   2596     1  0.0000000  1.0460000  1
   2580   2581   2593   2596     1  0.0000000  0.6694400  3
   2580   2594   2600   2601     1  0.0000000  1.0460000  1
   2580   2594   2600   2601     1  0.0000000  0.6694400  3
   2580   2602   2586   2589     1  0.0000000  1.6038667  3
   2581   2580   2594   2598     1  0.0000000  0.6508444  3
   2581   2580   2594   2599     1  0.0000000  0.6508444  3
   2581   2584   2585   2587     1  0.0000000  0.6508444  3
   2581   2584   2592   2595     1  0.0000000  1.0460000  1
   2581   2584   2592   2595     1  0.0000000  0.6694400  3
   2582   2580   2581   2584     1  0.0000000  0.6508444  3
   2582   2580   2581   2593     1  0.0000000  1.0460000  1
   2582   2580   2581   2593     1  0.0000000  0.0000000  3
   2582   2580   2581   2583     1  0.0000000  0.6508444  3
   2582   2580   2594   2600     1  0.0000000  1.0460000  1
   2582   2580   2594   2600     1  0.0000000  0.0000000  3
   2582   2580   2594   2598     1  0.0000000  0.6508444  3
   2582   2580   2594   2599     1  0.0000000  0.6508444  3
   2582   2580   2602   2586     1  0.0000000  1.6038667  3
   2583   2581   2580   2594     1  0.0000000  0.6508444  3
   2583   2581   2580   2602     1  0.0000000  1.0460000  1
   2583   2581   2580   2602     1  0.0000000  0.0000000  3
   2583   2581   2584   2585     1  0.0000000  0.6508444  3
   2583   2581   2584   2592     1  0.0000000  1.0460000  1
   2583   2581   2584   2592     1  0.0000000  0.0000000  3
   2583   2581   2584   2588     1  0.0000000  0.6508444  3
   2583   2581   2593   2596     1  0.0000000  0.6973333  3
   2584   2581   2593   2596     1  0.0000000  1.0460000  1
   2584   2581   2593   2596     1  0.0000000  0.6694400  3
   2584   2585   2586   2589     1  0.0000000  0.6508444  3
   2584   2585   2591   2597     1  0.0000000  1.0460000  1
   2584   2585   2591   2597     1  0.0000000  0.6694400  3
   2585   2584   2592   2595     1  0.0000000  1.0460000  1
   2585   2584   2592   2595     1  0.0000000  0.6694400  3
   2586   2585   2584   2588     1  0.0000000  0.6508444  3
   2586   2585   2591   2597     1  0.0000000  1.0460000  1
   2586   2585   2591   2597     1  0.0000000  0.6694400  3
   2587   2585   2584   2592     1  0.0000000  1.0460000  1
   2587   2585   2584   2592     1  0.0000000  0.0000000  3
   2587   2585   2584   2588     1  0.0000000  0.6508444  3
   2587   2585   2586   2590     1  0.0000000  1.0460000  1
   2587   2585   2586   2590     1  0.0000000  0.0000000  3
   2587   2585   2586   2602     1  0.0000000  1.0460000  1
   2587   2585   2586   2602     1  0.0000000  0.0000000  3
   2587   2585   2586   2589     1  0.0000000  0.6508444  3
   2587   2585   2591   2597     1  0.0000000  0.6973333  3
   2588   2584   2581   2593     1  0.0000000  1.0460000  1
   2588   2584   2581   2593     1  0.0000000  0.0000000  3
   2588   2584   2585   2591     1  0.0000000  1.0460000  1
   2588   2584   2585   2591     1  0.0000000  0.0000000  3
   2588   2584   2592   2595     1  0.0000000  0.6973333  3
   2589   2586   2585   2591     1  0.0000000  0.6508444  3
   2598   2594   2580   2602     1  0.0000000  1.0460000  1
   2598   2594   2580   2602     1  0.0000000  0.0000000  3
   2598   2594   2600   2601     1  0.0000000  0.6973333  3
   2599   2594   2580   2602     1  0.0000000  1.0460000  1
   2599   2594   2580   2602     1  0.0000000  0.0000000  3
   2599   2594   2600   2601     1  0.0000000  0.6973333  3
   2603   2604   2607   2611     1  0.0000000  0.6508444  3
   2603   2604   2616   2619     1  0.0000000  1.0460000  1
   2603   2604   2616   2619     1  0.0000000  0.6694400  3
   2603   2617   2623   2624     1  0.0000000  1.0460000  1
   2603   2617   2623   2624     1  0.0000000  0.6694400  3
   2603   2625   2609   2612     1  0.0000000  1.6038667  3
   2604   2607   2608   2610     1  0.0000000  0.6508444  3
   2604   2607   2615   2618     1  0.0000000  1.0460000  1
   2604   2607   2615   2618     1  0.0000000  0.6694400  3
   2604   2603   2617   2621     1  0.0000000  0.6508444  3
   2604   2603   2617   2622     1  0.0000000  0.6508444  3
   2605   2603   2604   2607     1  0.0000000  0.6508444  3
   2605   2603   2604   2616     1  0.0000000  1.0460000  1
   2605   2603   2604   2616     1  0.0000000  0.0000000  3
   2605   2603   2604   2606     1  0.0000000  0.6508444  3
   2605   2603   2617   2623     1  0.0000000  1.0460000  1
   2605   2603   2617   2623     1  0.0000000  0.0000000  3
   2605   2603   2617   2621     1  0.0000000  0.6508444  3
   2605   2603   2617   2622     1  0.0000000  0.6508444  3
   2605   2603   2625   2609     1  0.0000000  1.6038667  3
   2606   2604   2607   2608     1  0.0000000  0.6508444  3
   2606   2604   2607   2615     1  0.0000000  1.0460000  1
   2606   2604   2607   2615     1  0.0000000  0.0000000  3
   2606   2604   2607   2611     1  0.0000000  0.6508444  3
   2606   2604   2616   2619     1  0.0000000  0.6973333  3
   2606   2604   2603   2617     1  0.0000000  0.6508444  3
   2606   2604   2603   2625     1  0.0000000  1.0460000  1
   2606   2604   2603   2625     1  0.0000000  0.0000000  3
   2607   2608   2609   2612     1  0.0000000  0.6508444  3
   2607   2608   2614   2620     1  0.0000000  1.0460000  1
   2607   2608   2614   2620     1  0.0000000  0.6694400  3
   2607   2604   2616   2619     1  0.0000000  1.0460000  1
   2607   2604   2616   2619     1  0.0000000  0.6694400  3
   2608   2607   2615   2618     1  0.0000000  1.0460000  1
   2608   2607   2615   2618     1  0.0000000  0.6694400  3
   2609   2608   2614   2620     1  0.0000000  1.0460000  1
   2609   2608   2614   2620     1  0.0000000  0.6694400  3
   2609   2608   2607   2611     1  0.0000000  0.6508444  3
   2610   2608   2609   2613     1  0.0000000  1.0460000  1
   2610   2608   2609   2613     1  0.0000000  0.0000000  3
   2610   2608   2609   2625     1  0.0000000  1.0460000  1
   2610   2608   2609   2625     1  0.0000000  0.0000000  3
   2610   2608   2609   2612     1  0.0000000  0.6508444  3
   2610   2608   2614   2620     1  0.0000000  0.6973333  3
   2610   2608   2607   2615     1  0.0000000  1.0460000  1
   2610   2608   2607   2615     1  0.0000000  0.0000000  3
   2610   2608   2607   2611     1  0.0000000  0.6508444  3
   2611   2607   2608   2614     1  0.0000000  1.0460000  1
   2611   2607   2608   2614     1  0.0000000  0.0000000  3
   2611   2607   2615   2618     1  0.0000000  0.6973333  3
   2611   2607   2604   2616     1  0.0000000  1.0460000  1
   2611   2607   2604   2616     1  0.0000000  0.0000000  3
   2612   2609   2608   2614     1  0.0000000  0.6508444  3
   2621   2617   2623   2624     1  0.0000000  0.6973333  3
   2621   2617   2603   2625     1  0.0000000  1.0460000  1
   2621   2617   2603   2625     1  0.0000000  0.0000000  3
   2622   2617   2623   2624     1  0.0000000  0.6973333  3
   2622   2617   2603   2625     1  0.0000000  1.0460000  1
   2622   2617   2603   2625     1  0.0000000  0.0000000  3
   2626   2627   2630   2634     1  0.0000000  0.6508444  3
   2626   2627   2639   2642     1  0.0000000  1.0460000  1
   2626   2627   2639   2642     1  0.0000000  0.6694400  3
   2626   2640   2646   2647     1  0.0000000  1.0460000  1
   2626   2640   2646   2647     1  0.0000000  0.6694400  3
   2626   2648   2632   2635     1  0.0000000  1.6038667  3
   2627   2626   2640   2644     1  0.0000000  0.6508444  3
   2627   2626   2640   2645     1  0.0000000  0.6508444  3
   2627   2630   2631   2633     1  0.0000000  0.6508444  3
   2627   2630   2638   2641     1  0.0000000  1.0460000  1
   2627   2630   2638   2641     1  0.0000000  0.6694400  3
   2628   2626   2627   2630     1  0.0000000  0.6508444  3
   2628   2626   2627   2639     1  0.0000000  1.0460000  1
   2628   2626   2627   2639     1  0.0000000  0.0000000  3
   2628   2626   2627   2629     1  0.0000000  0.6508444  3
   2628   2626   2640   2646     1  0.0000000  1.0460000  1
   2628   2626   2640   2646     1  0.0000000  0.0000000  3
   2628   2626   2640   2644     1  0.0000000  0.6508444  3
   2628   2626   2640   2645     1  0.0000000  0.6508444  3
   2628   2626   2648   2632     1  0.0000000  1.6038667  3
   2629   2627   2626   2640     1  0.0000000  0.6508444  3
   2629   2627   2626   2648     1  0.0000000  1.0460000  1
   2629   2627   2626   2648     1  0.0000000  0.0000000  3
   2629   2627   2630   2631     1  0.0000000  0.6508444  3
   2629   2627   2630   2638     1  0.0000000  1.0460000  1
   2629   2627   2630   2638     1  0.0000000  0.0000000  3
   2629   2627   2630   2634     1  0.0000000  0.6508444  3
   2629   2627   2639   2642     1  0.0000000  0.6973333  3
   2630   2627   2639   2642     1  0.0000000  1.0460000  1
   2630   2627   2639   2642     1  0.0000000  0.6694400  3
   2630   2631   2632   2635     1  0.0000000  0.6508444  3
   2630   2631   2637   2643     1  0.0000000  1.0460000  1
   2630   2631   2637   2643     1  0.0000000  0.6694400  3
   2631   2630   2638   2641     1  0.0000000  1.0460000  1
   2631   2630   2638   2641     1  0.0000000  0.6694400  3
   2632   2631   2630   2634     1  0.0000000  0.6508444  3
   2632   2631   2637   2643     1  0.0000000  1.0460000  1
   2632   2631   2637   2643     1  0.0000000  0.6694400  3
   2633   2631   2630   2638     1  0.0000000  1.0460000  1
   2633   2631   2630   2638     1  0.0000000  0.0000000  3
   2633   2631   2630   2634     1  0.0000000  0.6508444  3
   2633   2631   2632   2636     1  0.0000000  1.0460000  1
   2633   2631   2632   2636     1  0.0000000  0.0000000  3
   2633   2631   2632   2648     1  0.0000000  1.0460000  1
   2633   2631   2632   2648     1  0.0000000  0.0000000  3
   2633   2631   2632   2635     1  0.0000000  0.6508444  3
   2633   2631   2637   2643     1  0.0000000  0.6973333  3
   2634   2630   2627   2639     1  0.0000000  1.0460000  1
   2634   2630   2627   2639     1  0.0000000  0.0000000  3
   2634   2630   2631   2637     1  0.0000000  1.0460000  1
   2634   2630   2631   2637     1  0.0000000  0.0000000  3
   2634   2630   2638   2641     1  0.0000000  0.6973333  3
   2635   2632   2631   2637     1  0.0000000  0.6508444  3
   2644   2640   2626   2648     1  0.0000000  1.0460000  1
   2644   2640   2626   2648     1  0.0000000  0.0000000  3
   2644   2640   2646   2647     1  0.0000000  0.6973333  3
   2645   2640   2626   2648     1  0.0000000  1.0460000  1
   2645   2640   2626   2648     1  0.0000000  0.0000000  3
   2645   2640   2646   2647     1  0.0000000  0.6973333  3
   2649   2650   2653   2657     1  0.0000000  0.6508444  3
   2649   2650   2662   2665     1  0.0000000  1.0460000  1
   2649   2650   2662   2665     1  0.0000000  0.6694400  3
   2649   2663   2669   2670     1  0.0000000  1.0460000  1
   2649   2663   2669   2670     1  0.0000000  0.6694400  3
   2649   2671   2655   2658     1  0.0000000  1.6038667  3
   2650   2653   2654   2656     1  0.0000000  0.6508444  3
   2650   2653   2661   2664     1  0.0000000  1.0460000  1
   2650   2653   2661   2664     1  0.0000000  0.6694400  3
   2650   2649   2663   2667     1  0.0000000  0.6508444  3
   2650   2649   2663   2668     1  0.0000000  0.6508444  3
   2651   2649   2650   2653     1  0.0000000  0.6508444  3
   2651   2649   2650   2662     1  0.0000000  1.0460000  1
   2651   2649   2650   2662     1  0.0000000  0.0000000  3
   2651   2649   2650   2652     1  0.0000000  0.6508444  3
   2651   2649   2663   2669     1  0.0000000  1.0460000  1
   2651   2649   2663   2669     1  0.0000000  0.0000000  3
   2651   2649   2663   2667     1  0.0000000  0.6508444  3
   2651   2649   2663   2668     1  0.0000000  0.6508444  3
   2651   2649   2671   2655     1  0.0000000  1.6038667  3
   2652   2650   2653   2654     1  0.0000000  0.6508444  3
   2652   2650   2653   2661     1  0.0000000  1.0460000  1
   2652   2650   2653   2661     1  0.0000000  0.0000000  3
   2652   2650   2653   2657     1  0.0000000  0.6508444  3
   2652   2650   2662   2665     1  0.0000000  0.6973333  3
   2652   2650   2649   2663     1  0.0000000  0.6508444  3
   2652   2650   2649   2671     1  0.0000000  1.0460000  1
   2652   2650   2649   2671     1  0.0000000  0.0000000  3
   2653   2654   2655   2658     1  0.0000000  0.6508444  3
   2653   2654   2660   2666     1  0.0000000  1.0460000  1
   2653   2654   2660   2666     1  0.0000000  0.6694400  3
   2653   2650   2662   2665     1  0.0000000  1.0460000  1
   2653   2650   2662   2665     1  0.0000000  0.6694400  3
   2654   2653   2661   2664     1  0.0000000  1.0460000  1
   2654   2653   2661   2664     1  0.0000000  0.6694400  3
   2655   2654   2660   2666     1  0.0000000  1.0460000  1
   2655   2654   2660   2666     1  0.0000000  0.6694400  3
   2655   2654   2653   2657     1  0.0000000  0.6508444  3
   2656   2654   2655   2659     1  0.0000000  1.0460000  1
   2656   2654   2655   2659     1  0.0000000  0.0000000  3
   2656   2654   2655   2671     1  0.0000000  1.0460000  1
   2656   2654   2655   2671     1  0.0000000  0.0000000  3
   2656   2654   2655   2658     1  0.0000000  0.6508444  3
   2656   2654   2660   2666     1  0.0000000  0.6973333  3
   2656   2654   2653   2661     1  0.0000000  1.0460000  1
   2656   2654   2653   2661     1  0.0000000  0.0000000  3
   2656   2654   2653   2657     1  0.0000000  0.6508444  3
   2657   2653   2654   2660     1  0.0000000  1.0460000  1
   2657   2653   2654   2660     1  0.0000000  0.0000000  3
   2657   2653   2661   2664     1  0.0000000  0.6973333  3
   2657   2653   2650   2662     1  0.0000000  1.0460000  1
   2657   2653   2650   2662     1  0.0000000  0.0000000  3
   2658   2655   2654   2660     1  0.0000000  0.6508444  3
   2667   2663   2669   2670     1  0.0000000  0.6973333  3
   2667   2663   2649   2671     1  0.0000000  1.0460000  1
   2667   2663   2649   2671     1  0.0000000  0.0000000  3
   2668   2663   2669   2670     1  0.0000000  0.6973333  3
   2668   2663   2649   2671     1  0.0000000  1.0460000  1
   2668   2663   2649   2671     1  0.0000000  0.0000000  3
   2672   2673   2676   2680     1  0.0000000  0.6508444  3
   2672   2673   2685   2688     1  0.0000000  1.0460000  1
   2672   2673   2685   2688     1  0.0000000  0.6694400  3
   2672   2686   2692   2693     1  0.0000000  1.0460000  1
   2672   2686   2692   2693     1  0.0000000  0.6694400  3
   2672   2694   2678   2681     1  0.0000000  1.6038667  3
   2673   2672   2686   2690     1  0.0000000  0.6508444  3
   2673   2672   2686   2691     1  0.0000000  0.6508444  3
   2673   2676   2677   2679     1  0.0000000  0.6508444  3
   2673   2676   2684   2687     1  0.0000000  1.0460000  1
   2673   2676   2684   2687     1  0.0000000  0.6694400  3
   2674   2672   2673   2676     1  0.0000000  0.6508444  3
   2674   2672   2673   2685     1  0.0000000  1.0460000  1
   2674   2672   2673   2685     1  0.0000000  0.0000000  3
   2674   2672   2673   2675     1  0.0000000  0.6508444  3
   2674   2672   2686   2692     1  0.0000000  1.0460000  1
   2674   2672   2686   2692     1  0.0000000  0.0000000  3
   2674   2672   2686   2690     1  0.0000000  0.6508444  3
   2674   2672   2686   2691     1  0.0000000  0.6508444  3
   2674   2672   2694   2678     1  0.0000000  1.6038667  3
   2675   2673   2672   2686     1  0.0000000  0.6508444  3
   2675   2673   2672   2694     1  0.0000000  1.0460000  1
   2675   2673   2672   2694     1  0.0000000  0.0000000  3
   2675   2673   2676   2677     1  0.0000000  0.6508444  3
   2675   2673   2676   2684     1  0.0000000  1.0460000  1
   2675   2673   2676   2684     1  0.0000000  0.0000000  3
   2675   2673   2676   2680     1  0.0000000  0.6508444  3
   2675   2673   2685   2688     1  0.0000000  0.6973333  3
   2676   2673   2685   2688     1  0.0000000  1.0460000  1
   2676   2673   2685   2688     1  0.0000000  0.6694400  3
   2676   2677   2678   2681     1  0.0000000  0.6508444  3
   2676   2677   2683   2689     1  0.0000000  1.0460000  1
   2676   2677   2683   2689     1  0.0000000  0.6694400  3
   2677   2676   2684   2687     1  0.0000000  1.0460000  1
   2677   2676   2684   2687     1  0.0000000  0.6694400  3
   2678   2677   2676   2680     1  0.0000000  0.6508444  3
   2678   2677   2683   2689     1  0.0000000  1.0460000  1
   2678   2677   2683   2689     1  0.0000000  0.6694400  3
   2679   2677   2676   2684     1  0.0000000  1.0460000  1
   2679   2677   2676   2684     1  0.0000000  0.0000000  3
   2679   2677   2676   2680     1  0.0000000  0.6508444  3
   2679   2677   2678   2682     1  0.0000000  1.0460000  1
   2679   2677   2678   2682     1  0.0000000  0.0000000  3
   2679   2677   2678   2694     1  0.0000000  1.0460000  1
   2679   2677   2678   2694     1  0.0000000  0.0000000  3
   2679   2677   2678   2681     1  0.0000000  0.6508444  3
   2679   2677   2683   2689     1  0.0000000  0.6973333  3
   2680   2676   2673   2685     1  0.0000000  1.0460000  1
   2680   2676   2673   2685     1  0.0000000  0.0000000  3
   2680   2676   2677   2683     1  0.0000000  1.0460000  1
   2680   2676   2677   2683     1  0.0000000  0.0000000  3
   2680   2676   2684   2687     1  0.0000000  0.6973333  3
   2681   2678   2677   2683     1  0.0000000  0.6508444  3
   2690   2686   2672   2694     1  0.0000000  1.0460000  1
   2690   2686   2672   2694     1  0.0000000  0.0000000  3
   2690   2686   2692   2693     1  0.0000000  0.6973333  3
   2691   2686   2672   2694     1  0.0000000  1.0460000  1
   2691   2686   2672   2694     1  0.0000000  0.0000000  3
   2691   2686   2692   2693     1  0.0000000  0.6973333  3
   2695   2696   2699   2703     1  0.0000000  0.6508444  3
   2695   2696   2708   2711     1  0.0000000  1.0460000  1
   2695   2696   2708   2711     1  0.0000000  0.6694400  3
   2695   2709   2715   2716     1  0.0000000  1.0460000  1
   2695   2709   2715   2716     1  0.0000000  0.6694400  3
   2695   2717   2701   2704     1  0.0000000  1.6038667  3
   2696   2699   2700   2702     1  0.0000000  0.6508444  3
   2696   2699   2707   2710     1  0.0000000  1.0460000  1
   2696   2699   2707   2710     1  0.0000000  0.6694400  3
   2696   2695   2709   2713     1  0.0000000  0.6508444  3
   2696   2695   2709   2714     1  0.0000000  0.6508444  3
   2697   2695   2696   2699     1  0.0000000  0.6508444  3
   2697   2695   2696   2708     1  0.0000000  1.0460000  1
   2697   2695   2696   2708     1  0.0000000  0.0000000  3
   2697   2695   2696   2698     1  0.0000000  0.6508444  3
   2697   2695   2709   2715     1  0.0000000  1.0460000  1
   2697   2695   2709   2715     1  0.0000000  0.0000000  3
   2697   2695   2709   2713     1  0.0000000  0.6508444  3
   2697   2695   2709   2714     1  0.0000000  0.6508444  3
   2697   2695   2717   2701     1  0.0000000  1.6038667  3
   2698   2696   2699   2700     1  0.0000000  0.6508444  3
   2698   2696   2699   2707     1  0.0000000  1.0460000  1
   2698   2696   2699   2707     1  0.0000000  0.0000000  3
   2698   2696   2699   2703     1  0.0000000  0.6508444  3
   2698   2696   2708   2711     1  0.0000000  0.6973333  3
   2698   2696   2695   2709     1  0.0000000  0.6508444  3
   2698   2696   2695   2717     1  0.0000000  1.0460000  1
   2698   2696   2695   2717     1  0.0000000  0.0000000  3
   2699   2700   2701   2704     1  0.0000000  0.6508444  3
   2699   2700   2706   2712     1  0.0000000  1.0460000  1
   2699   2700   2706   2712     1  0.0000000  0.6694400  3
   2699   2696   2708   2711     1  0.0000000  1.0460000  1
   2699   2696   2708   2711     1  0.0000000  0.6694400  3
   2700   2699   2707   2710     1  0.0000000  1.0460000  1
   2700   2699   2707   2710     1  0.0000000  0.6694400  3
   2701   2700   2706   2712     1  0.0000000  1.0460000  1
   2701   2700   2706   2712     1  0.0000000  0.6694400  3
   2701   2700   2699   2703     1  0.0000000  0.6508444  3
   2702   2700   2701   2705     1  0.0000000  1.0460000  1
   2702   2700   2701   2705     1  0.0000000  0.0000000  3
   2702   2700   2701   2717     1  0.0000000  1.0460000  1
   2702   2700   2701   2717     1  0.0000000  0.0000000  3
   2702   2700   2701   2704     1  0.0000000  0.6508444  3
   2702   2700   2706   2712     1  0.0000000  0.6973333  3
   2702   2700   2699   2707     1  0.0000000  1.0460000  1
   2702   2700   2699   2707     1  0.0000000  0.0000000  3
   2702   2700   2699   2703     1  0.0000000  0.6508444  3
   2703   2699   2700   2706     1  0.0000000  1.0460000  1
   2703   2699   2700   2706     1  0.0000000  0.0000000  3
   2703   2699   2707   2710     1  0.0000000  0.6973333  3
   2703   2699   2696   2708     1  0.0000000  1.0460000  1
   2703   2699   2696   2708     1  0.0000000  0.0000000  3
   2704   2701   2700   2706     1  0.0000000  0.6508444  3
   2713   2709   2715   2716     1  0.0000000  0.6973333  3
   2713   2709   2695   2717     1  0.0000000  1.0460000  1
   2713   2709   2695   2717     1  0.0000000  0.0000000  3
   2714   2709   2715   2716     1  0.0000000  0.6973333  3
   2714   2709   2695   2717     1  0.0000000  1.0460000  1
   2714   2709   2695   2717     1  0.0000000  0.0000000  3
   2718   2719   2722   2726     1  0.0000000  0.6508444  3
   2718   2719   2731   2734     1  0.0000000  1.0460000  1
   2718   2719   2731   2734     1  0.0000000  0.6694400  3
   2718   2732   2738   2739     1  0.0000000  1.0460000  1
   2718   2732   2738   2739     1  0.0000000  0.6694400  3
   2718   2740   2724   2727     1  0.0000000  1.6038667  3
   2719   2718   2732   2736     1  0.0000000  0.6508444  3
   2719   2718   2732   2737     1  0.0000000  0.6508444  3
   2719   2722   2723   2725     1  0.0000000  0.6508444  3
   2719   2722   2730   2733     1  0.0000000  1.0460000  1
   2719   2722   2730   2733     1  0.0000000  0.6694400  3
   2720   2718   2719   2722     1  0.0000000  0.6508444  3
   2720   2718   2719   2731     1  0.0000000  1.0460000  1
   2720   2718   2719   2731     1  0.0000000  0.0000000  3
   2720   2718   2719   2721     1  0.0000000  0.6508444  3
   2720   2718   2732   2738     1  0.0000000  1.0460000  1
   2720   2718   2732   2738     1  0.0000000  0.0000000  3
   2720   2718   2732   2736     1  0.0000000  0.6508444  3
   2720   2718   2732   2737     1  0.0000000  0.6508444  3
   2720   2718   2740   2724     1  0.0000000  1.6038667  3
   2721   2719   2718   2732     1  0.0000000  0.6508444  3
   2721   2719   2718   2740     1  0.0000000  1.0460000  1
   2721   2719   2718   2740     1  0.0000000  0.0000000  3
   2721   2719   2722   2723     1  0.0000000  0.6508444  3
   2721   2719   2722   2730     1  0.0000000  1.0460000  1
   2721   2719   2722   2730     1  0.0000000  0.0000000  3
   2721   2719   2722   2726     1  0.0000000  0.6508444  3
   2721   2719   2731   2734     1  0.0000000  0.6973333  3
   2722   2719   2731   2734     1  0.0000000  1.0460000  1
   2722   2719   2731   2734     1  0.0000000  0.6694400  3
   2722   2723   2724   2727     1  0.0000000  0.6508444  3
   2722   2723   2729   2735     1  0.0000000  1.0460000  1
   2722   2723   2729   2735     1  0.0000000  0.6694400  3
   2723   2722   2730   2733     1  0.0000000  1.0460000  1
   2723   2722   2730   2733     1  0.0000000  0.6694400  3
   2724   2723   2722   2726     1  0.0000000  0.6508444  3
   2724   2723   2729   2735     1  0.0000000  1.0460000  1
   2724   2723   2729   2735     1  0.0000000  0.6694400  3
   2725   2723   2722   2730     1  0.0000000  1.0460000  1
   2725   2723   2722   2730     1  0.0000000  0.0000000  3
   2725   2723   2722   2726     1  0.0000000  0.6508444  3
   2725   2723   2724   2728     1  0.0000000  1.0460000  1
   2725   2723   2724   2728     1  0.0000000  0.0000000  3
   2725   2723   2724   2740     1  0.0000000  1.0460000  1
   2725   2723   2724   2740     1  0.0000000  0.0000000  3
   2725   2723   2724   2727     1  0.0000000  0.6508444  3
   2725   2723   2729   2735     1  0.0000000  0.6973333  3
   2726   2722   2719   2731     1  0.0000000  1.0460000  1
   2726   2722   2719   2731     1  0.0000000  0.0000000  3
   2726   2722   2723   2729     1  0.0000000  1.0460000  1
   2726   2722   2723   2729     1  0.0000000  0.0000000  3
   2726   2722   2730   2733     1  0.0000000  0.6973333  3
   2727   2724   2723   2729     1  0.0000000  0.6508444  3
   2736   2732   2718   2740     1  0.0000000  1.0460000  1
   2736   2732   2718   2740     1  0.0000000  0.0000000  3
   2736   2732   2738   2739     1  0.0000000  0.6973333  3
   2737   2732   2718   2740     1  0.0000000  1.0460000  1
   2737   2732   2718   2740     1  0.0000000  0.0000000  3
   2737   2732   2738   2739     1  0.0000000  0.6973333  3
   2741   2742   2745   2749     1  0.0000000  0.6508444  3
   2741   2742   2754   2757     1  0.0000000  1.0460000  1
   2741   2742   2754   2757     1  0.0000000  0.6694400  3
   2741   2755   2761   2762     1  0.0000000  1.0460000  1
   2741   2755   2761   2762     1  0.0000000  0.6694400  3
   2741   2763   2747   2750     1  0.0000000  1.6038667  3
   2742   2745   2746   2748     1  0.0000000  0.6508444  3
   2742   2745   2753   2756     1  0.0000000  1.0460000  1
   2742   2745   2753   2756     1  0.0000000  0.6694400  3
   2742   2741   2755   2759     1  0.0000000  0.6508444  3
   2742   2741   2755   2760     1  0.0000000  0.6508444  3
   2743   2741   2742   2745     1  0.0000000  0.6508444  3
   2743   2741   2742   2754     1  0.0000000  1.0460000  1
   2743   2741   2742   2754     1  0.0000000  0.0000000  3
   2743   2741   2742   2744     1  0.0000000  0.6508444  3
   2743   2741   2755   2761     1  0.0000000  1.0460000  1
   2743   2741   2755   2761     1  0.0000000  0.0000000  3
   2743   2741   2755   2759     1  0.0000000  0.6508444  3
   2743   2741   2755   2760     1  0.0000000  0.6508444  3
   2743   2741   2763   2747     1  0.0000000  1.6038667  3
   2744   2742   2745   2746     1  0.0000000  0.6508444  3
   2744   2742   2745   2753     1  0.0000000  1.0460000  1
   2744   2742   2745   2753     1  0.0000000  0.0000000  3
   2744   2742   2745   2749     1  0.0000000  0.6508444  3
   2744   2742   2754   2757     1  0.0000000  0.6973333  3
   2744   2742   2741   2755     1  0.0000000  0.6508444  3
   2744   2742   2741   2763     1  0.0000000  1.0460000  1
   2744   2742   2741   2763     1  0.0000000  0.0000000  3
   2745   2746   2747   2750     1  0.0000000  0.6508444  3
   2745   2746   2752   2758     1  0.0000000  1.0460000  1
   2745   2746   2752   2758     1  0.0000000  0.6694400  3
   2745   2742   2754   2757     1  0.0000000  1.0460000  1
   2745   2742   2754   2757     1  0.0000000  0.6694400  3
   2746   2745   2753   2756     1  0.0000000  1.0460000  1
   2746   2745   2753   2756     1  0.0000000  0.6694400  3
   2747   2746   2752   2758     1  0.0000000  1.0460000  1
   2747   2746   2752   2758     1  0.0000000  0.6694400  3
   2747   2746   2745   2749     1  0.0000000  0.6508444  3
   2748   2746   2747   2751     1  0.0000000  1.0460000  1
   2748   2746   2747   2751     1  0.0000000  0.0000000  3
   2748   2746   2747   2763     1  0.0000000  1.0460000  1
   2748   2746   2747   2763     1  0.0000000  0.0000000  3
   2748   2746   2747   2750     1  0.0000000  0.6508444  3
   2748   2746   2752   2758     1  0.0000000  0.6973333  3
   2748   2746   2745   2753     1  0.0000000  1.0460000  1
   2748   2746   2745   2753     1  0.0000000  0.0000000  3
   2748   2746   2745   2749     1  0.0000000  0.6508444  3
   2749   2745   2746   2752     1  0.0000000  1.0460000  1
   2749   2745   2746   2752     1  0.0000000  0.0000000  3
   2749   2745   2753   2756     1  0.0000000  0.6973333  3
   2749   2745   2742   2754     1  0.0000000  1.0460000  1
   2749   2745   2742   2754     1  0.0000000  0.0000000  3
   2750   2747   2746   2752     1  0.0000000  0.6508444  3
   2759   2755   2761   2762     1  0.0000000  0.6973333  3
   2759   2755   2741   2763     1  0.0000000  1.0460000  1
   2759   2755   2741   2763     1  0.0000000  0.0000000  3
   2760   2755   2761   2762     1  0.0000000  0.6973333  3
   2760   2755   2741   2763     1  0.0000000  1.0460000  1
   2760   2755   2741   2763     1  0.0000000  0.0000000  3
   2764   2765   2768   2772     1  0.0000000  0.6508444  3
   2764   2765   2777   2780     1  0.0000000  1.0460000  1
   2764   2765   2777   2780     1  0.0000000  0.6694400  3
   2764   2778   2784   2785     1  0.0000000  1.0460000  1
   2764   2778   2784   2785     1  0.0000000  0.6694400  3
   2764   2786   2770   2773     1  0.0000000  1.6038667  3
   2765   2764   2778   2782     1  0.0000000  0.6508444  3
   2765   2764   2778   2783     1  0.0000000  0.6508444  3
   2765   2768   2769   2771     1  0.0000000  0.6508444  3
   2765   2768   2776   2779     1  0.0000000  1.0460000  1
   2765   2768   2776   2779     1  0.0000000  0.6694400  3
   2766   2764   2765   2768     1  0.0000000  0.6508444  3
   2766   2764   2765   2777     1  0.0000000  1.0460000  1
   2766   2764   2765   2777     1  0.0000000  0.0000000  3
   2766   2764   2765   2767     1  0.0000000  0.6508444  3
   2766   2764   2778   2784     1  0.0000000  1.0460000  1
   2766   2764   2778   2784     1  0.0000000  0.0000000  3
   2766   2764   2778   2782     1  0.0000000  0.6508444  3
   2766   2764   2778   2783     1  0.0000000  0.6508444  3
   2766   2764   2786   2770     1  0.0000000  1.6038667  3
   2767   2765   2764   2778     1  0.0000000  0.6508444  3
   2767   2765   2764   2786     1  0.0000000  1.0460000  1
   2767   2765   2764   2786     1  0.0000000  0.0000000  3
   2767   2765   2768   2769     1  0.0000000  0.6508444  3
   2767   2765   2768   2776     1  0.0000000  1.0460000  1
   2767   2765   2768   2776     1  0.0000000  0.0000000  3
   2767   2765   2768   2772     1  0.0000000  0.6508444  3
   2767   2765   2777   2780     1  0.0000000  0.6973333  3
   2768   2765   2777   2780     1  0.0000000  1.0460000  1
   2768   2765   2777   2780     1  0.0000000  0.6694400  3
   2768   2769   2770   2773     1  0.0000000  0.6508444  3
   2768   2769   2775   2781     1  0.0000000  1.0460000  1
   2768   2769   2775   2781     1  0.0000000  0.6694400  3
   2769   2768   2776   2779     1  0.0000000  1.0460000  1
   2769   2768   2776   2779     1  0.0000000  0.6694400  3
   2770   2769   2768   2772     1  0.0000000  0.6508444  3
   2770   2769   2775   2781     1  0.0000000  1.0460000  1
   2770   2769   2775   2781     1  0.0000000  0.6694400  3
   2771   2769   2768   2776     1  0.0000000  1.0460000  1
   2771   2769   2768   2776     1  0.0000000  0.0000000  3
   2771   2769   2768   2772     1  0.0000000  0.6508444  3
   2771   2769   2770   2774     1  0.0000000  1.0460000  1
   2771   2769   2770   2774     1  0.0000000  0.0000000  3
   2771   2769   2770   2786     1  0.0000000  1.0460000  1
   2771   2769   2770   2786     1  0.0000000  0.0000000  3
   2771   2769   2770   2773     1  0.0000000  0.6508444  3
   2771   2769   2775   2781     1  0.0000000  0.6973333  3
   2772   2768   2765   2777     1  0.0000000  1.0460000  1
   2772   2768   2765   2777     1  0.0000000  0.0000000  3
   2772   2768   2769   2775     1  0.0000000  1.0460000  1
   2772   2768   2769   2775     1  0.0000000  0.0000000  3
   2772   2768   2776   2779     1  0.0000000  0.6973333  3
   2773   2770   2769   2775     1  0.0000000  0.6508444  3
   2782   2778   2764   2786     1  0.0000000  1.0460000  1
   2782   2778   2764   2786     1  0.0000000  0.0000000  3
   2782   2778   2784   2785     1  0.0000000  0.6973333  3
   2783   2778   2764   2786     1  0.0000000  1.0460000  1
   2783   2778   2764   2786     1  0.0000000  0.0000000  3
   2783   2778   2784   2785     1  0.0000000  0.6973333  3
   2787   2788   2791   2795     1  0.0000000  0.6508444  3
   2787   2788   2800   2803     1  0.0000000  1.0460000  1
   2787   2788   2800   2803     1  0.0000000  0.6694400  3
   2787   2801   2807   2808     1  0.0000000  1.0460000  1
   2787   2801   2807   2808     1  0.0000000  0.6694400  3
   2787   2809   2793   2796     1  0.0000000  1.6038667  3
   2788   2791   2792   2794     1  0.0000000  0.6508444  3
   2788   2791   2799   2802     1  0.0000000  1.0460000  1
   2788   2791   2799   2802     1  0.0000000  0.6694400  3
   2788   2787   2801   2805     1  0.0000000  0.6508444  3
   2788   2787   2801   2806     1  0.0000000  0.6508444  3
   2789   2787   2788   2791     1  0.0000000  0.6508444  3
   2789   2787   2788   2800     1  0.0000000  1.0460000  1
   2789   2787   2788   2800     1  0.0000000  0.0000000  3
   2789   2787   2788   2790     1  0.0000000  0.6508444  3
   2789   2787   2801   2807     1  0.0000000  1.0460000  1
   2789   2787   2801   2807     1  0.0000000  0.0000000  3
   2789   2787   2801   2805     1  0.0000000  0.6508444  3
   2789   2787   2801   2806     1  0.0000000  0.6508444  3
   2789   2787   2809   2793     1  0.0000000  1.6038667  3
   2790   2788   2791   2792     1  0.0000000  0.6508444  3
   2790   2788   2791   2799     1  0.0000000  1.0460000  1
   2790   2788   2791   2799     1  0.0000000  0.0000000  3
   2790   2788   2791   2795     1  0.0000000  0.6508444  3
   2790   2788   2800   2803     1  0.0000000  0.6973333  3
   2790   2788   2787   2801     1  0.0000000  0.6508444  3
   2790   2788   2787   2809     1  0.0000000  1.0460000  1
   2790   2788   2787   2809     1  0.0000000  0.0000000  3
   2791   2792   2793   2796     1  0.0000000  0.6508444  3
   2791   2792   2798   2804     1  0.0000000  1.0460000  1
   2791   2792   2798   2804     1  0.0000000  0.6694400  3
   2791   2788   2800   2803     1  0.0000000  1.0460000  1
   2791   2788   2800   2803     1  0.0000000  0.6694400  3
   2792   2791   2799   2802     1  0.0000000  1.0460000  1
   2792   2791   2799   2802     1  0.0000000  0.6694400  3
   2793   2792   2798   2804     1  0.0000000  1.0460000  1
   2793   2792   2798   2804     1  0.0000000  0.6694400  3
   2793   2792   2791   2795     1  0.0000000  0.6508444  3
   2794   2792   2793   2797     1  0.0000000  1.0460000  1
   2794   2792   2793   2797     1  0.0000000  0.0000000  3
   2794   2792   2793   2809     1  0.0000000  1.0460000  1
   2794   2792   2793   2809     1  0.0000000  0.0000000  3
   2794   2792   2793   2796     1  0.0000000  0.6508444  3
   2794   2792   2798   2804     1  0.0000000  0.6973333  3
   2794   2792   2791   2799     1  0.0000000  1.0460000  1
   2794   2792   2791   2799     1  0.0000000  0.0000000  3
   2794   2792   2791   2795     1  0.0000000  0.6508444  3
   2795   2791   2792   2798     1  0.0000000  1.0460000  1
   2795   2791   2792   2798     1  0.0000000  0.0000000  3
   2795   2791   2799   2802     1  0.0000000  0.6973333  3
   2795   2791   2788   2800     1  0.0000000  1.0460000  1
   2795   2791   2788   2800     1  0.0000000  0.0000000  3
   2796   2793   2792   2798     1  0.0000000  0.6508444  3
   2805   2801   2807   2808     1  0.0000000  0.6973333  3
   2805   2801   2787   2809     1  0.0000000  1.0460000  1
   2805   2801   2787   2809     1  0.0000000  0.0000000  3
   2806   2801   2807   2808     1  0.0000000  0.6973333  3
   2806   2801   2787   2809     1  0.0000000  1.0460000  1
   2806   2801   2787   2809     1  0.0000000  0.0000000  3
   2810   2811   2814   2818     1  0.0000000  0.6508444  3
   2810   2811   2823   2826     1  0.0000000  1.0460000  1
   2810   2811   2823   2826     1  0.0000000  0.6694400  3
   2810   2824   2830   2831     1  0.0000000  1.0460000  1
   2810   2824   2830   2831     1  0.0000000  0.6694400  3
   2810   2832   2816   2819     1  0.0000000  1.6038667  3
   2811   2810   2824   2828     1  0.0000000  0.6508444  3
   2811   2810   2824   2829     1  0.0000000  0.6508444  3
   2811   2814   2815   2817     1  0.0000000  0.6508444  3
   2811   2814   2822   2825     1  0.0000000  1.0460000  1
   2811   2814   2822   2825     1  0.0000000  0.6694400  3
   2812   2810   2811   2814     1  0.0000000  0.6508444  3
   2812   2810   2811   2823     1  0.0000000  1.0460000  1
   2812   2810   2811   2823     1  0.0000000  0.0000000  3
   2812   2810   2811   2813     1  0.0000000  0.6508444  3
   2812   2810   2824   2830     1  0.0000000  1.0460000  1
   2812   2810   2824   2830     1  0.0000000  0.0000000  3
   2812   2810   2824   2828     1  0.0000000  0.6508444  3
   2812   2810   2824   2829     1  0.0000000  0.6508444  3
   2812   2810   2832   2816     1  0.0000000  1.6038667  3
   2813   2811   2810   2824     1  0.0000000  0.6508444  3
   2813   2811   2810   2832     1  0.0000000  1.0460000  1
   2813   2811   2810   2832     1  0.0000000  0.0000000  3
   2813   2811   2814   2815     1  0.0000000  0.6508444  3
   2813   2811   2814   2822     1  0.0000000  1.0460000  1
   2813   2811   2814   2822     1  0.0000000  0.0000000  3
   2813   2811   2814   2818     1  0.0000000  0.6508444  3
   2813   2811   2823   2826     1  0.0000000  0.6973333  3
   2814   2811   2823   2826     1  0.0000000  1.0460000  1
   2814   2811   2823   2826     1  0.0000000  0.6694400  3
   2814   2815   2816   2819     1  0.0000000  0.6508444  3
   2814   2815   2821   2827     1  0.0000000  1.0460000  1
   2814   2815   2821   2827     1  0.0000000  0.6694400  3
   2815   2814   2822   2825     1  0.0000000  1.0460000  1
   2815   2814   2822   2825     1  0.0000000  0.6694400  3
   2816   2815   2814   2818     1  0.0000000  0.6508444  3
   2816   2815   2821   2827     1  0.0000000  1.0460000  1
   2816   2815   2821   2827     1  0.0000000  0.6694400  3
   2817   2815   2814   2822     1  0.0000000  1.0460000  1
   2817   2815   2814   2822     1  0.0000000  0.0000000  3
   2817   2815   2814   2818     1  0.0000000  0.6508444  3
   2817   2815   2816   2820     1  0.0000000  1.0460000  1
   2817   2815   2816   2820     1  0.0000000  0.0000000  3
   2817   2815   2816   2832     1  0.0000000  1.0460000  1
   2817   2815   2816   2832     1  0.0000000  0.0000000  3
   2817   2815   2816   2819     1  0.0000000  0.6508444  3
   2817   2815   2821   2827     1  0.0000000  0.6973333  3
   2818   2814   2811   2823     1  0.0000000  1.0460000  1
   2818   2814   2811   2823     1  0.0000000  0.0000000  3
   2818   2814   2815   2821     1  0.0000000  1.0460000  1
   2818   2814   2815   2821     1  0.0000000  0.0000000  3
   2818   2814   2822   2825     1  0.0000000  0.6973333  3
   2819   2816   2815   2821     1  0.0000000  0.6508444  3
   2828   2824   2810   2832     1  0.0000000  1.0460000  1
   2828   2824   2810   2832     1  0.0000000  0.0000000  3
   2828   2824   2830   2831     1  0.0000000  0.6973333  3
   2829   2824   2810   2832     1  0.0000000  1.0460000  1
   2829   2824   2810   2832     1  0.0000000  0.0000000  3
   2829   2824   2830   2831     1  0.0000000  0.6973333  3
   2833   2834   2837   2841     1  0.0000000  0.6508444  3
   2833   2834   2846   2849     1  0.0000000  1.0460000  1
   2833   2834   2846   2849     1  0.0000000  0.6694400  3
   2833   2847   2853   2854     1  0.0000000  1.0460000  1
   2833   2847   2853   2854     1  0.0000000  0.6694400  3
   2833   2855   2839   2842     1  0.0000000  1.6038667  3
   2834   2837   2838   2840     1  0.0000000  0.6508444  3
   2834   2837   2845   2848     1  0.0000000  1.0460000  1
   2834   2837   2845   2848     1  0.0000000  0.6694400  3
   2834   2833   2847   2851     1  0.0000000  0.6508444  3
   2834   2833   2847   2852     1  0.0000000  0.6508444  3
   2835   2833   2834   2837     1  0.0000000  0.6508444  3
   2835   2833   2834   2846     1  0.0000000  1.0460000  1
   2835   2833   2834   2846     1  0.0000000  0.0000000  3
   2835   2833   2834   2836     1  0.0000000  0.6508444  3
   2835   2833   2847   2853     1  0.0000000  1.0460000  1
   2835   2833   2847   2853     1  0.0000000  0.0000000  3
   2835   2833   2847   2851     1  0.0000000  0.6508444  3
   2835   2833   2847   2852     1  0.0000000  0.6508444  3
   2835   2833   2855   2839     1  0.0000000  1.6038667  3
   2836   2834   2837   2838     1  0.0000000  0.6508444  3
   2836   2834   2837   2845     1  0.0000000  1.0460000  1
   2836   2834   2837   2845     1  0.0000000  0.0000000  3
   2836   2834   2837   2841     1  0.0000000  0.6508444  3
   2836   2834   2846   2849     1  0.0000000  0.6973333  3
   2836   2834   2833   2847     1  0.0000000  0.6508444  3
   2836   2834   2833   2855     1  0.0000000  1.0460000  1
   2836   2834   2833   2855     1  0.0000000  0.0000000  3
   2837   2838   2839   2842     1  0.0000000  0.6508444  3
   2837   2838   2844   2850     1  0.0000000  1.0460000  1
   2837   2838   2844   2850     1  0.0000000  0.6694400  3
   2837   2834   2846   2849     1  0.0000000  1.0460000  1
   2837   2834   2846   2849     1  0.0000000  0.6694400  3
   2838   2837   2845   2848     1  0.0000000  1.0460000  1
   2838   2837   2845   2848     1  0.0000000  0.6694400  3
   2839   2838   2844   2850     1  0.0000000  1.0460000  1
   2839   2838   2844   2850     1  0.0000000  0.6694400  3
   2839   2838   2837   2841     1  0.0000000  0.6508444  3
   2840   2838   2839   2843     1  0.0000000  1.0460000  1
   2840   2838   2839   2843     1  0.0000000  0.0000000  3
   2840   2838   2839   2855     1  0.0000000  1.0460000  1
   2840   2838   2839   2855     1  0.0000000  0.0000000  3
   2840   2838   2839   2842     1  0.0000000  0.6508444  3
   2840   2838   2844   2850     1  0.0000000  0.6973333  3
   2840   2838   2837   2845     1  0.0000000  1.0460000  1
   2840   2838   2837   2845     1  0.0000000  0.0000000  3
   2840   2838   2837   2841     1  0.0000000  0.6508444  3
   2841   2837   2838   2844     1  0.0000000  1.0460000  1
   2841   2837   2838   2844     1  0.0000000  0.0000000  3
   2841   2837   2845   2848     1  0.0000000  0.6973333  3
   2841   2837   2834   2846     1  0.0000000  1.0460000  1
   2841   2837   2834   2846     1  0.0000000  0.0000000  3
   2842   2839   2838   2844     1  0.0000000  0.6508444  3
   2851   2847   2853   2854     1  0.0000000  0.6973333  3
   2851   2847   2833   2855     1  0.0000000  1.0460000  1
   2851   2847   2833   2855     1  0.0000000  0.0000000  3
   2852   2847   2853   2854     1  0.0000000  0.6973333  3
   2852   2847   2833   2855     1  0.0000000  1.0460000  1
   2852   2847   2833   2855     1  0.0000000  0.0000000  3
   2856   2857   2860   2864     1  0.0000000  0.6508444  3
   2856   2857   2869   2872     1  0.0000000  1.0460000  1
   2856   2857   2869   2872     1  0.0000000  0.6694400  3
   2856   2870   2876   2877     1  0.0000000  1.0460000  1
   2856   2870   2876   2877     1  0.0000000  0.6694400  3
   2856   2878   2862   2865     1  0.0000000  1.6038667  3
   2857   2856   2870   2874     1  0.0000000  0.6508444  3
   2857   2856   2870   2875     1  0.0000000  0.6508444  3
   2857   2860   2861   2863     1  0.0000000  0.6508444  3
   2857   2860   2868   2871     1  0.0000000  1.0460000  1
   2857   2860   2868   2871     1  0.0000000  0.6694400  3
   2858   2856   2857   2860     1  0.0000000  0.6508444  3
   2858   2856   2857   2869     1  0.0000000  1.0460000  1
   2858   2856   2857   2869     1  0.0000000  0.0000000  3
   2858   2856   2857   2859     1  0.0000000  0.6508444  3
   2858   2856   2870   2876     1  0.0000000  1.0460000  1
   2858   2856   2870   2876     1  0.0000000  0.0000000  3
   2858   2856   2870   2874     1  0.0000000  0.6508444  3
   2858   2856   2870   2875     1  0.0000000  0.6508444  3
   2858   2856   2878   2862     1  0.0000000  1.6038667  3
   2859   2857   2856   2870     1  0.0000000  0.6508444  3
   2859   2857   2856   2878     1  0.0000000  1.0460000  1
   2859   2857   2856   2878     1  0.0000000  0.0000000  3
   2859   2857   2860   2861     1  0.0000000  0.6508444  3
   2859   2857   2860   2868     1  0.0000000  1.0460000  1
   2859   2857   2860   2868     1  0.0000000  0.0000000  3
   2859   2857   2860   2864     1  0.0000000  0.6508444  3
   2859   2857   2869   2872     1  0.0000000  0.6973333  3
   2860   2857   2869   2872     1  0.0000000  1.0460000  1
   2860   2857   2869   2872     1  0.0000000  0.6694400  3
   2860   2861   2862   2865     1  0.0000000  0.6508444  3
   2860   2861   2867   2873     1  0.0000000  1.0460000  1
   2860   2861   2867   2873     1  0.0000000  0.6694400  3
   2861   2860   2868   2871     1  0.0000000  1.0460000  1
   2861   2860   2868   2871     1  0.0000000  0.6694400  3
   2862   2861   2860   2864     1  0.0000000  0.6508444  3
   2862   2861   2867   2873     1  0.0000000  1.0460000  1
   2862   2861   2867   2873     1  0.0000000  0.6694400  3
   2863   2861   2860   2868     1  0.0000000  1.0460000  1
   2863   2861   2860   2868     1  0.0000000  0.0000000  3
   2863   2861   2860   2864     1  0.0000000  0.6508444  3
   2863   2861   2862   2866     1  0.0000000  1.0460000  1
   2863   2861   2862   2866     1  0.0000000  0.0000000  3
   2863   2861   2862   2878     1  0.0000000  1.0460000  1
   2863   2861   2862   2878     1  0.0000000  0.0000000  3
   2863   2861   2862   2865     1  0.0000000  0.6508444  3
   2863   2861   2867   2873     1  0.0000000  0.6973333  3
   2864   2860   2857   2869     1  0.0000000  1.0460000  1
   2864   2860   2857   2869     1  0.0000000  0.0000000  3
   2864   2860   2861   2867     1  0.0000000  1.0460000  1
   2864   2860   2861   2867     1  0.0000000  0.0000000  3
   2864   2860   2868   2871     1  0.0000000  0.6973333  3
   2865   2862   2861   2867     1  0.0000000  0.6508444  3
   2874   2870   2856   2878     1  0.0000000  1.0460000  1
   2874   2870   2856   2878     1  0.0000000  0.0000000  3
   2874   2870   2876   2877     1  0.0000000  0.6973333  3
   2875   2870   2856   2878     1  0.0000000  1.0460000  1
   2875   2870   2856   2878     1  0.0000000  0.0000000  3
   2875   2870   2876   2877     1  0.0000000  0.6973333  3
   2879   2880   2883   2887     1  0.0000000  0.6508444  3
   2879   2880   2892   2895     1  0.0000000  1.0460000  1
   2879   2880   2892   2895     1  0.0000000  0.6694400  3
   2879   2893   2899   2900     1  0.0000000  1.0460000  1
   2879   2893   2899   2900     1  0.0000000  0.6694400  3
   2879   2901   2885   2888     1  0.0000000  1.6038667  3
   2880   2883   2884   2886     1  0.0000000  0.6508444  3
   2880   2883   2891   2894     1  0.0000000  1.0460000  1
   2880   2883   2891   2894     1  0.0000000  0.6694400  3
   2880   2879   2893   2897     1  0.0000000  0.6508444  3
   2880   2879   2893   2898     1  0.0000000  0.6508444  3
   2881   2879   2880   2883     1  0.0000000  0.6508444  3
   2881   2879   2880   2892     1  0.0000000  1.0460000  1
   2881   2879   2880   2892     1  0.0000000  0.0000000  3
   2881   2879   2880   2882     1  0.0000000  0.6508444  3
   2881   2879   2893   2899     1  0.0000000  1.0460000  1
   2881   2879   2893   2899     1  0.0000000  0.0000000  3
   2881   2879   2893   2897     1  0.0000000  0.6508444  3
   2881   2879   2893   2898     1  0.0000000  0.6508444  3
   2881   2879   2901   2885     1  0.0000000  1.6038667  3
   2882   2880   2883   2884     1  0.0000000  0.6508444  3
   2882   2880   2883   2891     1  0.0000000  1.0460000  1
   2882   2880   2883   2891     1  0.0000000  0.0000000  3
   2882   2880   2883   2887     1  0.0000000  0.6508444  3
   2882   2880   2892   2895     1  0.0000000  0.6973333  3
   2882   2880   2879   2893     1  0.0000000  0.6508444  3
   2882   2880   2879   2901     1  0.0000000  1.0460000  1
   2882   2880   2879   2901     1  0.0000000  0.0000000  3
   2883   2884   2885   2888     1  0.0000000  0.6508444  3
   2883   2884   2890   2896     1  0.0000000  1.0460000  1
   2883   2884   2890   2896     1  0.0000000  0.6694400  3
   2883   2880   2892   2895     1  0.0000000  1.0460000  1
   2883   2880   2892   2895     1  0.0000000  0.6694400  3
   2884   2883   2891   2894     1  0.0000000  1.0460000  1
   2884   2883   2891   2894     1  0.0000000  0.6694400  3
   2885   2884   2890   2896     1  0.0000000  1.0460000  1
   2885   2884   2890   2896     1  0.0000000  0.6694400  3
   2885   2884   2883   2887     1  0.0000000  0.6508444  3
   2886   2884   2885   2889     1  0.0000000  1.0460000  1
   2886   2884   2885   2889     1  0.0000000  0.0000000  3
   2886   2884   2885   2901     1  0.0000000  1.0460000  1
   2886   2884   2885   2901     1  0.0000000  0.0000000  3
   2886   2884   2885   2888     1  0.0000000  0.6508444  3
   2886   2884   2890   2896     1  0.0000000  0.6973333  3
   2886   2884   2883   2891     1  0.0000000  1.0460000  1
   2886   2884   2883   2891     1  0.0000000  0.0000000  3
   2886   2884   2883   2887     1  0.0000000  0.6508444  3
   2887   2883   2884   2890     1  0.0000000  1.0460000  1
   2887   2883   2884   2890     1  0.0000000  0.0000000  3
   2887   2883   2891   2894     1  0.0000000  0.6973333  3
   2887   2883   2880   2892     1  0.0000000  1.0460000  1
   2887   2883   2880   2892     1  0.0000000  0.0000000  3
   2888   2885   2884   2890     1  0.0000000  0.6508444  3
   2897   2893   2899   2900     1  0.0000000  0.6973333  3
   2897   2893   2879   2901     1  0.0000000  1.0460000  1
   2897   2893   2879   2901     1  0.0000000  0.0000000  3
   2898   2893   2899   2900     1  0.0000000  0.6973333  3
   2898   2893   2879   2901     1  0.0000000  1.0460000  1
   2898   2893   2879   2901     1  0.0000000  0.0000000  3
   2902   2903   2906   2910     1  0.0000000  0.6508444  3
   2902   2903   2915   2918     1  0.0000000  1.0460000  1
   2902   2903   2915   2918     1  0.0000000  0.6694400  3
   2902   2916   2922   2923     1  0.0000000  1.0460000  1
   2902   2916   2922   2923     1  0.0000000  0.6694400  3
   2902   2924   2908   2911     1  0.0000000  1.6038667  3
   2903   2902   2916   2920     1  0.0000000  0.6508444  3
   2903   2902   2916   2921     1  0.0000000  0.6508444  3
   2903   2906   2907   2909     1  0.0000000  0.6508444  3
   2903   2906   2914   2917     1  0.0000000  1.0460000  1
   2903   2906   2914   2917     1  0.0000000  0.6694400  3
   2904   2902   2903   2906     1  0.0000000  0.6508444  3
   2904   2902   2903   2915     1  0.0000000  1.0460000  1
   2904   2902   2903   2915     1  0.0000000  0.0000000  3
   2904   2902   2903   2905     1  0.0000000  0.6508444  3
   2904   2902   2916   2922     1  0.0000000  1.0460000  1
   2904   2902   2916   2922     1  0.0000000  0.0000000  3
   2904   2902   2916   2920     1  0.0000000  0.6508444  3
   2904   2902   2916   2921     1  0.0000000  0.6508444  3
   2904   2902   2924   2908     1  0.0000000  1.6038667  3
   2905   2903   2902   2916     1  0.0000000  0.6508444  3
   2905   2903   2902   2924     1  0.0000000  1.0460000  1
   2905   2903   2902   2924     1  0.0000000  0.0000000  3
   2905   2903   2906   2907     1  0.0000000  0.6508444  3
   2905   2903   2906   2914     1  0.0000000  1.0460000  1
   2905   2903   2906   2914     1  0.0000000  0.0000000  3
   2905   2903   2906   2910     1  0.0000000  0.6508444  3
   2905   2903   2915   2918     1  0.0000000  0.6973333  3
   2906   2903   2915   2918     1  0.0000000  1.0460000  1
   2906   2903   2915   2918     1  0.0000000  0.6694400  3
   2906   2907   2908   2911     1  0.0000000  0.6508444  3
   2906   2907   2913   2919     1  0.0000000  1.0460000  1
   2906   2907   2913   2919     1  0.0000000  0.6694400  3
   2907   2906   2914   2917     1  0.0000000  1.0460000  1
   2907   2906   2914   2917     1  0.0000000  0.6694400  3
   2908   2907   2906   2910     1  0.0000000  0.6508444  3
   2908   2907   2913   2919     1  0.0000000  1.0460000  1
   2908   2907   2913   2919     1  0.0000000  0.6694400  3
   2909   2907   2906   2914     1  0.0000000  1.0460000  1
   2909   2907   2906   2914     1  0.0000000  0.0000000  3
   2909   2907   2906   2910     1  0.0000000  0.6508444  3
   2909   2907   2908   2912     1  0.0000000  1.0460000  1
   2909   2907   2908   2912     1  0.0000000  0.0000000  3
   2909   2907   2908   2924     1  0.0000000  1.0460000  1
   2909   2907   2908   2924     1  0.0000000  0.0000000  3
   2909   2907   2908   2911     1  0.0000000  0.6508444  3
   2909   2907   2913   2919     1  0.0000000  0.6973333  3
   2910   2906   2903   2915     1  0.0000000  1.0460000  1
   2910   2906   2903   2915     1  0.0000000  0.0000000  3
   2910   2906   2907   2913     1  0.0000000  1.0460000  1
   2910   2906   2907   2913     1  0.0000000  0.0000000  3
   2910   2906   2914   2917     1  0.0000000  0.6973333  3
   2911   2908   2907   2913     1  0.0000000  0.6508444  3
   2920   2916   2902   2924     1  0.0000000  1.0460000  1
   2920   2916   2902   2924     1  0.0000000  0.0000000  3
   2920   2916   2922   2923     1  0.0000000  0.6973333  3
   2921   2916   2902   2924     1  0.0000000  1.0460000  1
   2921   2916   2902   2924     1  0.0000000  0.0000000  3
   2921   2916   2922   2923     1  0.0000000  0.6973333  3
   2925   2926   2929   2933     1  0.0000000  0.6508444  3
   2925   2926   2938   2941     1  0.0000000  1.0460000  1
   2925   2926   2938   2941     1  0.0000000  0.6694400  3
   2925   2939   2945   2946     1  0.0000000  1.0460000  1
   2925   2939   2945   2946     1  0.0000000  0.6694400  3
   2925   2947   2931   2934     1  0.0000000  1.6038667  3
   2926   2929   2930   2932     1  0.0000000  0.6508444  3
   2926   2929   2937   2940     1  0.0000000  1.0460000  1
   2926   2929   2937   2940     1  0.0000000  0.6694400  3
   2926   2925   2939   2943     1  0.0000000  0.6508444  3
   2926   2925   2939   2944     1  0.0000000  0.6508444  3
   2927   2925   2926   2929     1  0.0000000  0.6508444  3
   2927   2925   2926   2938     1  0.0000000  1.0460000  1
   2927   2925   2926   2938     1  0.0000000  0.0000000  3
   2927   2925   2926   2928     1  0.0000000  0.6508444  3
   2927   2925   2939   2945     1  0.0000000  1.0460000  1
   2927   2925   2939   2945     1  0.0000000  0.0000000  3
   2927   2925   2939   2943     1  0.0000000  0.6508444  3
   2927   2925   2939   2944     1  0.0000000  0.6508444  3
   2927   2925   2947   2931     1  0.0000000  1.6038667  3
   2928   2926   2929   2930     1  0.0000000  0.6508444  3
   2928   2926   2929   2937     1  0.0000000  1.0460000  1
   2928   2926   2929   2937     1  0.0000000  0.0000000  3
   2928   2926   2929   2933     1  0.0000000  0.6508444  3
   2928   2926   2938   2941     1  0.0000000  0.6973333  3
   2928   2926   2925   2939     1  0.0000000  0.6508444  3
   2928   2926   2925   2947     1  0.0000000  1.0460000  1
   2928   2926   2925   2947     1  0.0000000  0.0000000  3
   2929   2930   2931   2934     1  0.0000000  0.6508444  3
   2929   2930   2936   2942     1  0.0000000  1.0460000  1
   2929   2930   2936   2942     1  0.0000000  0.6694400  3
   2929   2926   2938   2941     1  0.0000000  1.0460000  1
   2929   2926   2938   2941     1  0.0000000  0.6694400  3
   2930   2929   2937   2940     1  0.0000000  1.0460000  1
   2930   2929   2937   2940     1  0.0000000  0.6694400  3
   2931   2930   2936   2942     1  0.0000000  1.0460000  1
   2931   2930   2936   2942     1  0.0000000  0.6694400  3
   2931   2930   2929   2933     1  0.0000000  0.6508444  3
   2932   2930   2931   2935     1  0.0000000  1.0460000  1
   2932   2930   2931   2935     1  0.0000000  0.0000000  3
   2932   2930   2931   2947     1  0.0000000  1.0460000  1
   2932   2930   2931   2947     1  0.0000000  0.0000000  3
   2932   2930   2931   2934     1  0.0000000  0.6508444  3
   2932   2930   2936   2942     1  0.0000000  0.6973333  3
   2932   2930   2929   2937     1  0.0000000  1.0460000  1
   2932   2930   2929   2937     1  0.0000000  0.0000000  3
   2932   2930   2929   2933     1  0.0000000  0.6508444  3
   2933   2929   2930   2936     1  0.0000000  1.0460000  1
   2933   2929   2930   2936     1  0.0000000  0.0000000  3
   2933   2929   2937   2940     1  0.0000000  0.6973333  3
   2933   2929   2926   2938     1  0.0000000  1.0460000  1
   2933   2929   2926   2938     1  0.0000000  0.0000000  3
   2934   2931   2930   2936     1  0.0000000  0.6508444  3
   2943   2939   2945   2946     1  0.0000000  0.6973333  3
   2943   2939   2925   2947     1  0.0000000  1.0460000  1
   2943   2939   2925   2947     1  0.0000000  0.0000000  3
   2944   2939   2945   2946     1  0.0000000  0.6973333  3
   2944   2939   2925   2947     1  0.0000000  1.0460000  1
   2944   2939   2925   2947     1  0.0000000  0.0000000  3
   2948   2949   2952   2956     1  0.0000000  0.6508444  3
   2948   2949   2961   2964     1  0.0000000  1.0460000  1
   2948   2949   2961   2964     1  0.0000000  0.6694400  3
   2948   2962   2968   2969     1  0.0000000  1.0460000  1
   2948   2962   2968   2969     1  0.0000000  0.6694400  3
   2948   2970   2954   2957     1  0.0000000  1.6038667  3
   2949   2948   2962   2966     1  0.0000000  0.6508444  3
   2949   2948   2962   2967     1  0.0000000  0.6508444  3
   2949   2952   2953   2955     1  0.0000000  0.6508444  3
   2949   2952   2960   2963     1  0.0000000  1.0460000  1
   2949   2952   2960   2963     1  0.0000000  0.6694400  3
   2950   2948   2949   2952     1  0.0000000  0.6508444  3
   2950   2948   2949   2961     1  0.0000000  1.0460000  1
   2950   2948   2949   2961     1  0.0000000  0.0000000  3
   2950   2948   2949   2951     1  0.0000000  0.6508444  3
   2950   2948   2962   2968     1  0.0000000  1.0460000  1
   2950   2948   2962   2968     1  0.0000000  0.0000000  3
   2950   2948   2962   2966     1  0.0000000  0.6508444  3
   2950   2948   2962   2967     1  0.0000000  0.6508444  3
   2950   2948   2970   2954     1  0.0000000  1.6038667  3
   2951   2949   2948   2962     1  0.0000000  0.6508444  3
   2951   2949   2948   2970     1  0.0000000  1.0460000  1
   2951   2949   2948   2970     1  0.0000000  0.0000000  3
   2951   2949   2952   2953     1  0.0000000  0.6508444  3
   2951   2949   2952   2960     1  0.0000000  1.0460000  1
   2951   2949   2952   2960     1  0.0000000  0.0000000  3
   2951   2949   2952   2956     1  0.0000000  0.6508444  3
   2951   2949   2961   2964     1  0.0000000  0.6973333  3
   2952   2949   2961   2964     1  0.0000000  1.0460000  1
   2952   2949   2961   2964     1  0.0000000  0.6694400  3
   2952   2953   2954   2957     1  0.0000000  0.6508444  3
   2952   2953   2959   2965     1  0.0000000  1.0460000  1
   2952   2953   2959   2965     1  0.0000000  0.6694400  3
   2953   2952   2960   2963     1  0.0000000  1.0460000  1
   2953   2952   2960   2963     1  0.0000000  0.6694400  3
   2954   2953   2952   2956     1  0.0000000  0.6508444  3
   2954   2953   2959   2965     1  0.0000000  1.0460000  1
   2954   2953   2959   2965     1  0.0000000  0.6694400  3
   2955   2953   2952   2960     1  0.0000000  1.0460000  1
   2955   2953   2952   2960     1  0.0000000  0.0000000  3
   2955   2953   2952   2956     1  0.0000000  0.6508444  3
   2955   2953   2954   2958     1  0.0000000  1.0460000  1
   2955   2953   2954   2958     1  0.0000000  0.0000000  3
   2955   2953   2954   2970     1  0.0000000  1.0460000  1
   2955   2953   2954   2970     1  0.0000000  0.0000000  3
   2955   2953   2954   2957     1  0.0000000  0.6508444  3
   2955   2953   2959   2965     1  0.0000000  0.6973333  3
   2956   2952   2949   2961     1  0.0000000  1.0460000  1
   2956   2952   2949   2961     1  0.0000000  0.0000000  3
   2956   2952   2953   2959     1  0.0000000  1.0460000  1
   2956   2952   2953   2959     1  0.0000000  0.0000000  3
   2956   2952   2960   2963     1  0.0000000  0.6973333  3
   2957   2954   2953   2959     1  0.0000000  0.6508444  3
   2966   2962   2948   2970     1  0.0000000  1.0460000  1
   2966   2962   2948   2970     1  0.0000000  0.0000000  3
   2966   2962   2968   2969     1  0.0000000  0.6973333  3
   2967   2962   2948   2970     1  0.0000000  1.0460000  1
   2967   2962   2948   2970     1  0.0000000  0.0000000  3
   2967   2962   2968   2969     1  0.0000000  0.6973333  3
   2971   2972   2975   2979     1  0.0000000  0.6508444  3
   2971   2972   2984   2987     1  0.0000000  1.0460000  1
   2971   2972   2984   2987     1  0.0000000  0.6694400  3
   2971   2985   2991   2992     1  0.0000000  1.0460000  1
   2971   2985   2991   2992     1  0.0000000  0.6694400  3
   2971   2993   2977   2980     1  0.0000000  1.6038667  3
   2972   2975   2976   2978     1  0.0000000  0.6508444  3
   2972   2975   2983   2986     1  0.0000000  1.0460000  1
   2972   2975   2983   2986     1  0.0000000  0.6694400  3
   2972   2971   2985   2989     1  0.0000000  0.6508444  3
   2972   2971   2985   2990     1  0.0000000  0.6508444  3
   2973   2971   2972   2975     1  0.0000000  0.6508444  3
   2973   2971   2972   2984     1  0.0000000  1.0460000  1
   2973   2971   2972   2984     1  0.0000000  0.0000000  3
   2973   2971   2972   2974     1  0.0000000  0.6508444  3
   2973   2971   2985   2991     1  0.0000000  1.0460000  1
   2973   2971   2985   2991     1  0.0000000  0.0000000  3
   2973   2971   2985   2989     1  0.0000000  0.6508444  3
   2973   2971   2985   2990     1  0.0000000  0.6508444  3
   2973   2971   2993   2977     1  0.0000000  1.6038667  3
   2974   2972   2975   2976     1  0.0000000  0.6508444  3
   2974   2972   2975   2983     1  0.0000000  1.0460000  1
   2974   2972   2975   2983     1  0.0000000  0.0000000  3
   2974   2972   2975   2979     1  0.0000000  0.6508444  3
   2974   2972   2984   2987     1  0.0000000  0.6973333  3
   2974   2972   2971   2985     1  0.0000000  0.6508444  3
   2974   2972   2971   2993     1  0.0000000  1.0460000  1
   2974   2972   2971   2993     1  0.0000000  0.0000000  3
   2975   2976   2977   2980     1  0.0000000  0.6508444  3
   2975   2976   2982   2988     1  0.0000000  1.0460000  1
   2975   2976   2982   2988     1  0.0000000  0.6694400  3
   2975   2972   2984   2987     1  0.0000000  1.0460000  1
   2975   2972   2984   2987     1  0.0000000  0.6694400  3
   2976   2975   2983   2986     1  0.0000000  1.0460000  1
   2976   2975   2983   2986     1  0.0000000  0.6694400  3
   2977   2976   2982   2988     1  0.0000000  1.0460000  1
   2977   2976   2982   2988     1  0.0000000  0.6694400  3
   2977   2976   2975   2979     1  0.0000000  0.6508444  3
   2978   2976   2977   2981     1  0.0000000  1.0460000  1
   2978   2976   2977   2981     1  0.0000000  0.0000000  3
   2978   2976   2977   2993     1  0.0000000  1.0460000  1
   2978   2976   2977   2993     1  0.0000000  0.0000000  3
   2978   2976   2977   2980     1  0.0000000  0.6508444  3
   2978   2976   2982   2988     1  0.0000000  0.6973333  3
   2978   2976   2975   2983     1  0.0000000  1.0460000  1
   2978   2976   2975   2983     1  0.0000000  0.0000000  3
   2978   2976   2975   2979     1  0.0000000  0.6508444  3
   2979   2975   2976   2982     1  0.0000000  1.0460000  1
   2979   2975   2976   2982     1  0.0000000  0.0000000  3
   2979   2975   2983   2986     1  0.0000000  0.6973333  3
   2979   2975   2972   2984     1  0.0000000  1.0460000  1
   2979   2975   2972   2984     1  0.0000000  0.0000000  3
   2980   2977   2976   2982     1  0.0000000  0.6508444  3
   2989   2985   2991   2992     1  0.0000000  0.6973333  3
   2989   2985   2971   2993     1  0.0000000  1.0460000  1
   2989   2985   2971   2993     1  0.0000000  0.0000000  3
   2990   2985   2991   2992     1  0.0000000  0.6973333  3
   2990   2985   2971   2993     1  0.0000000  1.0460000  1
   2990   2985   2971   2993     1  0.0000000  0.0000000  3
   2994   2995   2998   3002     1  0.0000000  0.6508444  3
   2994   2995   3007   3010     1  0.0000000  1.0460000  1
   2994   2995   3007   3010     1  0.0000000  0.6694400  3
   2994   3008   3014   3015     1  0.0000000  1.0460000  1
   2994   3008   3014   3015     1  0.0000000  0.6694400  3
   2994   3016   3000   3003     1  0.0000000  1.6038667  3
   2995   2994   3008   3012     1  0.0000000  0.6508444  3
   2995   2994   3008   3013     1  0.0000000  0.6508444  3
   2995   2998   2999   3001     1  0.0000000  0.6508444  3
   2995   2998   3006   3009     1  0.0000000  1.0460000  1
   2995   2998   3006   3009     1  0.0000000  0.6694400  3
   2996   2994   2995   2998     1  0.0000000  0.6508444  3
   2996   2994   2995   3007     1  0.0000000  1.0460000  1
   2996   2994   2995   3007     1  0.0000000  0.0000000  3
   2996   2994   2995   2997     1  0.0000000  0.6508444  3
   2996   2994   3008   3014     1  0.0000000  1.0460000  1
   2996   2994   3008   3014     1  0.0000000  0.0000000  3
   2996   2994   3008   3012     1  0.0000000  0.6508444  3
   2996   2994   3008   3013     1  0.0000000  0.6508444  3
   2996   2994   3016   3000     1  0.0000000  1.6038667  3
   2997   2995   2994   3008     1  0.0000000  0.6508444  3
   2997   2995   2994   3016     1  0.0000000  1.0460000  1
   2997   2995   2994   3016     1  0.0000000  0.0000000  3
   2997   2995   2998   2999     1  0.0000000  0.6508444  3
   2997   2995   2998   3006     1  0.0000000  1.0460000  1
   2997   2995   2998   3006     1  0.0000000  0.0000000  3
   2997   2995   2998   3002     1  0.0000000  0.6508444  3
   2997   2995   3007   3010     1  0.0000000  0.6973333  3
   2998   2995   3007   3010     1  0.0000000  1.0460000  1
   2998   2995   3007   3010     1  0.0000000  0.6694400  3
   2998   2999   3000   3003     1  0.0000000  0.6508444  3
   2998   2999   3005   3011     1  0.0000000  1.0460000  1
   2998   2999   3005   3011     1  0.0000000  0.6694400  3
   2999   2998   3006   3009     1  0.0000000  1.0460000  1
   2999   2998   3006   3009     1  0.0000000  0.6694400  3
   3000   2999   2998   3002     1  0.0000000  0.6508444  3
   3000   2999   3005   3011     1  0.0000000  1.0460000  1
   3000   2999   3005   3011     1  0.0000000  0.6694400  3
   3001   2999   2998   3006     1  0.0000000  1.0460000  1
   3001   2999   2998   3006     1  0.0000000  0.0000000  3
   3001   2999   2998   3002     1  0.0000000  0.6508444  3
   3001   2999   3000   3004     1  0.0000000  1.0460000  1
   3001   2999   3000   3004     1  0.0000000  0.0000000  3
   3001   2999   3000   3016     1  0.0000000  1.0460000  1
   3001   2999   3000   3016     1  0.0000000  0.0000000  3
   3001   2999   3000   3003     1  0.0000000  0.6508444  3
   3001   2999   3005   3011     1  0.0000000  0.6973333  3
   3002   2998   2995   3007     1  0.0000000  1.0460000  1
   3002   2998   2995   3007     1  0.0000000  0.0000000  3
   3002   2998   2999   3005     1  0.0000000  1.0460000  1
   3002   2998   2999   3005     1  0.0000000  0.0000000  3
   3002   2998   3006   3009     1  0.0000000  0.6973333  3
   3003   3000   2999   3005     1  0.0000000  0.6508444  3
   3012   3008   2994   3016     1  0.0000000  1.0460000  1
   3012   3008   2994   3016     1  0.0000000  0.0000000  3
   3012   3008   3014   3015     1  0.0000000  0.6973333  3
   3013   3008   2994   3016     1  0.0000000  1.0460000  1
   3013   3008   2994   3016     1  0.0000000  0.0000000  3
   3013   3008   3014   3015     1  0.0000000  0.6973333  3
   3017   3018   3021   3025     1  0.0000000  0.6508444  3
   3017   3018   3030   3033     1  0.0000000  1.0460000  1
   3017   3018   3030   3033     1  0.0000000  0.6694400  3
   3017   3031   3037   3038     1  0.0000000  1.0460000  1
   3017   3031   3037   3038     1  0.0000000  0.6694400  3
   3017   3039   3023   3026     1  0.0000000  1.6038667  3
   3018   3021   3022   3024     1  0.0000000  0.6508444  3
   3018   3021   3029   3032     1  0.0000000  1.0460000  1
   3018   3021   3029   3032     1  0.0000000  0.6694400  3
   3018   3017   3031   3035     1  0.0000000  0.6508444  3
   3018   3017   3031   3036     1  0.0000000  0.6508444  3
   3019   3017   3018   3021     1  0.0000000  0.6508444  3
   3019   3017   3018   3030     1  0.0000000  1.0460000  1
   3019   3017   3018   3030     1  0.0000000  0.0000000  3
   3019   3017   3018   3020     1  0.0000000  0.6508444  3
   3019   3017   3031   3037     1  0.0000000  1.0460000  1
   3019   3017   3031   3037     1  0.0000000  0.0000000  3
   3019   3017   3031   3035     1  0.0000000  0.6508444  3
   3019   3017   3031   3036     1  0.0000000  0.6508444  3
   3019   3017   3039   3023     1  0.0000000  1.6038667  3
   3020   3018   3021   3022     1  0.0000000  0.6508444  3
   3020   3018   3021   3029     1  0.0000000  1.0460000  1
   3020   3018   3021   3029     1  0.0000000  0.0000000  3
   3020   3018   3021   3025     1  0.0000000  0.6508444  3
   3020   3018   3030   3033     1  0.0000000  0.6973333  3
   3020   3018   3017   3031     1  0.0000000  0.6508444  3
   3020   3018   3017   3039     1  0.0000000  1.0460000  1
   3020   3018   3017   3039     1  0.0000000  0.0000000  3
   3021   3022   3023   3026     1  0.0000000  0.6508444  3
   3021   3022   3028   3034     1  0.0000000  1.0460000  1
   3021   3022   3028   3034     1  0.0000000  0.6694400  3
   3021   3018   3030   3033     1  0.0000000  1.0460000  1
   3021   3018   3030   3033     1  0.0000000  0.6694400  3
   3022   3021   3029   3032     1  0.0000000  1.0460000  1
   3022   3021   3029   3032     1  0.0000000  0.6694400  3
   3023   3022   3028   3034     1  0.0000000  1.0460000  1
   3023   3022   3028   3034     1  0.0000000  0.6694400  3
   3023   3022   3021   3025     1  0.0000000  0.6508444  3
   3024   3022   3023   3027     1  0.0000000  1.0460000  1
   3024   3022   3023   3027     1  0.0000000  0.0000000  3
   3024   3022   3023   3039     1  0.0000000  1.0460000  1
   3024   3022   3023   3039     1  0.0000000  0.0000000  3
   3024   3022   3023   3026     1  0.0000000  0.6508444  3
   3024   3022   3028   3034     1  0.0000000  0.6973333  3
   3024   3022   3021   3029     1  0.0000000  1.0460000  1
   3024   3022   3021   3029     1  0.0000000  0.0000000  3
   3024   3022   3021   3025     1  0.0000000  0.6508444  3
   3025   3021   3022   3028     1  0.0000000  1.0460000  1
   3025   3021   3022   3028     1  0.0000000  0.0000000  3
   3025   3021   3029   3032     1  0.0000000  0.6973333  3
   3025   3021   3018   3030     1  0.0000000  1.0460000  1
   3025   3021   3018   3030     1  0.0000000  0.0000000  3
   3026   3023   3022   3028     1  0.0000000  0.6508444  3
   3035   3031   3037   3038     1  0.0000000  0.6973333  3
   3035   3031   3017   3039     1  0.0000000  1.0460000  1
   3035   3031   3017   3039     1  0.0000000  0.0000000  3
   3036   3031   3037   3038     1  0.0000000  0.6973333  3
   3036   3031   3017   3039     1  0.0000000  1.0460000  1
   3036   3031   3017   3039     1  0.0000000  0.0000000  3
   3040   3041   3044   3048     1  0.0000000  0.6508444  3
   3040   3041   3053   3056     1  0.0000000  1.0460000  1
   3040   3041   3053   3056     1  0.0000000  0.6694400  3
   3040   3054   3060   3061     1  0.0000000  1.0460000  1
   3040   3054   3060   3061     1  0.0000000  0.6694400  3
   3040   3062   3046   3049     1  0.0000000  1.6038667  3
   3041   3040   3054   3058     1  0.0000000  0.6508444  3
   3041   3040   3054   3059     1  0.0000000  0.6508444  3
   3041   3044   3045   3047     1  0.0000000  0.6508444  3
   3041   3044   3052   3055     1  0.0000000  1.0460000  1
   3041   3044   3052   3055     1  0.0000000  0.6694400  3
   3042   3040   3041   3044     1  0.0000000  0.6508444  3
   3042   3040   3041   3053     1  0.0000000  1.0460000  1
   3042   3040   3041   3053     1  0.0000000  0.0000000  3
   3042   3040   3041   3043     1  0.0000000  0.6508444  3
   3042   3040   3054   3060     1  0.0000000  1.0460000  1
   3042   3040   3054   3060     1  0.0000000  0.0000000  3
   3042   3040   3054   3058     1  0.0000000  0.6508444  3
   3042   3040   3054   3059     1  0.0000000  0.6508444  3
   3042   3040   3062   3046     1  0.0000000  1.6038667  3
   3043   3041   3040   3054     1  0.0000000  0.6508444  3
   3043   3041   3040   3062     1  0.0000000  1.0460000  1
   3043   3041   3040   3062     1  0.0000000  0.0000000  3
   3043   3041   3044   3045     1  0.0000000  0.6508444  3
   3043   3041   3044   3052     1  0.0000000  1.0460000  1
   3043   3041   3044   3052     1  0.0000000  0.0000000  3
   3043   3041   3044   3048     1  0.0000000  0.6508444  3
   3043   3041   3053   3056     1  0.0000000  0.6973333  3
   3044   3041   3053   3056     1  0.0000000  1.0460000  1
   3044   3041   3053   3056     1  0.0000000  0.6694400  3
   3044   3045   3046   3049     1  0.0000000  0.6508444  3
   3044   3045   3051   3057     1  0.0000000  1.0460000  1
   3044   3045   3051   3057     1  0.0000000  0.6694400  3
   3045   3044   3052   3055     1  0.0000000  1.0460000  1
   3045   3044   3052   3055     1  0.0000000  0.6694400  3
   3046   3045   3044   3048     1  0.0000000  0.6508444  3
   3046   3045   3051   3057     1  0.0000000  1.0460000  1
   3046   3045   3051   3057     1  0.0000000  0.6694400  3
   3047   3045   3044   3052     1  0.0000000  1.0460000  1
   3047   3045   3044   3052     1  0.0000000  0.0000000  3
   3047   3045   3044   3048     1  0.0000000  0.6508444  3
   3047   3045   3046   3050     1  0.0000000  1.0460000  1
   3047   3045   3046   3050     1  0.0000000  0.0000000  3
   3047   3045   3046   3062     1  0.0000000  1.0460000  1
   3047   3045   3046   3062     1  0.0000000  0.0000000  3
   3047   3045   3046   3049     1  0.0000000  0.6508444  3
   3047   3045   3051   3057     1  0.0000000  0.6973333  3
   3048   3044   3041   3053     1  0.0000000  1.0460000  1
   3048   3044   3041   3053     1  0.0000000  0.0000000  3
   3048   3044   3045   3051     1  0.0000000  1.0460000  1
   3048   3044   3045   3051     1  0.0000000  0.0000000  3
   3048   3044   3052   3055     1  0.0000000  0.6973333  3
   3049   3046   3045   3051     1  0.0000000  0.6508444  3
   3058   3054   3040   3062     1  0.0000000  1.0460000  1
   3058   3054   3040   3062     1  0.0000000  0.0000000  3
   3058   3054   3060   3061     1  0.0000000  0.6973333  3
   3059   3054   3040   3062     1  0.0000000  1.0460000  1
   3059   3054   3040   3062     1  0.0000000  0.0000000  3
   3059   3054   3060   3061     1  0.0000000  0.6973333  3
   3063   3064   3067   3071     1  0.0000000  0.6508444  3
   3063   3064   3076   3079     1  0.0000000  1.0460000  1
   3063   3064   3076   3079     1  0.0000000  0.6694400  3
   3063   3077   3083   3084     1  0.0000000  1.0460000  1
   3063   3077   3083   3084     1  0.0000000  0.6694400  3
   3063   3085   3069   3072     1  0.0000000  1.6038667  3
   3064   3067   3068   3070     1  0.0000000  0.6508444  3
   3064   3067   3075   3078     1  0.0000000  1.0460000  1
   3064   3067   3075   3078     1  0.0000000  0.6694400  3
   3064   3063   3077   3081     1  0.0000000  0.6508444  3
   3064   3063   3077   3082     1  0.0000000  0.6508444  3
   3065   3063   3064   3067     1  0.0000000  0.6508444  3
   3065   3063   3064   3076     1  0.0000000  1.0460000  1
   3065   3063   3064   3076     1  0.0000000  0.0000000  3
   3065   3063   3064   3066     1  0.0000000  0.6508444  3
   3065   3063   3077   3083     1  0.0000000  1.0460000  1
   3065   3063   3077   3083     1  0.0000000  0.0000000  3
   3065   3063   3077   3081     1  0.0000000  0.6508444  3
   3065   3063   3077   3082     1  0.0000000  0.6508444  3
   3065   3063   3085   3069     1  0.0000000  1.6038667  3
   3066   3064   3067   3068     1  0.0000000  0.6508444  3
   3066   3064   3067   3075     1  0.0000000  1.0460000  1
   3066   3064   3067   3075     1  0.0000000  0.0000000  3
   3066   3064   3067   3071     1  0.0000000  0.6508444  3
   3066   3064   3076   3079     1  0.0000000  0.6973333  3
   3066   3064   3063   3077     1  0.0000000  0.6508444  3
   3066   3064   3063   3085     1  0.0000000  1.0460000  1
   3066   3064   3063   3085     1  0.0000000  0.0000000  3
   3067   3068   3069   3072     1  0.0000000  0.6508444  3
   3067   3068   3074   3080     1  0.0000000  1.0460000  1
   3067   3068   3074   3080     1  0.0000000  0.6694400  3
   3067   3064   3076   3079     1  0.0000000  1.0460000  1
   3067   3064   3076   3079     1  0.0000000  0.6694400  3
   3068   3067   3075   3078     1  0.0000000  1.0460000  1
   3068   3067   3075   3078     1  0.0000000  0.6694400  3
   3069   3068   3074   3080     1  0.0000000  1.0460000  1
   3069   3068   3074   3080     1  0.0000000  0.6694400  3
   3069   3068   3067   3071     1  0.0000000  0.6508444  3
   3070   3068   3069   3073     1  0.0000000  1.0460000  1
   3070   3068   3069   3073     1  0.0000000  0.0000000  3
   3070   3068   3069   3085     1  0.0000000  1.0460000  1
   3070   3068   3069   3085     1  0.0000000  0.0000000  3
   3070   3068   3069   3072     1  0.0000000  0.6508444  3
   3070   3068   3074   3080     1  0.0000000  0.6973333  3
   3070   3068   3067   3075     1  0.0000000  1.0460000  1
   3070   3068   3067   3075     1  0.0000000  0.0000000  3
   3070   3068   3067   3071     1  0.0000000  0.6508444  3
   3071   3067   3068   3074     1  0.0000000  1.0460000  1
   3071   3067   3068   3074     1  0.0000000  0.0000000  3
   3071   3067   3075   3078     1  0.0000000  0.6973333  3
   3071   3067   3064   3076     1  0.0000000  1.0460000  1
   3071   3067   3064   3076     1  0.0000000  0.0000000  3
   3072   3069   3068   3074     1  0.0000000  0.6508444  3
   3081   3077   3083   3084     1  0.0000000  0.6973333  3
   3081   3077   3063   3085     1  0.0000000  1.0460000  1
   3081   3077   3063   3085     1  0.0000000  0.0000000  3
   3082   3077   3083   3084     1  0.0000000  0.6973333  3
   3082   3077   3063   3085     1  0.0000000  1.0460000  1
   3082   3077   3063   3085     1  0.0000000  0.0000000  3
   3086   3087   3090   3094     1  0.0000000  0.6508444  3
   3086   3087   3099   3102     1  0.0000000  1.0460000  1
   3086   3087   3099   3102     1  0.0000000  0.6694400  3
   3086   3100   3106   3107     1  0.0000000  1.0460000  1
   3086   3100   3106   3107     1  0.0000000  0.6694400  3
   3086   3108   3092   3095     1  0.0000000  1.6038667  3
   3087   3086   3100   3104     1  0.0000000  0.6508444  3
   3087   3086   3100   3105     1  0.0000000  0.6508444  3
   3087   3090   3091   3093     1  0.0000000  0.6508444  3
   3087   3090   3098   3101     1  0.0000000  1.0460000  1
   3087   3090   3098   3101     1  0.0000000  0.6694400  3
   3088   3086   3087   3090     1  0.0000000  0.6508444  3
   3088   3086   3087   3099     1  0.0000000  1.0460000  1
   3088   3086   3087   3099     1  0.0000000  0.0000000  3
   3088   3086   3087   3089     1  0.0000000  0.6508444  3
   3088   3086   3100   3106     1  0.0000000  1.0460000  1
   3088   3086   3100   3106     1  0.0000000  0.0000000  3
   3088   3086   3100   3104     1  0.0000000  0.6508444  3
   3088   3086   3100   3105     1  0.0000000  0.6508444  3
   3088   3086   3108   3092     1  0.0000000  1.6038667  3
   3089   3087   3086   3100     1  0.0000000  0.6508444  3
   3089   3087   3086   3108     1  0.0000000  1.0460000  1
   3089   3087   3086   3108     1  0.0000000  0.0000000  3
   3089   3087   3090   3091     1  0.0000000  0.6508444  3
   3089   3087   3090   3098     1  0.0000000  1.0460000  1
   3089   3087   3090   3098     1  0.0000000  0.0000000  3
   3089   3087   3090   3094     1  0.0000000  0.6508444  3
   3089   3087   3099   3102     1  0.0000000  0.6973333  3
   3090   3087   3099   3102     1  0.0000000  1.0460000  1
   3090   3087   3099   3102     1  0.0000000  0.6694400  3
   3090   3091   3092   3095     1  0.0000000  0.6508444  3
   3090   3091   3097   3103     1  0.0000000  1.0460000  1
   3090   3091   3097   3103     1  0.0000000  0.6694400  3
   3091   3090   3098   3101     1  0.0000000  1.0460000  1
   3091   3090   3098   3101     1  0.0000000  0.6694400  3
   3092   3091   3090   3094     1  0.0000000  0.6508444  3
   3092   3091   3097   3103     1  0.0000000  1.0460000  1
   3092   3091   3097   3103     1  0.0000000  0.6694400  3
   3093   3091   3090   3098     1  0.0000000  1.0460000  1
   3093   3091   3090   3098     1  0.0000000  0.0000000  3
   3093   3091   3090   3094     1  0.0000000  0.6508444  3
   3093   3091   3092   3096     1  0.0000000  1.0460000  1
   3093   3091   3092   3096     1  0.0000000  0.0000000  3
   3093   3091   3092   3108     1  0.0000000  1.0460000  1
   3093   3091   3092   3108     1  0.0000000  0.0000000  3
   3093   3091   3092   3095     1  0.0000000  0.6508444  3
   3093   3091   3097   3103     1  0.0000000  0.6973333  3
   3094   3090   3087   3099     1  0.0000000  1.0460000  1
   3094   3090   3087   3099     1  0.0000000  0.0000000  3
   3094   3090   3091   3097     1  0.0000000  1.0460000  1
   3094   3090   3091   3097     1  0.0000000  0.0000000  3
   3094   3090   3098   3101     1  0.0000000  0.6973333  3
   3095   3092   3091   3097     1  0.0000000  0.6508444  3
   3104   3100   3086   3108     1  0.0000000  1.0460000  1
   3104   3100   3086   3108     1  0.0000000  0.0000000  3
   3104   3100   3106   3107     1  0.0000000  0.6973333  3
   3105   3100   3086   3108     1  0.0000000  1.0460000  1
   3105   3100   3086   3108     1  0.0000000  0.0000000  3
   3105   3100   3106   3107     1  0.0000000  0.6973333  3
   3109   3110   3113   3117     1  0.0000000  0.6508444  3
   3109   3110   3122   3125     1  0.0000000  1.0460000  1
   3109   3110   3122   3125     1  0.0000000  0.6694400  3
   3109   3123   3129   3130     1  0.0000000  1.0460000  1
   3109   3123   3129   3130     1  0.0000000  0.6694400  3
   3109   3131   3115   3118     1  0.0000000  1.6038667  3
   3110   3113   3114   3116     1  0.0000000  0.6508444  3
   3110   3113   3121   3124     1  0.0000000  1.0460000  1
   3110   3113   3121   3124     1  0.0000000  0.6694400  3
   3110   3109   3123   3127     1  0.0000000  0.6508444  3
   3110   3109   3123   3128     1  0.0000000  0.6508444  3
   3111   3109   3110   3113     1  0.0000000  0.6508444  3
   3111   3109   3110   3122     1  0.0000000  1.0460000  1
   3111   3109   3110   3122     1  0.0000000  0.0000000  3
   3111   3109   3110   3112     1  0.0000000  0.6508444  3
   3111   3109   3123   3129     1  0.0000000  1.0460000  1
   3111   3109   3123   3129     1  0.0000000  0.0000000  3
   3111   3109   3123   3127     1  0.0000000  0.6508444  3
   3111   3109   3123   3128     1  0.0000000  0.6508444  3
   3111   3109   3131   3115     1  0.0000000  1.6038667  3
   3112   3110   3113   3114     1  0.0000000  0.6508444  3
   3112   3110   3113   3121     1  0.0000000  1.0460000  1
   3112   3110   3113   3121     1  0.0000000  0.0000000  3
   3112   3110   3113   3117     1  0.0000000  0.6508444  3
   3112   3110   3122   3125     1  0.0000000  0.6973333  3
   3112   3110   3109   3123     1  0.0000000  0.6508444  3
   3112   3110   3109   3131     1  0.0000000  1.0460000  1
   3112   3110   3109   3131     1  0.0000000  0.0000000  3
   3113   3114   3115   3118     1  0.0000000  0.6508444  3
   3113   3114   3120   3126     1  0.0000000  1.0460000  1
   3113   3114   3120   3126     1  0.0000000  0.6694400  3
   3113   3110   3122   3125     1  0.0000000  1.0460000  1
   3113   3110   3122   3125     1  0.0000000  0.6694400  3
   3114   3113   3121   3124     1  0.0000000  1.0460000  1
   3114   3113   3121   3124     1  0.0000000  0.6694400  3
   3115   3114   3120   3126     1  0.0000000  1.0460000  1
   3115   3114   3120   3126     1  0.0000000  0.6694400  3
   3115   3114   3113   3117     1  0.0000000  0.6508444  3
   3116   3114   3115   3119     1  0.0000000  1.0460000  1
   3116   3114   3115   3119     1  0.0000000  0.0000000  3
   3116   3114   3115   3131     1  0.0000000  1.0460000  1
   3116   3114   3115   3131     1  0.0000000  0.0000000  3
   3116   3114   3115   3118     1  0.0000000  0.6508444  3
   3116   3114   3120   3126     1  0.0000000  0.6973333  3
   3116   3114   3113   3121     1  0.0000000  1.0460000  1
   3116   3114   3113   3121     1  0.0000000  0.0000000  3
   3116   3114   3113   3117     1  0.0000000  0.6508444  3
   3117   3113   3114   3120     1  0.0000000  1.0460000  1
   3117   3113   3114   3120     1  0.0000000  0.0000000  3
   3117   3113   3121   3124     1  0.0000000  0.6973333  3
   3117   3113   3110   3122     1  0.0000000  1.0460000  1
   3117   3113   3110   3122     1  0.0000000  0.0000000  3
   3118   3115   3114   3120     1  0.0000000  0.6508444  3
   3127   3123   3129   3130     1  0.0000000  0.6973333  3
   3127   3123   3109   3131     1  0.0000000  1.0460000  1
   3127   3123   3109   3131     1  0.0000000  0.0000000  3
   3128   3123   3129   3130     1  0.0000000  0.6973333  3
   3128   3123   3109   3131     1  0.0000000  1.0460000  1
   3128   3123   3109   3131     1  0.0000000  0.0000000  3
   3132   3133   3136   3140     1  0.0000000  0.6508444  3
   3132   3133   3145   3148     1  0.0000000  1.0460000  1
   3132   3133   3145   3148     1  0.0000000  0.6694400  3
   3132   3146   3152   3153     1  0.0000000  1.0460000  1
   3132   3146   3152   3153     1  0.0000000  0.6694400  3
   3132   3154   3138   3141     1  0.0000000  1.6038667  3
   3133   3132   3146   3150     1  0.0000000  0.6508444  3
   3133   3132   3146   3151     1  0.0000000  0.6508444  3
   3133   3136   3137   3139     1  0.0000000  0.6508444  3
   3133   3136   3144   3147     1  0.0000000  1.0460000  1
   3133   3136   3144   3147     1  0.0000000  0.6694400  3
   3134   3132   3133   3136     1  0.0000000  0.6508444  3
   3134   3132   3133   3145     1  0.0000000  1.0460000  1
   3134   3132   3133   3145     1  0.0000000  0.0000000  3
   3134   3132   3133   3135     1  0.0000000  0.6508444  3
   3134   3132   3146   3152     1  0.0000000  1.0460000  1
   3134   3132   3146   3152     1  0.0000000  0.0000000  3
   3134   3132   3146   3150     1  0.0000000  0.6508444  3
   3134   3132   3146   3151     1  0.0000000  0.6508444  3
   3134   3132   3154   3138     1  0.0000000  1.6038667  3
   3135   3133   3132   3146     1  0.0000000  0.6508444  3
   3135   3133   3132   3154     1  0.0000000  1.0460000  1
   3135   3133   3132   3154     1  0.0000000  0.0000000  3
   3135   3133   3136   3137     1  0.0000000  0.6508444  3
   3135   3133   3136   3144     1  0.0000000  1.0460000  1
   3135   3133   3136   3144     1  0.0000000  0.0000000  3
   3135   3133   3136   3140     1  0.0000000  0.6508444  3
   3135   3133   3145   3148     1  0.0000000  0.6973333  3
   3136   3133   3145   3148     1  0.0000000  1.0460000  1
   3136   3133   3145   3148     1  0.0000000  0.6694400  3
   3136   3137   3138   3141     1  0.0000000  0.6508444  3
   3136   3137   3143   3149     1  0.0000000  1.0460000  1
   3136   3137   3143   3149     1  0.0000000  0.6694400  3
   3137   3136   3144   3147     1  0.0000000  1.0460000  1
   3137   3136   3144   3147     1  0.0000000  0.6694400  3
   3138   3137   3136   3140     1  0.0000000  0.6508444  3
   3138   3137   3143   3149     1  0.0000000  1.0460000  1
   3138   3137   3143   3149     1  0.0000000  0.6694400  3
   3139   3137   3136   3144     1  0.0000000  1.0460000  1
   3139   3137   3136   3144     1  0.0000000  0.0000000  3
   3139   3137   3136   3140     1  0.0000000  0.6508444  3
   3139   3137   3138   3142     1  0.0000000  1.0460000  1
   3139   3137   3138   3142     1  0.0000000  0.0000000  3
   3139   3137   3138   3154     1  0.0000000  1.0460000  1
   3139   3137   3138   3154     1  0.0000000  0.0000000  3
   3139   3137   3138   3141     1  0.0000000  0.6508444  3
   3139   3137   3143   3149     1  0.0000000  0.6973333  3
   3140   3136   3133   3145     1  0.0000000  1.0460000  1
   3140   3136   3133   3145     1  0.0000000  0.0000000  3
   3140   3136   3137   3143     1  0.0000000  1.0460000  1
   3140   3136   3137   3143     1  0.0000000  0.0000000  3
   3140   3136   3144   3147     1  0.0000000  0.6973333  3
   3141   3138   3137   3143     1  0.0000000  0.6508444  3
   3150   3146   3132   3154     1  0.0000000  1.0460000  1
   3150   3146   3132   3154     1  0.0000000  0.0000000  3
   3150   3146   3152   3153     1  0.0000000  0.6973333  3
   3151   3146   3132   3154     1  0.0000000  1.0460000  1
   3151   3146   3132   3154     1  0.0000000  0.0000000  3
   3151   3146   3152   3153     1  0.0000000  0.6973333  3
   3155   3156   3159   3163     1  0.0000000  0.6508444  3
   3155   3156   3168   3171     1  0.0000000  1.0460000  1
   3155   3156   3168   3171     1  0.0000000  0.6694400  3
   3155   3169   3175   3176     1  0.0000000  1.0460000  1
   3155   3169   3175   3176     1  0.0000000  0.6694400  3
   3155   3177   3161   3164     1  0.0000000  1.6038667  3
   3156   3159   3160   3162     1  0.0000000  0.6508444  3
   3156   3159   3167   3170     1  0.0000000  1.0460000  1
   3156   3159   3167   3170     1  0.0000000  0.6694400  3
   3156   3155   3169   3173     1  0.0000000  0.6508444  3
   3156   3155   3169   3174     1  0.0000000  0.6508444  3
   3157   3155   3156   3159     1  0.0000000  0.6508444  3
   3157   3155   3156   3168     1  0.0000000  1.0460000  1
   3157   3155   3156   3168     1  0.0000000  0.0000000  3
   3157   3155   3156   3158     1  0.0000000  0.6508444  3
   3157   3155   3169   3175     1  0.0000000  1.0460000  1
   3157   3155   3169   3175     1  0.0000000  0.0000000  3
   3157   3155   3169   3173     1  0.0000000  0.6508444  3
   3157   3155   3169   3174     1  0.0000000  0.6508444  3
   3157   3155   3177   3161     1  0.0000000  1.6038667  3
   3158   3156   3159   3160     1  0.0000000  0.6508444  3
   3158   3156   3159   3167     1  0.0000000  1.0460000  1
   3158   3156   3159   3167     1  0.0000000  0.0000000  3
   3158   3156   3159   3163     1  0.0000000  0.6508444  3
   3158   3156   3168   3171     1  0.0000000  0.6973333  3
   3158   3156   3155   3169     1  0.0000000  0.6508444  3
   3158   3156   3155   3177     1  0.0000000  1.0460000  1
   3158   3156   3155   3177     1  0.0000000  0.0000000  3
   3159   3160   3161   3164     1  0.0000000  0.6508444  3
   3159   3160   3166   3172     1  0.0000000  1.0460000  1
   3159   3160   3166   3172     1  0.0000000  0.6694400  3
   3159   3156   3168   3171     1  0.0000000  1.0460000  1
   3159   3156   3168   3171     1  0.0000000  0.6694400  3
   3160   3159   3167   3170     1  0.0000000  1.0460000  1
   3160   3159   3167   3170     1  0.0000000  0.6694400  3
   3161   3160   3166   3172     1  0.0000000  1.0460000  1
   3161   3160   3166   3172     1  0.0000000  0.6694400  3
   3161   3160   3159   3163     1  0.0000000  0.6508444  3
   3162   3160   3161   3165     1  0.0000000  1.0460000  1
   3162   3160   3161   3165     1  0.0000000  0.0000000  3
   3162   3160   3161   3177     1  0.0000000  1.0460000  1
   3162   3160   3161   3177     1  0.0000000  0.0000000  3
   3162   3160   3161   3164     1  0.0000000  0.6508444  3
   3162   3160   3166   3172     1  0.0000000  0.6973333  3
   3162   3160   3159   3167     1  0.0000000  1.0460000  1
   3162   3160   3159   3167     1  0.0000000  0.0000000  3
   3162   3160   3159   3163     1  0.0000000  0.6508444  3
   3163   3159   3160   3166     1  0.0000000  1.0460000  1
   3163   3159   3160   3166     1  0.0000000  0.0000000  3
   3163   3159   3167   3170     1  0.0000000  0.6973333  3
   3163   3159   3156   3168     1  0.0000000  1.0460000  1
   3163   3159   3156   3168     1  0.0000000  0.0000000  3
   3164   3161   3160   3166     1  0.0000000  0.6508444  3
   3173   3169   3175   3176     1  0.0000000  0.6973333  3
   3173   3169   3155   3177     1  0.0000000  1.0460000  1
   3173   3169   3155   3177     1  0.0000000  0.0000000  3
   3174   3169   3175   3176     1  0.0000000  0.6973333  3
   3174   3169   3155   3177     1  0.0000000  1.0460000  1
   3174   3169   3155   3177     1  0.0000000  0.0000000  3
   3178   3179   3182   3186     1  0.0000000  0.6508444  3
   3178   3179   3191   3194     1  0.0000000  1.0460000  1
   3178   3179   3191   3194     1  0.0000000  0.6694400  3
   3178   3192   3198   3199     1  0.0000000  1.0460000  1
   3178   3192   3198   3199     1  0.0000000  0.6694400  3
   3178   3200   3184   3187     1  0.0000000  1.6038667  3
   3179   3178   3192   3196     1  0.0000000  0.6508444  3
   3179   3178   3192   3197     1  0.0000000  0.6508444  3
   3179   3182   3183   3185     1  0.0000000  0.6508444  3
   3179   3182   3190   3193     1  0.0000000  1.0460000  1
   3179   3182   3190   3193     1  0.0000000  0.6694400  3
   3180   3178   3179   3182     1  0.0000000  0.6508444  3
   3180   3178   3179   3191     1  0.0000000  1.0460000  1
   3180   3178   3179   3191     1  0.0000000  0.0000000  3
   3180   3178   3179   3181     1  0.0000000  0.6508444  3
   3180   3178   3192   3198     1  0.0000000  1.0460000  1
   3180   3178   3192   3198     1  0.0000000  0.0000000  3
   3180   3178   3192   3196     1  0.0000000  0.6508444  3
   3180   3178   3192   3197     1  0.0000000  0.6508444  3
   3180   3178   3200   3184     1  0.0000000  1.6038667  3
   3181   3179   3178   3192     1  0.0000000  0.6508444  3
   3181   3179   3178   3200     1  0.0000000  1.0460000  1
   3181   3179   3178   3200     1  0.0000000  0.0000000  3
   3181   3179   3182   3183     1  0.0000000  0.6508444  3
   3181   3179   3182   3190     1  0.0000000  1.0460000  1
   3181   3179   3182   3190     1  0.0000000  0.0000000  3
   3181   3179   3182   3186     1  0.0000000  0.6508444  3
   3181   3179   3191   3194     1  0.0000000  0.6973333  3
   3182   3179   3191   3194     1  0.0000000  1.0460000  1
   3182   3179   3191   3194     1  0.0000000  0.6694400  3
   3182   3183   3184   3187     1  0.0000000  0.6508444  3
   3182   3183   3189   3195     1  0.0000000  1.0460000  1
   3182   3183   3189   3195     1  0.0000000  0.6694400  3
   3183   3182   3190   3193     1  0.0000000  1.0460000  1
   3183   3182   3190   3193     1  0.0000000  0.6694400  3
   3184   3183   3182   3186     1  0.0000000  0.6508444  3
   3184   3183   3189   3195     1  0.0000000  1.0460000  1
   3184   3183   3189   3195     1  0.0000000  0.6694400  3
   3185   3183   3182   3190     1  0.0000000  1.0460000  1
   3185   3183   3182   3190     1  0.0000000  0.0000000  3
   3185   3183   3182   3186     1  0.0000000  0.6508444  3
   3185   3183   3184   3188     1  0.0000000  1.0460000  1
   3185   3183   3184   3188     1  0.0000000  0.0000000  3
   3185   3183   3184   3200     1  0.0000000  1.0460000  1
   3185   3183   3184   3200     1  0.0000000  0.0000000  3
   3185   3183   3184   3187     1  0.0000000  0.6508444  3
   3185   3183   3189   3195     1  0.0000000  0.6973333  3
   3186   3182   3179   3191     1  0.0000000  1.0460000  1
   3186   3182   3179   3191     1  0.0000000  0.0000000  3
   3186   3182   3183   3189     1  0.0000000  1.0460000  1
   3186   3182   3183   3189     1  0.0000000  0.0000000  3
   3186   3182   3190   3193     1  0.0000000  0.6973333  3
   3187   3184   3183   3189     1  0.0000000  0.6508444  3
   3196   3192   3178   3200     1  0.0000000  1.0460000  1
   3196   3192   3178   3200     1  0.0000000  0.0000000  3
   3196   3192   3198   3199     1  0.0000000  0.6973333  3
   3197   3192   3178   3200     1  0.0000000  1.0460000  1
   3197   3192   3178   3200     1  0.0000000  0.0000000  3
   3197   3192   3198   3199     1  0.0000000  0.6973333  3
   3201   3202   3205   3209     1  0.0000000  0.6508444  3
   3201   3202   3214   3217     1  0.0000000  1.0460000  1
   3201   3202   3214   3217     1  0.0000000  0.6694400  3
   3201   3215   3221   3222     1  0.0000000  1.0460000  1
   3201   3215   3221   3222     1  0.0000000  0.6694400  3
   3201   3223   3207   3210     1  0.0000000  1.6038667  3
   3202   3205   3206   3208     1  0.0000000  0.6508444  3
   3202   3205   3213   3216     1  0.0000000  1.0460000  1
   3202   3205   3213   3216     1  0.0000000  0.6694400  3
   3202   3201   3215   3219     1  0.0000000  0.6508444  3
   3202   3201   3215   3220     1  0.0000000  0.6508444  3
   3203   3201   3202   3205     1  0.0000000  0.6508444  3
   3203   3201   3202   3214     1  0.0000000  1.0460000  1
   3203   3201   3202   3214     1  0.0000000  0.0000000  3
   3203   3201   3202   3204     1  0.0000000  0.6508444  3
   3203   3201   3215   3221     1  0.0000000  1.0460000  1
   3203   3201   3215   3221     1  0.0000000  0.0000000  3
   3203   3201   3215   3219     1  0.0000000  0.6508444  3
   3203   3201   3215   3220     1  0.0000000  0.6508444  3
   3203   3201   3223   3207     1  0.0000000  1.6038667  3
   3204   3202   3205   3206     1  0.0000000  0.6508444  3
   3204   3202   3205   3213     1  0.0000000  1.0460000  1
   3204   3202   3205   3213     1  0.0000000  0.0000000  3
   3204   3202   3205   3209     1  0.0000000  0.6508444  3
   3204   3202   3214   3217     1  0.0000000  0.6973333  3
   3204   3202   3201   3215     1  0.0000000  0.6508444  3
   3204   3202   3201   3223     1  0.0000000  1.0460000  1
   3204   3202   3201   3223     1  0.0000000  0.0000000  3
   3205   3206   3207   3210     1  0.0000000  0.6508444  3
   3205   3206   3212   3218     1  0.0000000  1.0460000  1
   3205   3206   3212   3218     1  0.0000000  0.6694400  3
   3205   3202   3214   3217     1  0.0000000  1.0460000  1
   3205   3202   3214   3217     1  0.0000000  0.6694400  3
   3206   3205   3213   3216     1  0.0000000  1.0460000  1
   3206   3205   3213   3216     1  0.0000000  0.6694400  3
   3207   3206   3212   3218     1  0.0000000  1.0460000  1
   3207   3206   3212   3218     1  0.0000000  0.6694400  3
   3207   3206   3205   3209     1  0.0000000  0.6508444  3
   3208   3206   3207   3211     1  0.0000000  1.0460000  1
   3208   3206   3207   3211     1  0.0000000  0.0000000  3
   3208   3206   3207   3223     1  0.0000000  1.0460000  1
   3208   3206   3207   3223     1  0.0000000  0.0000000  3
   3208   3206   3207   3210     1  0.0000000  0.6508444  3
   3208   3206   3212   3218     1  0.0000000  0.6973333  3
   3208   3206   3205   3213     1  0.0000000  1.0460000  1
   3208   3206   3205   3213     1  0.0000000  0.0000000  3
   3208   3206   3205   3209     1  0.0000000  0.6508444  3
   3209   3205   3206   3212     1  0.0000000  1.0460000  1
   3209   3205   3206   3212     1  0.0000000  0.0000000  3
   3209   3205   3213   3216     1  0.0000000  0.6973333  3
   3209   3205   3202   3214     1  0.0000000  1.0460000  1
   3209   3205   3202   3214     1  0.0000000  0.0000000  3
   3210   3207   3206   3212     1  0.0000000  0.6508444  3
   3219   3215   3221   3222     1  0.0000000  0.6973333  3
   3219   3215   3201   3223     1  0.0000000  1.0460000  1
   3219   3215   3201   3223     1  0.0000000  0.0000000  3
   3220   3215   3221   3222     1  0.0000000  0.6973333  3
   3220   3215   3201   3223     1  0.0000000  1.0460000  1
   3220   3215   3201   3223     1  0.0000000  0.0000000  3
   3224   3225   3228   3232     1  0.0000000  0.6508444  3
   3224   3225   3237   3240     1  0.0000000  1.0460000  1
   3224   3225   3237   3240     1  0.0000000  0.6694400  3
   3224   3238   3244   3245     1  0.0000000  1.0460000  1
   3224   3238   3244   3245     1  0.0000000  0.6694400  3
   3224   3246   3230   3233     1  0.0000000  1.6038667  3
   3225   3224   3238   3242     1  0.0000000  0.6508444  3
   3225   3224   3238   3243     1  0.0000000  0.6508444  3
   3225   3228   3229   3231     1  0.0000000  0.6508444  3
   3225   3228   3236   3239     1  0.0000000  1.0460000  1
   3225   3228   3236   3239     1  0.0000000  0.6694400  3
   3226   3224   3225   3228     1  0.0000000  0.6508444  3
   3226   3224   3225   3237     1  0.0000000  1.0460000  1
   3226   3224   3225   3237     1  0.0000000  0.0000000  3
   3226   3224   3225   3227     1  0.0000000  0.6508444  3
   3226   3224   3238   3244     1  0.0000000  1.0460000  1
   3226   3224   3238   3244     1  0.0000000  0.0000000  3
   3226   3224   3238   3242     1  0.0000000  0.6508444  3
   3226   3224   3238   3243     1  0.0000000  0.6508444  3
   3226   3224   3246   3230     1  0.0000000  1.6038667  3
   3227   3225   3224   3238     1  0.0000000  0.6508444  3
   3227   3225   3224   3246     1  0.0000000  1.0460000  1
   3227   3225   3224   3246     1  0.0000000  0.0000000  3
   3227   3225   3228   3229     1  0.0000000  0.6508444  3
   3227   3225   3228   3236     1  0.0000000  1.0460000  1
   3227   3225   3228   3236     1  0.0000000  0.0000000  3
   3227   3225   3228   3232     1  0.0000000  0.6508444  3
   3227   3225   3237   3240     1  0.0000000  0.6973333  3
   3228   3225   3237   3240     1  0.0000000  1.0460000  1
   3228   3225   3237   3240     1  0.0000000  0.6694400  3
   3228   3229   3230   3233     1  0.0000000  0.6508444  3
   3228   3229   3235   3241     1  0.0000000  1.0460000  1
   3228   3229   3235   3241     1  0.0000000  0.6694400  3
   3229   3228   3236   3239     1  0.0000000  1.0460000  1
   3229   3228   3236   3239     1  0.0000000  0.6694400  3
   3230   3229   3228   3232     1  0.0000000  0.6508444  3
   3230   3229   3235   3241     1  0.0000000  1.0460000  1
   3230   3229   3235   3241     1  0.0000000  0.6694400  3
   3231   3229   3228   3236     1  0.0000000  1.0460000  1
   3231   3229   3228   3236     1  0.0000000  0.0000000  3
   3231   3229   3228   3232     1  0.0000000  0.6508444  3
   3231   3229   3230   3234     1  0.0000000  1.0460000  1
   3231   3229   3230   3234     1  0.0000000  0.0000000  3
   3231   3229   3230   3246     1  0.0000000  1.0460000  1
   3231   3229   3230   3246     1  0.0000000  0.0000000  3
   3231   3229   3230   3233     1  0.0000000  0.6508444  3
   3231   3229   3235   3241     1  0.0000000  0.6973333  3
   3232   3228   3225   3237     1  0.0000000  1.0460000  1
   3232   3228   3225   3237     1  0.0000000  0.0000000  3
   3232   3228   3229   3235     1  0.0000000  1.0460000  1
   3232   3228   3229   3235     1  0.0000000  0.0000000  3
   3232   3228   3236   3239     1  0.0000000  0.6973333  3
   3233   3230   3229   3235     1  0.0000000  0.6508444  3
   3242   3238   3224   3246     1  0.0000000  1.0460000  1
   3242   3238   3224   3246     1  0.0000000  0.0000000  3
   3242   3238   3244   3245     1  0.0000000  0.6973333  3
   3243   3238   3224   3246     1  0.0000000  1.0460000  1
   3243   3238   3224   3246     1  0.0000000  0.0000000  3
   3243   3238   3244   3245     1  0.0000000  0.6973333  3
   3247   3248   3251   3255     1  0.0000000  0.6508444  3
   3247   3248   3260   3263     1  0.0000000  1.0460000  1
   3247   3248   3260   3263     1  0.0000000  0.6694400  3
   3247   3261   3267   3268     1  0.0000000  1.0460000  1
   3247   3261   3267   3268     1  0.0000000  0.6694400  3
   3247   3269   3253   3256     1  0.0000000  1.6038667  3
   3248   3251   3252   3254     1  0.0000000  0.6508444  3
   3248   3251   3259   3262     1  0.0000000  1.0460000  1
   3248   3251   3259   3262     1  0.0000000  0.6694400  3
   3248   3247   3261   3265     1  0.0000000  0.6508444  3
   3248   3247   3261   3266     1  0.0000000  0.6508444  3
   3249   3247   3248   3251     1  0.0000000  0.6508444  3
   3249   3247   3248   3260     1  0.0000000  1.0460000  1
   3249   3247   3248   3260     1  0.0000000  0.0000000  3
   3249   3247   3248   3250     1  0.0000000  0.6508444  3
   3249   3247   3261   3267     1  0.0000000  1.0460000  1
   3249   3247   3261   3267     1  0.0000000  0.0000000  3
   3249   3247   3261   3265     1  0.0000000  0.6508444  3
   3249   3247   3261   3266     1  0.0000000  0.6508444  3
   3249   3247   3269   3253     1  0.0000000  1.6038667  3
   3250   3248   3251   3252     1  0.0000000  0.6508444  3
   3250   3248   3251   3259     1  0.0000000  1.0460000  1
   3250   3248   3251   3259     1  0.0000000  0.0000000  3
   3250   3248   3251   3255     1  0.0000000  0.6508444  3
   3250   3248   3260   3263     1  0.0000000  0.6973333  3
   3250   3248   3247   3261     1  0.0000000  0.6508444  3
   3250   3248   3247   3269     1  0.0000000  1.0460000  1
   3250   3248   3247   3269     1  0.0000000  0.0000000  3
   3251   3252   3253   3256     1  0.0000000  0.6508444  3
   3251   3252   3258   3264     1  0.0000000  1.0460000  1
   3251   3252   3258   3264     1  0.0000000  0.6694400  3
   3251   3248   3260   3263     1  0.0000000  1.0460000  1
   3251   3248   3260   3263     1  0.0000000  0.6694400  3
   3252   3251   3259   3262     1  0.0000000  1.0460000  1
   3252   3251   3259   3262     1  0.0000000  0.6694400  3
   3253   3252   3258   3264     1  0.0000000  1.0460000  1
   3253   3252   3258   3264     1  0.0000000  0.6694400  3
   3253   3252   3251   3255     1  0.0000000  0.6508444  3
   3254   3252   3253   3257     1  0.0000000  1.0460000  1
   3254   3252   3253   3257     1  0.0000000  0.0000000  3
   3254   3252   3253   3269     1  0.0000000  1.0460000  1
   3254   3252   3253   3269     1  0.0000000  0.0000000  3
   3254   3252   3253   3256     1  0.0000000  0.6508444  3
   3254   3252   3258   3264     1  0.0000000  0.6973333  3
   3254   3252   3251   3259     1  0.0000000  1.0460000  1
   3254   3252   3251   3259     1  0.0000000  0.0000000  3
   3254   3252   3251   3255     1  0.0000000  0.6508444  3
   3255   3251   3252   3258     1  0.0000000  1.0460000  1
   3255   3251   3252   3258     1  0.0000000  0.0000000  3
   3255   3251   3259   3262     1  0.0000000  0.6973333  3
   3255   3251   3248   3260     1  0.0000000  1.0460000  1
   3255   3251   3248   3260     1  0.0000000  0.0000000  3
   3256   3253   3252   3258     1  0.0000000  0.6508444  3
   3265   3261   3267   3268     1  0.0000000  0.6973333  3
   3265   3261   3247   3269     1  0.0000000  1.0460000  1
   3265   3261   3247   3269     1  0.0000000  0.0000000  3
   3266   3261   3267   3268     1  0.0000000  0.6973333  3
   3266   3261   3247   3269     1  0.0000000  1.0460000  1
   3266   3261   3247   3269     1  0.0000000  0.0000000  3

;[ system ]
;; Name
;Generic title
;
;[ molecules ]
;; Compound       #mols
;g4npocore_petim_betagalactose       1
